<?xml version="1.0"?>
<VTKFile type="UnstructuredGrid"  version="0.1"  >
<UnstructuredGrid>
<Piece  NumberOfPoints="1369" NumberOfCells="2560">
<Points>
<DataArray  type="Float64"  NumberOfComponents="3"  format="ascii">0 0 0  0.75 0 0  1.5 0 0  2.25 0 0  3 0 0  3.75 0 0  4.5 0 0  5.25 0 0  6 0 0  6.75 0 0  7.5 0 0  8.25 0 0  9 0 0  9.75 0 0  10.5 0 0  11.25 0 0  12 0 0  12.75 0 0  13.5 0 0  14.25 0 0  15 0 0  15.75 0 0  16.5 0 0  17.25 0 0  18 0 0  18.75 0 0  19.5 0 0  20.25 0 0  21 0 0  21.75 0 0  22.5 0 0  23.25 0 0  24 0 0  24.75 0 0  25.5 0 0  26.25 0 0  27 0 0  27.75 0 0  28.5 0 0  29.25 0 0  30 0 0  30.75 0 0  31.5 0 0  32.25 0 0  33 0 0  33.75 0 0  34.5 0 0  35.25 0 0  36 0 0  36.75 0 0  37.5 0 0  38.25 0 0  39 0 0  39.75 0 0  40.5 0 0  41.25 0 0  42 0 0  42.75 0 0  43.5 0 0  44.25 0 0  45 0 0  45.75 0 0  46.5 0 0  47.25 0 0  48 0 0  48.75 0 0  49.5 0 0  50.25 0 0  51 0 0  51.75 0 0  52.5 0 0  53.25 0 0  54 0 0  54.75 0 0  55.5 0 0  56.25 0 0  57 0 0  57.75 0 0  58.5 0 0  59.25 0 0  60 0 0  0 0.5 0  0.75 0.5 0  1.5 0.5 0  2.25 0.5 0  3 0.5 0  3.75 0.5 0  4.5 0.5 0  5.25 0.5 0  6 0.5 0  6.75 0.5 0  7.5 0.5 0  8.25 0.5 0  9 0.5 0  9.75 0.5 0  10.5 0.5 0  11.25 0.5 0  12 0.5 0  12.75 0.5 0  13.5 0.5 0  14.25 0.5 0  15 0.5 0  15.75 0.5 0  16.5 0.5 0  17.25 0.5 0  18 0.5 0  18.75 0.5 0  19.5 0.5 0  20.25 0.5 0  21 0.5 0  21.75 0.5 0  22.5 0.5 0  23.25 0.5 0  24 0.5 0  24.75 0.5 0  25.5 0.5 0  26.25 0.5 0  27 0.5 0  27.75 0.5 0  28.5 0.5 0  29.25 0.5 0  30 0.5 0  30.75 0.5 0  31.5 0.5 0  32.25 0.5 0  33 0.5 0  33.75 0.5 0  34.5 0.5 0  35.25 0.5 0  36 0.5 0  36.75 0.5 0  37.5 0.5 0  38.25 0.5 0  39 0.5 0  39.75 0.5 0  40.5 0.5 0  41.25 0.5 0  42 0.5 0  42.75 0.5 0  43.5 0.5 0  44.25 0.5 0  45 0.5 0  45.75 0.5 0  46.5 0.5 0  47.25 0.5 0  48 0.5 0  48.75 0.5 0  49.5 0.5 0  50.25 0.5 0  51 0.5 0  51.75 0.5 0  52.5 0.5 0  53.25 0.5 0  54 0.5 0  54.75 0.5 0  55.5 0.5 0  56.25 0.5 0  57 0.5 0  57.75 0.5 0  58.5 0.5 0  59.25 0.5 0  60 0.5 0  0 1 0  0.75 1 0  1.5 1 0  2.25 1 0  3 1 0  3.75 1 0  4.5 1 0  5.25 1 0  6 1 0  6.75 1 0  7.5 1 0  8.25 1 0  9 1 0  9.75 1 0  10.5 1 0  11.25 1 0  12 1 0  12.75 1 0  13.5 1 0  14.25 1 0  15 1 0  15.75 1 0  16.5 1 0  17.25 1 0  18 1 0  18.75 1 0  19.5 1 0  20.25 1 0  21 1 0  21.75 1 0  22.5 1 0  23.25 1 0  24 1 0  24.75 1 0  25.5 1 0  26.25 1 0  27 1 0  27.75 1 0  28.5 1 0  29.25 1 0  30 1 0  30.75 1 0  31.5 1 0  32.25 1 0  33 1 0  33.75 1 0  34.5 1 0  35.25 1 0  36 1 0  36.75 1 0  37.5 1 0  38.25 1 0  39 1 0  39.75 1 0  40.5 1 0  41.25 1 0  42 1 0  42.75 1 0  43.5 1 0  44.25 1 0  45 1 0  45.75 1 0  46.5 1 0  47.25 1 0  48 1 0  48.75 1 0  49.5 1 0  50.25 1 0  51 1 0  51.75 1 0  52.5 1 0  53.25 1 0  54 1 0  54.75 1 0  55.5 1 0  56.25 1 0  57 1 0  57.75 1 0  58.5 1 0  59.25 1 0  60 1 0  0 1.5 0  0.75 1.5 0  1.5 1.5 0  2.25 1.5 0  3 1.5 0  3.75 1.5 0  4.5 1.5 0  5.25 1.5 0  6 1.5 0  6.75 1.5 0  7.5 1.5 0  8.25 1.5 0  9 1.5 0  9.75 1.5 0  10.5 1.5 0  11.25 1.5 0  12 1.5 0  12.75 1.5 0  13.5 1.5 0  14.25 1.5 0  15 1.5 0  15.75 1.5 0  16.5 1.5 0  17.25 1.5 0  18 1.5 0  18.75 1.5 0  19.5 1.5 0  20.25 1.5 0  21 1.5 0  21.75 1.5 0  22.5 1.5 0  23.25 1.5 0  24 1.5 0  24.75 1.5 0  25.5 1.5 0  26.25 1.5 0  27 1.5 0  27.75 1.5 0  28.5 1.5 0  29.25 1.5 0  30 1.5 0  30.75 1.5 0  31.5 1.5 0  32.25 1.5 0  33 1.5 0  33.75 1.5 0  34.5 1.5 0  35.25 1.5 0  36 1.5 0  36.75 1.5 0  37.5 1.5 0  38.25 1.5 0  39 1.5 0  39.75 1.5 0  40.5 1.5 0  41.25 1.5 0  42 1.5 0  42.75 1.5 0  43.5 1.5 0  44.25 1.5 0  45 1.5 0  45.75 1.5 0  46.5 1.5 0  47.25 1.5 0  48 1.5 0  48.75 1.5 0  49.5 1.5 0  50.25 1.5 0  51 1.5 0  51.75 1.5 0  52.5 1.5 0  53.25 1.5 0  54 1.5 0  54.75 1.5 0  55.5 1.5 0  56.25 1.5 0  57 1.5 0  57.75 1.5 0  58.5 1.5 0  59.25 1.5 0  60 1.5 0  0 2 0  0.75 2 0  1.5 2 0  2.25 2 0  3 2 0  3.75 2 0  4.5 2 0  5.25 2 0  6 2 0  6.75 2 0  7.5 2 0  8.25 2 0  9 2 0  9.75 2 0  10.5 2 0  11.25 2 0  12 2 0  12.75 2 0  13.5 2 0  14.25 2 0  15 2 0  15.75 2 0  16.5 2 0  17.25 2 0  18 2 0  18.75 2 0  19.5 2 0  20.25 2 0  21 2 0  21.75 2 0  22.5 2 0  23.25 2 0  24 2 0  24.75 2 0  25.5 2 0  26.25 2 0  27 2 0  27.75 2 0  28.5 2 0  29.25 2 0  30 2 0  30.75 2 0  31.5 2 0  32.25 2 0  33 2 0  33.75 2 0  34.5 2 0  35.25 2 0  36 2 0  36.75 2 0  37.5 2 0  38.25 2 0  39 2 0  39.75 2 0  40.5 2 0  41.25 2 0  42 2 0  42.75 2 0  43.5 2 0  44.25 2 0  45 2 0  45.75 2 0  46.5 2 0  47.25 2 0  48 2 0  48.75 2 0  49.5 2 0  50.25 2 0  51 2 0  51.75 2 0  52.5 2 0  53.25 2 0  54 2 0  54.75 2 0  55.5 2 0  56.25 2 0  57 2 0  57.75 2 0  58.5 2 0  59.25 2 0  60 2 0  0 2.5 0  0.75 2.5 0  1.5 2.5 0  2.25 2.5 0  3 2.5 0  3.75 2.5 0  4.5 2.5 0  5.25 2.5 0  6 2.5 0  6.75 2.5 0  7.5 2.5 0  8.25 2.5 0  9 2.5 0  9.75 2.5 0  10.5 2.5 0  11.25 2.5 0  12 2.5 0  12.75 2.5 0  13.5 2.5 0  14.25 2.5 0  15 2.5 0  15.75 2.5 0  16.5 2.5 0  17.25 2.5 0  18 2.5 0  18.75 2.5 0  19.5 2.5 0  20.25 2.5 0  21 2.5 0  21.75 2.5 0  22.5 2.5 0  23.25 2.5 0  24 2.5 0  24.75 2.5 0  25.5 2.5 0  26.25 2.5 0  27 2.5 0  27.75 2.5 0  28.5 2.5 0  29.25 2.5 0  30 2.5 0  30.75 2.5 0  31.5 2.5 0  32.25 2.5 0  33 2.5 0  33.75 2.5 0  34.5 2.5 0  35.25 2.5 0  36 2.5 0  36.75 2.5 0  37.5 2.5 0  38.25 2.5 0  39 2.5 0  39.75 2.5 0  40.5 2.5 0  41.25 2.5 0  42 2.5 0  42.75 2.5 0  43.5 2.5 0  44.25 2.5 0  45 2.5 0  45.75 2.5 0  46.5 2.5 0  47.25 2.5 0  48 2.5 0  48.75 2.5 0  49.5 2.5 0  50.25 2.5 0  51 2.5 0  51.75 2.5 0  52.5 2.5 0  53.25 2.5 0  54 2.5 0  54.75 2.5 0  55.5 2.5 0  56.25 2.5 0  57 2.5 0  57.75 2.5 0  58.5 2.5 0  59.25 2.5 0  60 2.5 0  0 3 0  0.75 3 0  1.5 3 0  2.25 3 0  3 3 0  3.75 3 0  4.5 3 0  5.25 3 0  6 3 0  6.75 3 0  7.5 3 0  8.25 3 0  9 3 0  9.75 3 0  10.5 3 0  11.25 3 0  12 3 0  12.75 3 0  13.5 3 0  14.25 3 0  15 3 0  15.75 3 0  16.5 3 0  17.25 3 0  18 3 0  18.75 3 0  19.5 3 0  20.25 3 0  21 3 0  21.75 3 0  22.5 3 0  23.25 3 0  24 3 0  24.75 3 0  25.5 3 0  26.25 3 0  27 3 0  27.75 3 0  28.5 3 0  29.25 3 0  30 3 0  30.75 3 0  31.5 3 0  32.25 3 0  33 3 0  33.75 3 0  34.5 3 0  35.25 3 0  36 3 0  36.75 3 0  37.5 3 0  38.25 3 0  39 3 0  39.75 3 0  40.5 3 0  41.25 3 0  42 3 0  42.75 3 0  43.5 3 0  44.25 3 0  45 3 0  45.75 3 0  46.5 3 0  47.25 3 0  48 3 0  48.75 3 0  49.5 3 0  50.25 3 0  51 3 0  51.75 3 0  52.5 3 0  53.25 3 0  54 3 0  54.75 3 0  55.5 3 0  56.25 3 0  57 3 0  57.75 3 0  58.5 3 0  59.25 3 0  60 3 0  0 3.5 0  0.75 3.5 0  1.5 3.5 0  2.25 3.5 0  3 3.5 0  3.75 3.5 0  4.5 3.5 0  5.25 3.5 0  6 3.5 0  6.75 3.5 0  7.5 3.5 0  8.25 3.5 0  9 3.5 0  9.75 3.5 0  10.5 3.5 0  11.25 3.5 0  12 3.5 0  12.75 3.5 0  13.5 3.5 0  14.25 3.5 0  15 3.5 0  15.75 3.5 0  16.5 3.5 0  17.25 3.5 0  18 3.5 0  18.75 3.5 0  19.5 3.5 0  20.25 3.5 0  21 3.5 0  21.75 3.5 0  22.5 3.5 0  23.25 3.5 0  24 3.5 0  24.75 3.5 0  25.5 3.5 0  26.25 3.5 0  27 3.5 0  27.75 3.5 0  28.5 3.5 0  29.25 3.5 0  30 3.5 0  30.75 3.5 0  31.5 3.5 0  32.25 3.5 0  33 3.5 0  33.75 3.5 0  34.5 3.5 0  35.25 3.5 0  36 3.5 0  36.75 3.5 0  37.5 3.5 0  38.25 3.5 0  39 3.5 0  39.75 3.5 0  40.5 3.5 0  41.25 3.5 0  42 3.5 0  42.75 3.5 0  43.5 3.5 0  44.25 3.5 0  45 3.5 0  45.75 3.5 0  46.5 3.5 0  47.25 3.5 0  48 3.5 0  48.75 3.5 0  49.5 3.5 0  50.25 3.5 0  51 3.5 0  51.75 3.5 0  52.5 3.5 0  53.25 3.5 0  54 3.5 0  54.75 3.5 0  55.5 3.5 0  56.25 3.5 0  57 3.5 0  57.75 3.5 0  58.5 3.5 0  59.25 3.5 0  60 3.5 0  0 4 0  0.75 4 0  1.5 4 0  2.25 4 0  3 4 0  3.75 4 0  4.5 4 0  5.25 4 0  6 4 0  6.75 4 0  7.5 4 0  8.25 4 0  9 4 0  9.75 4 0  10.5 4 0  11.25 4 0  12 4 0  12.75 4 0  13.5 4 0  14.25 4 0  15 4 0  15.75 4 0  16.5 4 0  17.25 4 0  18 4 0  18.75 4 0  19.5 4 0  20.25 4 0  21 4 0  21.75 4 0  22.5 4 0  23.25 4 0  24 4 0  24.75 4 0  25.5 4 0  26.25 4 0  27 4 0  27.75 4 0  28.5 4 0  29.25 4 0  30 4 0  30.75 4 0  31.5 4 0  32.25 4 0  33 4 0  33.75 4 0  34.5 4 0  35.25 4 0  36 4 0  36.75 4 0  37.5 4 0  38.25 4 0  39 4 0  39.75 4 0  40.5 4 0  41.25 4 0  42 4 0  42.75 4 0  43.5 4 0  44.25 4 0  45 4 0  45.75 4 0  46.5 4 0  47.25 4 0  48 4 0  48.75 4 0  49.5 4 0  50.25 4 0  51 4 0  51.75 4 0  52.5 4 0  53.25 4 0  54 4 0  54.75 4 0  55.5 4 0  56.25 4 0  57 4 0  57.75 4 0  58.5 4 0  59.25 4 0  60 4 0  0.375 0.25 0  1.125 0.25 0  1.875 0.25 0  2.625 0.25 0  3.375 0.25 0  4.125 0.25 0  4.875 0.25 0  5.625 0.25 0  6.375 0.25 0  7.125 0.25 0  7.875 0.25 0  8.625 0.25 0  9.375 0.25 0  10.125 0.25 0  10.875 0.25 0  11.625 0.25 0  12.375 0.25 0  13.125 0.25 0  13.875 0.25 0  14.625 0.25 0  15.375 0.25 0  16.125 0.25 0  16.875 0.25 0  17.625 0.25 0  18.375 0.25 0  19.125 0.25 0  19.875 0.25 0  20.625 0.25 0  21.375 0.25 0  22.125 0.25 0  22.875 0.25 0  23.625 0.25 0  24.375 0.25 0  25.125 0.25 0  25.875 0.25 0  26.625 0.25 0  27.375 0.25 0  28.125 0.25 0  28.875 0.25 0  29.625 0.25 0  30.375 0.25 0  31.125 0.25 0  31.875 0.25 0  32.625 0.25 0  33.375 0.25 0  34.125 0.25 0  34.875 0.25 0  35.625 0.25 0  36.375 0.25 0  37.125 0.25 0  37.875 0.25 0  38.625 0.25 0  39.375 0.25 0  40.125 0.25 0  40.875 0.25 0  41.625 0.25 0  42.375 0.25 0  43.125 0.25 0  43.875 0.25 0  44.625 0.25 0  45.375 0.25 0  46.125 0.25 0  46.875 0.25 0  47.625 0.25 0  48.375 0.25 0  49.125 0.25 0  49.875 0.25 0  50.625 0.25 0  51.375 0.25 0  52.125 0.25 0  52.875 0.25 0  53.625 0.25 0  54.375 0.25 0  55.125 0.25 0  55.875 0.25 0  56.625 0.25 0  57.375 0.25 0  58.125 0.25 0  58.875 0.25 0  59.625 0.25 0  0.375 0.75 0  1.125 0.75 0  1.875 0.75 0  2.625 0.75 0  3.375 0.75 0  4.125 0.75 0  4.875 0.75 0  5.625 0.75 0  6.375 0.75 0  7.125 0.75 0  7.875 0.75 0  8.625 0.75 0  9.375 0.75 0  10.125 0.75 0  10.875 0.75 0  11.625 0.75 0  12.375 0.75 0  13.125 0.75 0  13.875 0.75 0  14.625 0.75 0  15.375 0.75 0  16.125 0.75 0  16.875 0.75 0  17.625 0.75 0  18.375 0.75 0  19.125 0.75 0  19.875 0.75 0  20.625 0.75 0  21.375 0.75 0  22.125 0.75 0  22.875 0.75 0  23.625 0.75 0  24.375 0.75 0  25.125 0.75 0  25.875 0.75 0  26.625 0.75 0  27.375 0.75 0  28.125 0.75 0  28.875 0.75 0  29.625 0.75 0  30.375 0.75 0  31.125 0.75 0  31.875 0.75 0  32.625 0.75 0  33.375 0.75 0  34.125 0.75 0  34.875 0.75 0  35.625 0.75 0  36.375 0.75 0  37.125 0.75 0  37.875 0.75 0  38.625 0.75 0  39.375 0.75 0  40.125 0.75 0  40
[...]
<PointData  Scalars="f_8-1"> 
<DataArray  type="Float64"  Name="f_8-1"  format="ascii">-8.4795602242437464e+00  -8.3804475326350136e+00  -8.2620434744574194e+00  -8.1508912656372097e+00  -8.0343906767873605e+00  -7.9247071844308801e+00  -7.8134310034296783e+00  -7.7060835225304682e+00  -7.5981982884602290e+00  -7.4919304911760145e+00  -7.3855877158384091e+00  -7.2797358384051885e+00  -7.1739913085688114e+00  -7.0683044263217543e+00  -6.9627553718197790e+00  -6.8571387822918481e+00  -6.7516382873317644e+00  -6.6460579327689340e+00  -6.5405605611268909e+00  -6.4350023303559318e+00  -6.3295017603318779e+00  -6.2239650831171467e+00  -6.1184702131833113e+00  -6.0129577755969930e+00  -5.9074747979917657e+00  -5.8019836050001334e+00  -5.6965112408081522e+00  -5.5910342324279929e+00  -5.4855681205811990e+00  -5.3800987872895938e+00  -5.2746353705012607e+00  -5.1691696308537471e+00  -5.0637070371740034e+00  -4.9582428514942549e+00  -4.8527803577057398e+00  -4.7473168359884266e+00  -4.6418542475166795e+00  -4.5363910238371208e+00  -4.4309283275522029e+00  -4.3254652492204055e+00  -4.2200024739368720e+00  -4.1145394722770838e+00  -4.0090766463815619e+00  -3.9036136873640217e+00  -3.7981508307436305e+00  -3.6926878961215928e+00  -3.5872250212675110e+00  -3.4817621007829329e+00  -3.3762992152092348e+00  -3.2708363029611958e+00  -3.1653734111084328e+00  -3.0599105036695402e+00  -2.9544476081431914e+00  -2.8489847035149669e+00  -2.7435218058398814e+00  -2.6380589028552186e+00  -2.5325960039233939e+00  -2.4271331018997810e+00  -2.3216702022332467e+00  -2.2162073007712833e+00  -2.1107444006758951e+00  -2.0052814995421948e+00  -1.8998185991984611e+00  -1.7943556982601727e+00  -1.6888927977847250e+00  -1.5834298969952560e+00  -1.4779669965447186e+00  -1.3725040961286057e+00  -1.2670411965111514e+00  -1.1615782986425018e+00  -1.0561154061563609e+00  -9.5065252873355410e-01  -8.4518969454487713e-01  -7.3972698372595536e-01  -6.3426462584366883e-01  -5.2880327714602215e-01  -4.2334483954733226e-01  -3.1789445233248864e-01  -2.1247423350169267e-01  -1.0701256316202905e-01  -4.3026256346919969e-03  -8.4903220315508623e+00  -8.3740858606429960e+00  -8.2661600386911243e+00  -8.1476676666597605e+00  -8.0367036581942326e+00  -7.9235296976226754e+00  -7.8144608813943179e+00  -7.7058658175326933e+00  -7.5985410204474721e+00  -7.4920590177970272e+00  -7.3856585315737435e+00  -7.2799440251556273e+00  -7.1739905104667763e+00  -7.0685010641415804e+00  -6.9627565729017036e+00  -6.8573027095594039e+00  -6.7516595756427717e+00  -6.6461924901634761e+00  -6.5406011475536676e+00  -6.4351152367538065e+00  -6.3295555694824515e+00  -6.2240629715847016e+00  -6.1185320837884909e+00  -6.0130460829779331e+00  -5.9075417165582618e+00  -5.8020663260610030e+00  -5.6965814530197294e+00  -5.5911138520082400e+00  -5.4856404532597205e+00  -5.3801766841925298e+00  -5.2747090136721555e+00  -5.1692465464748407e+00  -5.0637814623991897e+00  -4.9583191952350232e+00  -4.8528552409123042e+00  -4.7473928428401067e+00  -4.6419293973216478e+00  -4.5364668318486823e+00  -4.4310036326311018e+00  -4.3255409400464560e+00  -4.2200778696741743e+00  -4.1146150941655160e+00  -4.0091520951700357e+00  -3.9036892687477129e+00  -3.7982263106206200e+00  -3.6927634537245080e+00  -3.5873005193734357e+00  -3.4818376444326482e+00  -3.3763747240029858e+00  -3.2709118384297406e+00  -3.1654489261654115e+00  -3.0599860343448664e+00  -2.9545231268681680e+00  -2.8490602313838855e+00  -2.7435973267119782e+00  -2.6381344290815405e+00  -2.5326715260521957e+00  -2.4272086271645530e+00  -2.3217457250978404e+00  -2.2162828254728990e+00  -2.1108199239715799e+00  -2.0053570239136196e+00  -1.8998941227467163e+00  -1.7944312224372427e+00  -1.6889683214791393e+00  -1.5835054210523956e+00  -1.4780425203075760e+00  -1.3725796200651528e+00  -1.2671167201683586e+00  -1.1616538220866510e+00  -1.0561909285317779e+00  -9.5072804836093194e-01  -8.4526520595132570e-01  -7.3980247145787492e-01  -6.3434004427683033e-01  -5.2887849318464675e-01  -4.2341942021635448e-01  -3.1796759276303466e-01  -2.1253031085254823e-01  -1.0723996146474936e-01  -5.1627829110459534e-05  -8.4776723015916833e+00  -8.3797755223748958e+00  -8.2568022532245493e+00  -8.1509482734278951e+00  -8.0340950294491513e+00  -7.9249345485559175e+00  -7.8146772777248099e+00  -7.7061163221522628e+00  -7.5993519859074041e+00  -7.4918693495534354e+00  -7.3863842373689650e+00  -7.2796924281558635e+00  -7.1745127047105530e+00  -7.0683141899299020e+00  -6.9631089441204628e+00  -6.8571951348624642e+00  -6.7518962271920913e+00  -6.6461474806776355e+00  -6.5407665280869001e+00  -6.4351125117492298e+00  -6.3296776784338924e+00  -6.2240855129939296e+00  -6.1186275950161058e+00  -6.0130830628359444e+00  -5.9076213625602563e+00  -5.8021118711082131e+00  -5.6966520733604948e+00  -5.5911646953600833e+00  -5.4857060656909464e+00  -5.3802308150389591e+00  -5.2747718348562325e+00  -5.1693026773310091e+00  -5.0638426981784637e+00  -4.9583765187725204e+00  -4.8529155603324554e+00  -4.7474508691688806e+00  -4.6419891816601933e+00  -4.5365252703082550e+00  -4.4310631031729599e+00  -4.3255996199837146e+00  -4.2201371559219112e+00  -4.1146739157042136e+00  -4.0092112731103491e+00  -3.9037481734277528e+00  -3.7982854248705622e+00  -3.6928224072798757e+00  -3.5873595961493563e+00  -3.4818966267410771e+00  -3.3764337787266401e+00  -3.2709708376536901e+00  -3.1655079679183999e+00  -3.0600450435128308e+00  -2.9545821610004142e+00  -2.8491192463903037e+00  -2.7436563563727496e+00  -2.6381934475117199e+00  -2.5327305530919233e+00  -2.4272676476011101e+00  -2.3218047506013919e+00  -2.2163418470856859e+00  -2.1108789485732649e+00  -2.0054160462158861e+00  -1.8999531468137292e+00  -1.7944902451335307e+00  -1.6890273451951652e+00  -1.5835644438787790e+00  -1.4781015435174094e+00  -1.3726386421049614e+00  -1.2671757405785866e+00  -1.1617128364363423e+00  -1.0562499264189809e+00  -9.5078699794779775e-01  -8.4532401688401715e-01  -7.3986088239135228e-01  -6.3439730362699165e-01  -5.2893243531769529e-01  -4.2346380838725339e-01  -3.1798383878112846e-01  -2.1246787284366223e-01  -1.0673351747894437e-01  -4.5525655267846923e-05  -8.4767973837902577e+00  -8.3790847835698354e+00  -8.2536412023295487e+00  -8.1531522530497504e+00  -8.0318391949562979e+00  -7.9282114727484112e+00  -7.8129560150314372e+00  -7.7087451529647133e+00  -7.5979983352451823e+00  -7.4935959862799519e+00  -7.3854000345813731e+00  -7.2807366606018231e+00  -7.1738466701466379e+00  -7.0689180236934801e+00  -6.9626773054189446e+00  -6.8575340128318585e+00  -6.7516208841599710e+00  -6.6463309079318345e+00  -6.5405900785197595e+00  -6.4352070657904337e+00  -6.3295624977593414e+00  -6.2241291315401277e+00  -6.1185484412774107e+00  -6.0130961389417310e+00  -5.9075622000581598e+00  -5.8021061557485902e+00  -5.6966038992709693e+00  -5.5911476495758965e+00  -5.4856641836023421e+00  -5.3802071834054006e+00  -5.2747337261728680e+00  -5.1692753118577004e+00  -5.0638068979347972e+00  -4.9583470485895393e+00  -4.8528811678990200e+00  -4.7474202039966658e+00  -4.6419556378014262e+00  -4.5364939190571292e+00  -4.4310300651454027e+00  -4.3255678711067622e+00  -4.2201044171504609e+00  -4.1146419349241796e+00  -4.0091787106801240e+00  -3.9037160568611355e+00  -3.7982529662125377e+00  -3.6927902109921344e+00  -3.5873271985690067e+00  -3.4818643835594871e+00  -3.3764014171171528e+00  -3.2709385668587916e+00  -3.1654756274975906e+00  -3.0600127564579114e+00  -2.9545498330522055e+00  -2.8490869497709568e+00  -2.7436240357552104e+00  -2.6381611452763254e+00  -2.5326982367747664e+00  -2.4272353420740100e+00  -2.3217724368030890e+00  -2.2163095396309154e+00  -2.1108466362492035e+00  -2.0053837376299297e+00  -1.8999208353482833e+00  -1.7944579358667896e+00  -1.6889950341861293e+00  -1.5835321340700768e+00  -1.4780692323698641e+00  -1.3726063307939822e+00  -1.2671434259324836e+00  -1.1616805143630509e+00  -1.0562175812095074e+00  -9.5075458735432394e-01  -8.4529141699559407e-01  -7.3982773882025121e-01  -6.3436259783678905e-01  -5.2889325171692925e-01  -4.2341183268420718e-01  -3.1789581775361381e-01  -2.1228017042914615e-01  -1.0639018517108315e-01  -6.2932859999328587e-05  -8.5008981172095233e+00  -8.3598253547297201e+00  -8.2709620504588379e+00  -8.1389390885597468e+00  -8.0429951933827066e+00  -7.9201007289732797e+00  -7.8193205267937884e+00  -7.7043731201628836e+00  -7.6014334440167026e+00  -7.4912380995671555e+00  -7.3872316175597623e+00  -7.2794413176509352e+00  -7.1748324018339762e+00  -7.0681884807853086e+00  -6.9632155241985787e+00  -6.8571134285217719e+00  -6.7519179200016390e+00  -6.6460826412291114e+00  -6.5407537305160632e+00  -6.4350571804946473e+00  -6.3296515353330811e+00  -6.2240364774352930e+00  -6.1185948495190638e+00  -6.0130363874470412e+00  -5.9075833381663463e+00  -5.8020649437792864e+00  -5.6966097855548687e+00  -5.5911169116431054e+00  -5.4856609648373569e+00  -5.3801825016474423e+00  -5.2747251818927303e+00  -5.1692542111320687e+00  -5.0637952798959551e+00  -4.9583280860055243e+00  -4.8528677804040905e+00  -4.7474025171231986e+00  -4.6419412277577496e+00  -4.5364769895974835e+00  -4.4310150610305792e+00  -4.3255513890977220e+00  -4.2200890664406776e+00  -4.1146257163471978e+00  -4.0091631571778867e+00  -3.9036999931427574e+00  -3.7982372937913875e+00  -3.6927742383202089e+00  -3.5873114562660433e+00  -3.4818484644771575e+00  -3.3763856336712883e+00  -3.2709226793568442e+00  -3.1654598198014354e+00  -3.0599968875737509e+00  -2.9545340110641840e+00  -2.8490710918531530e+00  -2.7436082053566024e+00  -2.6381452938048584e+00  -2.5326824014384237e+00  -2.4272194943823746e+00  -2.3217565985748201e+00  -2.2162936941508384e+00  -2.1108307963294766e+00  -2.0053678934421297e+00  -1.8999049944366002e+00  -1.7944420924283144e+00  -1.6889791926714346e+00  -1.5835162910100933e+00  -1.4780533903208037e+00  -1.3725904874391470e+00  -1.2671275820681951e+00  -1.1616646665057713e+00  -1.0562017237823151e+00  -9.5073870084709966e-01  -8.4527544796087917e-01  -7.3981153168859681e-01  -6.3434570816743496e-01  -5.2887440789343565e-01  -4.2338743354424613e-01  -3.1785603264038570e-01  -2.1220410241140861e-01  -1.0628563795734039e-01  -6.7068837189246885e-05  -8.4767973837930128e+00  -8.3790847835569089e+00  -8.2536412023204022e+00  -8.1531522530392753e+00  -8.0318391949531875e+00  -7.9282114727421407e+00  -7.8129560150312596e+00  -7.7087451529623205e+00  -7.5979983352459204e+00  -7.4935959862793089e+00  -7.3854000345819992e+00  -7.2807366606017263e+00  -7.1738466701469692e+00  -7.0689180236934721e+00  -6.9626773054190831e+00  -6.8575340128318594e+00  -6.7516208841600251e+00  -6.6463309079318371e+00  -6.5405900785197568e+00  -6.4352070657904479e+00  -6.3295624977593299e+00  -6.2241291315401357e+00  -6.1185484412774089e+00  -6.0130961389417230e+00  -5.9075622000581678e+00  -5.8021061557485805e+00  -5.6966038992709702e+00  -5.5911476495759160e+00  -5.4856641836023217e+00  -5.3802071834054210e+00  -5.2747337261728493e+00  -5.1692753118577022e+00  -5.0638068979348105e+00  -4.9583470485895385e+00  -4.8528811678990200e+00  -4.7474202039966631e+00  -4.6419556378014297e+00  -4.5364939190571203e+00  -4.4310300651454630e+00  -4.3255678711067098e+00  -4.2201044171504929e+00  -4.1146419349241592e+00  -4.0091787106801382e+00  -3.9037160568611631e+00  -3.7982529662125266e+00  -3.6927902109921176e+00  -3.5873271985690471e+00  -3.4818643835594600e+00  -3.3764014171171737e+00  -3.2709385668587774e+00  -3.1654756274976084e+00  -3.0600127564579087e+00  -2.9545498330522109e+00  -2.8490869497709741e+00  -2.7436240357551891e+00  -2.6381611452763005e+00  -2.5326982367747730e+00  -2.4272353420740052e+00  -2.3217724368030890e+00  -2.2163095396309118e+00  -2.1108466362492071e+00  -2.0053837376299355e+00  -1.8999208353482859e+00  -1.7944579358667927e+00  -1.6889950341861362e+00  -1.5835321340700730e+00  -1.4780692323698701e+00  -1.3726063307939753e+00  -1.2671434259324856e+00  -1.1616805143630484e+00  -1.0562175812095140e+00  -9.5075458735432394e-01  -8.4529141699559585e-01  -7.3982773882026109e-01  -6.3436259783678073e-01  -5.2889325171692858e-01  -4.2341183268421384e-01  -3.1789581775360520e-01  -2.1228017042914490e-01  -1.0639018517108126e-01  -6.2932859995165237e-05  -8.4776723015610376e+00  -8.3797755223852555e+00  -8.2568022531907079e+00  -8.1509482734274012e+00  -8.0340950294288387e+00  -7.9249345485546723e+00  -7.8146772777166600e+00  -7.7061163221529894e+00  -7.5993519859051206e+00  -7.4918693495545536e+00  -7.3863842373685795e+00  -7.2796924281566202e+00  -7.1745127047105575e+00  -7.0683141899302511e+00  -6.9631089441204805e+00  -6.8571951348626161e+00  -6.7518962271920930e+00  -6.6461474806776781e+00  -6.5407665280868885e+00  -6.4351125117492556e+00  -6.3296776784338915e+00  -6.2240855129939359e+00  -6.1186275950161004e+00  -6.0130830628359453e+00  -5.9076213625602660e+00  -5.8021118711082122e+00  -5.6966520733604940e+00  -5.5911646953600806e+00  -5.4857060656909438e+00  -5.3802308150389582e+00  -5.2747718348562262e+00  -5.1693026773310171e+00  -5.0638426981784672e+00  -4.9583765187725355e+00  -4.8529155603324616e+00  -4.7474508691688850e+00  -4.6419891816601844e+00  -4.5365252703082621e+00  -4.4310631031729981e+00  -4.3255996199836861e+00  -4.2201371559219236e+00  -4.1146739157042047e+00  -4.0092112731103562e+00  -3.9037481734278114e+00  -3.7982854248705369e+00  -3.6928224072799005e+00  -3.5873595961493572e+00  -3.4818966267410811e+00  -3.3764337787266334e+00  -3.2709708376537083e+00  -3.1655079679184022e+00  -3.0600450435128352e+00  -2.9545821610004039e+00  -2.8491192463903152e+00  -2.7436563563727381e+00  -2.6381934475116546e+00  -2.5327305530919526e+00  -2.4272676476010941e+00  -2.3218047506014017e+00  -2.2163418470856748e+00  -2.1108789485732844e+00  -2.0054160462158888e+00  -1.8999531468137427e+00  -1.7944902451335312e+00  -1.6890273451951738e+00  -1.5835644438787813e+00  -1.4781015435174141e+00  -1.3726386421049623e+00  -1.2671757405785860e+00  -1.1617128364363498e+00  -1.0562499264189813e+00  -9.5078699794780164e-01  -8.4532401688402248e-01  -7.3986088239134928e-01  -6.3439730362698765e-01  -5.2893243531769785e-01  -4.2346380838724945e-01  -3.1798383878112524e-01  -2.1246787284365520e-01  -1.0673351747894834e-01  -4.5525655267367631e-05  -8.4903220315638244e+00  -8.3740858606333557e+00  -8.2661600386873673e+00  -8.1476676666404462e+00  -8.0367036581843809e+00  -7.9235296976112393e+00  -7.8144608813903513e+00  -7.7058658175291637e+00  -7.5985410204471409e+00  -7.4920590177965769e+00  -7.3856585315742933e+00  -7.2799440251558112e+00  -7.1739905104671911e+00  -7.0685010641417199e+00  -6.9627565729018945e+00  -6.8573027095594652e+00  -6.7516595756428561e+00  -6.6461924901635046e+00  -6.5406011475536969e+00  -6.4351152367538136e+00  -6.3295555694824595e+00  -6.2240629715846882e+00  -6.1185320837884989e+00  -6.0130460829779464e+00  -5.9075417165582689e+00  -5.8020663260609959e+00  -5.6965814530197294e+00  -5.5911138520082417e+00  -5.4856404532597294e+00  -5.3801766841925245e+00  -5.2747090136721759e+00  -5.1692465464748549e+00  -5.0637814623991924e+00  -4.9583191952350401e+00  -4.8528552409122980e+00  -4.7473928428401040e+00  -4.6419293973216407e+00  -4.5364668318486956e+00  -4.4310036326311328e+00  -4.3255409400464595e+00  -4.2200778696741690e+00  -4.1146150941655195e+00  -4.0091520951700170e+00  -3.9036892687477462e+00  -3.7982263106206289e+00  -3.6927634537245080e+00  -3.5873005193734406e+00  -3.4818376444326358e+00  -3.3763747240029880e+00  -3.2709118384297589e+00  -3.1654489261654200e+00  -3.0599860343448735e+00  -2.9545231268681498e+00  -2.8490602313838975e+00  -2.7435973267119720e+00  -2.6381344290815321e+00  -2.5326715260521890e+00  -2.4272086271645636e+00  -2.3217457250978448e+00  -2.2162828254728995e+00  -2.1108199239716012e+00  -2.0053570239136285e+00  -1.8998941227467214e+00  -1.7944312224372478e+00  -1.6889683214791458e+00  -1.5835054210523958e+00  -1.4780425203075793e+00  -1.3725796200651597e+00  -1.2671167201683664e+00  -1.1616538220866546e+00  -1.0561909285317870e+00  -9.5072804836093139e-01  -8.4526520595133581e-01  -7.3980247145786504e-01  -6.3434004427682567e-01  -5.2887849318465641e-01  -4.2341942021634532e-01  -3.1796759276303227e-01  -2.1253031085256466e-01  -1.0723996146476086e-01  -5.1627829106871909e-05  -8.4795602242350068e+00  -8.3804475326377510e+00  -8.2620434744465729e+00  -8.1508912656243737e+00  -8.0343906767730040e+00  -7.9247071844222710e+00  -7.8134310034234611e+00  -7.7060835225281830e+00  -7.5981982884589350e+00  -7.4919304911761238e+00  -7.3855877158385619e+00  -7.2797358384056308e+00  -7.1739913085690699e+00  -7.0683044263220047e+00  -6.9627553718198998e+00  -6.8571387822919494e+00  -6.7516382873318195e+00  -6.6460579327689704e+00  -6.5405605611269149e+00  -6.4350023303559425e+00  -6.3295017603318851e+00  -6.2239650831171414e+00  -6.1184702131833140e+00  -6.0129577755970098e+00  -5.9074747979917728e+00  -5.8019836050001299e+00  -5.6965112408081549e+00  -5.5910342324279938e+00  -5.4855681205812177e+00  -5.3800987872895947e+00  -5.2746353705012732e+00  -5.1691696308537685e+00  -5.0637070371740140e+00  -4.9582428514942745e+00  -4.8527803577057504e+00  -4.7473168359884177e+00  -4.6418542475166769e+00  -4.5363910238371385e+00  -4.4309283275522171e+00  -4.3254652492204109e+00  -4.2200024739368827e+00  -4.1145394722770741e+00  -4.0090766463815681e+00  -3.9036136873640404e+00  -3.7981508307436362e+00  -3.6926878961215954e+00  -3.5872250212675065e+00  -3.4817621007829236e+00  -3.3762992152092388e+00  -3.2708363029612229e+00  -3.1653734111084386e+00  -3.0599105036695486e+00  -2.9544476081431568e+00  -2.8489847035149887e+00  -2.7435218058398743e+00  -2.6380589028552244e+00  -2.5325960039233921e+00  -2.4271331018997904e+00  -2.3216702022332507e+00  -2.2162073007712970e+00  -2.1107444006759097e+00  -2.0052814995422041e+00  -1.8998185991984664e+00  -1.7943556982601754e+00  -1.6888927977847292e+00  -1.5834298969952629e+00  -1.4779669965447191e+00  -1.3725040961286143e+00  -1.2670411965111605e+00  -1.1615782986425078e+00  -1.0561154061563709e+00  -9.5065252873355388e-01  -8.4518969454488424e-01  -7.3972698372595669e-01  -6.3426462584366705e-01  -5.2880327714602871e-01  -4.2334483954733071e-01  -3.1789445233248148e-01  -2.1247423350173281e-01  -1.0701256316203712e-01  -4.3026256346924540e-03  -8.4317131055428973e+00  -8.3215396981875678e+00  -8.2063741592823973e+00  -8.0933486741578005e+00  -7.9798668491084372e+00  -7.8695501629497944e+00  -7.7601916667202371e+00  -7.6524797000612708e+00  -7.5454724564889899e+00  -7.4390491136796557e+00  -7.3330262844269694e+00  -7.2271440372372631e+00  -7.1214816205337872e+00  -7.0158122484623178e+00  -6.9102624518649787e+00  -6.8046742863664953e+00  -6.6991532561799909e+00  -6.5935976173258224e+00  -6.4880807521868356e+00  -6.3825416659189846e+00  -6.2770290417911534e+00  -6.1715076316550599e+00  -6.0660073318305328e+00  -5.9605064060219268e+00  -5.8550212807610817e+00  -5.7495376996359253e+00  -5.6440641901440252e+00  -5.5385916217231861e+00  -5.4331246067184402e+00  -5.3276576603540580e+00  -5.2221935036112272e+00  -5.1167290081871313e+00  -5.0112658674200024e+00  -4.9058023363909156e+00  -4.8003394749771715e+00  -4.6948763078962763e+00  -4.5894134877440180e+00  -4.4839504620168906e+00  -4.3784876251714913e+00  -4.2730246597193409e+00  -4.1675618009010416e+00  -4.0620988644008413e+00  -3.9566359893721819e+00  -3.8511730681973191e+00  -3.7457101828138910e+00  -3.6402472702326696e+00  -3.5347843785712967e+00  -3.4293214709419604e+00  -3.3238585755526895e+00  -3.2183956708070927e+00  -3.1129327732237799e+00  -3.0074698701627600e+00  -2.9020069712935084e+00  -2.7965440692170960e+00  -2.6910811695954835e+00  -2.5856182680944872e+00  -2.4801553680329431e+00  -2.3746924668684897e+00  -2.2692295665494715e+00  -2.1637666655822287e+00  -2.0583037651124987e+00  -1.9528408642619373e+00  -1.8473779637061452e+00  -1.7419150629318676e+00  -1.6364521623478323e+00  -1.5309892616842911e+00  -1.4255263612751492e+00  -1.3200634612