<?xml version="1.0"?>
<VTKFile type="UnstructuredGrid"  version="0.1"  >
<UnstructuredGrid>
<Piece  NumberOfPoints="1369" NumberOfCells="2560">
<Points>
<DataArray  type="Float64"  NumberOfComponents="3"  format="ascii">0 0 0  0.75 0 0  1.5 0 0  2.25 0 0  3 0 0  3.75 0 0  4.5 0 0  5.25 0 0  6 0 0  6.75 0 0  7.5 0 0  8.25 0 0  9 0 0  9.75 0 0  10.5 0 0  11.25 0 0  12 0 0  12.75 0 0  13.5 0 0  14.25 0 0  15 0 0  15.75 0 0  16.5 0 0  17.25 0 0  18 0 0  18.75 0 0  19.5 0 0  20.25 0 0  21 0 0  21.75 0 0  22.5 0 0  23.25 0 0  24 0 0  24.75 0 0  25.5 0 0  26.25 0 0  27 0 0  27.75 0 0  28.5 0 0  29.25 0 0  30 0 0  30.75 0 0  31.5 0 0  32.25 0 0  33 0 0  33.75 0 0  34.5 0 0  35.25 0 0  36 0 0  36.75 0 0  37.5 0 0  38.25 0 0  39 0 0  39.75 0 0  40.5 0 0  41.25 0 0  42 0 0  42.75 0 0  43.5 0 0  44.25 0 0  45 0 0  45.75 0 0  46.5 0 0  47.25 0 0  48 0 0  48.75 0 0  49.5 0 0  50.25 0 0  51 0 0  51.75 0 0  52.5 0 0  53.25 0 0  54 0 0  54.75 0 0  55.5 0 0  56.25 0 0  57 0 0  57.75 0 0  58.5 0 0  59.25 0 0  60 0 0  0 0.5 0  0.75 0.5 0  1.5 0.5 0  2.25 0.5 0  3 0.5 0  3.75 0.5 0  4.5 0.5 0  5.25 0.5 0  6 0.5 0  6.75 0.5 0  7.5 0.5 0  8.25 0.5 0  9 0.5 0  9.75 0.5 0  10.5 0.5 0  11.25 0.5 0  12 0.5 0  12.75 0.5 0  13.5 0.5 0  14.25 0.5 0  15 0.5 0  15.75 0.5 0  16.5 0.5 0  17.25 0.5 0  18 0.5 0  18.75 0.5 0  19.5 0.5 0  20.25 0.5 0  21 0.5 0  21.75 0.5 0  22.5 0.5 0  23.25 0.5 0  24 0.5 0  24.75 0.5 0  25.5 0.5 0  26.25 0.5 0  27 0.5 0  27.75 0.5 0  28.5 0.5 0  29.25 0.5 0  30 0.5 0  30.75 0.5 0  31.5 0.5 0  32.25 0.5 0  33 0.5 0  33.75 0.5 0  34.5 0.5 0  35.25 0.5 0  36 0.5 0  36.75 0.5 0  37.5 0.5 0  38.25 0.5 0  39 0.5 0  39.75 0.5 0  40.5 0.5 0  41.25 0.5 0  42 0.5 0  42.75 0.5 0  43.5 0.5 0  44.25 0.5 0  45 0.5 0  45.75 0.5 0  46.5 0.5 0  47.25 0.5 0  48 0.5 0  48.75 0.5 0  49.5 0.5 0  50.25 0.5 0  51 0.5 0  51.75 0.5 0  52.5 0.5 0  53.25 0.5 0  54 0.5 0  54.75 0.5 0  55.5 0.5 0  56.25 0.5 0  57 0.5 0  57.75 0.5 0  58.5 0.5 0  59.25 0.5 0  60 0.5 0  0 1 0  0.75 1 0  1.5 1 0  2.25 1 0  3 1 0  3.75 1 0  4.5 1 0  5.25 1 0  6 1 0  6.75 1 0  7.5 1 0  8.25 1 0  9 1 0  9.75 1 0  10.5 1 0  11.25 1 0  12 1 0  12.75 1 0  13.5 1 0  14.25 1 0  15 1 0  15.75 1 0  16.5 1 0  17.25 1 0  18 1 0  18.75 1 0  19.5 1 0  20.25 1 0  21 1 0  21.75 1 0  22.5 1 0  23.25 1 0  24 1 0  24.75 1 0  25.5 1 0  26.25 1 0  27 1 0  27.75 1 0  28.5 1 0  29.25 1 0  30 1 0  30.75 1 0  31.5 1 0  32.25 1 0  33 1 0  33.75 1 0  34.5 1 0  35.25 1 0  36 1 0  36.75 1 0  37.5 1 0  38.25 1 0  39 1 0  39.75 1 0  40.5 1 0  41.25 1 0  42 1 0  42.75 1 0  43.5 1 0  44.25 1 0  45 1 0  45.75 1 0  46.5 1 0  47.25 1 0  48 1 0  48.75 1 0  49.5 1 0  50.25 1 0  51 1 0  51.75 1 0  52.5 1 0  53.25 1 0  54 1 0  54.75 1 0  55.5 1 0  56.25 1 0  57 1 0  57.75 1 0  58.5 1 0  59.25 1 0  60 1 0  0 1.5 0  0.75 1.5 0  1.5 1.5 0  2.25 1.5 0  3 1.5 0  3.75 1.5 0  4.5 1.5 0  5.25 1.5 0  6 1.5 0  6.75 1.5 0  7.5 1.5 0  8.25 1.5 0  9 1.5 0  9.75 1.5 0  10.5 1.5 0  11.25 1.5 0  12 1.5 0  12.75 1.5 0  13.5 1.5 0  14.25 1.5 0  15 1.5 0  15.75 1.5 0  16.5 1.5 0  17.25 1.5 0  18 1.5 0  18.75 1.5 0  19.5 1.5 0  20.25 1.5 0  21 1.5 0  21.75 1.5 0  22.5 1.5 0  23.25 1.5 0  24 1.5 0  24.75 1.5 0  25.5 1.5 0  26.25 1.5 0  27 1.5 0  27.75 1.5 0  28.5 1.5 0  29.25 1.5 0  30 1.5 0  30.75 1.5 0  31.5 1.5 0  32.25 1.5 0  33 1.5 0  33.75 1.5 0  34.5 1.5 0  35.25 1.5 0  36 1.5 0  36.75 1.5 0  37.5 1.5 0  38.25 1.5 0  39 1.5 0  39.75 1.5 0  40.5 1.5 0  41.25 1.5 0  42 1.5 0  42.75 1.5 0  43.5 1.5 0  44.25 1.5 0  45 1.5 0  45.75 1.5 0  46.5 1.5 0  47.25 1.5 0  48 1.5 0  48.75 1.5 0  49.5 1.5 0  50.25 1.5 0  51 1.5 0  51.75 1.5 0  52.5 1.5 0  53.25 1.5 0  54 1.5 0  54.75 1.5 0  55.5 1.5 0  56.25 1.5 0  57 1.5 0  57.75 1.5 0  58.5 1.5 0  59.25 1.5 0  60 1.5 0  0 2 0  0.75 2 0  1.5 2 0  2.25 2 0  3 2 0  3.75 2 0  4.5 2 0  5.25 2 0  6 2 0  6.75 2 0  7.5 2 0  8.25 2 0  9 2 0  9.75 2 0  10.5 2 0  11.25 2 0  12 2 0  12.75 2 0  13.5 2 0  14.25 2 0  15 2 0  15.75 2 0  16.5 2 0  17.25 2 0  18 2 0  18.75 2 0  19.5 2 0  20.25 2 0  21 2 0  21.75 2 0  22.5 2 0  23.25 2 0  24 2 0  24.75 2 0  25.5 2 0  26.25 2 0  27 2 0  27.75 2 0  28.5 2 0  29.25 2 0  30 2 0  30.75 2 0  31.5 2 0  32.25 2 0  33 2 0  33.75 2 0  34.5 2 0  35.25 2 0  36 2 0  36.75 2 0  37.5 2 0  38.25 2 0  39 2 0  39.75 2 0  40.5 2 0  41.25 2 0  42 2 0  42.75 2 0  43.5 2 0  44.25 2 0  45 2 0  45.75 2 0  46.5 2 0  47.25 2 0  48 2 0  48.75 2 0  49.5 2 0  50.25 2 0  51 2 0  51.75 2 0  52.5 2 0  53.25 2 0  54 2 0  54.75 2 0  55.5 2 0  56.25 2 0  57 2 0  57.75 2 0  58.5 2 0  59.25 2 0  60 2 0  0 2.5 0  0.75 2.5 0  1.5 2.5 0  2.25 2.5 0  3 2.5 0  3.75 2.5 0  4.5 2.5 0  5.25 2.5 0  6 2.5 0  6.75 2.5 0  7.5 2.5 0  8.25 2.5 0  9 2.5 0  9.75 2.5 0  10.5 2.5 0  11.25 2.5 0  12 2.5 0  12.75 2.5 0  13.5 2.5 0  14.25 2.5 0  15 2.5 0  15.75 2.5 0  16.5 2.5 0  17.25 2.5 0  18 2.5 0  18.75 2.5 0  19.5 2.5 0  20.25 2.5 0  21 2.5 0  21.75 2.5 0  22.5 2.5 0  23.25 2.5 0  24 2.5 0  24.75 2.5 0  25.5 2.5 0  26.25 2.5 0  27 2.5 0  27.75 2.5 0  28.5 2.5 0  29.25 2.5 0  30 2.5 0  30.75 2.5 0  31.5 2.5 0  32.25 2.5 0  33 2.5 0  33.75 2.5 0  34.5 2.5 0  35.25 2.5 0  36 2.5 0  36.75 2.5 0  37.5 2.5 0  38.25 2.5 0  39 2.5 0  39.75 2.5 0  40.5 2.5 0  41.25 2.5 0  42 2.5 0  42.75 2.5 0  43.5 2.5 0  44.25 2.5 0  45 2.5 0  45.75 2.5 0  46.5 2.5 0  47.25 2.5 0  48 2.5 0  48.75 2.5 0  49.5 2.5 0  50.25 2.5 0  51 2.5 0  51.75 2.5 0  52.5 2.5 0  53.25 2.5 0  54 2.5 0  54.75 2.5 0  55.5 2.5 0  56.25 2.5 0  57 2.5 0  57.75 2.5 0  58.5 2.5 0  59.25 2.5 0  60 2.5 0  0 3 0  0.75 3 0  1.5 3 0  2.25 3 0  3 3 0  3.75 3 0  4.5 3 0  5.25 3 0  6 3 0  6.75 3 0  7.5 3 0  8.25 3 0  9 3 0  9.75 3 0  10.5 3 0  11.25 3 0  12 3 0  12.75 3 0  13.5 3 0  14.25 3 0  15 3 0  15.75 3 0  16.5 3 0  17.25 3 0  18 3 0  18.75 3 0  19.5 3 0  20.25 3 0  21 3 0  21.75 3 0  22.5 3 0  23.25 3 0  24 3 0  24.75 3 0  25.5 3 0  26.25 3 0  27 3 0  27.75 3 0  28.5 3 0  29.25 3 0  30 3 0  30.75 3 0  31.5 3 0  32.25 3 0  33 3 0  33.75 3 0  34.5 3 0  35.25 3 0  36 3 0  36.75 3 0  37.5 3 0  38.25 3 0  39 3 0  39.75 3 0  40.5 3 0  41.25 3 0  42 3 0  42.75 3 0  43.5 3 0  44.25 3 0  45 3 0  45.75 3 0  46.5 3 0  47.25 3 0  48 3 0  48.75 3 0  49.5 3 0  50.25 3 0  51 3 0  51.75 3 0  52.5 3 0  53.25 3 0  54 3 0  54.75 3 0  55.5 3 0  56.25 3 0  57 3 0  57.75 3 0  58.5 3 0  59.25 3 0  60 3 0  0 3.5 0  0.75 3.5 0  1.5 3.5 0  2.25 3.5 0  3 3.5 0  3.75 3.5 0  4.5 3.5 0  5.25 3.5 0  6 3.5 0  6.75 3.5 0  7.5 3.5 0  8.25 3.5 0  9 3.5 0  9.75 3.5 0  10.5 3.5 0  11.25 3.5 0  12 3.5 0  12.75 3.5 0  13.5 3.5 0  14.25 3.5 0  15 3.5 0  15.75 3.5 0  16.5 3.5 0  17.25 3.5 0  18 3.5 0  18.75 3.5 0  19.5 3.5 0  20.25 3.5 0  21 3.5 0  21.75 3.5 0  22.5 3.5 0  23.25 3.5 0  24 3.5 0  24.75 3.5 0  25.5 3.5 0  26.25 3.5 0  27 3.5 0  27.75 3.5 0  28.5 3.5 0  29.25 3.5 0  30 3.5 0  30.75 3.5 0  31.5 3.5 0  32.25 3.5 0  33 3.5 0  33.75 3.5 0  34.5 3.5 0  35.25 3.5 0  36 3.5 0  36.75 3.5 0  37.5 3.5 0  38.25 3.5 0  39 3.5 0  39.75 3.5 0  40.5 3.5 0  41.25 3.5 0  42 3.5 0  42.75 3.5 0  43.5 3.5 0  44.25 3.5 0  45 3.5 0  45.75 3.5 0  46.5 3.5 0  47.25 3.5 0  48 3.5 0  48.75 3.5 0  49.5 3.5 0  50.25 3.5 0  51 3.5 0  51.75 3.5 0  52.5 3.5 0  53.25 3.5 0  54 3.5 0  54.75 3.5 0  55.5 3.5 0  56.25 3.5 0  57 3.5 0  57.75 3.5 0  58.5 3.5 0  59.25 3.5 0  60 3.5 0  0 4 0  0.75 4 0  1.5 4 0  2.25 4 0  3 4 0  3.75 4 0  4.5 4 0  5.25 4 0  6 4 0  6.75 4 0  7.5 4 0  8.25 4 0  9 4 0  9.75 4 0  10.5 4 0  11.25 4 0  12 4 0  12.75 4 0  13.5 4 0  14.25 4 0  15 4 0  15.75 4 0  16.5 4 0  17.25 4 0  18 4 0  18.75 4 0  19.5 4 0  20.25 4 0  21 4 0  21.75 4 0  22.5 4 0  23.25 4 0  24 4 0  24.75 4 0  25.5 4 0  26.25 4 0  27 4 0  27.75 4 0  28.5 4 0  29.25 4 0  30 4 0  30.75 4 0  31.5 4 0  32.25 4 0  33 4 0  33.75 4 0  34.5 4 0  35.25 4 0  36 4 0  36.75 4 0  37.5 4 0  38.25 4 0  39 4 0  39.75 4 0  40.5 4 0  41.25 4 0  42 4 0  42.75 4 0  43.5 4 0  44.25 4 0  45 4 0  45.75 4 0  46.5 4 0  47.25 4 0  48 4 0  48.75 4 0  49.5 4 0  50.25 4 0  51 4 0  51.75 4 0  52.5 4 0  53.25 4 0  54 4 0  54.75 4 0  55.5 4 0  56.25 4 0  57 4 0  57.75 4 0  58.5 4 0  59.25 4 0  60 4 0  0.375 0.25 0  1.125 0.25 0  1.875 0.25 0  2.625 0.25 0  3.375 0.25 0  4.125 0.25 0  4.875 0.25 0  5.625 0.25 0  6.375 0.25 0  7.125 0.25 0  7.875 0.25 0  8.625 0.25 0  9.375 0.25 0  10.125 0.25 0  10.875 0.25 0  11.625 0.25 0  12.375 0.25 0  13.125 0.25 0  13.875 0.25 0  14.625 0.25 0  15.375 0.25 0  16.125 0.25 0  16.875 0.25 0  17.625 0.25 0  18.375 0.25 0  19.125 0.25 0  19.875 0.25 0  20.625 0.25 0  21.375 0.25 0  22.125 0.25 0  22.875 0.25 0  23.625 0.25 0  24.375 0.25 0  25.125 0.25 0  25.875 0.25 0  26.625 0.25 0  27.375 0.25 0  28.125 0.25 0  28.875 0.25 0  29.625 0.25 0  30.375 0.25 0  31.125 0.25 0  31.875 0.25 0  32.625 0.25 0  33.375 0.25 0  34.125 0.25 0  34.875 0.25 0  35.625 0.25 0  36.375 0.25 0  37.125 0.25 0  37.875 0.25 0  38.625 0.25 0  39.375 0.25 0  40.125 0.25 0  40.875 0.25 0  41.625 0.25 0  42.375 0.25 0  43.125 0.25 0  43.875 0.25 0  44.625 0.25 0  45.375 0.25 0  46.125 0.25 0  46.875 0.25 0  47.625 0.25 0  48.375 0.25 0  49.125 0.25 0  49.875 0.25 0  50.625 0.25 0  51.375 0.25 0  52.125 0.25 0  52.875 0.25 0  53.625 0.25 0  54.375 0.25 0  55.125 0.25 0  55.875 0.25 0  56.625 0.25 0  57.375 0.25 0  58.125 0.25 0  58.875 0.25 0  59.625 0.25 0  0.375 0.75 0  1.125 0.75 0  1.875 0.75 0  2.625 0.75 0  3.375 0.75 0  4.125 0.75 0  4.875 0.75 0  5.625 0.75 0  6.375 0.75 0  7.125 0.75 0  7.875 0.75 0  8.625 0.75 0  9.375 0.75 0  10.125 0.75 0  10.875 0.75 0  11.625 0.75 0  12.375 0.75 0  13.125 0.75 0  13.875 0.75 0  14.625 0.75 0  15.375 0.75 0  16.125 0.75 0  16.875 0.75 0  17.625 0.75 0  18.375 0.75 0  19.125 0.75 0  19.875 0.75 0  20.625 0.75 0  21.375 0.75 0  22.125 0.75 0  22.875 0.75 0  23.625 0.75 0  24.375 0.75 0  25.125 0.75 0  25.875 0.75 0  26.625 0.75 0  27.375 0.75 0  28.125 0.75 0  28.875 0.75 0  29.625 0.75 0  30.375 0.75 0  31.125 0.75 0  31.875 0.75 0  32.625 0.75 0  33.375 0.75 0  34.125 0.75 0  34.875 0.75 0  35.625 0.75 0  36.375 0.75 0  37.125 0.75 0  37.875 0.75 0  38.625 0.75 0  39.375 0.75 0  40.125 0.75 0  40
[...]
<PointData  Scalars="f_8-1"> 
<DataArray  type="Float64"  Name="f_8-1"  format="ascii">-9.7058892007762676e+00  -9.5863333216459736e+00  -9.4652204062996645e+00  -9.3439634999507479e+00  -9.2226476765394807e+00  -9.1013086810396260e+00  -8.9799594385268193e+00  -8.8586057405061815e+00  -8.7372502015410110e+00  -8.6158941993733436e+00  -8.4945387299287862e+00  -8.3731848371891875e+00  -8.2518331302115104e+00  -8.1304836054479228e+00  -8.0091358126500136e+00  -7.8877892040218223e+00  -7.7664433169069991e+00  -7.6450978376939469e+00  -7.5237525747522760e+00  -7.4024074229508630e+00  -7.2810623267412993e+00  -7.1597172586906144e+00  -7.0383722049923589e+00  -6.9170271589426502e+00  -6.7956821170277912e+00  -6.6743370774428454e+00  -6.5529920391746677e+00  -6.4316470016652687e+00  -6.3103019645948493e+00  -6.1889569277768244e+00  -6.0676118911082275e+00  -5.9462668545244055e+00  -5.8249218179926920e+00  -5.7035767814899012e+00  -5.5822317450059007e+00  -5.4608867085320796e+00  -5.3395416720653301e+00  -5.2181966356022889e+00  -5.0968515991420151e+00  -4.9755065626831714e+00  -4.8541615262254565e+00  -4.7328164897683251e+00  -4.6114714533116752e+00  -4.4901264168552792e+00  -4.3687813803990823e+00  -4.2474363439430078e+00  -4.1260913074870391e+00  -4.0047462710311352e+00  -3.8834012345752607e+00  -3.7620561981194292e+00  -3.6407111616636141e+00  -3.5193661252078048e+00  -3.3980210887520212e+00  -3.2766760522962022e+00  -3.1553310158404546e+00  -3.0339859793844033e+00  -2.9126409429289790e+00  -2.7912959064708964e+00  -2.6699508700192776e+00  -2.5486058335444177e+00  -2.4272607971317375e+00  -2.3059157605143858e+00  -2.1845707244703281e+00  -2.0632256866408074e+00  -1.9418806538854312e+00  -1.8205356059506690e+00  -1.6991906008988393e+00  -1.5778454722154651e+00  -1.4565006851695468e+00  -1.3351549538961622e+00  -1.2138117335289400e+00  -1.0924619504805033e+00  -9.7112862942166500e-01  -8.4975559230063491e-01  -7.2847430801401436e-01  -6.0699605889953834e-01  -4.8593754522832638e-01  -3.6411720075071613e-01  -2.4401420714382693e-01  -1.2041233075761655e-01  -9.3186876926064615e-04  -9.7080775471670986e+00  -9.5863264254847351e+00  -9.4651884058792461e+00  -9.3439184750409829e+00  -9.2226018865339352e+00  -9.1012643272882539e+00  -8.9799166068340615e+00  -8.8585639157239413e+00  -8.7372089442975653e+00  -8.6158532706483921e+00  -8.4944979100317788e+00  -8.3731437515258769e+00  -8.2517915186307018e+00  -8.1304414593530492e+00  -8.0090932883244736e+00  -7.8877464690996257e+00  -7.7664004861834250e+00  -7.6450549693546055e+00  -7.5237096934807184e+00  -7.4023645370805671e+00  -7.2810194389623808e+00  -7.1596743697509204e+00  -7.0383293152994977e+00  -6.9169842687254812e+00  -6.7956392264821845e+00  -6.6742941866910988e+00  -6.5529491483010780e+00  -6.4316041107205972e+00  -6.3102590736079467e+00  -6.1889140367665760e+00  -6.0675690000831981e+00  -5.9462239634917120e+00  -5.8248789269545718e+00  -5.7035338904492132e+00  -5.5821888539631148e+00  -5.4608438174884135e+00  -5.3394987810208097e+00  -5.2181537445574504e+00  -5.0968087080968267e+00  -4.9754636716378524e+00  -4.8541186351799945e+00  -4.7327735987228072e+00  -4.6114285622660907e+00  -4.4900835258096699e+00  -4.3687384893534489e+00  -4.2473934528973656e+00  -4.1260484164413835e+00  -4.0047033799854619e+00  -3.8833583435295878e+00  -3.7620133070737483e+00  -3.6406682706179310e+00  -3.5193232341621297e+00  -3.3979781977063279e+00  -3.2766331612505604e+00  -3.1552881247946778e+00  -3.0339430883390635e+00  -2.9125980518824046e+00  -2.7912530154282402e+00  -2.6699079789652864e+00  -2.5485629425253000e+00  -2.4272179060111410e+00  -2.3058728696980859e+00  -2.1845278327741160e+00  -2.0631827975175359e+00  -1.9418377574416323e+00  -1.8204927303100285e+00  -1.6991476676016490e+00  -1.5778026969933472e+00  -1.4564574882674852e+00  -1.3351128594509960e+00  -1.2137668522852356e+00  -1.0924238997209408e+00  -9.7107455006588750e-01  -8.4973750866332143e-01  -7.2837964556590751e-01  -6.0705526005973787e-01  -4.8570087885759766e-01  -3.6439979007115125e-01  -2.4321847552822881e-01  -1.2123496637109264e-01  2.7973636191983291e-04  -9.7081486800470085e+00  -9.5865759518642850e+00  -9.4652198348629337e+00  -9.3439012582404608e+00  -9.2225710104477923e+00  -9.1012292011225409e+00  -8.9798797596609621e+00  -8.8585259792129580e+00  -8.7371702102041837e+00  -8.6158140991948500e+00  -8.4944581791006968e+00  -8.3731029658061455e+00  -8.2517497113557656e+00  -8.1303991413383105e+00  -8.0090509447662743e+00  -7.8877043171851362e+00  -7.7663585438619656e+00  -7.6450131758372324e+00  -7.5236679861525460e+00  -7.4023228732299380e+00  -7.2809777955145458e+00  -7.1596327354295894e+00  -7.0382876851754137e+00  -6.9169426405836125e+00  -6.7955975993717193e+00  -6.6742525601320164e+00  -6.5529075220590860e+00  -6.4315624846583654e+00  -6.3102174476509916e+00  -6.1888724108699726e+00  -6.0675273742213589e+00  -5.9461823376499900e+00  -5.8248373011241519e+00  -5.7034922646255612e+00  -5.5821472281431310e+00  -5.4608021916707612e+00  -5.3394571552043528e+00  -5.2181121187418276e+00  -5.0967670822815858e+00  -4.9754220458229410e+00  -4.8540770093652030e+00  -4.7327319729081347e+00  -4.6113869364514732e+00  -4.4900418999951022e+00  -4.3686968635389052e+00  -4.2473518270828325e+00  -4.1260067906268523e+00  -4.0046617541709395e+00  -3.8833167177150694e+00  -3.7619716812592294e+00  -3.6406266448034224e+00  -3.5192816083476197e+00  -3.3979365718918317e+00  -3.2765915354360358e+00  -3.1552464989803060e+00  -3.0339014625243443e+00  -2.9125564260689853e+00  -2.7912113896114992e+00  -2.6698663531596045e+00  -2.5485213166899121e+00  -2.4271762802682506e+00  -2.3058312437020891e+00  -2.1844862075273381e+00  -2.0631411702306002e+00  -1.9417961359235218e+00  -1.8204510934543858e+00  -1.6991060719936204e+00  -1.5777609963645212e+00  -1.4564160527396528e+00  -1.3350707927867902e+00  -1.2137262451039557e+00  -1.0923801483605184e+00  -9.7103718669172623e-01  -8.4968820271667655e-01  -7.2835004360194555e-01  -6.0699348475957204e-01  -4.8566871728947270e-01  -3.6427921286633203e-01  -2.4300873784504615e-01  -1.2125008460765291e-01  -1.5430683396745604e-04  -9.7081862115304673e+00  -9.5866804168469386e+00  -9.4652799356938040e+00  -9.3439308086764665e+00  -9.2225905913946438e+00  -9.1012462963785641e+00  -8.9798965186900723e+00  -8.8585429165401521e+00  -8.7371873004589631e+00  -8.6158312406049902e+00  -8.4944753268786126e+00  -8.3731200192414725e+00  -8.2517665226522645e+00  -8.1304156769162219e+00  -8.0090672755283983e+00  -7.8877205416819898e+00  -7.7663747304557758e+00  -7.6450293580009010e+00  -7.5236841736918318e+00  -7.4023390666180839e+00  -7.2809939925165219e+00  -7.1596489343022993e+00  -7.0383038848208299e+00  -6.9169588405416453e+00  -6.7956137994244799e+00  -6.6742687602204915e+00  -6.5529237221538690e+00  -6.4315786847570475e+00  -6.3102336477497278e+00  -6.1888886109693715e+00  -6.0675435743207471e+00  -5.9461985377493871e+00  -5.8248535012235223e+00  -5.7035084647247611e+00  -5.5821634282423407e+00  -5.4608183917697888e+00  -5.3394733553033955e+00  -5.2181283188407592e+00  -5.0967832823805281e+00  -4.9754382459218087e+00  -4.8540932094640885e+00  -4.7327481730069811e+00  -4.6114031365503232e+00  -4.4900581000939299e+00  -4.3687130636377347e+00  -4.2473680271816656e+00  -4.1260229907256782e+00  -4.0046779542697539e+00  -3.8833329178138905e+00  -3.7619878813580470e+00  -3.6406428449022306e+00  -3.5192978084464377e+00  -3.3979527719906466e+00  -3.2766077355348733e+00  -3.1552626990790693e+00  -3.0339176626233617e+00  -2.9125726261673308e+00  -2.7912275897120429e+00  -2.6698825532541872e+00  -2.5485375168027073e+00  -2.4271924803310077e+00  -2.3058474439112140e+00  -2.1845024073377708e+00  -2.0631573711596634e+00  -1.9418123338778841e+00  -1.8204672993815632e+00  -1.6991222575399472e+00  -1.5777772335339701e+00  -1.4564321652388597e+00  -1.3350871983943970e+00  -1.2137419946211765e+00  -1.0923972911203383e+00  -9.7105147006071557e-01  -8.4970774222108514e-01  -7.2835915676769425e-01  -6.0701785402070418e-01  -4.8565398813306371e-01  -3.6431375446123854e-01  -2.4287767171910907e-01  -1.2145860464531665e-01  4.1358483769935711e-05  -9.7081933701554597e+00  -9.5867150086899517e+00  -9.4653066709674469e+00  -9.3439486376550356e+00  -9.2226051530270521e+00  -9.1012602610731062e+00  -8.9799107272729035e+00  -8.8585574659406738e+00  -8.7372021588549647e+00  -8.6158462339779494e+00  -8.4944904254234643e+00  -8.3731353284704149e+00  -8.2517819714543563e+00  -8.1304310781185478e+00  -8.0090825260921097e+00  -7.8877356458706798e+00  -7.7663897377921902e+00  -7.6450443138067516e+00  -7.5236991062863776e+00  -7.4023539897058486e+00  -7.2810089119559809e+00  -7.1596638521995715e+00  -7.0383188019988960e+00  -6.9169737572953469e+00  -6.7956287159309374e+00  -6.6742836765657065e+00  -6.5529386384062134e+00  -6.4315936009504391e+00  -6.3102485639107240e+00  -6.1889035271101536e+00  -6.0675584904506756e+00  -5.9462134538725531e+00  -5.8248684173429961e+00  -5.7035233808419701e+00  -5.5821783443582227e+00  -5.4608333078849078e+00  -5.3394882714179923e+00  -5.2181432349550967e+00  -5.0967981984946658e+00  -4.9754531620358637e+00  -4.8541081255780441e+00  -4.7327630891209163e+00  -4.6114180526642077e+00  -4.4900730162078117e+00  -4.3687279797516085e+00  -4.2473829432955137e+00  -4.1260379068395299e+00  -4.0046928703836064e+00  -3.8833478339277336e+00  -3.7620027974719004e+00  -3.6406577610160729e+00  -3.5193127245602791e+00  -3.3979676881044898e+00  -3.2766226516487089e+00  -3.1552776151929445e+00  -3.0339325787371170e+00  -2.9125875422814063e+00  -2.7912425058251475e+00  -2.6698974693700084e+00  -2.5485524329106735e+00  -2.4272073964607115e+00  -2.3058623599798689e+00  -2.1845173235717472e+00  -2.0631722869458042e+00  -1.9418272508388645e+00  -1.8204822132897416e+00  -1.6991371791228280e+00  -1.5777921361327936e+00  -1.4564471130096834e+00  -1.3351020404991647e+00  -1.2137570713840267e+00  -1.0924118478175942e+00  -9.7106708607895964e-01  -8.4972106328203001e-01  -7.2837664855852080e-01  -6.0702565539064302e-01  -4.8567738637595309e-01  -3.6430047451290837e-01  -2.4291040026636093e-01  -1.2144223861369022e-01  -2.4744750158752027e-05  -9.7081862115304620e+00  -9.5866804168469599e+00  -9.4652799356937756e+00  -9.3439308086764843e+00  -9.2225905913946225e+00  -9.1012462963785623e+00  -8.9798965186900688e+00  -8.8585429165401557e+00  -8.7371873004589755e+00  -8.6158312406049937e+00  -8.4944753268786144e+00  -8.3731200192414690e+00  -8.2517665226522556e+00  -8.1304156769162397e+00  -8.0090672755283858e+00  -7.8877205416820111e+00  -7.7663747304557944e+00  -7.6450293580009099e+00  -7.5236841736918612e+00  -7.4023390666181035e+00  -7.2809939925165219e+00  -7.1596489343022940e+00  -7.0383038848208397e+00  -6.9169588405416409e+00  -6.7956137994244559e+00  -6.6742687602204853e+00  -6.5529237221538343e+00  -6.4315786847570617e+00  -6.3102336477497243e+00  -6.1888886109693777e+00  -6.0675435743207515e+00  -5.9461985377493844e+00  -5.8248535012235267e+00  -5.7035084647247745e+00  -5.5821634282423318e+00  -5.4608183917697906e+00  -5.3394733553033804e+00  -5.2181283188407406e+00  -5.0967832823805050e+00  -4.9754382459217990e+00  -4.8540932094640787e+00  -4.7327481730069847e+00  -4.6114031365503134e+00  -4.4900581000939228e+00  -4.3687130636377463e+00  -4.2473680271816576e+00  -4.1260229907256685e+00  -4.0046779542697601e+00  -3.8833329178138931e+00  -3.7619878813580563e+00  -3.6406428449022314e+00  -3.5192978084464372e+00  -3.3979527719906497e+00  -3.2766077355348791e+00  -3.1552626990790764e+00  -3.0339176626233644e+00  -2.9125726261673277e+00  -2.7912275897120389e+00  -2.6698825532541872e+00  -2.5485375168027056e+00  -2.4271924803310037e+00  -2.3058474439112184e+00  -2.1845024073377699e+00  -2.0631573711596705e+00  -1.9418123338778861e+00  -1.8204672993815645e+00  -1.6991222575399398e+00  -1.5777772335339764e+00  -1.4564321652388654e+00  -1.3350871983944015e+00  -1.2137419946211772e+00  -1.0923972911203361e+00  -9.7105147006071746e-01  -8.4970774222108858e-01  -7.2835915676769891e-01  -6.0701785402070407e-01  -4.8565398813306543e-01  -3.6431375446123687e-01  -2.4287767171910732e-01  -1.2145860464531717e-01  4.1358483770018280e-05  -9.7081486800470280e+00  -9.5865759518642424e+00  -9.4652198348629319e+00  -9.3439012582404910e+00  -9.2225710104478047e+00  -9.1012292011225462e+00  -8.9798797596609514e+00  -8.8585259792129705e+00  -8.7371702102041784e+00  -8.6158140991948411e+00  -8.4944581791006861e+00  -8.3731029658061171e+00  -8.2517497113557710e+00  -8.1303991413383105e+00  -8.0090509447662992e+00  -7.8877043171851486e+00  -7.7663585438619780e+00  -7.6450131758372502e+00  -7.5236679861525468e+00  -7.4023228732299646e+00  -7.2809777955145334e+00  -7.1596327354296072e+00  -7.0382876851754190e+00  -6.9169426405836312e+00  -6.7955975993717432e+00  -6.6742525601320128e+00  -6.5529075220590869e+00  -6.4315624846583637e+00  -6.3102174476510084e+00  -6.1888724108699691e+00  -6.0675273742213731e+00  -5.9461823376500140e+00  -5.8248373011241723e+00  -5.7034922646255533e+00  -5.5821472281431523e+00  -5.4608021916707639e+00  -5.3394571552043661e+00  -5.2181121187418000e+00  -5.0967670822815938e+00  -4.9754220458229295e+00  -4.8540770093651888e+00  -4.7327319729081294e+00  -4.6113869364514599e+00  -4.4900418999950942e+00  -4.3686968635389078e+00  -4.2473518270828441e+00  -4.1260067906268567e+00  -4.0046617541709519e+00  -3.8833167177150734e+00  -3.7619716812592348e+00  -3.6406266448034232e+00  -3.5192816083476215e+00  -3.3979365718918371e+00  -3.2765915354360478e+00  -3.1552464989803108e+00  -3.0339014625243328e+00  -2.9125564260689818e+00  -2.7912113896114961e+00  -2.6698663531596045e+00  -2.5485213166899139e+00  -2.4271762802682404e+00  -2.3058312437020931e+00  -2.1844862075273381e+00  -2.0631411702306064e+00  -1.9417961359235241e+00  -1.8204510934543916e+00  -1.6991060719936195e+00  -1.5777609963645274e+00  -1.4564160527396592e+00  -1.3350707927867942e+00  -1.2137262451039548e+00  -1.0923801483605140e+00  -9.7103718669172601e-01  -8.4968820271668066e-01  -7.2835004360195343e-01  -6.0699348475957604e-01  -4.8566871728946770e-01  -3.6427921286633369e-01  -2.4300873784504656e-01  -1.2125008460765338e-01  -1.5430683396747008e-04  -9.7080775471670986e+00  -9.5863264254847085e+00  -9.4651884058792195e+00  -9.3439184750409936e+00  -9.2226018865339601e+00  -9.1012643272882361e+00  -8.9799166068340437e+00  -8.8585639157239449e+00  -8.7372089442975778e+00  -8.6158532706483815e+00  -8.4944979100317681e+00  -8.3731437515258751e+00  -8.2517915186307125e+00  -8.1304414593530705e+00  -8.0090932883244825e+00  -7.8877464690996417e+00  -7.7664004861834899e+00  -7.6450549693546037e+00  -7.5237096934807264e+00  -7.4023645370805804e+00  -7.2810194389624021e+00  -7.1596743697509293e+00  -7.0383293152995243e+00  -6.9169842687255132e+00  -6.7956392264822068e+00  -6.6742941866910819e+00  -6.5529491483011029e+00  -6.4316041107206230e+00  -6.3102590736079742e+00  -6.1889140367665911e+00  -6.0675690000832194e+00  -5.9462239634917378e+00  -5.8248789269545656e+00  -5.7035338904492425e+00  -5.5821888539631459e+00  -5.4608438174884251e+00  -5.3394987810208203e+00  -5.2181537445574486e+00  -5.0968087080968312e+00  -4.9754636716378347e+00  -4.8541186351799892e+00  -4.7327735987227921e+00  -4.6114285622660907e+00  -4.4900835258096734e+00  -4.3687384893534622e+00  -4.2473934528973878e+00  -4.1260484164413933e+00  -4.0047033799854672e+00  -3.8833583435295966e+00  -3.7620133070737483e+00  -3.6406682706179310e+00  -3.5193232341621279e+00  -3.3979781977063475e+00  -3.2766331612505875e+00  -3.1552881247946845e+00  -3.0339430883390586e+00  -2.9125980518824033e+00  -2.7912530154282509e+00  -2.6699079789652873e+00  -2.5485629425252982e+00  -2.4272179060111272e+00  -2.3058728696980850e+00  -2.1845278327741222e+00  -2.0631827975175381e+00  -1.9418377574416370e+00  -1.8204927303100271e+00  -1.6991476676016488e+00  -1.5778026969933572e+00  -1.4564574882674886e+00  -1.3351128594509971e+00  -1.2137668522852343e+00  -1.0924238997209350e+00  -9.7107455006588639e-01  -8.4973750866332787e-01  -7.2837964556591306e-01  -6.0705526005973742e-01  -4.8570087885759455e-01  -3.6439979007115769e-01  -2.4321847552823009e-01  -1.2123496637109270e-01  2.7973636191921827e-04  -9.7058892007762410e+00  -9.5863333216459683e+00  -9.4652204062996308e+00  -9.3439634999507781e+00  -9.2226476765394896e+00  -9.1013086810396544e+00  -8.9799594385267731e+00  -8.8586057405061993e+00  -8.7372502015410216e+00  -8.6158941993733027e+00  -8.4945387299287791e+00  -8.3731848371891875e+00  -8.2518331302115122e+00  -8.1304836054479672e+00  -8.0091358126500101e+00  -7.8877892040218676e+00  -7.7664433169070488e+00  -7.6450978376939505e+00  -7.5237525747522742e+00  -7.4024074229508807e+00  -7.2810623267413224e+00  -7.1597172586906241e+00  -7.0383722049923811e+00  -6.9170271589426866e+00  -6.7956821170278277e+00  -6.6743370774428223e+00  -6.5529920391746987e+00  -6.4316470016652900e+00  -6.3103019645948777e+00  -6.1889569277768501e+00  -6.0676118911082639e+00  -5.9462668545244206e+00  -5.8249218179926796e+00  -5.7035767814899323e+00  -5.5822317450059371e+00  -5.4608867085320947e+00  -5.3395416720653390e+00  -5.2181966356022782e+00  -5.0968515991420320e+00  -4.9755065626831270e+00  -4.8541615262254663e+00  -4.7328164897683269e+00  -4.6114714533116681e+00  -4.4901264168552633e+00  -4.3687813803991107e+00  -4.2474363439430372e+00  -4.1260913074870409e+00  -4.0047462710311281e+00  -3.8834012345752811e+00  -3.7620561981194136e+00  -3.6407111616636283e+00  -3.5193661252077981e+00  -3.3980210887520435e+00  -3.2766760522962337e+00  -3.1553310158404595e+00  -3.0339859793844077e+00  -2.9126409429289777e+00  -2.7912959064709026e+00  -2.6699508700192727e+00  -2.5486058335444199e+00  -2.4272607971317246e+00  -2.3059157605143836e+00  -2.1845707244703334e+00  -2.0632256866408052e+00  -1.9418806538854438e+00  -1.8205356059506650e+00  -1.6991906008988396e+00  -1.5778454722154762e+00  -1.4565006851695510e+00  -1.3351549538961616e+00  -1.2138117335289393e+00  -1.0924619504804969e+00  -9.7112862942166667e-01  -8.4975559230064146e-01  -7.2847430801402013e-01  -6.0699605889953800e-01  -4.8593754522832455e-01  -3.6411720075072135e-01  -2.4401420714382926e-01  -1.2041233075761636e-01  -9.3186876926032566e-04  -9.6464329583191546e+00  -9.5256668790223706e+00  -9.4044786072865652e+00  -9.2831903060463770e+00  -9.1618640591354303e+00  -9.0405215040417826e+00  -8.9191713440380429e+00  -8.7978176080086410e+00  -8.6764623717548357e+00  -8.5551069521279484e+00  -8.4337524170127249e+00  -8.3123995463807407e+00  -8.1910486823544097e+00  -8.0696997172024290e+00  -7.9483522579725143e+00  -7.8270058372130906e+00  -7.7056600565626043e+00  -7.5843146366491405e+00  -7.4629694067720047e+00  -7.3416242726672980e+00  -7.2202791859303215e+00  -7.0989341227900775e+00  -6.9775890717187607e+00  -6.8562440270589908e+00  -6.7348989859165069e+00  -6.6135539467599269e+00  -6.4922089087359609e+00  -6.3708638713681633e+00  -6.2495188343778123e+00  -6.1281737976086239e+00  -6.0068287609666040e+00  -5.8854837244002400e+00  -5.7641386878774306e+00  -5.6427936513811456e+00  -5.5214486149001978e+00  -5.4001035784289071e+00  -5.2787585419632377e+00  -5.1574135055012116e+00  -5.0360684690413411e+00  -4.9147234325829219e+00  -4.7933783961253775e+00  -4.6720333596684300e+00  -4.5506883232118511e+00  -4.4293432867555405e+00  -4.3079982502993897e+00  -4.1866532138433508e+00  -4.0653081773874016e+00  -3.9439631409315115e+00  -3.8226181044756502e+00  -3.7012730680198214e+00  -3.5799280315640161e+00  -3.4585829951082165e+00  -3.3372379586524206e+00  -3.2158929221966246e+00  -3.0945478857407718e+00  -2.9732028492848870e+00  -2.8518578128286141e+00  -2.7305127763723362e+00  -2.6091677399135227e+00  -2.4878227034565548e+00  -2.3664776669818512e+00  -2.2451326305314128e+00  -2.1237875939536046e+00  -2.0024425576072682e+00  -1.8810975203545792e+00  -1.7597524849622268e+00  -1.6384074434871099e+00  -1.51706241475539