<?xml version="1.0"?>
<VTKFile type="UnstructuredGrid"  version="0.1"  >
<UnstructuredGrid>
<Piece  NumberOfPoints="1369" NumberOfCells="2560">
<Points>
<DataArray  type="Float64"  NumberOfComponents="3"  format="ascii">0 0 0  0.75 0 0  1.5 0 0  2.25 0 0  3 0 0  3.75 0 0  4.5 0 0  5.25 0 0  6 0 0  6.75 0 0  7.5 0 0  8.25 0 0  9 0 0  9.75 0 0  10.5 0 0  11.25 0 0  12 0 0  12.75 0 0  13.5 0 0  14.25 0 0  15 0 0  15.75 0 0  16.5 0 0  17.25 0 0  18 0 0  18.75 0 0  19.5 0 0  20.25 0 0  21 0 0  21.75 0 0  22.5 0 0  23.25 0 0  24 0 0  24.75 0 0  25.5 0 0  26.25 0 0  27 0 0  27.75 0 0  28.5 0 0  29.25 0 0  30 0 0  30.75 0 0  31.5 0 0  32.25 0 0  33 0 0  33.75 0 0  34.5 0 0  35.25 0 0  36 0 0  36.75 0 0  37.5 0 0  38.25 0 0  39 0 0  39.75 0 0  40.5 0 0  41.25 0 0  42 0 0  42.75 0 0  43.5 0 0  44.25 0 0  45 0 0  45.75 0 0  46.5 0 0  47.25 0 0  48 0 0  48.75 0 0  49.5 0 0  50.25 0 0  51 0 0  51.75 0 0  52.5 0 0  53.25 0 0  54 0 0  54.75 0 0  55.5 0 0  56.25 0 0  57 0 0  57.75 0 0  58.5 0 0  59.25 0 0  60 0 0  0 0.5 0  0.75 0.5 0  1.5 0.5 0  2.25 0.5 0  3 0.5 0  3.75 0.5 0  4.5 0.5 0  5.25 0.5 0  6 0.5 0  6.75 0.5 0  7.5 0.5 0  8.25 0.5 0  9 0.5 0  9.75 0.5 0  10.5 0.5 0  11.25 0.5 0  12 0.5 0  12.75 0.5 0  13.5 0.5 0  14.25 0.5 0  15 0.5 0  15.75 0.5 0  16.5 0.5 0  17.25 0.5 0  18 0.5 0  18.75 0.5 0  19.5 0.5 0  20.25 0.5 0  21 0.5 0  21.75 0.5 0  22.5 0.5 0  23.25 0.5 0  24 0.5 0  24.75 0.5 0  25.5 0.5 0  26.25 0.5 0  27 0.5 0  27.75 0.5 0  28.5 0.5 0  29.25 0.5 0  30 0.5 0  30.75 0.5 0  31.5 0.5 0  32.25 0.5 0  33 0.5 0  33.75 0.5 0  34.5 0.5 0  35.25 0.5 0  36 0.5 0  36.75 0.5 0  37.5 0.5 0  38.25 0.5 0  39 0.5 0  39.75 0.5 0  40.5 0.5 0  41.25 0.5 0  42 0.5 0  42.75 0.5 0  43.5 0.5 0  44.25 0.5 0  45 0.5 0  45.75 0.5 0  46.5 0.5 0  47.25 0.5 0  48 0.5 0  48.75 0.5 0  49.5 0.5 0  50.25 0.5 0  51 0.5 0  51.75 0.5 0  52.5 0.5 0  53.25 0.5 0  54 0.5 0  54.75 0.5 0  55.5 0.5 0  56.25 0.5 0  57 0.5 0  57.75 0.5 0  58.5 0.5 0  59.25 0.5 0  60 0.5 0  0 1 0  0.75 1 0  1.5 1 0  2.25 1 0  3 1 0  3.75 1 0  4.5 1 0  5.25 1 0  6 1 0  6.75 1 0  7.5 1 0  8.25 1 0  9 1 0  9.75 1 0  10.5 1 0  11.25 1 0  12 1 0  12.75 1 0  13.5 1 0  14.25 1 0  15 1 0  15.75 1 0  16.5 1 0  17.25 1 0  18 1 0  18.75 1 0  19.5 1 0  20.25 1 0  21 1 0  21.75 1 0  22.5 1 0  23.25 1 0  24 1 0  24.75 1 0  25.5 1 0  26.25 1 0  27 1 0  27.75 1 0  28.5 1 0  29.25 1 0  30 1 0  30.75 1 0  31.5 1 0  32.25 1 0  33 1 0  33.75 1 0  34.5 1 0  35.25 1 0  36 1 0  36.75 1 0  37.5 1 0  38.25 1 0  39 1 0  39.75 1 0  40.5 1 0  41.25 1 0  42 1 0  42.75 1 0  43.5 1 0  44.25 1 0  45 1 0  45.75 1 0  46.5 1 0  47.25 1 0  48 1 0  48.75 1 0  49.5 1 0  50.25 1 0  51 1 0  51.75 1 0  52.5 1 0  53.25 1 0  54 1 0  54.75 1 0  55.5 1 0  56.25 1 0  57 1 0  57.75 1 0  58.5 1 0  59.25 1 0  60 1 0  0 1.5 0  0.75 1.5 0  1.5 1.5 0  2.25 1.5 0  3 1.5 0  3.75 1.5 0  4.5 1.5 0  5.25 1.5 0  6 1.5 0  6.75 1.5 0  7.5 1.5 0  8.25 1.5 0  9 1.5 0  9.75 1.5 0  10.5 1.5 0  11.25 1.5 0  12 1.5 0  12.75 1.5 0  13.5 1.5 0  14.25 1.5 0  15 1.5 0  15.75 1.5 0  16.5 1.5 0  17.25 1.5 0  18 1.5 0  18.75 1.5 0  19.5 1.5 0  20.25 1.5 0  21 1.5 0  21.75 1.5 0  22.5 1.5 0  23.25 1.5 0  24 1.5 0  24.75 1.5 0  25.5 1.5 0  26.25 1.5 0  27 1.5 0  27.75 1.5 0  28.5 1.5 0  29.25 1.5 0  30 1.5 0  30.75 1.5 0  31.5 1.5 0  32.25 1.5 0  33 1.5 0  33.75 1.5 0  34.5 1.5 0  35.25 1.5 0  36 1.5 0  36.75 1.5 0  37.5 1.5 0  38.25 1.5 0  39 1.5 0  39.75 1.5 0  40.5 1.5 0  41.25 1.5 0  42 1.5 0  42.75 1.5 0  43.5 1.5 0  44.25 1.5 0  45 1.5 0  45.75 1.5 0  46.5 1.5 0  47.25 1.5 0  48 1.5 0  48.75 1.5 0  49.5 1.5 0  50.25 1.5 0  51 1.5 0  51.75 1.5 0  52.5 1.5 0  53.25 1.5 0  54 1.5 0  54.75 1.5 0  55.5 1.5 0  56.25 1.5 0  57 1.5 0  57.75 1.5 0  58.5 1.5 0  59.25 1.5 0  60 1.5 0  0 2 0  0.75 2 0  1.5 2 0  2.25 2 0  3 2 0  3.75 2 0  4.5 2 0  5.25 2 0  6 2 0  6.75 2 0  7.5 2 0  8.25 2 0  9 2 0  9.75 2 0  10.5 2 0  11.25 2 0  12 2 0  12.75 2 0  13.5 2 0  14.25 2 0  15 2 0  15.75 2 0  16.5 2 0  17.25 2 0  18 2 0  18.75 2 0  19.5 2 0  20.25 2 0  21 2 0  21.75 2 0  22.5 2 0  23.25 2 0  24 2 0  24.75 2 0  25.5 2 0  26.25 2 0  27 2 0  27.75 2 0  28.5 2 0  29.25 2 0  30 2 0  30.75 2 0  31.5 2 0  32.25 2 0  33 2 0  33.75 2 0  34.5 2 0  35.25 2 0  36 2 0  36.75 2 0  37.5 2 0  38.25 2 0  39 2 0  39.75 2 0  40.5 2 0  41.25 2 0  42 2 0  42.75 2 0  43.5 2 0  44.25 2 0  45 2 0  45.75 2 0  46.5 2 0  47.25 2 0  48 2 0  48.75 2 0  49.5 2 0  50.25 2 0  51 2 0  51.75 2 0  52.5 2 0  53.25 2 0  54 2 0  54.75 2 0  55.5 2 0  56.25 2 0  57 2 0  57.75 2 0  58.5 2 0  59.25 2 0  60 2 0  0 2.5 0  0.75 2.5 0  1.5 2.5 0  2.25 2.5 0  3 2.5 0  3.75 2.5 0  4.5 2.5 0  5.25 2.5 0  6 2.5 0  6.75 2.5 0  7.5 2.5 0  8.25 2.5 0  9 2.5 0  9.75 2.5 0  10.5 2.5 0  11.25 2.5 0  12 2.5 0  12.75 2.5 0  13.5 2.5 0  14.25 2.5 0  15 2.5 0  15.75 2.5 0  16.5 2.5 0  17.25 2.5 0  18 2.5 0  18.75 2.5 0  19.5 2.5 0  20.25 2.5 0  21 2.5 0  21.75 2.5 0  22.5 2.5 0  23.25 2.5 0  24 2.5 0  24.75 2.5 0  25.5 2.5 0  26.25 2.5 0  27 2.5 0  27.75 2.5 0  28.5 2.5 0  29.25 2.5 0  30 2.5 0  30.75 2.5 0  31.5 2.5 0  32.25 2.5 0  33 2.5 0  33.75 2.5 0  34.5 2.5 0  35.25 2.5 0  36 2.5 0  36.75 2.5 0  37.5 2.5 0  38.25 2.5 0  39 2.5 0  39.75 2.5 0  40.5 2.5 0  41.25 2.5 0  42 2.5 0  42.75 2.5 0  43.5 2.5 0  44.25 2.5 0  45 2.5 0  45.75 2.5 0  46.5 2.5 0  47.25 2.5 0  48 2.5 0  48.75 2.5 0  49.5 2.5 0  50.25 2.5 0  51 2.5 0  51.75 2.5 0  52.5 2.5 0  53.25 2.5 0  54 2.5 0  54.75 2.5 0  55.5 2.5 0  56.25 2.5 0  57 2.5 0  57.75 2.5 0  58.5 2.5 0  59.25 2.5 0  60 2.5 0  0 3 0  0.75 3 0  1.5 3 0  2.25 3 0  3 3 0  3.75 3 0  4.5 3 0  5.25 3 0  6 3 0  6.75 3 0  7.5 3 0  8.25 3 0  9 3 0  9.75 3 0  10.5 3 0  11.25 3 0  12 3 0  12.75 3 0  13.5 3 0  14.25 3 0  15 3 0  15.75 3 0  16.5 3 0  17.25 3 0  18 3 0  18.75 3 0  19.5 3 0  20.25 3 0  21 3 0  21.75 3 0  22.5 3 0  23.25 3 0  24 3 0  24.75 3 0  25.5 3 0  26.25 3 0  27 3 0  27.75 3 0  28.5 3 0  29.25 3 0  30 3 0  30.75 3 0  31.5 3 0  32.25 3 0  33 3 0  33.75 3 0  34.5 3 0  35.25 3 0  36 3 0  36.75 3 0  37.5 3 0  38.25 3 0  39 3 0  39.75 3 0  40.5 3 0  41.25 3 0  42 3 0  42.75 3 0  43.5 3 0  44.25 3 0  45 3 0  45.75 3 0  46.5 3 0  47.25 3 0  48 3 0  48.75 3 0  49.5 3 0  50.25 3 0  51 3 0  51.75 3 0  52.5 3 0  53.25 3 0  54 3 0  54.75 3 0  55.5 3 0  56.25 3 0  57 3 0  57.75 3 0  58.5 3 0  59.25 3 0  60 3 0  0 3.5 0  0.75 3.5 0  1.5 3.5 0  2.25 3.5 0  3 3.5 0  3.75 3.5 0  4.5 3.5 0  5.25 3.5 0  6 3.5 0  6.75 3.5 0  7.5 3.5 0  8.25 3.5 0  9 3.5 0  9.75 3.5 0  10.5 3.5 0  11.25 3.5 0  12 3.5 0  12.75 3.5 0  13.5 3.5 0  14.25 3.5 0  15 3.5 0  15.75 3.5 0  16.5 3.5 0  17.25 3.5 0  18 3.5 0  18.75 3.5 0  19.5 3.5 0  20.25 3.5 0  21 3.5 0  21.75 3.5 0  22.5 3.5 0  23.25 3.5 0  24 3.5 0  24.75 3.5 0  25.5 3.5 0  26.25 3.5 0  27 3.5 0  27.75 3.5 0  28.5 3.5 0  29.25 3.5 0  30 3.5 0  30.75 3.5 0  31.5 3.5 0  32.25 3.5 0  33 3.5 0  33.75 3.5 0  34.5 3.5 0  35.25 3.5 0  36 3.5 0  36.75 3.5 0  37.5 3.5 0  38.25 3.5 0  39 3.5 0  39.75 3.5 0  40.5 3.5 0  41.25 3.5 0  42 3.5 0  42.75 3.5 0  43.5 3.5 0  44.25 3.5 0  45 3.5 0  45.75 3.5 0  46.5 3.5 0  47.25 3.5 0  48 3.5 0  48.75 3.5 0  49.5 3.5 0  50.25 3.5 0  51 3.5 0  51.75 3.5 0  52.5 3.5 0  53.25 3.5 0  54 3.5 0  54.75 3.5 0  55.5 3.5 0  56.25 3.5 0  57 3.5 0  57.75 3.5 0  58.5 3.5 0  59.25 3.5 0  60 3.5 0  0 4 0  0.75 4 0  1.5 4 0  2.25 4 0  3 4 0  3.75 4 0  4.5 4 0  5.25 4 0  6 4 0  6.75 4 0  7.5 4 0  8.25 4 0  9 4 0  9.75 4 0  10.5 4 0  11.25 4 0  12 4 0  12.75 4 0  13.5 4 0  14.25 4 0  15 4 0  15.75 4 0  16.5 4 0  17.25 4 0  18 4 0  18.75 4 0  19.5 4 0  20.25 4 0  21 4 0  21.75 4 0  22.5 4 0  23.25 4 0  24 4 0  24.75 4 0  25.5 4 0  26.25 4 0  27 4 0  27.75 4 0  28.5 4 0  29.25 4 0  30 4 0  30.75 4 0  31.5 4 0  32.25 4 0  33 4 0  33.75 4 0  34.5 4 0  35.25 4 0  36 4 0  36.75 4 0  37.5 4 0  38.25 4 0  39 4 0  39.75 4 0  40.5 4 0  41.25 4 0  42 4 0  42.75 4 0  43.5 4 0  44.25 4 0  45 4 0  45.75 4 0  46.5 4 0  47.25 4 0  48 4 0  48.75 4 0  49.5 4 0  50.25 4 0  51 4 0  51.75 4 0  52.5 4 0  53.25 4 0  54 4 0  54.75 4 0  55.5 4 0  56.25 4 0  57 4 0  57.75 4 0  58.5 4 0  59.25 4 0  60 4 0  0.375 0.25 0  1.125 0.25 0  1.875 0.25 0  2.625 0.25 0  3.375 0.25 0  4.125 0.25 0  4.875 0.25 0  5.625 0.25 0  6.375 0.25 0  7.125 0.25 0  7.875 0.25 0  8.625 0.25 0  9.375 0.25 0  10.125 0.25 0  10.875 0.25 0  11.625 0.25 0  12.375 0.25 0  13.125 0.25 0  13.875 0.25 0  14.625 0.25 0  15.375 0.25 0  16.125 0.25 0  16.875 0.25 0  17.625 0.25 0  18.375 0.25 0  19.125 0.25 0  19.875 0.25 0  20.625 0.25 0  21.375 0.25 0  22.125 0.25 0  22.875 0.25 0  23.625 0.25 0  24.375 0.25 0  25.125 0.25 0  25.875 0.25 0  26.625 0.25 0  27.375 0.25 0  28.125 0.25 0  28.875 0.25 0  29.625 0.25 0  30.375 0.25 0  31.125 0.25 0  31.875 0.25 0  32.625 0.25 0  33.375 0.25 0  34.125 0.25 0  34.875 0.25 0  35.625 0.25 0  36.375 0.25 0  37.125 0.25 0  37.875 0.25 0  38.625 0.25 0  39.375 0.25 0  40.125 0.25 0  40.875 0.25 0  41.625 0.25 0  42.375 0.25 0  43.125 0.25 0  43.875 0.25 0  44.625 0.25 0  45.375 0.25 0  46.125 0.25 0  46.875 0.25 0  47.625 0.25 0  48.375 0.25 0  49.125 0.25 0  49.875 0.25 0  50.625 0.25 0  51.375 0.25 0  52.125 0.25 0  52.875 0.25 0  53.625 0.25 0  54.375 0.25 0  55.125 0.25 0  55.875 0.25 0  56.625 0.25 0  57.375 0.25 0  58.125 0.25 0  58.875 0.25 0  59.625 0.25 0  0.375 0.75 0  1.125 0.75 0  1.875 0.75 0  2.625 0.75 0  3.375 0.75 0  4.125 0.75 0  4.875 0.75 0  5.625 0.75 0  6.375 0.75 0  7.125 0.75 0  7.875 0.75 0  8.625 0.75 0  9.375 0.75 0  10.125 0.75 0  10.875 0.75 0  11.625 0.75 0  12.375 0.75 0  13.125 0.75 0  13.875 0.75 0  14.625 0.75 0  15.375 0.75 0  16.125 0.75 0  16.875 0.75 0  17.625 0.75 0  18.375 0.75 0  19.125 0.75 0  19.875 0.75 0  20.625 0.75 0  21.375 0.75 0  22.125 0.75 0  22.875 0.75 0  23.625 0.75 0  24.375 0.75 0  25.125 0.75 0  25.875 0.75 0  26.625 0.75 0  27.375 0.75 0  28.125 0.75 0  28.875 0.75 0  29.625 0.75 0  30.375 0.75 0  31.125 0.75 0  31.875 0.75 0  32.625 0.75 0  33.375 0.75 0  34.125 0.75 0  34.875 0.75 0  35.625 0.75 0  36.375 0.75 0  37.125 0.75 0  37.875 0.75 0  38.625 0.75 0  39.375 0.75 0  40.125 0.75 0  40
[...]
<PointData  Scalars="f_8-1"> 
<DataArray  type="Float64"  Name="f_8-1"  format="ascii">9.7053369161829206e+00  9.5870557546847035e+00  9.4653279522682574e+00  9.3440474723051565e+00  9.2226983673565908e+00  9.1013566770690364e+00  8.9800128015594680e+00  8.8586684195505665e+00  8.7373235342794722e+00  8.6159782302981167e+00  8.4946325246200924e+00  8.3732864639619802e+00  8.2519401510016870e+00  8.1305937210711683e+00  8.0092472952785130e+00  7.8879009502756547e+00  7.7665547143820834e+00  7.6452085818776849e+00  7.5238625308195290e+00  7.4025165364999115e+00  7.2811705781275418e+00  7.1598246406936283e+00  7.0384787141532712e+00  6.9171327918227483e+00  6.7957868688773386e+00  6.6744409414719525e+00  6.5530950064350204e+00  6.4317490613235968e+00  6.3104031045337701e+00  6.1890571353591692e+00  6.0677111540047539e+00  5.9463651616204771e+00  5.8250191603370070e+00  5.7036731532270633e+00  5.5823271441053537e+00  5.4609811371504353e+00  5.3396351364133139e+00  5.2182891453314868e+00  5.0969431663631788e+00  4.9755972008117046e+00  4.8542512488485050e+00  4.7329053096940097e+00  4.6115593818888510e+00  4.4902134635881206e+00  4.3688675528246055e+00  4.2475216477129276e+00  4.1261757465803690e+00  4.0048298480380016e+00  3.8834839509911969e+00  3.7621380546323655e+00  3.6407921583841487e+00  3.5194462618861282e+00  3.3981003648951043e+00  3.2767544673336402e+00  3.1554085691125731e+00  3.0340626703326783e+00  2.9127167709107646e+00  2.7913708711057814e+00  2.6700249707065589e+00  2.5486790701826232e+00  2.4273331690788664e+00  2.3059872680032760e+00  2.1846413663313551e+00  2.0632954634397223e+00  1.9419495611417938e+00  1.8206036560070360e+00  1.6992577857995177e+00  1.5779119645597517e+00  1.4565663360872410e+00  1.3352205734141804e+00  1.2138743824235212e+00  1.0925264571686812e+00  9.7117864179574376e-01  8.4982779188030755e-01  7.2847834005841772e-01  6.0712736496444231e-01  4.8582343109173953e-01  3.6450002775660156e-01  2.4339564796597915e-01  1.2138042685029693e-01  2.3657458741060461e-03  9.7086718512914114e+00  9.5864864183696117e+00  9.4653416243917086e+00  9.3439827377436977e+00  9.2226458142098551e+00  9.1013029628338646e+00  8.9799593641766489e+00  8.8586150038951530e+00  8.7372701560146560e+00  8.6159248797322459e+00  8.4945791980289123e+00  8.3732331707983931e+00  8.2518869142970797e+00  8.1305405657790999e+00  8.0091942359236654e+00  7.8878479866652054e+00  7.7665018346080288e+00  7.6451557685554121e+00  7.5238097664029420e+00  7.4024638063214079e+00  7.2811178712264724e+00  7.1597719494593193e+00  7.0384260334651074e+00  6.9170801182235246e+00  6.7957341999333023e+00  6.6743882754144943e+00  6.5530423419906461e+00  6.4316963976529475e+00  6.3103504411777793e+00  6.1890044721820017e+00  6.0676584911342228e+00  5.9463124994070196e+00  5.8249664993149750e+00  5.7036204940609041e+00  5.5822744875014685e+00  5.4609284837440688e+00  5.3395824866535175e+00  5.2182364993967978e+00  5.0968905241282290e+00  4.9755445618704828e+00  4.8541986125822518e+00  4.7328526753633193e+00  4.6115067487283641e+00  4.4901608308857801e+00  4.3688149199780550e+00  4.2474690142567466e+00  4.1261231121950992e+00  4.0047772125332717e+00  3.8834313142939303e+00  3.7620854167447750e+00  3.6407395193846450e+00  3.5193936218646695e+00  3.3980477240001705e+00  3.2767018256600653e+00  3.1553559268372338e+00  3.0340100275011150e+00  2.9126641277207121e+00  2.7913182275292159e+00  2.6699723269430651e+00  2.5486264262134406e+00  2.4272805248534937e+00  2.3059346241544807e+00  2.1845887211536854e+00  2.0632428211390570e+00  1.9418969126882557e+00  1.8205510199203527e+00  1.6992051273360684e+00  1.5778593566688179e+00  1.4565136522823374e+00  1.3351679974081117e+00  1.2138212748993549e+00  1.0924735620357471e+00  9.7112548212772976e-01  8.4977701720709242e-01  7.2842278685645800e-01  6.0708072994034767e-01  4.8576017623647122e-01  3.6447690613327116e-01  2.4318348541180190e-01  1.2172518903164496e-01  -4.7965234168910128e-04  9.7081840912744894e+00  9.5866755415418865e+00  9.4652910938444990e+00  9.3439486520288231e+00  9.2226037855941581e+00  9.1012599013994961e+00  8.9799157114589718e+00  8.8585711873674544e+00  8.7372262926590718e+00  8.6158810195782660e+00  8.4945353742309262e+00  8.3731894119813965e+00  8.2518432371595214e+00  8.1304969694264919e+00  8.0091507056677074e+00  7.8878045022194652e+00  7.7664583774431941e+00  7.6451123253163944e+00  7.5237663291835952e+00  7.4024203712021324e+00  7.2810744366306563e+00  7.1597285148588208e+00  7.0383825986608457e+00  6.9170366830347572e+00  6.7956907641819919e+00  6.6743448390022388e+00  6.5529989049742134e+00  6.4316529602551382e+00  6.3103070037656712e+00  6.1889610352354483e+00  6.0676150552218493e+00  5.9462690651492203e+00  5.8249230673202703e+00  5.7035770648341932e+00  5.5822310613496269e+00  5.4608850607092032e+00  5.3395390664978590e+00  5.2181930816422399e+00  5.0968471081370028e+00  4.9755011469428831e+00  4.8541551980476845e+00  4.7328092606491401e+00  4.6114633333977029e+00  4.4901174146494851e+00  4.3687715026807465e+00  4.2474255958575853e+00  4.1260796927296814e+00  4.0047337920998043e+00  3.8833878930039893e+00  3.7620419947446631e+00  3.6406960967797759e+00  3.5193501988065483e+00  3.3980043005443989e+00  3.2766584019570848e+00  3.1553125028801596e+00  3.0339666034343415e+00  2.9126207035157434e+00  2.7912748032282564e+00  2.6699289027509598e+00  2.5485830015089790e+00  2.4272371013035556e+00  2.3058911979526364e+00  2.1845453005532240e+00  2.0631993901239465e+00  1.9418535037149212e+00  1.8205075758998455e+00  1.6991617458606330e+00  1.5778158225558594e+00  1.4564701861874363e+00  1.3351239279732503e+00  1.2137776083912364e+00  1.0924291713043683e+00  9.7108341770621831e-01  8.4973257097664512e-01  7.2838577377922475e-01  6.0703562568780067e-01  4.8572298127196051e-01  3.6437400031903028e-01  2.4308697658802228e-01  1.2143366708162244e-01  8.7262721175578178e-05  9.7081990144089190e+00  9.5867324453342420e+00  9.4653349027937868e+00  9.3439725796004627e+00  9.2226226283511785e+00  9.1012765852971498e+00  8.9799316883908027e+00  8.8585869217641182e+00  8.7372419501607830e+00  8.6158966711638119e+00  8.4945510717261978e+00  8.3732051881556568e+00  8.2518590958494435e+00  8.1305128893933709e+00  8.0091666558976335e+00  7.8878204554720472e+00  7.7664743169032171e+00  7.6451282443404098e+00  7.5237822280415667e+00  7.4024362533786956e+00  7.2810903063258277e+00  7.1597443756352579e+00  7.0383984530730457e+00  6.9170525327485821e+00  6.7957066103398187e+00  6.6743606825217885e+00  6.5530147467185715e+00  6.4316688010626892e+00  6.3103228444480406e+00  6.1889768765736166e+00  6.0676308979677316e+00  5.9462849099885764e+00  5.8249389147926021e+00  5.7035929152289064e+00  5.5822469146297387e+00  5.4609009164981002e+00  5.3395549241418445e+00  5.2182089403279592e+00  5.0968629670292263e+00  4.9755170053054920e+00  4.8541710553256516e+00  4.7328251165012665e+00  4.6114791876899481e+00  4.4901332674152226e+00  4.3687873540755708e+00  4.2474414460990699e+00  4.1260955420698142e+00  4.0047496407658532e+00  3.8834037412239462e+00  3.7620578426638600e+00  3.6407119445751186e+00  3.5193660465118781e+00  3.3980201483174692e+00  3.2766742497159349e+00  3.1553283508073067e+00  3.0339824513545248e+00  2.9126365516101274e+00  2.7912906514040201e+00  2.6699447507858105e+00  2.5485988503652428e+00  2.4272529482187926e+00  2.3059070494580429e+00  2.1845611425235236e+00  2.0632152522112115e+00  1.9418693305185217e+00  1.8205234730216169e+00  1.6991775101264945e+00  1.5778317330493095e+00  1.4564855275014932e+00  1.3351396188829832e+00  1.2137920940872302e+00  1.0924456168584193e+00  9.7109590949857105e-01  8.4975215042495111e-01  7.2840123829827663e-01  6.0706880303676292e-01  4.8571597399051952e-01  3.6439889305768497e-01  2.4296498037600101e-01  1.2154210105610311e-01  -1.5825370401379068e-05  9.7081965798312488e+00  9.5867519817632392e+00  9.4653497661354891e+00  9.3439824696600535e+00  9.2226303715574289e+00  9.1012835872276696e+00  8.9799384226866028e+00  8.8585935660929653e+00  8.7372485663860306e+00  8.6159032842410852e+00  8.4945576960974236e+00  8.3732118334977983e+00  8.2518657652623411e+00  8.1305195792601221e+00  8.0091733586579092e+00  7.8878271633519370e+00  7.7664810242436735e+00  7.6451349482054800e+00  7.5237889276165255e+00  7.4024429490597816e+00  7.2810969989431014e+00  7.1597510660089556e+00  7.0384051418255007e+00  6.9170592202983521e+00  6.7957132969667464e+00  6.6743673684467542e+00  6.5530214321511213e+00  6.4316754862191896e+00  6.3103295295502564e+00  6.1889835618456219e+00  6.0676375836309413e+00  5.9462915962509513e+00  5.8249456018265047e+00  5.7035996031430987e+00  5.5822536034451318e+00  5.4609076061390036e+00  5.3395616144469429e+00  5.2182156310784640e+00  5.0968696579853292e+00  4.9755236962421181e+00  4.8541777460586042e+00  4.7328318069025901e+00  4.6114858776885290e+00  4.4901399569933291e+00  4.3687940432508752e+00  4.2474481349218269e+00  4.1261022305914636e+00  4.0047563290615402e+00  3.8834104293312683e+00  3.7620645306678453e+00  3.6407186324649734e+00  3.5193727343995329e+00  3.3980268361117081e+00  3.2766809375944783e+00  3.1553350385686718e+00  3.0339891392675380e+00  2.9126432393961021e+00  2.7912973392793750e+00  2.6699514388265007e+00  2.5486055376809729e+00  2.4272596376379267e+00  2.3059137338796529e+00  2.1845678379412483e+00  2.0632219255489499e+00  1.9418760475873846e+00  1.8205301095290070e+00  1.6991842861145063e+00  1.5778382314944375e+00  1.4564924137574662e+00  1.3351456733517131e+00  1.2137994240622652e+00  1.0924507341159773e+00  9.7110482273146626e-01  8.4975519835997626e-01  7.2841553161928008e-01  6.0706572594140951e-01  4.8573764902428734e-01  3.6436849749836020e-01  2.4298772560333320e-01  1.2150400173252754e-01  2.0131143438199477e-05  9.7081990144089154e+00  9.5867324453342189e+00  9.4653349027937637e+00  9.3439725796004787e+00  9.2226226283511696e+00  9.1012765852971746e+00  8.9799316883908116e+00  8.8585869217641431e+00  8.7372419501607954e+00  8.6158966711637941e+00  8.4945510717262067e+00  8.3732051881556533e+00  8.2518590958494578e+00  8.1305128893933691e+00  8.0091666558976211e+00  7.8878204554720526e+00  7.7664743169032073e+00  7.6451282443403841e+00  7.5237822280415498e+00  7.4024362533786876e+00  7.2810903063258055e+00  7.1597443756352517e+00  7.0383984530730350e+00  6.9170525327485644e+00  6.7957066103398223e+00  6.6743606825218054e+00  6.5530147467185822e+00  6.4316688010626901e+00  6.3103228444480459e+00  6.1889768765736131e+00  6.0676308979677325e+00  5.9462849099885844e+00  5.8249389147926003e+00  5.7035929152289091e+00  5.5822469146297538e+00  5.4609009164981037e+00  5.3395549241418454e+00  5.2182089403279557e+00  5.0968629670292316e+00  4.9755170053054902e+00  4.8541710553256472e+00  4.7328251165012585e+00  4.6114791876899393e+00  4.4901332674152226e+00  4.3687873540755611e+00  4.2474414460990788e+00  4.1260955420698249e+00  4.0047496407658558e+00  3.8834037412239528e+00  3.7620578426638689e+00  3.6407119445751177e+00  3.5193660465118848e+00  3.3980201483174701e+00  3.2766742497159393e+00  3.1553283508073111e+00  3.0339824513545266e+00  2.9126365516101318e+00  2.7912906514040197e+00  2.6699447507858109e+00  2.5485988503652384e+00  2.4272529482187908e+00  2.3059070494580411e+00  2.1845611425235232e+00  2.0632152522112053e+00  1.9418693305185208e+00  1.8205234730216133e+00  1.6991775101264921e+00  1.5778317330493059e+00  1.4564855275014912e+00  1.3351396188829827e+00  1.2137920940872309e+00  1.0924456168584218e+00  9.7109590949857383e-01  8.4975215042495267e-01  7.2840123829827719e-01  6.0706880303676292e-01  4.8571597399051974e-01  3.6439889305768652e-01  2.4296498037600223e-01  1.2154210105610329e-01  -1.5825370401805322e-05  9.7081840912744806e+00  9.5866755415418634e+00  9.4652910938445256e+00  9.3439486520288124e+00  9.2226037855941545e+00  9.1012599013995121e+00  8.9799157114589914e+00  8.8585711873675130e+00  8.7372262926590629e+00  8.6158810195782625e+00  8.4945353742309511e+00  8.3731894119813859e+00  8.2518432371595019e+00  8.1304969694264777e+00  8.0091507056676878e+00  7.8878045022194394e+00  7.7664583774431746e+00  7.6451123253163624e+00  7.5237663291835553e+00  7.4024203712021182e+00  7.2810744366306164e+00  7.1597285148587959e+00  7.0383825986608448e+00  6.9170366830347376e+00  6.7956907641819999e+00  6.6743448390022415e+00  6.5529989049742268e+00  6.4316529602551391e+00  6.3103070037656765e+00  6.1889610352354474e+00  6.0676150552218520e+00  5.9462690651492229e+00  5.8249230673202828e+00  5.7035770648342083e+00  5.5822310613496455e+00  5.4608850607092183e+00  5.3395390664978546e+00  5.2181930816422275e+00  5.0968471081370028e+00  4.9755011469428725e+00  4.8541551980476871e+00  4.7328092606491348e+00  4.6114633333976984e+00  4.4901174146494780e+00  4.3687715026807581e+00  4.2474255958575995e+00  4.1260796927296859e+00  4.0047337920998167e+00  3.8833878930040107e+00  3.7620419947446617e+00  3.6406960967797826e+00  3.5193501988065514e+00  3.3980043005443972e+00  3.2766584019570884e+00  3.1553125028801730e+00  3.0339666034343491e+00  2.9126207035157408e+00  2.7912748032282453e+00  2.6699289027509630e+00  2.5485830015089772e+00  2.4272371013035490e+00  2.3058911979526324e+00  2.1845453005532236e+00  2.0631993901239403e+00  1.9418535037149185e+00  1.8205075758998426e+00  1.6991617458606296e+00  1.5778158225558625e+00  1.4564701861874378e+00  1.3351239279732525e+00  1.2137776083912364e+00  1.0924291713043701e+00  9.7108341770621898e-01  8.4973257097664368e-01  7.2838577377922542e-01  6.0703562568780267e-01  4.8572298127196145e-01  3.6437400031903161e-01  2.4308697658802339e-01  1.2143366708162334e-01  8.7262721175924987e-05  9.7086718512913990e+00  9.5864864183696401e+00  9.4653416243917423e+00  9.3439827377436959e+00  9.2226458142098728e+00  9.1013029628339037e+00  8.9799593641766826e+00  8.8586150038951867e+00  8.7372701560146719e+00  8.6159248797322228e+00  8.4945791980288856e+00  8.3732331707983594e+00  8.2518869142970743e+00  8.1305405657790555e+00  8.0091942359236317e+00  7.8878479866651716e+00  7.7665018346079977e+00  7.6451557685553757e+00  7.5238097664029215e+00  7.4024638063213795e+00  7.2811178712264475e+00  7.1597719494592882e+00  7.0384260334650923e+00  6.9170801182235016e+00  6.7957341999332890e+00  6.6743882754144890e+00  6.5530423419906390e+00  6.4316963976529413e+00  6.3103504411777847e+00  6.1890044721820026e+00  6.0676584911342335e+00  5.9463124994070338e+00  5.8249664993149830e+00  5.7036204940609183e+00  5.5822744875014845e+00  5.4609284837440724e+00  5.3395824866535140e+00  5.2182364993967862e+00  5.0968905241282192e+00  4.9755445618704650e+00  4.8541986125822447e+00  4.7328526753632953e+00  4.6115067487283543e+00  4.4901608308857801e+00  4.3688149199780693e+00  4.2474690142567608e+00  4.1261231121951010e+00  4.0047772125332752e+00  3.8834313142939454e+00  3.7620854167447826e+00  3.6407395193846570e+00  3.5193936218646709e+00  3.3980477240001776e+00  3.2767018256600728e+00  3.1553559268372431e+00  3.0340100275011230e+00  2.9126641277207228e+00  2.7913182275292217e+00  2.6699723269430695e+00  2.5486264262134375e+00  2.4272805248534910e+00  2.3059346241544794e+00  2.1845887211536796e+00  2.0632428211390517e+00  1.9418969126882502e+00  1.8205510199203487e+00  1.6992051273360680e+00  1.5778593566688170e+00  1.4565136522823379e+00  1.3351679974081132e+00  1.2138212748993549e+00  1.0924735620357457e+00  9.7112548212773253e-01  8.4977701720709331e-01  7.2842278685645845e-01  6.0708072994034801e-01  4.8576017623647083e-01  3.6447690613327255e-01  2.4318348541180357e-01  1.2172518903164559e-01  -4.7965234168943153e-04  9.7053369161829188e+00  9.5870557546847159e+00  9.4653279522682858e+00  9.3440474723051583e+00  9.2226983673566121e+00  9.1013566770690737e+00  8.9800128015594893e+00  8.8586684195505985e+00  8.7373235342794917e+00  8.6159782302980972e+00  8.4946325246200605e+00  8.3732864639619393e+00  8.2519401510016515e+00  8.1305937210711292e+00  8.0092472952784810e+00  7.8879009502756219e+00  7.7665547143820453e+00  7.6452085818776423e+00  7.5238625308194917e+00  7.4025165364998768e+00  7.2811705781275133e+00  7.1598246406935839e+00  7.0384787141532481e+00  6.9171327918227190e+00  6.7957868688773058e+00  6.6744409414719437e+00  6.5530950064350124e+00  6.4317490613235941e+00  6.3104031045337692e+00  6.1890571353591683e+00  6.0677111540047575e+00  5.9463651616204958e+00  5.8250191603370007e+00  5.7036731532270721e+00  5.5823271441053626e+00  5.4609811371504309e+00  5.3396351364132926e+00  5.2182891453314753e+00  5.0969431663631743e+00  4.9755972008116869e+00  4.8542512488484935e+00  4.7329053096939875e+00  4.6115593818888359e+00  4.4902134635881188e+00  4.3688675528246153e+00  4.2475216477129418e+00  4.1261757465803628e+00  4.0048298480380025e+00  3.8834839509912071e+00  3.7621380546323802e+00  3.6407921583841634e+00  3.5194462618861309e+00  3.3981003648951145e+00  3.2767544673336459e+00  3.1554085691125824e+00  3.0340626703326894e+00  2.9127167709107673e+00  2.7913708711057912e+00  2.6700249707065673e+00  2.5486790701826165e+00  2.4273331690788669e+00  2.3059872680032667e+00  2.1846413663313506e+00  2.0632954634397196e+00  1.9419495611417901e+00  1.8206036560070378e+00  1.6992577857995197e+00  1.5779119645597546e+00  1.4565663360872418e+00  1.3352205734141815e+00  1.2138743824235225e+00  1.0925264571686799e+00  9.7117864179574531e-01  8.4982779188031043e-01  7.2847834005841816e-01  6.0712736496444308e-01  4.8582343109173942e-01  3.6450002775660262e-01  2.4339564796598084e-01  1.2138042685029723e-01  2.3657458741062174e-03  9.6472395552849157e+00  9.5258513142813772e+00  9.4044996489437604e+00  9.2831635070631791e+00  9.1618217022062147e+00  9.0404786809337150e+00  8.9191346740920920e+00  8.7977900768496706e+00  8.6764450182671808e+00  8.5550995435683710e+00  8.4337536885922955e+00  8.3124075358229952e+00  8.1910612107554002e+00  8.0697148409295263e+00  7.9483685184532327e+00  7.8270222876100650e+00  7.7056761538976692e+00  7.5843301012888569e+00  7.4629841070932335e+00  7.3416381506153190e+00  7.2202922162677092e+00  7.0989462934916734e+00  6.9776003753508045e+00  6.8562544570299124e+00  6.7349085347797457e+00  6.6135626054810723e+00  6.4922166666241186e+00  6.3708707164424689e+00  6.2495247540006407e+00  6.1281787792281595e+00  6.0068327929450041e+00  5.8854867969062852e+00  5.7641407938012010e+00  5.6427947871244788e+00  5.5214487808700419e+00  5.4001027790867839e+00  5.2787567853941679e+00  5.1574108025781253e+00  5.0360648323505997e+00  4.9147188753040583e+00  4.7933729310353792e+00  4.6720269983814937e+00  4.5506810756996110e+00  4.4293351611348140e+00  4.3079892528385422e+00  4.1866433491204624e+00  4.0652974485373630e+00  3.9439515499240567e+00  3.8226056523923084e+00  3.7012597552939988e+00  3.5799138581925023e+00  3.4585679607999507e+00  3.3372220629674785e+00  3.2158761646046905e+00  3.0945302657209379e+00  2.9731843663048787e+00  2.8518384664501131e+00  2.7304925661516957e+00  2.6091466655508722e+00  2.4878007646256930e+00  2.3664548634487890e+00  2.2451089620510989e+00  2.1237630596852783e+00  2.0024171573363221e+00  1.8810712538626935e+00  1.7597253671282889e+00  1.6383795220882242e+00  1.5170337951153288e+00  1.3956880906747726e+00  1.2743420683289113e+00  1.1529948964019856e+00  1.0316469421554981e+00  9.1029831742652412e-01  7.8894807302782266e-01  6.6759862245989521e-01  5.4626742093940572e-01  4.2496586625859178e-01  3.0367480162755828e-01  1.8234980013909782e-01  6.0236259909922457e-02  9.6474034101632693e+00  9.5259549147462295e+00  9.4046351292659818e+00  9.2832928348569741e+00  9.1619509155251588e+00  9.0406074732458457e+00  8.9192633483533452e+00  8.7979187068492859e+00  8.6765736397401962e+00  8.5552281679901334e+00  8.4338823272176455e+00  8.3125362074305666e+00  8.1911899369877155e+00  8.0698436363162678e+00  7.9484973857802910e+00  7.8271512193332589e+00  7.7058051371319678e+00  7.5844591223623308e+00  7.4631131543871865e+00  7.3417672154226414e+00  7.22042129259