<?xml version="1.0"?>
<VTKFile type="UnstructuredGrid"  version="0.1"  >
<UnstructuredGrid>
<Piece  NumberOfPoints="1369" NumberOfCells="2560">
<Points>
<DataArray  type="Float64"  NumberOfComponents="3"  format="ascii">0 0 0  0.75 0 0  1.5 0 0  2.25 0 0  3 0 0  3.75 0 0  4.5 0 0  5.25 0 0  6 0 0  6.75 0 0  7.5 0 0  8.25 0 0  9 0 0  9.75 0 0  10.5 0 0  11.25 0 0  12 0 0  12.75 0 0  13.5 0 0  14.25 0 0  15 0 0  15.75 0 0  16.5 0 0  17.25 0 0  18 0 0  18.75 0 0  19.5 0 0  20.25 0 0  21 0 0  21.75 0 0  22.5 0 0  23.25 0 0  24 0 0  24.75 0 0  25.5 0 0  26.25 0 0  27 0 0  27.75 0 0  28.5 0 0  29.25 0 0  30 0 0  30.75 0 0  31.5 0 0  32.25 0 0  33 0 0  33.75 0 0  34.5 0 0  35.25 0 0  36 0 0  36.75 0 0  37.5 0 0  38.25 0 0  39 0 0  39.75 0 0  40.5 0 0  41.25 0 0  42 0 0  42.75 0 0  43.5 0 0  44.25 0 0  45 0 0  45.75 0 0  46.5 0 0  47.25 0 0  48 0 0  48.75 0 0  49.5 0 0  50.25 0 0  51 0 0  51.75 0 0  52.5 0 0  53.25 0 0  54 0 0  54.75 0 0  55.5 0 0  56.25 0 0  57 0 0  57.75 0 0  58.5 0 0  59.25 0 0  60 0 0  0 0.5 0  0.75 0.5 0  1.5 0.5 0  2.25 0.5 0  3 0.5 0  3.75 0.5 0  4.5 0.5 0  5.25 0.5 0  6 0.5 0  6.75 0.5 0  7.5 0.5 0  8.25 0.5 0  9 0.5 0  9.75 0.5 0  10.5 0.5 0  11.25 0.5 0  12 0.5 0  12.75 0.5 0  13.5 0.5 0  14.25 0.5 0  15 0.5 0  15.75 0.5 0  16.5 0.5 0  17.25 0.5 0  18 0.5 0  18.75 0.5 0  19.5 0.5 0  20.25 0.5 0  21 0.5 0  21.75 0.5 0  22.5 0.5 0  23.25 0.5 0  24 0.5 0  24.75 0.5 0  25.5 0.5 0  26.25 0.5 0  27 0.5 0  27.75 0.5 0  28.5 0.5 0  29.25 0.5 0  30 0.5 0  30.75 0.5 0  31.5 0.5 0  32.25 0.5 0  33 0.5 0  33.75 0.5 0  34.5 0.5 0  35.25 0.5 0  36 0.5 0  36.75 0.5 0  37.5 0.5 0  38.25 0.5 0  39 0.5 0  39.75 0.5 0  40.5 0.5 0  41.25 0.5 0  42 0.5 0  42.75 0.5 0  43.5 0.5 0  44.25 0.5 0  45 0.5 0  45.75 0.5 0  46.5 0.5 0  47.25 0.5 0  48 0.5 0  48.75 0.5 0  49.5 0.5 0  50.25 0.5 0  51 0.5 0  51.75 0.5 0  52.5 0.5 0  53.25 0.5 0  54 0.5 0  54.75 0.5 0  55.5 0.5 0  56.25 0.5 0  57 0.5 0  57.75 0.5 0  58.5 0.5 0  59.25 0.5 0  60 0.5 0  0 1 0  0.75 1 0  1.5 1 0  2.25 1 0  3 1 0  3.75 1 0  4.5 1 0  5.25 1 0  6 1 0  6.75 1 0  7.5 1 0  8.25 1 0  9 1 0  9.75 1 0  10.5 1 0  11.25 1 0  12 1 0  12.75 1 0  13.5 1 0  14.25 1 0  15 1 0  15.75 1 0  16.5 1 0  17.25 1 0  18 1 0  18.75 1 0  19.5 1 0  20.25 1 0  21 1 0  21.75 1 0  22.5 1 0  23.25 1 0  24 1 0  24.75 1 0  25.5 1 0  26.25 1 0  27 1 0  27.75 1 0  28.5 1 0  29.25 1 0  30 1 0  30.75 1 0  31.5 1 0  32.25 1 0  33 1 0  33.75 1 0  34.5 1 0  35.25 1 0  36 1 0  36.75 1 0  37.5 1 0  38.25 1 0  39 1 0  39.75 1 0  40.5 1 0  41.25 1 0  42 1 0  42.75 1 0  43.5 1 0  44.25 1 0  45 1 0  45.75 1 0  46.5 1 0  47.25 1 0  48 1 0  48.75 1 0  49.5 1 0  50.25 1 0  51 1 0  51.75 1 0  52.5 1 0  53.25 1 0  54 1 0  54.75 1 0  55.5 1 0  56.25 1 0  57 1 0  57.75 1 0  58.5 1 0  59.25 1 0  60 1 0  0 1.5 0  0.75 1.5 0  1.5 1.5 0  2.25 1.5 0  3 1.5 0  3.75 1.5 0  4.5 1.5 0  5.25 1.5 0  6 1.5 0  6.75 1.5 0  7.5 1.5 0  8.25 1.5 0  9 1.5 0  9.75 1.5 0  10.5 1.5 0  11.25 1.5 0  12 1.5 0  12.75 1.5 0  13.5 1.5 0  14.25 1.5 0  15 1.5 0  15.75 1.5 0  16.5 1.5 0  17.25 1.5 0  18 1.5 0  18.75 1.5 0  19.5 1.5 0  20.25 1.5 0  21 1.5 0  21.75 1.5 0  22.5 1.5 0  23.25 1.5 0  24 1.5 0  24.75 1.5 0  25.5 1.5 0  26.25 1.5 0  27 1.5 0  27.75 1.5 0  28.5 1.5 0  29.25 1.5 0  30 1.5 0  30.75 1.5 0  31.5 1.5 0  32.25 1.5 0  33 1.5 0  33.75 1.5 0  34.5 1.5 0  35.25 1.5 0  36 1.5 0  36.75 1.5 0  37.5 1.5 0  38.25 1.5 0  39 1.5 0  39.75 1.5 0  40.5 1.5 0  41.25 1.5 0  42 1.5 0  42.75 1.5 0  43.5 1.5 0  44.25 1.5 0  45 1.5 0  45.75 1.5 0  46.5 1.5 0  47.25 1.5 0  48 1.5 0  48.75 1.5 0  49.5 1.5 0  50.25 1.5 0  51 1.5 0  51.75 1.5 0  52.5 1.5 0  53.25 1.5 0  54 1.5 0  54.75 1.5 0  55.5 1.5 0  56.25 1.5 0  57 1.5 0  57.75 1.5 0  58.5 1.5 0  59.25 1.5 0  60 1.5 0  0 2 0  0.75 2 0  1.5 2 0  2.25 2 0  3 2 0  3.75 2 0  4.5 2 0  5.25 2 0  6 2 0  6.75 2 0  7.5 2 0  8.25 2 0  9 2 0  9.75 2 0  10.5 2 0  11.25 2 0  12 2 0  12.75 2 0  13.5 2 0  14.25 2 0  15 2 0  15.75 2 0  16.5 2 0  17.25 2 0  18 2 0  18.75 2 0  19.5 2 0  20.25 2 0  21 2 0  21.75 2 0  22.5 2 0  23.25 2 0  24 2 0  24.75 2 0  25.5 2 0  26.25 2 0  27 2 0  27.75 2 0  28.5 2 0  29.25 2 0  30 2 0  30.75 2 0  31.5 2 0  32.25 2 0  33 2 0  33.75 2 0  34.5 2 0  35.25 2 0  36 2 0  36.75 2 0  37.5 2 0  38.25 2 0  39 2 0  39.75 2 0  40.5 2 0  41.25 2 0  42 2 0  42.75 2 0  43.5 2 0  44.25 2 0  45 2 0  45.75 2 0  46.5 2 0  47.25 2 0  48 2 0  48.75 2 0  49.5 2 0  50.25 2 0  51 2 0  51.75 2 0  52.5 2 0  53.25 2 0  54 2 0  54.75 2 0  55.5 2 0  56.25 2 0  57 2 0  57.75 2 0  58.5 2 0  59.25 2 0  60 2 0  0 2.5 0  0.75 2.5 0  1.5 2.5 0  2.25 2.5 0  3 2.5 0  3.75 2.5 0  4.5 2.5 0  5.25 2.5 0  6 2.5 0  6.75 2.5 0  7.5 2.5 0  8.25 2.5 0  9 2.5 0  9.75 2.5 0  10.5 2.5 0  11.25 2.5 0  12 2.5 0  12.75 2.5 0  13.5 2.5 0  14.25 2.5 0  15 2.5 0  15.75 2.5 0  16.5 2.5 0  17.25 2.5 0  18 2.5 0  18.75 2.5 0  19.5 2.5 0  20.25 2.5 0  21 2.5 0  21.75 2.5 0  22.5 2.5 0  23.25 2.5 0  24 2.5 0  24.75 2.5 0  25.5 2.5 0  26.25 2.5 0  27 2.5 0  27.75 2.5 0  28.5 2.5 0  29.25 2.5 0  30 2.5 0  30.75 2.5 0  31.5 2.5 0  32.25 2.5 0  33 2.5 0  33.75 2.5 0  34.5 2.5 0  35.25 2.5 0  36 2.5 0  36.75 2.5 0  37.5 2.5 0  38.25 2.5 0  39 2.5 0  39.75 2.5 0  40.5 2.5 0  41.25 2.5 0  42 2.5 0  42.75 2.5 0  43.5 2.5 0  44.25 2.5 0  45 2.5 0  45.75 2.5 0  46.5 2.5 0  47.25 2.5 0  48 2.5 0  48.75 2.5 0  49.5 2.5 0  50.25 2.5 0  51 2.5 0  51.75 2.5 0  52.5 2.5 0  53.25 2.5 0  54 2.5 0  54.75 2.5 0  55.5 2.5 0  56.25 2.5 0  57 2.5 0  57.75 2.5 0  58.5 2.5 0  59.25 2.5 0  60 2.5 0  0 3 0  0.75 3 0  1.5 3 0  2.25 3 0  3 3 0  3.75 3 0  4.5 3 0  5.25 3 0  6 3 0  6.75 3 0  7.5 3 0  8.25 3 0  9 3 0  9.75 3 0  10.5 3 0  11.25 3 0  12 3 0  12.75 3 0  13.5 3 0  14.25 3 0  15 3 0  15.75 3 0  16.5 3 0  17.25 3 0  18 3 0  18.75 3 0  19.5 3 0  20.25 3 0  21 3 0  21.75 3 0  22.5 3 0  23.25 3 0  24 3 0  24.75 3 0  25.5 3 0  26.25 3 0  27 3 0  27.75 3 0  28.5 3 0  29.25 3 0  30 3 0  30.75 3 0  31.5 3 0  32.25 3 0  33 3 0  33.75 3 0  34.5 3 0  35.25 3 0  36 3 0  36.75 3 0  37.5 3 0  38.25 3 0  39 3 0  39.75 3 0  40.5 3 0  41.25 3 0  42 3 0  42.75 3 0  43.5 3 0  44.25 3 0  45 3 0  45.75 3 0  46.5 3 0  47.25 3 0  48 3 0  48.75 3 0  49.5 3 0  50.25 3 0  51 3 0  51.75 3 0  52.5 3 0  53.25 3 0  54 3 0  54.75 3 0  55.5 3 0  56.25 3 0  57 3 0  57.75 3 0  58.5 3 0  59.25 3 0  60 3 0  0 3.5 0  0.75 3.5 0  1.5 3.5 0  2.25 3.5 0  3 3.5 0  3.75 3.5 0  4.5 3.5 0  5.25 3.5 0  6 3.5 0  6.75 3.5 0  7.5 3.5 0  8.25 3.5 0  9 3.5 0  9.75 3.5 0  10.5 3.5 0  11.25 3.5 0  12 3.5 0  12.75 3.5 0  13.5 3.5 0  14.25 3.5 0  15 3.5 0  15.75 3.5 0  16.5 3.5 0  17.25 3.5 0  18 3.5 0  18.75 3.5 0  19.5 3.5 0  20.25 3.5 0  21 3.5 0  21.75 3.5 0  22.5 3.5 0  23.25 3.5 0  24 3.5 0  24.75 3.5 0  25.5 3.5 0  26.25 3.5 0  27 3.5 0  27.75 3.5 0  28.5 3.5 0  29.25 3.5 0  30 3.5 0  30.75 3.5 0  31.5 3.5 0  32.25 3.5 0  33 3.5 0  33.75 3.5 0  34.5 3.5 0  35.25 3.5 0  36 3.5 0  36.75 3.5 0  37.5 3.5 0  38.25 3.5 0  39 3.5 0  39.75 3.5 0  40.5 3.5 0  41.25 3.5 0  42 3.5 0  42.75 3.5 0  43.5 3.5 0  44.25 3.5 0  45 3.5 0  45.75 3.5 0  46.5 3.5 0  47.25 3.5 0  48 3.5 0  48.75 3.5 0  49.5 3.5 0  50.25 3.5 0  51 3.5 0  51.75 3.5 0  52.5 3.5 0  53.25 3.5 0  54 3.5 0  54.75 3.5 0  55.5 3.5 0  56.25 3.5 0  57 3.5 0  57.75 3.5 0  58.5 3.5 0  59.25 3.5 0  60 3.5 0  0 4 0  0.75 4 0  1.5 4 0  2.25 4 0  3 4 0  3.75 4 0  4.5 4 0  5.25 4 0  6 4 0  6.75 4 0  7.5 4 0  8.25 4 0  9 4 0  9.75 4 0  10.5 4 0  11.25 4 0  12 4 0  12.75 4 0  13.5 4 0  14.25 4 0  15 4 0  15.75 4 0  16.5 4 0  17.25 4 0  18 4 0  18.75 4 0  19.5 4 0  20.25 4 0  21 4 0  21.75 4 0  22.5 4 0  23.25 4 0  24 4 0  24.75 4 0  25.5 4 0  26.25 4 0  27 4 0  27.75 4 0  28.5 4 0  29.25 4 0  30 4 0  30.75 4 0  31.5 4 0  32.25 4 0  33 4 0  33.75 4 0  34.5 4 0  35.25 4 0  36 4 0  36.75 4 0  37.5 4 0  38.25 4 0  39 4 0  39.75 4 0  40.5 4 0  41.25 4 0  42 4 0  42.75 4 0  43.5 4 0  44.25 4 0  45 4 0  45.75 4 0  46.5 4 0  47.25 4 0  48 4 0  48.75 4 0  49.5 4 0  50.25 4 0  51 4 0  51.75 4 0  52.5 4 0  53.25 4 0  54 4 0  54.75 4 0  55.5 4 0  56.25 4 0  57 4 0  57.75 4 0  58.5 4 0  59.25 4 0  60 4 0  0.375 0.25 0  1.125 0.25 0  1.875 0.25 0  2.625 0.25 0  3.375 0.25 0  4.125 0.25 0  4.875 0.25 0  5.625 0.25 0  6.375 0.25 0  7.125 0.25 0  7.875 0.25 0  8.625 0.25 0  9.375 0.25 0  10.125 0.25 0  10.875 0.25 0  11.625 0.25 0  12.375 0.25 0  13.125 0.25 0  13.875 0.25 0  14.625 0.25 0  15.375 0.25 0  16.125 0.25 0  16.875 0.25 0  17.625 0.25 0  18.375 0.25 0  19.125 0.25 0  19.875 0.25 0  20.625 0.25 0  21.375 0.25 0  22.125 0.25 0  22.875 0.25 0  23.625 0.25 0  24.375 0.25 0  25.125 0.25 0  25.875 0.25 0  26.625 0.25 0  27.375 0.25 0  28.125 0.25 0  28.875 0.25 0  29.625 0.25 0  30.375 0.25 0  31.125 0.25 0  31.875 0.25 0  32.625 0.25 0  33.375 0.25 0  34.125 0.25 0  34.875 0.25 0  35.625 0.25 0  36.375 0.25 0  37.125 0.25 0  37.875 0.25 0  38.625 0.25 0  39.375 0.25 0  40.125 0.25 0  40.875 0.25 0  41.625 0.25 0  42.375 0.25 0  43.125 0.25 0  43.875 0.25 0  44.625 0.25 0  45.375 0.25 0  46.125 0.25 0  46.875 0.25 0  47.625 0.25 0  48.375 0.25 0  49.125 0.25 0  49.875 0.25 0  50.625 0.25 0  51.375 0.25 0  52.125 0.25 0  52.875 0.25 0  53.625 0.25 0  54.375 0.25 0  55.125 0.25 0  55.875 0.25 0  56.625 0.25 0  57.375 0.25 0  58.125 0.25 0  58.875 0.25 0  59.625 0.25 0  0.375 0.75 0  1.125 0.75 0  1.875 0.75 0  2.625 0.75 0  3.375 0.75 0  4.125 0.75 0  4.875 0.75 0  5.625 0.75 0  6.375 0.75 0  7.125 0.75 0  7.875 0.75 0  8.625 0.75 0  9.375 0.75 0  10.125 0.75 0  10.875 0.75 0  11.625 0.75 0  12.375 0.75 0  13.125 0.75 0  13.875 0.75 0  14.625 0.75 0  15.375 0.75 0  16.125 0.75 0  16.875 0.75 0  17.625 0.75 0  18.375 0.75 0  19.125 0.75 0  19.875 0.75 0  20.625 0.75 0  21.375 0.75 0  22.125 0.75 0  22.875 0.75 0  23.625 0.75 0  24.375 0.75 0  25.125 0.75 0  25.875 0.75 0  26.625 0.75 0  27.375 0.75 0  28.125 0.75 0  28.875 0.75 0  29.625 0.75 0  30.375 0.75 0  31.125 0.75 0  31.875 0.75 0  32.625 0.75 0  33.375 0.75 0  34.125 0.75 0  34.875 0.75 0  35.625 0.75 0  36.375 0.75 0  37.125 0.75 0  37.875 0.75 0  38.625 0.75 0  39.375 0.75 0  40.125 0.75 0  40
[...]
<PointData  Scalars="f_8-1"> 
<DataArray  type="Float64"  Name="f_8-1"  format="ascii">-1.8724021390671632e+00  -1.8586726020613611e+00  -1.8286106125352293e+00  -1.8075430675227917e+00  -1.7787068938474435e+00  -1.7557511966565800e+00  -1.7293555891464865e+00  -1.7059620485457940e+00  -1.6812325336329694e+00  -1.6577033864729602e+00  -1.6337971427025024e+00  -1.6102453407140163e+00  -1.5866848692197995e+00  -1.5631575910595614e+00  -1.5397356451204207e+00  -1.5162662680103827e+00  -1.4929136839697332e+00  -1.4695077867700466e+00  -1.4461907505746014e+00  -1.4228300873095812e+00  -1.3995264048314506e+00  -1.3761909559452086e+00  -1.3528892725531885e+00  -1.3295663316708393e+00  -1.3062628291289060e+00  -1.2829459691605967e+00  -1.2596402306170893e+00  -1.2363264433163970e+00  -1.2130190224227402e+00  -1.1897068724985003e+00  -1.1663983690654605e+00  -1.1430871268043734e+00  -1.1197779710500058e+00  -1.0964672426064670e+00  -1.0731577049928329e+00  -1.0498472698560819e+00  -1.0265375116609781e+00  -1.0032272442178112e+00  -9.7991735953092152e-01  -9.5660718776475351e-01  -9.3329723096163264e-01  -9.0998711354085837e-01  -8.8667711587995057e-01  -8.6336702913218077e-01  -8.4005700849557308e-01  -8.1674693892215144e-01  -7.9343690547860513e-01  -7.7012684543197119e-01  -7.4681680492022773e-01  -7.2350675010359122e-01  -7.0019670573276771e-01  -6.7688665375557078e-01  -6.5357660730155720e-01  -6.3026655684827126e-01  -6.0695650928273914e-01  -5.8364645963781414e-01  -5.6033641148611879e-01  -5.3702636226503830e-01  -5.1371631380782956e-01  -4.9040626480655725e-01  -4.6709621619216996e-01  -4.4378616730433351e-01  -4.2047611861189260e-01  -3.9716606978725044e-01  -3.7385602107126986e-01  -3.5054597232301771e-01  -3.2723592372262289e-01  -3.0392587537794902e-01  -2.8061582788936557e-01  -2.5730578279447175e-01  -2.3399574469142004e-01  -2.1068572681191647e-01  -1.8737576755984142e-01  -1.6406597806352863e-01  -1.4075667971961026e-01  -1.1744880155969557e-01  -9.4145034010701553e-02  -7.0853142129585267e-02  -4.7598605314773834e-02  -2.4423359547347777e-02  -2.9322675413871106e-03  -1.8817570685191833e+00  -1.8526857151856502e+00  -1.8326351228325450e+00  -1.8042270905201865e+00  -1.7808155580427971e+00  -1.7543707089649496e+00  -1.7302640468984463e+00  -1.7055267978395552e+00  -1.6815292629624725e+00  -1.6576477556969897e+00  -1.6338440631566560e+00  -1.6103105918016387e+00  -1.5866564641919543e+00  -1.5632415990073085e+00  -1.5396967873117049e+00  -1.5163354438896881e+00  -1.4928837368226655e+00  -1.4695581464910654e+00  -1.4461733109130535e+00  -1.4228661520308525e+00  -1.3995194954635015e+00  -1.3762175718731520e+00  -1.3528897015195545e+00  -1.3295870209279963e+00  -1.3062679143200784e+00  -1.2829630466403248e+00  -1.2596481342383821e+00  -1.2363413634019413e+00  -1.2130285930499771e+00  -1.1897205215669779e+00  -1.1664089145055692e+00  -1.1431000336302988e+00  -1.1197890831696493e+00  -1.0964797182987183e+00  -1.0731691454281844e+00  -1.0498594959345200e+00  -1.0265491419052737e+00  -1.0032393260793255e+00  -9.7992909933396510e-01  -9.5661918644088373e-01  -9.3330903390263675e-01  -9.0999906432177724e-01  -8.8668895513179447e-01  -8.6337895240574669e-01  -8.4006886856700413e-01  -8.1675884645493380e-01  -7.9344877743601905e-01  -7.7013874400254045e-01  -7.4682868362426458e-01  -7.2351864360460927e-01  -7.0020858823861254e-01  -6.7689854441160935e-01  -6.5358849193149904e-01  -6.3027844592225757e-01  -6.0696839508804445e-01  -5.8365834784086112e-01  -5.6034829793505825e-01  -5.3703824999374217e-01  -5.1372820060539415e-01  -4.9041815227978774e-01  -4.6710810317647750e-01  -4.4379805464153932e-01  -4.2048800569505979e-01  -3.9717795705246794e-01  -3.7386790820454863e-01  -3.5055785954440483e-01  -3.2724781085984017e-01  -3.0393776250430021e-01  -2.8062771479799187e-01  -2.5731766915510340e-01  -2.3400762928967814e-01  -2.1069760615435912e-01  -1.8738763114039372e-01  -1.6407779484959006e-01  -1.4076835817316530e-01  -1.1746007196767425e-01  -9.4155092097803858e-02  -7.0859605178824128e-02  -4.7590292079463463e-02  -2.4417901998116047e-02  -1.5481345911565238e-04  -1.8736504174234341e+00  -1.8563768835045504e+00  -1.8275272812793986e+00  -1.8059842637816237e+00  -1.7792032153584236e+00  -1.7549375742480287e+00  -1.7302040090984554e+00  -1.7055075180191059e+00  -1.6818644370170528e+00  -1.6574384697517723e+00  -1.6341737739060376e+00  -1.6100944194824127e+00  -1.5868945958818386e+00  -1.5630774316008362e+00  -1.5398491193565975e+00  -1.5162216426694057e+00  -1.4929711910744730e+00  -1.4694796888081636e+00  -1.4462181016427424e+00  -1.4228113825907942e+00  -1.3995388911737734e+00  -1.3761783561292227e+00  -1.3528945756583770e+00  -1.3295576233754733e+00  -1.3062645049520452e+00  -1.2829396268668913e+00  -1.2596399572921433e+00  -1.2363215025265242e+00  -1.2130176504513503e+00  -1.1897027562517779e+00  -1.1663963605421435e+00  -1.1430834962728145e+00  -1.1197755888377969e+00  -1.0964638988261048e+00  -1.0731551022783903e+00  -1.0498440955661772e+00  -1.0265347785858590e+00  -1.0032241702263773e+00  -9.7991454923187060e-01  -9.5660417328852321e-01  -9.3329437473798571e-01  -9.0998413455533933e-01  -8.8667423218391750e-01  -8.6336407144812677e-01  -8.4005410825675875e-01  -8.1674399410267928e-01  -7.9343399522553604e-01  -7.7012390841234901e-01  -7.4681388859170628e-01  -7.2350381781398976e-01  -7.0019378572545077e-01  -6.7688372432277322e-01  -6.5357368508023761e-01  -6.3026362912711786e-01  -6.0695358574187386e-01  -5.8364353293076010e-01  -5.6033348716855402e-01  -5.3702343615078785e-01  -5.1371338903960762e-01  -4.9040333903380845e-01  -4.6709329116662240e-01  -4.4378324172555700e-01  -4.2047319344191764e-01  -3.9716314431614597e-01  -3.7385309581555098e-01  -3.5054304688431870e-01  -3.2723299831706987e-01  -3.0392294959323407e-01  -2.8061290118471471e-01  -2.5730285287356730e-01  -2.3399280477728240e-01  -2.1068275571037021e-01  -1.8737270081997284e-01  -1.6406262065248406e-01  -1.4075244620913904e-01  -1.1744194292478280e-01  -9.4130326258767300e-02  -7.0814811520630558e-02  -4.7483375616665824e-02  -2.4031577098659974e-02  -3.7390122937708725e-05  -1.8715318205491838e+00  -1.8577850225665962e+00  -1.8248896960912224e+00  -1.8078334015942388e+00  -1.7771176596459288e+00  -1.7568453050271937e+00  -1.7287369568218167e+00  -1.7069641732114844e+00  -1.6808570254943265e+00  -1.6583907230424015e+00  -1.6335036747139182e+00  -1.6106673507464342e+00  -1.5864604783332830e+00  -1.5634073731357236e+00  -1.5395739969556212e+00  -1.5164038945298461e+00  -1.4927933092391128e+00  -1.4695705742329308e+00  -1.4460961081477730e+00  -1.4228467913431568e+00  -1.3994495756354486e+00  -1.3761814873394638e+00  -1.3528250309934158e+00  -1.3295424523318917e+00  -1.3062070230841216e+00  -1.2829141009463818e+00  -1.2595897614312357e+00  -1.2362900606932228e+00  -1.2129717999183747e+00  -1.1896678974760733e+00  -1.1663530787176846e+00  -1.1430466492742726e+00  -1.1197338176735701e+00  -1.0964258909887761e+00  -1.0731142166730396e+00  -1.0498054095355438e+00  -1.0264944109070226e+00  -1.0031850881851603e+00  -9.7987448404774202e-01  -9.5656486007101760e-01  -9.3325448621025542e-01  -9.0994468627590563e-01  -8.8663444695871951e-01  -8.6332454410818205e-01  -8.4001438357384894e-01  -8.1670442037479307e-01  -7.9339430610052664e-01  -7.7008430742150380e-01  -7.4677422036941910e-01  -7.2346420080187834e-01  -7.0015412977503155e-01  -6.7684409792003053e-01  -6.5353403630608298e-01  -6.3022399724946010e-01  -6.0691394113637420e-01  -5.8360389788622569e-01  -5.6029384496289425e-01  -5.3698379929265516e-01  -5.1367374820060285e-01  -4.9036370114910693e-01  -4.6705365109660096e-01  -4.4374360326721557e-01  -4.2043355379909086e-01  -3.9712350554049675e-01  -3.7381345640115571e-01  -3.5050340791110596e-01  -3.2719335893214807e-01  -3.0388331018335130e-01  -2.8057326070550803e-01  -2.5726320961733223e-01  -2.3395315220782006e-01  -2.1064307437833568e-01  -1.8733293049392910e-01  -1.6402257877216161e-01  -1.4071158234463341e-01  -1.1739861120227726e-01  -9.4079650340106791e-02  -7.0742659745133982e-02  -4.7351709817793755e-02  -2.3808958997924911e-02  -4.8795683086964701e-05  -1.8854580028811780e+00  -1.8466293439090053e+00  -1.8348898106502660e+00  -1.7995181046819435e+00  -1.7834838499968344e+00  -1.7520365970834595e+00  -1.7323520870113207e+00  -1.7043603687621625e+00  -1.6828201868895338e+00  -1.6569874176336767e+00  -1.6345614194381091e+00  -1.6098970879695624e+00  -1.5870354615569904e+00  -1.5629743369776281e+00  -1.5398919908528592e+00  -1.5161549761418409e+00  -1.4929705181860933e+00  -1.4694228083254761e+00  -1.4461931173607054e+00  -1.4227553304118861e+00  -1.3995002318121259e+00  -1.3761222815966569e+00  -1.3528489466873761e+00  -1.3295021756839225e+00  -1.3062155271553977e+00  -1.2828850380180448e+00  -1.2595893487496401e+00  -1.2362676394826062e+00  -1.2129661992197858e+00  -1.1896493985166752e+00  -1.1663444458804400e+00  -1.1430304602913119e+00  -1.1197234086848453e+00  -1.0964110592518859e+00  -1.0731027671534403e+00  -1.0497913733782291e+00  -1.0264823525762754e+00  -1.0031715173508289e+00  -9.7986207001289927e-01  -9.5655156103370642e-01  -9.3324186445035451e-01  -9.0993154602429094e-01  -8.8662170376084992e-01  -8.6331149678619357e-01  -8.4000156921058899e-01  -8.1669142759045321e-01  -7.9338144991442083e-01  -7.7007134672592004e-01  -7.4676133955593116e-01  -7.2345125900727725e-01  -7.0014123446021514e-01  -6.7683116724356907e-01  -6.5352113247603261e-01  -6.3021107308543245e-01  -6.0690103233443138e-01  -5.8359097751005051e-01  -5.6028093328199691e-01  -5.3697088109891766e-01  -5.1366083486999947e-01  -4.9035078419868522e-01  -4.6704073683199188e-01  -4.4373068701633478e-01  -4.2042063901244697e-01  -3.9711058967749185e-01  -3.7380054132398000e-01  -3.5049049224946072e-01  -3.2718044365606475e-01  -3.0387039448897568e-01  -2.8056034485149084e-01  -2.5725029237983654e-01  -2.3394023120708382e-01  -2.1063014120981963e-01  -1.8731996016709257e-01  -1.6400949494676162e-01  -1.4069815563238441e-01  -1.1738415662249729e-01  -9.4062153864959100e-02  -7.0716511414849997e-02  -4.7304839526084795e-02  -2.3749491924271518e-02  -4.1863405274844678e-05  -1.8715318205501659e+00  -1.8577850225655730e+00  -1.8248896960916750e+00  -1.8078334015935706e+00  -1.7771176596462495e+00  -1.7568453050267931e+00  -1.7287369568219793e+00  -1.7069641732112959e+00  -1.6808570254943969e+00  -1.6583907230423220e+00  -1.6335036747139553e+00  -1.6106673507464002e+00  -1.5864604783332945e+00  -1.5634073731357108e+00  -1.5395739969556317e+00  -1.5164038945298475e+00  -1.4927933092391024e+00  -1.4695705742329424e+00  -1.4460961081477801e+00  -1.4228467913431535e+00  -1.3994495756354539e+00  -1.3761814873394573e+00  -1.3528250309934096e+00  -1.3295424523318977e+00  -1.3062070230841187e+00  -1.2829141009463771e+00  -1.2595897614312397e+00  -1.2362900606932183e+00  -1.2129717999183718e+00  -1.1896678974760690e+00  -1.1663530787176868e+00  -1.1430466492742777e+00  -1.1197338176735752e+00  -1.0964258909887554e+00  -1.0731142166730456e+00  -1.0498054095355380e+00  -1.0264944109070273e+00  -1.0031850881851638e+00  -9.7987448404774213e-01  -9.5656486007101582e-01  -9.3325448621025808e-01  -9.0994468627590697e-01  -8.8663444695873095e-01  -8.6332454410818038e-01  -8.4001438357384828e-01  -8.1670442037479851e-01  -7.9339430610052031e-01  -7.7008430742151734e-01  -7.4677422036940666e-01  -7.2346420080188911e-01  -7.0015412977502578e-01  -6.7684409792003775e-01  -6.5353403630607831e-01  -6.3022399724946832e-01  -6.0691394113637631e-01  -5.8360389788621592e-01  -5.6029384496289969e-01  -5.3698379929266193e-01  -5.1367374820060496e-01  -4.9036370114910949e-01  -4.6705365109659924e-01  -4.4374360326722273e-01  -4.2043355379908359e-01  -3.9712350554049747e-01  -3.7381345640115982e-01  -3.5050340791110790e-01  -3.2719335893215179e-01  -3.0388331018336046e-01  -2.8057326070550365e-01  -2.5726320961732868e-01  -2.3395315220782967e-01  -2.1064307437832494e-01  -1.8733293049393138e-01  -1.6402257877216184e-01  -1.4071158234463058e-01  -1.1739861120228043e-01  -9.4079650340108192e-02  -7.0742659745134218e-02  -4.7351709817791895e-02  -2.3808958997919159e-02  -4.8795683095625945e-05  -1.8736504174212427e+00  -1.8563768835058427e+00  -1.8275272812778098e+00  -1.8059842637824224e+00  -1.7792032153574984e+00  -1.7549375742483417e+00  -1.7302040090980182e+00  -1.7055075180192336e+00  -1.6818644370168634e+00  -1.6574384697518336e+00  -1.6341737739059701e+00  -1.6100944194824425e+00  -1.5868945958818026e+00  -1.5630774316008480e+00  -1.5398491193565877e+00  -1.5162216426694197e+00  -1.4929711910744696e+00  -1.4694796888081738e+00  -1.4462181016427418e+00  -1.4228113825908031e+00  -1.3995388911737690e+00  -1.3761783561292278e+00  -1.3528945756583712e+00  -1.3295576233754836e+00  -1.3062645049520425e+00  -1.2829396268668896e+00  -1.2596399572921424e+00  -1.2363215025265246e+00  -1.2130176504513479e+00  -1.1897027562517786e+00  -1.1663963605421463e+00  -1.1430834962728171e+00  -1.1197755888378016e+00  -1.0964638988261024e+00  -1.0731551022783810e+00  -1.0498440955661776e+00  -1.0265347785858605e+00  -1.0032241702263791e+00  -9.7991454923187127e-01  -9.5660417328852809e-01  -9.3329437473799015e-01  -9.0998413455534854e-01  -8.8667423218392016e-01  -8.6336407144813165e-01  -8.4005410825675364e-01  -8.1674399410268683e-01  -7.9343399522553293e-01  -7.7012390841235057e-01  -7.4681388859170694e-01  -7.2350381781399031e-01  -7.0019378572544699e-01  -6.7688372432277166e-01  -6.5357368508023672e-01  -6.3026362912711675e-01  -6.0695358574186964e-01  -5.8364353293076077e-01  -5.6033348716855724e-01  -5.3702343615079162e-01  -5.1371338903961994e-01  -4.9040333903380506e-01  -4.6709329116662718e-01  -4.4378324172555988e-01  -4.2047319344191852e-01  -3.9716314431614785e-01  -3.7385309581555415e-01  -3.5054304688431459e-01  -3.2723299831706831e-01  -3.0392294959324695e-01  -2.8061290118471105e-01  -2.5730285287357463e-01  -2.3399280477728246e-01  -2.1068275571037837e-01  -1.8737270081997218e-01  -1.6406262065248500e-01  -1.4075244620913854e-01  -1.1744194292478742e-01  -9.4130326258761957e-02  -7.0814811520632237e-02  -4.7483375616665727e-02  -2.4031577098659791e-02  -3.7390122934633040e-05  -1.8817570685204816e+00  -1.8526857151850937e+00  -1.8326351228331839e+00  -1.8042270905195881e+00  -1.7808155580428460e+00  -1.7543707089645399e+00  -1.7302640468984252e+00  -1.7055267978393578e+00  -1.6815292629624699e+00  -1.6576477556969123e+00  -1.6338440631566653e+00  -1.6103105918016138e+00  -1.5866564641919538e+00  -1.5632415990072988e+00  -1.5396967873117109e+00  -1.5163354438896914e+00  -1.4928837368226786e+00  -1.4695581464910707e+00  -1.4461733109130572e+00  -1.4228661520308501e+00  -1.3995194954635073e+00  -1.3762175718731553e+00  -1.3528897015195585e+00  -1.3295870209280021e+00  -1.3062679143200797e+00  -1.2829630466403246e+00  -1.2596481342383847e+00  -1.2363413634019347e+00  -1.2130285930499780e+00  -1.1897205215669799e+00  -1.1664089145055734e+00  -1.1431000336302981e+00  -1.1197890831696562e+00  -1.0964797182987198e+00  -1.0731691454281831e+00  -1.0498594959345247e+00  -1.0265491419052721e+00  -1.0032393260793304e+00  -9.7992909933396721e-01  -9.5661918644087929e-01  -9.3330903390265130e-01  -9.0999906432178113e-01  -8.8668895513180002e-01  -8.6337895240574658e-01  -8.4006886856700647e-01  -8.1675884645493491e-01  -7.9344877743602216e-01  -7.7013874400253923e-01  -7.4682868362426669e-01  -7.2351864360460771e-01  -7.0020858823860510e-01  -6.7689854441161157e-01  -6.5358849193149449e-01  -6.3027844592225502e-01  -6.0696839508803935e-01  -5.8365834784086312e-01  -5.6034829793506502e-01  -5.3703824999374905e-01  -5.1372820060540236e-01  -4.9041815227978702e-01  -4.6710810317648505e-01  -4.4379805464153649e-01  -4.2048800569506828e-01  -3.9717795705247505e-01  -3.7386790820454513e-01  -3.5055785954440477e-01  -3.2724781085984161e-01  -3.0393776250430449e-01  -2.8062771479799226e-01  -2.5731766915510540e-01  -2.3400762928968416e-01  -2.1069760615435834e-01  -1.8738763114040424e-01  -1.6407779484958535e-01  -1.4076835817316727e-01  -1.1746007196766814e-01  -9.4155092097803317e-02  -7.0859605178820825e-02  -4.7590292079471269e-02  -2.4417901998115547e-02  -1.5481345911479499e-04  -1.8724021390662895e+00  -1.8586726020620399e+00  -1.8286106125350750e+00  -1.8075430675228563e+00  -1.7787068938470378e+00  -1.7557511966564887e+00  -1.7293555891462391e+00  -1.7059620485457396e+00  -1.6812325336328657e+00  -1.6577033864729513e+00  -1.6337971427024667e+00  -1.6102453407140191e+00  -1.5866848692197832e+00  -1.5631575910595614e+00  -1.5397356451204203e+00  -1.5162662680103920e+00  -1.4929136839697412e+00  -1.4695077867700561e+00  -1.4461907505746057e+00  -1.4228300873095789e+00  -1.3995264048314542e+00  -1.3761909559452126e+00  -1.3528892725531922e+00  -1.3295663316708461e+00  -1.3062628291289067e+00  -1.2829459691605976e+00  -1.2596402306170880e+00  -1.2363264433163978e+00  -1.2130190224227340e+00  -1.1897068724985045e+00  -1.1663983690654653e+00  -1.1430871268043767e+00  -1.1197779710500122e+00  -1.0964672426064717e+00  -1.0731577049928318e+00  -1.0498472698560857e+00  -1.0265375116609770e+00  -1.0032272442178163e+00  -9.7991735953092296e-01  -9.5660718776475251e-01  -9.3329723096164430e-01  -9.0998711354086348e-01  -8.8667711587995401e-01  -8.6336702913218133e-01  -8.4005700849557641e-01  -8.1674693892215211e-01  -7.9343690547860879e-01  -7.7012684543197096e-01  -7.4681680492022784e-01  -7.2350675010358856e-01  -7.0019670573276294e-01  -6.7688665375557078e-01  -6.5357660730155431e-01  -6.3026655684826827e-01  -6.0695650928273459e-01  -5.8364645963781669e-01  -5.6033641148612501e-01  -5.3702636226504585e-01  -5.1371631380783744e-01  -4.9040626480655658e-01  -4.6709621619217684e-01  -4.4378616730433323e-01  -4.2047611861189826e-01  -3.9716606978725771e-01  -3.7385602107126886e-01  -3.5054597232301649e-01  -3.2723592372262483e-01  -3.0392587537795135e-01  -2.8061582788936984e-01  -2.5730578279447114e-01  -2.3399574469142476e-01  -2.1068572681191841e-01  -1.8737576755984744e-01  -1.6406597806352882e-01  -1.4075667971960548e-01  -1.1744880155969352e-01  -9.4145034010698070e-02  -7.0853142129583560e-02  -4.7598605314778268e-02  -2.4423359547348759e-02  -2.9322675413891654e-03  -1.8659569883813578e+00  -1.8438429870698574e+00  -1.8176065579943754e+00  -1.7932473965116011e+00  -1.7671394087363061e+00  -1.7425275214698885e+00  -1.7176685096067621e+00  -1.6935138481154295e+00  -1.6694726427589570e+00  -1.6456581663775351e+00  -1.6220024647704834e+00  -1.5983793762679521e+00  -1.5748829521336987e+00  -1.5513672271467123e+00  -1.5279492037647202e+00  -1.5045146052757197e+00  -1.4811510707397606e+00  -1.4577765699839547e+00  -1.4344466443598485e+00  -1.4111073487287518e+00  -1.3877928548081060e+00  -1.3644703572356278e+00  -1.3411609312690262e+00  -1.3178455040894843e+00  -1.2945369725907743e+00  -1.2712244180880972e+00  -1.2479156037163079e+00  -1.2246042779599855e+00  -1.2012950406540801e+00  -1.1779842966069003e+00  -1.1546747415080016e+00  -1.1313643003483149e+00  -1.1080545428189918e+00  -1.0847442690397873e+00  -1.0614343900284344e+00  -1.0381242114356635e+00  -1.0148142611515676e+00  -9.9150413733980569e-01  -9.6819414557585026e-01  -9.4488405344376258e-01  -9.2157403759777479e-01  -8.9826396382169327e-01  -8.7495393400540833e-01  -8.5164387086815940e-01  -8.2833383295671092e-01  -8.0502377597680286e-01  -7.8171373338655437e-01  -7.5840367995820801e-01  -7.3509363467587430e-01  -7.1178358328483216e-01  -6.8847353646362508e-01  -6.6516348623251742e-01  -6.4185343853901866e-01  -6.1854338896226058e-01  -5.9523334077919499e-01  -5.7192329156768229e-01  -5.4861324311285131e-01  -5.2530319410286652e-01  -5.0199314549886120e-01  -4.7868309659858532e-01  -4.5537304791339844e-01  -4.3206299907166573e-01  -4.0875295034245246e-01  -3.8544290153258715e-01  -3.6213285278760871e-01  -3.3882280402898690e-01  -3.1551275540525703e-01  -2.9220270711