<?xml version="1.0"?>
<VTKFile type="UnstructuredGrid"  version="0.1"  >
<UnstructuredGrid>
<Piece  NumberOfPoints="1369" NumberOfCells="2560">
<Points>
<DataArray  type="Float64"  NumberOfComponents="3"  format="ascii">0 0 0  0.75 0 0  1.5 0 0  2.25 0 0  3 0 0  3.75 0 0  4.5 0 0  5.25 0 0  6 0 0  6.75 0 0  7.5 0 0  8.25 0 0  9 0 0  9.75 0 0  10.5 0 0  11.25 0 0  12 0 0  12.75 0 0  13.5 0 0  14.25 0 0  15 0 0  15.75 0 0  16.5 0 0  17.25 0 0  18 0 0  18.75 0 0  19.5 0 0  20.25 0 0  21 0 0  21.75 0 0  22.5 0 0  23.25 0 0  24 0 0  24.75 0 0  25.5 0 0  26.25 0 0  27 0 0  27.75 0 0  28.5 0 0  29.25 0 0  30 0 0  30.75 0 0  31.5 0 0  32.25 0 0  33 0 0  33.75 0 0  34.5 0 0  35.25 0 0  36 0 0  36.75 0 0  37.5 0 0  38.25 0 0  39 0 0  39.75 0 0  40.5 0 0  41.25 0 0  42 0 0  42.75 0 0  43.5 0 0  44.25 0 0  45 0 0  45.75 0 0  46.5 0 0  47.25 0 0  48 0 0  48.75 0 0  49.5 0 0  50.25 0 0  51 0 0  51.75 0 0  52.5 0 0  53.25 0 0  54 0 0  54.75 0 0  55.5 0 0  56.25 0 0  57 0 0  57.75 0 0  58.5 0 0  59.25 0 0  60 0 0  0 0.5 0  0.75 0.5 0  1.5 0.5 0  2.25 0.5 0  3 0.5 0  3.75 0.5 0  4.5 0.5 0  5.25 0.5 0  6 0.5 0  6.75 0.5 0  7.5 0.5 0  8.25 0.5 0  9 0.5 0  9.75 0.5 0  10.5 0.5 0  11.25 0.5 0  12 0.5 0  12.75 0.5 0  13.5 0.5 0  14.25 0.5 0  15 0.5 0  15.75 0.5 0  16.5 0.5 0  17.25 0.5 0  18 0.5 0  18.75 0.5 0  19.5 0.5 0  20.25 0.5 0  21 0.5 0  21.75 0.5 0  22.5 0.5 0  23.25 0.5 0  24 0.5 0  24.75 0.5 0  25.5 0.5 0  26.25 0.5 0  27 0.5 0  27.75 0.5 0  28.5 0.5 0  29.25 0.5 0  30 0.5 0  30.75 0.5 0  31.5 0.5 0  32.25 0.5 0  33 0.5 0  33.75 0.5 0  34.5 0.5 0  35.25 0.5 0  36 0.5 0  36.75 0.5 0  37.5 0.5 0  38.25 0.5 0  39 0.5 0  39.75 0.5 0  40.5 0.5 0  41.25 0.5 0  42 0.5 0  42.75 0.5 0  43.5 0.5 0  44.25 0.5 0  45 0.5 0  45.75 0.5 0  46.5 0.5 0  47.25 0.5 0  48 0.5 0  48.75 0.5 0  49.5 0.5 0  50.25 0.5 0  51 0.5 0  51.75 0.5 0  52.5 0.5 0  53.25 0.5 0  54 0.5 0  54.75 0.5 0  55.5 0.5 0  56.25 0.5 0  57 0.5 0  57.75 0.5 0  58.5 0.5 0  59.25 0.5 0  60 0.5 0  0 1 0  0.75 1 0  1.5 1 0  2.25 1 0  3 1 0  3.75 1 0  4.5 1 0  5.25 1 0  6 1 0  6.75 1 0  7.5 1 0  8.25 1 0  9 1 0  9.75 1 0  10.5 1 0  11.25 1 0  12 1 0  12.75 1 0  13.5 1 0  14.25 1 0  15 1 0  15.75 1 0  16.5 1 0  17.25 1 0  18 1 0  18.75 1 0  19.5 1 0  20.25 1 0  21 1 0  21.75 1 0  22.5 1 0  23.25 1 0  24 1 0  24.75 1 0  25.5 1 0  26.25 1 0  27 1 0  27.75 1 0  28.5 1 0  29.25 1 0  30 1 0  30.75 1 0  31.5 1 0  32.25 1 0  33 1 0  33.75 1 0  34.5 1 0  35.25 1 0  36 1 0  36.75 1 0  37.5 1 0  38.25 1 0  39 1 0  39.75 1 0  40.5 1 0  41.25 1 0  42 1 0  42.75 1 0  43.5 1 0  44.25 1 0  45 1 0  45.75 1 0  46.5 1 0  47.25 1 0  48 1 0  48.75 1 0  49.5 1 0  50.25 1 0  51 1 0  51.75 1 0  52.5 1 0  53.25 1 0  54 1 0  54.75 1 0  55.5 1 0  56.25 1 0  57 1 0  57.75 1 0  58.5 1 0  59.25 1 0  60 1 0  0 1.5 0  0.75 1.5 0  1.5 1.5 0  2.25 1.5 0  3 1.5 0  3.75 1.5 0  4.5 1.5 0  5.25 1.5 0  6 1.5 0  6.75 1.5 0  7.5 1.5 0  8.25 1.5 0  9 1.5 0  9.75 1.5 0  10.5 1.5 0  11.25 1.5 0  12 1.5 0  12.75 1.5 0  13.5 1.5 0  14.25 1.5 0  15 1.5 0  15.75 1.5 0  16.5 1.5 0  17.25 1.5 0  18 1.5 0  18.75 1.5 0  19.5 1.5 0  20.25 1.5 0  21 1.5 0  21.75 1.5 0  22.5 1.5 0  23.25 1.5 0  24 1.5 0  24.75 1.5 0  25.5 1.5 0  26.25 1.5 0  27 1.5 0  27.75 1.5 0  28.5 1.5 0  29.25 1.5 0  30 1.5 0  30.75 1.5 0  31.5 1.5 0  32.25 1.5 0  33 1.5 0  33.75 1.5 0  34.5 1.5 0  35.25 1.5 0  36 1.5 0  36.75 1.5 0  37.5 1.5 0  38.25 1.5 0  39 1.5 0  39.75 1.5 0  40.5 1.5 0  41.25 1.5 0  42 1.5 0  42.75 1.5 0  43.5 1.5 0  44.25 1.5 0  45 1.5 0  45.75 1.5 0  46.5 1.5 0  47.25 1.5 0  48 1.5 0  48.75 1.5 0  49.5 1.5 0  50.25 1.5 0  51 1.5 0  51.75 1.5 0  52.5 1.5 0  53.25 1.5 0  54 1.5 0  54.75 1.5 0  55.5 1.5 0  56.25 1.5 0  57 1.5 0  57.75 1.5 0  58.5 1.5 0  59.25 1.5 0  60 1.5 0  0 2 0  0.75 2 0  1.5 2 0  2.25 2 0  3 2 0  3.75 2 0  4.5 2 0  5.25 2 0  6 2 0  6.75 2 0  7.5 2 0  8.25 2 0  9 2 0  9.75 2 0  10.5 2 0  11.25 2 0  12 2 0  12.75 2 0  13.5 2 0  14.25 2 0  15 2 0  15.75 2 0  16.5 2 0  17.25 2 0  18 2 0  18.75 2 0  19.5 2 0  20.25 2 0  21 2 0  21.75 2 0  22.5 2 0  23.25 2 0  24 2 0  24.75 2 0  25.5 2 0  26.25 2 0  27 2 0  27.75 2 0  28.5 2 0  29.25 2 0  30 2 0  30.75 2 0  31.5 2 0  32.25 2 0  33 2 0  33.75 2 0  34.5 2 0  35.25 2 0  36 2 0  36.75 2 0  37.5 2 0  38.25 2 0  39 2 0  39.75 2 0  40.5 2 0  41.25 2 0  42 2 0  42.75 2 0  43.5 2 0  44.25 2 0  45 2 0  45.75 2 0  46.5 2 0  47.25 2 0  48 2 0  48.75 2 0  49.5 2 0  50.25 2 0  51 2 0  51.75 2 0  52.5 2 0  53.25 2 0  54 2 0  54.75 2 0  55.5 2 0  56.25 2 0  57 2 0  57.75 2 0  58.5 2 0  59.25 2 0  60 2 0  0 2.5 0  0.75 2.5 0  1.5 2.5 0  2.25 2.5 0  3 2.5 0  3.75 2.5 0  4.5 2.5 0  5.25 2.5 0  6 2.5 0  6.75 2.5 0  7.5 2.5 0  8.25 2.5 0  9 2.5 0  9.75 2.5 0  10.5 2.5 0  11.25 2.5 0  12 2.5 0  12.75 2.5 0  13.5 2.5 0  14.25 2.5 0  15 2.5 0  15.75 2.5 0  16.5 2.5 0  17.25 2.5 0  18 2.5 0  18.75 2.5 0  19.5 2.5 0  20.25 2.5 0  21 2.5 0  21.75 2.5 0  22.5 2.5 0  23.25 2.5 0  24 2.5 0  24.75 2.5 0  25.5 2.5 0  26.25 2.5 0  27 2.5 0  27.75 2.5 0  28.5 2.5 0  29.25 2.5 0  30 2.5 0  30.75 2.5 0  31.5 2.5 0  32.25 2.5 0  33 2.5 0  33.75 2.5 0  34.5 2.5 0  35.25 2.5 0  36 2.5 0  36.75 2.5 0  37.5 2.5 0  38.25 2.5 0  39 2.5 0  39.75 2.5 0  40.5 2.5 0  41.25 2.5 0  42 2.5 0  42.75 2.5 0  43.5 2.5 0  44.25 2.5 0  45 2.5 0  45.75 2.5 0  46.5 2.5 0  47.25 2.5 0  48 2.5 0  48.75 2.5 0  49.5 2.5 0  50.25 2.5 0  51 2.5 0  51.75 2.5 0  52.5 2.5 0  53.25 2.5 0  54 2.5 0  54.75 2.5 0  55.5 2.5 0  56.25 2.5 0  57 2.5 0  57.75 2.5 0  58.5 2.5 0  59.25 2.5 0  60 2.5 0  0 3 0  0.75 3 0  1.5 3 0  2.25 3 0  3 3 0  3.75 3 0  4.5 3 0  5.25 3 0  6 3 0  6.75 3 0  7.5 3 0  8.25 3 0  9 3 0  9.75 3 0  10.5 3 0  11.25 3 0  12 3 0  12.75 3 0  13.5 3 0  14.25 3 0  15 3 0  15.75 3 0  16.5 3 0  17.25 3 0  18 3 0  18.75 3 0  19.5 3 0  20.25 3 0  21 3 0  21.75 3 0  22.5 3 0  23.25 3 0  24 3 0  24.75 3 0  25.5 3 0  26.25 3 0  27 3 0  27.75 3 0  28.5 3 0  29.25 3 0  30 3 0  30.75 3 0  31.5 3 0  32.25 3 0  33 3 0  33.75 3 0  34.5 3 0  35.25 3 0  36 3 0  36.75 3 0  37.5 3 0  38.25 3 0  39 3 0  39.75 3 0  40.5 3 0  41.25 3 0  42 3 0  42.75 3 0  43.5 3 0  44.25 3 0  45 3 0  45.75 3 0  46.5 3 0  47.25 3 0  48 3 0  48.75 3 0  49.5 3 0  50.25 3 0  51 3 0  51.75 3 0  52.5 3 0  53.25 3 0  54 3 0  54.75 3 0  55.5 3 0  56.25 3 0  57 3 0  57.75 3 0  58.5 3 0  59.25 3 0  60 3 0  0 3.5 0  0.75 3.5 0  1.5 3.5 0  2.25 3.5 0  3 3.5 0  3.75 3.5 0  4.5 3.5 0  5.25 3.5 0  6 3.5 0  6.75 3.5 0  7.5 3.5 0  8.25 3.5 0  9 3.5 0  9.75 3.5 0  10.5 3.5 0  11.25 3.5 0  12 3.5 0  12.75 3.5 0  13.5 3.5 0  14.25 3.5 0  15 3.5 0  15.75 3.5 0  16.5 3.5 0  17.25 3.5 0  18 3.5 0  18.75 3.5 0  19.5 3.5 0  20.25 3.5 0  21 3.5 0  21.75 3.5 0  22.5 3.5 0  23.25 3.5 0  24 3.5 0  24.75 3.5 0  25.5 3.5 0  26.25 3.5 0  27 3.5 0  27.75 3.5 0  28.5 3.5 0  29.25 3.5 0  30 3.5 0  30.75 3.5 0  31.5 3.5 0  32.25 3.5 0  33 3.5 0  33.75 3.5 0  34.5 3.5 0  35.25 3.5 0  36 3.5 0  36.75 3.5 0  37.5 3.5 0  38.25 3.5 0  39 3.5 0  39.75 3.5 0  40.5 3.5 0  41.25 3.5 0  42 3.5 0  42.75 3.5 0  43.5 3.5 0  44.25 3.5 0  45 3.5 0  45.75 3.5 0  46.5 3.5 0  47.25 3.5 0  48 3.5 0  48.75 3.5 0  49.5 3.5 0  50.25 3.5 0  51 3.5 0  51.75 3.5 0  52.5 3.5 0  53.25 3.5 0  54 3.5 0  54.75 3.5 0  55.5 3.5 0  56.25 3.5 0  57 3.5 0  57.75 3.5 0  58.5 3.5 0  59.25 3.5 0  60 3.5 0  0 4 0  0.75 4 0  1.5 4 0  2.25 4 0  3 4 0  3.75 4 0  4.5 4 0  5.25 4 0  6 4 0  6.75 4 0  7.5 4 0  8.25 4 0  9 4 0  9.75 4 0  10.5 4 0  11.25 4 0  12 4 0  12.75 4 0  13.5 4 0  14.25 4 0  15 4 0  15.75 4 0  16.5 4 0  17.25 4 0  18 4 0  18.75 4 0  19.5 4 0  20.25 4 0  21 4 0  21.75 4 0  22.5 4 0  23.25 4 0  24 4 0  24.75 4 0  25.5 4 0  26.25 4 0  27 4 0  27.75 4 0  28.5 4 0  29.25 4 0  30 4 0  30.75 4 0  31.5 4 0  32.25 4 0  33 4 0  33.75 4 0  34.5 4 0  35.25 4 0  36 4 0  36.75 4 0  37.5 4 0  38.25 4 0  39 4 0  39.75 4 0  40.5 4 0  41.25 4 0  42 4 0  42.75 4 0  43.5 4 0  44.25 4 0  45 4 0  45.75 4 0  46.5 4 0  47.25 4 0  48 4 0  48.75 4 0  49.5 4 0  50.25 4 0  51 4 0  51.75 4 0  52.5 4 0  53.25 4 0  54 4 0  54.75 4 0  55.5 4 0  56.25 4 0  57 4 0  57.75 4 0  58.5 4 0  59.25 4 0  60 4 0  0.375 0.25 0  1.125 0.25 0  1.875 0.25 0  2.625 0.25 0  3.375 0.25 0  4.125 0.25 0  4.875 0.25 0  5.625 0.25 0  6.375 0.25 0  7.125 0.25 0  7.875 0.25 0  8.625 0.25 0  9.375 0.25 0  10.125 0.25 0  10.875 0.25 0  11.625 0.25 0  12.375 0.25 0  13.125 0.25 0  13.875 0.25 0  14.625 0.25 0  15.375 0.25 0  16.125 0.25 0  16.875 0.25 0  17.625 0.25 0  18.375 0.25 0  19.125 0.25 0  19.875 0.25 0  20.625 0.25 0  21.375 0.25 0  22.125 0.25 0  22.875 0.25 0  23.625 0.25 0  24.375 0.25 0  25.125 0.25 0  25.875 0.25 0  26.625 0.25 0  27.375 0.25 0  28.125 0.25 0  28.875 0.25 0  29.625 0.25 0  30.375 0.25 0  31.125 0.25 0  31.875 0.25 0  32.625 0.25 0  33.375 0.25 0  34.125 0.25 0  34.875 0.25 0  35.625 0.25 0  36.375 0.25 0  37.125 0.25 0  37.875 0.25 0  38.625 0.25 0  39.375 0.25 0  40.125 0.25 0  40.875 0.25 0  41.625 0.25 0  42.375 0.25 0  43.125 0.25 0  43.875 0.25 0  44.625 0.25 0  45.375 0.25 0  46.125 0.25 0  46.875 0.25 0  47.625 0.25 0  48.375 0.25 0  49.125 0.25 0  49.875 0.25 0  50.625 0.25 0  51.375 0.25 0  52.125 0.25 0  52.875 0.25 0  53.625 0.25 0  54.375 0.25 0  55.125 0.25 0  55.875 0.25 0  56.625 0.25 0  57.375 0.25 0  58.125 0.25 0  58.875 0.25 0  59.625 0.25 0  0.375 0.75 0  1.125 0.75 0  1.875 0.75 0  2.625 0.75 0  3.375 0.75 0  4.125 0.75 0  4.875 0.75 0  5.625 0.75 0  6.375 0.75 0  7.125 0.75 0  7.875 0.75 0  8.625 0.75 0  9.375 0.75 0  10.125 0.75 0  10.875 0.75 0  11.625 0.75 0  12.375 0.75 0  13.125 0.75 0  13.875 0.75 0  14.625 0.75 0  15.375 0.75 0  16.125 0.75 0  16.875 0.75 0  17.625 0.75 0  18.375 0.75 0  19.125 0.75 0  19.875 0.75 0  20.625 0.75 0  21.375 0.75 0  22.125 0.75 0  22.875 0.75 0  23.625 0.75 0  24.375 0.75 0  25.125 0.75 0  25.875 0.75 0  26.625 0.75 0  27.375 0.75 0  28.125 0.75 0  28.875 0.75 0  29.625 0.75 0  30.375 0.75 0  31.125 0.75 0  31.875 0.75 0  32.625 0.75 0  33.375 0.75 0  34.125 0.75 0  34.875 0.75 0  35.625 0.75 0  36.375 0.75 0  37.125 0.75 0  37.875 0.75 0  38.625 0.75 0  39.375 0.75 0  40.125 0.75 0  40
[...]
<PointData  Scalars="f_8-1"> 
<DataArray  type="Float64"  Name="f_8-1"  format="ascii">-9.7059993817398063e+00  -9.5864929245225099e+00  -9.4654146442873461e+00  -9.3441947778237040e+00  -9.2229060650314079e+00  -9.1015807910907878e+00  -8.9802331830107409e+00  -8.8588726212564257e+00  -8.7375052075081587e+00  -8.6161349400210288e+00  -8.4947639567202664e+00  -8.3733934461366140e+00  -8.2520239681413834e+00  -8.1306558531309943e+00  -8.0092894654656561e+00  -7.8879253604521411e+00  -7.7665639857970641e+00  -7.6452054254571866e+00  -7.5238493421894486e+00  -7.4024951672120229e+00  -7.2811423033100091e+00  -7.1597902652905097e+00  -7.0384387148697991e+00  -6.9170874449748663e+00  -6.7957363395326373e+00  -6.6743853394984418e+00  -6.5530344166993020e+00  -6.4316835584986451e+00  -6.3103327583506807e+00  -6.1889820112482008e+00  -6.0676313116205387e+00  -5.9462806529950392e+00  -5.8249300283868957e+00  -5.7035794309342078e+00  -5.5822288544467336e+00  -5.4608782936997304e+00  -5.3395277445363734e+00  -5.2181772037791534e+00  -5.0968266690929580e+00  -4.9754761388012678e+00  -4.8541256117431741e+00  -4.7327750871387462e+00  -4.6114245645001128e+00  -4.4900740435502007e+00  -4.3687235241682689e+00  -4.2473730063367414e+00  -4.1260224901019944e+00  -4.0046719755343823e+00  -3.8833214626962258e+00  -3.7619709516113069e+00  -3.6406204422432116e+00  -3.5192699344813039e+00  -3.3979194281388705e+00  -3.2765689229617698e+00  -3.1552184186471233e+00  -3.0338679148673795e+00  -2.9125174112967529e+00  -2.7911669076341044e+00  -2.6698164036239955e+00  -2.5484658990595652e+00  -2.4271153938155483e+00  -2.3057648877517170e+00  -2.1844143810183967e+00  -2.0630638730263451e+00  -1.9417133657437915e+00  -1.8203628530570595e+00  -1.6990123544913600e+00  -1.5776618094493318e+00  -1.4563114034643176e+00  -1.3349605792036190e+00  -1.2136109707542635e+00  -1.0922579170116133e+00  -9.7091429500497362e-01  -8.4954603076130064e-01  -7.2823964229602389e-01  -6.0678956129524841e-01  -4.8566457657571632e-01  -3.6390042312017862e-01  -2.4361435469462939e-01  -1.2044245765245268e-01  -9.5190969225039310e-04  -9.7080903876033133e+00  -9.5864753374206071e+00  -9.4653749157111395e+00  -9.3441422583882261e+00  -9.2228543787243620e+00  -9.1015323452046477e+00  -8.9801876866101296e+00  -8.8588289945705654e+00  -8.7374626084562266e+00  -8.6160928037709894e+00  -8.4947220078025758e+00  -8.3733515225654287e+00  -8.2519820313931636e+00  -8.1306138495176636e+00  -8.0092472553024159e+00  -7.8878827694456204e+00  -7.7665209371471882e+00  -7.6451619628567773e+00  -7.5238055812839724e+00  -7.4024512256878099e+00  -7.2810982684804273e+00  -7.1597461879417184e+00  -7.0383946202410108e+00  -6.9170433431738516e+00  -6.7956922337630630e+00  -6.6743412299045293e+00  -6.5529903025485057e+00  -6.4316394389947860e+00  -6.3102886331141983e+00  -6.1889378804017134e+00  -6.0675871757224016e+00  -5.9462365128640027e+00  -5.8248858849138534e+00  -5.7035352849536274e+00  -5.5821847066539343e+00  -5.4608341446395183e+00  -5.3394835946078052e+00  -5.2181330532700905e+00  -5.0967825182021196e+00  -4.9754319876664557e+00  -4.8540814604530444e+00  -4.7327309357473144e+00  -4.6113804130315605e+00  -4.4900298920072412e+00  -4.3686793725356807e+00  -4.2473288545876997e+00  -4.1259783382020885e+00  -4.0046278234476800e+00  -3.8832773103902096e+00  -3.7619267990624357e+00  -3.6405762894407454e+00  -3.5192257814297445e+00  -3.3978752748578551e+00  -3.2765247694840123e+00  -3.1551742650145078e+00  -3.0338237611265075e+00  -2.9124732574939851e+00  -2.7911227538128363e+00  -2.6697722498180685e+00  -2.5484217453045157e+00  -2.4270712401062950e+00  -2.3057207341804804e+00  -2.1843702273298544e+00  -2.0630197200539402e+00  -1.9416692108445595e+00  -1.8203187044721907e+00  -1.6989681868419833e+00  -1.5776176994374242e+00  -1.4562671240399561e+00  -1.3349167864032327e+00  -1.2135658229202648e+00  -1.0922164125932430e+00  -9.7086339195276405e-01  -8.4951818490896558e-01  -7.2815819726666764e-01  -6.0682444987903872e-01  -4.8545996982804845e-01  -3.6414505627776944e-01  -2.4291226382553793e-01  -1.2120475643139175e-01  2.7373322085178886e-04  -9.7081313764086499e+00  -9.5866807278907409e+00  -9.4653888771707244e+00  -9.3441191702406297e+00  -9.2228238618729517e+00  -9.1015005944845164e+00  -8.9801551316088055e+00  -8.8587952683814226e+00  -8.7374277627283110e+00  -8.6160571449659269e+00  -8.4946858491147488e+00  -8.3733150158263427e+00  -8.2519453535069065e+00  -8.1305769928333156e+00  -8.0092099451435423e+00  -7.8878447841993919e+00  -7.7664823509405503e+00  -7.6451230543006341e+00  -7.5237666272860926e+00  -7.4024123854863371e+00  -7.2810595847808326e+00  -7.1597076376311266e+00  -7.0383561606048870e+00  -6.9170049362324102e+00  -6.7956538530685631e+00  -6.6743028594258149e+00  -6.5529519334677921e+00  -6.4316010672131911e+00  -6.3102502573869499e+00  -6.1888995011515409e+00  -6.0675487940633328e+00  -5.9461981300234825e+00  -5.8248475018537613e+00  -5.7034969022896060e+00  -5.5821463246675513e+00  -5.4607957633944730e+00  -5.3394452140366528e+00  -5.2180946732608851e+00  -5.0967441386329977e+00  -4.9753936084296173e+00  -4.8540430814518416e+00  -4.7326925568967289e+00  -4.6113420342518081e+00  -4.4899915132244690e+00  -4.3686409936806028e+00  -4.2472904755984402e+00  -4.1259399590262991e+00  -4.0045894440469016e+00  -3.8832389307435711e+00  -3.7618884191698054e+00  -3.6405379093231369e+00  -3.5191874011269704e+00  -3.3978368944231083e+00  -3.2764863889768900e+00  -3.1551358844935731e+00  -3.0337853806430100e+00  -2.9124348770878412e+00  -2.7910843735098814e+00  -2.6697338696331023e+00  -2.5483833652339976e+00  -2.4270328601606974e+00  -2.3056823542918505e+00  -2.1843318476588021e+00  -2.0629813400347947e+00  -1.9416308321593094e+00  -1.8202803219814334e+00  -1.6989298157622064e+00  -1.5775792957876580e+00  -1.4562288114825859e+00  -1.3348782296776502e+00  -1.2135278935726608e+00  -1.0921769534363928e+00  -9.7082739034687349e-01  -8.4947482802232399e-01  -7.2812827701866711e-01  -6.0677031461970954e-01  -4.8543268039941406e-01  -3.6405339227016642e-01  -2.4275884812441925e-01  -1.2124265806192276e-01  -6.9263176935784144e-05  -9.7081893581394603e+00  -9.5867621370108029e+00  -9.4654374559140741e+00  -9.3441429243378238e+00  -9.2228398503482705e+00  -9.1015156669216388e+00  -8.9801713431759307e+00  -8.8588129147929529e+00  -8.7374464476798810e+00  -8.6160764738255100e+00  -8.4947055233260631e+00  -8.3733348576483326e+00  -8.2519652312362091e+00  -8.1305968900205379e+00  -8.0092298462288518e+00  -7.8878646181587753e+00  -7.7665020189034859e+00  -7.6451425063415686e+00  -7.5237858759225222e+00  -7.4024314834276854e+00  -7.2810785889628535e+00  -7.1597265921323805e+00  -7.0383750918519254e+00  -6.9170238578953160e+00  -6.7956727708601674e+00  -6.6743217753523112e+00  -6.5529708477732092e+00  -6.4316199796029698e+00  -6.3102691674428302e+00  -6.1889184086351472e+00  -6.0675676989617084e+00  -5.9462170325505381e+00  -5.8248664023610806e+00  -5.7035158011843823e+00  -5.5821652223405378e+00  -5.4608146601794294e+00  -5.3394641101975315e+00  -5.2181135689933900e+00  -5.0967630340784167e+00  -4.9754125036861971e+00  -4.8540619765876869e+00  -4.7327114519563125e+00  -4.6113609292626654e+00  -4.4900104081999386e+00  -4.3686598886235393e+00  -4.2473093705031815e+00  -4.1259588538813032e+00  -4.0046083388367384e+00  -3.8832578254515209e+00  -3.7619073137801684e+00  -3.6405568038237330e+00  -3.5192062955111370e+00  -3.3978557886910634e+00  -3.2765052831358905e+00  -3.1551547785572582e+00  -3.0338042746297691e+00  -2.9124537710186624e+00  -2.7911032674065668e+00  -2.6697527635151856e+00  -2.5484022591211146e+00  -2.4270517540596628e+00  -2.3057012482349872e+00  -2.1843507415825369e+00  -2.0630002341580402e+00  -1.9416497258276251e+00  -1.8202992171434909e+00  -1.6989487067309810e+00  -1.5775981986597398e+00  -1.4562476817755554e+00  -1.3348971850133613e+00  -1.2135466313044934e+00  -1.0921962014147333e+00  -9.7084543636239740e-01  -8.4949528080894354e-01  -7.2814339861427502e-01  -6.0679370950297917e-01  -4.8543579886765376e-01  -3.6408543446901681e-01  -2.4271478074621594e-01  -1.2138246551947453e-01  2.8927286720679428e-05  -9.7081947828407404e+00  -9.5867934203840299e+00  -9.4654579439745969e+00  -9.3441551280758208e+00  -9.2228490384004882e+00  -9.1015247575283276e+00  -8.9801815830415617e+00  -8.8588243412973480e+00  -8.7374588205929857e+00  -8.6160893749675118e+00  -8.4947187134295685e+00  -8.3733482002862321e+00  -8.2519786384057099e+00  -8.1306103082324572e+00  -8.0092433657212379e+00  -7.8878782808351904e+00  -7.7665157586154239e+00  -7.6451561955476190e+00  -7.5237994325746440e+00  -7.4024448884611678e+00  -7.2810918712450929e+00  -7.1597397913629797e+00  -7.0383882432880549e+00  -6.9170369841098465e+00  -6.7956858853559385e+00  -6.6743348846341650e+00  -6.5529839550936737e+00  -6.4316330859763875e+00  -6.3102822731010111e+00  -6.1889315132586384e+00  -6.0675808022714310e+00  -5.9462301343213317e+00  -5.8248795025945315e+00  -5.7035288999985250e+00  -5.5821783199646244e+00  -5.4608277568537895e+00  -5.3394772061574063e+00  -5.2181266644293895e+00  -5.0967761291436924e+00  -4.9754255984930191e+00  -4.8540750712209180e+00  -4.7327245464775061e+00  -4.6113740237179055e+00  -4.4900235026220372e+00  -4.3686729830353794e+00  -4.2473224649187493e+00  -4.1259719483071864e+00  -4.0046214332727699e+00  -3.8832709198914799e+00  -3.7619204082129034e+00  -3.6405698982347330e+00  -3.5192193898846909e+00  -3.3978688830126194e+00  -3.2765183773943356e+00  -3.1551678727464338e+00  -3.0338173687491210e+00  -2.9124668650729482e+00  -2.7911163614047583e+00  -2.6697658574692835e+00  -2.5484153530435041e+00  -2.4270648479650592e+00  -2.3057143421287396e+00  -2.1843638354927810e+00  -2.0630133280347889e+00  -1.9416628198446952e+00  -1.8203123108052448e+00  -1.6989618014477721e+00  -1.5776112904551622e+00  -1.4562607812585309e+00  -1.3349102638118642e+00  -1.2135597596733345e+00  -1.0922092025586865e+00  -9.7085870733193325e-01  -8.4950788263386756e-01  -7.2815718215101111e-01  -6.0680452481038183e-01  -4.8545139730013054e-01  -3.6409121522646443e-01  -2.4274327758525852e-01  -1.2137051017600406e-01  -1.6611445785126672e-05  -9.7081893581394709e+00  -9.5867621370108189e+00  -9.4654374559140795e+00  -9.3441429243378398e+00  -9.2228398503482669e+00  -9.1015156669216264e+00  -8.9801713431759111e+00  -8.8588129147929386e+00  -8.7374464476798739e+00  -8.6160764738254940e+00  -8.4947055233260667e+00  -8.3733348576483273e+00  -8.2519652312362055e+00  -8.1305968900205094e+00  -8.0092298462288483e+00  -7.8878646181587779e+00  -7.7665020189034806e+00  -7.6451425063415828e+00  -7.5237858759225178e+00  -7.4024314834276677e+00  -7.2810785889628455e+00  -7.1597265921323734e+00  -7.0383750918519157e+00  -6.9170238578953098e+00  -6.7956727708601647e+00  -6.6743217753523183e+00  -6.5529708477732118e+00  -6.4316199796029832e+00  -6.3102691674428337e+00  -6.1889184086351445e+00  -6.0675676989617040e+00  -5.9462170325505337e+00  -5.8248664023610743e+00  -5.7035158011843823e+00  -5.5821652223405387e+00  -5.4608146601794507e+00  -5.3394641101975155e+00  -5.2181135689933864e+00  -5.0967630340784185e+00  -4.9754125036861963e+00  -4.8540619765876754e+00  -4.7327114519563143e+00  -4.6113609292626778e+00  -4.4900104081999483e+00  -4.3686598886235499e+00  -4.2473093705031815e+00  -4.1259588538812864e+00  -4.0046083388367499e+00  -3.8832578254515395e+00  -3.7619073137801657e+00  -3.6405568038237397e+00  -3.5192062955111454e+00  -3.3978557886910590e+00  -3.2765052831358905e+00  -3.1551547785572502e+00  -3.0338042746297673e+00  -2.9124537710186633e+00  -2.7911032674065641e+00  -2.6697527635151861e+00  -2.5484022591211133e+00  -2.4270517540596668e+00  -2.3057012482349863e+00  -2.1843507415825387e+00  -2.0630002341580376e+00  -1.9416497258276229e+00  -1.8202992171434862e+00  -1.6989487067309863e+00  -1.5775981986597374e+00  -1.4562476817755539e+00  -1.3348971850133631e+00  -1.2135466313044965e+00  -1.0921962014147391e+00  -9.7084543636239884e-01  -8.4949528080894265e-01  -7.2814339861427124e-01  -6.0679370950297873e-01  -4.8543579886765492e-01  -3.6408543446901814e-01  -2.4271478074621536e-01  -1.2138246551947418e-01  2.8927286721117192e-05  -9.7081313764086072e+00  -9.5866807278907871e+00  -9.4653888771706924e+00  -9.3441191702406332e+00  -9.2228238618729641e+00  -9.1015005944845182e+00  -8.9801551316087576e+00  -8.8587952683814049e+00  -8.7374277627282719e+00  -8.6160571449659091e+00  -8.4946858491147150e+00  -8.3733150158262948e+00  -8.2519453535068674e+00  -8.1305769928332960e+00  -8.0092099451435210e+00  -7.8878447841994088e+00  -7.7664823509405601e+00  -7.6451230543006421e+00  -7.5237666272861228e+00  -7.4024123854863495e+00  -7.2810595847808308e+00  -7.1597076376311080e+00  -7.0383561606048923e+00  -6.9170049362324253e+00  -6.7956538530685604e+00  -6.6743028594258353e+00  -6.5529519334678294e+00  -6.4316010672131760e+00  -6.3102502573869774e+00  -6.1888995011515346e+00  -6.0675487940633515e+00  -5.9461981300234852e+00  -5.8248475018537320e+00  -5.7034969022896203e+00  -5.5821463246675576e+00  -5.4607957633944793e+00  -5.3394452140366457e+00  -5.2180946732608797e+00  -5.0967441386330163e+00  -4.9753936084296226e+00  -4.8540430814518336e+00  -4.7326925568967315e+00  -4.6113420342518214e+00  -4.4899915132244992e+00  -4.3686409936806054e+00  -4.2472904755984517e+00  -4.1259399590263204e+00  -4.0045894440469354e+00  -3.8832389307435955e+00  -3.7618884191697952e+00  -3.6405379093231427e+00  -3.5191874011269584e+00  -3.3978368944231048e+00  -3.2764863889768874e+00  -3.1551358844935695e+00  -3.0337853806430091e+00  -2.9124348770878394e+00  -2.7910843735098885e+00  -2.6697338696331081e+00  -2.5483833652340038e+00  -2.4270328601606956e+00  -2.3056823542918456e+00  -2.1843318476588087e+00  -2.0629813400347943e+00  -1.9416308321593061e+00  -1.8202803219814336e+00  -1.6989298157622064e+00  -1.5775792957876633e+00  -1.4562288114825925e+00  -1.3348782296776516e+00  -1.2135278935726650e+00  -1.0921769534363934e+00  -9.7082739034687648e-01  -8.4947482802232122e-01  -7.2812827701866378e-01  -6.0677031461970665e-01  -4.8543268039941256e-01  -3.6405339227016742e-01  -2.4275884812441775e-01  -1.2124265806192369e-01  -6.9263176935917948e-05  -9.7080903876033258e+00  -9.5864753374206391e+00  -9.4653749157111360e+00  -9.3441422583882208e+00  -9.2228543787243744e+00  -9.1015323452046459e+00  -8.9801876866100976e+00  -8.8588289945705743e+00  -8.7374626084562017e+00  -8.6160928037709592e+00  -8.4947220078025385e+00  -8.3733515225654038e+00  -8.2519820313931334e+00  -8.1306138495176423e+00  -8.0092472553023981e+00  -7.8878827694456222e+00  -7.7665209371471917e+00  -7.6451619628568128e+00  -7.5238055812840088e+00  -7.4024512256878205e+00  -7.2810982684804459e+00  -7.1597461879417157e+00  -7.0383946202410179e+00  -6.9170433431738703e+00  -6.7956922337630790e+00  -6.6743412299045524e+00  -6.5529903025485066e+00  -6.4316394389947753e+00  -6.3102886331141947e+00  -6.1889378804017037e+00  -6.0675871757224087e+00  -5.9462365128640142e+00  -5.8248858849138436e+00  -5.7035352849536300e+00  -5.5821847066539370e+00  -5.4608341446394997e+00  -5.3394835946078167e+00  -5.2181330532700976e+00  -5.0967825182021373e+00  -4.9754319876664681e+00  -4.8540814604530587e+00  -4.7327309357473188e+00  -4.6113804130315694e+00  -4.4900298920072643e+00  -4.3686793725356852e+00  -4.2473288545877077e+00  -4.1259783382020947e+00  -4.0046278234476969e+00  -3.8832773103902181e+00  -3.7619267990624445e+00  -3.6405762894407379e+00  -3.5192257814297312e+00  -3.3978752748578493e+00  -3.2765247694840154e+00  -3.1551742650145034e+00  -3.0338237611265058e+00  -2.9124732574939824e+00  -2.7911227538128358e+00  -2.6697722498180685e+00  -2.5484217453045255e+00  -2.4270712401062919e+00  -2.3057207341804866e+00  -2.1843702273298535e+00  -2.0630197200539420e+00  -1.9416692108445612e+00  -1.8203187044721869e+00  -1.6989681868419839e+00  -1.5776176994374251e+00  -1.4562671240399585e+00  -1.3349167864032365e+00  -1.2135658229202688e+00  -1.0922164125932465e+00  -9.7086339195276239e-01  -8.4951818490896924e-01  -7.2815819726666886e-01  -6.0682444987903927e-01  -4.8545996982804962e-01  -3.6414505627776933e-01  -2.4291226382553807e-01  -1.2120475643139381e-01  2.7373322085227919e-04  -9.7059993817398258e+00  -9.5864929245225206e+00  -9.4654146442873390e+00  -9.3441947778237076e+00  -9.2229060650314558e+00  -9.1015807910907718e+00  -8.9802331830107232e+00  -8.8588726212564080e+00  -8.7375052075081570e+00  -8.6161349400209950e+00  -8.4947639567202593e+00  -8.3733934461365731e+00  -8.2520239681413514e+00  -8.1306558531309570e+00  -8.0092894654656526e+00  -7.8879253604521375e+00  -7.7665639857970845e+00  -7.6452054254572142e+00  -7.5238493421894814e+00  -7.4024951672120318e+00  -7.2811423033100402e+00  -7.1597902652904937e+00  -7.0384387148698186e+00  -6.9170874449749000e+00  -6.7957363395326551e+00  -6.6743853394984765e+00  -6.5530344166993073e+00  -6.4316835584986416e+00  -6.3103327583506834e+00  -6.1889820112482061e+00  -6.0676313116205423e+00  -5.9462806529950640e+00  -5.8249300283868850e+00  -5.7035794309342034e+00  -5.5822288544467416e+00  -5.4608782936997153e+00  -5.3395277445363876e+00  -5.2181772037791712e+00  -5.0968266690929651e+00  -4.9754761388012767e+00  -4.8541256117431804e+00  -4.7327750871387568e+00  -4.6114245645001262e+00  -4.4900740435502158e+00  -4.3687235241682902e+00  -4.2473730063367503e+00  -4.1260224901020077e+00  -4.0046719755344045e+00  -3.8833214626962289e+00  -3.7619709516113189e+00  -3.6406204422432045e+00  -3.5192699344812874e+00  -3.3979194281388634e+00  -3.2765689229617734e+00  -3.1552184186471171e+00  -3.0338679148673777e+00  -2.9125174112967507e+00  -2.7911669076341168e+00  -2.6698164036239920e+00  -2.5484658990595732e+00  -2.4271153938155465e+00  -2.3057648877517281e+00  -2.1844143810183967e+00  -2.0630638730263451e+00  -1.9417133657437988e+00  -1.8203628530570541e+00  -1.6990123544913580e+00  -1.5776618094493366e+00  -1.4563114034643230e+00  -1.3349605792036203e+00  -1.2136109707542679e+00  -1.0922579170116167e+00  -9.7091429500497417e-01  -8.4954603076130397e-01  -7.2823964229602289e-01  -6.0678956129525008e-01  -4.8566457657571854e-01  -3.6390042312017884e-01  -2.4361435469462958e-01  -1.2044245765245375e-01  -9.5190969225007554e-04  -9.6465926130462893e+00  -9.5258441914048806e+00  -9.4046883299435962e+00  -9.2834308627052007e+00  -9.1621251794783625e+00  -9.0407911062618069e+00  -8.9194391784177220e+00  -8.7980767242049041e+00  -8.6767088060858875e+00  -8.5553386752723330e+00  -8.4339681612078881e+00  -8.3125982543125119e+00  -8.1912294811147817e+00  -8.0698622111366500e+00  -7.9484968683511124e+00  -7.8271339368093749e+00  -7.7057737171983156e+00  -7.5844161437245221e+00  -7.4630608090900488e+00  -7.3417071461237979e+00  -7.2203546065249808e+00  -7.0990027626675927e+00  -6.9776513265718645e+00  -6.8563001257546992e+00  -6.7349490659984674e+00  -6.6135981001113917e+00  -6.4922472059237073e+00  -6.3708963731485611e+00  -6.2495455958623296e+00  -6.1281948689073360e+00  -6.0068441864569602e+00  -5.8854935419481462e+00  -5.7641429285368986e+00  -5.6427923397011082e+00  -5.5214417696790212e+00  -5.4000912137010593e+00  -5.2787406680153595e+00  -5.1573901297911906e+00  -5.0360395969613574e+00  -4.9146890680602917e+00  -4.7933385420812806e+00  -4.6719880183628835e+00  -4.5506374965007899e+00  -4.4292869762792133e+00  -4.3079364576157273e+00  -4.1865859405150188e+00  -4.0652354250289040e+00  -3.9438849112205849e+00  -3.8225343991333642e+00  -3.7011838887645694e+00  -3.5798333800471323e+00  -3.4584828728407890e+00  -3.3371323669341830e+00  -3.2157818620572334e+00  -3.0944313579014011e+00  -2.9730808541441838e+00  -2.8517303504737450e+00  -2.7303798466103117e+00  -2.6090293423212745e+00  -2.4876788374311478e+00  -2.3663283318192501e+00  -2.2449778254299915e+00  -2.1236273182212750e+00  -2.0022768102909914e+00  -1.8809263014446598e+00  -1.7595757924377209e+00  -1.6382252812791063e+00  -1.51687477356544