<?xml version="1.0"?>
<VTKFile type="UnstructuredGrid"  version="0.1"  >
<UnstructuredGrid>
<Piece  NumberOfPoints="1369" NumberOfCells="2560">
<Points>
<DataArray  type="Float64"  NumberOfComponents="3"  format="ascii">0 0 0  0.75 0 0  1.5 0 0  2.25 0 0  3 0 0  3.75 0 0  4.5 0 0  5.25 0 0  6 0 0  6.75 0 0  7.5 0 0  8.25 0 0  9 0 0  9.75 0 0  10.5 0 0  11.25 0 0  12 0 0  12.75 0 0  13.5 0 0  14.25 0 0  15 0 0  15.75 0 0  16.5 0 0  17.25 0 0  18 0 0  18.75 0 0  19.5 0 0  20.25 0 0  21 0 0  21.75 0 0  22.5 0 0  23.25 0 0  24 0 0  24.75 0 0  25.5 0 0  26.25 0 0  27 0 0  27.75 0 0  28.5 0 0  29.25 0 0  30 0 0  30.75 0 0  31.5 0 0  32.25 0 0  33 0 0  33.75 0 0  34.5 0 0  35.25 0 0  36 0 0  36.75 0 0  37.5 0 0  38.25 0 0  39 0 0  39.75 0 0  40.5 0 0  41.25 0 0  42 0 0  42.75 0 0  43.5 0 0  44.25 0 0  45 0 0  45.75 0 0  46.5 0 0  47.25 0 0  48 0 0  48.75 0 0  49.5 0 0  50.25 0 0  51 0 0  51.75 0 0  52.5 0 0  53.25 0 0  54 0 0  54.75 0 0  55.5 0 0  56.25 0 0  57 0 0  57.75 0 0  58.5 0 0  59.25 0 0  60 0 0  0 0.5 0  0.75 0.5 0  1.5 0.5 0  2.25 0.5 0  3 0.5 0  3.75 0.5 0  4.5 0.5 0  5.25 0.5 0  6 0.5 0  6.75 0.5 0  7.5 0.5 0  8.25 0.5 0  9 0.5 0  9.75 0.5 0  10.5 0.5 0  11.25 0.5 0  12 0.5 0  12.75 0.5 0  13.5 0.5 0  14.25 0.5 0  15 0.5 0  15.75 0.5 0  16.5 0.5 0  17.25 0.5 0  18 0.5 0  18.75 0.5 0  19.5 0.5 0  20.25 0.5 0  21 0.5 0  21.75 0.5 0  22.5 0.5 0  23.25 0.5 0  24 0.5 0  24.75 0.5 0  25.5 0.5 0  26.25 0.5 0  27 0.5 0  27.75 0.5 0  28.5 0.5 0  29.25 0.5 0  30 0.5 0  30.75 0.5 0  31.5 0.5 0  32.25 0.5 0  33 0.5 0  33.75 0.5 0  34.5 0.5 0  35.25 0.5 0  36 0.5 0  36.75 0.5 0  37.5 0.5 0  38.25 0.5 0  39 0.5 0  39.75 0.5 0  40.5 0.5 0  41.25 0.5 0  42 0.5 0  42.75 0.5 0  43.5 0.5 0  44.25 0.5 0  45 0.5 0  45.75 0.5 0  46.5 0.5 0  47.25 0.5 0  48 0.5 0  48.75 0.5 0  49.5 0.5 0  50.25 0.5 0  51 0.5 0  51.75 0.5 0  52.5 0.5 0  53.25 0.5 0  54 0.5 0  54.75 0.5 0  55.5 0.5 0  56.25 0.5 0  57 0.5 0  57.75 0.5 0  58.5 0.5 0  59.25 0.5 0  60 0.5 0  0 1 0  0.75 1 0  1.5 1 0  2.25 1 0  3 1 0  3.75 1 0  4.5 1 0  5.25 1 0  6 1 0  6.75 1 0  7.5 1 0  8.25 1 0  9 1 0  9.75 1 0  10.5 1 0  11.25 1 0  12 1 0  12.75 1 0  13.5 1 0  14.25 1 0  15 1 0  15.75 1 0  16.5 1 0  17.25 1 0  18 1 0  18.75 1 0  19.5 1 0  20.25 1 0  21 1 0  21.75 1 0  22.5 1 0  23.25 1 0  24 1 0  24.75 1 0  25.5 1 0  26.25 1 0  27 1 0  27.75 1 0  28.5 1 0  29.25 1 0  30 1 0  30.75 1 0  31.5 1 0  32.25 1 0  33 1 0  33.75 1 0  34.5 1 0  35.25 1 0  36 1 0  36.75 1 0  37.5 1 0  38.25 1 0  39 1 0  39.75 1 0  40.5 1 0  41.25 1 0  42 1 0  42.75 1 0  43.5 1 0  44.25 1 0  45 1 0  45.75 1 0  46.5 1 0  47.25 1 0  48 1 0  48.75 1 0  49.5 1 0  50.25 1 0  51 1 0  51.75 1 0  52.5 1 0  53.25 1 0  54 1 0  54.75 1 0  55.5 1 0  56.25 1 0  57 1 0  57.75 1 0  58.5 1 0  59.25 1 0  60 1 0  0 1.5 0  0.75 1.5 0  1.5 1.5 0  2.25 1.5 0  3 1.5 0  3.75 1.5 0  4.5 1.5 0  5.25 1.5 0  6 1.5 0  6.75 1.5 0  7.5 1.5 0  8.25 1.5 0  9 1.5 0  9.75 1.5 0  10.5 1.5 0  11.25 1.5 0  12 1.5 0  12.75 1.5 0  13.5 1.5 0  14.25 1.5 0  15 1.5 0  15.75 1.5 0  16.5 1.5 0  17.25 1.5 0  18 1.5 0  18.75 1.5 0  19.5 1.5 0  20.25 1.5 0  21 1.5 0  21.75 1.5 0  22.5 1.5 0  23.25 1.5 0  24 1.5 0  24.75 1.5 0  25.5 1.5 0  26.25 1.5 0  27 1.5 0  27.75 1.5 0  28.5 1.5 0  29.25 1.5 0  30 1.5 0  30.75 1.5 0  31.5 1.5 0  32.25 1.5 0  33 1.5 0  33.75 1.5 0  34.5 1.5 0  35.25 1.5 0  36 1.5 0  36.75 1.5 0  37.5 1.5 0  38.25 1.5 0  39 1.5 0  39.75 1.5 0  40.5 1.5 0  41.25 1.5 0  42 1.5 0  42.75 1.5 0  43.5 1.5 0  44.25 1.5 0  45 1.5 0  45.75 1.5 0  46.5 1.5 0  47.25 1.5 0  48 1.5 0  48.75 1.5 0  49.5 1.5 0  50.25 1.5 0  51 1.5 0  51.75 1.5 0  52.5 1.5 0  53.25 1.5 0  54 1.5 0  54.75 1.5 0  55.5 1.5 0  56.25 1.5 0  57 1.5 0  57.75 1.5 0  58.5 1.5 0  59.25 1.5 0  60 1.5 0  0 2 0  0.75 2 0  1.5 2 0  2.25 2 0  3 2 0  3.75 2 0  4.5 2 0  5.25 2 0  6 2 0  6.75 2 0  7.5 2 0  8.25 2 0  9 2 0  9.75 2 0  10.5 2 0  11.25 2 0  12 2 0  12.75 2 0  13.5 2 0  14.25 2 0  15 2 0  15.75 2 0  16.5 2 0  17.25 2 0  18 2 0  18.75 2 0  19.5 2 0  20.25 2 0  21 2 0  21.75 2 0  22.5 2 0  23.25 2 0  24 2 0  24.75 2 0  25.5 2 0  26.25 2 0  27 2 0  27.75 2 0  28.5 2 0  29.25 2 0  30 2 0  30.75 2 0  31.5 2 0  32.25 2 0  33 2 0  33.75 2 0  34.5 2 0  35.25 2 0  36 2 0  36.75 2 0  37.5 2 0  38.25 2 0  39 2 0  39.75 2 0  40.5 2 0  41.25 2 0  42 2 0  42.75 2 0  43.5 2 0  44.25 2 0  45 2 0  45.75 2 0  46.5 2 0  47.25 2 0  48 2 0  48.75 2 0  49.5 2 0  50.25 2 0  51 2 0  51.75 2 0  52.5 2 0  53.25 2 0  54 2 0  54.75 2 0  55.5 2 0  56.25 2 0  57 2 0  57.75 2 0  58.5 2 0  59.25 2 0  60 2 0  0 2.5 0  0.75 2.5 0  1.5 2.5 0  2.25 2.5 0  3 2.5 0  3.75 2.5 0  4.5 2.5 0  5.25 2.5 0  6 2.5 0  6.75 2.5 0  7.5 2.5 0  8.25 2.5 0  9 2.5 0  9.75 2.5 0  10.5 2.5 0  11.25 2.5 0  12 2.5 0  12.75 2.5 0  13.5 2.5 0  14.25 2.5 0  15 2.5 0  15.75 2.5 0  16.5 2.5 0  17.25 2.5 0  18 2.5 0  18.75 2.5 0  19.5 2.5 0  20.25 2.5 0  21 2.5 0  21.75 2.5 0  22.5 2.5 0  23.25 2.5 0  24 2.5 0  24.75 2.5 0  25.5 2.5 0  26.25 2.5 0  27 2.5 0  27.75 2.5 0  28.5 2.5 0  29.25 2.5 0  30 2.5 0  30.75 2.5 0  31.5 2.5 0  32.25 2.5 0  33 2.5 0  33.75 2.5 0  34.5 2.5 0  35.25 2.5 0  36 2.5 0  36.75 2.5 0  37.5 2.5 0  38.25 2.5 0  39 2.5 0  39.75 2.5 0  40.5 2.5 0  41.25 2.5 0  42 2.5 0  42.75 2.5 0  43.5 2.5 0  44.25 2.5 0  45 2.5 0  45.75 2.5 0  46.5 2.5 0  47.25 2.5 0  48 2.5 0  48.75 2.5 0  49.5 2.5 0  50.25 2.5 0  51 2.5 0  51.75 2.5 0  52.5 2.5 0  53.25 2.5 0  54 2.5 0  54.75 2.5 0  55.5 2.5 0  56.25 2.5 0  57 2.5 0  57.75 2.5 0  58.5 2.5 0  59.25 2.5 0  60 2.5 0  0 3 0  0.75 3 0  1.5 3 0  2.25 3 0  3 3 0  3.75 3 0  4.5 3 0  5.25 3 0  6 3 0  6.75 3 0  7.5 3 0  8.25 3 0  9 3 0  9.75 3 0  10.5 3 0  11.25 3 0  12 3 0  12.75 3 0  13.5 3 0  14.25 3 0  15 3 0  15.75 3 0  16.5 3 0  17.25 3 0  18 3 0  18.75 3 0  19.5 3 0  20.25 3 0  21 3 0  21.75 3 0  22.5 3 0  23.25 3 0  24 3 0  24.75 3 0  25.5 3 0  26.25 3 0  27 3 0  27.75 3 0  28.5 3 0  29.25 3 0  30 3 0  30.75 3 0  31.5 3 0  32.25 3 0  33 3 0  33.75 3 0  34.5 3 0  35.25 3 0  36 3 0  36.75 3 0  37.5 3 0  38.25 3 0  39 3 0  39.75 3 0  40.5 3 0  41.25 3 0  42 3 0  42.75 3 0  43.5 3 0  44.25 3 0  45 3 0  45.75 3 0  46.5 3 0  47.25 3 0  48 3 0  48.75 3 0  49.5 3 0  50.25 3 0  51 3 0  51.75 3 0  52.5 3 0  53.25 3 0  54 3 0  54.75 3 0  55.5 3 0  56.25 3 0  57 3 0  57.75 3 0  58.5 3 0  59.25 3 0  60 3 0  0 3.5 0  0.75 3.5 0  1.5 3.5 0  2.25 3.5 0  3 3.5 0  3.75 3.5 0  4.5 3.5 0  5.25 3.5 0  6 3.5 0  6.75 3.5 0  7.5 3.5 0  8.25 3.5 0  9 3.5 0  9.75 3.5 0  10.5 3.5 0  11.25 3.5 0  12 3.5 0  12.75 3.5 0  13.5 3.5 0  14.25 3.5 0  15 3.5 0  15.75 3.5 0  16.5 3.5 0  17.25 3.5 0  18 3.5 0  18.75 3.5 0  19.5 3.5 0  20.25 3.5 0  21 3.5 0  21.75 3.5 0  22.5 3.5 0  23.25 3.5 0  24 3.5 0  24.75 3.5 0  25.5 3.5 0  26.25 3.5 0  27 3.5 0  27.75 3.5 0  28.5 3.5 0  29.25 3.5 0  30 3.5 0  30.75 3.5 0  31.5 3.5 0  32.25 3.5 0  33 3.5 0  33.75 3.5 0  34.5 3.5 0  35.25 3.5 0  36 3.5 0  36.75 3.5 0  37.5 3.5 0  38.25 3.5 0  39 3.5 0  39.75 3.5 0  40.5 3.5 0  41.25 3.5 0  42 3.5 0  42.75 3.5 0  43.5 3.5 0  44.25 3.5 0  45 3.5 0  45.75 3.5 0  46.5 3.5 0  47.25 3.5 0  48 3.5 0  48.75 3.5 0  49.5 3.5 0  50.25 3.5 0  51 3.5 0  51.75 3.5 0  52.5 3.5 0  53.25 3.5 0  54 3.5 0  54.75 3.5 0  55.5 3.5 0  56.25 3.5 0  57 3.5 0  57.75 3.5 0  58.5 3.5 0  59.25 3.5 0  60 3.5 0  0 4 0  0.75 4 0  1.5 4 0  2.25 4 0  3 4 0  3.75 4 0  4.5 4 0  5.25 4 0  6 4 0  6.75 4 0  7.5 4 0  8.25 4 0  9 4 0  9.75 4 0  10.5 4 0  11.25 4 0  12 4 0  12.75 4 0  13.5 4 0  14.25 4 0  15 4 0  15.75 4 0  16.5 4 0  17.25 4 0  18 4 0  18.75 4 0  19.5 4 0  20.25 4 0  21 4 0  21.75 4 0  22.5 4 0  23.25 4 0  24 4 0  24.75 4 0  25.5 4 0  26.25 4 0  27 4 0  27.75 4 0  28.5 4 0  29.25 4 0  30 4 0  30.75 4 0  31.5 4 0  32.25 4 0  33 4 0  33.75 4 0  34.5 4 0  35.25 4 0  36 4 0  36.75 4 0  37.5 4 0  38.25 4 0  39 4 0  39.75 4 0  40.5 4 0  41.25 4 0  42 4 0  42.75 4 0  43.5 4 0  44.25 4 0  45 4 0  45.75 4 0  46.5 4 0  47.25 4 0  48 4 0  48.75 4 0  49.5 4 0  50.25 4 0  51 4 0  51.75 4 0  52.5 4 0  53.25 4 0  54 4 0  54.75 4 0  55.5 4 0  56.25 4 0  57 4 0  57.75 4 0  58.5 4 0  59.25 4 0  60 4 0  0.375 0.25 0  1.125 0.25 0  1.875 0.25 0  2.625 0.25 0  3.375 0.25 0  4.125 0.25 0  4.875 0.25 0  5.625 0.25 0  6.375 0.25 0  7.125 0.25 0  7.875 0.25 0  8.625 0.25 0  9.375 0.25 0  10.125 0.25 0  10.875 0.25 0  11.625 0.25 0  12.375 0.25 0  13.125 0.25 0  13.875 0.25 0  14.625 0.25 0  15.375 0.25 0  16.125 0.25 0  16.875 0.25 0  17.625 0.25 0  18.375 0.25 0  19.125 0.25 0  19.875 0.25 0  20.625 0.25 0  21.375 0.25 0  22.125 0.25 0  22.875 0.25 0  23.625 0.25 0  24.375 0.25 0  25.125 0.25 0  25.875 0.25 0  26.625 0.25 0  27.375 0.25 0  28.125 0.25 0  28.875 0.25 0  29.625 0.25 0  30.375 0.25 0  31.125 0.25 0  31.875 0.25 0  32.625 0.25 0  33.375 0.25 0  34.125 0.25 0  34.875 0.25 0  35.625 0.25 0  36.375 0.25 0  37.125 0.25 0  37.875 0.25 0  38.625 0.25 0  39.375 0.25 0  40.125 0.25 0  40.875 0.25 0  41.625 0.25 0  42.375 0.25 0  43.125 0.25 0  43.875 0.25 0  44.625 0.25 0  45.375 0.25 0  46.125 0.25 0  46.875 0.25 0  47.625 0.25 0  48.375 0.25 0  49.125 0.25 0  49.875 0.25 0  50.625 0.25 0  51.375 0.25 0  52.125 0.25 0  52.875 0.25 0  53.625 0.25 0  54.375 0.25 0  55.125 0.25 0  55.875 0.25 0  56.625 0.25 0  57.375 0.25 0  58.125 0.25 0  58.875 0.25 0  59.625 0.25 0  0.375 0.75 0  1.125 0.75 0  1.875 0.75 0  2.625 0.75 0  3.375 0.75 0  4.125 0.75 0  4.875 0.75 0  5.625 0.75 0  6.375 0.75 0  7.125 0.75 0  7.875 0.75 0  8.625 0.75 0  9.375 0.75 0  10.125 0.75 0  10.875 0.75 0  11.625 0.75 0  12.375 0.75 0  13.125 0.75 0  13.875 0.75 0  14.625 0.75 0  15.375 0.75 0  16.125 0.75 0  16.875 0.75 0  17.625 0.75 0  18.375 0.75 0  19.125 0.75 0  19.875 0.75 0  20.625 0.75 0  21.375 0.75 0  22.125 0.75 0  22.875 0.75 0  23.625 0.75 0  24.375 0.75 0  25.125 0.75 0  25.875 0.75 0  26.625 0.75 0  27.375 0.75 0  28.125 0.75 0  28.875 0.75 0  29.625 0.75 0  30.375 0.75 0  31.125 0.75 0  31.875 0.75 0  32.625 0.75 0  33.375 0.75 0  34.125 0.75 0  34.875 0.75 0  35.625 0.75 0  36.375 0.75 0  37.125 0.75 0  37.875 0.75 0  38.625 0.75 0  39.375 0.75 0  40.125 0.75 0  40
[...]
<PointData  Scalars="f_8-1"> 
<DataArray  type="Float64"  Name="f_8-1"  format="ascii">7.0533533030545925e+00  6.9655165761558164e+00  6.8755179382874729e+00  6.7881196419811554e+00  6.6996312379348506e+00  6.6118048266218139e+00  6.5235071434820551e+00  6.4354522066629594e+00  6.3472446716362683e+00  6.2591235725941337e+00  6.1709555073908318e+00  6.0828122916658067e+00  5.9946566817941953e+00  5.9065071340328439e+00  5.8183547465754826e+00  5.7302036709244186e+00  5.6420520087976103e+00  5.5539006071408510e+00  5.4657490930571893e+00  5.3775976275904975e+00  5.2894461417034861e+00  5.2012946644951832e+00  5.1131431837216468e+00  5.0249917044486283e+00  4.9368402245711529e+00  4.8486887449473191e+00  4.7605372652232729e+00  4.6723857855414259e+00  4.5842343058432720e+00  4.4960828261520920e+00  4.4079313464583265e+00  4.3197798667656597e+00  4.2316283870725986e+00  4.1434769073797311e+00  4.0553254276867676e+00  3.9671739479938815e+00  3.8790224683009580e+00  3.7908709886080412e+00  3.7027195089151377e+00  3.6145680292222071e+00  3.5264165495292956e+00  3.4382650698363584e+00  3.3501135901434744e+00  3.2619621104505439e+00  3.1738106307576341e+00  3.0856591510646716e+00  2.9975076713717628e+00  2.9093561916786501e+00  2.8212047119855677e+00  2.7330532322920287e+00  2.6449017525981646e+00  2.5567502729029563e+00  2.4685987932058033e+00  2.3804473135038675e+00  2.2922958337926174e+00  2.2041443540618273e+00  2.1159928742882084e+00  2.0278413944260572e+00  1.9396899143606030e+00  1.8515384338632583e+00  1.7633869523790755e+00  1.6752354688237086e+00  1.5870839809187041e+00  1.4989324849295065e+00  1.4107809752331835e+00  1.3226294470791526e+00  1.2344779008520976e+00  1.1463263499856671e+00  1.0581748080653011e+00  9.7002323061559503e-01  8.8187136723658988e-01  7.9371866002891445e-01  7.0556444419461717e-01  6.1740861479111941e-01  5.2925189273764250e-01  4.4109549402506154e-01  3.5294184947141671e-01  2.6479822458580804e-01  1.7668476701604660e-01  8.8649444556784598e-02  1.2626579695424486e-03  7.0535115399993034e+00  6.9651826358641760e+00  6.8760851475866458e+00  6.7879711299812486e+00  6.6998280183991197e+00  6.6117298854809814e+00  6.5235980221299155e+00  6.4354398025004915e+00  6.3472953017508074e+00  6.2591378963454742e+00  6.1709902433832857e+00  6.0828360747516337e+00  5.9946861814166263e+00  5.9065337547225880e+00  5.8183827831099517e+00  5.7302310306284889e+00  5.6420796862367357e+00  5.5539281388506812e+00  5.4657766907636374e+00  5.3776251959949999e+00  5.2894737230182987e+00  5.2013222402220878e+00  5.1131707618600224e+00  5.0250192815640959e+00  4.9368678021213537e+00  4.8487163223160969e+00  4.7605648426683276e+00  4.6724133629550977e+00  4.5842618832700488e+00  4.4961104035735477e+00  4.4079589238819796e+00  4.3198074441884389e+00  4.2316559644957490e+00  4.1435044848027225e+00  4.0553530051098488e+00  3.9672015254169093e+00  3.8790500457240116e+00  3.7908985660310868e+00  3.7027470863381802e+00  3.6145956066452603e+00  3.5264441269523403e+00  3.4382926472594146e+00  3.3501411675665187e+00  3.2619896878735934e+00  3.1738382081806762e+00  3.0856867284877212e+00  2.9975352487947577e+00  2.9093837691016891e+00  2.8212322894084596e+00  2.7330808097149446e+00  2.6449293300206866e+00  2.5567778503252869e+00  2.4686263706269074e+00  2.3804748909236570e+00  2.2923234112083288e+00  2.2041719314714783e+00  2.1160204516840766e+00  2.0278689717984468e+00  1.9397174916872997e+00  1.8515660111083714e+00  1.7634145294695913e+00  1.6752630455907072e+00  1.5871115568880212e+00  1.4989600585997309e+00  1.4108085420819769e+00  1.3226569945391602e+00  1.2345053986248418e+00  1.1463537352788191e+00  1.0582019758913510e+00  9.7005005204051920e-01  8.8189776799439090e-01  7.9374472889898096e-01  7.0559044737156840e-01  6.1743482234954750e-01  5.2927847114083082e-01  4.4112256343256195e-01  3.5296931968861134e-01  2.6482489737941106e-01  1.7670500665772529e-01  8.8647372735478833e-02  1.0740275098200534e-04  7.0532016511428148e+00  6.9652131821129064e+00  6.8763084449532261e+00  6.7881737942866076e+00  6.6998950519668208e+00  6.6117953155032296e+00  6.5236235831017106e+00  6.4354869353460673e+00  6.3473276038334117e+00  6.2591813923859192e+00  6.1710264548256930e+00  6.0828771994658410e+00  5.9947243140565893e+00  5.9065736699414764e+00  5.8184217084293728e+00  5.7302704915719005e+00  5.6421188722615483e+00  5.5539674634479184e+00  5.4658159484278324e+00  5.3776644856934750e+00  5.2895129979427233e+00  5.2013615219550333e+00  5.1132100405630352e+00  5.0250585616257402e+00  4.9369070815952956e+00  4.8487556020485485e+00  4.7606041222915660e+00  4.6724526426257631e+00  4.5843011629211174e+00  4.4961496832330807e+00  4.4079982035381002e+00  4.3198467238460267e+00  4.2316952441527445e+00  4.1435437644599826e+00  4.0553922847669952e+00  3.9672408050741281e+00  3.8790893253811873e+00  3.7909378456882759e+00  3.7027863659953817e+00  3.6146348863024391e+00  3.5264834066095321e+00  3.4383319269166188e+00  3.3501804472237247e+00  3.2620289675308181e+00  3.1738774878378875e+00  3.0857260081450089e+00  2.9975745284520965e+00  2.9094230487591939e+00  2.8212715690663055e+00  2.7331200893734069e+00  2.6449686096805620e+00  2.5568171299876705e+00  2.4686656502950393e+00  2.3805141706021327e+00  2.2923626909099539e+00  2.2042112112170362e+00  2.1160597315262528e+00  2.0279082518349587e+00  1.9397567721546594e+00  1.8516052924937587e+00  1.7634538129339135e+00  1.6753023336643120e+00  1.5871508553661497e+00  1.4989993796379366e+00  1.4108479100950222e+00  1.3226964518696767e+00  1.2345450066894932e+00  1.1463935505654772e+00  1.0582419824314035e+00  9.7009003880499289e-01  8.8193726130548644e-01  7.9378318405003923e-01  7.0562773881696095e-01  6.1747119329254330e-01  5.2931360759737545e-01  4.4115503255177668e-01  3.5299573882331270e-01  2.6483543348468730e-01  1.7666986222131492e-01  8.8454868360763689e-02  2.8678086717775659e-05  7.0534651760436153e+00  6.9649739523642165e+00  6.8765646075493745e+00  6.7881506741849895e+00  6.6999864810132364e+00  6.6117742632908190e+00  6.5236443188550801e+00  6.4354772285382280e+00  6.3473349476018397e+00  6.2591783923899778e+00  6.1710300287228455e+00  6.0828768142056031e+00  5.9947263496862071e+00  5.9065743093182883e+00  5.8184231406039517e+00  5.7302714955147218e+00  5.6421201028408694e+00  5.5539685789737137e+00  5.4658171214313302e+00  5.3776656309791955e+00  5.2895141564650787e+00  5.2013626743505785e+00  5.1132111957849524e+00  5.0250597155814516e+00  4.9369082361200070e+00  4.8487567563250069e+00  4.7606052766774276e+00  4.6724537969649447e+00  4.5843023172805983e+00  4.4961508375840751e+00  4.4079993578927388e+00  4.3198478781991696e+00  4.2316963985065312e+00  4.1435449188135118e+00  4.0553934391206337e+00  3.9672419594277164e+00  3.8790904797347983e+00  3.7909390000418868e+00  3.7027875203489899e+00  3.6146360406560487e+00  3.5264845609631448e+00  3.4383330812702346e+00  3.3501816015773440e+00  3.2620301218844401e+00  3.1738786421915242e+00  3.0857271624986646e+00  2.9975756828057976e+00  2.9094242031129989e+00  2.8212727234202979e+00  2.7331212437277981e+00  2.6449697640357490e+00  2.5568182843444958e+00  2.4686668046550904e+00  2.3805153249688904e+00  2.2923638452901560e+00  2.2042123656255095e+00  2.1160608859932890e+00  2.0279094064281189e+00  1.9397579270200060e+00  1.8516064479625638e+00  1.7634549697419821e+00  1.6753034934524100e+00  1.5871520216273198e+00  1.4990005594229541e+00  1.4108491162290706e+00  1.3226977044759680e+00  1.2345463296406043e+00  1.1463949558239233e+00  1.0582434348696836e+00  9.7009141119710562e-01  8.8193832823654794e-01  7.9378373371998256e-01  7.0562773507720322e-01  6.1747066695207165e-01  5.2931226107477025e-01  4.4115187914521908e-01  3.5298809701519790e-01  2.6481603345127264e-01  1.7662115525618047e-01  8.8366359656777999e-02  1.4632179472835446e-05  7.0533904753551715e+00  6.9650077682161733e+00  6.8765262478216718e+00  6.7882145312810112e+00  6.6999496178915265e+00  6.6117938673775676e+00  6.5236181932741255e+00  6.4354769286799947e+00  6.3473184216854674e+00  6.2591713137880438e+00  6.1710174678430825e+00  6.0828674141819841e+00  5.9947151688231139e+00  5.9065641221463201e+00  5.8184124129381001e+00  5.7302610567069623e+00  5.6421095135372559e+00  5.5539580665500239e+00  5.4658065706524042e+00  5.3776550989922427e+00  5.2895036154623432e+00  5.2013521376082714e+00  5.1132006570658000e+00  5.0250491777686639e+00  4.9368976978982104e+00  4.8487462182861494e+00  4.7605947385578986e+00  4.6724432588807963e+00  4.5842917791811422e+00  4.4961402994912216e+00  4.4079888197970618e+00  4.3198373401046961e+00  4.2316858604115613e+00  4.1435343807187426e+00  4.0553829010257916e+00  3.9672314213328979e+00  3.8790799416399762e+00  3.7909284619470633e+00  3.7027769822541550e+00  3.6146255025612382e+00  3.5264740228683240e+00  3.4383225431754196e+00  3.3501710634825197e+00  3.2620195837896153e+00  3.1738681040967154e+00  3.0857166244038425e+00  2.9975651447109914e+00  2.9094136650182030e+00  2.8212621853255322e+00  2.7331107056331034e+00  2.6449592259411774e+00  2.5568077462502115e+00  2.4686562665612746e+00  2.3805047868762714e+00  2.2923533071996562e+00  2.2042018275402158e+00  2.1160503479184221e+00  2.0278988683785282e+00  1.9397473890255674e+00  1.8515959101006740e+00  1.7634444321758462e+00  1.6752929565510493e+00  1.5871414860707034e+00  1.4989900263240379e+00  1.4108385866410809e+00  1.3226871777097493e+00  1.2345357985794021e+00  1.1463843999145515e+00  1.0582328152389266e+00  9.7008068730462305e-01  8.8192750641905882e-01  7.9377289366215409e-01  7.0561691187347886e-01  6.1745976534545643e-01  5.2930118449873231e-01  4.4114037760746894e-01  3.5297528664340072e-01  2.6479962152914838e-01  1.7659682394729379e-01  8.8336260786122223e-02  1.5110571508173671e-05  7.0534651760436144e+00  6.9649739523642085e+00  6.8765646075493754e+00  6.7881506741849957e+00  6.6999864810132248e+00  6.6117742632908127e+00  6.5236443188550917e+00  6.4354772285382156e+00  6.3473349476018397e+00  6.2591783923899973e+00  6.1710300287228304e+00  6.0828768142056173e+00  5.9947263496862053e+00  5.9065743093182963e+00  5.8184231406039393e+00  5.7302714955147351e+00  5.6421201028408658e+00  5.5539685789737128e+00  5.4658171214313311e+00  5.3776656309791990e+00  5.2895141564650778e+00  5.2013626743505963e+00  5.1132111957849657e+00  5.0250597155814480e+00  4.9369082361200052e+00  4.8487567563249980e+00  4.7606052766774161e+00  4.6724537969649580e+00  4.5843023172806028e+00  4.4961508375840760e+00  4.4079993578927210e+00  4.3198478781991669e+00  4.2316963985065339e+00  4.1435449188135074e+00  4.0553934391206399e+00  3.9672419594277146e+00  3.8790904797348049e+00  3.7909390000418872e+00  3.7027875203489740e+00  3.6146360406560634e+00  3.5264845609631568e+00  3.4383330812702475e+00  3.3501816015773356e+00  3.2620301218844392e+00  3.1738786421915339e+00  3.0857271624986584e+00  2.9975756828057989e+00  2.9094242031129927e+00  2.8212727234202926e+00  2.7331212437277923e+00  2.6449697640357615e+00  2.5568182843444989e+00  2.4686668046550908e+00  2.3805153249689019e+00  2.2923638452901538e+00  2.2042123656255099e+00  2.1160608859932801e+00  2.0279094064281145e+00  1.9397579270199996e+00  1.8516064479625656e+00  1.7634549697419819e+00  1.6753034934524245e+00  1.5871520216273254e+00  1.4990005594229472e+00  1.4108491162290777e+00  1.3226977044759589e+00  1.2345463296406047e+00  1.1463949558239259e+00  1.0582434348696794e+00  9.7009141119711262e-01  8.8193832823654505e-01  7.9378373371998356e-01  7.0562773507720788e-01  6.1747066695206332e-01  5.2931226107476470e-01  4.4115187914521981e-01  3.5298809701519746e-01  2.6481603345127680e-01  1.7662115525618050e-01  8.8366359656778956e-02  1.4632179470165219e-05  7.0532016511428184e+00  6.9652131821129082e+00  6.8763084449532821e+00  6.7881737942865801e+00  6.6998950519668181e+00  6.6117953155032074e+00  6.5236235831017284e+00  6.4354869353460389e+00  6.3473276038334214e+00  6.2591813923859538e+00  6.1710264548256744e+00  6.0828771994658570e+00  5.9947243140565964e+00  5.9065736699414844e+00  5.8184217084293559e+00  5.7302704915719023e+00  5.6421188722615438e+00  5.5539674634479157e+00  5.4658159484278297e+00  5.3776644856934768e+00  5.2895129979427269e+00  5.2013615219550546e+00  5.1132100405630583e+00  5.0250585616257428e+00  4.9369070815953027e+00  4.8487556020485405e+00  4.7606041222915501e+00  4.6724526426257809e+00  4.5843011629211237e+00  4.4961496832330949e+00  4.4079982035380780e+00  4.3198467238460241e+00  4.2316952441527462e+00  4.1435437644599791e+00  4.0553922847670067e+00  3.9672408050741179e+00  3.8790893253811900e+00  3.7909378456882816e+00  3.7027863659953635e+00  3.6146348863024604e+00  3.5264834066095454e+00  3.4383319269166353e+00  3.3501804472237233e+00  3.2620289675308212e+00  3.1738774878378990e+00  3.0857260081450044e+00  2.9975745284520952e+00  2.9094230487591903e+00  2.8212715690662957e+00  2.7331200893733945e+00  2.6449686096805749e+00  2.5568171299876759e+00  2.4686656502950437e+00  2.3805141706021429e+00  2.2923626909099504e+00  2.2042112112170407e+00  2.1160597315262417e+00  2.0279082518349538e+00  1.9397567721546507e+00  1.8516052924937594e+00  1.7634538129339128e+00  1.6753023336643300e+00  1.5871508553661557e+00  1.4989993796379275e+00  1.4108479100950300e+00  1.3226964518696687e+00  1.2345450066894914e+00  1.1463935505654868e+00  1.0582419824313953e+00  9.7009003880500266e-01  8.8193726130548500e-01  7.9378318405003567e-01  7.0562773881696805e-01  6.1747119329252742e-01  5.2931360759737078e-01  4.4115503255177169e-01  3.5299573882331414e-01  2.6483543348468569e-01  1.7666986222132006e-01  8.8454868360758665e-02  2.8678086722355644e-05  7.0535115399992971e+00  6.9651826358641866e+00  6.8760851475866547e+00  6.7879711299812522e+00  6.6998280183991028e+00  6.6117298854809770e+00  6.5235980221299128e+00  6.4354398025004773e+00  6.3472953017508109e+00  6.2591378963454929e+00  6.1709902433832973e+00  6.0828360747516381e+00  5.9946861814166308e+00  5.9065337547225978e+00  5.8183827831099393e+00  5.7302310306284863e+00  5.6420796862367295e+00  5.5539281388506758e+00  5.4657766907636303e+00  5.3776251959950008e+00  5.2894737230183004e+00  5.2013222402221029e+00  5.1131707618600517e+00  5.0250192815641146e+00  4.9368678021213555e+00  4.8487163223160996e+00  4.7605648426683107e+00  4.6724133629550977e+00  4.5842618832700621e+00  4.4961104035735531e+00  4.4079589238819796e+00  4.3198074441884380e+00  4.2316559644957508e+00  4.1435044848027180e+00  4.0553530051098470e+00  3.9672015254169186e+00  3.8790500457240040e+00  3.7908985660310899e+00  3.7027470863381766e+00  3.6145956066452665e+00  3.5264441269523523e+00  3.4382926472594355e+00  3.3501411675665298e+00  3.2619896878736090e+00  3.1738382081806802e+00  3.0856867284877265e+00  2.9975352487947506e+00  2.9093837691016824e+00  2.8212322894084521e+00  2.7330808097149366e+00  2.6449293300206813e+00  2.5567778503252989e+00  2.4686263706269158e+00  2.3804748909236704e+00  2.2923234112083284e+00  2.2041719314714863e+00  2.1160204516840673e+00  2.0278689717984411e+00  1.9397174916872906e+00  1.8515660111083700e+00  1.7634145294695951e+00  1.6752630455907147e+00  1.5871115568880352e+00  1.4989600585997302e+00  1.4108085420819791e+00  1.3226569945391609e+00  1.2345053986248395e+00  1.1463537352788293e+00  1.0582019758913470e+00  9.7005005204051853e-01  8.8189776799439223e-01  7.9374472889898140e-01  7.0559044737157328e-01  6.1743482234953229e-01  5.2927847114082105e-01  4.4112256343255840e-01  3.5296931968861062e-01  2.6482489737941445e-01  1.7670500665772459e-01  8.8647372735480470e-02  1.0740275097805505e-04  7.0533533030545668e+00  6.9655165761558404e+00  6.8755179382874596e+00  6.7881196419811625e+00  6.6996312379348426e+00  6.6118048266218192e+00  6.5235071434820533e+00  6.4354522066629363e+00  6.3472446716362771e+00  6.2591235725941576e+00  6.1709555073908415e+00  6.0828122916658165e+00  5.9946566817942069e+00  5.9065071340328599e+00  5.8183547465754639e+00  5.7302036709244240e+00  5.6420520087976067e+00  5.5539006071408483e+00  5.4657490930571857e+00  5.3775976275904931e+00  5.2894461417034995e+00  5.2012946644952081e+00  5.1131431837216850e+00  5.0249917044486514e+00  4.9368402245711627e+00  4.8486887449473128e+00  4.7605372652232578e+00  4.6723857855414304e+00  4.5842343058432924e+00  4.4960828261521009e+00  4.4079313464583123e+00  4.3197798667656588e+00  4.2316283870726021e+00  4.1434769073797151e+00  4.0553254276867872e+00  3.9671739479938819e+00  3.8790224683009553e+00  3.7908709886080421e+00  3.7027195089151270e+00  3.6145680292222226e+00  3.5264165495293058e+00  3.4382650698363912e+00  3.3501135901434886e+00  3.2619621104505598e+00  3.1738106307576519e+00  3.0856591510646689e+00  2.9975076713717530e+00  2.9093561916786514e+00  2.8212047119855583e+00  2.7330532322920185e+00  2.6449017525981655e+00  2.5567502729029612e+00  2.4685987932058198e+00  2.3804473135038831e+00  2.2922958337926120e+00  2.2041443540618335e+00  2.1159928742881990e+00  2.0278413944260518e+00  1.9396899143605888e+00  1.8515384338632599e+00  1.7633869523790731e+00  1.6752354688237214e+00  1.5870839809187161e+00  1.4989324849295083e+00  1.4107809752331877e+00  1.3226294470791518e+00  1.2344779008520990e+00  1.1463263499856766e+00  1.0581748080652960e+00  9.7002323061559159e-01  8.8187136723659199e-01  7.9371866002891722e-01  7.0556444419462627e-01  6.1740861479110121e-01  5.2925189273763351e-01  4.4109549402505827e-01  3.5294184947141660e-01  2.6479822458580399e-01  1.7668476701604638e-01  8.8649444556786042e-02  1.2626579695427956e-03  7.0101248314102502e+00  6.9204724700854712e+00  6.8320699958360578e+00  6.7439237018712985e+00  6.6558453681631997e+00  6.5677336479496322e+00  6.4795869111166002e+00  6.3914382654533659e+00  6.3032849914655005e+00  6.2151340823624297e+00  6.1269819215724377e+00  6.0388307191537161e+00  5.9506790199811794e+00  5.8625276385170757e+00  5.7743760957792780e+00  5.6862246433684502e+00  5.5980731477337464e+00  5.5099216744958195e+00  5.4217701911698155e+00  5.3336187128412904e+00  5.2454672323810971e+00  5.1573157529529681e+00  5.0691642731063009e+00  4.9810127934612796e+00  4.8928613137385648e+00  4.8047098340537424e+00  4.7165583543551488e+00  4.6284068746634803e+00  4.5402553949694857e+00  4.4521039152767532e+00  4.3639524355836494e+00  4.2758009558907490e+00  4.1876494761977945e+00  4.0994979965048879e+00  4.0113465168119458e+00  3.9231950371190498e+00  3.8350435574261335e+00  3.7468920777332158e+00  3.6587405980403087e+00  3.5705891183473804e+00  3.4824376386544622e+00  3.3942861589615427e+00  3.3061346792686406e+00  3.2179831995757113e+00  3.1298317198827776e+00  3.0416802401897862e+00  2.9535287604967921e+00  2.8653772808035418e+00  2.7772258011101814e+00  2.6890743214160056e+00  2.6009228417210353e+00  2.5127713620232357e+00  2.4246198823214566e+00  2.3364684026090266e+00  2.2483169228780477e+00  2.1601654431037582e+00  2.0720139632438013e+00  1.9838624831917531e+00  1.8957110027305548e+00  1.8075595213552063e+00  1.7194080379885539e+00  1.6312565503132546e+00  1.5431050537752700e+00  1.4549535401234603e+00  1.3668019965797462e+00  1.2786504071578273e+00  1.1904987583888338e+00  1.1023470453371591e+00  1.0141952579614297e+00  9.2604330878044938e-01  8.3789090158298329e-01  7.4973750805240136e-01  6.6158273142038626e-01  5.7342687540774717e-01  4.8527099271211760e-01  3.9711700196692995e-01  3.0896976135454091e-01  2.2084261210117345e-01  1.3277187600923421e-01  4.4929911230652042e-02  7.0088860414984886e+00  6.9206928278081570e+00  6.8321839761877623e+00  6.7439163030969693e+00  6.6558019171755864e+00  6.5676569412730759e+00  6.4795123977418845e+00  6.3913637885799561e+00  6.3032101574969426e+00  6.2150601579039302e+00  6.1269076549481323e+00  6.0387566615610488e+00  5.9506049197762616e+00  5.8624535448766082e+00  5.7743020174290427e+00  5.6861505530141789e+00  5.5979990672633342e+00  5.5098475885874656e+00  5.4216961085996243e+00  5.3335446286593466e+00  5.245393149081061