<?xml version="1.0"?>
<VTKFile type="UnstructuredGrid"  version="0.1"  >
<UnstructuredGrid>
<Piece  NumberOfPoints="1369" NumberOfCells="2560">
<Points>
<DataArray  type="Float64"  NumberOfComponents="3"  format="ascii">0 0 0  0.75 0 0  1.5 0 0  2.25 0 0  3 0 0  3.75 0 0  4.5 0 0  5.25 0 0  6 0 0  6.75 0 0  7.5 0 0  8.25 0 0  9 0 0  9.75 0 0  10.5 0 0  11.25 0 0  12 0 0  12.75 0 0  13.5 0 0  14.25 0 0  15 0 0  15.75 0 0  16.5 0 0  17.25 0 0  18 0 0  18.75 0 0  19.5 0 0  20.25 0 0  21 0 0  21.75 0 0  22.5 0 0  23.25 0 0  24 0 0  24.75 0 0  25.5 0 0  26.25 0 0  27 0 0  27.75 0 0  28.5 0 0  29.25 0 0  30 0 0  30.75 0 0  31.5 0 0  32.25 0 0  33 0 0  33.75 0 0  34.5 0 0  35.25 0 0  36 0 0  36.75 0 0  37.5 0 0  38.25 0 0  39 0 0  39.75 0 0  40.5 0 0  41.25 0 0  42 0 0  42.75 0 0  43.5 0 0  44.25 0 0  45 0 0  45.75 0 0  46.5 0 0  47.25 0 0  48 0 0  48.75 0 0  49.5 0 0  50.25 0 0  51 0 0  51.75 0 0  52.5 0 0  53.25 0 0  54 0 0  54.75 0 0  55.5 0 0  56.25 0 0  57 0 0  57.75 0 0  58.5 0 0  59.25 0 0  60 0 0  0 0.5 0  0.75 0.5 0  1.5 0.5 0  2.25 0.5 0  3 0.5 0  3.75 0.5 0  4.5 0.5 0  5.25 0.5 0  6 0.5 0  6.75 0.5 0  7.5 0.5 0  8.25 0.5 0  9 0.5 0  9.75 0.5 0  10.5 0.5 0  11.25 0.5 0  12 0.5 0  12.75 0.5 0  13.5 0.5 0  14.25 0.5 0  15 0.5 0  15.75 0.5 0  16.5 0.5 0  17.25 0.5 0  18 0.5 0  18.75 0.5 0  19.5 0.5 0  20.25 0.5 0  21 0.5 0  21.75 0.5 0  22.5 0.5 0  23.25 0.5 0  24 0.5 0  24.75 0.5 0  25.5 0.5 0  26.25 0.5 0  27 0.5 0  27.75 0.5 0  28.5 0.5 0  29.25 0.5 0  30 0.5 0  30.75 0.5 0  31.5 0.5 0  32.25 0.5 0  33 0.5 0  33.75 0.5 0  34.5 0.5 0  35.25 0.5 0  36 0.5 0  36.75 0.5 0  37.5 0.5 0  38.25 0.5 0  39 0.5 0  39.75 0.5 0  40.5 0.5 0  41.25 0.5 0  42 0.5 0  42.75 0.5 0  43.5 0.5 0  44.25 0.5 0  45 0.5 0  45.75 0.5 0  46.5 0.5 0  47.25 0.5 0  48 0.5 0  48.75 0.5 0  49.5 0.5 0  50.25 0.5 0  51 0.5 0  51.75 0.5 0  52.5 0.5 0  53.25 0.5 0  54 0.5 0  54.75 0.5 0  55.5 0.5 0  56.25 0.5 0  57 0.5 0  57.75 0.5 0  58.5 0.5 0  59.25 0.5 0  60 0.5 0  0 1 0  0.75 1 0  1.5 1 0  2.25 1 0  3 1 0  3.75 1 0  4.5 1 0  5.25 1 0  6 1 0  6.75 1 0  7.5 1 0  8.25 1 0  9 1 0  9.75 1 0  10.5 1 0  11.25 1 0  12 1 0  12.75 1 0  13.5 1 0  14.25 1 0  15 1 0  15.75 1 0  16.5 1 0  17.25 1 0  18 1 0  18.75 1 0  19.5 1 0  20.25 1 0  21 1 0  21.75 1 0  22.5 1 0  23.25 1 0  24 1 0  24.75 1 0  25.5 1 0  26.25 1 0  27 1 0  27.75 1 0  28.5 1 0  29.25 1 0  30 1 0  30.75 1 0  31.5 1 0  32.25 1 0  33 1 0  33.75 1 0  34.5 1 0  35.25 1 0  36 1 0  36.75 1 0  37.5 1 0  38.25 1 0  39 1 0  39.75 1 0  40.5 1 0  41.25 1 0  42 1 0  42.75 1 0  43.5 1 0  44.25 1 0  45 1 0  45.75 1 0  46.5 1 0  47.25 1 0  48 1 0  48.75 1 0  49.5 1 0  50.25 1 0  51 1 0  51.75 1 0  52.5 1 0  53.25 1 0  54 1 0  54.75 1 0  55.5 1 0  56.25 1 0  57 1 0  57.75 1 0  58.5 1 0  59.25 1 0  60 1 0  0 1.5 0  0.75 1.5 0  1.5 1.5 0  2.25 1.5 0  3 1.5 0  3.75 1.5 0  4.5 1.5 0  5.25 1.5 0  6 1.5 0  6.75 1.5 0  7.5 1.5 0  8.25 1.5 0  9 1.5 0  9.75 1.5 0  10.5 1.5 0  11.25 1.5 0  12 1.5 0  12.75 1.5 0  13.5 1.5 0  14.25 1.5 0  15 1.5 0  15.75 1.5 0  16.5 1.5 0  17.25 1.5 0  18 1.5 0  18.75 1.5 0  19.5 1.5 0  20.25 1.5 0  21 1.5 0  21.75 1.5 0  22.5 1.5 0  23.25 1.5 0  24 1.5 0  24.75 1.5 0  25.5 1.5 0  26.25 1.5 0  27 1.5 0  27.75 1.5 0  28.5 1.5 0  29.25 1.5 0  30 1.5 0  30.75 1.5 0  31.5 1.5 0  32.25 1.5 0  33 1.5 0  33.75 1.5 0  34.5 1.5 0  35.25 1.5 0  36 1.5 0  36.75 1.5 0  37.5 1.5 0  38.25 1.5 0  39 1.5 0  39.75 1.5 0  40.5 1.5 0  41.25 1.5 0  42 1.5 0  42.75 1.5 0  43.5 1.5 0  44.25 1.5 0  45 1.5 0  45.75 1.5 0  46.5 1.5 0  47.25 1.5 0  48 1.5 0  48.75 1.5 0  49.5 1.5 0  50.25 1.5 0  51 1.5 0  51.75 1.5 0  52.5 1.5 0  53.25 1.5 0  54 1.5 0  54.75 1.5 0  55.5 1.5 0  56.25 1.5 0  57 1.5 0  57.75 1.5 0  58.5 1.5 0  59.25 1.5 0  60 1.5 0  0 2 0  0.75 2 0  1.5 2 0  2.25 2 0  3 2 0  3.75 2 0  4.5 2 0  5.25 2 0  6 2 0  6.75 2 0  7.5 2 0  8.25 2 0  9 2 0  9.75 2 0  10.5 2 0  11.25 2 0  12 2 0  12.75 2 0  13.5 2 0  14.25 2 0  15 2 0  15.75 2 0  16.5 2 0  17.25 2 0  18 2 0  18.75 2 0  19.5 2 0  20.25 2 0  21 2 0  21.75 2 0  22.5 2 0  23.25 2 0  24 2 0  24.75 2 0  25.5 2 0  26.25 2 0  27 2 0  27.75 2 0  28.5 2 0  29.25 2 0  30 2 0  30.75 2 0  31.5 2 0  32.25 2 0  33 2 0  33.75 2 0  34.5 2 0  35.25 2 0  36 2 0  36.75 2 0  37.5 2 0  38.25 2 0  39 2 0  39.75 2 0  40.5 2 0  41.25 2 0  42 2 0  42.75 2 0  43.5 2 0  44.25 2 0  45 2 0  45.75 2 0  46.5 2 0  47.25 2 0  48 2 0  48.75 2 0  49.5 2 0  50.25 2 0  51 2 0  51.75 2 0  52.5 2 0  53.25 2 0  54 2 0  54.75 2 0  55.5 2 0  56.25 2 0  57 2 0  57.75 2 0  58.5 2 0  59.25 2 0  60 2 0  0 2.5 0  0.75 2.5 0  1.5 2.5 0  2.25 2.5 0  3 2.5 0  3.75 2.5 0  4.5 2.5 0  5.25 2.5 0  6 2.5 0  6.75 2.5 0  7.5 2.5 0  8.25 2.5 0  9 2.5 0  9.75 2.5 0  10.5 2.5 0  11.25 2.5 0  12 2.5 0  12.75 2.5 0  13.5 2.5 0  14.25 2.5 0  15 2.5 0  15.75 2.5 0  16.5 2.5 0  17.25 2.5 0  18 2.5 0  18.75 2.5 0  19.5 2.5 0  20.25 2.5 0  21 2.5 0  21.75 2.5 0  22.5 2.5 0  23.25 2.5 0  24 2.5 0  24.75 2.5 0  25.5 2.5 0  26.25 2.5 0  27 2.5 0  27.75 2.5 0  28.5 2.5 0  29.25 2.5 0  30 2.5 0  30.75 2.5 0  31.5 2.5 0  32.25 2.5 0  33 2.5 0  33.75 2.5 0  34.5 2.5 0  35.25 2.5 0  36 2.5 0  36.75 2.5 0  37.5 2.5 0  38.25 2.5 0  39 2.5 0  39.75 2.5 0  40.5 2.5 0  41.25 2.5 0  42 2.5 0  42.75 2.5 0  43.5 2.5 0  44.25 2.5 0  45 2.5 0  45.75 2.5 0  46.5 2.5 0  47.25 2.5 0  48 2.5 0  48.75 2.5 0  49.5 2.5 0  50.25 2.5 0  51 2.5 0  51.75 2.5 0  52.5 2.5 0  53.25 2.5 0  54 2.5 0  54.75 2.5 0  55.5 2.5 0  56.25 2.5 0  57 2.5 0  57.75 2.5 0  58.5 2.5 0  59.25 2.5 0  60 2.5 0  0 3 0  0.75 3 0  1.5 3 0  2.25 3 0  3 3 0  3.75 3 0  4.5 3 0  5.25 3 0  6 3 0  6.75 3 0  7.5 3 0  8.25 3 0  9 3 0  9.75 3 0  10.5 3 0  11.25 3 0  12 3 0  12.75 3 0  13.5 3 0  14.25 3 0  15 3 0  15.75 3 0  16.5 3 0  17.25 3 0  18 3 0  18.75 3 0  19.5 3 0  20.25 3 0  21 3 0  21.75 3 0  22.5 3 0  23.25 3 0  24 3 0  24.75 3 0  25.5 3 0  26.25 3 0  27 3 0  27.75 3 0  28.5 3 0  29.25 3 0  30 3 0  30.75 3 0  31.5 3 0  32.25 3 0  33 3 0  33.75 3 0  34.5 3 0  35.25 3 0  36 3 0  36.75 3 0  37.5 3 0  38.25 3 0  39 3 0  39.75 3 0  40.5 3 0  41.25 3 0  42 3 0  42.75 3 0  43.5 3 0  44.25 3 0  45 3 0  45.75 3 0  46.5 3 0  47.25 3 0  48 3 0  48.75 3 0  49.5 3 0  50.25 3 0  51 3 0  51.75 3 0  52.5 3 0  53.25 3 0  54 3 0  54.75 3 0  55.5 3 0  56.25 3 0  57 3 0  57.75 3 0  58.5 3 0  59.25 3 0  60 3 0  0 3.5 0  0.75 3.5 0  1.5 3.5 0  2.25 3.5 0  3 3.5 0  3.75 3.5 0  4.5 3.5 0  5.25 3.5 0  6 3.5 0  6.75 3.5 0  7.5 3.5 0  8.25 3.5 0  9 3.5 0  9.75 3.5 0  10.5 3.5 0  11.25 3.5 0  12 3.5 0  12.75 3.5 0  13.5 3.5 0  14.25 3.5 0  15 3.5 0  15.75 3.5 0  16.5 3.5 0  17.25 3.5 0  18 3.5 0  18.75 3.5 0  19.5 3.5 0  20.25 3.5 0  21 3.5 0  21.75 3.5 0  22.5 3.5 0  23.25 3.5 0  24 3.5 0  24.75 3.5 0  25.5 3.5 0  26.25 3.5 0  27 3.5 0  27.75 3.5 0  28.5 3.5 0  29.25 3.5 0  30 3.5 0  30.75 3.5 0  31.5 3.5 0  32.25 3.5 0  33 3.5 0  33.75 3.5 0  34.5 3.5 0  35.25 3.5 0  36 3.5 0  36.75 3.5 0  37.5 3.5 0  38.25 3.5 0  39 3.5 0  39.75 3.5 0  40.5 3.5 0  41.25 3.5 0  42 3.5 0  42.75 3.5 0  43.5 3.5 0  44.25 3.5 0  45 3.5 0  45.75 3.5 0  46.5 3.5 0  47.25 3.5 0  48 3.5 0  48.75 3.5 0  49.5 3.5 0  50.25 3.5 0  51 3.5 0  51.75 3.5 0  52.5 3.5 0  53.25 3.5 0  54 3.5 0  54.75 3.5 0  55.5 3.5 0  56.25 3.5 0  57 3.5 0  57.75 3.5 0  58.5 3.5 0  59.25 3.5 0  60 3.5 0  0 4 0  0.75 4 0  1.5 4 0  2.25 4 0  3 4 0  3.75 4 0  4.5 4 0  5.25 4 0  6 4 0  6.75 4 0  7.5 4 0  8.25 4 0  9 4 0  9.75 4 0  10.5 4 0  11.25 4 0  12 4 0  12.75 4 0  13.5 4 0  14.25 4 0  15 4 0  15.75 4 0  16.5 4 0  17.25 4 0  18 4 0  18.75 4 0  19.5 4 0  20.25 4 0  21 4 0  21.75 4 0  22.5 4 0  23.25 4 0  24 4 0  24.75 4 0  25.5 4 0  26.25 4 0  27 4 0  27.75 4 0  28.5 4 0  29.25 4 0  30 4 0  30.75 4 0  31.5 4 0  32.25 4 0  33 4 0  33.75 4 0  34.5 4 0  35.25 4 0  36 4 0  36.75 4 0  37.5 4 0  38.25 4 0  39 4 0  39.75 4 0  40.5 4 0  41.25 4 0  42 4 0  42.75 4 0  43.5 4 0  44.25 4 0  45 4 0  45.75 4 0  46.5 4 0  47.25 4 0  48 4 0  48.75 4 0  49.5 4 0  50.25 4 0  51 4 0  51.75 4 0  52.5 4 0  53.25 4 0  54 4 0  54.75 4 0  55.5 4 0  56.25 4 0  57 4 0  57.75 4 0  58.5 4 0  59.25 4 0  60 4 0  0.375 0.25 0  1.125 0.25 0  1.875 0.25 0  2.625 0.25 0  3.375 0.25 0  4.125 0.25 0  4.875 0.25 0  5.625 0.25 0  6.375 0.25 0  7.125 0.25 0  7.875 0.25 0  8.625 0.25 0  9.375 0.25 0  10.125 0.25 0  10.875 0.25 0  11.625 0.25 0  12.375 0.25 0  13.125 0.25 0  13.875 0.25 0  14.625 0.25 0  15.375 0.25 0  16.125 0.25 0  16.875 0.25 0  17.625 0.25 0  18.375 0.25 0  19.125 0.25 0  19.875 0.25 0  20.625 0.25 0  21.375 0.25 0  22.125 0.25 0  22.875 0.25 0  23.625 0.25 0  24.375 0.25 0  25.125 0.25 0  25.875 0.25 0  26.625 0.25 0  27.375 0.25 0  28.125 0.25 0  28.875 0.25 0  29.625 0.25 0  30.375 0.25 0  31.125 0.25 0  31.875 0.25 0  32.625 0.25 0  33.375 0.25 0  34.125 0.25 0  34.875 0.25 0  35.625 0.25 0  36.375 0.25 0  37.125 0.25 0  37.875 0.25 0  38.625 0.25 0  39.375 0.25 0  40.125 0.25 0  40.875 0.25 0  41.625 0.25 0  42.375 0.25 0  43.125 0.25 0  43.875 0.25 0  44.625 0.25 0  45.375 0.25 0  46.125 0.25 0  46.875 0.25 0  47.625 0.25 0  48.375 0.25 0  49.125 0.25 0  49.875 0.25 0  50.625 0.25 0  51.375 0.25 0  52.125 0.25 0  52.875 0.25 0  53.625 0.25 0  54.375 0.25 0  55.125 0.25 0  55.875 0.25 0  56.625 0.25 0  57.375 0.25 0  58.125 0.25 0  58.875 0.25 0  59.625 0.25 0  0.375 0.75 0  1.125 0.75 0  1.875 0.75 0  2.625 0.75 0  3.375 0.75 0  4.125 0.75 0  4.875 0.75 0  5.625 0.75 0  6.375 0.75 0  7.125 0.75 0  7.875 0.75 0  8.625 0.75 0  9.375 0.75 0  10.125 0.75 0  10.875 0.75 0  11.625 0.75 0  12.375 0.75 0  13.125 0.75 0  13.875 0.75 0  14.625 0.75 0  15.375 0.75 0  16.125 0.75 0  16.875 0.75 0  17.625 0.75 0  18.375 0.75 0  19.125 0.75 0  19.875 0.75 0  20.625 0.75 0  21.375 0.75 0  22.125 0.75 0  22.875 0.75 0  23.625 0.75 0  24.375 0.75 0  25.125 0.75 0  25.875 0.75 0  26.625 0.75 0  27.375 0.75 0  28.125 0.75 0  28.875 0.75 0  29.625 0.75 0  30.375 0.75 0  31.125 0.75 0  31.875 0.75 0  32.625 0.75 0  33.375 0.75 0  34.125 0.75 0  34.875 0.75 0  35.625 0.75 0  36.375 0.75 0  37.125 0.75 0  37.875 0.75 0  38.625 0.75 0  39.375 0.75 0  40.125 0.75 0  40
[...]
<PointData  Scalars="f_8-1"> 
<DataArray  type="Float64"  Name="f_8-1"  format="ascii">7.0502179101852827e+00  6.9646952420890047e+00  6.8765089612287928e+00  6.7883979366012230e+00  6.7002561508755587e+00  6.6121082555494848e+00  6.5239584424106445e+00  6.4358083196768838e+00  6.3476583147222208e+00  6.2595084883273193e+00  6.1713588010120581e+00  6.0832092022599369e+00  5.9950596548811426e+00  5.9069101353512412e+00  5.8187606304245536e+00  5.7306111328852296e+00  5.6424616390502322e+00  5.5543121470246462e+00  5.4661626558888772e+00  5.3780131651801124e+00  5.2898636746806256e+00  5.2017141842812773e+00  5.1135646939311847e+00  5.0254152036049593e+00  4.9372657132904250e+00  4.8491162229817588e+00  4.7609667326758265e+00  4.6728172423713898e+00  4.5846677520675767e+00  4.4965182617641730e+00  4.4083687714608848e+00  4.3202192811577591e+00  4.2320697908545553e+00  4.1439203005515637e+00  4.0557708102482719e+00  3.9676213199455264e+00  3.8794718296418549e+00  3.7913223393397852e+00  3.7031728490349343e+00  3.6150233587348821e+00  3.5268738684266610e+00  3.4387243781322301e+00  3.3505748878146742e+00  3.2624253975355395e+00  3.1742759071930777e+00  3.0861264169538765e+00  2.9979769265477669e+00  2.9098274364081518e+00  2.8216779458465302e+00  2.7335284559438300e+00  2.6453789650196748e+00  2.5572294756527012e+00  2.4690799839224002e+00  2.3809304957033368e+00  2.2927810022603610e+00  2.2046315163576145e+00  2.1164820194276621e+00  2.0283325378345780e+00  1.9401830340930795e+00  1.8520335593757775e+00  1.7638840431354605e+00  1.6757345759155715e+00  1.5875850423116469e+00  1.4994355784041364e+00  1.4112860581356115e+00  1.3231365897157534e+00  1.2349871628375835e+00  1.1468371406236051e+00  1.0586863582952952e+00  9.7053013571885760e-01  8.8236847524473239e-01  7.9418914402415275e-01  7.0600767082556948e-01  6.1780361871530165e-01  5.2964632595215877e-01  4.4145138349498475e-01  3.5344453566546996e-01  2.6518367952649513e-01  1.7769807219781708e-01  8.7519393900766768e-02  2.2178989991052255e-03  7.0535575036667293e+00  6.9644357639493633e+00  6.8764648316814858e+00  6.7883347769678029e+00  6.7001929775913576e+00  6.6120447891657381e+00  6.5238950020119253e+00  6.4357449503831621e+00  6.3475950131026471e+00  6.2594452345847174e+00  6.1712955779988201e+00  6.0831459971890984e+00  5.9949964598880729e+00  5.9068469456613597e+00  5.8186974435390137e+00  5.7305479473978558e+00  5.6423984542864165e+00  5.5542489626055618e+00  5.4660994716491311e+00  5.3779499810219313e+00  5.2898004905663711e+00  5.2016510001858300e+00  5.1135015098466692e+00  5.0253520195246688e+00  4.9372025292129607e+00  4.8490530389051854e+00  4.7609035486000222e+00  4.6727540582957507e+00  4.5846045679921756e+00  4.4964550776887640e+00  4.4083055873856072e+00  4.3201560970823545e+00  4.2320066067794002e+00  4.1438571164759992e+00  4.0557076261734277e+00  3.9675581358694387e+00  3.8794086455678953e+00  3.7912591552622086e+00  3.7031096649634598e+00  3.6149601746532034e+00  3.5268106843618803e+00  3.4386611940397462e+00  3.3505117037671437e+00  3.2623622134158405e+00  3.1742127231879409e+00  3.0860632327689772e+00  2.9979137426414812e+00  2.9097642520753930e+00  2.8216147621579584e+00  2.7334652712950644e+00  2.6453157817817252e+00  2.5571662903706942e+00  2.4690168015552723e+00  2.3808673092416170e+00  2.2927178214429693e+00  2.2045683278931074e+00  2.1164188410574303e+00  2.0282693464463968e+00  1.9401198587525221e+00  1.8519703650514747e+00  1.7638208689427115e+00  1.6756713829719889e+00  1.5875218581169526e+00  1.4993724056265549e+00  1.4112228238713298e+00  1.3230735010619854e+00  1.2349237457876527e+00  1.1467742972941501e+00  1.0586222097573059e+00  9.7046763403037772e-01  8.8230160089852649e-01  7.9412745117099182e-01  7.0593433597525101e-01  6.1774822946985253e-01  5.2956058215500856e-01  4.4142676171081757e-01  3.5330251212003133e-01  2.6525687571382656e-01  1.7717854222989579e-01  8.8345284964349430e-02  -5.6293382921324164e-04  7.0533982663636472e+00  6.9647349523378921e+00  6.8764775140608725e+00  6.7883118795290480e+00  6.7001553305028176e+00  6.6120024377802338e+00  6.5238510419896354e+00  6.4357004301653529e+00  6.3475502837930451e+00  6.2594004180035450e+00  6.1712507197978708e+00  6.0831011172174687e+00  5.9949515678650176e+00  5.9068020469335139e+00  5.8186525410920522e+00  5.7305030429458954e+00  5.6423535487652838e+00  5.5542040565306028e+00  5.4660545652876431e+00  5.3779050745161348e+00  5.2897555839874419e+00  5.2016060935707200e+00  5.1134566032135407e+00  5.0253071128826567e+00  4.9371576225665992e+00  4.8490081322566514e+00  4.7608586419504251e+00  4.6727091516456554e+00  4.5845596613417650e+00  4.4964101710383648e+00  4.4082606807348848e+00  4.3201111904320548e+00  4.2319617001283003e+00  4.1438122098262591e+00  4.0556627195213251e+00  3.9675132292213720e+00  3.8793637389129829e+00  3.7912142486187750e+00  3.7030647583009886e+00  3.6149152680220218e+00  3.5267657776798065e+00  3.4386162874394661e+00  3.3504667970369439e+00  3.2623173068893396e+00  3.1741678163462961e+00  3.0860183264078791e+00  2.9978688355584548e+00  2.9097193460591395e+00  2.8215698545916408e+00  2.7334203659377798e+00  2.6452708733368571e+00  2.5571213861376281e+00  2.4689718917136179e+00  2.3808224066108274e+00  2.2926729098627492e+00  2.2045234267133087e+00  2.1163739286588030e+00  2.0282244439004971e+00  1.9400749507772794e+00  1.8519254503221352e+00  1.7637759821632948e+00  1.6756264251869164e+00  1.5874770342546825e+00  1.4993273225623123e+00  1.4111781337250517e+00  1.3230280145990410e+00  1.2348791465083957e+00  1.1467273285497852e+00  1.0585771515561082e+00  9.7041684661900818e-01  8.8225697449596696e-01  7.9407266628094209e-01  7.0589729925079459e-01  6.1769129950003443e-01  5.2954358482289021e-01  4.4135015926139998e-01  3.5328286542233400e-01  2.6504854041225262e-01  1.7701911828356504e-01  8.8098489581948311e-02  3.0196090331592769e-04  7.0534046535579202e+00  6.9649009402717521e+00  6.8765776445921114e+00  6.7883656097395351e+00  6.7001932774596673e+00  6.6120347869164018e+00  6.5238814180596076e+00  6.4357300805908908e+00  6.3475796404410110e+00  6.2594296408224448e+00  6.1712798739304100e+00  6.0831302340164042e+00  5.9949806637888239e+00  5.9068311313955171e+00  5.8186816192703805e+00  5.7305321178015856e+00  5.6423826218573057e+00  5.5542331287266160e+00  5.4660836370180510e+00  5.3779341460181467e+00  5.2897846553715677e+00  5.2016351648988577e+00  5.1134856745124502e+00  5.0253361841681761e+00  4.9371866938448958e+00  4.8490372035317728e+00  4.7608877132237986e+00  4.6727382229181895e+00  4.5845887326140238e+00  4.4964392423101467e+00  4.4082897520070849e+00  4.3201402617032905e+00  4.2319907714011071e+00  4.1438412810963055e+00  4.0556917907960823e+00  3.9675423004880987e+00  3.8793928101932567e+00  3.7912433198764162e+00  3.7030938295960625e+00  3.6149443392558132e+00  3.5267948490127932e+00  3.4386453586137136e+00  3.3504958684621156e+00  3.2623463779229436e+00  3.1741968879824705e+00  3.0860473971299944e+00  2.9978979076454273e+00  2.9097484161408662e+00  2.8215989275659177e+00  2.7334494348166922e+00  2.6452999478849879e+00  2.5571504530144562e+00  2.4690009686541847e+00  2.3808514707619723e+00  2.2927019894295149e+00  2.2045524887669110e+00  2.1164030080816225e+00  2.0282535096052441e+00  1.9401040176626501e+00  1.8519545398345731e+00  1.7638049988380795e+00  1.6756555922504199e+00  1.5875059006227632e+00  1.4993566790456980e+00  1.4112065544989003e+00  1.3230576614406984e+00  1.2349060514134282e+00  1.1467569156172135e+00  1.0585994833831016e+00  9.7044624699600768e-01  8.8227150285780898e-01  7.9410945778647823e-01  7.0590708517593992e-01  6.1775604168454101e-01  5.2953749917956694e-01  4.4145110071154697e-01  3.5319288936090038e-01  2.6517648732088756e-01  1.7667740301033402e-01  8.8527222204850986e-02  -1.9902567278727638e-04  7.0534087544483102e+00  6.9649476980060587e+00  6.8766132551757586e+00  6.7883862262796075e+00  6.7002076190518380e+00  6.6120469095049108e+00  6.5238927541144518e+00  6.4357411297389326e+00  6.3475905758782334e+00  6.2594405256433792e+00  6.1712907334660621e+00  6.0831410799564631e+00  5.9949915021791682e+00  5.9068419656231832e+00  5.8186924512274283e+00  5.7305429485490915e+00  5.6423934519668917e+00  5.5542439585079242e+00  5.4660944666306683e+00  5.3779449755462947e+00  5.2897954848569997e+00  5.2016459943633651e+00  5.1134965039664166e+00  5.0253470136170817e+00  4.9371975232912204e+00  4.8490480329769001e+00  4.7608985426682437e+00  4.6727490523624624e+00  4.5845995620579094e+00  4.4964500717543663e+00  4.4083005814505851e+00  4.3201510911479550e+00  4.2320016008437014e+00  4.1438521105424488e+00  4.0557026202361408e+00  3.9675531299385005e+00  3.8794036396262350e+00  3.7912541493384531e+00  3.7031046590100778e+00  3.6149551687483554e+00  3.5268056783783361e+00  3.4386561881822693e+00  3.3505066977100726e+00  3.2623572076706826e+00  3.1742077169616629e+00  3.0860582272739578e+00  2.9979087360509440e+00  2.9097592470984242e+00  2.8216097548422669e+00  2.7334602673002704e+00  2.6453107731564987e+00  2.5571612880290608e+00  2.4690117908717641e+00  2.3808623091754977e+00  2.2927128082721193e+00  2.2045633295709246e+00  2.1164138269543935e+00  2.0282643447924089e+00  1.9401148516795921e+00  1.8519653417176201e+00  1.7638158930512120e+00  1.6756662851753212e+00  1.5875169670370186e+00  1.4993670710956286e+00  1.4112180362200879e+00  1.3230672315647991e+00  1.2349184009263825e+00  1.1467642106583384e+00  1.0586136542694158e+00  9.7044819694672679e-01  8.8229105253947837e-01  7.9410201359000498e-01  7.0594328342351620e-01  6.1773093206407759e-01  5.2960812158445869e-01  4.4137867994702273e-01  3.5331765564103795e-01  2.6500001138286139e-01  1.7686629209082674e-01  8.8310300255210736e-02  1.1655870836368674e-04  7.0534046535579247e+00  6.9649009402717486e+00  6.8765776445921265e+00  6.7883656097395031e+00  6.7001932774596336e+00  6.6120347869163645e+00  6.5238814180596165e+00  6.4357300805908864e+00  6.3475796404409950e+00  6.2594296408224261e+00  6.1712798739304224e+00  6.0831302340163829e+00  5.9949806637888496e+00  5.9068311313955348e+00  5.8186816192703610e+00  5.7305321178015722e+00  5.6423826218573261e+00  5.5542331287266196e+00  5.4660836370180670e+00  5.3779341460181334e+00  5.2897846553715882e+00  5.2016351648988506e+00  5.1134856745124537e+00  5.0253361841681770e+00  4.9371866938449003e+00  4.8490372035317586e+00  4.7608877132237906e+00  4.6727382229182046e+00  4.5845887326140069e+00  4.4964392423101405e+00  4.4082897520070832e+00  4.3201402617032949e+00  4.2319907714010974e+00  4.1438412810963099e+00  4.0556917907960948e+00  3.9675423004881032e+00  3.8793928101932540e+00  3.7912433198764064e+00  3.7030938295960505e+00  3.6149443392558105e+00  3.5267948490127878e+00  3.4386453586137060e+00  3.3504958684621142e+00  3.2623463779229449e+00  3.1741968879824740e+00  3.0860473971299931e+00  2.9978979076454317e+00  2.9097484161408680e+00  2.8215989275659132e+00  2.7334494348166993e+00  2.6452999478850012e+00  2.5571504530144531e+00  2.4690009686541821e+00  2.3808514707619732e+00  2.2927019894295144e+00  2.2045524887669110e+00  2.1164030080816176e+00  2.0282535096052481e+00  1.9401040176626507e+00  1.8519545398345660e+00  1.7638049988380826e+00  1.6756555922504133e+00  1.5875059006227614e+00  1.4993566790456969e+00  1.4112065544989025e+00  1.3230576614406946e+00  1.2349060514134231e+00  1.1467569156172090e+00  1.0585994833831018e+00  9.7044624699600812e-01  8.8227150285780520e-01  7.9410945778647957e-01  7.0590708517593681e-01  6.1775604168454601e-01  5.2953749917956527e-01  4.4145110071154497e-01  3.5319288936090176e-01  2.6517648732088828e-01  1.7667740301033300e-01  8.8527222204849154e-02  -1.9902567278939182e-04  7.0533982663636561e+00  6.9647349523379072e+00  6.8764775140608867e+00  6.7883118795290489e+00  6.7001553305027839e+00  6.6120024377802009e+00  6.5238510419896665e+00  6.4357004301653369e+00  6.3475502837930282e+00  6.2594004180035396e+00  6.1712507197978725e+00  6.0831011172174696e+00  5.9949515678650194e+00  5.9068020469335076e+00  5.8186525410920291e+00  5.7305030429458998e+00  5.6423535487652918e+00  5.5542040565306143e+00  5.4660545652876431e+00  5.3779050745161330e+00  5.2897555839874588e+00  5.2016060935707396e+00  5.1134566032135318e+00  5.0253071128826745e+00  4.9371576225665992e+00  4.8490081322566194e+00  4.7608586419504224e+00  4.6727091516456563e+00  4.5845596613417525e+00  4.4964101710383542e+00  4.4082606807348839e+00  4.3201111904320451e+00  4.2319617001283039e+00  4.1438122098262671e+00  4.0556627195213242e+00  3.9675132292213875e+00  3.8793637389129803e+00  3.7912142486187665e+00  3.7030647583009846e+00  3.6149152680220129e+00  3.5267657776797963e+00  3.4386162874394683e+00  3.3504667970369413e+00  3.2623173068893463e+00  3.1741678163462899e+00  3.0860183264078747e+00  2.9978688355584526e+00  2.9097193460591346e+00  2.8215698545916341e+00  2.7334203659377878e+00  2.6452708733368695e+00  2.5571213861376219e+00  2.4689718917136170e+00  2.3808224066108248e+00  2.2926729098627474e+00  2.2045234267133136e+00  2.1163739286587977e+00  2.0282244439004948e+00  1.9400749507772770e+00  1.8519254503221270e+00  1.7637759821632972e+00  1.6756264251869151e+00  1.5874770342546822e+00  1.4993273225623083e+00  1.4111781337250533e+00  1.3230280145990392e+00  1.2348791465083881e+00  1.1467273285497841e+00  1.0585771515561089e+00  9.7041684661900351e-01  8.8225697449596585e-01  7.9407266628094242e-01  7.0589729925079492e-01  6.1769129950003354e-01  5.2954358482289354e-01  4.4135015926139798e-01  3.5328286542232884e-01  2.6504854041225245e-01  1.7701911828356354e-01  8.8098489581945744e-02  3.0196090331686043e-04  7.0535575036667248e+00  6.9644357639493704e+00  6.8764648316815231e+00  6.7883347769678046e+00  6.7001929775913389e+00  6.6120447891657159e+00  6.5238950020119297e+00  6.4357449503831754e+00  6.3475950131026169e+00  6.2594452345847209e+00  6.1712955779988086e+00  6.0831459971890869e+00  5.9949964598880481e+00  5.9068469456613490e+00  5.8186974435389978e+00  5.7305479473978549e+00  5.6423984542864378e+00  5.5542489626055804e+00  5.4660994716491320e+00  5.3779499810219411e+00  5.2898004905663862e+00  5.2016510001858407e+00  5.1135015098466701e+00  5.0253520195246946e+00  4.9372025292129580e+00  4.8490530389051623e+00  4.7609035486000062e+00  4.6727540582957428e+00  4.5846045679921605e+00  4.4964550776887666e+00  4.4083055873855930e+00  4.3201560970823580e+00  4.2320066067794038e+00  4.1438571164759992e+00  4.0557076261734304e+00  3.9675581358694525e+00  3.8794086455678936e+00  3.7912591552622064e+00  3.7031096649634603e+00  3.6149601746532039e+00  3.5268106843618674e+00  3.4386611940397445e+00  3.3505117037671317e+00  3.2623622134158481e+00  3.1742127231879338e+00  3.0860632327689701e+00  2.9979137426414701e+00  2.9097642520753886e+00  2.8216147621579433e+00  2.7334652712950622e+00  2.6453157817817345e+00  2.5571662903706800e+00  2.4690168015552620e+00  2.3808673092416099e+00  2.2927178214429653e+00  2.2045683278931056e+00  2.1164188410574325e+00  2.0282693464463915e+00  1.9401198587525119e+00  1.8519703650514663e+00  1.7638208689427133e+00  1.6756713829719900e+00  1.5875218581169548e+00  1.4993724056265523e+00  1.4112228238713322e+00  1.3230735010619818e+00  1.2349237457876487e+00  1.1467742972941486e+00  1.0586222097573081e+00  9.7046763403037584e-01  8.8230160089852505e-01  7.9412745117099270e-01  7.0593433597525757e-01  6.1774822946984920e-01  5.2956058215501067e-01  4.4142676171081696e-01  3.5330251212002944e-01  2.6525687571382611e-01  1.7717854222989426e-01  8.8345284964348139e-02  -5.6293382921263231e-04  7.0502179101852827e+00  6.9646952420890189e+00  6.8765089612288328e+00  6.7883979366012319e+00  6.7002561508755418e+00  6.6121082555494732e+00  6.5239584424106534e+00  6.4358083196769043e+00  6.3476583147221897e+00  6.2595084883273104e+00  6.1713588010120510e+00  6.0832092022599147e+00  5.9950596548811239e+00  5.9069101353512261e+00  5.8187606304245358e+00  5.7306111328852305e+00  5.6424616390502536e+00  5.5543121470246648e+00  5.4661626558888745e+00  5.3780131651801248e+00  5.2898636746806353e+00  5.2017141842812791e+00  5.1135646939311927e+00  5.0254152036049771e+00  4.9372657132904116e+00  4.8491162229817384e+00  4.7609667326758096e+00  4.6728172423713685e+00  4.5846677520675652e+00  4.4965182617641792e+00  4.4083687714608768e+00  4.3202192811577609e+00  4.2320697908545517e+00  4.1439203005515610e+00  4.0557708102482799e+00  3.9676213199455401e+00  3.8794718296418558e+00  3.7913223393397852e+00  3.7031728490349400e+00  3.6150233587348755e+00  3.5268738684266552e+00  3.4387243781322243e+00  3.3505748878146648e+00  3.2624253975355413e+00  3.1742759071930640e+00  3.0861264169538720e+00  2.9979769265477598e+00  2.9098274364081358e+00  2.8216779458465222e+00  2.7335284559438238e+00  2.6453789650196833e+00  2.5572294756526817e+00  2.4690799839223958e+00  2.3809304957033302e+00  2.2927810022603570e+00  2.2046315163576105e+00  2.1164820194276706e+00  2.0283325378345745e+00  1.9401830340930699e+00  1.8520335593757740e+00  1.7638840431354581e+00  1.6757345759155715e+00  1.5875850423116487e+00  1.4994355784041333e+00  1.4112860581356066e+00  1.3231365897157510e+00  1.2349871628375801e+00  1.1468371406236053e+00  1.0586863582952939e+00  9.7053013571885505e-01  8.8236847524472983e-01  7.9418914402415375e-01  7.0600767082557603e-01  6.1780361871530010e-01  5.2964632595215633e-01  4.4145138349498392e-01  3.5344453566546719e-01  2.6518367952649419e-01  1.7769807219781517e-01  8.7519393900765172e-02  2.2178989991045580e-03  7.0081511112073454e+00  6.9203193721396197e+00  6.8322115982990415e+00  6.7440811927000270e+00  6.6559365569483155e+00  6.5677877747133699e+00  6.4796378969261674e+00  6.3914879019060189e+00  6.3033380353586352e+00  6.2151883098119152e+00  6.1270386857425558e+00  6.0388891235431661e+00  5.9507395961548344e+00  5.8625900871333707e+00  5.7744405875905800e+00  5.6862910927514303e+00  5.5981416002586704e+00  5.5099921088890147e+00  5.4218426180758428e+00  5.3336931275222748e+00  5.2455436370997246e+00  5.1573941467368130e+00  5.0692446564053588e+00  4.9810951660876244e+00  4.8929456757777841e+00  4.8047961854710453e+00  4.7166466951663129e+00  4.6284972048623230e+00  4.5403477145588482e+00  4.4521982242555147e+00  4.3640487339523633e+00  4.2758992436491621e+00  4.1877497533461199e+00  4.0996002630429222e+00  4.0114507727399964e+00  3.9233012824366438e+00  3.8351517921340221e+00  3.7470023018301224e+00  3.6588528115284031e+00  3.5707033212230783e+00  3.4825538309237056e+00  3.3944043406145568e+00  3.3062548503212437e+00  3.2181053600024936e+00  3.1299558697240824e+00  3.0418063793823449e+00  2.9536568891383075e+00  2.8655073987448629e+00  2.7773579085750311e+00  2.6892084180726550e+00  2.6010589280508460e+00  2.5129094373341281e+00  2.4247599475795720e+00  2.3366104564693377e+00  2.2484609671286013e+00  2.1603114753380708e+00  2.0721619864323095e+00  1.9840124934847678e+00  1.8958630042519222e+00  1.8077135091692385e+00  1.7195640161886272e+00  1.6314145179220845e+00  1.5432650157879670e+00  1.4551155280749548e+00  1.3669660294958939e+00  1.2788165812435757e+00  1.1906668477782010e+00  1.1025163829512896e+00  1.0143627956478469e+00  9.2620347839083605e-01  8.3803276550644812e-01  7.4985123234325035e-01  6.6165929646940225e-01  5.7347571817442644e-01  4.8530856738447514e-01  3.9718828363101644e-01  3.0910763227502214e-01  2.2102497488800163e-01  1.3275481539833769e-01  4.2879370726234635e-02  7.0090399333839324e+00  6.9205553406780878e+00  6.8324358702513139e+00  6.7442899780937520e+00  6.6561409409626995e+00  6.5679906881830794e+00  6.4798403577771557e+00  6.3916902359199108e+00  6.3035403419752880e+00  6.2153906148158349e+00  6.1272409932827019e+00  6.0390914332126764e+00  5.9509419070120213e+00  5.8627923985658068e+00  5.7746428992478558e+00  5.6864934044857929e+00  5.5983439120086675e+00  5.5101944206387401e+00  5.4220449298208138e+00  5.3338954392637712e+00  5.24574594883