<?xml version="1.0"?>
<VTKFile type="UnstructuredGrid"  version="0.1"  >
<UnstructuredGrid>
<Piece  NumberOfPoints="1369" NumberOfCells="2560">
<Points>
<DataArray  type="Float64"  NumberOfComponents="3"  format="ascii">0 0 0  0.75 0 0  1.5 0 0  2.25 0 0  3 0 0  3.75 0 0  4.5 0 0  5.25 0 0  6 0 0  6.75 0 0  7.5 0 0  8.25 0 0  9 0 0  9.75 0 0  10.5 0 0  11.25 0 0  12 0 0  12.75 0 0  13.5 0 0  14.25 0 0  15 0 0  15.75 0 0  16.5 0 0  17.25 0 0  18 0 0  18.75 0 0  19.5 0 0  20.25 0 0  21 0 0  21.75 0 0  22.5 0 0  23.25 0 0  24 0 0  24.75 0 0  25.5 0 0  26.25 0 0  27 0 0  27.75 0 0  28.5 0 0  29.25 0 0  30 0 0  30.75 0 0  31.5 0 0  32.25 0 0  33 0 0  33.75 0 0  34.5 0 0  35.25 0 0  36 0 0  36.75 0 0  37.5 0 0  38.25 0 0  39 0 0  39.75 0 0  40.5 0 0  41.25 0 0  42 0 0  42.75 0 0  43.5 0 0  44.25 0 0  45 0 0  45.75 0 0  46.5 0 0  47.25 0 0  48 0 0  48.75 0 0  49.5 0 0  50.25 0 0  51 0 0  51.75 0 0  52.5 0 0  53.25 0 0  54 0 0  54.75 0 0  55.5 0 0  56.25 0 0  57 0 0  57.75 0 0  58.5 0 0  59.25 0 0  60 0 0  0 0.5 0  0.75 0.5 0  1.5 0.5 0  2.25 0.5 0  3 0.5 0  3.75 0.5 0  4.5 0.5 0  5.25 0.5 0  6 0.5 0  6.75 0.5 0  7.5 0.5 0  8.25 0.5 0  9 0.5 0  9.75 0.5 0  10.5 0.5 0  11.25 0.5 0  12 0.5 0  12.75 0.5 0  13.5 0.5 0  14.25 0.5 0  15 0.5 0  15.75 0.5 0  16.5 0.5 0  17.25 0.5 0  18 0.5 0  18.75 0.5 0  19.5 0.5 0  20.25 0.5 0  21 0.5 0  21.75 0.5 0  22.5 0.5 0  23.25 0.5 0  24 0.5 0  24.75 0.5 0  25.5 0.5 0  26.25 0.5 0  27 0.5 0  27.75 0.5 0  28.5 0.5 0  29.25 0.5 0  30 0.5 0  30.75 0.5 0  31.5 0.5 0  32.25 0.5 0  33 0.5 0  33.75 0.5 0  34.5 0.5 0  35.25 0.5 0  36 0.5 0  36.75 0.5 0  37.5 0.5 0  38.25 0.5 0  39 0.5 0  39.75 0.5 0  40.5 0.5 0  41.25 0.5 0  42 0.5 0  42.75 0.5 0  43.5 0.5 0  44.25 0.5 0  45 0.5 0  45.75 0.5 0  46.5 0.5 0  47.25 0.5 0  48 0.5 0  48.75 0.5 0  49.5 0.5 0  50.25 0.5 0  51 0.5 0  51.75 0.5 0  52.5 0.5 0  53.25 0.5 0  54 0.5 0  54.75 0.5 0  55.5 0.5 0  56.25 0.5 0  57 0.5 0  57.75 0.5 0  58.5 0.5 0  59.25 0.5 0  60 0.5 0  0 1 0  0.75 1 0  1.5 1 0  2.25 1 0  3 1 0  3.75 1 0  4.5 1 0  5.25 1 0  6 1 0  6.75 1 0  7.5 1 0  8.25 1 0  9 1 0  9.75 1 0  10.5 1 0  11.25 1 0  12 1 0  12.75 1 0  13.5 1 0  14.25 1 0  15 1 0  15.75 1 0  16.5 1 0  17.25 1 0  18 1 0  18.75 1 0  19.5 1 0  20.25 1 0  21 1 0  21.75 1 0  22.5 1 0  23.25 1 0  24 1 0  24.75 1 0  25.5 1 0  26.25 1 0  27 1 0  27.75 1 0  28.5 1 0  29.25 1 0  30 1 0  30.75 1 0  31.5 1 0  32.25 1 0  33 1 0  33.75 1 0  34.5 1 0  35.25 1 0  36 1 0  36.75 1 0  37.5 1 0  38.25 1 0  39 1 0  39.75 1 0  40.5 1 0  41.25 1 0  42 1 0  42.75 1 0  43.5 1 0  44.25 1 0  45 1 0  45.75 1 0  46.5 1 0  47.25 1 0  48 1 0  48.75 1 0  49.5 1 0  50.25 1 0  51 1 0  51.75 1 0  52.5 1 0  53.25 1 0  54 1 0  54.75 1 0  55.5 1 0  56.25 1 0  57 1 0  57.75 1 0  58.5 1 0  59.25 1 0  60 1 0  0 1.5 0  0.75 1.5 0  1.5 1.5 0  2.25 1.5 0  3 1.5 0  3.75 1.5 0  4.5 1.5 0  5.25 1.5 0  6 1.5 0  6.75 1.5 0  7.5 1.5 0  8.25 1.5 0  9 1.5 0  9.75 1.5 0  10.5 1.5 0  11.25 1.5 0  12 1.5 0  12.75 1.5 0  13.5 1.5 0  14.25 1.5 0  15 1.5 0  15.75 1.5 0  16.5 1.5 0  17.25 1.5 0  18 1.5 0  18.75 1.5 0  19.5 1.5 0  20.25 1.5 0  21 1.5 0  21.75 1.5 0  22.5 1.5 0  23.25 1.5 0  24 1.5 0  24.75 1.5 0  25.5 1.5 0  26.25 1.5 0  27 1.5 0  27.75 1.5 0  28.5 1.5 0  29.25 1.5 0  30 1.5 0  30.75 1.5 0  31.5 1.5 0  32.25 1.5 0  33 1.5 0  33.75 1.5 0  34.5 1.5 0  35.25 1.5 0  36 1.5 0  36.75 1.5 0  37.5 1.5 0  38.25 1.5 0  39 1.5 0  39.75 1.5 0  40.5 1.5 0  41.25 1.5 0  42 1.5 0  42.75 1.5 0  43.5 1.5 0  44.25 1.5 0  45 1.5 0  45.75 1.5 0  46.5 1.5 0  47.25 1.5 0  48 1.5 0  48.75 1.5 0  49.5 1.5 0  50.25 1.5 0  51 1.5 0  51.75 1.5 0  52.5 1.5 0  53.25 1.5 0  54 1.5 0  54.75 1.5 0  55.5 1.5 0  56.25 1.5 0  57 1.5 0  57.75 1.5 0  58.5 1.5 0  59.25 1.5 0  60 1.5 0  0 2 0  0.75 2 0  1.5 2 0  2.25 2 0  3 2 0  3.75 2 0  4.5 2 0  5.25 2 0  6 2 0  6.75 2 0  7.5 2 0  8.25 2 0  9 2 0  9.75 2 0  10.5 2 0  11.25 2 0  12 2 0  12.75 2 0  13.5 2 0  14.25 2 0  15 2 0  15.75 2 0  16.5 2 0  17.25 2 0  18 2 0  18.75 2 0  19.5 2 0  20.25 2 0  21 2 0  21.75 2 0  22.5 2 0  23.25 2 0  24 2 0  24.75 2 0  25.5 2 0  26.25 2 0  27 2 0  27.75 2 0  28.5 2 0  29.25 2 0  30 2 0  30.75 2 0  31.5 2 0  32.25 2 0  33 2 0  33.75 2 0  34.5 2 0  35.25 2 0  36 2 0  36.75 2 0  37.5 2 0  38.25 2 0  39 2 0  39.75 2 0  40.5 2 0  41.25 2 0  42 2 0  42.75 2 0  43.5 2 0  44.25 2 0  45 2 0  45.75 2 0  46.5 2 0  47.25 2 0  48 2 0  48.75 2 0  49.5 2 0  50.25 2 0  51 2 0  51.75 2 0  52.5 2 0  53.25 2 0  54 2 0  54.75 2 0  55.5 2 0  56.25 2 0  57 2 0  57.75 2 0  58.5 2 0  59.25 2 0  60 2 0  0 2.5 0  0.75 2.5 0  1.5 2.5 0  2.25 2.5 0  3 2.5 0  3.75 2.5 0  4.5 2.5 0  5.25 2.5 0  6 2.5 0  6.75 2.5 0  7.5 2.5 0  8.25 2.5 0  9 2.5 0  9.75 2.5 0  10.5 2.5 0  11.25 2.5 0  12 2.5 0  12.75 2.5 0  13.5 2.5 0  14.25 2.5 0  15 2.5 0  15.75 2.5 0  16.5 2.5 0  17.25 2.5 0  18 2.5 0  18.75 2.5 0  19.5 2.5 0  20.25 2.5 0  21 2.5 0  21.75 2.5 0  22.5 2.5 0  23.25 2.5 0  24 2.5 0  24.75 2.5 0  25.5 2.5 0  26.25 2.5 0  27 2.5 0  27.75 2.5 0  28.5 2.5 0  29.25 2.5 0  30 2.5 0  30.75 2.5 0  31.5 2.5 0  32.25 2.5 0  33 2.5 0  33.75 2.5 0  34.5 2.5 0  35.25 2.5 0  36 2.5 0  36.75 2.5 0  37.5 2.5 0  38.25 2.5 0  39 2.5 0  39.75 2.5 0  40.5 2.5 0  41.25 2.5 0  42 2.5 0  42.75 2.5 0  43.5 2.5 0  44.25 2.5 0  45 2.5 0  45.75 2.5 0  46.5 2.5 0  47.25 2.5 0  48 2.5 0  48.75 2.5 0  49.5 2.5 0  50.25 2.5 0  51 2.5 0  51.75 2.5 0  52.5 2.5 0  53.25 2.5 0  54 2.5 0  54.75 2.5 0  55.5 2.5 0  56.25 2.5 0  57 2.5 0  57.75 2.5 0  58.5 2.5 0  59.25 2.5 0  60 2.5 0  0 3 0  0.75 3 0  1.5 3 0  2.25 3 0  3 3 0  3.75 3 0  4.5 3 0  5.25 3 0  6 3 0  6.75 3 0  7.5 3 0  8.25 3 0  9 3 0  9.75 3 0  10.5 3 0  11.25 3 0  12 3 0  12.75 3 0  13.5 3 0  14.25 3 0  15 3 0  15.75 3 0  16.5 3 0  17.25 3 0  18 3 0  18.75 3 0  19.5 3 0  20.25 3 0  21 3 0  21.75 3 0  22.5 3 0  23.25 3 0  24 3 0  24.75 3 0  25.5 3 0  26.25 3 0  27 3 0  27.75 3 0  28.5 3 0  29.25 3 0  30 3 0  30.75 3 0  31.5 3 0  32.25 3 0  33 3 0  33.75 3 0  34.5 3 0  35.25 3 0  36 3 0  36.75 3 0  37.5 3 0  38.25 3 0  39 3 0  39.75 3 0  40.5 3 0  41.25 3 0  42 3 0  42.75 3 0  43.5 3 0  44.25 3 0  45 3 0  45.75 3 0  46.5 3 0  47.25 3 0  48 3 0  48.75 3 0  49.5 3 0  50.25 3 0  51 3 0  51.75 3 0  52.5 3 0  53.25 3 0  54 3 0  54.75 3 0  55.5 3 0  56.25 3 0  57 3 0  57.75 3 0  58.5 3 0  59.25 3 0  60 3 0  0 3.5 0  0.75 3.5 0  1.5 3.5 0  2.25 3.5 0  3 3.5 0  3.75 3.5 0  4.5 3.5 0  5.25 3.5 0  6 3.5 0  6.75 3.5 0  7.5 3.5 0  8.25 3.5 0  9 3.5 0  9.75 3.5 0  10.5 3.5 0  11.25 3.5 0  12 3.5 0  12.75 3.5 0  13.5 3.5 0  14.25 3.5 0  15 3.5 0  15.75 3.5 0  16.5 3.5 0  17.25 3.5 0  18 3.5 0  18.75 3.5 0  19.5 3.5 0  20.25 3.5 0  21 3.5 0  21.75 3.5 0  22.5 3.5 0  23.25 3.5 0  24 3.5 0  24.75 3.5 0  25.5 3.5 0  26.25 3.5 0  27 3.5 0  27.75 3.5 0  28.5 3.5 0  29.25 3.5 0  30 3.5 0  30.75 3.5 0  31.5 3.5 0  32.25 3.5 0  33 3.5 0  33.75 3.5 0  34.5 3.5 0  35.25 3.5 0  36 3.5 0  36.75 3.5 0  37.5 3.5 0  38.25 3.5 0  39 3.5 0  39.75 3.5 0  40.5 3.5 0  41.25 3.5 0  42 3.5 0  42.75 3.5 0  43.5 3.5 0  44.25 3.5 0  45 3.5 0  45.75 3.5 0  46.5 3.5 0  47.25 3.5 0  48 3.5 0  48.75 3.5 0  49.5 3.5 0  50.25 3.5 0  51 3.5 0  51.75 3.5 0  52.5 3.5 0  53.25 3.5 0  54 3.5 0  54.75 3.5 0  55.5 3.5 0  56.25 3.5 0  57 3.5 0  57.75 3.5 0  58.5 3.5 0  59.25 3.5 0  60 3.5 0  0 4 0  0.75 4 0  1.5 4 0  2.25 4 0  3 4 0  3.75 4 0  4.5 4 0  5.25 4 0  6 4 0  6.75 4 0  7.5 4 0  8.25 4 0  9 4 0  9.75 4 0  10.5 4 0  11.25 4 0  12 4 0  12.75 4 0  13.5 4 0  14.25 4 0  15 4 0  15.75 4 0  16.5 4 0  17.25 4 0  18 4 0  18.75 4 0  19.5 4 0  20.25 4 0  21 4 0  21.75 4 0  22.5 4 0  23.25 4 0  24 4 0  24.75 4 0  25.5 4 0  26.25 4 0  27 4 0  27.75 4 0  28.5 4 0  29.25 4 0  30 4 0  30.75 4 0  31.5 4 0  32.25 4 0  33 4 0  33.75 4 0  34.5 4 0  35.25 4 0  36 4 0  36.75 4 0  37.5 4 0  38.25 4 0  39 4 0  39.75 4 0  40.5 4 0  41.25 4 0  42 4 0  42.75 4 0  43.5 4 0  44.25 4 0  45 4 0  45.75 4 0  46.5 4 0  47.25 4 0  48 4 0  48.75 4 0  49.5 4 0  50.25 4 0  51 4 0  51.75 4 0  52.5 4 0  53.25 4 0  54 4 0  54.75 4 0  55.5 4 0  56.25 4 0  57 4 0  57.75 4 0  58.5 4 0  59.25 4 0  60 4 0  0.375 0.25 0  1.125 0.25 0  1.875 0.25 0  2.625 0.25 0  3.375 0.25 0  4.125 0.25 0  4.875 0.25 0  5.625 0.25 0  6.375 0.25 0  7.125 0.25 0  7.875 0.25 0  8.625 0.25 0  9.375 0.25 0  10.125 0.25 0  10.875 0.25 0  11.625 0.25 0  12.375 0.25 0  13.125 0.25 0  13.875 0.25 0  14.625 0.25 0  15.375 0.25 0  16.125 0.25 0  16.875 0.25 0  17.625 0.25 0  18.375 0.25 0  19.125 0.25 0  19.875 0.25 0  20.625 0.25 0  21.375 0.25 0  22.125 0.25 0  22.875 0.25 0  23.625 0.25 0  24.375 0.25 0  25.125 0.25 0  25.875 0.25 0  26.625 0.25 0  27.375 0.25 0  28.125 0.25 0  28.875 0.25 0  29.625 0.25 0  30.375 0.25 0  31.125 0.25 0  31.875 0.25 0  32.625 0.25 0  33.375 0.25 0  34.125 0.25 0  34.875 0.25 0  35.625 0.25 0  36.375 0.25 0  37.125 0.25 0  37.875 0.25 0  38.625 0.25 0  39.375 0.25 0  40.125 0.25 0  40.875 0.25 0  41.625 0.25 0  42.375 0.25 0  43.125 0.25 0  43.875 0.25 0  44.625 0.25 0  45.375 0.25 0  46.125 0.25 0  46.875 0.25 0  47.625 0.25 0  48.375 0.25 0  49.125 0.25 0  49.875 0.25 0  50.625 0.25 0  51.375 0.25 0  52.125 0.25 0  52.875 0.25 0  53.625 0.25 0  54.375 0.25 0  55.125 0.25 0  55.875 0.25 0  56.625 0.25 0  57.375 0.25 0  58.125 0.25 0  58.875 0.25 0  59.625 0.25 0  0.375 0.75 0  1.125 0.75 0  1.875 0.75 0  2.625 0.75 0  3.375 0.75 0  4.125 0.75 0  4.875 0.75 0  5.625 0.75 0  6.375 0.75 0  7.125 0.75 0  7.875 0.75 0  8.625 0.75 0  9.375 0.75 0  10.125 0.75 0  10.875 0.75 0  11.625 0.75 0  12.375 0.75 0  13.125 0.75 0  13.875 0.75 0  14.625 0.75 0  15.375 0.75 0  16.125 0.75 0  16.875 0.75 0  17.625 0.75 0  18.375 0.75 0  19.125 0.75 0  19.875 0.75 0  20.625 0.75 0  21.375 0.75 0  22.125 0.75 0  22.875 0.75 0  23.625 0.75 0  24.375 0.75 0  25.125 0.75 0  25.875 0.75 0  26.625 0.75 0  27.375 0.75 0  28.125 0.75 0  28.875 0.75 0  29.625 0.75 0  30.375 0.75 0  31.125 0.75 0  31.875 0.75 0  32.625 0.75 0  33.375 0.75 0  34.125 0.75 0  34.875 0.75 0  35.625 0.75 0  36.375 0.75 0  37.125 0.75 0  37.875 0.75 0  38.625 0.75 0  39.375 0.75 0  40.125 0.75 0  40
[...]
<PointData  Scalars="f_8-1"> 
<DataArray  type="Float64"  Name="f_8-1"  format="ascii">1.8786948792498164e+00  1.8522798520663415e+00  1.8296828050418039e+00  1.8054851489450332e+00  1.7825807063389583e+00  1.7590849317737205e+00  1.7359826352639245e+00  1.7126608376451735e+00  1.6893647160517862e+00  1.6660361409816242e+00  1.6427086062496419e+00  1.6194303018687148e+00  1.5961021430955704e+00  1.5727607033206048e+00  1.5493240003611137e+00  1.5258473747456762e+00  1.5023016023187556e+00  1.4787394193003767e+00  1.4551528409506578e+00  1.4315741420088983e+00  1.4079981405429463e+00  1.3844394705940393e+00  1.3608927560283539e+00  1.3373629529569184e+00  1.3138453106311001e+00  1.2903406487342368e+00  1.2668453873720535e+00  1.2433589675450845e+00  1.2198789569744071e+00  1.1964045426562420e+00  1.1729341668488238e+00  1.1494671311845372e+00  1.1260024792152621e+00  1.1025397106510064e+00  1.0790782549940268e+00  1.0556177759690584e+00  1.0321579290641354e+00  1.0086984931373415e+00  9.8523926586662447e-01  9.6178012090438258e-01  9.3832096089192585e-01  9.1486173675757076e-01  8.9140242178452866e-01  8.6794301381735128e-01  8.4448352009368821e-01  8.2102395547492590e-01  7.9756433512860825e-01  7.7410467376298731e-01  7.5064498321514195e-01  7.2718527288430956e-01  7.0372554948100252e-01  6.8026581777043937e-01  6.5680608088412473e-01  6.3334634087975461e-01  6.0988659902500586e-01  5.8642685610508516e-01  5.6296711257847898e-01  5.3950736871620197e-01  5.1604762466933896e-01  4.9258788052387020e-01  4.6912813632594569e-01  4.4566839210087411e-01  4.2220864786260237e-01  3.9874890361818083e-01  3.7528915937553858e-01  3.5182941513889587e-01  3.2836967092818714e-01  3.0490992676288059e-01  2.8145018270296590e-01  2.5799043878572553e-01  2.3453069489847472e-01  2.1107094989040828e-01  1.8761119834515963e-01  1.6415141872349534e-01  1.4069153160549425e-01  1.1723125649591580e-01  9.3769675861111151e-02  7.0303606675854405e-02  4.6821747469533125e-02  2.3301745047401824e-02  -1.0514287108972958e-03  1.8766226704869651e+00  1.8534298090170467e+00  1.8291392059212976e+00  1.8059644712322396e+00  1.7823848748789286e+00  1.7592319945913202e+00  1.7359156545365659e+00  1.7126879696917847e+00  1.6893584983807177e+00  1.6660171732045912e+00  1.6427085029454569e+00  1.6194020526947059e+00  1.5961078086498213e+00  1.5727471008714928e+00  1.5493385776694577e+00  1.5258488841138975e+00  1.5023197595208508e+00  1.4787481043064175e+00  1.4551696324553420e+00  1.4315843191396260e+00  1.4080118039219243e+00  1.3844488017625345e+00  1.3609034244651410e+00  1.3373709314265190e+00  1.3138537163292401e+00  1.2903474508875739e+00  1.2668522658701002e+00  1.2433649196235921e+00  1.2198848700333802e+00  1.1964099352630335e+00  1.1729394995001512e+00  1.1494721802365719e+00  1.1260074788178711e+00  1.1025445610152198e+00  1.0790830742721571e+00  1.0556225234518950e+00  1.0321626649431208e+00  1.0087032025756952e+00  9.8524397836865008e-01  9.6178483029475204e-01  9.3832567956667634e-01  9.1486646054863152e-01  8.9140715444513174e-01  8.6794775200538310e-01  8.4448826417887290e-01  8.2102870313427845e-01  7.9756908592113540e-01  7.7410942635250657e-01  7.5064973721663786e-01  7.2719002764557361e-01  7.0373030480140808e-01  6.8027057337125940e-01  6.5681083668441487e-01  6.3335109677229096e-01  6.0989135498294000e-01  5.8643161209035344e-01  5.6297186858380466e-01  5.3951212472882615e-01  5.1605238068781623e-01  4.9259263654407831e-01  4.6913289234775862e-01  4.4567314812300407e-01  4.2221340388491840e-01  3.9875365964011528e-01  3.7529391539630552e-01  3.5183417115619203e-01  3.2837442693898755e-01  3.0491468275452727e-01  2.8145493866380433e-01  2.5799519467581028e-01  2.3453545074060986e-01  2.1107570590557118e-01  1.8761595602921199e-01  1.6415618302532153e-01  1.4069632406773072e-01  1.1723615036612577e-01  9.3774936416547258e-02  7.0310111525530669e-02  4.6833876231426319e-02  2.3305178198599546e-02  -2.7070017393805793e-06  1.8772937361104090e+00  1.8532341124913663e+00  1.8295935181548395e+00  1.8059906862760622e+00  1.7825803609123188e+00  1.7592803524826182e+00  1.7359447440487101e+00  1.7127338589343544e+00  1.6893552632335183e+00  1.6660709421524478e+00  1.6426972859945701e+00  1.6194340952585777e+00  1.5960899992787705e+00  1.5727665263681530e+00  1.5493331022401906e+00  1.5258744601645806e+00  1.5023338477094574e+00  1.4787826165287254e+00  1.4551967930938352e+00  1.4316223507916084e+00  1.4080439925058490e+00  1.3844859666992899e+00  1.3609360810917228e+00  1.3374056065665811e+00  1.3138852017174252e+00  1.2903796402238505e+00  1.2668823619974949e+00  1.2433951868664872e+00  1.2199138383430228e+00  1.1964388817154765e+00  1.1729676735500139e+00  1.1495002817243003e+00  1.1260351373031443e+00  1.1025721479911994e+00  1.0791104129406908e+00  1.0556498065366988e+00  1.0321898139241128e+00  1.0087303182848160e+00  9.8527103048885356e-01  9.6181187164672077e-01  9.3835269947852074e-01  9.1489348457889452e-01  8.9143417751526455e-01  8.6797478432436370e-01  8.4451530183815149e-01  8.2105574895741074e-01  7.9759613679975350e-01  7.7413648242648825e-01  7.5067679640994545e-01  7.2721708953495912e-01  7.0375736822845658e-01  6.8029763800258103e-01  6.5683790196352099e-01  6.3337816252944767e-01  6.0991842098117244e-01  5.8645867826104348e-01  5.6299893483525365e-01  5.3953919103781434e-01  5.1607944702136943e-01  4.9261970289559665e-01  4.6915995870582272e-01  4.4570021448577091e-01  4.2224047024731082e-01  3.9878072599881809e-01  3.7532098174009310e-01  3.5186123746135928e-01  3.2840149313649353e-01  3.0494174867449858e-01  2.8148200385416411e-01  2.5802225801432926e-01  2.3456250942888029e-01  2.1110275334277120e-01  1.8764297715359970e-01  1.6418314652357527e-01  1.4072317287896868e-01  1.1726282172188272e-01  9.3801515434589616e-02  7.0337767513398375e-02  4.6868114197194742e-02  2.3402126759986566e-02  -5.5953685074439266e-06  1.8778548108689084e+00  1.8528243139226512e+00  1.8301319949567512e+00  1.8057656339507029e+00  1.7829272980626325e+00  1.7591184025874154e+00  1.7361483494781786e+00  1.7126082175068753e+00  1.6894828361637579e+00  1.6660116228157675e+00  1.6427908120076820e+00  1.6193974279137642e+00  1.5961340677498757e+00  1.5727318403707973e+00  1.5493540459585808e+00  1.5258588539166700e+00  1.5023593540491080e+00  1.4787914216768996e+00  1.4552313370421290e+00  1.4316467492618277e+00  1.4080820228147466e+00  1.3845165129752304e+00  1.3609730547825925e+00  1.3374370864437308e+00  1.3139194713334619e+00  1.2904101317436840e+00  1.2669139674897234e+00  1.2434243546317894e+00  1.2199433914804940e+00  1.1964669380024002e+00  1.1729958162230594e+00  1.1495275410063288e+00  1.1260623759835986e+00  1.1025988814057666e+00  1.0791370959580229e+00  1.0556762045832719e+00  1.0322161619726196e+00  1.0087565107568661e+00  9.8529719023059170e-01  9.6183795684673745e-01  9.3837877435523886e-01  9.1491953369611179e-01  8.9146023186514500e-01  8.6800083662187388e-01  8.4454136456401940e-01  8.2108181703040573e-01  7.9762221386903953e-01  7.7416256474370027e-01  7.5070288438223365e-01  7.2724318075874073e-01  7.0378346236287737e-01  6.8032373373609378e-01  6.5686399898996872e-01  6.3340426022648877e-01  6.0994451918978387e-01  5.8648477671774069e-01  5.6302503347630029e-01  5.3956528976132934e-01  5.1610554580644974e-01  4.9264580170543304e-01  4.6918605753475573e-01  4.4572631332070523e-01  4.2226656908582288e-01  3.9880682483302149e-01  3.7534708055922905e-01  3.5188733623692592e-01  3.2842759179263098e-01  3.0496784701908403e-01  2.8150810137810894e-01  2.5804835344740873e-01  2.3458859960268957e-01  2.1112883069412156e-01  1.8766902416454603e-01  1.6420912616661124e-01  1.4074901544047849e-01  1.1728843781244401e-01  9.3826941671069350e-02  7.0364006620266192e-02  4.6900599797997190e-02  2.3445831422463058e-02  -7.6241265913410773e-06  1.8770584177468606e+00  1.8534966894255587e+00  1.8295142379457254e+00  1.8063787521430450e+00  1.7824691784374935e+00  1.7595170570674132e+00  1.7358606350463357e+00  1.7128332833840660e+00  1.6893140446900439e+00  1.6661436891094814e+00  1.6427008080247654e+00  1.6194704843791847e+00  1.5960762602253133e+00  1.5727646662957440e+00  1.5493149122627941e+00  1.5258755469123610e+00  1.5023384907785278e+00  1.4788050634555792e+00  1.4552243475758453e+00  1.4316597159643700e+00  1.4080826275187488e+00  1.3845279916098465e+00  1.3609768016877590e+00  1.3374465665626014e+00  1.3139241284284671e+00  1.2904177629992586e+00  1.2669186613779626e+00  1.2434305702860786e+00  1.2199478720253925e+00  1.1964721796737097e+00  1.1730000636408133e+00  1.1495321558633227e+00  1.1260664379888559e+00  1.1026031121780939e+00  1.0791410266641936e+00  1.0556802061559425e+00  1.0322200033847115e+00  1.0087603787973007e+00  9.8530097646357473e-01  9.6184175451103304e-01  9.3838253507824054e-01  9.1492330294481850e-01  8.9146398821881112e-01  8.6800460085644204e-01  8.4454512654470160e-01  8.2108558528060993e-01  7.9762598315202171e-01  7.7416633810973956e-01  7.5070665904584311e-01  7.2724695765863834e-01  7.0378724007539950e-01  6.8032751251169721e-01  6.5686777815283581e-01  6.3340803983976934e-01  6.0994829895714875e-01  5.8648855665898303e-01  5.6302881347040012e-01  5.3956906981776931e-01  5.1610932587854719e-01  4.9264958179863449e-01  4.6918983763171013e-01  4.4573009342424358e-01  4.2227034918911877e-01  3.9881060493607690e-01  3.7535086065544493e-01  3.5189111631586190e-01  3.2843137182263077e-01  3.0497162692190449e-01  2.8151188094651741e-01  2.5805213216759743e-01  2.3459237620190851e-01  2.1113260212370494e-01  1.8767278342626939e-01  1.6421285863824941e-01  1.4075269448969921e-01  1.1729203215843290e-01  9.3830484494161356e-02  7.0367946443204418e-02  4.6906513707664875e-02  2.3451020951974960e-02  2.5813491863237005e-06  1.8778548108688462e+00  1.8528243139226976e+00  1.8301319949567558e+00  1.8057656339509245e+00  1.7829272980627173e+00  1.7591184025878734e+00  1.7361483494787644e+00  1.7126082175071740e+00  1.6894828361642855e+00  1.6660116228172397e+00  1.6427908120096568e+00  1.6193974279151657e+00  1.5961340677497502e+00  1.5727318403690411e+00  1.5493540459557862e+00  1.5258588539137521e+00  1.5023593540468461e+00  1.4787914216756743e+00  1.4552313370418548e+00  1.4316467492622085e+00  1.4080820228153896e+00  1.3845165129758468e+00  1.3609730547830217e+00  1.3374370864439555e+00  1.3139194713335145e+00  1.2904101317436467e+00  1.2669139674896608e+00  1.2434243546317170e+00  1.2199433914804518e+00  1.1964669380023680e+00  1.1729958162230529e+00  1.1495275410063255e+00  1.1260623759835999e+00  1.1025988814057732e+00  1.0791370959580260e+00  1.0556762045832768e+00  1.0322161619726158e+00  1.0087565107568692e+00  9.8529719023058715e-01  9.6183795684673723e-01  9.3837877435523986e-01  9.1491953369611290e-01  8.9146023186514034e-01  8.6800083662187721e-01  8.4454136456401507e-01  8.2108181703040339e-01  7.9762221386903343e-01  7.7416256474370604e-01  7.5070288438222876e-01  7.2724318075874494e-01  7.0378346236288536e-01  6.8032373373608468e-01  6.5686399898997316e-01  6.3340426022648433e-01  6.0994451918978032e-01  5.8648477671774146e-01  5.6302503347630473e-01  5.3956528976132978e-01  5.1610554580644530e-01  4.9264580170543654e-01  4.6918605753474873e-01  4.4572631332071172e-01  4.2226656908582333e-01  3.9880682483301760e-01  3.7534708055923505e-01  3.5188733623692214e-01  3.2842759179263631e-01  3.0496784701907897e-01  2.8150810137810595e-01  2.5804835344740928e-01  2.3458859960269177e-01  2.1112883069411645e-01  1.8766902416454970e-01  1.6420912616660932e-01  1.4074901544047810e-01  1.1728843781244840e-01  9.3826941671064978e-02  7.0364006620260808e-02  4.6900599798007848e-02  2.3445831422450773e-02  -7.6241265846467658e-06  1.8772937361107942e+00  1.8532341124910947e+00  1.8295935181551262e+00  1.8059906862762396e+00  1.7825803609126578e+00  1.7592803524833927e+00  1.7359447440498297e+00  1.7127338589348207e+00  1.6893552632346764e+00  1.6660709421552298e+00  1.6426972859981490e+00  1.6194340952608384e+00  1.5960899992782032e+00  1.5727665263646149e+00  1.5493331022349308e+00  1.5258744601592564e+00  1.5023338477054604e+00  1.4787826165266538e+00  1.4551967930934895e+00  1.4316223507923849e+00  1.4080439925070505e+00  1.3844859667004021e+00  1.3609360810924820e+00  1.3374056065669520e+00  1.3138852017175058e+00  1.2903796402237728e+00  1.2668823619973724e+00  1.2433951868663546e+00  1.2199138383429469e+00  1.1964388817154277e+00  1.1729676735500050e+00  1.1495002817242945e+00  1.1260351373031445e+00  1.1025721479912054e+00  1.0791104129407016e+00  1.0556498065366959e+00  1.0321898139241228e+00  1.0087303182848097e+00  9.8527103048885201e-01  9.6181187164672333e-01  9.3835269947852229e-01  9.1489348457888764e-01  8.9143417751527021e-01  8.6797478432436326e-01  8.4451530183814805e-01  8.2105574895740496e-01  7.9759613679975183e-01  7.7413648242648148e-01  7.5067679640995144e-01  7.2721708953495490e-01  7.0375736822845791e-01  6.8029763800258081e-01  6.5683790196351499e-01  6.3337816252944679e-01  6.0991842098117410e-01  5.8645867826104370e-01  5.6299893483525543e-01  5.3953919103781622e-01  5.1607944702137065e-01  4.9261970289559653e-01  4.6915995870581723e-01  4.4570021448578018e-01  4.2224047024730599e-01  3.9878072599882564e-01  3.7532098174009498e-01  3.5186123746135411e-01  3.2840149313650352e-01  3.0494174867448920e-01  2.8148200385416389e-01  2.5802225801432888e-01  2.3456250942887885e-01  2.1110275334276804e-01  1.8764297715359998e-01  1.6418314652355531e-01  1.4072317287897623e-01  1.1726282172187989e-01  9.3801515434585078e-02  7.0337767513398694e-02  4.6868114197199010e-02  2.3402126759980598e-02  -5.5953685081065724e-06  1.8766226704865396e+00  1.8534298090172341e+00  1.8291392059211249e+00  1.8059644712327263e+00  1.7823848748791717e+00  1.7592319945924886e+00  1.7359156545376817e+00  1.7126879696925099e+00  1.6893584983823395e+00  1.6660171732080924e+00  1.6427085029494632e+00  1.6194020526968318e+00  1.5961078086484259e+00  1.5727471008667131e+00  1.5493385776628603e+00  1.5258488841075080e+00  1.5023197595162245e+00  1.4787481043041544e+00  1.4551696324551089e+00  1.4315843191406672e+00  1.4080118039234097e+00  1.3844488017638588e+00  1.3609034244660139e+00  1.3373709314269364e+00  1.3138537163293162e+00  1.2903474508874704e+00  1.2668522658699417e+00  1.2433649196234464e+00  1.2198848700332823e+00  1.1964099352629862e+00  1.1729394995001383e+00  1.1494721802365633e+00  1.1260074788178704e+00  1.1025445610152218e+00  1.0790830742721662e+00  1.0556225234518963e+00  1.0321626649431350e+00  1.0087032025756819e+00  9.8524397836865907e-01  9.6178483029475159e-01  9.3832567956668123e-01  9.1486646054862908e-01  8.9140715444513752e-01  8.6794775200538732e-01  8.4448826417887102e-01  8.2102870313426923e-01  7.9756908592112441e-01  7.7410942635250868e-01  7.5064973721663630e-01  7.2719002764557061e-01  7.0373030480140986e-01  6.8027057337125352e-01  6.5681083668441687e-01  6.3335109677228674e-01  6.0989135498294367e-01  5.8643161209035377e-01  5.6297186858380577e-01  5.3951212472882892e-01  5.1605238068781167e-01  4.9259263654408442e-01  4.6913289234775896e-01  4.4567314812300041e-01  4.2221340388492401e-01  3.9875365964012133e-01  3.7529391539630647e-01  3.5183417115619892e-01  3.2837442693898750e-01  3.0491468275452122e-01  2.8145493866380328e-01  2.5799519467580739e-01  2.3453545074060750e-01  2.1107570590557537e-01  1.8761595602920630e-01  1.6415618302531382e-01  1.4069632406773516e-01  1.1723615036612042e-01  9.3774936416542082e-02  7.0310111525532071e-02  4.6833876231421087e-02  2.3305178198598335e-02  -2.7070017432180044e-06  1.8786948792501419e+00  1.8522798520660129e+00  1.8296828050420473e+00  1.8054851489451385e+00  1.7825807063394903e+00  1.7590849317747015e+00  1.7359826352649854e+00  1.7126608376458785e+00  1.6893647160535381e+00  1.6660361409849338e+00  1.6427086062531873e+00  1.6194303018701712e+00  1.5961021430935636e+00  1.5727607033154087e+00  1.5493240003543600e+00  1.5258473747393333e+00  1.5023016023142779e+00  1.4787394192982710e+00  1.4551528409505456e+00  1.4315741420100090e+00  1.4079981405444548e+00  1.3844394705953540e+00  1.3608927560292188e+00  1.3373629529573219e+00  1.3138453106311636e+00  1.2903406487341276e+00  1.2668453873718919e+00  1.2433589675449370e+00  1.2198789569743063e+00  1.1964045426562024e+00  1.1729341668488042e+00  1.1494671311845277e+00  1.1260024792152574e+00  1.1025397106510133e+00  1.0790782549940350e+00  1.0556177759690646e+00  1.0321579290641394e+00  1.0086984931373342e+00  9.8523926586662569e-01  9.6178012090438647e-01  9.3832096089192296e-01  9.1486173675757398e-01  8.9140242178453488e-01  8.6794301381735062e-01  8.4448352009369143e-01  8.2102395547491469e-01  7.9756433512859837e-01  7.7410467376298575e-01  7.5064498321514117e-01  7.2718527288431234e-01  7.0372554948099697e-01  6.8026581777044393e-01  6.5680608088411907e-01  6.3334634087976005e-01  6.0988659902500586e-01  5.8642685610508638e-01  5.6296711257847887e-01  5.3950736871620297e-01  5.1604762466933685e-01  4.9258788052387775e-01  4.6912813632594880e-01  4.4566839210086973e-01  4.2220864786260598e-01  3.9874890361818532e-01  3.7528915937553819e-01  3.5182941513890043e-01  3.2836967092818947e-01  3.0490992676287787e-01  2.8145018270296041e-01  2.5799043878572375e-01  2.3453069489847866e-01  2.1107094989040920e-01  1.8761119834515488e-01  1.6415141872348363e-01  1.4069153160550252e-01  1.1723125649591422e-01  9.3769675861103199e-02  7.0303606675852323e-02  4.6821747469530349e-02  2.3301745047399076e-02  -1.0514287108964030e-03  1.8650769805474139e+00  1.8412076691245027e+00  1.8176720493892102e+00  1.7941460644900102e+00  1.7708998119284498e+00  1.7476198105855227e+00  1.7243864455995004e+00  1.7010944755158879e+00  1.6777645428975649e+00  1.6544460481200820e+00  1.6311355234623746e+00  1.6078410292660310e+00  1.5845057524210546e+00  1.5611232298195719e+00  1.5376673420301907e+00  1.5141593340206516e+00  1.4906052203133198e+00  1.4670317071852639e+00  1.4434482376622602e+00  1.4198707232846046e+00  1.3963024227721004e+00  1.3727492858772072e+00  1.3492102224875846e+00  1.3256860788477274e+00  1.3021743513112904e+00  1.2786740742958445e+00  1.2551828568190702e+00  1.2316994293891088e+00  1.2082219847385918e+00  1.1847494569810926e+00  1.1612806156063629e+00  1.1378146937802636e+00  1.1143509084724994e+00  1.0908887542705452e+00  1.0674277498093827e+00  1.0439675687894199e+00  1.0205079138915065e+00  9.9704857907581412e-01  9.7358939218265073e-01  9.5013024324417317e-01  9.2667105499189961e-01  9.0321179021386744e-01  8.7975243269233372e-01  8.5629298542584098e-01  8.3283345887769000e-01  8.0937386844745474e-01  7.8591422897218333e-01  7.6245455399917128e-01  7.3899485417725486e-01  7.1553513772143051e-01  6.9207541040755294e-01  6.6861567626302465e-01  6.4515593790379444e-01  6.2169619702677192e-01  5.9823645466730802e-01  5.7477671146063858e-01  5.5131696777453365e-01  5.2785722382486588e-01  5.0439747973104221e-01  4.8093773556073655e-01  4.5747799134998274e-01  4.3401824711887549e-01  4.1055850287854134e-01  3.8709875863707716e-01  3.6363901440340052e-01  3.4017927019591987e-01  3.1671952605111903e-01  2.9325978206030912e-01  2.6980003839476308e-01  2.4634029539258334e-01  2.2288055337055704e-01  1.9942081174088908e-01  1.7596106380223356e-01  1.5250127909837480e-01  1.2904132944061664e-01  1.0558076144108423e-01  8.2117933795399375e-02  5.8647151956888320e-02  3.5149866689012418e-02  1.1490598311148417e-02  1.8643573231991277e+00  1.8417141946506395e+00  1.8176268263624740e+00  1.7942879181482991e+00  1.7709557596104353e+00  1.7475893601242400e+00  1.7244217200944565e+00  1.7010409805282678e+00  1.6777827783351043e+00  1.6543893843772617e+00  1.6311280543848814e+00  1.6077906622481466e+00  1.5844926929150949e+00  1.5610910110600671e+00  1.5376604042359230e+00  1.5141428818143869e+00  1.4906027881021788e+00  1.4670228658438296e+00  1.4434459645778746e+00  1.4198636360066628e+00  1.3962980