<?xml version="1.0"?>
<VTKFile type="UnstructuredGrid"  version="0.1"  >
<UnstructuredGrid>
<Piece  NumberOfPoints="1369" NumberOfCells="2560">
<Points>
<DataArray  type="Float64"  NumberOfComponents="3"  format="ascii">0 0 0  0.75 0 0  1.5 0 0  2.25 0 0  3 0 0  3.75 0 0  4.5 0 0  5.25 0 0  6 0 0  6.75 0 0  7.5 0 0  8.25 0 0  9 0 0  9.75 0 0  10.5 0 0  11.25 0 0  12 0 0  12.75 0 0  13.5 0 0  14.25 0 0  15 0 0  15.75 0 0  16.5 0 0  17.25 0 0  18 0 0  18.75 0 0  19.5 0 0  20.25 0 0  21 0 0  21.75 0 0  22.5 0 0  23.25 0 0  24 0 0  24.75 0 0  25.5 0 0  26.25 0 0  27 0 0  27.75 0 0  28.5 0 0  29.25 0 0  30 0 0  30.75 0 0  31.5 0 0  32.25 0 0  33 0 0  33.75 0 0  34.5 0 0  35.25 0 0  36 0 0  36.75 0 0  37.5 0 0  38.25 0 0  39 0 0  39.75 0 0  40.5 0 0  41.25 0 0  42 0 0  42.75 0 0  43.5 0 0  44.25 0 0  45 0 0  45.75 0 0  46.5 0 0  47.25 0 0  48 0 0  48.75 0 0  49.5 0 0  50.25 0 0  51 0 0  51.75 0 0  52.5 0 0  53.25 0 0  54 0 0  54.75 0 0  55.5 0 0  56.25 0 0  57 0 0  57.75 0 0  58.5 0 0  59.25 0 0  60 0 0  0 0.5 0  0.75 0.5 0  1.5 0.5 0  2.25 0.5 0  3 0.5 0  3.75 0.5 0  4.5 0.5 0  5.25 0.5 0  6 0.5 0  6.75 0.5 0  7.5 0.5 0  8.25 0.5 0  9 0.5 0  9.75 0.5 0  10.5 0.5 0  11.25 0.5 0  12 0.5 0  12.75 0.5 0  13.5 0.5 0  14.25 0.5 0  15 0.5 0  15.75 0.5 0  16.5 0.5 0  17.25 0.5 0  18 0.5 0  18.75 0.5 0  19.5 0.5 0  20.25 0.5 0  21 0.5 0  21.75 0.5 0  22.5 0.5 0  23.25 0.5 0  24 0.5 0  24.75 0.5 0  25.5 0.5 0  26.25 0.5 0  27 0.5 0  27.75 0.5 0  28.5 0.5 0  29.25 0.5 0  30 0.5 0  30.75 0.5 0  31.5 0.5 0  32.25 0.5 0  33 0.5 0  33.75 0.5 0  34.5 0.5 0  35.25 0.5 0  36 0.5 0  36.75 0.5 0  37.5 0.5 0  38.25 0.5 0  39 0.5 0  39.75 0.5 0  40.5 0.5 0  41.25 0.5 0  42 0.5 0  42.75 0.5 0  43.5 0.5 0  44.25 0.5 0  45 0.5 0  45.75 0.5 0  46.5 0.5 0  47.25 0.5 0  48 0.5 0  48.75 0.5 0  49.5 0.5 0  50.25 0.5 0  51 0.5 0  51.75 0.5 0  52.5 0.5 0  53.25 0.5 0  54 0.5 0  54.75 0.5 0  55.5 0.5 0  56.25 0.5 0  57 0.5 0  57.75 0.5 0  58.5 0.5 0  59.25 0.5 0  60 0.5 0  0 1 0  0.75 1 0  1.5 1 0  2.25 1 0  3 1 0  3.75 1 0  4.5 1 0  5.25 1 0  6 1 0  6.75 1 0  7.5 1 0  8.25 1 0  9 1 0  9.75 1 0  10.5 1 0  11.25 1 0  12 1 0  12.75 1 0  13.5 1 0  14.25 1 0  15 1 0  15.75 1 0  16.5 1 0  17.25 1 0  18 1 0  18.75 1 0  19.5 1 0  20.25 1 0  21 1 0  21.75 1 0  22.5 1 0  23.25 1 0  24 1 0  24.75 1 0  25.5 1 0  26.25 1 0  27 1 0  27.75 1 0  28.5 1 0  29.25 1 0  30 1 0  30.75 1 0  31.5 1 0  32.25 1 0  33 1 0  33.75 1 0  34.5 1 0  35.25 1 0  36 1 0  36.75 1 0  37.5 1 0  38.25 1 0  39 1 0  39.75 1 0  40.5 1 0  41.25 1 0  42 1 0  42.75 1 0  43.5 1 0  44.25 1 0  45 1 0  45.75 1 0  46.5 1 0  47.25 1 0  48 1 0  48.75 1 0  49.5 1 0  50.25 1 0  51 1 0  51.75 1 0  52.5 1 0  53.25 1 0  54 1 0  54.75 1 0  55.5 1 0  56.25 1 0  57 1 0  57.75 1 0  58.5 1 0  59.25 1 0  60 1 0  0 1.5 0  0.75 1.5 0  1.5 1.5 0  2.25 1.5 0  3 1.5 0  3.75 1.5 0  4.5 1.5 0  5.25 1.5 0  6 1.5 0  6.75 1.5 0  7.5 1.5 0  8.25 1.5 0  9 1.5 0  9.75 1.5 0  10.5 1.5 0  11.25 1.5 0  12 1.5 0  12.75 1.5 0  13.5 1.5 0  14.25 1.5 0  15 1.5 0  15.75 1.5 0  16.5 1.5 0  17.25 1.5 0  18 1.5 0  18.75 1.5 0  19.5 1.5 0  20.25 1.5 0  21 1.5 0  21.75 1.5 0  22.5 1.5 0  23.25 1.5 0  24 1.5 0  24.75 1.5 0  25.5 1.5 0  26.25 1.5 0  27 1.5 0  27.75 1.5 0  28.5 1.5 0  29.25 1.5 0  30 1.5 0  30.75 1.5 0  31.5 1.5 0  32.25 1.5 0  33 1.5 0  33.75 1.5 0  34.5 1.5 0  35.25 1.5 0  36 1.5 0  36.75 1.5 0  37.5 1.5 0  38.25 1.5 0  39 1.5 0  39.75 1.5 0  40.5 1.5 0  41.25 1.5 0  42 1.5 0  42.75 1.5 0  43.5 1.5 0  44.25 1.5 0  45 1.5 0  45.75 1.5 0  46.5 1.5 0  47.25 1.5 0  48 1.5 0  48.75 1.5 0  49.5 1.5 0  50.25 1.5 0  51 1.5 0  51.75 1.5 0  52.5 1.5 0  53.25 1.5 0  54 1.5 0  54.75 1.5 0  55.5 1.5 0  56.25 1.5 0  57 1.5 0  57.75 1.5 0  58.5 1.5 0  59.25 1.5 0  60 1.5 0  0 2 0  0.75 2 0  1.5 2 0  2.25 2 0  3 2 0  3.75 2 0  4.5 2 0  5.25 2 0  6 2 0  6.75 2 0  7.5 2 0  8.25 2 0  9 2 0  9.75 2 0  10.5 2 0  11.25 2 0  12 2 0  12.75 2 0  13.5 2 0  14.25 2 0  15 2 0  15.75 2 0  16.5 2 0  17.25 2 0  18 2 0  18.75 2 0  19.5 2 0  20.25 2 0  21 2 0  21.75 2 0  22.5 2 0  23.25 2 0  24 2 0  24.75 2 0  25.5 2 0  26.25 2 0  27 2 0  27.75 2 0  28.5 2 0  29.25 2 0  30 2 0  30.75 2 0  31.5 2 0  32.25 2 0  33 2 0  33.75 2 0  34.5 2 0  35.25 2 0  36 2 0  36.75 2 0  37.5 2 0  38.25 2 0  39 2 0  39.75 2 0  40.5 2 0  41.25 2 0  42 2 0  42.75 2 0  43.5 2 0  44.25 2 0  45 2 0  45.75 2 0  46.5 2 0  47.25 2 0  48 2 0  48.75 2 0  49.5 2 0  50.25 2 0  51 2 0  51.75 2 0  52.5 2 0  53.25 2 0  54 2 0  54.75 2 0  55.5 2 0  56.25 2 0  57 2 0  57.75 2 0  58.5 2 0  59.25 2 0  60 2 0  0 2.5 0  0.75 2.5 0  1.5 2.5 0  2.25 2.5 0  3 2.5 0  3.75 2.5 0  4.5 2.5 0  5.25 2.5 0  6 2.5 0  6.75 2.5 0  7.5 2.5 0  8.25 2.5 0  9 2.5 0  9.75 2.5 0  10.5 2.5 0  11.25 2.5 0  12 2.5 0  12.75 2.5 0  13.5 2.5 0  14.25 2.5 0  15 2.5 0  15.75 2.5 0  16.5 2.5 0  17.25 2.5 0  18 2.5 0  18.75 2.5 0  19.5 2.5 0  20.25 2.5 0  21 2.5 0  21.75 2.5 0  22.5 2.5 0  23.25 2.5 0  24 2.5 0  24.75 2.5 0  25.5 2.5 0  26.25 2.5 0  27 2.5 0  27.75 2.5 0  28.5 2.5 0  29.25 2.5 0  30 2.5 0  30.75 2.5 0  31.5 2.5 0  32.25 2.5 0  33 2.5 0  33.75 2.5 0  34.5 2.5 0  35.25 2.5 0  36 2.5 0  36.75 2.5 0  37.5 2.5 0  38.25 2.5 0  39 2.5 0  39.75 2.5 0  40.5 2.5 0  41.25 2.5 0  42 2.5 0  42.75 2.5 0  43.5 2.5 0  44.25 2.5 0  45 2.5 0  45.75 2.5 0  46.5 2.5 0  47.25 2.5 0  48 2.5 0  48.75 2.5 0  49.5 2.5 0  50.25 2.5 0  51 2.5 0  51.75 2.5 0  52.5 2.5 0  53.25 2.5 0  54 2.5 0  54.75 2.5 0  55.5 2.5 0  56.25 2.5 0  57 2.5 0  57.75 2.5 0  58.5 2.5 0  59.25 2.5 0  60 2.5 0  0 3 0  0.75 3 0  1.5 3 0  2.25 3 0  3 3 0  3.75 3 0  4.5 3 0  5.25 3 0  6 3 0  6.75 3 0  7.5 3 0  8.25 3 0  9 3 0  9.75 3 0  10.5 3 0  11.25 3 0  12 3 0  12.75 3 0  13.5 3 0  14.25 3 0  15 3 0  15.75 3 0  16.5 3 0  17.25 3 0  18 3 0  18.75 3 0  19.5 3 0  20.25 3 0  21 3 0  21.75 3 0  22.5 3 0  23.25 3 0  24 3 0  24.75 3 0  25.5 3 0  26.25 3 0  27 3 0  27.75 3 0  28.5 3 0  29.25 3 0  30 3 0  30.75 3 0  31.5 3 0  32.25 3 0  33 3 0  33.75 3 0  34.5 3 0  35.25 3 0  36 3 0  36.75 3 0  37.5 3 0  38.25 3 0  39 3 0  39.75 3 0  40.5 3 0  41.25 3 0  42 3 0  42.75 3 0  43.5 3 0  44.25 3 0  45 3 0  45.75 3 0  46.5 3 0  47.25 3 0  48 3 0  48.75 3 0  49.5 3 0  50.25 3 0  51 3 0  51.75 3 0  52.5 3 0  53.25 3 0  54 3 0  54.75 3 0  55.5 3 0  56.25 3 0  57 3 0  57.75 3 0  58.5 3 0  59.25 3 0  60 3 0  0 3.5 0  0.75 3.5 0  1.5 3.5 0  2.25 3.5 0  3 3.5 0  3.75 3.5 0  4.5 3.5 0  5.25 3.5 0  6 3.5 0  6.75 3.5 0  7.5 3.5 0  8.25 3.5 0  9 3.5 0  9.75 3.5 0  10.5 3.5 0  11.25 3.5 0  12 3.5 0  12.75 3.5 0  13.5 3.5 0  14.25 3.5 0  15 3.5 0  15.75 3.5 0  16.5 3.5 0  17.25 3.5 0  18 3.5 0  18.75 3.5 0  19.5 3.5 0  20.25 3.5 0  21 3.5 0  21.75 3.5 0  22.5 3.5 0  23.25 3.5 0  24 3.5 0  24.75 3.5 0  25.5 3.5 0  26.25 3.5 0  27 3.5 0  27.75 3.5 0  28.5 3.5 0  29.25 3.5 0  30 3.5 0  30.75 3.5 0  31.5 3.5 0  32.25 3.5 0  33 3.5 0  33.75 3.5 0  34.5 3.5 0  35.25 3.5 0  36 3.5 0  36.75 3.5 0  37.5 3.5 0  38.25 3.5 0  39 3.5 0  39.75 3.5 0  40.5 3.5 0  41.25 3.5 0  42 3.5 0  42.75 3.5 0  43.5 3.5 0  44.25 3.5 0  45 3.5 0  45.75 3.5 0  46.5 3.5 0  47.25 3.5 0  48 3.5 0  48.75 3.5 0  49.5 3.5 0  50.25 3.5 0  51 3.5 0  51.75 3.5 0  52.5 3.5 0  53.25 3.5 0  54 3.5 0  54.75 3.5 0  55.5 3.5 0  56.25 3.5 0  57 3.5 0  57.75 3.5 0  58.5 3.5 0  59.25 3.5 0  60 3.5 0  0 4 0  0.75 4 0  1.5 4 0  2.25 4 0  3 4 0  3.75 4 0  4.5 4 0  5.25 4 0  6 4 0  6.75 4 0  7.5 4 0  8.25 4 0  9 4 0  9.75 4 0  10.5 4 0  11.25 4 0  12 4 0  12.75 4 0  13.5 4 0  14.25 4 0  15 4 0  15.75 4 0  16.5 4 0  17.25 4 0  18 4 0  18.75 4 0  19.5 4 0  20.25 4 0  21 4 0  21.75 4 0  22.5 4 0  23.25 4 0  24 4 0  24.75 4 0  25.5 4 0  26.25 4 0  27 4 0  27.75 4 0  28.5 4 0  29.25 4 0  30 4 0  30.75 4 0  31.5 4 0  32.25 4 0  33 4 0  33.75 4 0  34.5 4 0  35.25 4 0  36 4 0  36.75 4 0  37.5 4 0  38.25 4 0  39 4 0  39.75 4 0  40.5 4 0  41.25 4 0  42 4 0  42.75 4 0  43.5 4 0  44.25 4 0  45 4 0  45.75 4 0  46.5 4 0  47.25 4 0  48 4 0  48.75 4 0  49.5 4 0  50.25 4 0  51 4 0  51.75 4 0  52.5 4 0  53.25 4 0  54 4 0  54.75 4 0  55.5 4 0  56.25 4 0  57 4 0  57.75 4 0  58.5 4 0  59.25 4 0  60 4 0  0.375 0.25 0  1.125 0.25 0  1.875 0.25 0  2.625 0.25 0  3.375 0.25 0  4.125 0.25 0  4.875 0.25 0  5.625 0.25 0  6.375 0.25 0  7.125 0.25 0  7.875 0.25 0  8.625 0.25 0  9.375 0.25 0  10.125 0.25 0  10.875 0.25 0  11.625 0.25 0  12.375 0.25 0  13.125 0.25 0  13.875 0.25 0  14.625 0.25 0  15.375 0.25 0  16.125 0.25 0  16.875 0.25 0  17.625 0.25 0  18.375 0.25 0  19.125 0.25 0  19.875 0.25 0  20.625 0.25 0  21.375 0.25 0  22.125 0.25 0  22.875 0.25 0  23.625 0.25 0  24.375 0.25 0  25.125 0.25 0  25.875 0.25 0  26.625 0.25 0  27.375 0.25 0  28.125 0.25 0  28.875 0.25 0  29.625 0.25 0  30.375 0.25 0  31.125 0.25 0  31.875 0.25 0  32.625 0.25 0  33.375 0.25 0  34.125 0.25 0  34.875 0.25 0  35.625 0.25 0  36.375 0.25 0  37.125 0.25 0  37.875 0.25 0  38.625 0.25 0  39.375 0.25 0  40.125 0.25 0  40.875 0.25 0  41.625 0.25 0  42.375 0.25 0  43.125 0.25 0  43.875 0.25 0  44.625 0.25 0  45.375 0.25 0  46.125 0.25 0  46.875 0.25 0  47.625 0.25 0  48.375 0.25 0  49.125 0.25 0  49.875 0.25 0  50.625 0.25 0  51.375 0.25 0  52.125 0.25 0  52.875 0.25 0  53.625 0.25 0  54.375 0.25 0  55.125 0.25 0  55.875 0.25 0  56.625 0.25 0  57.375 0.25 0  58.125 0.25 0  58.875 0.25 0  59.625 0.25 0  0.375 0.75 0  1.125 0.75 0  1.875 0.75 0  2.625 0.75 0  3.375 0.75 0  4.125 0.75 0  4.875 0.75 0  5.625 0.75 0  6.375 0.75 0  7.125 0.75 0  7.875 0.75 0  8.625 0.75 0  9.375 0.75 0  10.125 0.75 0  10.875 0.75 0  11.625 0.75 0  12.375 0.75 0  13.125 0.75 0  13.875 0.75 0  14.625 0.75 0  15.375 0.75 0  16.125 0.75 0  16.875 0.75 0  17.625 0.75 0  18.375 0.75 0  19.125 0.75 0  19.875 0.75 0  20.625 0.75 0  21.375 0.75 0  22.125 0.75 0  22.875 0.75 0  23.625 0.75 0  24.375 0.75 0  25.125 0.75 0  25.875 0.75 0  26.625 0.75 0  27.375 0.75 0  28.125 0.75 0  28.875 0.75 0  29.625 0.75 0  30.375 0.75 0  31.125 0.75 0  31.875 0.75 0  32.625 0.75 0  33.375 0.75 0  34.125 0.75 0  34.875 0.75 0  35.625 0.75 0  36.375 0.75 0  37.125 0.75 0  37.875 0.75 0  38.625 0.75 0  39.375 0.75 0  40.125 0.75 0  40
[...]
<PointData  Scalars="f_8-1"> 
<DataArray  type="Float64"  Name="f_8-1"  format="ascii">-8.4829953825974727e+00  -8.3798090310109874e+00  -8.2708994563473794e+00  -8.1657311660834200e+00  -8.0594743802225732e+00  -7.9535526935588630e+00  -7.8472635315162975e+00  -7.7410628424321457e+00  -7.6347749679307420e+00  -7.5285558778815149e+00  -7.4223380743843119e+00  -7.3161800222444269e+00  -7.2100305008259271e+00  -7.1038971242927254e+00  -6.9977752939292124e+00  -6.8916707402978172e+00  -6.7855782571577414e+00  -6.6794840151503143e+00  -6.5733862673587087e+00  -6.4672857070670000e+00  -6.3611975052584446e+00  -6.2551308119813882e+00  -6.1490962491055434e+00  -6.0430929620941622e+00  -5.9371186594171892e+00  -5.8311643392254684e+00  -5.7252227921653898e+00  -5.6192854090445818e+00  -5.5133469996586291e+00  -5.4074029285023588e+00  -5.3014513651893118e+00  -5.1954909988611808e+00  -5.0895221226891216e+00  -4.9835451097841599e+00  -4.8775610407555137e+00  -4.7715708055225470e+00  -4.6655755256144591e+00  -4.5595760618433712e+00  -4.4535733068906405e+00  -4.3475679221965828e+00  -4.2415605350953998e+00  -4.1355516003777808e+00  -4.0295415298589781e+00  -3.9235306196379498e+00  -3.8175191307903287e+00  -3.7115072487425378e+00  -3.6054951304984129e+00  -3.4994828815946004e+00  -3.3934705843542279e+00  -3.2874582867760820e+00  -3.1814460209692945e+00  -3.0754337992569920e+00  -2.9694216262659006e+00  -2.8634094978823121e+00  -2.7573974083227477e+00  -2.6513853495032942e+00  -2.5453733144940860e+00  -2.4393612967051173e+00  -2.3333492912498692e+00  -2.2273372941234189e+00  -2.1213253026187942e+00  -2.0153133147004207e+00  -1.9093013290920755e+00  -1.8032893448869287e+00  -1.6972773615577113e+00  -1.5912653787521236e+00  -1.4852533963086583e+00  -1.3792414142036076e+00  -1.2732294326858358e+00  -1.1672174526275354e+00  -1.0612054766337566e+00  -9.5519351225334848e-01  -8.4918158113158704e-01  -7.4316974549366643e-01  -6.3715818402588220e-01  -5.3114740776687952e-01  -4.2513892656047753e-01  -3.1913641569817791e-01  -2.1316099410333877e-01  -1.0710688724380538e-01  -3.8223749169902211e-03  -8.4857817349567259e+00  -8.3789099542751622e+00  -8.2715098592338077e+00  -8.1656688928637653e+00  -8.0596723532715693e+00  -7.9535875400642668e+00  -7.8474013592160521e+00  -7.7411260386635279e+00  -7.6348912930834656e+00  -7.5286339058704392e+00  -7.4224350139656314e+00  -7.3162623277301471e+00  -7.2101221016146440e+00  -7.1039820739127144e+00  -6.9978599320852641e+00  -6.8917539897934228e+00  -6.7856622803430202e+00  -6.6795702955067533e+00  -6.5734717122241646e+00  -6.4673706456167794e+00  -6.3612786225842957e+00  -6.2552096639144183e+00  -6.1491715862541838e+00  -6.0431670610431354e+00  -5.9371911975466043e+00  -5.8312370597741987e+00  -5.7252953768712853e+00  -5.6193588174236524e+00  -5.5134208118942540e+00  -5.4074775913552395e+00  -5.3015264805069222e+00  -5.1955667642811871e+00  -5.0895982316200890e+00  -4.9836216535019240e+00  -4.8776378092257957e+00  -4.7716478450599231e+00  -4.6656527008113846e+00  -4.5596533980477361e+00  -4.4536507197341786e+00  -4.3476454265623490e+00  -4.2416380795493263e+00  -4.1356291937090752e+00  -4.0296191405955097e+00  -3.9236082526185716e+00  -3.8175967668779780e+00  -3.7115848910594575e+00  -3.6055727683465832e+00  -3.4995605179619242e+00  -3.3935482142126601e+00  -3.2875359131684863e+00  -3.1815236420289450e+00  -3.0755114175732596e+00  -2.9694992412954071e+00  -2.8634871114251310e+00  -2.7574750202103933e+00  -2.6514629607935993e+00  -2.5454509250733031e+00  -2.4394389071216787e+00  -2.3334269013963276e+00  -2.2274149042620723e+00  -2.1214029126623446e+00  -2.0153909247699042e+00  -1.9093789391279579e+00  -1.8033669549449456e+00  -1.6973549716017866e+00  -1.5913429888065682e+00  -1.4853310063492320e+00  -1.3793190242272335e+00  -1.2733070426395199e+00  -1.1672950623953438e+00  -1.0612830858565834e+00  -9.5527111994408109e-01  -8.4925918447074256e-01  -7.4324733636402363e-01  -6.3723573845881454e-01  -5.3122485939299358e-01  -4.2521600708198881e-01  -3.1921331521521545e-01  -2.1322003441212062e-01  -1.0738592701100556e-01  7.6296747811559437e-05  -8.4849456277756197e+00  -8.3791231159987785e+00  -8.2719203132273282e+00  -8.1659375844790105e+00  -8.0597325403205566e+00  -7.9537011288971380e+00  -7.8474213398196415e+00  -7.7412311322043363e+00  -7.6349369194070658e+00  -7.5287386579131725e+00  -7.4224963993481037e+00  -7.3163507131680108e+00  -7.2101911255348012e+00  -7.1040637917631697e+00  -6.9979288494737171e+00  -6.8918249620493084e+00  -6.7857286762098035e+00  -6.6796399658300523e+00  -6.5735424818991328e+00  -6.4674427271892458e+00  -6.3613500356001893e+00  -6.2552786436353109e+00  -6.1492381413083832e+00  -6.0432304835308823e+00  -5.9372528902053050e+00  -5.8312969358540805e+00  -5.7253548708870605e+00  -5.6194177900974109e+00  -5.5134802110874102e+00  -5.4075371208071692e+00  -5.3015866624430643e+00  -5.1956272588240564e+00  -5.0896593095878551e+00  -4.9836830203424860e+00  -4.8776996076095154e+00  -4.7717098548844898e+00  -4.6657150007741253e+00  -4.5597158362371921e+00  -4.4537133413553640e+00  -4.3477081319617277e+00  -4.2417008961219933e+00  -4.1356920582427401e+00  -4.0296820698886302e+00  -3.9236712065492498e+00  -3.8176597551968880e+00  -3.7116478881750190e+00  -3.6056357801552461e+00  -3.4996235289227942e+00  -3.3936112288191160e+00  -3.2875989229295692e+00  -3.1815866509066022e+00  -3.0755744214411829e+00  -2.9695622434422471e+00  -2.8635501099769884e+00  -2.7575380175505027e+00  -2.6515259560331148e+00  -2.5455139197296086e+00  -2.4395019007073833e+00  -2.3334898947854885e+00  -2.2274778971520517e+00  -2.1214659055235709e+00  -2.0154539174085189e+00  -1.9094419317862430e+00  -1.8034299474992763e+00  -1.6974179641642451e+00  -1.5914059812714636e+00  -1.4853939986764131e+00  -1.3793820160727293e+00  -1.2733700331482647e+00  -1.1673580489422528e+00  -1.0613460608627745e+00  -9.5533406123306441e-01  -8.4932202742860874e-01  -7.4330989263083969e-01  -6.3729746005304710e-01  -5.3128414937381041e-01  -4.2526823917317663e-01  -3.1924424161356635e-01  -2.1319559815037711e-01  -1.0697950303747561e-01  -3.2980374653372819e-05  -8.4857381966194243e+00  -8.3784471040404469e+00  -8.2725340813064037e+00  -8.1656468168485148e+00  -8.0599613180993348e+00  -7.9534562487705704e+00  -7.8475177362293342e+00  -7.7410949313803528e+00  -7.6349931172861787e+00  -7.5286698633272637e+00  -7.4225286926729472e+00  -7.3163083311292603e+00  -7.2101939686331127e+00  -7.1040328289508112e+00  -6.9979213195893326e+00  -6.8917981266414445e+00  -6.7857082016852530e+00  -6.6796107065414878e+00  -6.5735195429395290e+00  -6.4674213528732327e+00  -6.3613342708708602e+00  -6.2552642289153795e+00  -6.1492235717895998e+00  -6.0432134658499059e+00  -5.9372321529549303e+00  -5.8312728231372750e+00  -5.7253273086627425e+00  -5.6193882214200910e+00  -5.5134488746560759e+00  -5.4075053144302201e+00  -5.3015544258430456e+00  -5.1955954045559203e+00  -5.0896276675438994e+00  -4.9836520158290636e+00  -4.8776689905669937e+00  -4.7716798282152375e+00  -4.6656853297220415e+00  -4.5596866141135273e+00  -4.4536843847085255e+00  -4.3476794834621160e+00  -4.2416724261614647e+00  -4.1356637876246447e+00  -4.0296539127333579e+00  -3.9236431737314525e+00  -3.8176317907246551e+00  -3.7116199968901373e+00  -3.6056079250080670e+00  -3.4995957114808727e+00  -3.3935834251314043e+00  -3.2875711341202907e+00  -3.1815588628707632e+00  -3.0755466362383155e+00  -2.9695344538368427e+00  -2.8635223187078651e+00  -2.7575102214042930e+00  -2.6514981576256167e+00  -2.5454861177719112e+00  -2.4394740971851125e+00  -2.3334620891691444e+00  -2.2274500907245347e+00  -2.1214380980180660e+00  -2.0154261095645900e+00  -1.9094141234341842e+00  -1.8034021390291328e+00  -1.6973901554460713e+00  -1.5913781724589804e+00  -1.4853661895535566e+00  -1.3793542063246362e+00  -1.2733422215096584e+00  -1.1673302318920395e+00  -1.0613182279389253e+00  -9.5530618196854755e-01  -8.4929401290362794e-01  -7.4328148420463180e-01  -6.3726790685178902e-01  -5.3125127809387374e-01  -4.2522578699007668e-01  -3.1917466318422932e-01  -2.1304878854524306e-01  -1.0671382961568797e-01  -4.0022032103070986e-05  -8.4846359433702290e+00  -8.3792876487963976e+00  -8.2717876141544533e+00  -8.1663014113657901e+00  -8.0594601799553303e+00  -7.9537939337686376e+00  -7.8472373622286700e+00  -7.7412638799397984e+00  -7.6348514433695174e+00  -7.5287512195272424e+00  -7.4224585664815743e+00  -7.3163444062635197e+00  -7.2101519829151641e+00  -7.1040436334599590e+00  -6.9978964138427582e+00  -6.8917981137931665e+00  -6.7856890623901975e+00  -6.6796019950953776e+00  -6.5735033135234069e+00  -6.4674121164635912e+00  -6.3613241047434084e+00  -6.2552577615358640e+00  -6.1492164645050327e+00  -6.0432062781398352e+00  -5.9372232896969432e+00  -5.8312622319155887e+00  -5.7253151910776365e+00  -5.6193746025069755e+00  -5.5134345485545166e+00  -5.4074902379303813e+00  -5.3015393210092405e+00  -5.1955801023244197e+00  -5.0896126559637880e+00  -4.9836370631888425e+00  -4.8776543912761632e+00  -4.7716653582784305e+00  -4.6656711610574613e+00  -4.5596725661385840e+00  -4.4536705578719609e+00  -4.3476657465465589e+00  -4.2416588384651996e+00  -4.1356502600426071e+00  -4.0296404811264361e+00  -3.9236297800640241e+00  -3.8176184568120992e+00  -3.7116066851324336e+00  -3.6055946482444816e+00  -3.4995824451332798e+00  -3.3935701767805866e+00  -3.2875578880820400e+00  -3.1815456242015463e+00  -3.0755333955821973e+00  -2.9695212150980108e+00  -2.8635090767427807e+00  -2.7574969793108943e+00  -2.6514849127358593e+00  -2.5454728723776618e+00  -2.4394608499111996e+00  -2.3334488415540791e+00  -2.2274368420261221e+00  -2.1214248491813925e+00  -2.0154128601634449e+00  -1.9094008740095858e+00  -1.8033888893254566e+00  -1.6973769057518602e+00  -1.5913649226029387e+00  -1.4853529396296097e+00  -1.3793409560635772e+00  -1.2733289704565707e+00  -1.1673169784313637e+00  -1.0613049675304695e+00  -9.5529290119865129e-01  -8.4928067278885599e-01  -7.4326797132286415e-01  -6.3725389236029983e-01  -5.3123581220091898e-01  -4.2520615722248345e-01  -3.1914335658454568e-01  -2.1298963084673789e-01  -1.0663264304242027e-01  -4.1335018055397790e-05  -8.4857381966209147e+00  -8.3784471040396156e+00  -8.2725340813076862e+00  -8.1656468168478007e+00  -8.0599613180997309e+00  -7.9534562487699629e+00  -7.8475177362292161e+00  -7.7410949313800081e+00  -7.6349931172859513e+00  -7.5286698633267308e+00  -7.4225286926728913e+00  -7.3163083311290178e+00  -7.2101939686324785e+00  -7.1040328289501247e+00  -6.9979213195891168e+00  -6.8917981266414508e+00  -6.7857082016850274e+00  -6.6796107065407844e+00  -6.5735195429386906e+00  -6.4674213528728535e+00  -6.3613342708713940e+00  -6.2552642289168343e+00  -6.1492235717915875e+00  -6.0432134658518502e+00  -5.9372321529563834e+00  -5.8312728231380246e+00  -5.7253273086628695e+00  -5.6193882214197819e+00  -5.5134488746555954e+00  -5.4075053144297716e+00  -5.3015544258427401e+00  -5.1955954045557471e+00  -5.0896276675438665e+00  -4.9836520158290982e+00  -4.8776689905670683e+00  -4.7716798282152872e+00  -4.6656853297220806e+00  -4.5596866141135521e+00  -4.4536843847085317e+00  -4.3476794834621142e+00  -4.2416724261614691e+00  -4.1356637876246518e+00  -4.0296539127333544e+00  -3.9236431737314508e+00  -3.8176317907246600e+00  -3.7116199968901396e+00  -3.6056079250080737e+00  -3.4995957114808687e+00  -3.3935834251314101e+00  -3.2875711341202880e+00  -3.1815588628707663e+00  -3.0755466362383106e+00  -2.9695344538368453e+00  -2.8635223187078616e+00  -2.7575102214042992e+00  -2.6514981576256145e+00  -2.5454861177719117e+00  -2.4394740971851081e+00  -2.3334620891691515e+00  -2.2274500907245329e+00  -2.1214380980180652e+00  -2.0154261095645865e+00  -1.9094141234341899e+00  -1.8034021390291268e+00  -1.6973901554460713e+00  -1.5913781724589813e+00  -1.4853661895535568e+00  -1.3793542063246360e+00  -1.2733422215096573e+00  -1.1673302318920393e+00  -1.0613182279389295e+00  -9.5530618196854189e-01  -8.4929401290363005e-01  -7.4328148420462947e-01  -6.3726790685179835e-01  -5.3125127809384887e-01  -4.2522578699007385e-01  -3.1917466318422716e-01  -2.1304878854524162e-01  -1.0671382961570060e-01  -4.0022032094879221e-05  -8.4849456277739748e+00  -8.3791231160005353e+00  -8.2719203132266905e+00  -8.1659375844799911e+00  -8.0597325403194890e+00  -7.9537011288971593e+00  -7.8474213398185828e+00  -7.7412311322042244e+00  -7.6349369194061953e+00  -7.5287386579125632e+00  -7.4224963993478079e+00  -7.3163507131675525e+00  -7.2101911255336297e+00  -7.1040637917621634e+00  -6.9979288494733591e+00  -6.8918249620492276e+00  -6.7857286762092199e+00  -6.6796399658288079e+00  -6.5735424818978760e+00  -6.4674427271889794e+00  -6.3613500356015305e+00  -6.2552786436381247e+00  -6.1492381413118915e+00  -6.0432304835341464e+00  -5.9372528902076098e+00  -5.8312969358551632e+00  -5.7253548708871094e+00  -5.6194177900967928e+00  -5.5134802110865602e+00  -5.4075371208064249e+00  -5.3015866624425723e+00  -5.1956272588238095e+00  -5.0896593095878320e+00  -4.9836830203425571e+00  -4.8776996076096317e+00  -4.7717098548845795e+00  -4.6657150007741865e+00  -4.5597158362372374e+00  -4.4537133413553738e+00  -4.3477081319617330e+00  -4.2417008961219995e+00  -4.1356920582427419e+00  -4.0296820698886311e+00  -3.9236712065492423e+00  -3.8176597551968983e+00  -3.7116478881750226e+00  -3.6056357801552554e+00  -3.4996235289227910e+00  -3.3936112288191183e+00  -3.2875989229295701e+00  -3.1815866509066120e+00  -3.0755744214411669e+00  -2.9695622434422586e+00  -2.8635501099769867e+00  -2.7575380175505080e+00  -2.6515259560331175e+00  -2.5455139197296051e+00  -2.4395019007073819e+00  -2.3334898947854925e+00  -2.2274778971520521e+00  -2.1214659055235696e+00  -2.0154539174085198e+00  -1.9094419317862479e+00  -1.8034299474992701e+00  -1.6974179641642471e+00  -1.5914059812714658e+00  -1.4853939986764058e+00  -1.3793820160727346e+00  -1.2733700331482598e+00  -1.1673580489422570e+00  -1.0613460608627716e+00  -9.5533406123306475e-01  -8.4932202742860452e-01  -7.4330989263083636e-01  -6.3729746005305044e-01  -5.3128414937380075e-01  -4.2526823917317469e-01  -3.1924424161356124e-01  -2.1319559815038472e-01  -1.0697950303748976e-01  -3.2980374645772128e-05  -8.4857817349575591e+00  -8.3789099542756738e+00  -8.2715098592351595e+00  -8.1656688928635894e+00  -8.0596723532714449e+00  -7.9535875400633902e+00  -7.8474013592154082e+00  -7.7411260386628520e+00  -7.6348912930826653e+00  -7.5286339058696816e+00  -7.4224350139652708e+00  -7.3162623277294028e+00  -7.2101221016134520e+00  -7.1039820739117419e+00  -6.9978599320848938e+00  -6.8917539897931750e+00  -6.7856622803422724e+00  -6.6795702955055090e+00  -6.5734717122231929e+00  -6.4673706456170370e+00  -6.3612786225862861e+00  -6.2552096639178352e+00  -6.1491715862581575e+00  -6.0431670610466464e+00  -5.9371911975490059e+00  -5.8312370597752441e+00  -5.7252953768712125e+00  -5.6193588174229303e+00  -5.5134208118933135e+00  -5.4074775913544295e+00  -5.3015264805064053e+00  -5.1955667642809367e+00  -5.0895982316200747e+00  -4.9836216535020181e+00  -4.8776378092259129e+00  -4.7716478450600333e+00  -4.6656527008114512e+00  -4.5596533980477743e+00  -4.4536507197342079e+00  -4.3476454265623481e+00  -4.2416380795493369e+00  -4.1356291937090885e+00  -4.0296191405954991e+00  -3.9236082526185698e+00  -3.8175967668779944e+00  -3.7115848910594558e+00  -3.6055727683465997e+00  -3.4995605179619225e+00  -3.3935482142126636e+00  -3.2875359131684947e+00  -3.1815236420289468e+00  -3.0755114175732614e+00  -2.9694992412954040e+00  -2.8634871114251350e+00  -2.7574750202104035e+00  -2.6514629607935967e+00  -2.5454509250733000e+00  -2.4394389071216787e+00  -2.3334269013963378e+00  -2.2274149042620683e+00  -2.1214029126623450e+00  -2.0153909247699162e+00  -1.9093789391279545e+00  -1.8033669549449385e+00  -1.6973549716017995e+00  -1.5913429888065647e+00  -1.4853310063492358e+00  -1.3793190242272333e+00  -1.2733070426395234e+00  -1.1672950623953458e+00  -1.0612830858565772e+00  -9.5527111994407654e-01  -8.4925918447074156e-01  -7.4324733636401497e-01  -6.3723573845880943e-01  -5.3122485939299269e-01  -4.2521600708198415e-01  -3.1921331521521090e-01  -2.1322003441214135e-01  -1.0738592701101295e-01  7.6296747813977913e-05  -8.4829953825968438e+00  -8.3798090310125080e+00  -8.2708994563480758e+00  -8.1657311660838090e+00  -8.0594743802220172e+00  -7.9535526935582554e+00  -7.8472635315154564e+00  -7.7410628424315417e+00  -7.6347749679298706e+00  -7.5285558778809225e+00  -7.4223380743838501e+00  -7.3161800222437146e+00  -7.2100305008248657e+00  -7.1038971242919606e+00  -6.9977752939289095e+00  -6.8916707402976165e+00  -6.7855782571571055e+00  -6.6794840151493293e+00  -6.5733862673580941e+00  -6.4672857070676075e+00  -6.3611975052606748e+00  -6.2551308119848645e+00  -6.1490962491094647e+00  -6.0430929620975551e+00  -5.9371186594194683e+00  -5.8311643392264303e+00  -5.7252227921652796e+00  -5.6192854090438615e+00  -5.5133469996577089e+00  -5.4074029285015808e+00  -5.3014513651888162e+00  -5.1954909988609419e+00  -5.0895221226891136e+00  -4.9835451097842398e+00  -4.8775610407556291e+00  -4.7715708055226456e+00  -4.6655755256145373e+00  -4.5595760618434076e+00  -4.4535733068906680e+00  -4.3475679221965793e+00  -4.2415605350954104e+00  -4.1355516003777888e+00  -4.0295415298589612e+00  -3.9235306196379582e+00  -3.8175191307903358e+00  -3.7115072487425373e+00  -3.6054951304984311e+00  -3.4994828815945946e+00  -3.3934705843542359e+00  -3.2874582867760913e+00  -3.1814460209693056e+00  -3.0754337992569902e+00  -2.9694216262658957e+00  -2.8634094978823215e+00  -2.7573974083227593e+00  -2.6513853495032937e+00  -2.5453733144940789e+00  -2.4393612967051226e+00  -2.3333492912498799e+00  -2.2273372941234184e+00  -2.1213253026187955e+00  -2.0153133147004278e+00  -1.9093013290920735e+00  -1.8032893448869236e+00  -1.6972773615577150e+00  -1.5912653787521229e+00  -1.4852533963086614e+00  -1.3792414142036074e+00  -1.2732294326858360e+00  -1.1672174526275381e+00  -1.0612054766337453e+00  -9.5519351225334215e-01  -8.4918158113159536e-01  -7.4316974549366199e-01  -6.3715818402588109e-01  -5.3114740776687963e-01  -4.2513892656046970e-01  -3.1913641569817747e-01  -2.1316099410335262e-01  -1.0710688724380667e-01  -3.8223749169938046e-03  -8.4337539870647511e+00  -8.3251913669405440e+00  -8.2188675683656918e+00  -8.1128879029469356e+00  -8.0068684371145444e+00  -7.9007389772148384e+00  -7.7944996781316878e+00  -7.6882552972621347e+00  -7.5820000475388003e+00  -7.4757790639732296e+00  -7.3695902367144068e+00  -7.2634362183091312e+00  -7.1572937995315673e+00  -7.0511644359388175e+00  -6.9450506825381897e+00  -6.8389522544886194e+00  -6.7328596817422799e+00  -6.6267636542030539e+00  -6.5206638461641591e+00  -6.4145678646771902e+00  -6.3084887102177181e+00  -6.2024363630461847e+00  -6.0964162462079958e+00  -5.9904266421639063e+00  -5.8844620459997836e+00  -5.7785140908731902e+00  -5.6725748781654390e+00  -5.5666373030657947e+00  -5.4606964659638342e+00  -5.3547490154347130e+00  -5.2487934116528816e+00  -5.1428290860352481e+00  -5.0368564065119052e+00  -4.9308760712992852e+00  -4.8248890948968759e+00  -4.7188964690273627e+00  -4.6128992061051912e+00  -4.5068981758681845e+00  -4.4008941698063682e+00  -4.2948878286035894e+00  -4.1888797025437716e+00  -4.0828702227147327e+00  -3.9768597488381476e+00  -3.8708485582864247e+00  -3.7648368781320309e+00  -3.6588248791263389e+00  -3.5528126951351728e+00  -3.4468004199242079e+00  -3.3407881202498784e+00  -3.2347758359662171e+00  -3.1287635901085284e+00  -3.0227513908650994e+00  -2.9167392388371214e+00  -2.8107271287899112e+00  -2.7047150539136005e+00  -2.5987030064846213e+00  -2.4926909797882804e+00  -2.3866789679506231e+00  -2.2806669665486958e+00  -2.1746549721518642e+00  -2.0686429824044650e+00  -1.9626309956127845e+00  -1.8566190106962686e+00  -1.7506070269197500e+00  -1.6445950438504846e+00  -1.5385830612242033e+00  -1.4325710789540167e+00  -1.326559097158