<?xml version="1.0"?>
<VTKFile type="UnstructuredGrid"  version="0.1"  >
<UnstructuredGrid>
<Piece  NumberOfPoints="1369" NumberOfCells="2560">
<Points>
<DataArray  type="Float64"  NumberOfComponents="3"  format="ascii">0 0 0  0.75 0 0  1.5 0 0  2.25 0 0  3 0 0  3.75 0 0  4.5 0 0  5.25 0 0  6 0 0  6.75 0 0  7.5 0 0  8.25 0 0  9 0 0  9.75 0 0  10.5 0 0  11.25 0 0  12 0 0  12.75 0 0  13.5 0 0  14.25 0 0  15 0 0  15.75 0 0  16.5 0 0  17.25 0 0  18 0 0  18.75 0 0  19.5 0 0  20.25 0 0  21 0 0  21.75 0 0  22.5 0 0  23.25 0 0  24 0 0  24.75 0 0  25.5 0 0  26.25 0 0  27 0 0  27.75 0 0  28.5 0 0  29.25 0 0  30 0 0  30.75 0 0  31.5 0 0  32.25 0 0  33 0 0  33.75 0 0  34.5 0 0  35.25 0 0  36 0 0  36.75 0 0  37.5 0 0  38.25 0 0  39 0 0  39.75 0 0  40.5 0 0  41.25 0 0  42 0 0  42.75 0 0  43.5 0 0  44.25 0 0  45 0 0  45.75 0 0  46.5 0 0  47.25 0 0  48 0 0  48.75 0 0  49.5 0 0  50.25 0 0  51 0 0  51.75 0 0  52.5 0 0  53.25 0 0  54 0 0  54.75 0 0  55.5 0 0  56.25 0 0  57 0 0  57.75 0 0  58.5 0 0  59.25 0 0  60 0 0  0 0.5 0  0.75 0.5 0  1.5 0.5 0  2.25 0.5 0  3 0.5 0  3.75 0.5 0  4.5 0.5 0  5.25 0.5 0  6 0.5 0  6.75 0.5 0  7.5 0.5 0  8.25 0.5 0  9 0.5 0  9.75 0.5 0  10.5 0.5 0  11.25 0.5 0  12 0.5 0  12.75 0.5 0  13.5 0.5 0  14.25 0.5 0  15 0.5 0  15.75 0.5 0  16.5 0.5 0  17.25 0.5 0  18 0.5 0  18.75 0.5 0  19.5 0.5 0  20.25 0.5 0  21 0.5 0  21.75 0.5 0  22.5 0.5 0  23.25 0.5 0  24 0.5 0  24.75 0.5 0  25.5 0.5 0  26.25 0.5 0  27 0.5 0  27.75 0.5 0  28.5 0.5 0  29.25 0.5 0  30 0.5 0  30.75 0.5 0  31.5 0.5 0  32.25 0.5 0  33 0.5 0  33.75 0.5 0  34.5 0.5 0  35.25 0.5 0  36 0.5 0  36.75 0.5 0  37.5 0.5 0  38.25 0.5 0  39 0.5 0  39.75 0.5 0  40.5 0.5 0  41.25 0.5 0  42 0.5 0  42.75 0.5 0  43.5 0.5 0  44.25 0.5 0  45 0.5 0  45.75 0.5 0  46.5 0.5 0  47.25 0.5 0  48 0.5 0  48.75 0.5 0  49.5 0.5 0  50.25 0.5 0  51 0.5 0  51.75 0.5 0  52.5 0.5 0  53.25 0.5 0  54 0.5 0  54.75 0.5 0  55.5 0.5 0  56.25 0.5 0  57 0.5 0  57.75 0.5 0  58.5 0.5 0  59.25 0.5 0  60 0.5 0  0 1 0  0.75 1 0  1.5 1 0  2.25 1 0  3 1 0  3.75 1 0  4.5 1 0  5.25 1 0  6 1 0  6.75 1 0  7.5 1 0  8.25 1 0  9 1 0  9.75 1 0  10.5 1 0  11.25 1 0  12 1 0  12.75 1 0  13.5 1 0  14.25 1 0  15 1 0  15.75 1 0  16.5 1 0  17.25 1 0  18 1 0  18.75 1 0  19.5 1 0  20.25 1 0  21 1 0  21.75 1 0  22.5 1 0  23.25 1 0  24 1 0  24.75 1 0  25.5 1 0  26.25 1 0  27 1 0  27.75 1 0  28.5 1 0  29.25 1 0  30 1 0  30.75 1 0  31.5 1 0  32.25 1 0  33 1 0  33.75 1 0  34.5 1 0  35.25 1 0  36 1 0  36.75 1 0  37.5 1 0  38.25 1 0  39 1 0  39.75 1 0  40.5 1 0  41.25 1 0  42 1 0  42.75 1 0  43.5 1 0  44.25 1 0  45 1 0  45.75 1 0  46.5 1 0  47.25 1 0  48 1 0  48.75 1 0  49.5 1 0  50.25 1 0  51 1 0  51.75 1 0  52.5 1 0  53.25 1 0  54 1 0  54.75 1 0  55.5 1 0  56.25 1 0  57 1 0  57.75 1 0  58.5 1 0  59.25 1 0  60 1 0  0 1.5 0  0.75 1.5 0  1.5 1.5 0  2.25 1.5 0  3 1.5 0  3.75 1.5 0  4.5 1.5 0  5.25 1.5 0  6 1.5 0  6.75 1.5 0  7.5 1.5 0  8.25 1.5 0  9 1.5 0  9.75 1.5 0  10.5 1.5 0  11.25 1.5 0  12 1.5 0  12.75 1.5 0  13.5 1.5 0  14.25 1.5 0  15 1.5 0  15.75 1.5 0  16.5 1.5 0  17.25 1.5 0  18 1.5 0  18.75 1.5 0  19.5 1.5 0  20.25 1.5 0  21 1.5 0  21.75 1.5 0  22.5 1.5 0  23.25 1.5 0  24 1.5 0  24.75 1.5 0  25.5 1.5 0  26.25 1.5 0  27 1.5 0  27.75 1.5 0  28.5 1.5 0  29.25 1.5 0  30 1.5 0  30.75 1.5 0  31.5 1.5 0  32.25 1.5 0  33 1.5 0  33.75 1.5 0  34.5 1.5 0  35.25 1.5 0  36 1.5 0  36.75 1.5 0  37.5 1.5 0  38.25 1.5 0  39 1.5 0  39.75 1.5 0  40.5 1.5 0  41.25 1.5 0  42 1.5 0  42.75 1.5 0  43.5 1.5 0  44.25 1.5 0  45 1.5 0  45.75 1.5 0  46.5 1.5 0  47.25 1.5 0  48 1.5 0  48.75 1.5 0  49.5 1.5 0  50.25 1.5 0  51 1.5 0  51.75 1.5 0  52.5 1.5 0  53.25 1.5 0  54 1.5 0  54.75 1.5 0  55.5 1.5 0  56.25 1.5 0  57 1.5 0  57.75 1.5 0  58.5 1.5 0  59.25 1.5 0  60 1.5 0  0 2 0  0.75 2 0  1.5 2 0  2.25 2 0  3 2 0  3.75 2 0  4.5 2 0  5.25 2 0  6 2 0  6.75 2 0  7.5 2 0  8.25 2 0  9 2 0  9.75 2 0  10.5 2 0  11.25 2 0  12 2 0  12.75 2 0  13.5 2 0  14.25 2 0  15 2 0  15.75 2 0  16.5 2 0  17.25 2 0  18 2 0  18.75 2 0  19.5 2 0  20.25 2 0  21 2 0  21.75 2 0  22.5 2 0  23.25 2 0  24 2 0  24.75 2 0  25.5 2 0  26.25 2 0  27 2 0  27.75 2 0  28.5 2 0  29.25 2 0  30 2 0  30.75 2 0  31.5 2 0  32.25 2 0  33 2 0  33.75 2 0  34.5 2 0  35.25 2 0  36 2 0  36.75 2 0  37.5 2 0  38.25 2 0  39 2 0  39.75 2 0  40.5 2 0  41.25 2 0  42 2 0  42.75 2 0  43.5 2 0  44.25 2 0  45 2 0  45.75 2 0  46.5 2 0  47.25 2 0  48 2 0  48.75 2 0  49.5 2 0  50.25 2 0  51 2 0  51.75 2 0  52.5 2 0  53.25 2 0  54 2 0  54.75 2 0  55.5 2 0  56.25 2 0  57 2 0  57.75 2 0  58.5 2 0  59.25 2 0  60 2 0  0 2.5 0  0.75 2.5 0  1.5 2.5 0  2.25 2.5 0  3 2.5 0  3.75 2.5 0  4.5 2.5 0  5.25 2.5 0  6 2.5 0  6.75 2.5 0  7.5 2.5 0  8.25 2.5 0  9 2.5 0  9.75 2.5 0  10.5 2.5 0  11.25 2.5 0  12 2.5 0  12.75 2.5 0  13.5 2.5 0  14.25 2.5 0  15 2.5 0  15.75 2.5 0  16.5 2.5 0  17.25 2.5 0  18 2.5 0  18.75 2.5 0  19.5 2.5 0  20.25 2.5 0  21 2.5 0  21.75 2.5 0  22.5 2.5 0  23.25 2.5 0  24 2.5 0  24.75 2.5 0  25.5 2.5 0  26.25 2.5 0  27 2.5 0  27.75 2.5 0  28.5 2.5 0  29.25 2.5 0  30 2.5 0  30.75 2.5 0  31.5 2.5 0  32.25 2.5 0  33 2.5 0  33.75 2.5 0  34.5 2.5 0  35.25 2.5 0  36 2.5 0  36.75 2.5 0  37.5 2.5 0  38.25 2.5 0  39 2.5 0  39.75 2.5 0  40.5 2.5 0  41.25 2.5 0  42 2.5 0  42.75 2.5 0  43.5 2.5 0  44.25 2.5 0  45 2.5 0  45.75 2.5 0  46.5 2.5 0  47.25 2.5 0  48 2.5 0  48.75 2.5 0  49.5 2.5 0  50.25 2.5 0  51 2.5 0  51.75 2.5 0  52.5 2.5 0  53.25 2.5 0  54 2.5 0  54.75 2.5 0  55.5 2.5 0  56.25 2.5 0  57 2.5 0  57.75 2.5 0  58.5 2.5 0  59.25 2.5 0  60 2.5 0  0 3 0  0.75 3 0  1.5 3 0  2.25 3 0  3 3 0  3.75 3 0  4.5 3 0  5.25 3 0  6 3 0  6.75 3 0  7.5 3 0  8.25 3 0  9 3 0  9.75 3 0  10.5 3 0  11.25 3 0  12 3 0  12.75 3 0  13.5 3 0  14.25 3 0  15 3 0  15.75 3 0  16.5 3 0  17.25 3 0  18 3 0  18.75 3 0  19.5 3 0  20.25 3 0  21 3 0  21.75 3 0  22.5 3 0  23.25 3 0  24 3 0  24.75 3 0  25.5 3 0  26.25 3 0  27 3 0  27.75 3 0  28.5 3 0  29.25 3 0  30 3 0  30.75 3 0  31.5 3 0  32.25 3 0  33 3 0  33.75 3 0  34.5 3 0  35.25 3 0  36 3 0  36.75 3 0  37.5 3 0  38.25 3 0  39 3 0  39.75 3 0  40.5 3 0  41.25 3 0  42 3 0  42.75 3 0  43.5 3 0  44.25 3 0  45 3 0  45.75 3 0  46.5 3 0  47.25 3 0  48 3 0  48.75 3 0  49.5 3 0  50.25 3 0  51 3 0  51.75 3 0  52.5 3 0  53.25 3 0  54 3 0  54.75 3 0  55.5 3 0  56.25 3 0  57 3 0  57.75 3 0  58.5 3 0  59.25 3 0  60 3 0  0 3.5 0  0.75 3.5 0  1.5 3.5 0  2.25 3.5 0  3 3.5 0  3.75 3.5 0  4.5 3.5 0  5.25 3.5 0  6 3.5 0  6.75 3.5 0  7.5 3.5 0  8.25 3.5 0  9 3.5 0  9.75 3.5 0  10.5 3.5 0  11.25 3.5 0  12 3.5 0  12.75 3.5 0  13.5 3.5 0  14.25 3.5 0  15 3.5 0  15.75 3.5 0  16.5 3.5 0  17.25 3.5 0  18 3.5 0  18.75 3.5 0  19.5 3.5 0  20.25 3.5 0  21 3.5 0  21.75 3.5 0  22.5 3.5 0  23.25 3.5 0  24 3.5 0  24.75 3.5 0  25.5 3.5 0  26.25 3.5 0  27 3.5 0  27.75 3.5 0  28.5 3.5 0  29.25 3.5 0  30 3.5 0  30.75 3.5 0  31.5 3.5 0  32.25 3.5 0  33 3.5 0  33.75 3.5 0  34.5 3.5 0  35.25 3.5 0  36 3.5 0  36.75 3.5 0  37.5 3.5 0  38.25 3.5 0  39 3.5 0  39.75 3.5 0  40.5 3.5 0  41.25 3.5 0  42 3.5 0  42.75 3.5 0  43.5 3.5 0  44.25 3.5 0  45 3.5 0  45.75 3.5 0  46.5 3.5 0  47.25 3.5 0  48 3.5 0  48.75 3.5 0  49.5 3.5 0  50.25 3.5 0  51 3.5 0  51.75 3.5 0  52.5 3.5 0  53.25 3.5 0  54 3.5 0  54.75 3.5 0  55.5 3.5 0  56.25 3.5 0  57 3.5 0  57.75 3.5 0  58.5 3.5 0  59.25 3.5 0  60 3.5 0  0 4 0  0.75 4 0  1.5 4 0  2.25 4 0  3 4 0  3.75 4 0  4.5 4 0  5.25 4 0  6 4 0  6.75 4 0  7.5 4 0  8.25 4 0  9 4 0  9.75 4 0  10.5 4 0  11.25 4 0  12 4 0  12.75 4 0  13.5 4 0  14.25 4 0  15 4 0  15.75 4 0  16.5 4 0  17.25 4 0  18 4 0  18.75 4 0  19.5 4 0  20.25 4 0  21 4 0  21.75 4 0  22.5 4 0  23.25 4 0  24 4 0  24.75 4 0  25.5 4 0  26.25 4 0  27 4 0  27.75 4 0  28.5 4 0  29.25 4 0  30 4 0  30.75 4 0  31.5 4 0  32.25 4 0  33 4 0  33.75 4 0  34.5 4 0  35.25 4 0  36 4 0  36.75 4 0  37.5 4 0  38.25 4 0  39 4 0  39.75 4 0  40.5 4 0  41.25 4 0  42 4 0  42.75 4 0  43.5 4 0  44.25 4 0  45 4 0  45.75 4 0  46.5 4 0  47.25 4 0  48 4 0  48.75 4 0  49.5 4 0  50.25 4 0  51 4 0  51.75 4 0  52.5 4 0  53.25 4 0  54 4 0  54.75 4 0  55.5 4 0  56.25 4 0  57 4 0  57.75 4 0  58.5 4 0  59.25 4 0  60 4 0  0.375 0.25 0  1.125 0.25 0  1.875 0.25 0  2.625 0.25 0  3.375 0.25 0  4.125 0.25 0  4.875 0.25 0  5.625 0.25 0  6.375 0.25 0  7.125 0.25 0  7.875 0.25 0  8.625 0.25 0  9.375 0.25 0  10.125 0.25 0  10.875 0.25 0  11.625 0.25 0  12.375 0.25 0  13.125 0.25 0  13.875 0.25 0  14.625 0.25 0  15.375 0.25 0  16.125 0.25 0  16.875 0.25 0  17.625 0.25 0  18.375 0.25 0  19.125 0.25 0  19.875 0.25 0  20.625 0.25 0  21.375 0.25 0  22.125 0.25 0  22.875 0.25 0  23.625 0.25 0  24.375 0.25 0  25.125 0.25 0  25.875 0.25 0  26.625 0.25 0  27.375 0.25 0  28.125 0.25 0  28.875 0.25 0  29.625 0.25 0  30.375 0.25 0  31.125 0.25 0  31.875 0.25 0  32.625 0.25 0  33.375 0.25 0  34.125 0.25 0  34.875 0.25 0  35.625 0.25 0  36.375 0.25 0  37.125 0.25 0  37.875 0.25 0  38.625 0.25 0  39.375 0.25 0  40.125 0.25 0  40.875 0.25 0  41.625 0.25 0  42.375 0.25 0  43.125 0.25 0  43.875 0.25 0  44.625 0.25 0  45.375 0.25 0  46.125 0.25 0  46.875 0.25 0  47.625 0.25 0  48.375 0.25 0  49.125 0.25 0  49.875 0.25 0  50.625 0.25 0  51.375 0.25 0  52.125 0.25 0  52.875 0.25 0  53.625 0.25 0  54.375 0.25 0  55.125 0.25 0  55.875 0.25 0  56.625 0.25 0  57.375 0.25 0  58.125 0.25 0  58.875 0.25 0  59.625 0.25 0  0.375 0.75 0  1.125 0.75 0  1.875 0.75 0  2.625 0.75 0  3.375 0.75 0  4.125 0.75 0  4.875 0.75 0  5.625 0.75 0  6.375 0.75 0  7.125 0.75 0  7.875 0.75 0  8.625 0.75 0  9.375 0.75 0  10.125 0.75 0  10.875 0.75 0  11.625 0.75 0  12.375 0.75 0  13.125 0.75 0  13.875 0.75 0  14.625 0.75 0  15.375 0.75 0  16.125 0.75 0  16.875 0.75 0  17.625 0.75 0  18.375 0.75 0  19.125 0.75 0  19.875 0.75 0  20.625 0.75 0  21.375 0.75 0  22.125 0.75 0  22.875 0.75 0  23.625 0.75 0  24.375 0.75 0  25.125 0.75 0  25.875 0.75 0  26.625 0.75 0  27.375 0.75 0  28.125 0.75 0  28.875 0.75 0  29.625 0.75 0  30.375 0.75 0  31.125 0.75 0  31.875 0.75 0  32.625 0.75 0  33.375 0.75 0  34.125 0.75 0  34.875 0.75 0  35.625 0.75 0  36.375 0.75 0  37.125 0.75 0  37.875 0.75 0  38.625 0.75 0  39.375 0.75 0  40.125 0.75 0  40
[...]
<PointData  Scalars="f_8-1"> 
<DataArray  type="Float64"  Name="f_8-1"  format="ascii">-1.1997142341243604e+01  -1.1849738718798333e+01  -1.1699904833627800e+01  -1.1550029209626514e+01  -1.1400117317125046e+01  -1.1250166083383725e+01  -1.1100184492662381e+01  -1.0950181621385202e+01  -1.0800166197343916e+01  -1.0650144376649923e+01  -1.0500119539110647e+01  -1.0350094940176470e+01  -1.0200073976499144e+01  -1.0050058552345796e+01  -9.9000482388111166e+00  -9.7500414720427315e+00  -9.6000366886428097e+00  -9.4500328665046300e+00  -9.3000294528928293e+00  -9.1500262052755552e+00  -9.0000230207738419e+00  -8.8500198635049649e+00  -8.7000167174298522e+00  -8.5500135774465171e+00  -8.4000104400718172e+00  -8.2500073043570143e+00  -8.1000041692747722e+00  -7.9500010346604828e+00  -7.7999979001878534e+00  -7.6499947658488470e+00  -7.4999916315379593e+00  -7.3499884972652678e+00  -7.1999853629973343e+00  -7.0499822287399097e+00  -6.8999790944833874e+00  -6.7499759602293814e+00  -6.5999728259757804e+00  -6.4499696917225329e+00  -6.2999665574696859e+00  -6.1499634232166587e+00  -5.9999602889639263e+00  -5.8499571547109968e+00  -5.6999540204582519e+00  -5.5499508862053979e+00  -5.3999477519526238e+00  -5.2499446176997795e+00  -5.0999414834469832e+00  -4.9499383491941611e+00  -4.7999352149413523e+00  -4.6499320806885320e+00  -4.4999289464357091e+00  -4.3499258121828532e+00  -4.1999226779299565e+00  -4.0499195436769755e+00  -3.8999164094238270e+00  -3.7499132751703108e+00  -3.5999101409160832e+00  -3.4499070066603741e+00  -3.2999038724017100e+00  -3.1499007381369002e+00  -2.9998976038597771e+00  -2.8498944695573023e+00  -2.6998913352038856e+00  -2.5498882007464458e+00  -2.3998850660809268e+00  -2.2498819309925300e+00  -2.0998787950767377e+00  -1.9498756574321947e+00  -1.7998725167474390e+00  -1.6498693681113128e+00  -1.4998662128504878e+00  -1.3498629993540472e+00  -1.1998598750636082e+00  -1.0498559602687658e+00  -8.9985466238942979e-01  -7.4984028643000811e-01  -5.9987290962577366e-01  -4.4971694507986154e-01  -3.0016324553565688e-01  -1.4865547557165301e-01  -2.2770775733442585e-03  -1.1999955805960958e+01  -1.1849673120920619e+01  -1.1699867463515282e+01  -1.1549982852673063e+01  -1.1400070736820625e+01  -1.1250124006755403e+01  -1.1100145937915826e+01  -1.0950145588743647e+01  -1.0800131315808313e+01  -1.0650110289542596e+01  -1.0500085857571223e+01  -1.0350060651656653e+01  -1.0200038593322821e+01  -1.0050022291353031e+01  -9.9000115365992833e+00  -9.7500046126983406e+00  -9.5999998029320661e+00  -9.4499959856244615e+00  -9.2999925816547542e+00  -9.1499893375933965e+00  -8.9999861551562681e+00  -8.8499829977619839e+00  -8.6999798519477682e+00  -8.5499767116869165e+00  -8.3999735744154549e+00  -8.2499704385716974e+00  -8.0999673035518605e+00  -7.9499641688802516e+00  -7.7999610344405585e+00  -7.6499579000760622e+00  -7.4999547657806973e+00  -7.3499516314971212e+00  -7.1999484972358454e+00  -7.0499453629741096e+00  -6.8999422287201302e+00  -6.7499390944645885e+00  -6.5999359602118375e+00  -6.4499328259581494e+00  -6.2999296917054917e+00  -6.1499265574524058e+00  -5.9999234231996663e+00  -5.8499202889467732e+00  -5.6999171546939840e+00  -5.5499140204411681e+00  -5.3999108861883585e+00  -5.2499077519355453e+00  -5.0999046176827276e+00  -4.9499014834299198e+00  -4.7998983491771048e+00  -4.6498952149242889e+00  -4.4998920806714686e+00  -4.3498889464186226e+00  -4.1998858121657348e+00  -4.0498826779127874e+00  -3.8998795436596971e+00  -3.7498764094063115e+00  -3.5998732751523361e+00  -3.4498701408971790e+00  -3.2998670066395550e+00  -3.1498638723769989e+00  -2.9998607381042395e+00  -2.8498576038109835e+00  -2.6998544694756728e+00  -2.5498513350558332e+00  -2.3998482004639876e+00  -2.2498450655290778e+00  -2.0998419298978779e+00  -1.9498387929167269e+00  -1.7998356530778066e+00  -1.6498325083786918e+00  -1.4998293500589079e+00  -1.3498261819909587e+00  -1.1998229109315695e+00  -1.0498197754675791e+00  -8.9981539383524567e-01  -7.4981420589344516e-01  -5.9979732111229866e-01  -4.4981989719655263e-01  -2.9969984909040687e-01  -1.4979199897956355e-01  6.5635377945643108e-04  -1.2000047186695639e+01  -1.1849830228759677e+01  -1.1699874784574662e+01  -1.1549968044108562e+01  -1.1400051352892966e+01  -1.1250104415161113e+01  -1.1100127985883240e+01  -1.0950129293380929e+01  -1.0800115877525517e+01  -1.0650095508660007e+01  -1.0500071659214516e+01  -1.0350045868269524e+01  -1.0200022648153173e+01  -1.0050005592724556e+01  -9.8999945980887230e+00  -9.7499876870945670e+00  -9.5999829456361958e+00  -9.4499791826767208e+00  -9.2999758078181269e+00  -9.1499725770014155e+00  -8.9999693994198147e+00  -8.8499662439420650e+00  -8.6999630986684657e+00  -8.5499599587271096e+00  -8.3999568215134151e+00  -8.2499536857597047e+00  -8.0999505507395391e+00  -7.9499474161018515e+00  -7.7999442816542439e+00  -7.6499411473047658e+00  -7.4999380130028692e+00  -7.3499348787264687e+00  -7.1999317444612307e+00  -7.0499286102029073e+00  -6.8999254759468647e+00  -6.7499223416928658e+00  -6.5999192074391706e+00  -6.4499160731861309e+00  -6.2999129389330832e+00  -6.1499098046802496e+00  -5.9999066704273583e+00  -5.8499035361745575e+00  -5.6999004019217248e+00  -5.5498972676689320e+00  -5.3998941334161117e+00  -5.2498909991633047e+00  -5.0998878649104995e+00  -4.9498847306576783e+00  -4.7998815964048687e+00  -4.6498784621520519e+00  -4.4998753278992289e+00  -4.3498721936463980e+00  -4.1998690593935137e+00  -4.0498659251406028e+00  -3.8998627908875561e+00  -3.7498596566343014e+00  -3.5998565223805494e+00  -3.4498533881258795e+00  -3.2998502538692178e+00  -3.1498471196086895e+00  -2.9998439853399508e+00  -2.8498408510549877e+00  -2.6998377167363543e+00  -2.5498345823503663e+00  -2.3998314478267710e+00  -2.2498283130277663e+00  -2.0998251776756685e+00  -1.9498220412186580e+00  -1.7998189026081131e+00  -1.6498157595908840e+00  -1.4998126087692565e+00  -1.3498094388935784e+00  -1.1998062479877760e+00  -1.0498029443318795e+00  -8.9979969111521696e-01  -7.4979544963762446e-01  -5.9979284950725464e-01  -4.4978158429378051e-01  -2.9978274589150994e-01  -1.4977358457078888e-01  -2.6762827830940332e-05  -1.1999988483203415e+01  -1.1849911528059366e+01  -1.1699924089121238e+01  -1.1549989626229534e+01  -1.1400060960560157e+01  -1.1250111343823306e+01  -1.1100137342889814e+01  -1.0950141794834602e+01  -1.0800131734028511e+01  -1.0650113181199737e+01  -1.0500090816059245e+01  -1.0350066487853066e+01  -1.0200044068134948e+01  -1.0050026759422694e+01  -9.9000150763916164e+00  -9.7500074933572414e+00  -9.6000023218753512e+00  -9.4499983243522205e+00  -9.2999948484118118e+00  -9.1499915743585234e+00  -8.9999883825408133e+00  -8.8499852204648803e+00  -8.6999820733708777e+00  -8.5499789319781101e+00  -8.3999757944473306e+00  -8.2499726582543769e+00  -8.0999695231832121e+00  -7.9499663884035874e+00  -7.7999632539588921e+00  -7.6499601195613485e+00  -7.4999569852676746e+00  -7.3499538509742628e+00  -7.1999507167140413e+00  -7.0499475824497440e+00  -6.8999444481958765e+00  -6.7499413139399600e+00  -6.5999381796869585e+00  -6.4499350454334472e+00  -6.2999319111804919e+00  -6.1499287769276441e+00  -5.9999256426746879e+00  -5.8499225084219679e+00  -5.6999193741690428e+00  -5.5499162399163220e+00  -5.3999131056634448e+00  -5.2499099714106876e+00  -5.0999068371578380e+00  -4.9499037029050550e+00  -4.7999005686522187e+00  -4.6498974343994153e+00  -4.4998943001465790e+00  -4.3498911658937409e+00  -4.1998880316408522e+00  -4.0498848973879129e+00  -3.8998817631348239e+00  -3.7498786288814681e+00  -3.5998754946275286e+00  -3.4498723603724373e+00  -3.2998692261149913e+00  -3.1498660918527492e+00  -2.9998629575807332e+00  -2.8498598232888610e+00  -2.6998566889567375e+00  -2.5498535545431422e+00  -2.3998504199656541e+00  -2.2498472850595621e+00  -2.0998441495000120e+00  -1.9498410126508514e+00  -1.7998378732763176e+00  -1.6498347290466777e+00  -1.4998315754575942e+00  -1.3498284049748537e+00  -1.1998252019620890e+00  -1.0498219540121705e+00  -8.9981861391799456e-01  -7.4981534546827966e-01  -5.9981218033739103e-01  -4.4981235478648179e-01  -2.9982117895463284e-01  -1.4988686041389396e-01  1.2042372376575737e-05  -1.1999987060862903e+01  -1.1849928058722670e+01  -1.1699933764530261e+01  -1.1549990965050402e+01  -1.1400055439155789e+01  -1.1250105435339060e+01  -1.1100131467507126e+01  -1.0950137647627797e+01  -1.0800128672054486e+01  -1.0650111264166227e+01  -1.0500089285200803e+01  -1.0350065855638645e+01  -1.0200044055495603e+01  -1.0050026873328699e+01  -9.9000148457818984e+00  -9.7500069071504800e+00  -9.6000014531718723e+00  -9.4499973127506198e+00  -9.2999937592257158e+00  -9.1499904590010868e+00  -8.9999872529400147e+00  -8.8499840882446499e+00  -8.6999809382055471e+00  -8.5499777968256634e+00  -8.3999746583944859e+00  -8.2499715223526664e+00  -8.0999683869546537e+00  -7.9499652522731994e+00  -7.7999621177032266e+00  -7.6499589833571715e+00  -7.4999558490143965e+00  -7.3499527147446333e+00  -7.1999495804656988e+00  -7.0499464462108650e+00  -6.8999433119505245e+00  -6.7499401776977210e+00  -6.5999370434429485e+00  -6.4499339091900953e+00  -6.2999307749369358e+00  -6.1499276406839716e+00  -5.9999245064312356e+00  -5.8499213721782590e+00  -5.6999182379255728e+00  -5.5499151036726566e+00  -5.3999119694199385e+00  -5.2499088351670533e+00  -5.0999057009142970e+00  -4.9499025666614429e+00  -4.7998994324086635e+00  -4.6498962981558192e+00  -4.4998931639030086e+00  -4.3498900296501413e+00  -4.1998868953972650e+00  -4.0498837611442955e+00  -3.8998806268911812e+00  -3.7498774926377525e+00  -3.5998743583836834e+00  -3.4498712241283167e+00  -3.2998680898703068e+00  -3.1498649556069265e+00  -2.9998618213326047e+00  -2.8498586870360780e+00  -2.6998555526945545e+00  -2.5498524182621711e+00  -2.3998492836471956e+00  -2.2498461486672987e+00  -2.0998430129634267e+00  -1.9498398758349613e+00  -1.7998367359342893e+00  -1.6498335907000674e+00  -1.4998304354259748e+00  -1.3498272616289924e+00  -1.1998240561007798e+00  -1.0498208006172023e+00  -8.9981750310967912e-01  -7.4981427911129306e-01  -5.9981194448700614e-01  -4.4981352488876797e-01  -2.9983262840719144e-01  -1.4989128827083359e-01  -9.2889967301490152e-06  -1.1999988483203424e+01  -1.1849911528059348e+01  -1.1699924089121224e+01  -1.1549989626229532e+01  -1.1400060960560177e+01  -1.1250111343823328e+01  -1.1100137342889841e+01  -1.0950141794834586e+01  -1.0800131734028492e+01  -1.0650113181199716e+01  -1.0500090816059229e+01  -1.0350066487853050e+01  -1.0200044068134963e+01  -1.0050026759422687e+01  -9.9000150763916555e+00  -9.7500074933572431e+00  -9.6000023218753689e+00  -9.4499983243522276e+00  -9.2999948484118100e+00  -9.1499915743585429e+00  -8.9999883825408311e+00  -8.8499852204648750e+00  -8.6999820733708848e+00  -8.5499789319781154e+00  -8.3999757944473394e+00  -8.2499726582543698e+00  -8.0999695231832032e+00  -7.9499663884035803e+00  -7.7999632539588921e+00  -7.6499601195613636e+00  -7.4999569852677048e+00  -7.3499538509742770e+00  -7.1999507167140422e+00  -7.0499475824497502e+00  -6.8999444481958658e+00  -6.7499413139399493e+00  -6.5999381796869603e+00  -6.4499350454334454e+00  -6.2999319111804786e+00  -6.1499287769276361e+00  -5.9999256426746870e+00  -5.8499225084219635e+00  -5.6999193741690464e+00  -5.5499162399163326e+00  -5.3999131056634546e+00  -5.2499099714106983e+00  -5.0999068371578433e+00  -4.9499037029050603e+00  -4.7999005686522311e+00  -4.6498974343994206e+00  -4.4998943001465932e+00  -4.3498911658937400e+00  -4.1998880316408593e+00  -4.0498848973879111e+00  -3.8998817631348284e+00  -3.7498786288814654e+00  -3.5998754946275300e+00  -3.4498723603724386e+00  -3.2998692261149829e+00  -3.1498660918527408e+00  -2.9998629575807221e+00  -2.8498598232888539e+00  -2.6998566889567432e+00  -2.5498535545431364e+00  -2.3998504199656616e+00  -2.2498472850595630e+00  -2.0998441495000115e+00  -1.9498410126508512e+00  -1.7998378732763163e+00  -1.6498347290466802e+00  -1.4998315754575926e+00  -1.3498284049748537e+00  -1.1998252019620923e+00  -1.0498219540121738e+00  -8.9981861391799545e-01  -7.4981534546828343e-01  -5.9981218033739525e-01  -4.4981235478648418e-01  -2.9982117895463284e-01  -1.4988686041389329e-01  1.2042372376603110e-05  -1.2000047186695639e+01  -1.1849830228759696e+01  -1.1699874784574686e+01  -1.1549968044108573e+01  -1.1400051352892987e+01  -1.1250104415161124e+01  -1.1100127985883260e+01  -1.0950129293380906e+01  -1.0800115877525487e+01  -1.0650095508659987e+01  -1.0500071659214514e+01  -1.0350045868269495e+01  -1.0200022648153185e+01  -1.0050005592724547e+01  -9.8999945980887603e+00  -9.7499876870945759e+00  -9.5999829456362171e+00  -9.4499791826767261e+00  -9.2999758078181589e+00  -9.1499725770014226e+00  -8.9999693994198324e+00  -8.8499662439420650e+00  -8.6999630986684640e+00  -8.5499599587270971e+00  -8.3999568215134151e+00  -8.2499536857597011e+00  -8.0999505507395337e+00  -7.9499474161018275e+00  -7.7999442816542581e+00  -7.6499411473047818e+00  -7.4999380130028941e+00  -7.3499348787264935e+00  -7.1999317444612405e+00  -7.0499286102029179e+00  -6.8999254759468789e+00  -6.7499223416928569e+00  -6.5999192074391608e+00  -6.4499160731861265e+00  -6.2999129389330575e+00  -6.1499098046802345e+00  -5.9999066704273574e+00  -5.8499035361745584e+00  -5.6999004019217443e+00  -5.5498972676689240e+00  -5.3998941334161312e+00  -5.2498909991633100e+00  -5.0998878649105093e+00  -4.9498847306576987e+00  -4.7998815964048838e+00  -4.6498784621520608e+00  -4.4998753278992361e+00  -4.3498721936463989e+00  -4.1998690593935208e+00  -4.0498659251406055e+00  -3.8998627908875636e+00  -3.7498596566343010e+00  -3.5998565223805499e+00  -3.4498533881258804e+00  -3.2998502538692041e+00  -3.1498471196086695e+00  -2.9998439853399410e+00  -2.8498408510549802e+00  -2.6998377167363516e+00  -2.5498345823503605e+00  -2.3998314478267657e+00  -2.2498283130277663e+00  -2.0998251776756671e+00  -1.9498220412186609e+00  -1.7998189026081153e+00  -1.6498157595908822e+00  -1.4998126087692536e+00  -1.3498094388935804e+00  -1.1998062479877789e+00  -1.0498029443318895e+00  -8.9979969111521907e-01  -7.4979544963762801e-01  -5.9979284950725298e-01  -4.4978158429378062e-01  -2.9978274589150916e-01  -1.4977358457078854e-01  -2.6762827830967969e-05  -1.1999955805960951e+01  -1.1849673120920661e+01  -1.1699867463515305e+01  -1.1549982852673089e+01  -1.1400070736820672e+01  -1.1250124006755437e+01  -1.1100145937915823e+01  -1.0950145588743649e+01  -1.0800131315808281e+01  -1.0650110289542575e+01  -1.0500085857571223e+01  -1.0350060651656658e+01  -1.0200038593322846e+01  -1.0050022291353041e+01  -9.9000115365992958e+00  -9.7500046126983477e+00  -9.5999998029320928e+00  -9.4499959856244757e+00  -9.2999925816547648e+00  -9.1499893375934391e+00  -8.9999861551562734e+00  -8.8499829977619680e+00  -8.6999798519477718e+00  -8.5499767116868899e+00  -8.3999735744154265e+00  -8.2499704385717010e+00  -8.0999673035518551e+00  -7.9499641688802400e+00  -7.7999610344405843e+00  -7.6499579000761200e+00  -7.4999547657807213e+00  -7.3499516314971451e+00  -7.1999484972358392e+00  -7.0499453629741211e+00  -6.8999422287201204e+00  -6.7499390944645521e+00  -6.5999359602118224e+00  -6.4499328259581423e+00  -6.2999296917054792e+00  -6.1499265574523907e+00  -5.9999234231996743e+00  -5.8499202889467607e+00  -5.6999171546940133e+00  -5.5499140204411725e+00  -5.3999108861883842e+00  -5.2499077519355639e+00  -5.0999046176827658e+00  -4.9499014834299491e+00  -4.7998983491771288e+00  -4.6498952149242871e+00  -4.4998920806714819e+00  -4.3498889464186332e+00  -4.1998858121657374e+00  -4.0498826779127963e+00  -3.8998795436596954e+00  -3.7498764094063213e+00  -3.5998732751523432e+00  -3.4498701408971688e+00  -3.2998670066395475e+00  -3.1498638723769750e+00  -2.9998607381042222e+00  -2.8498576038109720e+00  -2.6998544694756563e+00  -2.5498513350558332e+00  -2.3998482004639814e+00  -2.2498450655290769e+00  -2.0998419298978828e+00  -1.9498387929167296e+00  -1.7998356530778115e+00  -1.6498325083786938e+00  -1.4998293500589124e+00  -1.3498261819909645e+00  -1.1998229109315788e+00  -1.0498197754675858e+00  -8.9981539383524989e-01  -7.4981420589344860e-01  -5.9979732111229855e-01  -4.4981989719655335e-01  -2.9969984909040664e-01  -1.4979199897956355e-01  6.5635377945609714e-04  -1.1997142341243610e+01  -1.1849738718798362e+01  -1.1699904833627832e+01  -1.1550029209626492e+01  -1.1400117317125037e+01  -1.1250166083383748e+01  -1.1100184492662382e+01  -1.0950181621385170e+01  -1.0800166197343893e+01  -1.0650144376649882e+01  -1.0500119539110630e+01  -1.0350094940176479e+01  -1.0200073976499167e+01  -1.0050058552345801e+01  -9.9000482388111308e+00  -9.7500414720427440e+00  -9.6000366886428399e+00  -9.4500328665046389e+00  -9.3000294528928578e+00  -9.1500262052755570e+00  -9.0000230207738614e+00  -8.8500198635049401e+00  -8.7000167174298646e+00  -8.5500135774464816e+00  -8.4000104400717763e+00  -8.2500073043570108e+00  -8.1000041692747775e+00  -7.9500010346604641e+00  -7.7999979001878943e+00  -7.6499947658488843e+00  -7.4999916315379700e+00  -7.3499884972652847e+00  -7.1999853629973396e+00  -7.0499822287399256e+00  -6.8999790944833697e+00  -6.7499759602293494e+00  -6.5999728259757671e+00  -6.4499696917225320e+00  -6.2999665574696762e+00  -6.1499634232166702e+00  -5.9999602889639316e+00  -5.8499571547110065e+00  -5.6999540204582662e+00  -5.5499508862054041e+00  -5.3999477519526380e+00  -5.2499446176998035e+00  -5.0999414834470107e+00  -4.9499383491941904e+00  -4.7999352149413772e+00  -4.6499320806885480e+00  -4.4999289464357197e+00  -4.3499258121828657e+00  -4.1999226779299654e+00  -4.0499195436769870e+00  -3.8999164094238301e+00  -3.7499132751703059e+00  -3.5999101409160845e+00  -3.4499070066603634e+00  -3.2999038724016994e+00  -3.1499007381368824e+00  -2.9998976038597651e+00  -2.8498944695572961e+00  -2.6998913352038745e+00  -2.5498882007464405e+00  -2.3998850660809228e+00  -2.2498819309925273e+00  -2.0998787950767430e+00  -1.9498756574321985e+00  -1.7998725167474416e+00  -1.6498693681113099e+00  -1.4998662128504878e+00  -1.3498629993540501e+00  -1.1998598750636160e+00  -1.0498559602687696e+00  -8.9985466238943590e-01  -7.4984028643000988e-01  -5.9987290962577333e-01  -4.4971694507986026e-01  -3.0016324553565760e-01  -1.4865547557165268e-01  -2.2770775733438487e-03  -1.1924352655818428e+01  -1.1774712142414122e+01  -1.1624855579819100e+01  -1.1474959138765088e+01  -1.1325028177523262e+01  -1.1175064157373866e+01  -1.1025073701423283e+01  -1.0875065802295596e+01  -1.0725047771483926e+01  -1.0575025058524803e+01  -1.0425000358479421e+01  -1.0274977095969614e+01  -1.0124958305941529e+01  -9.9749450644582129e+00  -9.8249363407576826e+00  -9.6749305084475505e+00  -9.5249261893687827e+00  -9.3749225728353895e+00  -9.2249192425132023e+00  -9.0749160278721082e+00  -8.9249128566665270e+00  -8.7749097052276976e+00  -8.6249065619366494e+00  -8.4749034233172047e+00  -8.3249002866724258e+00  -8.1748971512997635e+00  -8.0248940164194842e+00  -7.8748908818852970e+00  -7.7248877474709845e+00  -7.5748846131477849e+00  -7.4248814788549593e+00  -7.2748783445838976e+00  -7.1248752103220880e+00  -6.9748720760639911e+00  -6.8248689418096919e+00  -6.6748658075550331e+00  -6.5248626733022954e+00  -6.3748595390487068e+00  -6.2248564047961752e+00  -6.0748532705429943e+00  -5.9248501362903818e+00  -5.7748470020373990e+00  -5.6248438677846959e+00  -5.4748407335318117e+00  -5.3248375992790491e+00  -5.1748344650262013e+00  -5.0248313307734165e+00  -4.8748281965205900e+00  -4.7248250622677821e+00  -4.5748219280149565e+00  -4.4248187937621246e+00  -4.2748156595092519e+00  -4.1248125252563232e+00  -3.9748093910032742e+00  -3.8248062567499836e+00  -3.6748031224961828e+00  -3.5247999882413850e+00  -3.3747968539845088e+00  -3.2247937197234364e+00  -3.0747905854537860e+00  -2.9247874511667256e+00  -2.7747843168442357e+00  -2.6247811824500564e+00  -2.4747780479109629e+00  -2.3247749130803572e+00  -2.1747717776660354e+00  -2.0247686410855188e+00  -1.87476550219515