<?xml version="1.0"?>
<VTKFile type="UnstructuredGrid"  version="0.1"  >
<UnstructuredGrid>
<Piece  NumberOfPoints="1369" NumberOfCells="2560">
<Points>
<DataArray  type="Float64"  NumberOfComponents="3"  format="ascii">0 0 0  0.75 0 0  1.5 0 0  2.25 0 0  3 0 0  3.75 0 0  4.5 0 0  5.25 0 0  6 0 0  6.75 0 0  7.5 0 0  8.25 0 0  9 0 0  9.75 0 0  10.5 0 0  11.25 0 0  12 0 0  12.75 0 0  13.5 0 0  14.25 0 0  15 0 0  15.75 0 0  16.5 0 0  17.25 0 0  18 0 0  18.75 0 0  19.5 0 0  20.25 0 0  21 0 0  21.75 0 0  22.5 0 0  23.25 0 0  24 0 0  24.75 0 0  25.5 0 0  26.25 0 0  27 0 0  27.75 0 0  28.5 0 0  29.25 0 0  30 0 0  30.75 0 0  31.5 0 0  32.25 0 0  33 0 0  33.75 0 0  34.5 0 0  35.25 0 0  36 0 0  36.75 0 0  37.5 0 0  38.25 0 0  39 0 0  39.75 0 0  40.5 0 0  41.25 0 0  42 0 0  42.75 0 0  43.5 0 0  44.25 0 0  45 0 0  45.75 0 0  46.5 0 0  47.25 0 0  48 0 0  48.75 0 0  49.5 0 0  50.25 0 0  51 0 0  51.75 0 0  52.5 0 0  53.25 0 0  54 0 0  54.75 0 0  55.5 0 0  56.25 0 0  57 0 0  57.75 0 0  58.5 0 0  59.25 0 0  60 0 0  0 0.5 0  0.75 0.5 0  1.5 0.5 0  2.25 0.5 0  3 0.5 0  3.75 0.5 0  4.5 0.5 0  5.25 0.5 0  6 0.5 0  6.75 0.5 0  7.5 0.5 0  8.25 0.5 0  9 0.5 0  9.75 0.5 0  10.5 0.5 0  11.25 0.5 0  12 0.5 0  12.75 0.5 0  13.5 0.5 0  14.25 0.5 0  15 0.5 0  15.75 0.5 0  16.5 0.5 0  17.25 0.5 0  18 0.5 0  18.75 0.5 0  19.5 0.5 0  20.25 0.5 0  21 0.5 0  21.75 0.5 0  22.5 0.5 0  23.25 0.5 0  24 0.5 0  24.75 0.5 0  25.5 0.5 0  26.25 0.5 0  27 0.5 0  27.75 0.5 0  28.5 0.5 0  29.25 0.5 0  30 0.5 0  30.75 0.5 0  31.5 0.5 0  32.25 0.5 0  33 0.5 0  33.75 0.5 0  34.5 0.5 0  35.25 0.5 0  36 0.5 0  36.75 0.5 0  37.5 0.5 0  38.25 0.5 0  39 0.5 0  39.75 0.5 0  40.5 0.5 0  41.25 0.5 0  42 0.5 0  42.75 0.5 0  43.5 0.5 0  44.25 0.5 0  45 0.5 0  45.75 0.5 0  46.5 0.5 0  47.25 0.5 0  48 0.5 0  48.75 0.5 0  49.5 0.5 0  50.25 0.5 0  51 0.5 0  51.75 0.5 0  52.5 0.5 0  53.25 0.5 0  54 0.5 0  54.75 0.5 0  55.5 0.5 0  56.25 0.5 0  57 0.5 0  57.75 0.5 0  58.5 0.5 0  59.25 0.5 0  60 0.5 0  0 1 0  0.75 1 0  1.5 1 0  2.25 1 0  3 1 0  3.75 1 0  4.5 1 0  5.25 1 0  6 1 0  6.75 1 0  7.5 1 0  8.25 1 0  9 1 0  9.75 1 0  10.5 1 0  11.25 1 0  12 1 0  12.75 1 0  13.5 1 0  14.25 1 0  15 1 0  15.75 1 0  16.5 1 0  17.25 1 0  18 1 0  18.75 1 0  19.5 1 0  20.25 1 0  21 1 0  21.75 1 0  22.5 1 0  23.25 1 0  24 1 0  24.75 1 0  25.5 1 0  26.25 1 0  27 1 0  27.75 1 0  28.5 1 0  29.25 1 0  30 1 0  30.75 1 0  31.5 1 0  32.25 1 0  33 1 0  33.75 1 0  34.5 1 0  35.25 1 0  36 1 0  36.75 1 0  37.5 1 0  38.25 1 0  39 1 0  39.75 1 0  40.5 1 0  41.25 1 0  42 1 0  42.75 1 0  43.5 1 0  44.25 1 0  45 1 0  45.75 1 0  46.5 1 0  47.25 1 0  48 1 0  48.75 1 0  49.5 1 0  50.25 1 0  51 1 0  51.75 1 0  52.5 1 0  53.25 1 0  54 1 0  54.75 1 0  55.5 1 0  56.25 1 0  57 1 0  57.75 1 0  58.5 1 0  59.25 1 0  60 1 0  0 1.5 0  0.75 1.5 0  1.5 1.5 0  2.25 1.5 0  3 1.5 0  3.75 1.5 0  4.5 1.5 0  5.25 1.5 0  6 1.5 0  6.75 1.5 0  7.5 1.5 0  8.25 1.5 0  9 1.5 0  9.75 1.5 0  10.5 1.5 0  11.25 1.5 0  12 1.5 0  12.75 1.5 0  13.5 1.5 0  14.25 1.5 0  15 1.5 0  15.75 1.5 0  16.5 1.5 0  17.25 1.5 0  18 1.5 0  18.75 1.5 0  19.5 1.5 0  20.25 1.5 0  21 1.5 0  21.75 1.5 0  22.5 1.5 0  23.25 1.5 0  24 1.5 0  24.75 1.5 0  25.5 1.5 0  26.25 1.5 0  27 1.5 0  27.75 1.5 0  28.5 1.5 0  29.25 1.5 0  30 1.5 0  30.75 1.5 0  31.5 1.5 0  32.25 1.5 0  33 1.5 0  33.75 1.5 0  34.5 1.5 0  35.25 1.5 0  36 1.5 0  36.75 1.5 0  37.5 1.5 0  38.25 1.5 0  39 1.5 0  39.75 1.5 0  40.5 1.5 0  41.25 1.5 0  42 1.5 0  42.75 1.5 0  43.5 1.5 0  44.25 1.5 0  45 1.5 0  45.75 1.5 0  46.5 1.5 0  47.25 1.5 0  48 1.5 0  48.75 1.5 0  49.5 1.5 0  50.25 1.5 0  51 1.5 0  51.75 1.5 0  52.5 1.5 0  53.25 1.5 0  54 1.5 0  54.75 1.5 0  55.5 1.5 0  56.25 1.5 0  57 1.5 0  57.75 1.5 0  58.5 1.5 0  59.25 1.5 0  60 1.5 0  0 2 0  0.75 2 0  1.5 2 0  2.25 2 0  3 2 0  3.75 2 0  4.5 2 0  5.25 2 0  6 2 0  6.75 2 0  7.5 2 0  8.25 2 0  9 2 0  9.75 2 0  10.5 2 0  11.25 2 0  12 2 0  12.75 2 0  13.5 2 0  14.25 2 0  15 2 0  15.75 2 0  16.5 2 0  17.25 2 0  18 2 0  18.75 2 0  19.5 2 0  20.25 2 0  21 2 0  21.75 2 0  22.5 2 0  23.25 2 0  24 2 0  24.75 2 0  25.5 2 0  26.25 2 0  27 2 0  27.75 2 0  28.5 2 0  29.25 2 0  30 2 0  30.75 2 0  31.5 2 0  32.25 2 0  33 2 0  33.75 2 0  34.5 2 0  35.25 2 0  36 2 0  36.75 2 0  37.5 2 0  38.25 2 0  39 2 0  39.75 2 0  40.5 2 0  41.25 2 0  42 2 0  42.75 2 0  43.5 2 0  44.25 2 0  45 2 0  45.75 2 0  46.5 2 0  47.25 2 0  48 2 0  48.75 2 0  49.5 2 0  50.25 2 0  51 2 0  51.75 2 0  52.5 2 0  53.25 2 0  54 2 0  54.75 2 0  55.5 2 0  56.25 2 0  57 2 0  57.75 2 0  58.5 2 0  59.25 2 0  60 2 0  0 2.5 0  0.75 2.5 0  1.5 2.5 0  2.25 2.5 0  3 2.5 0  3.75 2.5 0  4.5 2.5 0  5.25 2.5 0  6 2.5 0  6.75 2.5 0  7.5 2.5 0  8.25 2.5 0  9 2.5 0  9.75 2.5 0  10.5 2.5 0  11.25 2.5 0  12 2.5 0  12.75 2.5 0  13.5 2.5 0  14.25 2.5 0  15 2.5 0  15.75 2.5 0  16.5 2.5 0  17.25 2.5 0  18 2.5 0  18.75 2.5 0  19.5 2.5 0  20.25 2.5 0  21 2.5 0  21.75 2.5 0  22.5 2.5 0  23.25 2.5 0  24 2.5 0  24.75 2.5 0  25.5 2.5 0  26.25 2.5 0  27 2.5 0  27.75 2.5 0  28.5 2.5 0  29.25 2.5 0  30 2.5 0  30.75 2.5 0  31.5 2.5 0  32.25 2.5 0  33 2.5 0  33.75 2.5 0  34.5 2.5 0  35.25 2.5 0  36 2.5 0  36.75 2.5 0  37.5 2.5 0  38.25 2.5 0  39 2.5 0  39.75 2.5 0  40.5 2.5 0  41.25 2.5 0  42 2.5 0  42.75 2.5 0  43.5 2.5 0  44.25 2.5 0  45 2.5 0  45.75 2.5 0  46.5 2.5 0  47.25 2.5 0  48 2.5 0  48.75 2.5 0  49.5 2.5 0  50.25 2.5 0  51 2.5 0  51.75 2.5 0  52.5 2.5 0  53.25 2.5 0  54 2.5 0  54.75 2.5 0  55.5 2.5 0  56.25 2.5 0  57 2.5 0  57.75 2.5 0  58.5 2.5 0  59.25 2.5 0  60 2.5 0  0 3 0  0.75 3 0  1.5 3 0  2.25 3 0  3 3 0  3.75 3 0  4.5 3 0  5.25 3 0  6 3 0  6.75 3 0  7.5 3 0  8.25 3 0  9 3 0  9.75 3 0  10.5 3 0  11.25 3 0  12 3 0  12.75 3 0  13.5 3 0  14.25 3 0  15 3 0  15.75 3 0  16.5 3 0  17.25 3 0  18 3 0  18.75 3 0  19.5 3 0  20.25 3 0  21 3 0  21.75 3 0  22.5 3 0  23.25 3 0  24 3 0  24.75 3 0  25.5 3 0  26.25 3 0  27 3 0  27.75 3 0  28.5 3 0  29.25 3 0  30 3 0  30.75 3 0  31.5 3 0  32.25 3 0  33 3 0  33.75 3 0  34.5 3 0  35.25 3 0  36 3 0  36.75 3 0  37.5 3 0  38.25 3 0  39 3 0  39.75 3 0  40.5 3 0  41.25 3 0  42 3 0  42.75 3 0  43.5 3 0  44.25 3 0  45 3 0  45.75 3 0  46.5 3 0  47.25 3 0  48 3 0  48.75 3 0  49.5 3 0  50.25 3 0  51 3 0  51.75 3 0  52.5 3 0  53.25 3 0  54 3 0  54.75 3 0  55.5 3 0  56.25 3 0  57 3 0  57.75 3 0  58.5 3 0  59.25 3 0  60 3 0  0 3.5 0  0.75 3.5 0  1.5 3.5 0  2.25 3.5 0  3 3.5 0  3.75 3.5 0  4.5 3.5 0  5.25 3.5 0  6 3.5 0  6.75 3.5 0  7.5 3.5 0  8.25 3.5 0  9 3.5 0  9.75 3.5 0  10.5 3.5 0  11.25 3.5 0  12 3.5 0  12.75 3.5 0  13.5 3.5 0  14.25 3.5 0  15 3.5 0  15.75 3.5 0  16.5 3.5 0  17.25 3.5 0  18 3.5 0  18.75 3.5 0  19.5 3.5 0  20.25 3.5 0  21 3.5 0  21.75 3.5 0  22.5 3.5 0  23.25 3.5 0  24 3.5 0  24.75 3.5 0  25.5 3.5 0  26.25 3.5 0  27 3.5 0  27.75 3.5 0  28.5 3.5 0  29.25 3.5 0  30 3.5 0  30.75 3.5 0  31.5 3.5 0  32.25 3.5 0  33 3.5 0  33.75 3.5 0  34.5 3.5 0  35.25 3.5 0  36 3.5 0  36.75 3.5 0  37.5 3.5 0  38.25 3.5 0  39 3.5 0  39.75 3.5 0  40.5 3.5 0  41.25 3.5 0  42 3.5 0  42.75 3.5 0  43.5 3.5 0  44.25 3.5 0  45 3.5 0  45.75 3.5 0  46.5 3.5 0  47.25 3.5 0  48 3.5 0  48.75 3.5 0  49.5 3.5 0  50.25 3.5 0  51 3.5 0  51.75 3.5 0  52.5 3.5 0  53.25 3.5 0  54 3.5 0  54.75 3.5 0  55.5 3.5 0  56.25 3.5 0  57 3.5 0  57.75 3.5 0  58.5 3.5 0  59.25 3.5 0  60 3.5 0  0 4 0  0.75 4 0  1.5 4 0  2.25 4 0  3 4 0  3.75 4 0  4.5 4 0  5.25 4 0  6 4 0  6.75 4 0  7.5 4 0  8.25 4 0  9 4 0  9.75 4 0  10.5 4 0  11.25 4 0  12 4 0  12.75 4 0  13.5 4 0  14.25 4 0  15 4 0  15.75 4 0  16.5 4 0  17.25 4 0  18 4 0  18.75 4 0  19.5 4 0  20.25 4 0  21 4 0  21.75 4 0  22.5 4 0  23.25 4 0  24 4 0  24.75 4 0  25.5 4 0  26.25 4 0  27 4 0  27.75 4 0  28.5 4 0  29.25 4 0  30 4 0  30.75 4 0  31.5 4 0  32.25 4 0  33 4 0  33.75 4 0  34.5 4 0  35.25 4 0  36 4 0  36.75 4 0  37.5 4 0  38.25 4 0  39 4 0  39.75 4 0  40.5 4 0  41.25 4 0  42 4 0  42.75 4 0  43.5 4 0  44.25 4 0  45 4 0  45.75 4 0  46.5 4 0  47.25 4 0  48 4 0  48.75 4 0  49.5 4 0  50.25 4 0  51 4 0  51.75 4 0  52.5 4 0  53.25 4 0  54 4 0  54.75 4 0  55.5 4 0  56.25 4 0  57 4 0  57.75 4 0  58.5 4 0  59.25 4 0  60 4 0  0.375 0.25 0  1.125 0.25 0  1.875 0.25 0  2.625 0.25 0  3.375 0.25 0  4.125 0.25 0  4.875 0.25 0  5.625 0.25 0  6.375 0.25 0  7.125 0.25 0  7.875 0.25 0  8.625 0.25 0  9.375 0.25 0  10.125 0.25 0  10.875 0.25 0  11.625 0.25 0  12.375 0.25 0  13.125 0.25 0  13.875 0.25 0  14.625 0.25 0  15.375 0.25 0  16.125 0.25 0  16.875 0.25 0  17.625 0.25 0  18.375 0.25 0  19.125 0.25 0  19.875 0.25 0  20.625 0.25 0  21.375 0.25 0  22.125 0.25 0  22.875 0.25 0  23.625 0.25 0  24.375 0.25 0  25.125 0.25 0  25.875 0.25 0  26.625 0.25 0  27.375 0.25 0  28.125 0.25 0  28.875 0.25 0  29.625 0.25 0  30.375 0.25 0  31.125 0.25 0  31.875 0.25 0  32.625 0.25 0  33.375 0.25 0  34.125 0.25 0  34.875 0.25 0  35.625 0.25 0  36.375 0.25 0  37.125 0.25 0  37.875 0.25 0  38.625 0.25 0  39.375 0.25 0  40.125 0.25 0  40.875 0.25 0  41.625 0.25 0  42.375 0.25 0  43.125 0.25 0  43.875 0.25 0  44.625 0.25 0  45.375 0.25 0  46.125 0.25 0  46.875 0.25 0  47.625 0.25 0  48.375 0.25 0  49.125 0.25 0  49.875 0.25 0  50.625 0.25 0  51.375 0.25 0  52.125 0.25 0  52.875 0.25 0  53.625 0.25 0  54.375 0.25 0  55.125 0.25 0  55.875 0.25 0  56.625 0.25 0  57.375 0.25 0  58.125 0.25 0  58.875 0.25 0  59.625 0.25 0  0.375 0.75 0  1.125 0.75 0  1.875 0.75 0  2.625 0.75 0  3.375 0.75 0  4.125 0.75 0  4.875 0.75 0  5.625 0.75 0  6.375 0.75 0  7.125 0.75 0  7.875 0.75 0  8.625 0.75 0  9.375 0.75 0  10.125 0.75 0  10.875 0.75 0  11.625 0.75 0  12.375 0.75 0  13.125 0.75 0  13.875 0.75 0  14.625 0.75 0  15.375 0.75 0  16.125 0.75 0  16.875 0.75 0  17.625 0.75 0  18.375 0.75 0  19.125 0.75 0  19.875 0.75 0  20.625 0.75 0  21.375 0.75 0  22.125 0.75 0  22.875 0.75 0  23.625 0.75 0  24.375 0.75 0  25.125 0.75 0  25.875 0.75 0  26.625 0.75 0  27.375 0.75 0  28.125 0.75 0  28.875 0.75 0  29.625 0.75 0  30.375 0.75 0  31.125 0.75 0  31.875 0.75 0  32.625 0.75 0  33.375 0.75 0  34.125 0.75 0  34.875 0.75 0  35.625 0.75 0  36.375 0.75 0  37.125 0.75 0  37.875 0.75 0  38.625 0.75 0  39.375 0.75 0  40.125 0.75 0  40
[...]
<PointData  Scalars="f_8-1"> 
<DataArray  type="Float64"  Name="f_8-1"  format="ascii">-5.4473209546099461e+00  -5.3794785275011456e+00  -5.3114578281314015e+00  -5.2433929506719705e+00  -5.1753110352218883e+00  -5.1072233442899195e+00  -5.0391343012824414e+00  -4.9710454593105622e+00  -4.9029574386634058e+00  -4.8348707473189929e+00  -4.7667855810556521e+00  -4.6987015832710473e+00  -4.6306181729026674e+00  -4.5625349264342789e+00  -4.4944516694063488e+00  -4.4263683763026300e+00  -4.3582850684793710e+00  -4.2902017646353814e+00  -4.2221184719521219e+00  -4.1540351898510179e+00  -4.0859519153971933e+00  -4.0178686456478259e+00  -3.9497853786213333e+00  -3.8817021130750695e+00  -3.8136188483555093e+00  -3.7455355840870479e+00  -3.6774523200876383e+00  -3.6093690562435361e+00  -3.5412857925003793e+00  -3.4732025288178905e+00  -3.4051192651771940e+00  -3.3370360015619180e+00  -3.2689527379648791e+00  -3.2008694743789552e+00  -3.1327862108012958e+00  -3.0647029472287333e+00  -2.9966196836600316e+00  -2.9285364200937809e+00  -2.8604531565294575e+00  -2.7923698929663514e+00  -2.7242866294042196e+00  -2.6562033658427691e+00  -2.5881201022818492e+00  -2.5200368387213032e+00  -2.4519535751610562e+00  -2.3838703116010285e+00  -2.3157870480412179e+00  -2.2477037844814376e+00  -2.1796205209220432e+00  -2.1115372573620101e+00  -2.0434539938037521e+00  -1.9753707302415184e+00  -1.9072874666888999e+00  -1.8392042031135660e+00  -1.7711209395919882e+00  -1.7030376759436769e+00  -1.6349544125923525e+00  -1.5668711485472782e+00  -1.4987878861097590e+00  -1.4307046199646207e+00  -1.3626213622858865e+00  -1.2945380854069437e+00  -1.2264548515333951e+00  -1.1583715222770321e+00  -1.0902884012190448e+00  -1.0222048317984798e+00  -9.5412220739819398e-01  -8.8603762578992840e-01  -8.1795697429074721e-01  -7.4986858894647634e-01  -6.8179470664976682e-01  -6.1369406770274715e-01  -5.4563931665352738e-01  -4.7750691518994598e-01  -4.0950317368663264e-01  -3.4132329770597497e-01  -2.7348677774666702e-01  -2.0517974365823693e-01  -1.3743996313276399e-01  -6.8245142290129429e-02  3.4673076106472574e-04  -5.4478093118250932e+00  -5.3794769822179616e+00  -5.3114393979086802e+00  -5.2433725084523042e+00  -5.1752907366708332e+00  -5.1072036287171940e+00  -5.0391150825884452e+00  -4.9710265699766163e+00  -4.9029387458691787e+00  -4.8348521112876464e+00  -4.7667667979529282e+00  -4.6986824915688539e+00  -4.6305987333568419e+00  -4.5625152028208218e+00  -4.4944317575898909e+00  -4.4263483578747911e+00  -4.3582649958139434e+00  -4.2901816663308709e+00  -4.2220983616856262e+00  -4.1540150738255663e+00  -4.0859317963223907e+00  -4.0178485248269062e+00  -3.9497652567217556e+00  -3.8816819905012050e+00  -3.8135987253525774e+00  -3.7455154608161592e+00  -3.6774321966485886e+00  -3.6093489327003483e+00  -3.5412656688921986e+00  -3.4731824051691107e+00  -3.4050991415028280e+00  -3.3370158778712096e+00  -3.2689326142636794e+00  -3.2008493506708779e+00  -3.1327660870887120e+00  -3.0646828235131074e+00  -2.9965995599423958e+00  -2.9285162963747449e+00  -2.8604330328094694e+00  -2.7923497692457078e+00  -2.7242665056831181e+00  -2.6561832421213398e+00  -2.5880999785601855e+00  -2.5200167149994805e+00  -2.4519334514390883e+00  -2.3838501878790148e+00  -2.3157669243190293e+00  -2.2476836607594550e+00  -2.1796003971994051e+00  -2.1115171336407945e+00  -2.0434338700791259e+00  -1.9753506065247686e+00  -1.9072673429538078e+00  -1.8391840794208096e+00  -1.7711008158019323e+00  -1.7030175523758120e+00  -1.6349342885207128e+00  -1.5668510256092436e+00  -1.4987677606437011e+00  -1.4306845000832564e+00  -1.3626012302045432e+00  -1.2945179796631645e+00  -1.2264346897164493e+00  -1.1583514780834243e+00  -1.0902681145070563e+00  -1.0221850359880040e+00  -9.5410143887120769e-01  -8.8601874186244656e-01  -8.1793453447651443e-01  -7.4985268504263158e-01  -6.8176719537996422e-01  -6.1368663650467026e-01  -5.4559885326295077e-01  -4.7752008037343419e-01  -4.0943540621814317e-01  -3.4137424737432898e-01  -2.7335099542029934e-01  -2.0521970935026526e-01  -1.3711193060495533e-01  -6.8261485947366335e-02  -1.1515277393024519e-05  -5.4478664148311866e+00  -5.3795947745141524e+00  -5.3114597645300039e+00  -5.2433599413460490e+00  -5.1752658414580770e+00  -5.1071736530333451e+00  -5.0390827626849219e+00  -4.9709930782161207e+00  -4.9029045805969300e+00  -4.8348172008869836e+00  -4.7667309969204226e+00  -4.6986459996286634e+00  -4.6305619501477908e+00  -4.5624784445676658e+00  -4.4943951615543583e+00  -4.4263119332080123e+00  -4.3582286993609625e+00  -4.2901454502794838e+00  -4.2220621907452189e+00  -4.1539789265776585e+00  -4.0858956610743222e+00  -4.0178123956726814e+00  -3.9497291307191289e+00  -3.8816458662138005e+00  -3.8135626020274001e+00  -3.7454793380599916e+00  -3.6773960742283660e+00  -3.6093128104866947e+00  -3.5412295468013459e+00  -3.4731462831548421e+00  -3.4050630195337197e+00  -3.3369797559307055e+00  -3.2688964923399420e+00  -3.2008132287580442e+00  -3.1327299651822602e+00  -3.0646467016109304e+00  -2.9965634380427506e+00  -2.9284801744768494e+00  -2.8603969109126202e+00  -2.7923136473495873e+00  -2.7242303837874644e+00  -2.6561471202260045e+00  -2.5880638566650465e+00  -2.5199805931044672e+00  -2.4518973295442015e+00  -2.3838140659841094e+00  -2.3157308024243575e+00  -2.2476475388643427e+00  -2.1795642753053972e+00  -2.1114810117443112e+00  -2.0433977481884025e+00  -1.9753144846208992e+00  -1.9072312210798152e+00  -1.8391479574795253e+00  -1.7710646940111439e+00  -1.7029814302518860e+00  -1.6348981671271643e+00  -1.5668149026346929e+00  -1.4987316410493576e+00  -1.4306483733775299e+00  -1.3625651182218310e+00  -1.2944818378219147e+00  -1.2263986071761865e+00  -1.1583152808774044e+00  -1.0902321330898550e+00  -1.0221486624286469e+00  -9.5406575420247475e-01  -8.8598190133177301e-01  -8.1789956658264495e-01  -7.4981486766042504e-01  -6.8173371421142559e-01  -6.1364724311520735e-01  -5.4556891852287781e-01  -4.7747826005572497e-01  -4.0941112783723999e-01  -3.4130872419160957e-01  -2.7327152994383297e-01  -2.0504438575161546e-01  -1.3692714812649340e-01  -6.8212283579800082e-02  -1.6486971641783678e-04  -5.4478749031710958e+00  -5.3796500112333909e+00  -5.3114885066658202e+00  -5.2433681535624048e+00  -5.1752650554070172e+00  -5.1071691179472802e+00  -5.0390765809493994e+00  -4.9709860999590099e+00  -4.9028971484424160e+00  -4.8348093377532892e+00  -4.7667226488787771e+00  -4.6986372600575841e+00  -4.6305530185678645e+00  -4.5624694939846497e+00  -4.4943862798337388e+00  -4.4263031380930435e+00  -4.3582199746529247e+00  -4.2901367723395261e+00  -4.2220535402810180e+00  -4.1539702910315048e+00  -4.0858870332700103e+00  -4.0178037718236768e+00  -3.9497205089140155e+00  -3.8816372454983328e+00  -3.8135539819165438e+00  -3.7454707182971818e+00  -3.6773874546713108e+00  -3.6093041910531842e+00  -3.5412209274425517e+00  -3.4731376638413680e+00  -3.4050544002477778e+00  -3.3369711366615413e+00  -3.2688878730810105e+00  -3.2008046095054148e+00  -3.1327213459335419e+00  -3.0646380823646489e+00  -2.9965548187980038e+00  -2.9284715552330893e+00  -2.8603882916694880e+00  -2.7923050281068664e+00  -2.7242217645450113e+00  -2.6561385009837299e+00  -2.5880552374228807e+00  -2.5199719738623885e+00  -2.4518887103021427e+00  -2.3838054467421763e+00  -2.3157221831822214e+00  -2.2476389196227462e+00  -2.1795556560625937e+00  -2.1114723925043029e+00  -2.0433891289420560e+00  -1.9753058653889355e+00  -1.9072226018155294e+00  -1.8391393382873256e+00  -1.7710560746597355e+00  -1.7029728112487881e+00  -1.6348895473711191e+00  -1.5668062844870434e+00  -1.4987230195163643e+00  -1.4306397588639777e+00  -1.3625564894196511e+00  -1.2944732375630890e+00  -1.2263899511976917e+00  -1.1583067311646915e+00  -1.0902233864136790e+00  -1.0221402709724792e+00  -9.5405674372126981e-01  -8.8597394136796515e-01  -8.1788989262708078e-01  -7.4980797279350231e-01  -6.8172252135702072e-01  -6.1364309671327177e-01  -5.4555396982618076e-01  -4.7748144000441023e-01  -4.0938161146862023e-01  -3.4131918478484702e-01  -2.7317385801787553e-01  -2.0505051054698245e-01  -1.3671572669704099e-01  -6.8368469277403310e-02  1.7345204506842275e-05  -5.4478727248209804e+00  -5.3796705452450198e+00  -5.3115055473725379e+00  -5.2433800199662350e+00  -5.1752743845985743e+00  -5.1071774326214321e+00  -5.0390845102404400e+00  -4.9709938716650237e+00  -4.9029048236333583e+00  -4.8348169791692950e+00  -4.7667302829676519e+00  -4.6986448387816795e+00  -4.6305605087491513e+00  -4.5624769100260627e+00  -4.4943936560828179e+00  -4.4263105012865456e+00  -4.3582273380971488e+00  -4.2901441398214910e+00  -4.2220609115495895e+00  -4.1539776647569031e+00  -4.0858944083590956e+00  -4.0178111475758813e+00  -3.9497278849768156e+00  -3.8816446216951976e+00  -3.8135613581759458e+00  -3.7454780945840769e+00  -3.6773948309733577e+00  -3.6093115673625844e+00  -3.5412283037567147e+00  -3.4731450401578421e+00  -3.4050617765658089e+00  -3.3369785129802416e+00  -3.2688952494001580e+00  -3.2008119858247124e+00  -3.1327287222529212e+00  -3.0646454586840415e+00  -2.9965621951173755e+00  -2.9284789315524433e+00  -2.8603956679888136e+00  -2.7923124044261760e+00  -2.7242291408642920e+00  -2.6561458773029956e+00  -2.5880626137421512e+00  -2.5199793501816363e+00  -2.4518960866214061e+00  -2.3838128230613536e+00  -2.3157295595015848e+00  -2.2476462959416774e+00  -2.1795630323825108e+00  -2.1114797688219591e+00  -2.0433965052648078e+00  -1.9753132417002253e+00  -1.9072299781523645e+00  -1.8391467145677405e+00  -1.7710634510635976e+00  -1.7029801873853816e+00  -1.6348969240798177e+00  -1.5668136599864972e+00  -1.4987303975371518e+00  -1.4306471317066212e+00  -1.3625638727260743e+00  -1.2944806000975821e+00  -1.2263973542014448e+00  -1.1583140569039208e+00  -1.0902308566679888e+00  -1.0221474767259242e+00  -9.5406442404520297e-01  -8.8598078804992575e-01  -8.1789818349777066e-01  -7.4981381087743149e-01  -6.8173252008174523e-01  -6.1364619574601431e-01  -5.4556851406123674e-01  -4.7747721291446926e-01  -4.0940540171836881e-01  -3.4129587263040251e-01  -2.7320223206294919e-01  -2.0499346475120117e-01  -1.3674235177395630e-01  -6.8346715432582500e-02  -2.3305206793959135e-05  -5.4478749031711109e+00  -5.3796500112333732e+00  -5.3114885066658069e+00  -5.2433681535624199e+00  -5.1752650554070128e+00  -5.1071691179472962e+00  -5.0390765809493914e+00  -4.9709860999589912e+00  -4.9028971484424178e+00  -4.8348093377532653e+00  -4.7667226488788046e+00  -4.6986372600575788e+00  -4.6305530185678503e+00  -4.5624694939846568e+00  -4.4943862798337371e+00  -4.4263031380930542e+00  -4.3582199746529291e+00  -4.2901367723395358e+00  -4.2220535402810198e+00  -4.1539702910315039e+00  -4.0858870332700050e+00  -4.0178037718236652e+00  -3.9497205089140208e+00  -3.8816372454983319e+00  -3.8135539819165487e+00  -3.7454707182971725e+00  -3.6773874546713095e+00  -3.6093041910531909e+00  -3.5412209274425592e+00  -3.4731376638413787e+00  -3.4050544002477836e+00  -3.3369711366615435e+00  -3.2688878730810145e+00  -3.2008046095054152e+00  -3.1327213459335423e+00  -3.0646380823646502e+00  -2.9965548187980029e+00  -2.9284715552330884e+00  -2.8603882916694912e+00  -2.7923050281068664e+00  -2.7242217645450069e+00  -2.6561385009837237e+00  -2.5880552374228816e+00  -2.5199719738623934e+00  -2.4518887103021458e+00  -2.3838054467421714e+00  -2.3157221831822281e+00  -2.2476389196227440e+00  -2.1795556560625950e+00  -2.1114723925043024e+00  -2.0433891289420503e+00  -1.9753058653889335e+00  -1.9072226018155267e+00  -1.8391393382873285e+00  -1.7710560746597381e+00  -1.7029728112487863e+00  -1.6348895473711160e+00  -1.5668062844870392e+00  -1.4987230195163641e+00  -1.4306397588639785e+00  -1.3625564894196576e+00  -1.2944732375630907e+00  -1.2263899511976930e+00  -1.1583067311646931e+00  -1.0902233864136834e+00  -1.0221402709724816e+00  -9.5405674372126725e-01  -8.8597394136796193e-01  -8.1788989262707879e-01  -7.4980797279350231e-01  -6.8172252135701916e-01  -6.1364309671327144e-01  -5.4555396982618254e-01  -4.7748144000440917e-01  -4.0938161146861962e-01  -3.4131918478484669e-01  -2.7317385801787508e-01  -2.0505051054698645e-01  -1.3671572669704413e-01  -6.8368469277398411e-02  1.7345204505858687e-05  -5.4478664148311884e+00  -5.3795947745141293e+00  -5.3114597645300048e+00  -5.2433599413460650e+00  -5.1752658414580832e+00  -5.1071736530333487e+00  -5.0390827626849237e+00  -4.9709930782161109e+00  -4.9029045805969078e+00  -4.8348172008869774e+00  -4.7667309969204297e+00  -4.6986459996286527e+00  -4.6305619501477890e+00  -4.5624784445676561e+00  -4.4943951615543511e+00  -4.4263119332080318e+00  -4.3582286993609642e+00  -4.2901454502794980e+00  -4.2220621907452154e+00  -4.1539789265776630e+00  -4.0858956610743107e+00  -4.0178123956726681e+00  -3.9497291307191147e+00  -3.8816458662137987e+00  -3.8135626020274098e+00  -3.7454793380599853e+00  -3.6773960742283793e+00  -3.6093128104866929e+00  -3.5412295468013553e+00  -3.4731462831548496e+00  -3.4050630195337255e+00  -3.3369797559307219e+00  -3.2688964923399491e+00  -3.2008132287580429e+00  -3.1327299651822700e+00  -3.0646467016109327e+00  -2.9965634380427462e+00  -2.9284801744768525e+00  -2.8603969109126188e+00  -2.7923136473495935e+00  -2.7242303837874626e+00  -2.6561471202260085e+00  -2.5880638566650553e+00  -2.5199805931044716e+00  -2.4518973295442095e+00  -2.3838140659841125e+00  -2.3157308024243726e+00  -2.2476475388643435e+00  -2.1795642753053945e+00  -2.1114810117443095e+00  -2.0433977481883998e+00  -1.9753144846209023e+00  -1.9072312210798070e+00  -1.8391479574795242e+00  -1.7710646940111439e+00  -1.7029814302518864e+00  -1.6348981671271630e+00  -1.5668149026346923e+00  -1.4987316410493527e+00  -1.4306483733775255e+00  -1.3625651182218395e+00  -1.2944818378219152e+00  -1.2263986071761932e+00  -1.1583152808774080e+00  -1.0902321330898608e+00  -1.0221486624286482e+00  -9.5406575420247175e-01  -8.8598190133177090e-01  -8.1789956658264262e-01  -7.4981486766042371e-01  -6.8173371421142548e-01  -6.1364724311520713e-01  -5.4556891852287848e-01  -4.7747826005572142e-01  -4.0941112783724548e-01  -3.4130872419160813e-01  -2.7327152994383536e-01  -2.0504438575162040e-01  -1.3692714812649109e-01  -6.8212283579800095e-02  -1.6486971641708478e-04  -5.4478093118250817e+00  -5.3794769822179518e+00  -5.3114393979086634e+00  -5.2433725084523477e+00  -5.1752907366708083e+00  -5.1072036287172260e+00  -5.0391150825884417e+00  -4.9710265699766083e+00  -4.9029387458691778e+00  -4.8348521112876490e+00  -4.7667667979529265e+00  -4.6986824915688512e+00  -4.6305987333568339e+00  -4.5625152028208147e+00  -4.4944317575898918e+00  -4.4263483578747831e+00  -4.3582649958139559e+00  -4.2901816663308718e+00  -4.2220983616856493e+00  -4.1540150738255743e+00  -4.0859317963223685e+00  -4.0178485248268965e+00  -3.9497652567217529e+00  -3.8816819905011939e+00  -3.8135987253525943e+00  -3.7455154608161596e+00  -3.6774321966486041e+00  -3.6093489327003603e+00  -3.5412656688922155e+00  -3.4731824051691298e+00  -3.4050991415028355e+00  -3.3370158778712309e+00  -3.2689326142636825e+00  -3.2008493506708930e+00  -3.1327660870887235e+00  -3.0646828235131132e+00  -2.9965995599423851e+00  -2.9285162963747453e+00  -2.8604330328094649e+00  -2.7923497692456962e+00  -2.7242665056831208e+00  -2.6561832421213536e+00  -2.5880999785601926e+00  -2.5200167149994837e+00  -2.4519334514390998e+00  -2.3838501878790277e+00  -2.3157669243190431e+00  -2.2476836607594524e+00  -2.1796003971993989e+00  -2.1115171336408034e+00  -2.0434338700791277e+00  -1.9753506065247681e+00  -1.9072673429538063e+00  -1.8391840794208123e+00  -1.7711008158019255e+00  -1.7030175523758164e+00  -1.6349342885207085e+00  -1.5668510256092465e+00  -1.4987677606436900e+00  -1.4306845000832558e+00  -1.3626012302045487e+00  -1.2945179796631674e+00  -1.2264346897164544e+00  -1.1583514780834285e+00  -1.0902681145070638e+00  -1.0221850359880080e+00  -9.5410143887121113e-01  -8.8601874186244767e-01  -8.1793453447651387e-01  -7.4985268504263058e-01  -6.8176719537996389e-01  -6.1368663650466604e-01  -5.4559885326294888e-01  -4.7752008037343258e-01  -4.0943540621814573e-01  -3.4137424737432670e-01  -2.7335099542030311e-01  -2.0521970935026351e-01  -1.3711193060495591e-01  -6.8261485947367750e-02  -1.1515277393791630e-05  -5.4473209546099390e+00  -5.3794785275011323e+00  -5.3114578281313802e+00  -5.2433929506719839e+00  -5.1753110352218989e+00  -5.1072233442899435e+00  -5.0391343012824485e+00  -4.9710454593105702e+00  -4.9029574386634218e+00  -4.8348707473189716e+00  -4.7667855810556654e+00  -4.6987015832710233e+00  -4.6306181729026479e+00  -4.5625349264342852e+00  -4.4944516694063159e+00  -4.4263683763026327e+00  -4.3582850684793897e+00  -4.2902017646353849e+00  -4.2221184719521450e+00  -4.1540351898510179e+00  -4.0859519153971746e+00  -4.0178686456477992e+00  -3.9497853786213244e+00  -3.8817021130750482e+00  -3.8136188483555258e+00  -3.7455355840870652e+00  -3.6774523200876272e+00  -3.6093690562435663e+00  -3.5412857925003980e+00  -3.4732025288178914e+00  -3.4051192651772277e+00  -3.3370360015619336e+00  -3.2689527379648999e+00  -3.2008694743789623e+00  -3.1327862108013029e+00  -3.0647029472287355e+00  -2.9966196836600250e+00  -2.9285364200937809e+00  -2.8604531565294495e+00  -2.7923698929663314e+00  -2.7242866294042298e+00  -2.6562033658427886e+00  -2.5881201022818581e+00  -2.5200368387213183e+00  -2.4519535751610650e+00  -2.3838703116010378e+00  -2.3157870480412370e+00  -2.2477037844814354e+00  -2.1796205209220343e+00  -2.1115372573620306e+00  -2.0434539938037459e+00  -1.9753707302415313e+00  -1.9072874666888915e+00  -1.8392042031135691e+00  -1.7711209395919798e+00  -1.7030376759436769e+00  -1.6349544125923607e+00  -1.5668711485472748e+00  -1.4987878861097490e+00  -1.4307046199646205e+00  -1.3626213622858947e+00  -1.2945380854069422e+00  -1.2264548515334046e+00  -1.1583715222770299e+00  -1.0902884012190572e+00  -1.0222048317984811e+00  -9.5412220739819797e-01  -8.8603762578992962e-01  -8.1795697429074476e-01  -7.4986858894647290e-01  -6.8179470664976394e-01  -6.1369406770274526e-01  -5.4563931665352650e-01  -4.7750691518994587e-01  -4.0950317368663430e-01  -3.4132329770597242e-01  -2.7348677774666824e-01  -2.0517974365823699e-01  -1.3743996313276502e-01  -6.8245142290129457e-02  3.4673076106488430e-04  -5.4132868450499503e+00  -5.3453650333059164e+00  -5.2773274780613706e+00  -5.2092566586489095e+00  -5.1411734290000961e+00  -5.0730860655680630e+00  -5.0049977424457870e+00  -4.9369096795849297e+00  -4.8688225411547874e+00  -4.8007367284715645e+00  -4.7326521282913303e+00  -4.6645682812386413e+00  -4.5964847500353292e+00  -4.5284013086641099e+00  -4.4603178927069376e+00  -4.3922345033001298e+00  -4.3241511470426008e+00  -4.2560678223489363e+00  -4.1879845215424165e+00  -4.1199012365132566e+00  -4.0518179608766776e+00  -3.9837346905655573e+00  -3.9156514231660342e+00  -3.8475681573738152e+00  -3.7794848924756272e+00  -3.7114016280948290e+00  -3.6433183640201343e+00  -3.5752351001324407e+00  -3.5071518363613463e+00  -3.4390685726635435e+00  -3.3709853090129771e+00  -3.3029020453925027e+00  -3.2348187817919665e+00  -3.1667355182042725e+00  -3.0986522546253870e+00  -3.0305689910521871e+00  -2.9624857274830707e+00  -2.8944024639166339e+00  -2.8263192003521773e+00  -2.7582359367890139e+00  -2.6901526732268630e+00  -2.6220694096654205e+00  -2.5539861461045112e+00  -2.4859028825439782e+00  -2.4178196189837573e+00  -2.3497363554237620e+00  -2.2816530918639391e+00  -2.2135698283042853e+00  -2.1454865647445791e+00  -2.0774033011852984e+00  -2.0093200376253368e+00  -1.9412367740671757e+00  -1.8731535105049952e+00  -1.8050702469520341e+00  -1.7369869833781819e+00  -1.6689037198511285e+00  -1.6008204562193569e+00  -1.5327371928171727e+00  -1.4646539289122933e+00  -1.3965706660809085e+00  -1.3284874009654817e+00  -1.2604041405638455e+00  -1.1923208704971937e+00  -1.1242376194853922e+00  -1.0561543311670742e+00  -9.8807111190222818e-01  -9.1998776404895222e-01  -8.51904633006122