<?xml version="1.0"?>
<VTKFile type="UnstructuredGrid"  version="0.1"  >
<UnstructuredGrid>
<Piece  NumberOfPoints="1369" NumberOfCells="2560">
<Points>
<DataArray  type="Float64"  NumberOfComponents="3"  format="ascii">0 0 0  0.75 0 0  1.5 0 0  2.25 0 0  3 0 0  3.75 0 0  4.5 0 0  5.25 0 0  6 0 0  6.75 0 0  7.5 0 0  8.25 0 0  9 0 0  9.75 0 0  10.5 0 0  11.25 0 0  12 0 0  12.75 0 0  13.5 0 0  14.25 0 0  15 0 0  15.75 0 0  16.5 0 0  17.25 0 0  18 0 0  18.75 0 0  19.5 0 0  20.25 0 0  21 0 0  21.75 0 0  22.5 0 0  23.25 0 0  24 0 0  24.75 0 0  25.5 0 0  26.25 0 0  27 0 0  27.75 0 0  28.5 0 0  29.25 0 0  30 0 0  30.75 0 0  31.5 0 0  32.25 0 0  33 0 0  33.75 0 0  34.5 0 0  35.25 0 0  36 0 0  36.75 0 0  37.5 0 0  38.25 0 0  39 0 0  39.75 0 0  40.5 0 0  41.25 0 0  42 0 0  42.75 0 0  43.5 0 0  44.25 0 0  45 0 0  45.75 0 0  46.5 0 0  47.25 0 0  48 0 0  48.75 0 0  49.5 0 0  50.25 0 0  51 0 0  51.75 0 0  52.5 0 0  53.25 0 0  54 0 0  54.75 0 0  55.5 0 0  56.25 0 0  57 0 0  57.75 0 0  58.5 0 0  59.25 0 0  60 0 0  0 0.5 0  0.75 0.5 0  1.5 0.5 0  2.25 0.5 0  3 0.5 0  3.75 0.5 0  4.5 0.5 0  5.25 0.5 0  6 0.5 0  6.75 0.5 0  7.5 0.5 0  8.25 0.5 0  9 0.5 0  9.75 0.5 0  10.5 0.5 0  11.25 0.5 0  12 0.5 0  12.75 0.5 0  13.5 0.5 0  14.25 0.5 0  15 0.5 0  15.75 0.5 0  16.5 0.5 0  17.25 0.5 0  18 0.5 0  18.75 0.5 0  19.5 0.5 0  20.25 0.5 0  21 0.5 0  21.75 0.5 0  22.5 0.5 0  23.25 0.5 0  24 0.5 0  24.75 0.5 0  25.5 0.5 0  26.25 0.5 0  27 0.5 0  27.75 0.5 0  28.5 0.5 0  29.25 0.5 0  30 0.5 0  30.75 0.5 0  31.5 0.5 0  32.25 0.5 0  33 0.5 0  33.75 0.5 0  34.5 0.5 0  35.25 0.5 0  36 0.5 0  36.75 0.5 0  37.5 0.5 0  38.25 0.5 0  39 0.5 0  39.75 0.5 0  40.5 0.5 0  41.25 0.5 0  42 0.5 0  42.75 0.5 0  43.5 0.5 0  44.25 0.5 0  45 0.5 0  45.75 0.5 0  46.5 0.5 0  47.25 0.5 0  48 0.5 0  48.75 0.5 0  49.5 0.5 0  50.25 0.5 0  51 0.5 0  51.75 0.5 0  52.5 0.5 0  53.25 0.5 0  54 0.5 0  54.75 0.5 0  55.5 0.5 0  56.25 0.5 0  57 0.5 0  57.75 0.5 0  58.5 0.5 0  59.25 0.5 0  60 0.5 0  0 1 0  0.75 1 0  1.5 1 0  2.25 1 0  3 1 0  3.75 1 0  4.5 1 0  5.25 1 0  6 1 0  6.75 1 0  7.5 1 0  8.25 1 0  9 1 0  9.75 1 0  10.5 1 0  11.25 1 0  12 1 0  12.75 1 0  13.5 1 0  14.25 1 0  15 1 0  15.75 1 0  16.5 1 0  17.25 1 0  18 1 0  18.75 1 0  19.5 1 0  20.25 1 0  21 1 0  21.75 1 0  22.5 1 0  23.25 1 0  24 1 0  24.75 1 0  25.5 1 0  26.25 1 0  27 1 0  27.75 1 0  28.5 1 0  29.25 1 0  30 1 0  30.75 1 0  31.5 1 0  32.25 1 0  33 1 0  33.75 1 0  34.5 1 0  35.25 1 0  36 1 0  36.75 1 0  37.5 1 0  38.25 1 0  39 1 0  39.75 1 0  40.5 1 0  41.25 1 0  42 1 0  42.75 1 0  43.5 1 0  44.25 1 0  45 1 0  45.75 1 0  46.5 1 0  47.25 1 0  48 1 0  48.75 1 0  49.5 1 0  50.25 1 0  51 1 0  51.75 1 0  52.5 1 0  53.25 1 0  54 1 0  54.75 1 0  55.5 1 0  56.25 1 0  57 1 0  57.75 1 0  58.5 1 0  59.25 1 0  60 1 0  0 1.5 0  0.75 1.5 0  1.5 1.5 0  2.25 1.5 0  3 1.5 0  3.75 1.5 0  4.5 1.5 0  5.25 1.5 0  6 1.5 0  6.75 1.5 0  7.5 1.5 0  8.25 1.5 0  9 1.5 0  9.75 1.5 0  10.5 1.5 0  11.25 1.5 0  12 1.5 0  12.75 1.5 0  13.5 1.5 0  14.25 1.5 0  15 1.5 0  15.75 1.5 0  16.5 1.5 0  17.25 1.5 0  18 1.5 0  18.75 1.5 0  19.5 1.5 0  20.25 1.5 0  21 1.5 0  21.75 1.5 0  22.5 1.5 0  23.25 1.5 0  24 1.5 0  24.75 1.5 0  25.5 1.5 0  26.25 1.5 0  27 1.5 0  27.75 1.5 0  28.5 1.5 0  29.25 1.5 0  30 1.5 0  30.75 1.5 0  31.5 1.5 0  32.25 1.5 0  33 1.5 0  33.75 1.5 0  34.5 1.5 0  35.25 1.5 0  36 1.5 0  36.75 1.5 0  37.5 1.5 0  38.25 1.5 0  39 1.5 0  39.75 1.5 0  40.5 1.5 0  41.25 1.5 0  42 1.5 0  42.75 1.5 0  43.5 1.5 0  44.25 1.5 0  45 1.5 0  45.75 1.5 0  46.5 1.5 0  47.25 1.5 0  48 1.5 0  48.75 1.5 0  49.5 1.5 0  50.25 1.5 0  51 1.5 0  51.75 1.5 0  52.5 1.5 0  53.25 1.5 0  54 1.5 0  54.75 1.5 0  55.5 1.5 0  56.25 1.5 0  57 1.5 0  57.75 1.5 0  58.5 1.5 0  59.25 1.5 0  60 1.5 0  0 2 0  0.75 2 0  1.5 2 0  2.25 2 0  3 2 0  3.75 2 0  4.5 2 0  5.25 2 0  6 2 0  6.75 2 0  7.5 2 0  8.25 2 0  9 2 0  9.75 2 0  10.5 2 0  11.25 2 0  12 2 0  12.75 2 0  13.5 2 0  14.25 2 0  15 2 0  15.75 2 0  16.5 2 0  17.25 2 0  18 2 0  18.75 2 0  19.5 2 0  20.25 2 0  21 2 0  21.75 2 0  22.5 2 0  23.25 2 0  24 2 0  24.75 2 0  25.5 2 0  26.25 2 0  27 2 0  27.75 2 0  28.5 2 0  29.25 2 0  30 2 0  30.75 2 0  31.5 2 0  32.25 2 0  33 2 0  33.75 2 0  34.5 2 0  35.25 2 0  36 2 0  36.75 2 0  37.5 2 0  38.25 2 0  39 2 0  39.75 2 0  40.5 2 0  41.25 2 0  42 2 0  42.75 2 0  43.5 2 0  44.25 2 0  45 2 0  45.75 2 0  46.5 2 0  47.25 2 0  48 2 0  48.75 2 0  49.5 2 0  50.25 2 0  51 2 0  51.75 2 0  52.5 2 0  53.25 2 0  54 2 0  54.75 2 0  55.5 2 0  56.25 2 0  57 2 0  57.75 2 0  58.5 2 0  59.25 2 0  60 2 0  0 2.5 0  0.75 2.5 0  1.5 2.5 0  2.25 2.5 0  3 2.5 0  3.75 2.5 0  4.5 2.5 0  5.25 2.5 0  6 2.5 0  6.75 2.5 0  7.5 2.5 0  8.25 2.5 0  9 2.5 0  9.75 2.5 0  10.5 2.5 0  11.25 2.5 0  12 2.5 0  12.75 2.5 0  13.5 2.5 0  14.25 2.5 0  15 2.5 0  15.75 2.5 0  16.5 2.5 0  17.25 2.5 0  18 2.5 0  18.75 2.5 0  19.5 2.5 0  20.25 2.5 0  21 2.5 0  21.75 2.5 0  22.5 2.5 0  23.25 2.5 0  24 2.5 0  24.75 2.5 0  25.5 2.5 0  26.25 2.5 0  27 2.5 0  27.75 2.5 0  28.5 2.5 0  29.25 2.5 0  30 2.5 0  30.75 2.5 0  31.5 2.5 0  32.25 2.5 0  33 2.5 0  33.75 2.5 0  34.5 2.5 0  35.25 2.5 0  36 2.5 0  36.75 2.5 0  37.5 2.5 0  38.25 2.5 0  39 2.5 0  39.75 2.5 0  40.5 2.5 0  41.25 2.5 0  42 2.5 0  42.75 2.5 0  43.5 2.5 0  44.25 2.5 0  45 2.5 0  45.75 2.5 0  46.5 2.5 0  47.25 2.5 0  48 2.5 0  48.75 2.5 0  49.5 2.5 0  50.25 2.5 0  51 2.5 0  51.75 2.5 0  52.5 2.5 0  53.25 2.5 0  54 2.5 0  54.75 2.5 0  55.5 2.5 0  56.25 2.5 0  57 2.5 0  57.75 2.5 0  58.5 2.5 0  59.25 2.5 0  60 2.5 0  0 3 0  0.75 3 0  1.5 3 0  2.25 3 0  3 3 0  3.75 3 0  4.5 3 0  5.25 3 0  6 3 0  6.75 3 0  7.5 3 0  8.25 3 0  9 3 0  9.75 3 0  10.5 3 0  11.25 3 0  12 3 0  12.75 3 0  13.5 3 0  14.25 3 0  15 3 0  15.75 3 0  16.5 3 0  17.25 3 0  18 3 0  18.75 3 0  19.5 3 0  20.25 3 0  21 3 0  21.75 3 0  22.5 3 0  23.25 3 0  24 3 0  24.75 3 0  25.5 3 0  26.25 3 0  27 3 0  27.75 3 0  28.5 3 0  29.25 3 0  30 3 0  30.75 3 0  31.5 3 0  32.25 3 0  33 3 0  33.75 3 0  34.5 3 0  35.25 3 0  36 3 0  36.75 3 0  37.5 3 0  38.25 3 0  39 3 0  39.75 3 0  40.5 3 0  41.25 3 0  42 3 0  42.75 3 0  43.5 3 0  44.25 3 0  45 3 0  45.75 3 0  46.5 3 0  47.25 3 0  48 3 0  48.75 3 0  49.5 3 0  50.25 3 0  51 3 0  51.75 3 0  52.5 3 0  53.25 3 0  54 3 0  54.75 3 0  55.5 3 0  56.25 3 0  57 3 0  57.75 3 0  58.5 3 0  59.25 3 0  60 3 0  0 3.5 0  0.75 3.5 0  1.5 3.5 0  2.25 3.5 0  3 3.5 0  3.75 3.5 0  4.5 3.5 0  5.25 3.5 0  6 3.5 0  6.75 3.5 0  7.5 3.5 0  8.25 3.5 0  9 3.5 0  9.75 3.5 0  10.5 3.5 0  11.25 3.5 0  12 3.5 0  12.75 3.5 0  13.5 3.5 0  14.25 3.5 0  15 3.5 0  15.75 3.5 0  16.5 3.5 0  17.25 3.5 0  18 3.5 0  18.75 3.5 0  19.5 3.5 0  20.25 3.5 0  21 3.5 0  21.75 3.5 0  22.5 3.5 0  23.25 3.5 0  24 3.5 0  24.75 3.5 0  25.5 3.5 0  26.25 3.5 0  27 3.5 0  27.75 3.5 0  28.5 3.5 0  29.25 3.5 0  30 3.5 0  30.75 3.5 0  31.5 3.5 0  32.25 3.5 0  33 3.5 0  33.75 3.5 0  34.5 3.5 0  35.25 3.5 0  36 3.5 0  36.75 3.5 0  37.5 3.5 0  38.25 3.5 0  39 3.5 0  39.75 3.5 0  40.5 3.5 0  41.25 3.5 0  42 3.5 0  42.75 3.5 0  43.5 3.5 0  44.25 3.5 0  45 3.5 0  45.75 3.5 0  46.5 3.5 0  47.25 3.5 0  48 3.5 0  48.75 3.5 0  49.5 3.5 0  50.25 3.5 0  51 3.5 0  51.75 3.5 0  52.5 3.5 0  53.25 3.5 0  54 3.5 0  54.75 3.5 0  55.5 3.5 0  56.25 3.5 0  57 3.5 0  57.75 3.5 0  58.5 3.5 0  59.25 3.5 0  60 3.5 0  0 4 0  0.75 4 0  1.5 4 0  2.25 4 0  3 4 0  3.75 4 0  4.5 4 0  5.25 4 0  6 4 0  6.75 4 0  7.5 4 0  8.25 4 0  9 4 0  9.75 4 0  10.5 4 0  11.25 4 0  12 4 0  12.75 4 0  13.5 4 0  14.25 4 0  15 4 0  15.75 4 0  16.5 4 0  17.25 4 0  18 4 0  18.75 4 0  19.5 4 0  20.25 4 0  21 4 0  21.75 4 0  22.5 4 0  23.25 4 0  24 4 0  24.75 4 0  25.5 4 0  26.25 4 0  27 4 0  27.75 4 0  28.5 4 0  29.25 4 0  30 4 0  30.75 4 0  31.5 4 0  32.25 4 0  33 4 0  33.75 4 0  34.5 4 0  35.25 4 0  36 4 0  36.75 4 0  37.5 4 0  38.25 4 0  39 4 0  39.75 4 0  40.5 4 0  41.25 4 0  42 4 0  42.75 4 0  43.5 4 0  44.25 4 0  45 4 0  45.75 4 0  46.5 4 0  47.25 4 0  48 4 0  48.75 4 0  49.5 4 0  50.25 4 0  51 4 0  51.75 4 0  52.5 4 0  53.25 4 0  54 4 0  54.75 4 0  55.5 4 0  56.25 4 0  57 4 0  57.75 4 0  58.5 4 0  59.25 4 0  60 4 0  0.375 0.25 0  1.125 0.25 0  1.875 0.25 0  2.625 0.25 0  3.375 0.25 0  4.125 0.25 0  4.875 0.25 0  5.625 0.25 0  6.375 0.25 0  7.125 0.25 0  7.875 0.25 0  8.625 0.25 0  9.375 0.25 0  10.125 0.25 0  10.875 0.25 0  11.625 0.25 0  12.375 0.25 0  13.125 0.25 0  13.875 0.25 0  14.625 0.25 0  15.375 0.25 0  16.125 0.25 0  16.875 0.25 0  17.625 0.25 0  18.375 0.25 0  19.125 0.25 0  19.875 0.25 0  20.625 0.25 0  21.375 0.25 0  22.125 0.25 0  22.875 0.25 0  23.625 0.25 0  24.375 0.25 0  25.125 0.25 0  25.875 0.25 0  26.625 0.25 0  27.375 0.25 0  28.125 0.25 0  28.875 0.25 0  29.625 0.25 0  30.375 0.25 0  31.125 0.25 0  31.875 0.25 0  32.625 0.25 0  33.375 0.25 0  34.125 0.25 0  34.875 0.25 0  35.625 0.25 0  36.375 0.25 0  37.125 0.25 0  37.875 0.25 0  38.625 0.25 0  39.375 0.25 0  40.125 0.25 0  40.875 0.25 0  41.625 0.25 0  42.375 0.25 0  43.125 0.25 0  43.875 0.25 0  44.625 0.25 0  45.375 0.25 0  46.125 0.25 0  46.875 0.25 0  47.625 0.25 0  48.375 0.25 0  49.125 0.25 0  49.875 0.25 0  50.625 0.25 0  51.375 0.25 0  52.125 0.25 0  52.875 0.25 0  53.625 0.25 0  54.375 0.25 0  55.125 0.25 0  55.875 0.25 0  56.625 0.25 0  57.375 0.25 0  58.125 0.25 0  58.875 0.25 0  59.625 0.25 0  0.375 0.75 0  1.125 0.75 0  1.875 0.75 0  2.625 0.75 0  3.375 0.75 0  4.125 0.75 0  4.875 0.75 0  5.625 0.75 0  6.375 0.75 0  7.125 0.75 0  7.875 0.75 0  8.625 0.75 0  9.375 0.75 0  10.125 0.75 0  10.875 0.75 0  11.625 0.75 0  12.375 0.75 0  13.125 0.75 0  13.875 0.75 0  14.625 0.75 0  15.375 0.75 0  16.125 0.75 0  16.875 0.75 0  17.625 0.75 0  18.375 0.75 0  19.125 0.75 0  19.875 0.75 0  20.625 0.75 0  21.375 0.75 0  22.125 0.75 0  22.875 0.75 0  23.625 0.75 0  24.375 0.75 0  25.125 0.75 0  25.875 0.75 0  26.625 0.75 0  27.375 0.75 0  28.125 0.75 0  28.875 0.75 0  29.625 0.75 0  30.375 0.75 0  31.125 0.75 0  31.875 0.75 0  32.625 0.75 0  33.375 0.75 0  34.125 0.75 0  34.875 0.75 0  35.625 0.75 0  36.375 0.75 0  37.125 0.75 0  37.875 0.75 0  38.625 0.75 0  39.375 0.75 0  40.125 0.75 0  40
[...]
<PointData  Scalars="f_8-1"> 
<DataArray  type="Float64"  Name="f_8-1"  format="ascii">1.8783881838481833e+00  1.8527921212438039e+00  1.8298345072451241e+00  1.8059852209351845e+00  1.7826134183185482e+00  1.7591697138274638e+00  1.7357520420737769e+00  1.7123598752902141e+00  1.6889036689103614e+00  1.6654743421929941e+00  1.6420025666586053e+00  1.6185578300197161e+00  1.5950919600403051e+00  1.5716412388928298e+00  1.5481801448184098e+00  1.5247256679471737e+00  1.5012666172804336e+00  1.4778101303045625e+00  1.4543518239170459e+00  1.4308944425037258e+00  1.4074363907075975e+00  1.3839786574161117e+00  1.3605206896369639e+00  1.3370628265161502e+00  1.3136048827109177e+00  1.2901469701005501e+00  1.2666890283221730e+00  1.2432310934112680e+00  1.2197731465183539e+00  1.1963151993463357e+00  1.1728572465048521e+00  1.1493992920231495e+00  1.1259413346483984e+00  1.1024833759085924e+00  1.0790254156738059e+00  1.0555674545775078e+00  1.0321094927116974e+00  1.0086515303516201e+00  9.8519356758467447e-01  9.6173560452872231e-01  9.3827764123129320e-01  9.1481967773665029e-01  8.9136171406103659e-01  8.6790375021474753e-01  8.4444578619792310e-01  8.2098782200912934e-01  7.9752985764631501e-01  7.7407189311088498e-01  7.5061392840904029e-01  7.2715596355347234e-01  7.0369799856321924e-01  6.8024003346300688e-01  6.5678206828167052e-01  6.3332410305003917e-01  6.0986613779864585e-01  5.8640817255595246e-01  5.6295020734610646e-01  5.3949224218889169e-01  5.1603427709759386e-01  4.9257631208167985e-01  4.6911834714281936e-01  4.4566038228258692e-01  4.2220241749222792e-01  3.9874445277148951e-01  3.7528648810823412e-01  3.5182852353393562e-01  3.2837055911699692e-01  3.0491259520993630e-01  2.8145463273192156e-01  2.5799667446325630e-01  2.3453872749938265e-01  2.1108081229520903e-01  1.8762298464565835e-01  1.6416536397798243e-01  1.4070809726246833e-01  1.1725135580003952e-01  9.3795247182347552e-02  7.0337548305787090e-02  4.6867259027556757e-02  2.3369297737992439e-02  -9.3165275750888021e-04  1.8769813362775287e+00  1.8534404404357800e+00  1.8296487097209770e+00  1.8061496134651336e+00  1.7825973859270134e+00  1.7591945574226411e+00  1.7357596040959757e+00  1.7123504212479193e+00  1.6889156086131827e+00  1.6654662530092266e+00  1.6420134564206810e+00  1.6185542904874450e+00  1.5950995885499528e+00  1.5716409797974300e+00  1.5481854223365539e+00  1.5247272734655708e+00  1.5012706903720503e+00  1.4778126432675747e+00  1.4543553651915682e+00  1.4308973555538318e+00  1.4074397126651537e+00  1.3839817358088762e+00  1.3605239244630207e+00  1.3370659702065228e+00  1.3136080842776987e+00  1.2901501389425696e+00  1.2666922180644111e+00  1.2432342720196921e+00  1.2197763326114861e+00  1.1963183819308554e+00  1.1728604318001823e+00  1.1494024763385060e+00  1.1259445199727836e+00  1.1024865610172982e+00  1.0790286011706973e+00  1.0555706400563383e+00  1.0321126783438701e+00  1.0086547160011661e+00  9.8519675329601808e-01  9.6173879025626474e-01  9.3828082698583171e-01  9.1482286350403008e-01  8.9136489984501210e-01  8.6790693601268476e-01  8.4444897201286873e-01  8.2099100784237100e-01  7.9753304350053333e-01  7.7407507898766381e-01  7.5061711430953293e-01  7.2715914947763227e-01  7.0370118450991359e-01  6.8024321943004817e-01  6.5678525426593892e-01  6.3332728904791447e-01  6.0986932380609671e-01  5.8641135856920579e-01  5.6295339336138117e-01  5.3949542820338159e-01  5.1603746310841114e-01  4.9257949808759960e-01  4.6912153314169897e-01  4.4566356827475334e-01  4.2220560347517749e-01  3.9874763874443725e-01  3.7528967406320590e-01  3.5183170944531927e-01  3.2837374492279742e-01  3.0491578071034708e-01  2.8145781750315130e-01  2.5799985728305491e-01  2.3454190545663445e-01  2.1108397729964373e-01  1.8762611961770900e-01  1.6416843799887246e-01  1.4071107744603334e-01  1.1725419007824348e-01  9.3798061407475833e-02  7.0341314285463488e-02  4.6876696861290305e-02  2.3363937488904848e-02  1.2152963505876331e-05  1.8771834408845893e+00  1.8534958170502047e+00  1.8297654805630748e+00  1.8062395090586270e+00  1.7826781700444980e+00  1.7592517223670869e+00  1.7357923741271850e+00  1.7123789043379829e+00  1.6889298162928259e+00  1.6654924860233089e+00  1.6420322673814769e+00  1.6185826941035659e+00  1.5951218255869013e+00  1.5716687355814007e+00  1.5482091893318528e+00  1.5247541249236025e+00  1.5012953317007487e+00  1.4778389493325490e+00  1.4543805380368990e+00  1.4309233736725548e+00  1.4074651851003048e+00  1.3840076063348097e+00  1.3605495487519714e+00  1.3370917681072108e+00  1.3136337781907914e+00  1.2901759035295743e+00  1.2667179415939840e+00  1.2432600228501951e+00  1.2198020683870194e+00  1.1963441279654876e+00  1.1728861728037350e+00  1.1494282212040294e+00  1.1259702633718152e+00  1.1025123059085491e+00  1.0790543457337616e+00  1.0555963852168511e+00  1.0321384234822166e+00  1.0086804613848219e+00  9.8522249871129663e-01  9.6176453577129106e-01  9.3830657252487559e-01  9.1484860908066490e-01  8.9139064543230517e-01  8.6793268161268067e-01  8.4447471761760040e-01  8.2101675345393532e-01  7.9755878911924383e-01  7.7410082461743823e-01  7.5064285995396063e-01  7.2718489514091567e-01  7.0372693019534815e-01  6.8026896513994628e-01  6.5681100000109904e-01  6.3335303480758121e-01  6.0989506958821382e-01  5.8643710437039720e-01  5.6297913917795428e-01  5.3952117403095312e-01  5.1606320894379842e-01  4.9260524392767835e-01  4.6914727898779146e-01  4.4568931413112295e-01  4.2223134936198242e-01  3.9877338470435431e-01  3.7531542020433423e-01  3.5185745600199081e-01  3.2839949240984467e-01  3.0494153021267717e-01  2.8148357118717382e-01  2.5802561932717999e-01  2.3456768327915678e-01  2.1110978189562060e-01  1.8765195549291672e-01  1.6419427525708066e-01  1.4073681117463924e-01  1.1727955227016457e-01  9.3822342598701522e-02  7.0363870748760549e-02  4.6899377466799223e-02  2.3431455647638082e-02  -3.6343174070128739e-06  1.8772210528191562e+00  1.8534888665253682e+00  1.8298961131794178e+00  1.8062532273238916e+00  1.7827808396144529e+00  1.7592593444149991e+00  1.7358484924013349e+00  1.7123796685984864e+00  1.6889644176303666e+00  1.6655002093486464e+00  1.6420637625754004e+00  1.6185986362325588e+00  1.5951513113464963e+00  1.5716887277720339e+00  1.5482365212401172e+00  1.5247761648284763e+00  1.5013212717270077e+00  1.4778621448034897e+00  1.4544057260957906e+00  1.4309472164835970e+00  1.4074899892820489e+00  1.3840317877488906e+00  1.3605741641750098e+00  1.3371161120562647e+00  1.3136583053757678e+00  1.2902003193496110e+00  1.2667424302455230e+00  1.2432844685345632e+00  1.2198265416875906e+00  1.1963685857462651e+00  1.1729106407666410e+00  1.1494526839830428e+00  1.1259947298827380e+00  1.1025367708602392e+00  1.0790788120719537e+00  1.0556208511594471e+00  1.0321628899526414e+00  1.0087049277883178e+00  9.8524696531931188e-01  9.6178900238409526e-01  9.3833103921504180e-01  9.1487307577978494e-01  8.9141511215710811e-01  8.6795714833990478e-01  8.4449918435119065e-01  8.2104122018772230e-01  7.9758325585629897e-01  7.7412529135883557e-01  7.5066732670392833e-01  7.2720936190305141e-01  7.0375139697365097e-01  6.8029343193731462e-01  6.5683546681945015e-01  6.3337750164731799e-01  6.0991953644849817e-01  5.8646157124905296e-01  5.6300360607220834e-01  5.3954564093730528e-01  5.1608767585951509e-01  4.9262971085011331e-01  4.6917174591826816e-01  4.4571378107404336e-01  4.2225581633750325e-01  3.9879785175427818e-01  3.7533988743815483e-01  3.5188192365121285e-01  3.2842396100228977e-01  3.0496600082666508e-01  2.8150804601145851e-01  2.5805010246424054e-01  2.3459218205833632e-01  2.1113430737743827e-01  1.8767651564903265e-01  1.6421884667986025e-01  1.4076130343018908e-01  1.1730377964183873e-01  9.3845766056412525e-02  7.0385925810456121e-02  4.6923024083992376e-02  2.3460765237536475e-02  -3.5065394075207390e-06  1.8772482466087856e+00  1.8534977586023369e+00  1.8298878074222684e+00  1.8063085146766680e+00  1.7827500995115937e+00  1.7593084877909348e+00  1.7358176624498134e+00  1.7124096391911785e+00  1.6889423924167399e+00  1.6655181447531426e+00  1.6420516064462940e+00  1.6186101563012190e+00  1.5951455079029404e+00  1.5716960683074428e+00  1.5482342891354413e+00  1.5247809243350305e+00  1.5013210412844133e+00  1.4778654609263504e+00  1.4544065834286388e+00  1.4309497803836877e+00  1.4074914061339887e+00  1.3840339809858733e+00  1.3605758511235664e+00  1.3371181324763892e+00  1.3136601144199604e+00  1.2902022638050961e+00  1.2667442911330196e+00  1.2432863816333348e+00  1.2198284234457843e+00  1.1963704867562219e+00  1.1729125306144546e+00  1.1494545806819019e+00  1.1259966228079357e+00  1.1025386661629335e+00  1.0790807061673602e+00  1.0556227460680117e+00  1.0321647844984563e+00  1.0087068226107625e+00  9.8524886004070567e-01  9.6179089719923228e-01  9.3833293400420936e-01  9.1487497059995737e-01  8.9141700697067916e-01  8.6795904316305561e-01  8.4450107917255879e-01  8.2104311501229044e-01  7.9758515068138902e-01  7.7412718618676668e-01  7.5066922153491700e-01  7.2721125673870246e-01  7.0375329181478397e-01  6.8029532678485605e-01  6.5683736167374507e-01  6.3337939650840358e-01  6.0992143131593712e-01  5.8646346612210543e-01  5.6300550094988833e-01  5.3954753581855264e-01  5.1608957074336892e-01  4.9263160573601833e-01  4.6917364080648716e-01  4.4571567596692768e-01  4.2225771124149186e-01  3.9879974668589718e-01  3.7534178243436733e-01  3.5188381879655772e-01  3.2842585647593714e-01  3.0496789700265442e-01  2.8150994360602233e-01  2.5805200283872881e-01  2.3459408758668285e-01  2.1113622112014252e-01  1.8767843788322824e-01  1.6422076766718316e-01  1.4076319457004086e-01  1.1730555563317101e-01  9.3847263243343457e-02  7.0387201616824727e-02  4.6925008957814075e-02  2.3462611872836228e-02  4.2639319649418882e-06  1.8772210528191562e+00  1.8534888665253670e+00  1.8298961131794225e+00  1.8062532273238887e+00  1.7827808396144569e+00  1.7592593444149947e+00  1.7358484924013402e+00  1.7123796685984862e+00  1.6889644176303646e+00  1.6655002093486420e+00  1.6420637625753989e+00  1.6185986362325637e+00  1.5951513113464946e+00  1.5716887277720371e+00  1.5482365212401190e+00  1.5247761648284743e+00  1.5013212717270106e+00  1.4778621448034919e+00  1.4544057260957954e+00  1.4309472164835964e+00  1.4074899892820487e+00  1.3840317877488881e+00  1.3605741641750135e+00  1.3371161120562594e+00  1.3136583053757684e+00  1.2902003193496083e+00  1.2667424302455195e+00  1.2432844685345652e+00  1.2198265416875931e+00  1.1963685857462678e+00  1.1729106407666456e+00  1.1494526839830488e+00  1.1259947298827393e+00  1.1025367708602343e+00  1.0790788120719494e+00  1.0556208511594387e+00  1.0321628899526414e+00  1.0087049277883158e+00  9.8524696531931533e-01  9.6178900238409359e-01  9.3833103921504790e-01  9.1487307577978294e-01  8.9141511215710811e-01  8.6795714833990145e-01  8.4449918435119042e-01  8.2104122018772607e-01  7.9758325585629697e-01  7.7412529135883945e-01  7.5066732670392833e-01  7.2720936190304986e-01  7.0375139697364686e-01  6.8029343193731795e-01  6.5683546681944949e-01  6.3337750164731910e-01  6.0991953644849761e-01  5.8646157124905529e-01  5.6300360607221256e-01  5.3954564093730106e-01  5.1608767585951820e-01  4.9262971085011181e-01  4.6917174591827104e-01  4.4571378107404142e-01  4.2225581633750353e-01  3.9879785175427979e-01  3.7533988743815772e-01  3.5188192365121690e-01  3.2842396100228416e-01  3.0496600082666836e-01  2.8150804601145435e-01  2.5805010246424215e-01  2.3459218205833268e-01  2.1113430737744043e-01  1.8767651564903132e-01  1.6421884667986578e-01  1.4076130343018567e-01  1.1730377964183861e-01  9.3845766056409347e-02  7.0385925810459382e-02  4.6923024083991349e-02  2.3460765237534310e-02  -3.5065394054391031e-06  1.8771834408845860e+00  1.8534958170502076e+00  1.8297654805630699e+00  1.8062395090586205e+00  1.7826781700444980e+00  1.7592517223670874e+00  1.7357923741271895e+00  1.7123789043379798e+00  1.6889298162928215e+00  1.6654924860233060e+00  1.6420322673814689e+00  1.6185826941035759e+00  1.5951218255869095e+00  1.5716687355814056e+00  1.5482091893318506e+00  1.5247541249236043e+00  1.5012953317007471e+00  1.4778389493325610e+00  1.4543805380369086e+00  1.4309233736725449e+00  1.4074651851003068e+00  1.3840076063348072e+00  1.3605495487519730e+00  1.3370917681072072e+00  1.3136337781907863e+00  1.2901759035295710e+00  1.2667179415939869e+00  1.2432600228501891e+00  1.2198020683870194e+00  1.1963441279655003e+00  1.1728861728037419e+00  1.1494282212040450e+00  1.1259702633718156e+00  1.1025123059085400e+00  1.0790543457337352e+00  1.0555963852168402e+00  1.0321384234822151e+00  1.0086804613848241e+00  9.8522249871129852e-01  9.6176453577128906e-01  9.3830657252489369e-01  9.1484860908066357e-01  8.9139064543230362e-01  8.6793268161267101e-01  8.4447471761759463e-01  8.2101675345394154e-01  7.9755878911925049e-01  7.7410082461743535e-01  7.5064285995396451e-01  7.2718489514090756e-01  7.0372693019534804e-01  6.8026896513994639e-01  6.5681100000110149e-01  6.3335303480757899e-01  6.0989506958822093e-01  5.8643710437039875e-01  5.6297913917795694e-01  5.3952117403094912e-01  5.1606320894380009e-01  4.9260524392768024e-01  4.6914727898779329e-01  4.4568931413111917e-01  4.2223134936198592e-01  3.9877338470435469e-01  3.7531542020434544e-01  3.5185745600199247e-01  3.2839949240984134e-01  3.0494153021267645e-01  2.8148357118717188e-01  2.5802561932717710e-01  2.3456768327914757e-01  2.1110978189562277e-01  1.8765195549292255e-01  1.6419427525708871e-01  1.4073681117464401e-01  1.1727955227016573e-01  9.3822342598695416e-02  7.0363870748767543e-02  4.6899377466796663e-02  2.3431455647639467e-02  -3.6343174059190223e-06  1.8769813362775292e+00  1.8534404404357905e+00  1.8296487097209713e+00  1.8061496134651236e+00  1.7825973859270148e+00  1.7591945574226402e+00  1.7357596040959891e+00  1.7123504212479079e+00  1.6889156086131849e+00  1.6654662530092228e+00  1.6420134564206683e+00  1.6185542904874688e+00  1.5950995885499590e+00  1.5716409797974427e+00  1.5481854223365565e+00  1.5247272734655708e+00  1.5012706903720561e+00  1.4778126432675962e+00  1.4543553651915753e+00  1.4308973555538149e+00  1.4074397126651672e+00  1.3839817358088693e+00  1.3605239244630198e+00  1.3370659702065291e+00  1.3136080842776765e+00  1.2901501389425796e+00  1.2666922180644120e+00  1.2432342720196785e+00  1.2197763326114923e+00  1.1963183819308780e+00  1.1728604318001874e+00  1.1494024763385327e+00  1.1259445199727940e+00  1.1024865610172603e+00  1.0790286011706665e+00  1.0555706400563138e+00  1.0321126783438790e+00  1.0086547160011539e+00  9.8519675329601963e-01  9.6173879025627873e-01  9.3828082698584647e-01  9.1482286350403452e-01  8.9136489984500433e-01  8.6790693601267055e-01  8.4444897201285607e-01  8.2099100784238277e-01  7.9753304350054444e-01  7.7407507898765482e-01  7.5061711430953970e-01  7.2715914947762728e-01  7.0370118450991070e-01  6.8024321943004895e-01  6.5678525426593892e-01  6.3332728904790869e-01  6.0986932380611025e-01  5.8641135856920035e-01  5.6295339336138639e-01  5.3949542820337770e-01  5.1603746310840792e-01  4.9257949808760548e-01  4.6912153314170396e-01  4.4566356827475229e-01  4.2220560347517833e-01  3.9874763874444552e-01  3.7528967406321934e-01  3.5183170944532122e-01  3.2837374492279031e-01  3.0491578071034381e-01  2.8145781750314880e-01  2.5799985728304564e-01  2.3454190545662731e-01  2.1108397729964418e-01  1.8762611961771797e-01  1.6416843799889683e-01  1.4071107744603500e-01  1.1725419007824248e-01  9.3798061407478525e-02  7.0341314285459838e-02  4.6876696861296217e-02  2.3363937488908023e-02  1.2152963503000701e-05  1.8783881838481866e+00  1.8527921212438210e+00  1.8298345072451156e+00  1.8059852209351754e+00  1.7826134183185511e+00  1.7591697138274665e+00  1.7357520420737886e+00  1.7123598752902092e+00  1.6889036689103607e+00  1.6654743421929918e+00  1.6420025666586051e+00  1.6185578300197421e+00  1.5950919600403135e+00  1.5716412388928387e+00  1.5481801448184180e+00  1.5247256679471817e+00  1.5012666172804383e+00  1.4778101303045865e+00  1.4543518239170414e+00  1.4308944425037189e+00  1.4074363907076040e+00  1.3839786574161108e+00  1.3605206896369666e+00  1.3370628265161490e+00  1.3136048827108993e+00  1.2901469701005517e+00  1.2666890283221743e+00  1.2432310934112569e+00  1.2197731465183634e+00  1.1963151993463601e+00  1.1728572465048608e+00  1.1493992920231726e+00  1.1259413346483991e+00  1.1024833759085573e+00  1.0790254156737740e+00  1.0555674545774849e+00  1.0321094927117029e+00  1.0086515303516088e+00  9.8519356758468113e-01  9.6173560452873741e-01  9.3827764123130464e-01  9.1481967773665174e-01  8.9136171406102493e-01  8.6790375021473487e-01  8.4444578619791677e-01  8.2098782200913534e-01  7.9752985764632878e-01  7.7407189311087510e-01  7.5061392840904184e-01  7.2715596355347489e-01  7.0369799856321413e-01  6.8024003346301298e-01  6.5678206828167029e-01  6.3332410305003395e-01  6.0986613779866083e-01  5.8640817255594480e-01  5.6295020734611101e-01  5.3949224218888781e-01  5.1603427709759231e-01  4.9257631208168495e-01  4.6911834714282208e-01  4.4566038228258864e-01  4.2220241749222803e-01  3.9874445277149639e-01  3.7528648810824650e-01  3.5182852353393479e-01  3.2837055911699087e-01  3.0491259520993086e-01  2.8145463273191806e-01  2.5799667446324887e-01  2.3453872749937527e-01  2.1108081229521303e-01  1.8762298464567126e-01  1.6416536397800671e-01  1.4070809726245589e-01  1.1725135580005029e-01  9.3795247182344513e-02  7.0337548305786576e-02  4.6867259027563828e-02  2.3369297737993958e-02  -9.3165275750630957e-04  1.8651050675809338e+00  1.8415822110962712e+00  1.8179501440721304e+00  1.7944055764908147e+00  1.7709580536826803e+00  1.7475359231822480e+00  1.7241224790009899e+00  1.7007021624068350e+00  1.6772584416436049e+00  1.6538088262659552e+00  1.6303507260471912e+00  1.6068952436832975e+00  1.5834373012866692e+00  1.5599811078536037e+00  1.5365235740657317e+00  1.5130666667158481e+00  1.4896090085572511e+00  1.4661515675424741e+00  1.4426937576129564e+00  1.4192360342066630e+00  1.3957781481895082e+00  1.3723202996740376e+00  1.3488623840780112e+00  1.3254044830641278e+00  1.3019465541070800e+00  1.2784886284589232e+00  1.2550306898009771e+00  1.2315727497518110e+00  1.2081148027080850e+00  1.1846568531550681e+00  1.1611988995774567e+00  1.1377409438849289e+00  1.1142829859085073e+00  1.0908250265396324e+00  1.0673670659274779e+00  1.0439091045036830e+00  1.0204511424206475e+00  9.9699317988428882e-01  9.7353521698897461e-01  9.5007725382644170e-01  9.2661929044101887e-01  9.0316132686641459e-01  8.7970336311588992e-01  8.5624539919589682e-01  8.3278743510575792e-01  8.0932947084387630e-01  7.8587150640950565e-01  7.6241354180594822e-01  7.3895557704197579e-01  7.1549761213274510e-01  6.9203964709953136e-01  6.6858168196859513e-01  6.4512371676951674e-01  6.2166575153280745e-01  5.9820778628819482e-01  5.7474982106201999e-01  5.5129185587690144e-01  5.2783389074933351e-01  5.0437592569158141e-01  4.8091796070864640e-01  4.5745999580284408e-01  4.3400203096837803e-01  4.1054406619814032e-01  3.8708610147727718e-01  3.6362813678903244e-01  3.4017017214234452e-01  3.1671220760871316e-01  2.9325424361758978e-01  2.6979628134692291e-01  2.4633832462826943e-01  2.2288038433214760e-01  1.9942249433194401e-01  1.7596473652288980e-01  1.5250725561919132e-01  1.2905023074729832e-01  1.0559394858107872e-01  8.2137952373046885e-02  5.8677459400639044e-02  3.5197201128804950e-02  1.1585111909788439e-02  1.8652911244874268e+00  1.8416340294464868e+00  1.8180295317221302e+00  1.7944361718168582e+00  1.7710034247710207e+00  1.7475312758790693e+00  1.7241326157051471e+00  1.7006847160523431e+00  1.6772568188913421e+00  1.6537968275499098e+00  1.6303478262451121e+00  1.6068872598947386e+00  1.5834333545839365e+00  1.5599746380596498e+00  1.5365189430756789e+00  1.5130608349093679e+00  1.4896040594681621e+00  1.4661460578205299e+00  1.4426886693113325e+00  1.4192306912933697e+00  1.395772996