<?xml version="1.0"?>
<VTKFile type="UnstructuredGrid"  version="0.1"  >
<UnstructuredGrid>
<Piece  NumberOfPoints="1369" NumberOfCells="2560">
<Points>
<DataArray  type="Float64"  NumberOfComponents="3"  format="ascii">0 0 0  0.75 0 0  1.5 0 0  2.25 0 0  3 0 0  3.75 0 0  4.5 0 0  5.25 0 0  6 0 0  6.75 0 0  7.5 0 0  8.25 0 0  9 0 0  9.75 0 0  10.5 0 0  11.25 0 0  12 0 0  12.75 0 0  13.5 0 0  14.25 0 0  15 0 0  15.75 0 0  16.5 0 0  17.25 0 0  18 0 0  18.75 0 0  19.5 0 0  20.25 0 0  21 0 0  21.75 0 0  22.5 0 0  23.25 0 0  24 0 0  24.75 0 0  25.5 0 0  26.25 0 0  27 0 0  27.75 0 0  28.5 0 0  29.25 0 0  30 0 0  30.75 0 0  31.5 0 0  32.25 0 0  33 0 0  33.75 0 0  34.5 0 0  35.25 0 0  36 0 0  36.75 0 0  37.5 0 0  38.25 0 0  39 0 0  39.75 0 0  40.5 0 0  41.25 0 0  42 0 0  42.75 0 0  43.5 0 0  44.25 0 0  45 0 0  45.75 0 0  46.5 0 0  47.25 0 0  48 0 0  48.75 0 0  49.5 0 0  50.25 0 0  51 0 0  51.75 0 0  52.5 0 0  53.25 0 0  54 0 0  54.75 0 0  55.5 0 0  56.25 0 0  57 0 0  57.75 0 0  58.5 0 0  59.25 0 0  60 0 0  0 0.5 0  0.75 0.5 0  1.5 0.5 0  2.25 0.5 0  3 0.5 0  3.75 0.5 0  4.5 0.5 0  5.25 0.5 0  6 0.5 0  6.75 0.5 0  7.5 0.5 0  8.25 0.5 0  9 0.5 0  9.75 0.5 0  10.5 0.5 0  11.25 0.5 0  12 0.5 0  12.75 0.5 0  13.5 0.5 0  14.25 0.5 0  15 0.5 0  15.75 0.5 0  16.5 0.5 0  17.25 0.5 0  18 0.5 0  18.75 0.5 0  19.5 0.5 0  20.25 0.5 0  21 0.5 0  21.75 0.5 0  22.5 0.5 0  23.25 0.5 0  24 0.5 0  24.75 0.5 0  25.5 0.5 0  26.25 0.5 0  27 0.5 0  27.75 0.5 0  28.5 0.5 0  29.25 0.5 0  30 0.5 0  30.75 0.5 0  31.5 0.5 0  32.25 0.5 0  33 0.5 0  33.75 0.5 0  34.5 0.5 0  35.25 0.5 0  36 0.5 0  36.75 0.5 0  37.5 0.5 0  38.25 0.5 0  39 0.5 0  39.75 0.5 0  40.5 0.5 0  41.25 0.5 0  42 0.5 0  42.75 0.5 0  43.5 0.5 0  44.25 0.5 0  45 0.5 0  45.75 0.5 0  46.5 0.5 0  47.25 0.5 0  48 0.5 0  48.75 0.5 0  49.5 0.5 0  50.25 0.5 0  51 0.5 0  51.75 0.5 0  52.5 0.5 0  53.25 0.5 0  54 0.5 0  54.75 0.5 0  55.5 0.5 0  56.25 0.5 0  57 0.5 0  57.75 0.5 0  58.5 0.5 0  59.25 0.5 0  60 0.5 0  0 1 0  0.75 1 0  1.5 1 0  2.25 1 0  3 1 0  3.75 1 0  4.5 1 0  5.25 1 0  6 1 0  6.75 1 0  7.5 1 0  8.25 1 0  9 1 0  9.75 1 0  10.5 1 0  11.25 1 0  12 1 0  12.75 1 0  13.5 1 0  14.25 1 0  15 1 0  15.75 1 0  16.5 1 0  17.25 1 0  18 1 0  18.75 1 0  19.5 1 0  20.25 1 0  21 1 0  21.75 1 0  22.5 1 0  23.25 1 0  24 1 0  24.75 1 0  25.5 1 0  26.25 1 0  27 1 0  27.75 1 0  28.5 1 0  29.25 1 0  30 1 0  30.75 1 0  31.5 1 0  32.25 1 0  33 1 0  33.75 1 0  34.5 1 0  35.25 1 0  36 1 0  36.75 1 0  37.5 1 0  38.25 1 0  39 1 0  39.75 1 0  40.5 1 0  41.25 1 0  42 1 0  42.75 1 0  43.5 1 0  44.25 1 0  45 1 0  45.75 1 0  46.5 1 0  47.25 1 0  48 1 0  48.75 1 0  49.5 1 0  50.25 1 0  51 1 0  51.75 1 0  52.5 1 0  53.25 1 0  54 1 0  54.75 1 0  55.5 1 0  56.25 1 0  57 1 0  57.75 1 0  58.5 1 0  59.25 1 0  60 1 0  0 1.5 0  0.75 1.5 0  1.5 1.5 0  2.25 1.5 0  3 1.5 0  3.75 1.5 0  4.5 1.5 0  5.25 1.5 0  6 1.5 0  6.75 1.5 0  7.5 1.5 0  8.25 1.5 0  9 1.5 0  9.75 1.5 0  10.5 1.5 0  11.25 1.5 0  12 1.5 0  12.75 1.5 0  13.5 1.5 0  14.25 1.5 0  15 1.5 0  15.75 1.5 0  16.5 1.5 0  17.25 1.5 0  18 1.5 0  18.75 1.5 0  19.5 1.5 0  20.25 1.5 0  21 1.5 0  21.75 1.5 0  22.5 1.5 0  23.25 1.5 0  24 1.5 0  24.75 1.5 0  25.5 1.5 0  26.25 1.5 0  27 1.5 0  27.75 1.5 0  28.5 1.5 0  29.25 1.5 0  30 1.5 0  30.75 1.5 0  31.5 1.5 0  32.25 1.5 0  33 1.5 0  33.75 1.5 0  34.5 1.5 0  35.25 1.5 0  36 1.5 0  36.75 1.5 0  37.5 1.5 0  38.25 1.5 0  39 1.5 0  39.75 1.5 0  40.5 1.5 0  41.25 1.5 0  42 1.5 0  42.75 1.5 0  43.5 1.5 0  44.25 1.5 0  45 1.5 0  45.75 1.5 0  46.5 1.5 0  47.25 1.5 0  48 1.5 0  48.75 1.5 0  49.5 1.5 0  50.25 1.5 0  51 1.5 0  51.75 1.5 0  52.5 1.5 0  53.25 1.5 0  54 1.5 0  54.75 1.5 0  55.5 1.5 0  56.25 1.5 0  57 1.5 0  57.75 1.5 0  58.5 1.5 0  59.25 1.5 0  60 1.5 0  0 2 0  0.75 2 0  1.5 2 0  2.25 2 0  3 2 0  3.75 2 0  4.5 2 0  5.25 2 0  6 2 0  6.75 2 0  7.5 2 0  8.25 2 0  9 2 0  9.75 2 0  10.5 2 0  11.25 2 0  12 2 0  12.75 2 0  13.5 2 0  14.25 2 0  15 2 0  15.75 2 0  16.5 2 0  17.25 2 0  18 2 0  18.75 2 0  19.5 2 0  20.25 2 0  21 2 0  21.75 2 0  22.5 2 0  23.25 2 0  24 2 0  24.75 2 0  25.5 2 0  26.25 2 0  27 2 0  27.75 2 0  28.5 2 0  29.25 2 0  30 2 0  30.75 2 0  31.5 2 0  32.25 2 0  33 2 0  33.75 2 0  34.5 2 0  35.25 2 0  36 2 0  36.75 2 0  37.5 2 0  38.25 2 0  39 2 0  39.75 2 0  40.5 2 0  41.25 2 0  42 2 0  42.75 2 0  43.5 2 0  44.25 2 0  45 2 0  45.75 2 0  46.5 2 0  47.25 2 0  48 2 0  48.75 2 0  49.5 2 0  50.25 2 0  51 2 0  51.75 2 0  52.5 2 0  53.25 2 0  54 2 0  54.75 2 0  55.5 2 0  56.25 2 0  57 2 0  57.75 2 0  58.5 2 0  59.25 2 0  60 2 0  0 2.5 0  0.75 2.5 0  1.5 2.5 0  2.25 2.5 0  3 2.5 0  3.75 2.5 0  4.5 2.5 0  5.25 2.5 0  6 2.5 0  6.75 2.5 0  7.5 2.5 0  8.25 2.5 0  9 2.5 0  9.75 2.5 0  10.5 2.5 0  11.25 2.5 0  12 2.5 0  12.75 2.5 0  13.5 2.5 0  14.25 2.5 0  15 2.5 0  15.75 2.5 0  16.5 2.5 0  17.25 2.5 0  18 2.5 0  18.75 2.5 0  19.5 2.5 0  20.25 2.5 0  21 2.5 0  21.75 2.5 0  22.5 2.5 0  23.25 2.5 0  24 2.5 0  24.75 2.5 0  25.5 2.5 0  26.25 2.5 0  27 2.5 0  27.75 2.5 0  28.5 2.5 0  29.25 2.5 0  30 2.5 0  30.75 2.5 0  31.5 2.5 0  32.25 2.5 0  33 2.5 0  33.75 2.5 0  34.5 2.5 0  35.25 2.5 0  36 2.5 0  36.75 2.5 0  37.5 2.5 0  38.25 2.5 0  39 2.5 0  39.75 2.5 0  40.5 2.5 0  41.25 2.5 0  42 2.5 0  42.75 2.5 0  43.5 2.5 0  44.25 2.5 0  45 2.5 0  45.75 2.5 0  46.5 2.5 0  47.25 2.5 0  48 2.5 0  48.75 2.5 0  49.5 2.5 0  50.25 2.5 0  51 2.5 0  51.75 2.5 0  52.5 2.5 0  53.25 2.5 0  54 2.5 0  54.75 2.5 0  55.5 2.5 0  56.25 2.5 0  57 2.5 0  57.75 2.5 0  58.5 2.5 0  59.25 2.5 0  60 2.5 0  0 3 0  0.75 3 0  1.5 3 0  2.25 3 0  3 3 0  3.75 3 0  4.5 3 0  5.25 3 0  6 3 0  6.75 3 0  7.5 3 0  8.25 3 0  9 3 0  9.75 3 0  10.5 3 0  11.25 3 0  12 3 0  12.75 3 0  13.5 3 0  14.25 3 0  15 3 0  15.75 3 0  16.5 3 0  17.25 3 0  18 3 0  18.75 3 0  19.5 3 0  20.25 3 0  21 3 0  21.75 3 0  22.5 3 0  23.25 3 0  24 3 0  24.75 3 0  25.5 3 0  26.25 3 0  27 3 0  27.75 3 0  28.5 3 0  29.25 3 0  30 3 0  30.75 3 0  31.5 3 0  32.25 3 0  33 3 0  33.75 3 0  34.5 3 0  35.25 3 0  36 3 0  36.75 3 0  37.5 3 0  38.25 3 0  39 3 0  39.75 3 0  40.5 3 0  41.25 3 0  42 3 0  42.75 3 0  43.5 3 0  44.25 3 0  45 3 0  45.75 3 0  46.5 3 0  47.25 3 0  48 3 0  48.75 3 0  49.5 3 0  50.25 3 0  51 3 0  51.75 3 0  52.5 3 0  53.25 3 0  54 3 0  54.75 3 0  55.5 3 0  56.25 3 0  57 3 0  57.75 3 0  58.5 3 0  59.25 3 0  60 3 0  0 3.5 0  0.75 3.5 0  1.5 3.5 0  2.25 3.5 0  3 3.5 0  3.75 3.5 0  4.5 3.5 0  5.25 3.5 0  6 3.5 0  6.75 3.5 0  7.5 3.5 0  8.25 3.5 0  9 3.5 0  9.75 3.5 0  10.5 3.5 0  11.25 3.5 0  12 3.5 0  12.75 3.5 0  13.5 3.5 0  14.25 3.5 0  15 3.5 0  15.75 3.5 0  16.5 3.5 0  17.25 3.5 0  18 3.5 0  18.75 3.5 0  19.5 3.5 0  20.25 3.5 0  21 3.5 0  21.75 3.5 0  22.5 3.5 0  23.25 3.5 0  24 3.5 0  24.75 3.5 0  25.5 3.5 0  26.25 3.5 0  27 3.5 0  27.75 3.5 0  28.5 3.5 0  29.25 3.5 0  30 3.5 0  30.75 3.5 0  31.5 3.5 0  32.25 3.5 0  33 3.5 0  33.75 3.5 0  34.5 3.5 0  35.25 3.5 0  36 3.5 0  36.75 3.5 0  37.5 3.5 0  38.25 3.5 0  39 3.5 0  39.75 3.5 0  40.5 3.5 0  41.25 3.5 0  42 3.5 0  42.75 3.5 0  43.5 3.5 0  44.25 3.5 0  45 3.5 0  45.75 3.5 0  46.5 3.5 0  47.25 3.5 0  48 3.5 0  48.75 3.5 0  49.5 3.5 0  50.25 3.5 0  51 3.5 0  51.75 3.5 0  52.5 3.5 0  53.25 3.5 0  54 3.5 0  54.75 3.5 0  55.5 3.5 0  56.25 3.5 0  57 3.5 0  57.75 3.5 0  58.5 3.5 0  59.25 3.5 0  60 3.5 0  0 4 0  0.75 4 0  1.5 4 0  2.25 4 0  3 4 0  3.75 4 0  4.5 4 0  5.25 4 0  6 4 0  6.75 4 0  7.5 4 0  8.25 4 0  9 4 0  9.75 4 0  10.5 4 0  11.25 4 0  12 4 0  12.75 4 0  13.5 4 0  14.25 4 0  15 4 0  15.75 4 0  16.5 4 0  17.25 4 0  18 4 0  18.75 4 0  19.5 4 0  20.25 4 0  21 4 0  21.75 4 0  22.5 4 0  23.25 4 0  24 4 0  24.75 4 0  25.5 4 0  26.25 4 0  27 4 0  27.75 4 0  28.5 4 0  29.25 4 0  30 4 0  30.75 4 0  31.5 4 0  32.25 4 0  33 4 0  33.75 4 0  34.5 4 0  35.25 4 0  36 4 0  36.75 4 0  37.5 4 0  38.25 4 0  39 4 0  39.75 4 0  40.5 4 0  41.25 4 0  42 4 0  42.75 4 0  43.5 4 0  44.25 4 0  45 4 0  45.75 4 0  46.5 4 0  47.25 4 0  48 4 0  48.75 4 0  49.5 4 0  50.25 4 0  51 4 0  51.75 4 0  52.5 4 0  53.25 4 0  54 4 0  54.75 4 0  55.5 4 0  56.25 4 0  57 4 0  57.75 4 0  58.5 4 0  59.25 4 0  60 4 0  0.375 0.25 0  1.125 0.25 0  1.875 0.25 0  2.625 0.25 0  3.375 0.25 0  4.125 0.25 0  4.875 0.25 0  5.625 0.25 0  6.375 0.25 0  7.125 0.25 0  7.875 0.25 0  8.625 0.25 0  9.375 0.25 0  10.125 0.25 0  10.875 0.25 0  11.625 0.25 0  12.375 0.25 0  13.125 0.25 0  13.875 0.25 0  14.625 0.25 0  15.375 0.25 0  16.125 0.25 0  16.875 0.25 0  17.625 0.25 0  18.375 0.25 0  19.125 0.25 0  19.875 0.25 0  20.625 0.25 0  21.375 0.25 0  22.125 0.25 0  22.875 0.25 0  23.625 0.25 0  24.375 0.25 0  25.125 0.25 0  25.875 0.25 0  26.625 0.25 0  27.375 0.25 0  28.125 0.25 0  28.875 0.25 0  29.625 0.25 0  30.375 0.25 0  31.125 0.25 0  31.875 0.25 0  32.625 0.25 0  33.375 0.25 0  34.125 0.25 0  34.875 0.25 0  35.625 0.25 0  36.375 0.25 0  37.125 0.25 0  37.875 0.25 0  38.625 0.25 0  39.375 0.25 0  40.125 0.25 0  40.875 0.25 0  41.625 0.25 0  42.375 0.25 0  43.125 0.25 0  43.875 0.25 0  44.625 0.25 0  45.375 0.25 0  46.125 0.25 0  46.875 0.25 0  47.625 0.25 0  48.375 0.25 0  49.125 0.25 0  49.875 0.25 0  50.625 0.25 0  51.375 0.25 0  52.125 0.25 0  52.875 0.25 0  53.625 0.25 0  54.375 0.25 0  55.125 0.25 0  55.875 0.25 0  56.625 0.25 0  57.375 0.25 0  58.125 0.25 0  58.875 0.25 0  59.625 0.25 0  0.375 0.75 0  1.125 0.75 0  1.875 0.75 0  2.625 0.75 0  3.375 0.75 0  4.125 0.75 0  4.875 0.75 0  5.625 0.75 0  6.375 0.75 0  7.125 0.75 0  7.875 0.75 0  8.625 0.75 0  9.375 0.75 0  10.125 0.75 0  10.875 0.75 0  11.625 0.75 0  12.375 0.75 0  13.125 0.75 0  13.875 0.75 0  14.625 0.75 0  15.375 0.75 0  16.125 0.75 0  16.875 0.75 0  17.625 0.75 0  18.375 0.75 0  19.125 0.75 0  19.875 0.75 0  20.625 0.75 0  21.375 0.75 0  22.125 0.75 0  22.875 0.75 0  23.625 0.75 0  24.375 0.75 0  25.125 0.75 0  25.875 0.75 0  26.625 0.75 0  27.375 0.75 0  28.125 0.75 0  28.875 0.75 0  29.625 0.75 0  30.375 0.75 0  31.125 0.75 0  31.875 0.75 0  32.625 0.75 0  33.375 0.75 0  34.125 0.75 0  34.875 0.75 0  35.625 0.75 0  36.375 0.75 0  37.125 0.75 0  37.875 0.75 0  38.625 0.75 0  39.375 0.75 0  40.125 0.75 0  40
[...]
<PointData  Scalars="f_8-1"> 
<DataArray  type="Float64"  Name="f_8-1"  format="ascii">-1.1849578939178484e+01  -1.1703833238505647e+01  -1.1555724886459116e+01  -1.1407721062016696e+01  -1.1259681859494449e+01  -1.1111597122495683e+01  -1.0963473472684901e+01  -1.0815322304843562e+01  -1.0667154732715494e+01  -1.0518979015278687e+01  -1.0370799315177404e+01  -1.0222619820935003e+01  -1.0074444908776833e+01  -9.9262768994196975e+00  -9.7781150590611734e+00  -9.6299573623697743e+00  -9.4818018928139480e+00  -9.3336474619995613e+00  -9.1854934519061864e+00  -9.0373396076626413e+00  -8.8891858245604016e+00  -8.7410320689794201e+00  -8.5928783249577005e+00  -8.4447245877646573e+00  -8.2965708535373235e+00  -8.1484171212787295e+00  -8.0002633897829014e+00  -7.8521096588478523e+00  -7.7039559280967609e+00  -7.5558021975026355e+00  -7.4076484669516462e+00  -7.2594947364428668e+00  -7.1113410059451070e+00  -6.9631872754574680e+00  -6.8150335449736161e+00  -6.6668798144912547e+00  -6.5187260840108223e+00  -6.3705723535299938e+00  -6.2224186230502516e+00  -6.0742648925699418e+00  -5.9261111620902627e+00  -5.7779574316101714e+00  -5.6298037011304052e+00  -5.4816499706504311e+00  -5.3334962401706427e+00  -5.1853425096907184e+00  -5.0371887792108891e+00  -4.8890350487310119e+00  -4.7408813182511453e+00  -4.5927275877712681e+00  -4.4445738572913980e+00  -4.2964201268114914e+00  -4.1482663963315707e+00  -4.0001126658515798e+00  -3.8519589353714316e+00  -3.7038052048909780e+00  -3.5556514744099115e+00  -3.4074977439274843e+00  -3.2593440134423766e+00  -3.1111902829516107e+00  -2.9630365524493292e+00  -2.8148828219231206e+00  -2.6667290913480550e+00  -2.5185753606724020e+00  -2.3704216297922867e+00  -2.2222678984957667e+00  -2.0741141663610305e+00  -1.9259604325352464e+00  -1.7778066953614096e+00  -1.6296529513108229e+00  -1.4814991944696165e+00  -1.3333454055315346e+00  -1.1851915822012637e+00  -1.0370374950809274e+00  -8.8888380157091940e-01  -7.4072567120992550e-01  -5.9258308498436174e-01  -4.4435208711419488e-01  -2.9644554670664164e-01  -1.4717161985698246e-01  -2.4996657469617671e-03  -1.1852345214472180e+01  -1.1703751635540669e+01  -1.1555730213502072e+01  -1.1407707272901257e+01  -1.1259666313015826e+01  -1.1111585577885201e+01  -1.0963465887044190e+01  -1.0815317172365562e+01  -1.0667151006750933e+01  -1.0518976134043893e+01  -1.0370796919079645e+01  -1.0222616526980167e+01  -1.0074440401098242e+01  -9.9262714556121558e+00  -9.7781092191749739e+00  -9.6299513790355089e+00  -9.4817959071504685e+00  -9.3336414807391961e+00  -9.1854874856960347e+00  -9.0373336421001262e+00  -8.8891798626609759e+00  -8.7410261055497855e+00  -8.5928723625381185e+00  -8.4447186245022312e+00  -8.2965648907229212e+00  -8.1484111580999379e+00  -8.0002574268154891e+00  -7.8521036957256838e+00  -7.7039499650679968e+00  -7.5557962344108169e+00  -7.4076425038973479e+00  -7.2594887733652076e+00  -7.1113350428805697e+00  -6.9631813123856405e+00  -6.8150275819052677e+00  -6.6668738514214736e+00  -6.5187201209412811e+00  -6.3705663904607635e+00  -6.2224126599804812e+00  -6.0742589295007532e+00  -5.9261051990205225e+00  -5.7779514685408948e+00  -5.6297977380607698e+00  -5.4816440075810631e+00  -5.3334902771010668e+00  -5.1853365466212962e+00  -5.0371828161413612e+00  -4.8890290856615595e+00  -4.7408753551816547e+00  -4.5927216247018006e+00  -4.4445678942219127e+00  -4.2964141637420346e+00  -4.1482604332621102e+00  -4.0001067027821549e+00  -3.8519529723020605e+00  -3.7037992418217240e+00  -3.5556455113408703e+00  -3.4074917808589698e+00  -3.2593380503748164e+00  -3.1111843198862124e+00  -2.9630305893880915e+00  -2.8148768588708935e+00  -2.6667231283135715e+00  -2.5185693976752832e+00  -2.3704156668694383e+00  -2.2222619357261371e+00  -2.0741082038951979e+00  -1.9259544706917118e+00  -1.7778007347199074e+00  -1.6296469933078286e+00  -1.4814932405796102e+00  -1.3333394670904533e+00  -1.1851856378986336e+00  -1.0370317519426642e+00  -8.8887738024347784e-01  -7.4072355892679076e-01  -5.9256245649193717e-01  -4.4442008053208154e-01  -2.9616662409935351e-01  -1.4818117427552732e-01  6.9659738557851050e-04  -1.1852309773475655e+01  -1.1703941443401318e+01  -1.1555770853548744e+01  -1.1407724322686402e+01  -1.1259667825588302e+01  -1.1111586175469897e+01  -1.0963466218313206e+01  -1.0815320790780081e+01  -1.0667155418805315e+01  -1.0518982319995045e+01  -1.0370803867881987e+01  -1.0222623294630079e+01  -1.0074445960904972e+01  -9.9262763700849685e+00  -9.7781137414101771e+00  -9.6299558530387213e+00  -9.4818003378762885e+00  -9.3336459400591849e+00  -9.1854919375431905e+00  -9.0373381069583285e+00  -8.8891843222637483e+00  -8.7410305697655488e+00  -8.5928768239381892e+00  -8.4447230877640767e+00  -8.2965693527290725e+00  -8.1484156209027603e+00  -8.0002618890839230e+00  -7.8521081583320997e+00  -7.7039544274546419e+00  -7.5558006969336118e+00  -7.4076469663361042e+00  -7.2594932358532160e+00  -7.1113395053408235e+00  -6.9631857748601877e+00  -6.8150320443733721e+00  -6.6668783138915284e+00  -6.5187245834117098e+00  -6.3705708529297604e+00  -6.2224171224512492e+00  -6.0742633919697839e+00  -5.9261096614910604e+00  -5.7779559310101938e+00  -5.6298022005310404e+00  -5.4816484700506116e+00  -5.3334947395711438e+00  -5.1853410090909984e+00  -5.0371872786113325e+00  -4.8890335481313363e+00  -4.7408798176515585e+00  -4.5927260871716324e+00  -4.4445723566917925e+00  -4.2964186262118833e+00  -4.1482648957319919e+00  -4.0001111652520320e+00  -3.8519574347719647e+00  -3.7038037042916914e+00  -3.5556499738109424e+00  -3.4074962433293083e+00  -3.2593425128456190e+00  -3.1111887823581070e+00  -2.9630350518620667e+00  -2.8148813213493749e+00  -2.6667275908010821e+00  -2.5185738601816814e+00  -2.3704201294141054e+00  -2.2222663983492521e+00  -2.0741126666771001e+00  -1.9259589337931671e+00  -1.7778051984796353e+00  -1.6296514583481791e+00  -1.4814977087374404e+00  -1.3333439400165081e+00  -1.1851901352340766e+00  -1.0370362456663746e+00  -8.8888223231661367e-01  -7.4072767323131494e-01  -5.9257304130377686e-01  -4.4441321052223659e-01  -2.9625875349384634e-01  -1.4809271724669545e-01  -1.8013228222108226e-05  -1.1852244568848587e+01  -1.1703994656251638e+01  -1.1555831905304542e+01  -1.1407734068046844e+01  -1.1259668413171484e+01  -1.1111575016027970e+01  -1.0963460767614606e+01  -1.0815316563836097e+01  -1.0667157167851641e+01  -1.0518985340952797e+01  -1.0370809726245934e+01  -1.0222630713691993e+01  -1.0074454792416709e+01  -9.9262846574725323e+00  -9.7781213106939830e+00  -9.6299624670052015e+00  -9.4818064725844451e+00  -9.3336517275425095e+00  -9.1854976255075993e+00  -9.0373437176357037e+00  -8.8891899280263313e+00  -8.7410361574325606e+00  -8.5928824151719745e+00  -8.4447286730195028e+00  -8.2965749401266837e+00  -8.1484212059941274e+00  -8.0002674751944713e+00  -7.8521137435332138e+00  -7.7039600131075847e+00  -7.5558062822356495e+00  -7.4076525518202114e+00  -7.2594988212121878e+00  -7.1113450907624394e+00  -6.9631913602446920e+00  -6.8150376297731379e+00  -6.6668838992852679e+00  -6.5187301688050026e+00  -6.3705764383257950e+00  -6.2224227078433945e+00  -6.0742689773657457e+00  -5.9261152468835681e+00  -5.7779615164055356e+00  -5.6298077859241413e+00  -5.4816540554454187e+00  -5.3335003249646915e+00  -5.1853465944854475e+00  -5.0371928640051493e+00  -4.8890391335255892e+00  -4.7408854030455059e+00  -4.5927316725657850e+00  -4.4445779420858118e+00  -4.2964242116059799e+00  -4.1482704811260245e+00  -4.0001167506460629e+00  -3.8519630201659072e+00  -3.7038092896855241e+00  -3.5556555592045100e+00  -3.4075018287222893e+00  -3.2593480982375111e+00  -3.1111943677475695e+00  -2.9630406372468450e+00  -2.8148869067241411e+00  -2.6667331761561579e+00  -2.5185794454959676e+00  -2.3704257146479244e+00  -2.2222719834202889e+00  -2.0741182514286121e+00  -1.9259645179102440e+00  -1.7778107813570736e+00  -1.6296570388082099e+00  -1.4815032844545319e+00  -1.3333495070012560e+00  -1.1851956840437949e+00  -1.0370417736258275e+00  -8.8888768940471008e-01  -7.4073331865044645e-01  -5.9257840386322536e-01  -4.4442356373833836e-01  -2.9627040492094597e-01  -1.4813604861041937e-01  6.6533573638827033e-06  -1.1852251515816716e+01  -1.1704008110946605e+01  -1.1555838387038447e+01  -1.1407739807556190e+01  -1.1259655907434519e+01  -1.1111567921289609e+01  -1.0963448253300269e+01  -1.0815309400825573e+01  -1.0667148970491088e+01  -1.0518980094717357e+01  -1.0370803927308668e+01  -1.0222626814585915e+01  -1.0074451101913347e+01  -9.9262814054887674e+00  -9.7781174150824572e+00  -9.6299583121542867e+00  -9.4818018919519762e+00  -9.3336470526777440e+00  -9.1854928154579021e+00  -9.0373389088234042e+00  -8.8891850818264881e+00  -8.7410313220438898e+00  -8.5928775671312785e+00  -8.4447238309801342e+00  -8.2965700930640072e+00  -8.1484163616740357e+00  -8.0002626287950260e+00  -7.8521088983394494e+00  -7.7039551670571731e+00  -7.5558014366914037e+00  -7.4076477059397892e+00  -7.2594939755254471e+00  -7.1113402449577876e+00  -6.9631865145023468e+00  -6.8150327839984195e+00  -6.6668790535234228e+00  -6.5187253230401350e+00  -6.3705715925585240e+00  -6.2224178620805990e+00  -6.0742641315978601e+00  -5.9261104011204253e+00  -5.7779566706383170e+00  -5.6298029401602054e+00  -5.4816492096789462e+00  -5.3334954792001135e+00  -5.1853417487194990e+00  -5.0371880182401689e+00  -4.8890342877599311e+00  -4.7408805572803212e+00  -4.5927268268002788e+00  -4.4445730963205143e+00  -4.2964193658405492e+00  -4.1482656353606746e+00  -4.0001119048806455e+00  -3.8519581744004912e+00  -3.7038044439200122e+00  -3.5556507134388617e+00  -3.4074969829563280e+00  -3.2593432524709445e+00  -3.1111895219797057e+00  -2.9630357914763961e+00  -2.8148820609483263e+00  -2.6667283303695286e+00  -2.5185745996873456e+00  -2.3704208687952160e+00  -2.2222671374792884e+00  -2.0741134053124388e+00  -1.9259596714477987e+00  -1.7778059342146775e+00  -1.6296521903327452e+00  -1.4814984333793952e+00  -1.3333446507835969e+00  -1.1851908181149047e+00  -1.0370368884909862e+00  -8.8888277879438271e-01  -7.4072836374694673e-01  -5.9257360934393710e-01  -4.4441922618951041e-01  -2.9626945579437336e-01  -1.4813028608745016e-01  -6.7317308677664595e-06  -1.1852244568848596e+01  -1.1703994656251636e+01  -1.1555831905304508e+01  -1.1407734068046809e+01  -1.1259668413171481e+01  -1.1111575016027981e+01  -1.0963460767614619e+01  -1.0815316563836076e+01  -1.0667157167851682e+01  -1.0518985340952810e+01  -1.0370809726245961e+01  -1.0222630713692043e+01  -1.0074454792416720e+01  -9.9262846574725465e+00  -9.7781213106940346e+00  -9.6299624670051944e+00  -9.4818064725844664e+00  -9.3336517275425290e+00  -9.1854976255075922e+00  -9.0373437176357161e+00  -8.8891899280263420e+00  -8.7410361574325854e+00  -8.5928824151720011e+00  -8.4447286730195348e+00  -8.2965749401266908e+00  -8.1484212059941541e+00  -8.0002674751944785e+00  -7.8521137435332271e+00  -7.7039600131075963e+00  -7.5558062822356433e+00  -7.4076525518202327e+00  -7.2594988212121967e+00  -7.1113450907624554e+00  -6.9631913602446920e+00  -6.8150376297731352e+00  -6.6668838992852866e+00  -6.5187301688050265e+00  -6.3705764383258172e+00  -6.2224227078433865e+00  -6.0742689773657341e+00  -5.9261152468835592e+00  -5.7779615164055125e+00  -5.6298077859241342e+00  -5.4816540554454019e+00  -5.3335003249646888e+00  -5.1853465944854511e+00  -5.0371928640051387e+00  -4.8890391335255821e+00  -4.7408854030455121e+00  -4.5927316725657823e+00  -4.4445779420858109e+00  -4.2964242116059870e+00  -4.1482704811260378e+00  -4.0001167506460851e+00  -3.8519630201659294e+00  -3.7038092896855432e+00  -3.5556555592045171e+00  -3.4075018287222960e+00  -3.2593480982375160e+00  -3.1111943677475717e+00  -2.9630406372468472e+00  -2.8148869067241447e+00  -2.6667331761561601e+00  -2.5185794454959662e+00  -2.3704257146479306e+00  -2.2222719834202898e+00  -2.0741182514286138e+00  -1.9259645179102467e+00  -1.7778107813570756e+00  -1.6296570388082099e+00  -1.4815032844545328e+00  -1.3333495070012622e+00  -1.1851956840438049e+00  -1.0370417736258315e+00  -8.8888768940471219e-01  -7.4073331865045700e-01  -5.9257840386322513e-01  -4.4442356373833919e-01  -2.9627040492094742e-01  -1.4813604861041962e-01  6.6533573633337506e-06  -1.1852309773475659e+01  -1.1703941443401307e+01  -1.1555770853548719e+01  -1.1407724322686317e+01  -1.1259667825588270e+01  -1.1111586175469915e+01  -1.0963466218313247e+01  -1.0815320790780058e+01  -1.0667155418805386e+01  -1.0518982319995093e+01  -1.0370803867882026e+01  -1.0222623294630145e+01  -1.0074445960905006e+01  -9.9262763700849828e+00  -9.7781137414102481e+00  -9.6299558530387674e+00  -9.4818003378763116e+00  -9.3336459400591991e+00  -9.1854919375432047e+00  -9.0373381069583569e+00  -8.8891843222637945e+00  -8.7410305697656092e+00  -8.5928768239382443e+00  -8.4447230877641566e+00  -8.2965693527290885e+00  -8.1484156209027976e+00  -8.0002618890839443e+00  -7.8521081583321282e+00  -7.7039544274546587e+00  -7.5558006969335976e+00  -7.4076469663361193e+00  -7.2594932358532329e+00  -7.1113395053408768e+00  -6.9631857748601940e+00  -6.8150320443733676e+00  -6.6668783138915710e+00  -6.5187245834117435e+00  -6.3705708529297942e+00  -6.2224171224512439e+00  -6.0742633919697635e+00  -5.9261096614910356e+00  -5.7779559310101511e+00  -5.6298022005310209e+00  -5.4816484700505752e+00  -5.3334947395711421e+00  -5.1853410090910002e+00  -5.0371872786113272e+00  -4.8890335481313265e+00  -4.7408798176515603e+00  -4.5927260871716244e+00  -4.4445723566918023e+00  -4.2964186262118949e+00  -4.1482648957320158e+00  -4.0001111652520693e+00  -3.8519574347719896e+00  -3.7038037042917318e+00  -3.5556499738109557e+00  -3.4074962433293194e+00  -3.2593425128456284e+00  -3.1111887823581137e+00  -2.9630350518620721e+00  -2.8148813213493775e+00  -2.6667275908010848e+00  -2.5185738601816783e+00  -2.3704201294141090e+00  -2.2222663983492530e+00  -2.0741126666771024e+00  -1.9259589337931713e+00  -1.7778051984796379e+00  -1.6296514583481820e+00  -1.4814977087374450e+00  -1.3333439400165163e+00  -1.1851901352340890e+00  -1.0370362456663806e+00  -8.8888223231661623e-01  -7.4072767323131672e-01  -5.9257304130377531e-01  -4.4441321052224697e-01  -2.9625875349385139e-01  -1.4809271724669523e-01  -1.8013228222214556e-05  -1.1852345214472185e+01  -1.1703751635540643e+01  -1.1555730213502018e+01  -1.1407707272901158e+01  -1.1259666313015789e+01  -1.1111585577885226e+01  -1.0963465887044251e+01  -1.0815317172365555e+01  -1.0667151006751009e+01  -1.0518976134043980e+01  -1.0370796919079710e+01  -1.0222616526980270e+01  -1.0074440401098286e+01  -9.9262714556121683e+00  -9.7781092191750503e+00  -9.6299513790356013e+00  -9.4817959071505129e+00  -9.3336414807392281e+00  -9.1854874856960631e+00  -9.0373336421001706e+00  -8.8891798626610292e+00  -8.7410261055498655e+00  -8.5928723625381984e+00  -8.4447186245023111e+00  -8.2965648907229550e+00  -8.1484111580999752e+00  -8.0002574268155300e+00  -7.8521036957257229e+00  -7.7039499650680101e+00  -7.5557962344108027e+00  -7.4076425038973603e+00  -7.2594887733652422e+00  -7.1113350428806452e+00  -6.9631813123856627e+00  -6.8150275819052624e+00  -6.6668738514215216e+00  -6.5187201209413299e+00  -6.3705663904608123e+00  -6.2224126599804830e+00  -6.0742589295007292e+00  -5.9261051990204860e+00  -5.7779514685408362e+00  -5.6297977380607405e+00  -5.4816440075810187e+00  -5.3334902771010579e+00  -5.1853365466213068e+00  -5.0371828161413630e+00  -4.8890290856615488e+00  -4.7408753551816627e+00  -4.5927216247017988e+00  -4.4445678942219251e+00  -4.2964141637420523e+00  -4.1482604332621440e+00  -4.0001067027822037e+00  -3.8519529723020933e+00  -3.7037992418217685e+00  -3.5556455113408929e+00  -3.4074917808589866e+00  -3.2593380503748279e+00  -3.1111843198862283e+00  -2.9630305893881039e+00  -2.8148768588708948e+00  -2.6667231283135826e+00  -2.5185693976752832e+00  -2.3704156668694401e+00  -2.2222619357261357e+00  -2.0741082038951970e+00  -1.9259544706917138e+00  -1.7778007347199107e+00  -1.6296469933078344e+00  -1.4814932405796197e+00  -1.3333394670904637e+00  -1.1851856378986494e+00  -1.0370317519426739e+00  -8.8887738024348539e-01  -7.4072355892679631e-01  -5.9256245649193162e-01  -4.4442008053209048e-01  -2.9616662409935679e-01  -1.4818117427552768e-01  6.9659738557877895e-04  -1.1849578939178475e+01  -1.1703833238505613e+01  -1.1555724886459068e+01  -1.1407721062016584e+01  -1.1259681859494396e+01  -1.1111597122495693e+01  -1.0963473472684949e+01  -1.0815322304843564e+01  -1.0667154732715556e+01  -1.0518979015278788e+01  -1.0370799315177477e+01  -1.0222619820935108e+01  -1.0074444908776870e+01  -9.9262768994197099e+00  -9.7781150590612640e+00  -9.6299573623698755e+00  -9.4818018928139960e+00  -9.3336474619996075e+00  -9.1854934519061917e+00  -9.0373396076626928e+00  -8.8891858245604567e+00  -8.7410320689795018e+00  -8.5928783249577751e+00  -8.4447245877647212e+00  -8.2965708535373714e+00  -8.1484171212787686e+00  -8.0002633897829565e+00  -7.8521096588478736e+00  -7.7039559280967733e+00  -7.5558021975026222e+00  -7.4076484669516258e+00  -7.2594947364429121e+00  -7.1113410059451949e+00  -6.9631872754575026e+00  -6.8150335449736170e+00  -6.6668798144913035e+00  -6.5187260840108703e+00  -6.3705723535300383e+00  -6.2224186230502658e+00  -6.0742648925699196e+00  -5.9261111620902209e+00  -5.7779574316101137e+00  -5.6298037011303768e+00  -5.4816499706503850e+00  -5.3334962401706223e+00  -5.1853425096907264e+00  -5.0371887792108865e+00  -4.8890350487310057e+00  -4.7408813182511489e+00  -4.5927275877712663e+00  -4.4445738572914015e+00  -4.2964201268115163e+00  -4.1482663963316035e+00  -4.0001126658516322e+00  -3.8519589353714716e+00  -3.7038052048910255e+00  -3.5556514744099257e+00  -3.4074977439275012e+00  -3.2593440134423837e+00  -3.1111902829516227e+00  -2.9630365524493474e+00  -2.8148828219231268e+00  -2.6667290913480683e+00  -2.5185753606724006e+00  -2.3704216297922858e+00  -2.2222678984957613e+00  -2.0741141663610256e+00  -1.9259604325352506e+00  -1.7778066953614122e+00  -1.6296529513108300e+00  -1.4814991944696267e+00  -1.3333454055315446e+00  -1.1851915822012824e+00  -1.0370374950809380e+00  -8.8888380157092839e-01  -7.4072567120992816e-01  -5.9258308498436663e-01  -4.4435208711420437e-01  -2.9644554670664458e-01  -1.4717161985698266e-01  -2.4996657469617879e-03  -1.1777811242300690e+01  -1.1629723492243745e+01  -1.1481701557628657e+01  -1.1333669850255465e+01  -1.1185607545355190e+01  -1.1037505495822966e+01  -1.0889369481397747e+01  -1.0741211339635697e+01  -1.0593040282891167e+01  -1.0444863266069072e+01  -1.0296683459307632e+01  -1.0148505666806578e+01  -1.0000333602745886e+01  -9.8521683887202194e+00  -9.7040084910488069e+00  -9.5558518903148588e+00  -9.4076969355293407e+00  -9.2595427235813315e+00  -9.1113887966479030e+00  -8.9632349855387243e+00  -8.8150812153799460e+00  -8.6669274661883033e+00  -8.5187737251360858e+00  -8.3706199896313613e+00  -8.2224662562241644e+00  -8.0743125244215488e+00  -7.9261587931542357e+00  -7.7780050623328005e+00  -7.6298513316485890e+00  -7.4816976010782374e+00  -7.3335438705492768e+00  -7.1853901400429088e+00  -7.0372364095536355e+00  -6.8890826790645283e+00  -6.7409289485842931e+00  -6.5927752181005257e+00  -6.4446214876217409e+00  -6.2964677571400500e+00  -6.1483140266610583e+00  -6.0001602961803115e+00  -5.8520065657009539e+00  -5.7038528352206361e+00  -5.5556991047410458e+00  -5.4075453742609909e+00  -5.2593916437812487e+00  -5.1112379133012951e+00  -4.9630841828214960e+00  -4.8149304523416019e+00  -4.6667767218617504e+00  -4.5186229913818625e+00  -4.3704692609019897e+00  -4.2223155304220823e+00  -4.0741617999421296e+00  -3.9260080694620774e+00  -3.7778543389818249e+00  -3.6297006085011492e+00  -3.4815468780195911e+00  -3.3333931475361731e+00  -3.1852394170490270e+00  -3.0370856865540206e+00  -2.8889319560430891e+00  -2.7407782254989854e+00  -2.5926244948874140e+00  -2.4444707641371486e+00  -2.2963170331059790e+00  -2.1481633015046193e+00  -2.0000095687582204e+00  -1.85185583371502