<?xml version="1.0"?>
<VTKFile type="UnstructuredGrid"  version="0.1"  >
<UnstructuredGrid>
<Piece  NumberOfPoints="1369" NumberOfCells="2560">
<Points>
<DataArray  type="Float64"  NumberOfComponents="3"  format="ascii">0 0 0  0.75 0 0  1.5 0 0  2.25 0 0  3 0 0  3.75 0 0  4.5 0 0  5.25 0 0  6 0 0  6.75 0 0  7.5 0 0  8.25 0 0  9 0 0  9.75 0 0  10.5 0 0  11.25 0 0  12 0 0  12.75 0 0  13.5 0 0  14.25 0 0  15 0 0  15.75 0 0  16.5 0 0  17.25 0 0  18 0 0  18.75 0 0  19.5 0 0  20.25 0 0  21 0 0  21.75 0 0  22.5 0 0  23.25 0 0  24 0 0  24.75 0 0  25.5 0 0  26.25 0 0  27 0 0  27.75 0 0  28.5 0 0  29.25 0 0  30 0 0  30.75 0 0  31.5 0 0  32.25 0 0  33 0 0  33.75 0 0  34.5 0 0  35.25 0 0  36 0 0  36.75 0 0  37.5 0 0  38.25 0 0  39 0 0  39.75 0 0  40.5 0 0  41.25 0 0  42 0 0  42.75 0 0  43.5 0 0  44.25 0 0  45 0 0  45.75 0 0  46.5 0 0  47.25 0 0  48 0 0  48.75 0 0  49.5 0 0  50.25 0 0  51 0 0  51.75 0 0  52.5 0 0  53.25 0 0  54 0 0  54.75 0 0  55.5 0 0  56.25 0 0  57 0 0  57.75 0 0  58.5 0 0  59.25 0 0  60 0 0  0 0.5 0  0.75 0.5 0  1.5 0.5 0  2.25 0.5 0  3 0.5 0  3.75 0.5 0  4.5 0.5 0  5.25 0.5 0  6 0.5 0  6.75 0.5 0  7.5 0.5 0  8.25 0.5 0  9 0.5 0  9.75 0.5 0  10.5 0.5 0  11.25 0.5 0  12 0.5 0  12.75 0.5 0  13.5 0.5 0  14.25 0.5 0  15 0.5 0  15.75 0.5 0  16.5 0.5 0  17.25 0.5 0  18 0.5 0  18.75 0.5 0  19.5 0.5 0  20.25 0.5 0  21 0.5 0  21.75 0.5 0  22.5 0.5 0  23.25 0.5 0  24 0.5 0  24.75 0.5 0  25.5 0.5 0  26.25 0.5 0  27 0.5 0  27.75 0.5 0  28.5 0.5 0  29.25 0.5 0  30 0.5 0  30.75 0.5 0  31.5 0.5 0  32.25 0.5 0  33 0.5 0  33.75 0.5 0  34.5 0.5 0  35.25 0.5 0  36 0.5 0  36.75 0.5 0  37.5 0.5 0  38.25 0.5 0  39 0.5 0  39.75 0.5 0  40.5 0.5 0  41.25 0.5 0  42 0.5 0  42.75 0.5 0  43.5 0.5 0  44.25 0.5 0  45 0.5 0  45.75 0.5 0  46.5 0.5 0  47.25 0.5 0  48 0.5 0  48.75 0.5 0  49.5 0.5 0  50.25 0.5 0  51 0.5 0  51.75 0.5 0  52.5 0.5 0  53.25 0.5 0  54 0.5 0  54.75 0.5 0  55.5 0.5 0  56.25 0.5 0  57 0.5 0  57.75 0.5 0  58.5 0.5 0  59.25 0.5 0  60 0.5 0  0 1 0  0.75 1 0  1.5 1 0  2.25 1 0  3 1 0  3.75 1 0  4.5 1 0  5.25 1 0  6 1 0  6.75 1 0  7.5 1 0  8.25 1 0  9 1 0  9.75 1 0  10.5 1 0  11.25 1 0  12 1 0  12.75 1 0  13.5 1 0  14.25 1 0  15 1 0  15.75 1 0  16.5 1 0  17.25 1 0  18 1 0  18.75 1 0  19.5 1 0  20.25 1 0  21 1 0  21.75 1 0  22.5 1 0  23.25 1 0  24 1 0  24.75 1 0  25.5 1 0  26.25 1 0  27 1 0  27.75 1 0  28.5 1 0  29.25 1 0  30 1 0  30.75 1 0  31.5 1 0  32.25 1 0  33 1 0  33.75 1 0  34.5 1 0  35.25 1 0  36 1 0  36.75 1 0  37.5 1 0  38.25 1 0  39 1 0  39.75 1 0  40.5 1 0  41.25 1 0  42 1 0  42.75 1 0  43.5 1 0  44.25 1 0  45 1 0  45.75 1 0  46.5 1 0  47.25 1 0  48 1 0  48.75 1 0  49.5 1 0  50.25 1 0  51 1 0  51.75 1 0  52.5 1 0  53.25 1 0  54 1 0  54.75 1 0  55.5 1 0  56.25 1 0  57 1 0  57.75 1 0  58.5 1 0  59.25 1 0  60 1 0  0 1.5 0  0.75 1.5 0  1.5 1.5 0  2.25 1.5 0  3 1.5 0  3.75 1.5 0  4.5 1.5 0  5.25 1.5 0  6 1.5 0  6.75 1.5 0  7.5 1.5 0  8.25 1.5 0  9 1.5 0  9.75 1.5 0  10.5 1.5 0  11.25 1.5 0  12 1.5 0  12.75 1.5 0  13.5 1.5 0  14.25 1.5 0  15 1.5 0  15.75 1.5 0  16.5 1.5 0  17.25 1.5 0  18 1.5 0  18.75 1.5 0  19.5 1.5 0  20.25 1.5 0  21 1.5 0  21.75 1.5 0  22.5 1.5 0  23.25 1.5 0  24 1.5 0  24.75 1.5 0  25.5 1.5 0  26.25 1.5 0  27 1.5 0  27.75 1.5 0  28.5 1.5 0  29.25 1.5 0  30 1.5 0  30.75 1.5 0  31.5 1.5 0  32.25 1.5 0  33 1.5 0  33.75 1.5 0  34.5 1.5 0  35.25 1.5 0  36 1.5 0  36.75 1.5 0  37.5 1.5 0  38.25 1.5 0  39 1.5 0  39.75 1.5 0  40.5 1.5 0  41.25 1.5 0  42 1.5 0  42.75 1.5 0  43.5 1.5 0  44.25 1.5 0  45 1.5 0  45.75 1.5 0  46.5 1.5 0  47.25 1.5 0  48 1.5 0  48.75 1.5 0  49.5 1.5 0  50.25 1.5 0  51 1.5 0  51.75 1.5 0  52.5 1.5 0  53.25 1.5 0  54 1.5 0  54.75 1.5 0  55.5 1.5 0  56.25 1.5 0  57 1.5 0  57.75 1.5 0  58.5 1.5 0  59.25 1.5 0  60 1.5 0  0 2 0  0.75 2 0  1.5 2 0  2.25 2 0  3 2 0  3.75 2 0  4.5 2 0  5.25 2 0  6 2 0  6.75 2 0  7.5 2 0  8.25 2 0  9 2 0  9.75 2 0  10.5 2 0  11.25 2 0  12 2 0  12.75 2 0  13.5 2 0  14.25 2 0  15 2 0  15.75 2 0  16.5 2 0  17.25 2 0  18 2 0  18.75 2 0  19.5 2 0  20.25 2 0  21 2 0  21.75 2 0  22.5 2 0  23.25 2 0  24 2 0  24.75 2 0  25.5 2 0  26.25 2 0  27 2 0  27.75 2 0  28.5 2 0  29.25 2 0  30 2 0  30.75 2 0  31.5 2 0  32.25 2 0  33 2 0  33.75 2 0  34.5 2 0  35.25 2 0  36 2 0  36.75 2 0  37.5 2 0  38.25 2 0  39 2 0  39.75 2 0  40.5 2 0  41.25 2 0  42 2 0  42.75 2 0  43.5 2 0  44.25 2 0  45 2 0  45.75 2 0  46.5 2 0  47.25 2 0  48 2 0  48.75 2 0  49.5 2 0  50.25 2 0  51 2 0  51.75 2 0  52.5 2 0  53.25 2 0  54 2 0  54.75 2 0  55.5 2 0  56.25 2 0  57 2 0  57.75 2 0  58.5 2 0  59.25 2 0  60 2 0  0 2.5 0  0.75 2.5 0  1.5 2.5 0  2.25 2.5 0  3 2.5 0  3.75 2.5 0  4.5 2.5 0  5.25 2.5 0  6 2.5 0  6.75 2.5 0  7.5 2.5 0  8.25 2.5 0  9 2.5 0  9.75 2.5 0  10.5 2.5 0  11.25 2.5 0  12 2.5 0  12.75 2.5 0  13.5 2.5 0  14.25 2.5 0  15 2.5 0  15.75 2.5 0  16.5 2.5 0  17.25 2.5 0  18 2.5 0  18.75 2.5 0  19.5 2.5 0  20.25 2.5 0  21 2.5 0  21.75 2.5 0  22.5 2.5 0  23.25 2.5 0  24 2.5 0  24.75 2.5 0  25.5 2.5 0  26.25 2.5 0  27 2.5 0  27.75 2.5 0  28.5 2.5 0  29.25 2.5 0  30 2.5 0  30.75 2.5 0  31.5 2.5 0  32.25 2.5 0  33 2.5 0  33.75 2.5 0  34.5 2.5 0  35.25 2.5 0  36 2.5 0  36.75 2.5 0  37.5 2.5 0  38.25 2.5 0  39 2.5 0  39.75 2.5 0  40.5 2.5 0  41.25 2.5 0  42 2.5 0  42.75 2.5 0  43.5 2.5 0  44.25 2.5 0  45 2.5 0  45.75 2.5 0  46.5 2.5 0  47.25 2.5 0  48 2.5 0  48.75 2.5 0  49.5 2.5 0  50.25 2.5 0  51 2.5 0  51.75 2.5 0  52.5 2.5 0  53.25 2.5 0  54 2.5 0  54.75 2.5 0  55.5 2.5 0  56.25 2.5 0  57 2.5 0  57.75 2.5 0  58.5 2.5 0  59.25 2.5 0  60 2.5 0  0 3 0  0.75 3 0  1.5 3 0  2.25 3 0  3 3 0  3.75 3 0  4.5 3 0  5.25 3 0  6 3 0  6.75 3 0  7.5 3 0  8.25 3 0  9 3 0  9.75 3 0  10.5 3 0  11.25 3 0  12 3 0  12.75 3 0  13.5 3 0  14.25 3 0  15 3 0  15.75 3 0  16.5 3 0  17.25 3 0  18 3 0  18.75 3 0  19.5 3 0  20.25 3 0  21 3 0  21.75 3 0  22.5 3 0  23.25 3 0  24 3 0  24.75 3 0  25.5 3 0  26.25 3 0  27 3 0  27.75 3 0  28.5 3 0  29.25 3 0  30 3 0  30.75 3 0  31.5 3 0  32.25 3 0  33 3 0  33.75 3 0  34.5 3 0  35.25 3 0  36 3 0  36.75 3 0  37.5 3 0  38.25 3 0  39 3 0  39.75 3 0  40.5 3 0  41.25 3 0  42 3 0  42.75 3 0  43.5 3 0  44.25 3 0  45 3 0  45.75 3 0  46.5 3 0  47.25 3 0  48 3 0  48.75 3 0  49.5 3 0  50.25 3 0  51 3 0  51.75 3 0  52.5 3 0  53.25 3 0  54 3 0  54.75 3 0  55.5 3 0  56.25 3 0  57 3 0  57.75 3 0  58.5 3 0  59.25 3 0  60 3 0  0 3.5 0  0.75 3.5 0  1.5 3.5 0  2.25 3.5 0  3 3.5 0  3.75 3.5 0  4.5 3.5 0  5.25 3.5 0  6 3.5 0  6.75 3.5 0  7.5 3.5 0  8.25 3.5 0  9 3.5 0  9.75 3.5 0  10.5 3.5 0  11.25 3.5 0  12 3.5 0  12.75 3.5 0  13.5 3.5 0  14.25 3.5 0  15 3.5 0  15.75 3.5 0  16.5 3.5 0  17.25 3.5 0  18 3.5 0  18.75 3.5 0  19.5 3.5 0  20.25 3.5 0  21 3.5 0  21.75 3.5 0  22.5 3.5 0  23.25 3.5 0  24 3.5 0  24.75 3.5 0  25.5 3.5 0  26.25 3.5 0  27 3.5 0  27.75 3.5 0  28.5 3.5 0  29.25 3.5 0  30 3.5 0  30.75 3.5 0  31.5 3.5 0  32.25 3.5 0  33 3.5 0  33.75 3.5 0  34.5 3.5 0  35.25 3.5 0  36 3.5 0  36.75 3.5 0  37.5 3.5 0  38.25 3.5 0  39 3.5 0  39.75 3.5 0  40.5 3.5 0  41.25 3.5 0  42 3.5 0  42.75 3.5 0  43.5 3.5 0  44.25 3.5 0  45 3.5 0  45.75 3.5 0  46.5 3.5 0  47.25 3.5 0  48 3.5 0  48.75 3.5 0  49.5 3.5 0  50.25 3.5 0  51 3.5 0  51.75 3.5 0  52.5 3.5 0  53.25 3.5 0  54 3.5 0  54.75 3.5 0  55.5 3.5 0  56.25 3.5 0  57 3.5 0  57.75 3.5 0  58.5 3.5 0  59.25 3.5 0  60 3.5 0  0 4 0  0.75 4 0  1.5 4 0  2.25 4 0  3 4 0  3.75 4 0  4.5 4 0  5.25 4 0  6 4 0  6.75 4 0  7.5 4 0  8.25 4 0  9 4 0  9.75 4 0  10.5 4 0  11.25 4 0  12 4 0  12.75 4 0  13.5 4 0  14.25 4 0  15 4 0  15.75 4 0  16.5 4 0  17.25 4 0  18 4 0  18.75 4 0  19.5 4 0  20.25 4 0  21 4 0  21.75 4 0  22.5 4 0  23.25 4 0  24 4 0  24.75 4 0  25.5 4 0  26.25 4 0  27 4 0  27.75 4 0  28.5 4 0  29.25 4 0  30 4 0  30.75 4 0  31.5 4 0  32.25 4 0  33 4 0  33.75 4 0  34.5 4 0  35.25 4 0  36 4 0  36.75 4 0  37.5 4 0  38.25 4 0  39 4 0  39.75 4 0  40.5 4 0  41.25 4 0  42 4 0  42.75 4 0  43.5 4 0  44.25 4 0  45 4 0  45.75 4 0  46.5 4 0  47.25 4 0  48 4 0  48.75 4 0  49.5 4 0  50.25 4 0  51 4 0  51.75 4 0  52.5 4 0  53.25 4 0  54 4 0  54.75 4 0  55.5 4 0  56.25 4 0  57 4 0  57.75 4 0  58.5 4 0  59.25 4 0  60 4 0  0.375 0.25 0  1.125 0.25 0  1.875 0.25 0  2.625 0.25 0  3.375 0.25 0  4.125 0.25 0  4.875 0.25 0  5.625 0.25 0  6.375 0.25 0  7.125 0.25 0  7.875 0.25 0  8.625 0.25 0  9.375 0.25 0  10.125 0.25 0  10.875 0.25 0  11.625 0.25 0  12.375 0.25 0  13.125 0.25 0  13.875 0.25 0  14.625 0.25 0  15.375 0.25 0  16.125 0.25 0  16.875 0.25 0  17.625 0.25 0  18.375 0.25 0  19.125 0.25 0  19.875 0.25 0  20.625 0.25 0  21.375 0.25 0  22.125 0.25 0  22.875 0.25 0  23.625 0.25 0  24.375 0.25 0  25.125 0.25 0  25.875 0.25 0  26.625 0.25 0  27.375 0.25 0  28.125 0.25 0  28.875 0.25 0  29.625 0.25 0  30.375 0.25 0  31.125 0.25 0  31.875 0.25 0  32.625 0.25 0  33.375 0.25 0  34.125 0.25 0  34.875 0.25 0  35.625 0.25 0  36.375 0.25 0  37.125 0.25 0  37.875 0.25 0  38.625 0.25 0  39.375 0.25 0  40.125 0.25 0  40.875 0.25 0  41.625 0.25 0  42.375 0.25 0  43.125 0.25 0  43.875 0.25 0  44.625 0.25 0  45.375 0.25 0  46.125 0.25 0  46.875 0.25 0  47.625 0.25 0  48.375 0.25 0  49.125 0.25 0  49.875 0.25 0  50.625 0.25 0  51.375 0.25 0  52.125 0.25 0  52.875 0.25 0  53.625 0.25 0  54.375 0.25 0  55.125 0.25 0  55.875 0.25 0  56.625 0.25 0  57.375 0.25 0  58.125 0.25 0  58.875 0.25 0  59.625 0.25 0  0.375 0.75 0  1.125 0.75 0  1.875 0.75 0  2.625 0.75 0  3.375 0.75 0  4.125 0.75 0  4.875 0.75 0  5.625 0.75 0  6.375 0.75 0  7.125 0.75 0  7.875 0.75 0  8.625 0.75 0  9.375 0.75 0  10.125 0.75 0  10.875 0.75 0  11.625 0.75 0  12.375 0.75 0  13.125 0.75 0  13.875 0.75 0  14.625 0.75 0  15.375 0.75 0  16.125 0.75 0  16.875 0.75 0  17.625 0.75 0  18.375 0.75 0  19.125 0.75 0  19.875 0.75 0  20.625 0.75 0  21.375 0.75 0  22.125 0.75 0  22.875 0.75 0  23.625 0.75 0  24.375 0.75 0  25.125 0.75 0  25.875 0.75 0  26.625 0.75 0  27.375 0.75 0  28.125 0.75 0  28.875 0.75 0  29.625 0.75 0  30.375 0.75 0  31.125 0.75 0  31.875 0.75 0  32.625 0.75 0  33.375 0.75 0  34.125 0.75 0  34.875 0.75 0  35.625 0.75 0  36.375 0.75 0  37.125 0.75 0  37.875 0.75 0  38.625 0.75 0  39.375 0.75 0  40.125 0.75 0  40
[...]
<PointData  Scalars="f_8-1"> 
<DataArray  type="Float64"  Name="f_8-1"  format="ascii">3.7089658136228150e+00  3.6613100592236547e+00  3.6145947617313063e+00  3.5682558343108020e+00  3.5217801901612948e+00  3.4755747137685944e+00  3.4291968664937587e+00  3.3829268221010964e+00  3.3365495321334926e+00  3.2902364017016836e+00  3.2438786843131990e+00  3.1975507085081269e+00  3.1512047063816055e+00  3.1048697678502433e+00  3.0585284962125034e+00  3.0121908059549170e+00  2.9658511661552276e+00  2.9195125695881954e+00  2.8731734284343160e+00  2.8268345677778899e+00  2.7804955653565337e+00  2.7341566339558363e+00  2.6878176675282393e+00  2.6414787182879658e+00  2.5951397607271924e+00  2.5488008071852248e+00  2.5024618517254416e+00  2.4561228971807290e+00  2.4097839422042449e+00  2.3634449874318024e+00  2.3171060325639621e+00  2.2707670777408615e+00  2.2244281228969980e+00  2.1780891680627987e+00  2.1317502132241564e+00  2.0854112583875728e+00  2.0390723035500535e+00  1.9927333487129786e+00  1.9463943938756805e+00  1.9000554390385112e+00  1.8537164842012703e+00  1.8073775293640506e+00  1.7610385745268242e+00  1.7146996196896223e+00  1.6683606648523870e+00  1.6220217100151588e+00  1.5756827551779355e+00  1.5293438003407305e+00  1.4830048455035179e+00  1.4366658906663095e+00  1.3903269358291814e+00  1.3439879809919866e+00  1.2976490261551625e+00  1.2513100713181207e+00  1.2049711164820363e+00  1.1586321616450868e+00  1.1122932068095182e+00  1.0659542519685210e+00  1.0196152971222956e+00  9.7327634224218540e-01  9.2693738730805963e-01  8.8059843222623813e-01  8.3425947698199454e-01  7.8792052168735760e-01  7.4158156775050543e-01  6.9524262013822136e-01  6.4890369471263021e-01  6.0256483077378065e-01  5.5622611284574608e-01  5.0988768289609743e-01  4.6354971294911756e-01  4.1721225755559510e-01  3.7087500110464200e-01  3.2453712525205114e-01  2.7819782605662524e-01  2.3185709210418526e-01  1.8551557199344440e-01  1.3917399012625054e-01  9.2832665639631481e-02  4.6496433430317820e-02  -1.5974870891912089e-04  3.7080899138377514e+00  3.6616113828260048e+00  3.6146780070747186e+00  3.5683153602962907e+00  3.5218515925548175e+00  3.4755559731431829e+00  3.4292375556168939e+00  3.3829125130963331e+00  3.3365784566993053e+00  3.2902354140345182e+00  3.2438985690284494e+00  3.1975571816842745e+00  3.1512196561432213e+00  3.1048795794055293e+00  3.0585413572734743e+00  3.0122019044307513e+00  2.9658632652433710e+00  2.9195241121678515e+00  2.8731852759793073e+00  2.8268462510698611e+00  2.7805073360244901e+00  2.7341683588307322e+00  2.6878294161537850e+00  2.6414904547524349e+00  2.5951515033644599e+00  2.5488125467237617e+00  2.5024735928083754e+00  2.4561346375012807e+00  2.4097956828989400e+00  2.3634567279444028e+00  2.3171177731647790e+00  2.2707788182992479e+00  2.2244398634757250e+00  2.1781009086318392e+00  2.1317619537977968e+00  2.0854229989590443e+00  2.0390840441225344e+00  1.9927450892850003e+00  1.9464061344479160e+00  1.9000671796106379e+00  1.8537282247734552e+00  1.8073892699362104e+00  1.7610503150989909e+00  1.7147113602617765e+00  1.6683724054245601e+00  1.6220334505873077e+00  1.5756944957501031e+00  1.5293555409128456e+00  1.4830165860756541e+00  1.4366776312383067e+00  1.3903386764011583e+00  1.3439997215635602e+00  1.2976607667264204e+00  1.2513218118880725e+00  1.2049828570503127e+00  1.1586439022088739e+00  1.1123049473659674e+00  1.0659659925088152e+00  1.0196270376326380e+00  9.7328808269068967e-01  9.2694912763079040e-01  8.8061017227937533e-01  8.3427121642810453e-01  7.8793225970960679e-01  7.4159330230328202e-01  6.9525434625283111e-01  6.4891540074250309e-01  6.0257649182878881e-01  5.5623768112656236e-01  5.0989908155872488e-01  4.6356084729652519e-01  4.1722306826310585e-01  3.7088554550743258e-01  3.2454760101605462e-01  2.7820844449200305e-01  2.3186799801471941e-01  1.8552693350828889e-01  1.3918608405000016e-01  9.2846873565552587e-02  4.6495826989771581e-02  4.7112217495584137e-05  3.7080951009672694e+00  3.6616713805761854e+00  3.6148337321164590e+00  3.5684439827494110e+00  3.5219404296776431e+00  3.4756228112191763e+00  3.4292631279565868e+00  3.3829482801585082e+00  3.3366013438900053e+00  3.2902702356799587e+00  3.2439265650815239e+00  3.1975908080377216e+00  3.1512496339303260e+00  3.1049121915319464e+00  3.0585721930396281e+00  3.0122339449704891e+00  2.9658945228459106e+00  2.9195558692769654e+00  2.8732167264006985e+00  2.8268778858489192e+00  2.7805388635724668e+00  2.7341999475951360e+00  2.6878609709057266e+00  2.6415220281154261e+00  2.5951830667661562e+00  2.5488441153928791e+00  2.5025051587420384e+00  2.4561662048421553e+00  2.4098272495266766e+00  2.3634882949309475e+00  2.3171493399730698e+00  2.2708103851956238e+00  2.2244714303290323e+00  2.1781324755061329e+00  2.1317935206619696e+00  2.0854545658280834e+00  2.0391156109892750e+00  1.9927766561528053e+00  1.9464377013152290e+00  1.9000987464781862e+00  1.8537597916408879e+00  1.8074208368036975e+00  1.7610818819664624e+00  1.7147429271292591e+00  1.6684039722920385e+00  1.6220650174548279e+00  1.5757260626176444e+00  1.5293871077804984e+00  1.4830481529434303e+00  1.4367091981064968e+00  1.3903702432698999e+00  1.3440312884339163e+00  1.2976923335992199e+00  1.2513533787670736e+00  1.2050144239400609e+00  1.1586754691234451e+00  1.1123365143277144e+00  1.0659975595748701e+00  1.0196586049095973e+00  9.7331965042784929e-01  9.2698069633165303e-01  8.8064174306611875e-01  8.3430279160354992e-01  7.8796384412366505e-01  7.4162490542341664e-01  6.9528598587492640e-01  6.4894710652651666e-01  6.0260830641512408e-01  5.5626964744324880e-01  5.0993120457924479e-01  4.6359301583005930e-01  4.1725497420070434e-01  3.7091671372730889e-01  3.2457766943278860e-01  2.7823731423901704e-01  2.3189518886195037e-01  1.8555061437529313e-01  1.3920201342134458e-01  9.2844437632889118e-02  4.6461159959367455e-02  7.3265431061985695e-06  3.7082005429822886e+00  3.6615917570400285e+00  3.6150068791120535e+00  3.5684479257665225e+00  3.5220429814542031e+00  3.4756244860525962e+00  3.4293069353742847e+00  3.3829478541575599e+00  3.3366275265392051e+00  3.2902788498635074e+00  3.2439480089599146e+00  3.1976042963571802e+00  3.1512686506499561e+00  3.1049276416744847e+00  3.0585900205322267e+00  3.0122502376528697e+00  2.9659118023918678e+00  2.9195725320625669e+00  2.8732337684856875e+00  2.8268947011811809e+00  2.7805558120029130e+00  2.7342168198857606e+00  2.6878778860220862e+00  2.6415389196707881e+00  2.5951999710973994e+00  2.5488610129239628e+00  2.5025220598494524e+00  2.4561831040977444e+00  2.4098441497318275e+00  2.3635051946555317e+00  2.3171662399389610e+00  2.2708272850416957e+00  2.2244883302342244e+00  2.1781493753824339e+00  2.1318104205523274e+00  2.0854714657116658e+00  2.0391325108761165e+00  1.9927935560380832e+00  1.9464546012012534e+00  1.9001156463638611e+00  1.8537766915267218e+00  1.8074377366894558e+00  1.7610987818522663e+00  1.7147598270150488e+00  1.6684208721778349e+00  1.6220819173406444e+00  1.5757429625034940e+00  1.5294040076664175e+00  1.4830650528294789e+00  1.4367260979928396e+00  1.3903871431567723e+00  1.3440481883219682e+00  1.2977092334894882e+00  1.2513702786620924e+00  1.2050313238443888e+00  1.1586923690474713e+00  1.1123534142916289e+00  1.0660144596234211e+00  1.0196755051344577e+00  9.7333655102982475e-01  9.2699759773223867e-01  8.8065864617161649e-01  8.3431969829139074e-01  7.8798075823572522e-01  7.4164183440058096e-01  6.9530294332076270e-01  6.4896411478088745e-01  6.0262539687980921e-01  5.5628685189175819e-01  5.0994852853740802e-01  4.6361038552149103e-01  4.1727217710056513e-01  3.7093340921068524e-01  3.2459356271358264e-01  2.7825225187129426e-01  2.3190870950559145e-01  1.8556126010037038e-01  1.3920661455620795e-01  9.2837662311979166e-02  4.6441451478933388e-02  5.5132044759175097e-06  3.7081934313024010e+00  3.6616058171346926e+00  3.6149916377858475e+00  3.5684991029009723e+00  3.5220179031350423e+00  3.4756594129950713e+00  3.4292823426505534e+00  3.3829628836775139e+00  3.3366115659323361e+00  3.2902845336103876e+00  3.2439390316918781e+00  3.1976052409457418e+00  3.1512631729926310e+00  3.1049263222795358e+00  3.0585860722732598e+00  3.0122479381960598e+00  2.9659084861286518e+00  2.9195698347896739e+00  2.8732307008553635e+00  2.8268918517140240e+00  2.7805528363234728e+00  2.7342139160483510e+00  2.6878749419996963e+00  2.6415359977827859e+00  2.5951970372104207e+00  2.5488580854523133e+00  2.5025191289956488e+00  2.4561801750056782e+00  2.4098412197331629e+00  2.3635022651186284e+00  2.3171633101693079e+00  2.2708243553883332e+00  2.2244854005232804e+00  2.1781464456997965e+00  2.1318074908558802e+00  2.0854685360219154e+00  2.0391295811831327e+00  1.9927906263466579e+00  1.9464516715090829e+00  1.9001127166720373e+00  1.8537737618347385e+00  1.8074348069975528e+00  1.7610958521603197e+00  1.7147568973231169e+00  1.6684179424859060e+00  1.6220789876487209e+00  1.5757400328115818e+00  1.5294010779745202e+00  1.4830621231376224e+00  1.4367231683010520e+00  1.3903842134651561e+00  1.3440452586306328e+00  1.2977063037988295e+00  1.2513673489726440e+00  1.2050283941577014e+00  1.1586894393660379e+00  1.1123504846218739e+00  1.0660115299771313e+00  1.0196725755397893e+00  9.7333362154265968e-01  9.2699466847918199e-01  8.8065571740938819e-01  8.3431677056656695e-01  7.8797783260525822e-01  7.4163891285638384e-01  6.9530002911999200e-01  6.4896121249444427e-01  6.0262251060746241e-01  5.5628398045795036e-01  5.0994565553464610e-01  4.6360747025381033e-01  4.1726916255983965e-01  3.7093026429030951e-01  3.2459028246441812e-01  2.7824875575333236e-01  2.3190479485614496e-01  1.8555651208613411e-01  1.3920014863456809e-01  9.2828365601257845e-02  4.6430213208473022e-02  1.1193162574534218e-05  3.7082005429822953e+00  3.6615917570400298e+00  3.6150068791120509e+00  3.5684479257665274e+00  3.5220429814542036e+00  3.4756244860526002e+00  3.4293069353742744e+00  3.3829478541575644e+00  3.3366275265391931e+00  3.2902788498635185e+00  3.2439480089599093e+00  3.1976042963571811e+00  3.1512686506499543e+00  3.1049276416744895e+00  3.0585900205322227e+00  3.0122502376528724e+00  2.9659118023918749e+00  2.9195725320625732e+00  2.8732337684856772e+00  2.8268947011811743e+00  2.7805558120029183e+00  2.7342168198857557e+00  2.6878778860220938e+00  2.6415389196707921e+00  2.5951999710974092e+00  2.5488610129239686e+00  2.5025220598494529e+00  2.4561831040977484e+00  2.4098441497318301e+00  2.3635051946555299e+00  2.3171662399389632e+00  2.2708272850416873e+00  2.2244883302342364e+00  2.1781493753824352e+00  2.1318104205523336e+00  2.0854714657116693e+00  2.0391325108761102e+00  1.9927935560380934e+00  1.9464546012012569e+00  1.9001156463638582e+00  1.8537766915267233e+00  1.8074377366894627e+00  1.7610987818522608e+00  1.7147598270150390e+00  1.6684208721778373e+00  1.6220819173406442e+00  1.5757429625034984e+00  1.5294040076664144e+00  1.4830650528294769e+00  1.4367260979928411e+00  1.3903871431567723e+00  1.3440481883219653e+00  1.2977092334894822e+00  1.2513702786620906e+00  1.2050313238443895e+00  1.1586923690474760e+00  1.1123534142916345e+00  1.0660144596234213e+00  1.0196755051344570e+00  9.7333655102982797e-01  9.2699759773223633e-01  8.8065864617161771e-01  8.3431969829139174e-01  7.8798075823572000e-01  7.4164183440057940e-01  6.9530294332076348e-01  6.4896411478088689e-01  6.0262539687981020e-01  5.5628685189175719e-01  5.0994852853740780e-01  4.6361038552149469e-01  4.1727217710056419e-01  3.7093340921069040e-01  3.2459356271358797e-01  2.7825225187128694e-01  2.3190870950559145e-01  1.8556126010037119e-01  1.3920661455621727e-01  9.2837662311976779e-02  4.6441451478935428e-02  5.5132044740322990e-06  3.7080951009672645e+00  3.6616713805761840e+00  3.6148337321164616e+00  3.5684439827494083e+00  3.5219404296776462e+00  3.4756228112191834e+00  3.4292631279565859e+00  3.3829482801585060e+00  3.3366013438899897e+00  3.2902702356799582e+00  3.2439265650815226e+00  3.1975908080377207e+00  3.1512496339303304e+00  3.1049121915319504e+00  3.0585721930396326e+00  3.0122339449704914e+00  2.9658945228459173e+00  2.9195558692769792e+00  2.8732167264006887e+00  2.8268778858489165e+00  2.7805388635724637e+00  2.7341999475951297e+00  2.6878609709057253e+00  2.6415220281154306e+00  2.5951830667661713e+00  2.5488441153928814e+00  2.5025051587420433e+00  2.4561662048421637e+00  2.4098272495266828e+00  2.3634882949309493e+00  2.3171493399730636e+00  2.2708103851956207e+00  2.2244714303290340e+00  2.1781324755061364e+00  2.1317935206619745e+00  2.0854545658280945e+00  2.0391156109892736e+00  1.9927766561528155e+00  1.9464377013152376e+00  1.9000987464781876e+00  1.8537597916408883e+00  1.8074208368036997e+00  1.7610818819664635e+00  1.7147429271292551e+00  1.6684039722920316e+00  1.6220650174548281e+00  1.5757260626176512e+00  1.5293871077804921e+00  1.4830481529434281e+00  1.4367091981065008e+00  1.3903702432699012e+00  1.3440312884339145e+00  1.2976923335992163e+00  1.2513533787670683e+00  1.2050144239400609e+00  1.1586754691234438e+00  1.1123365143277237e+00  1.0659975595748734e+00  1.0196586049095986e+00  9.7331965042785229e-01  9.2698069633165592e-01  8.8064174306612075e-01  8.3430279160354848e-01  7.8796384412365927e-01  7.4162490542340986e-01  6.9528598587492296e-01  6.4894710652651610e-01  6.0260830641512331e-01  5.5626964744324892e-01  5.0993120457924468e-01  4.6359301583006157e-01  4.1725497420070684e-01  3.7091671372731755e-01  3.2457766943278510e-01  2.7823731423901038e-01  2.3189518886195046e-01  1.8555061437529510e-01  1.3920201342134647e-01  9.2844437632893087e-02  4.6461159959366102e-02  7.3265431076414054e-06  3.7080899138377528e+00  3.6616113828260164e+00  3.6146780070747222e+00  3.5683153602962827e+00  3.5218515925548237e+00  3.4755559731431855e+00  3.4292375556169064e+00  3.3829125130963296e+00  3.3365784566992889e+00  3.2902354140344978e+00  3.2438985690284556e+00  3.1975571816842758e+00  3.1512196561432329e+00  3.1048795794055373e+00  3.0585413572734850e+00  3.0122019044307535e+00  2.9658632652433794e+00  2.9195241121678674e+00  2.8731852759793028e+00  2.8268462510698638e+00  2.7805073360244674e+00  2.7341683588307419e+00  2.6878294161537646e+00  2.6414904547524514e+00  2.5951515033644696e+00  2.5488125467237746e+00  2.5024735928083857e+00  2.4561346375012936e+00  2.4097956828989457e+00  2.3634567279444121e+00  2.3171177731647665e+00  2.2707788182992559e+00  2.2244398634757023e+00  2.1781009086318601e+00  2.1317619537977963e+00  2.0854229989590616e+00  2.0390840441225557e+00  1.9927450892849925e+00  1.9464061344479355e+00  1.9000671796106408e+00  1.8537282247734546e+00  1.8073892699362142e+00  1.7610503150989945e+00  1.7147113602617701e+00  1.6683724054245461e+00  1.6220334505873126e+00  1.5756944957501071e+00  1.5293555409128405e+00  1.4830165860756592e+00  1.4366776312383056e+00  1.3903386764011623e+00  1.3439997215635622e+00  1.2976607667264204e+00  1.2513218118880638e+00  1.2049828570503089e+00  1.1586439022088655e+00  1.1123049473659807e+00  1.0659659925088256e+00  1.0196270376326362e+00  9.7328808269068878e-01  9.2694912763079629e-01  8.8061017227938099e-01  8.3427121642810220e-01  7.8793225970960112e-01  7.4159330230327303e-01  6.9525434625282490e-01  6.4891540074250098e-01  6.0257649182878925e-01  5.5623768112655803e-01  5.0989908155872321e-01  4.6356084729652558e-01  4.1722306826311240e-01  3.7088554550743813e-01  3.2454760101605062e-01  2.7820844449200360e-01  2.3186799801471317e-01  1.8552693350828978e-01  1.3918608405000435e-01  9.2846873565554613e-02  4.6495826989772504e-02  4.7112217495230497e-05  3.7089658136228012e+00  3.6613100592236796e+00  3.6145947617313126e+00  3.5682558343107886e+00  3.5217801901613028e+00  3.4755747137686051e+00  3.4291968664937618e+00  3.3829268221010991e+00  3.3365495321334708e+00  3.2902364017016690e+00  3.2438786843132044e+00  3.1975507085081309e+00  3.1512047063816109e+00  3.1048697678502561e+00  3.0585284962125163e+00  3.0121908059549201e+00  2.9658511661552365e+00  2.9195125695882109e+00  2.8731734284343102e+00  2.8268345677778890e+00  2.7804955653565231e+00  2.7341566339558274e+00  2.6878176675282264e+00  2.6414787182879760e+00  2.5951397607272080e+00  2.5488008071852364e+00  2.5024618517254540e+00  2.4561228971807503e+00  2.4097839422042493e+00  2.3634449874318109e+00  2.3171060325639576e+00  2.2707670777408588e+00  2.2244281228969864e+00  2.1780891680628138e+00  2.1317502132241635e+00  2.0854112583875906e+00  2.0390723035500660e+00  1.9927333487129828e+00  1.9463943938756969e+00  1.9000554390385114e+00  1.8537164842012737e+00  1.8073775293640602e+00  1.7610385745268213e+00  1.7146996196896138e+00  1.6683606648523790e+00  1.6220217100151633e+00  1.5756827551779438e+00  1.5293438003407271e+00  1.4830048455035230e+00  1.4366658906663106e+00  1.3903269358291854e+00  1.3439879809919926e+00  1.2976490261551576e+00  1.2513100713181138e+00  1.2049711164820351e+00  1.1586321616450805e+00  1.1122932068095364e+00  1.0659542519685270e+00  1.0196152971222949e+00  9.7327634224218784e-01  9.2693738730806341e-01  8.8059843222624379e-01  8.3425947698199221e-01  7.8792052168735038e-01  7.4158156775049644e-01  6.9524262013821558e-01  6.4890369471262555e-01  6.0256483077378353e-01  5.5622611284574153e-01  5.0988768289609721e-01  4.6354971294911851e-01  4.1721225755560065e-01  3.7087500110464561e-01  3.2453712525204975e-01  2.7819782605661547e-01  2.3185709210418040e-01  1.8551557199344199e-01  1.3917399012625553e-01  9.2832665639632855e-02  4.6496433430318826e-02  -1.5974870891902285e-04  3.6850541978874261e+00  3.6381209395739269e+00  3.5915500665220139e+00  3.5451108023666178e+00  3.4987674129002992e+00  3.4524653455073437e+00  3.4061467740861882e+00  3.3598192955324198e+00  3.3134779192482595e+00  3.2671398384401713e+00  3.2207991644977265e+00  3.1744606590931741e+00  3.1281211843835024e+00  3.0817824709841051e+00  3.0354433390820388e+00  2.9891044835898772e+00  2.9427654650032760e+00  2.8964265460754803e+00  2.8500875695963535e+00  2.8037486265249414e+00  2.7574096649330984e+00  2.7110707136373549e+00  2.6647317568477469e+00  2.6183928030031942e+00  2.5720538476364125e+00  2.5257148930617199e+00  2.4793759380880727e+00  2.4330369833170886e+00  2.3866980284461361e+00  2.3403590736250073e+00  2.2940201187797147e+00  2.2476811639462881e+00  2.2013422091071728e+00  2.1550032542708211e+00  2.1086642994331637e+00  2.0623253445961294e+00  2.0159863897588295e+00  1.9696474349216406e+00  1.9233084800844027e+00  1.8769695252472061e+00  1.8306305704099766e+00  1.7842916155727500e+00  1.7379526607355278e+00  1.6916137058983247e+00  1.6452747510610726e+00  1.5989357962238557e+00  1.5525968413865887e+00  1.5062578865493854e+00  1.4599189317120422e+00  1.4135799768747996e+00  1.3672410220372118e+00  1.3209020671997205e+00  1.2745631123613081e+00  1.2282241575224515e+00  1.1818852026804523e+00  1.1355462478341680e+00  1.0892072929743821e+00  1.0428683380878545e+00  9.9652938313500350e-01  9.5019042803932863e-01  9.0385147263066790e-01  8.5751251659479233e-01  8.1117355941952762e-01  7.6483460058692032e-01  7.1849564063236415e-01  6.7215668456950850e-01  6.2581775057439248e-01  5.7947888629179112e-01  5.3314019087379638e-01  4.8680182032228048e-01  4.4046392532310169e-01  3.9412645725165552e-01  3.4778893409864836e-01  3.0145055408733018e-01  2.5511091732164898e-01  2.0877049322549296e-01  1.6243035769721081e-01  1.1609220778456870e-01  6.9758796141508261e-02  2.3415526500528045e-02  3.6847719444911249e+00  3.6382194165205877e+00  3.5916429003728307e+00  3.5451317521953283e+00  3.4987945167334136e+00  3.4524313470656316e+00  3.4061242301699535e+00  3.3597821670051999e+00  3.3134495790401908e+00  3.2671079514598365e+00  3.2207699372424687e+00  3.1744302590548070e+00  3.1280915753746239e+00  3.0817524132292786e+00  3.0354135809091152e+00  2.9890745365116951e+00  2.9427356417434822e+00  2.8963966458981654e+00  2.8500577172621471e+00  2.8037187458986730e+00  2.7573798009258