<?xml version="1.0"?>
<VTKFile type="UnstructuredGrid"  version="0.1"  >
<UnstructuredGrid>
<Piece  NumberOfPoints="1369" NumberOfCells="2560">
<Points>
<DataArray  type="Float64"  NumberOfComponents="3"  format="ascii">0 0 0  0.75 0 0  1.5 0 0  2.25 0 0  3 0 0  3.75 0 0  4.5 0 0  5.25 0 0  6 0 0  6.75 0 0  7.5 0 0  8.25 0 0  9 0 0  9.75 0 0  10.5 0 0  11.25 0 0  12 0 0  12.75 0 0  13.5 0 0  14.25 0 0  15 0 0  15.75 0 0  16.5 0 0  17.25 0 0  18 0 0  18.75 0 0  19.5 0 0  20.25 0 0  21 0 0  21.75 0 0  22.5 0 0  23.25 0 0  24 0 0  24.75 0 0  25.5 0 0  26.25 0 0  27 0 0  27.75 0 0  28.5 0 0  29.25 0 0  30 0 0  30.75 0 0  31.5 0 0  32.25 0 0  33 0 0  33.75 0 0  34.5 0 0  35.25 0 0  36 0 0  36.75 0 0  37.5 0 0  38.25 0 0  39 0 0  39.75 0 0  40.5 0 0  41.25 0 0  42 0 0  42.75 0 0  43.5 0 0  44.25 0 0  45 0 0  45.75 0 0  46.5 0 0  47.25 0 0  48 0 0  48.75 0 0  49.5 0 0  50.25 0 0  51 0 0  51.75 0 0  52.5 0 0  53.25 0 0  54 0 0  54.75 0 0  55.5 0 0  56.25 0 0  57 0 0  57.75 0 0  58.5 0 0  59.25 0 0  60 0 0  0 0.5 0  0.75 0.5 0  1.5 0.5 0  2.25 0.5 0  3 0.5 0  3.75 0.5 0  4.5 0.5 0  5.25 0.5 0  6 0.5 0  6.75 0.5 0  7.5 0.5 0  8.25 0.5 0  9 0.5 0  9.75 0.5 0  10.5 0.5 0  11.25 0.5 0  12 0.5 0  12.75 0.5 0  13.5 0.5 0  14.25 0.5 0  15 0.5 0  15.75 0.5 0  16.5 0.5 0  17.25 0.5 0  18 0.5 0  18.75 0.5 0  19.5 0.5 0  20.25 0.5 0  21 0.5 0  21.75 0.5 0  22.5 0.5 0  23.25 0.5 0  24 0.5 0  24.75 0.5 0  25.5 0.5 0  26.25 0.5 0  27 0.5 0  27.75 0.5 0  28.5 0.5 0  29.25 0.5 0  30 0.5 0  30.75 0.5 0  31.5 0.5 0  32.25 0.5 0  33 0.5 0  33.75 0.5 0  34.5 0.5 0  35.25 0.5 0  36 0.5 0  36.75 0.5 0  37.5 0.5 0  38.25 0.5 0  39 0.5 0  39.75 0.5 0  40.5 0.5 0  41.25 0.5 0  42 0.5 0  42.75 0.5 0  43.5 0.5 0  44.25 0.5 0  45 0.5 0  45.75 0.5 0  46.5 0.5 0  47.25 0.5 0  48 0.5 0  48.75 0.5 0  49.5 0.5 0  50.25 0.5 0  51 0.5 0  51.75 0.5 0  52.5 0.5 0  53.25 0.5 0  54 0.5 0  54.75 0.5 0  55.5 0.5 0  56.25 0.5 0  57 0.5 0  57.75 0.5 0  58.5 0.5 0  59.25 0.5 0  60 0.5 0  0 1 0  0.75 1 0  1.5 1 0  2.25 1 0  3 1 0  3.75 1 0  4.5 1 0  5.25 1 0  6 1 0  6.75 1 0  7.5 1 0  8.25 1 0  9 1 0  9.75 1 0  10.5 1 0  11.25 1 0  12 1 0  12.75 1 0  13.5 1 0  14.25 1 0  15 1 0  15.75 1 0  16.5 1 0  17.25 1 0  18 1 0  18.75 1 0  19.5 1 0  20.25 1 0  21 1 0  21.75 1 0  22.5 1 0  23.25 1 0  24 1 0  24.75 1 0  25.5 1 0  26.25 1 0  27 1 0  27.75 1 0  28.5 1 0  29.25 1 0  30 1 0  30.75 1 0  31.5 1 0  32.25 1 0  33 1 0  33.75 1 0  34.5 1 0  35.25 1 0  36 1 0  36.75 1 0  37.5 1 0  38.25 1 0  39 1 0  39.75 1 0  40.5 1 0  41.25 1 0  42 1 0  42.75 1 0  43.5 1 0  44.25 1 0  45 1 0  45.75 1 0  46.5 1 0  47.25 1 0  48 1 0  48.75 1 0  49.5 1 0  50.25 1 0  51 1 0  51.75 1 0  52.5 1 0  53.25 1 0  54 1 0  54.75 1 0  55.5 1 0  56.25 1 0  57 1 0  57.75 1 0  58.5 1 0  59.25 1 0  60 1 0  0 1.5 0  0.75 1.5 0  1.5 1.5 0  2.25 1.5 0  3 1.5 0  3.75 1.5 0  4.5 1.5 0  5.25 1.5 0  6 1.5 0  6.75 1.5 0  7.5 1.5 0  8.25 1.5 0  9 1.5 0  9.75 1.5 0  10.5 1.5 0  11.25 1.5 0  12 1.5 0  12.75 1.5 0  13.5 1.5 0  14.25 1.5 0  15 1.5 0  15.75 1.5 0  16.5 1.5 0  17.25 1.5 0  18 1.5 0  18.75 1.5 0  19.5 1.5 0  20.25 1.5 0  21 1.5 0  21.75 1.5 0  22.5 1.5 0  23.25 1.5 0  24 1.5 0  24.75 1.5 0  25.5 1.5 0  26.25 1.5 0  27 1.5 0  27.75 1.5 0  28.5 1.5 0  29.25 1.5 0  30 1.5 0  30.75 1.5 0  31.5 1.5 0  32.25 1.5 0  33 1.5 0  33.75 1.5 0  34.5 1.5 0  35.25 1.5 0  36 1.5 0  36.75 1.5 0  37.5 1.5 0  38.25 1.5 0  39 1.5 0  39.75 1.5 0  40.5 1.5 0  41.25 1.5 0  42 1.5 0  42.75 1.5 0  43.5 1.5 0  44.25 1.5 0  45 1.5 0  45.75 1.5 0  46.5 1.5 0  47.25 1.5 0  48 1.5 0  48.75 1.5 0  49.5 1.5 0  50.25 1.5 0  51 1.5 0  51.75 1.5 0  52.5 1.5 0  53.25 1.5 0  54 1.5 0  54.75 1.5 0  55.5 1.5 0  56.25 1.5 0  57 1.5 0  57.75 1.5 0  58.5 1.5 0  59.25 1.5 0  60 1.5 0  0 2 0  0.75 2 0  1.5 2 0  2.25 2 0  3 2 0  3.75 2 0  4.5 2 0  5.25 2 0  6 2 0  6.75 2 0  7.5 2 0  8.25 2 0  9 2 0  9.75 2 0  10.5 2 0  11.25 2 0  12 2 0  12.75 2 0  13.5 2 0  14.25 2 0  15 2 0  15.75 2 0  16.5 2 0  17.25 2 0  18 2 0  18.75 2 0  19.5 2 0  20.25 2 0  21 2 0  21.75 2 0  22.5 2 0  23.25 2 0  24 2 0  24.75 2 0  25.5 2 0  26.25 2 0  27 2 0  27.75 2 0  28.5 2 0  29.25 2 0  30 2 0  30.75 2 0  31.5 2 0  32.25 2 0  33 2 0  33.75 2 0  34.5 2 0  35.25 2 0  36 2 0  36.75 2 0  37.5 2 0  38.25 2 0  39 2 0  39.75 2 0  40.5 2 0  41.25 2 0  42 2 0  42.75 2 0  43.5 2 0  44.25 2 0  45 2 0  45.75 2 0  46.5 2 0  47.25 2 0  48 2 0  48.75 2 0  49.5 2 0  50.25 2 0  51 2 0  51.75 2 0  52.5 2 0  53.25 2 0  54 2 0  54.75 2 0  55.5 2 0  56.25 2 0  57 2 0  57.75 2 0  58.5 2 0  59.25 2 0  60 2 0  0 2.5 0  0.75 2.5 0  1.5 2.5 0  2.25 2.5 0  3 2.5 0  3.75 2.5 0  4.5 2.5 0  5.25 2.5 0  6 2.5 0  6.75 2.5 0  7.5 2.5 0  8.25 2.5 0  9 2.5 0  9.75 2.5 0  10.5 2.5 0  11.25 2.5 0  12 2.5 0  12.75 2.5 0  13.5 2.5 0  14.25 2.5 0  15 2.5 0  15.75 2.5 0  16.5 2.5 0  17.25 2.5 0  18 2.5 0  18.75 2.5 0  19.5 2.5 0  20.25 2.5 0  21 2.5 0  21.75 2.5 0  22.5 2.5 0  23.25 2.5 0  24 2.5 0  24.75 2.5 0  25.5 2.5 0  26.25 2.5 0  27 2.5 0  27.75 2.5 0  28.5 2.5 0  29.25 2.5 0  30 2.5 0  30.75 2.5 0  31.5 2.5 0  32.25 2.5 0  33 2.5 0  33.75 2.5 0  34.5 2.5 0  35.25 2.5 0  36 2.5 0  36.75 2.5 0  37.5 2.5 0  38.25 2.5 0  39 2.5 0  39.75 2.5 0  40.5 2.5 0  41.25 2.5 0  42 2.5 0  42.75 2.5 0  43.5 2.5 0  44.25 2.5 0  45 2.5 0  45.75 2.5 0  46.5 2.5 0  47.25 2.5 0  48 2.5 0  48.75 2.5 0  49.5 2.5 0  50.25 2.5 0  51 2.5 0  51.75 2.5 0  52.5 2.5 0  53.25 2.5 0  54 2.5 0  54.75 2.5 0  55.5 2.5 0  56.25 2.5 0  57 2.5 0  57.75 2.5 0  58.5 2.5 0  59.25 2.5 0  60 2.5 0  0 3 0  0.75 3 0  1.5 3 0  2.25 3 0  3 3 0  3.75 3 0  4.5 3 0  5.25 3 0  6 3 0  6.75 3 0  7.5 3 0  8.25 3 0  9 3 0  9.75 3 0  10.5 3 0  11.25 3 0  12 3 0  12.75 3 0  13.5 3 0  14.25 3 0  15 3 0  15.75 3 0  16.5 3 0  17.25 3 0  18 3 0  18.75 3 0  19.5 3 0  20.25 3 0  21 3 0  21.75 3 0  22.5 3 0  23.25 3 0  24 3 0  24.75 3 0  25.5 3 0  26.25 3 0  27 3 0  27.75 3 0  28.5 3 0  29.25 3 0  30 3 0  30.75 3 0  31.5 3 0  32.25 3 0  33 3 0  33.75 3 0  34.5 3 0  35.25 3 0  36 3 0  36.75 3 0  37.5 3 0  38.25 3 0  39 3 0  39.75 3 0  40.5 3 0  41.25 3 0  42 3 0  42.75 3 0  43.5 3 0  44.25 3 0  45 3 0  45.75 3 0  46.5 3 0  47.25 3 0  48 3 0  48.75 3 0  49.5 3 0  50.25 3 0  51 3 0  51.75 3 0  52.5 3 0  53.25 3 0  54 3 0  54.75 3 0  55.5 3 0  56.25 3 0  57 3 0  57.75 3 0  58.5 3 0  59.25 3 0  60 3 0  0 3.5 0  0.75 3.5 0  1.5 3.5 0  2.25 3.5 0  3 3.5 0  3.75 3.5 0  4.5 3.5 0  5.25 3.5 0  6 3.5 0  6.75 3.5 0  7.5 3.5 0  8.25 3.5 0  9 3.5 0  9.75 3.5 0  10.5 3.5 0  11.25 3.5 0  12 3.5 0  12.75 3.5 0  13.5 3.5 0  14.25 3.5 0  15 3.5 0  15.75 3.5 0  16.5 3.5 0  17.25 3.5 0  18 3.5 0  18.75 3.5 0  19.5 3.5 0  20.25 3.5 0  21 3.5 0  21.75 3.5 0  22.5 3.5 0  23.25 3.5 0  24 3.5 0  24.75 3.5 0  25.5 3.5 0  26.25 3.5 0  27 3.5 0  27.75 3.5 0  28.5 3.5 0  29.25 3.5 0  30 3.5 0  30.75 3.5 0  31.5 3.5 0  32.25 3.5 0  33 3.5 0  33.75 3.5 0  34.5 3.5 0  35.25 3.5 0  36 3.5 0  36.75 3.5 0  37.5 3.5 0  38.25 3.5 0  39 3.5 0  39.75 3.5 0  40.5 3.5 0  41.25 3.5 0  42 3.5 0  42.75 3.5 0  43.5 3.5 0  44.25 3.5 0  45 3.5 0  45.75 3.5 0  46.5 3.5 0  47.25 3.5 0  48 3.5 0  48.75 3.5 0  49.5 3.5 0  50.25 3.5 0  51 3.5 0  51.75 3.5 0  52.5 3.5 0  53.25 3.5 0  54 3.5 0  54.75 3.5 0  55.5 3.5 0  56.25 3.5 0  57 3.5 0  57.75 3.5 0  58.5 3.5 0  59.25 3.5 0  60 3.5 0  0 4 0  0.75 4 0  1.5 4 0  2.25 4 0  3 4 0  3.75 4 0  4.5 4 0  5.25 4 0  6 4 0  6.75 4 0  7.5 4 0  8.25 4 0  9 4 0  9.75 4 0  10.5 4 0  11.25 4 0  12 4 0  12.75 4 0  13.5 4 0  14.25 4 0  15 4 0  15.75 4 0  16.5 4 0  17.25 4 0  18 4 0  18.75 4 0  19.5 4 0  20.25 4 0  21 4 0  21.75 4 0  22.5 4 0  23.25 4 0  24 4 0  24.75 4 0  25.5 4 0  26.25 4 0  27 4 0  27.75 4 0  28.5 4 0  29.25 4 0  30 4 0  30.75 4 0  31.5 4 0  32.25 4 0  33 4 0  33.75 4 0  34.5 4 0  35.25 4 0  36 4 0  36.75 4 0  37.5 4 0  38.25 4 0  39 4 0  39.75 4 0  40.5 4 0  41.25 4 0  42 4 0  42.75 4 0  43.5 4 0  44.25 4 0  45 4 0  45.75 4 0  46.5 4 0  47.25 4 0  48 4 0  48.75 4 0  49.5 4 0  50.25 4 0  51 4 0  51.75 4 0  52.5 4 0  53.25 4 0  54 4 0  54.75 4 0  55.5 4 0  56.25 4 0  57 4 0  57.75 4 0  58.5 4 0  59.25 4 0  60 4 0  0.375 0.25 0  1.125 0.25 0  1.875 0.25 0  2.625 0.25 0  3.375 0.25 0  4.125 0.25 0  4.875 0.25 0  5.625 0.25 0  6.375 0.25 0  7.125 0.25 0  7.875 0.25 0  8.625 0.25 0  9.375 0.25 0  10.125 0.25 0  10.875 0.25 0  11.625 0.25 0  12.375 0.25 0  13.125 0.25 0  13.875 0.25 0  14.625 0.25 0  15.375 0.25 0  16.125 0.25 0  16.875 0.25 0  17.625 0.25 0  18.375 0.25 0  19.125 0.25 0  19.875 0.25 0  20.625 0.25 0  21.375 0.25 0  22.125 0.25 0  22.875 0.25 0  23.625 0.25 0  24.375 0.25 0  25.125 0.25 0  25.875 0.25 0  26.625 0.25 0  27.375 0.25 0  28.125 0.25 0  28.875 0.25 0  29.625 0.25 0  30.375 0.25 0  31.125 0.25 0  31.875 0.25 0  32.625 0.25 0  33.375 0.25 0  34.125 0.25 0  34.875 0.25 0  35.625 0.25 0  36.375 0.25 0  37.125 0.25 0  37.875 0.25 0  38.625 0.25 0  39.375 0.25 0  40.125 0.25 0  40.875 0.25 0  41.625 0.25 0  42.375 0.25 0  43.125 0.25 0  43.875 0.25 0  44.625 0.25 0  45.375 0.25 0  46.125 0.25 0  46.875 0.25 0  47.625 0.25 0  48.375 0.25 0  49.125 0.25 0  49.875 0.25 0  50.625 0.25 0  51.375 0.25 0  52.125 0.25 0  52.875 0.25 0  53.625 0.25 0  54.375 0.25 0  55.125 0.25 0  55.875 0.25 0  56.625 0.25 0  57.375 0.25 0  58.125 0.25 0  58.875 0.25 0  59.625 0.25 0  0.375 0.75 0  1.125 0.75 0  1.875 0.75 0  2.625 0.75 0  3.375 0.75 0  4.125 0.75 0  4.875 0.75 0  5.625 0.75 0  6.375 0.75 0  7.125 0.75 0  7.875 0.75 0  8.625 0.75 0  9.375 0.75 0  10.125 0.75 0  10.875 0.75 0  11.625 0.75 0  12.375 0.75 0  13.125 0.75 0  13.875 0.75 0  14.625 0.75 0  15.375 0.75 0  16.125 0.75 0  16.875 0.75 0  17.625 0.75 0  18.375 0.75 0  19.125 0.75 0  19.875 0.75 0  20.625 0.75 0  21.375 0.75 0  22.125 0.75 0  22.875 0.75 0  23.625 0.75 0  24.375 0.75 0  25.125 0.75 0  25.875 0.75 0  26.625 0.75 0  27.375 0.75 0  28.125 0.75 0  28.875 0.75 0  29.625 0.75 0  30.375 0.75 0  31.125 0.75 0  31.875 0.75 0  32.625 0.75 0  33.375 0.75 0  34.125 0.75 0  34.875 0.75 0  35.625 0.75 0  36.375 0.75 0  37.125 0.75 0  37.875 0.75 0  38.625 0.75 0  39.375 0.75 0  40.125 0.75 0  40
[...]
<PointData  Scalars="f_8-1"> 
<DataArray  type="Float64"  Name="f_8-1"  format="ascii">1.0689166144519671e+01  1.0558601604184089e+01  1.0424478483640465e+01  1.0290900273496687e+01  1.0157243492356601e+01  1.0023601374186809e+01  9.8899584077903064e+00  9.7563160771422517e+00  9.6226739256500906e+00  9.4890318941789555e+00  9.3553899275704939e+00  9.2217479974442860e+00  9.0881060871147330e+00  8.9544641873581341e+00  8.8208222931169011e+00  8.6871804017227188e+00  8.5535385117689700e+00  8.4198966225424527e+00  8.2862547336758166e+00  8.1526128449888375e+00  8.0189709563894400e+00  7.8853290678337373e+00  7.7516871792991076e+00  7.6180452907751182e+00  7.4844034022561843e+00  7.3507615137398341e+00  7.2171196252247070e+00  7.0834777367102291e+00  6.9498358481960292e+00  6.8161939596819989e+00  6.6825520711680086e+00  6.5489101826540876e+00  6.4152682941401382e+00  6.2816264056262989e+00  6.1479845171122998e+00  6.0143426285985493e+00  5.8807007400843894e+00  5.7470588515708974e+00  5.6134169630563466e+00  5.4797750745434621e+00  5.3461331860280046e+00  5.2124912975164426e+00  5.0788494089989848e+00  4.9452075204901726e+00  4.8115656319685556e+00  4.6779237434649730e+00  4.5442818549351722e+00  4.4106399664402467e+00  4.2769980778949002e+00  4.1433561894104649e+00  4.0097143008352303e+00  3.8760724123488695e+00  3.7424305237088986e+00  3.6087886351445109e+00  3.4751467463256525e+00  3.3415048573579078e+00  3.2078629679121722e+00  3.0742210772862308e+00  2.9405791854491126e+00  2.8069372887980668e+00  2.6732953886545539e+00  2.5396534727394706e+00  2.4060115434080647e+00  2.2723695443900964e+00  2.1387274008535408e+00  2.0050847080341860e+00  1.8714406951387412e+00  1.7377933825537493e+00  1.6041401597318157e+00  1.4704776160987800e+00  1.3368060353679749e+00  1.2031289479102163e+00  1.0694560275606289e+00  9.3579093914311107e-01  8.0214849371685271e-01  6.6853405129862120e-01  5.3498956099669726e-01  4.0145640535051219e-01  2.6810403530135413e-01  1.3385238246854028e-01  2.3870874764120591e-03  1.0692621450815892e+01  1.0557946614029344e+01  1.0424504382719849e+01  1.0290827972804840e+01  1.0157188345306974e+01  1.0023544838561660e+01  9.8899024359075387e+00  9.7562601887627043e+00  9.6226180981727687e+00  9.4889760940486951e+00  9.3553341420428868e+00  9.2216922195117448e+00  9.0880503131592665e+00  8.9544084154604331e+00  8.8207665222802412e+00  8.6871246314270998e+00  8.5534827417471160e+00  8.4198408526579840e+00  8.2861989638596114e+00  8.1525570752066496e+00  8.0189151866238362e+00  7.8852732980765090e+00  7.7516314095458227e+00  7.6179895210239250e+00  7.4843476325059095e+00  7.3507057439900922e+00  7.2170638554751738e+00  7.0834219669608220e+00  6.9497800784466950e+00  6.8161381899326576e+00  6.6824963014187464e+00  6.5488544129047224e+00  6.4152125243909559e+00  6.2815706358768235e+00  6.1479287473632969e+00  6.0142868588488030e+00  5.8806449703358030e+00  5.7470030818205204e+00  5.6133611933086991e+00  5.4797193047917210e+00  5.3460774162823030e+00  5.2124355277619667e+00  5.0787936392570465e+00  4.9451517507306670e+00  4.8115098622331178e+00  4.6778679736973610e+00  4.5442260852092549e+00  4.4105841966622608e+00  4.2769423081784828e+00  4.1433004196265868e+00  4.0096585311146979e+00  3.8760166425872584e+00  3.7423747539288601e+00  3.6087328654983288e+00  3.4750909763216309e+00  3.3414490880754144e+00  3.2078071972573259e+00  3.0741653089549050e+00  2.9405234130791458e+00  2.8068815227427217e+00  2.6732396119543620e+00  2.5395977124768212e+00  2.4059557578565518e+00  2.2723138039403921e+00  2.1386716062930384e+00  2.0050290205909218e+00  1.8713848249747720e+00  1.7377375481600568e+00  1.6040834094886094e+00  1.4704202513361679e+00  1.3367463424245110e+00  1.2030697049791552e+00  1.0693959987867130e+00  9.3573550489902813e-01  8.0209045950210278e-01  6.6848717050322259e-01  5.3492729394465155e-01  4.0142481387111922e-01  2.6790886309551443e-01  1.3412679256377388e-01  -4.3865333003531532e-04  1.0692062508887371e+01  1.0558148290954962e+01  1.0424438038227869e+01  1.0290786779243062e+01  1.0157138710049507e+01  1.0023494581531823e+01  9.8898516039515272e+00  9.7562091917586287e+00  9.6225670355059769e+00  9.4889250081272021e+00  9.3552830475276778e+00  9.2216411216919258e+00  9.0879992140039736e+00  8.9543573156858880e+00  8.8207154222217419e+00  8.6870735312195144e+00  8.5534316414697624e+00  8.4197897523411562e+00  8.2861478635249295e+00  8.1525059748611888e+00  8.0188640862738705e+00  7.8852221977236328e+00  7.7515803091918798e+00  7.6179384206692040e+00  7.4842965321509327e+00  7.3506546436349396e+00  7.2170127551199457e+00  7.0833708666055868e+00  6.9497289780913727e+00  6.8160870895774615e+00  6.6824452010633140e+00  6.5488033125496941e+00  6.4151614240352774e+00  6.2815195355221531e+00  6.1478776470070162e+00  6.0142357584950350e+00  5.8805938699781883e+00  5.7469519814687482e+00  5.6133100929481712e+00  5.4796682044440725e+00  5.3460263159160402e+00  5.2123844274221343e+00  5.0787425388804710e+00  4.9451006504039112e+00  4.8114587618406679e+00  4.6778168733883909e+00  4.5441749847988184e+00  4.4105330963665672e+00  4.2768912077663011e+00  4.1432493193045561e+00  4.0096074307756071e+00  3.8759655420972297e+00  3.7423236538921230e+00  3.6086817644394249e+00  3.4750398771755511e+00  3.3413979854385567e+00  3.2077561003586976e+00  3.0741142023369648e+00  2.9404723214119564e+00  2.8068304063857079e+00  2.6731885318468827e+00  2.5395465710035396e+00  2.4059046976029430e+00  2.2722625824194536e+00  2.1386205316075411e+00  2.0049774842299315e+00  1.8713334669558090e+00  1.7376849900868252e+00  1.6040312202978508e+00  1.4703657371966186e+00  1.3366937804097161e+00  1.2030147940551144e+00  1.0693492417075061e+00  9.3568406214509847e-01  8.0205247602399710e-01  6.6843067925771105e-01  5.3488400964945815e-01  4.0129388762855761e-01  2.6778395406281746e-01  1.3377957410121460e-01  9.3880514205216996e-05  1.0692074188668123e+01  1.0558224150540108e+01  1.0424488077406560e+01  1.0290811895835670e+01  1.0157157075952256e+01  1.0023510040748814e+01  9.8898660306519286e+00  9.7562232157787339e+00  9.6225809009871330e+00  9.4889388073284842e+00  9.3552968172037207e+00  9.2216548774747622e+00  9.0880129629678752e+00  8.9543710612378877e+00  8.8207291660344556e+00  8.6870872741475420e+00  8.5534453839451512e+00  8.4198034945881091e+00  8.2861616056560763e+00  8.1525197169346857e+00  8.0188778283184536e+00  7.8852359397539198e+00  7.7515940512151236e+00  7.6179521626889075e+00  7.4843102741689780e+00  7.3506683856520540e+00  7.2170264971367475e+00  7.0833846086220493e+00  6.9497427201079294e+00  6.8161008315936407e+00  6.6824589430800012e+00  6.5488170545655047e+00  6.4151751660524523e+00  6.2815332775371600e+00  6.1478913890254248e+00  6.0142495005081793e+00  5.8806076119993822e+00  5.7469657234778149e+00  5.6133238349751906e+00  5.4796819464450097e+00  5.3460400579542080e+00  5.2123981694082229e+00  5.0787562809376112e+00  4.9451143923666665e+00  4.8114725039243931e+00  4.6778306153233871e+00  4.5441887269046877e+00  4.4105468382935991e+00  4.2769049498421481e+00  4.1432630613226236e+00  4.0096211726282247e+00  3.8759792845157284e+00  3.7423373949651038e+00  3.6086955080573788e+00  3.4750536160487462e+00  3.3414117320869239e+00  3.2077698336066955e+00  3.0741279559276915e+00  2.9404860407248434e+00  2.8068441748269608e+00  2.6732022147415488e+00  2.5395603627348833e+00  2.4059182600596136e+00  2.2722763275346578e+00  2.1386335786330912e+00  2.0049906433632598e+00  1.8713446692540667e+00  1.7376963528436129e+00  1.6040392413019706e+00  1.4703772791348801e+00  1.3367029369954373e+00  1.2030354110865171e+00  1.0693623266592045e+00  9.3571800985430054e-01  8.0206622808977834e-01  6.6848114807659753e-01  5.3486074086403312e-01  4.0132778911731704e-01  2.6760671710967215e-01  1.3389653142330515e-01  -3.6833125743026347e-05  1.0692070242387699e+01  1.0558253984862272e+01  1.0424510591246504e+01  1.0290826302151769e+01  1.0157168170650582e+01  1.0023519935711073e+01  9.8898754712469312e+00  9.7562324839201064e+00  9.6225901007200925e+00  9.4889479785658697e+00  9.3553059757368953e+00  9.2216640300366031e+00  9.0880221125968195e+00  8.9543802094000853e+00  8.8207383134475599e+00  8.6870964211801951e+00  8.5534545307825454e+00  8.4198126413273346e+00  8.2861707523452530e+00  8.1525288635991107e+00  8.0188869749703748e+00  7.8852450863997436e+00  7.7516031978578646e+00  7.6179613093301750e+00  7.4843194208094692e+00  7.3506775322922362e+00  7.2170356437766623e+00  7.0833937552620245e+00  6.9497518667475902e+00  6.8161099782337446e+00  6.6824680897193547e+00  6.5488262012060545e+00  6.4151843126910837e+00  6.2815424241787934e+00  6.1479005356623642e+00  6.0142586471523707e+00  5.8806167586325371e+00  5.7469748701275094e+00  5.6133329816005393e+00  5.4796910931055391e+00  5.3460492045648635e+00  5.2124073160880098e+00  5.0787654275239493e+00  4.9451235390754782e+00  4.8114816504785685e+00  4.6778397620628711e+00  4.5441978734379971e+00  4.4105559850267513e+00  4.2769140964348296e+00  4.1432722078921600e+00  4.0096303195538594e+00  3.8759884304484102e+00  3.7423465429698202e+00  3.6087046521318773e+00  3.4750627669291063e+00  3.3414208714093299e+00  3.2077789913933259e+00  3.0741370838176993e+00  2.9404952143069711e+00  2.8068532752671680e+00  2.6732114230207080e+00  2.5395693925186174e+00  2.4059275297234124e+00  2.2722851439764873e+00  2.1386428692125525e+00  2.0049987668774922e+00  1.8713537105574034e+00  1.7377028033682291e+00  1.6040483103864622e+00  1.4703821197965392e+00  1.3367158059531812e+00  1.2030398750339542e+00  1.0693827859387934e+00  9.3571820109998816e-01  8.0209998974410768e-01  6.6846738159684971e-01  5.3490678053074414e-01  4.0127191048937960e-01  2.6764405982097644e-01  1.3383767303690519e-01  2.0092757744288204e-05  1.0692074188668107e+01  1.0558224150540115e+01  1.0424488077406538e+01  1.0290811895835652e+01  1.0157157075952231e+01  1.0023510040748805e+01  9.8898660306519268e+00  9.7562232157787339e+00  9.6225809009871490e+00  9.4889388073284522e+00  9.3552968172037083e+00  9.2216548774747604e+00  9.0880129629678681e+00  8.9543710612378842e+00  8.8207291660344413e+00  8.6870872741475385e+00  8.5534453839451299e+00  8.4198034945881250e+00  8.2861616056560603e+00  8.1525197169346555e+00  8.0188778283184430e+00  7.8852359397539162e+00  7.7515940512151253e+00  7.6179521626889128e+00  7.4843102741689851e+00  7.3506683856520585e+00  7.2170264971367519e+00  7.0833846086220476e+00  6.9497427201079169e+00  6.8161008315936487e+00  6.6824589430800128e+00  6.5488170545655180e+00  6.4151751660524559e+00  6.2815332775371528e+00  6.1478913890254310e+00  6.0142495005081757e+00  5.8806076119993866e+00  5.7469657234778451e+00  5.6133238349752030e+00  5.4796819464450204e+00  5.3460400579541965e+00  5.2123981694082282e+00  5.0787562809376201e+00  4.9451143923666478e+00  4.8114725039244011e+00  4.6778306153233915e+00  4.5441887269047045e+00  4.4105468382936159e+00  4.2769049498421507e+00  4.1432630613226218e+00  4.0096211726282247e+00  3.8759792845157386e+00  3.7423373949650944e+00  3.6086955080573797e+00  3.4750536160487457e+00  3.3414117320869297e+00  3.2077698336066964e+00  3.0741279559276982e+00  2.9404860407248505e+00  2.8068441748269604e+00  2.6732022147415551e+00  2.5395603627348877e+00  2.4059182600596158e+00  2.2722763275346631e+00  2.1386335786330899e+00  2.0049906433632638e+00  1.8713446692540696e+00  1.7376963528436149e+00  1.6040392413019666e+00  1.4703772791348733e+00  1.3367029369954389e+00  1.2030354110865171e+00  1.0693623266592061e+00  9.3571800985429887e-01  8.0206622808977646e-01  6.6848114807659842e-01  5.3486074086403723e-01  4.0132778911731604e-01  2.6760671710967210e-01  1.3389653142330415e-01  -3.6833125743147473e-05  1.0692062508887380e+01  1.0558148290954943e+01  1.0424438038227853e+01  1.0290786779243049e+01  1.0157138710049484e+01  1.0023494581531812e+01  9.8898516039515361e+00  9.7562091917586162e+00  9.6225670355059805e+00  9.4889250081271879e+00  9.3552830475276672e+00  9.2216411216919170e+00  9.0879992140039807e+00  8.9543573156858915e+00  8.8207154222217490e+00  8.6870735312194967e+00  8.5534316414697464e+00  8.4197897523411491e+00  8.2861478635249117e+00  8.1525059748611817e+00  8.0188640862738634e+00  7.8852221977236301e+00  7.7515803091918745e+00  7.6179384206691916e+00  7.4842965321509549e+00  7.3506546436349423e+00  7.2170127551199466e+00  7.0833708666055717e+00  6.9497289780913665e+00  6.8160870895774641e+00  6.6824452010633237e+00  6.5488033125496967e+00  6.4151614240352695e+00  6.2815195355221451e+00  6.1478776470070189e+00  6.0142357584950403e+00  5.8805938699781999e+00  5.7469519814687731e+00  5.6133100929482005e+00  5.4796682044440921e+00  5.3460263159160437e+00  5.2123844274221360e+00  5.0787425388804754e+00  4.9451006504039157e+00  4.8114587618406723e+00  4.6778168733884051e+00  4.5441749847988344e+00  4.4105330963665814e+00  4.2768912077663082e+00  4.1432493193045428e+00  4.0096074307755920e+00  3.8759655420972314e+00  3.7423236538921238e+00  3.6086817644394222e+00  3.4750398771755489e+00  3.3413979854385567e+00  3.2077561003587056e+00  3.0741142023369745e+00  2.9404723214119697e+00  2.8068304063857070e+00  2.6731885318468835e+00  2.5395465710035396e+00  2.4059046976029475e+00  2.2722625824194616e+00  2.1386205316075477e+00  2.0049774842299346e+00  1.8713334669558144e+00  1.7376849900868208e+00  1.6040312202978459e+00  1.4703657371966112e+00  1.3366937804097145e+00  1.2030147940551130e+00  1.0693492417075057e+00  9.3568406214509636e-01  8.0205247602399743e-01  6.6843067925771049e-01  5.3488400964945571e-01  4.0129388762855805e-01  2.6778395406281780e-01  1.3377957410121366e-01  9.3880514205288825e-05  1.0692621450815887e+01  1.0557946614029310e+01  1.0424504382719819e+01  1.0290827972804824e+01  1.0157188345306983e+01  1.0023544838561666e+01  9.8899024359075032e+00  9.7562601887627007e+00  9.6226180981727563e+00  9.4889760940486880e+00  9.3553341420428602e+00  9.2216922195117697e+00  9.0880503131592860e+00  8.9544084154604366e+00  8.8207665222802571e+00  8.6871246314271140e+00  8.5534827417471160e+00  8.4198408526579804e+00  8.2861989638596079e+00  8.1525570752066159e+00  8.0189151866238060e+00  7.8852732980765037e+00  7.7516314095458130e+00  7.6179895210239295e+00  7.4843476325059024e+00  7.3507057439900745e+00  7.2170638554751685e+00  7.0834219669608158e+00  6.9497800784466834e+00  6.8161381899326479e+00  6.6824963014187544e+00  6.5488544129047277e+00  6.4152125243909621e+00  6.2815706358768182e+00  6.1479287473632960e+00  6.0142868588488163e+00  5.8806449703358306e+00  5.7470030818205533e+00  5.6133611933087142e+00  5.4797193047917414e+00  5.3460774162823261e+00  5.2124355277619658e+00  5.0787936392570581e+00  4.9451517507306777e+00  4.8115098622331400e+00  4.6778679736973743e+00  4.5442260852092637e+00  4.4105841966622767e+00  4.2769423081784863e+00  4.1433004196265877e+00  4.0096585311146979e+00  3.8760166425872651e+00  3.7423747539288681e+00  3.6087328654983324e+00  3.4750909763216389e+00  3.3414490880754100e+00  3.2078071972573294e+00  3.0741653089549068e+00  2.9405234130791564e+00  2.8068815227427319e+00  2.6732396119543660e+00  2.5395977124768248e+00  2.4059557578565607e+00  2.2723138039403956e+00  2.1386716062930446e+00  2.0050290205909245e+00  1.8713848249747658e+00  1.7377375481600525e+00  1.6040834094886081e+00  1.4704202513361622e+00  1.3367463424245074e+00  1.2030697049791512e+00  1.0693959987867134e+00  9.3573550489902990e-01  8.0209045950209024e-01  6.6848717050321949e-01  5.3492729394464722e-01  4.0142481387111806e-01  2.6790886309551348e-01  1.3412679256377333e-01  -4.3865333003510071e-04  1.0689166144519659e+01  1.0558601604184073e+01  1.0424478483640412e+01  1.0290900273496682e+01  1.0157243492356601e+01  1.0023601374186818e+01  9.8899584077902833e+00  9.7563160771422250e+00  9.6226739256501101e+00  9.4890318941789396e+00  9.3553899275704833e+00  9.2217479974442984e+00  9.0881060871147632e+00  8.9544641873581377e+00  8.8208222931169082e+00  8.6871804017227205e+00  8.5535385117689806e+00  8.4198966225424492e+00  8.2862547336758059e+00  8.1526128449887985e+00  8.0189709563894027e+00  7.8853290678337276e+00  7.7516871792990951e+00  7.6180452907751182e+00  7.4844034022561763e+00  7.3507615137398270e+00  7.2171196252246936e+00  7.0834777367102157e+00  6.9498358481960256e+00  6.8161939596819918e+00  6.6825520711680069e+00  6.5489101826541019e+00  6.4152682941401471e+00  6.2816264056262980e+00  6.1479845171122971e+00  6.0143426285985520e+00  5.8807007400844027e+00  5.7470588515709258e+00  5.6134169630563626e+00  5.4797750745434852e+00  5.3461331860280241e+00  5.2124912975164523e+00  5.0788494089989991e+00  4.9452075204901913e+00  4.8115656319685742e+00  4.6779237434649881e+00  4.5442818549351829e+00  4.4106399664402591e+00  4.2769980778948993e+00  4.1433561894104649e+00  4.0097143008352258e+00  3.8760724123488766e+00  3.7424305237089093e+00  3.6087886351445126e+00  3.4751467463256520e+00  3.3415048573579047e+00  3.2078629679121735e+00  3.0742210772862242e+00  2.9405791854491170e+00  2.8069372887980828e+00  2.6732953886545614e+00  2.5396534727394737e+00  2.4060115434080678e+00  2.2723695443901053e+00  2.1387274008535453e+00  2.0050847080341914e+00  1.8714406951387406e+00  1.7377933825537464e+00  1.6041401597318148e+00  1.4704776160987736e+00  1.3368060353679707e+00  1.2031289479102154e+00  1.0694560275606284e+00  9.3579093914310751e-01  8.0214849371684371e-01  6.6853405129861609e-01  5.3498956099669293e-01  4.0145640535051119e-01  2.6810403530135324e-01  1.3385238246853978e-01  2.3870874764118570e-03  1.0624942008035205e+01  1.0491159517695976e+01  1.0357485138917225e+01  1.0223840413115550e+01  1.0090195983121662e+01  9.9565531682111814e+00  9.8229107369107158e+00  9.6892685475265878e+00  9.5556264871432433e+00  9.4219845027217666e+00  9.2883425620223665e+00  9.1547006457691804e+00  9.0210587428074813e+00  8.8874168468722488e+00  8.7537749546013455e+00  8.6201330642016121e+00  8.4864911747511105e+00  8.3528492857733401e+00  8.2192073970313864e+00  8.0855655084051126e+00  7.9519236198360961e+00  7.8182817312950572e+00  7.6846398427678082e+00  7.5509979542473591e+00  7.4173560657302025e+00  7.2837141772147183e+00  7.1500722887000316e+00  7.0164304001857598e+00  6.8827885116716763e+00  6.7491466231576815e+00  6.6155047346437454e+00  6.4818628461297862e+00  6.3482209576159327e+00  6.2145790691019522e+00  6.0809371805881796e+00  5.9472952920740649e+00  5.8136534035604948e+00  5.6800115150460746e+00  5.5463696265329858e+00  5.4127277380178489e+00  5.2790858495058055e+00  5.1454439609891169e+00  5.0118020724791847e+00  4.8781601839593369e+00  4.7445182954533118e+00  4.6108764069274564e+00  4.4772345184275766e+00  4.3435926298908258e+00  4.2099507413972885e+00  4.0763088528409410e+00  3.9426669643409094e+00  3.8090250757444606e+00  3.6753831871713407e+00  3.5417412984627599e+00  3.4080994095499606e+00  3.2744575204184674e+00  3.1408156301789427e+00  3.0071737393089566e+00  2.8735318443409503e+00  2.7398899470622782e+00  2.6062480370249212e+00  2.4726061176908263e+00  2.3389641489648949e+00  2.2053220879190802e+00  2.0716796596401998e+00  1.9380363243440641e+00  1.8043905970100464e+00  1.6707402432545519e+00  1.5370819485341567e+00  1.4034143513959669e+00  1.2697391175396673e+00  1.1360642545007444e+00  1.0023959826133877e+00  8.6874348405757595e-01  7.3511660654076261e-01  6.0153533599149456e-01  4.6800429067159138e-01  3.3448977236365385e-01  2.0090553819137441e-01  6.6460404444874319e-02  1.0625068005741959e+01  1.0491248267931370e+01  1.0357618004541218e+01  1.0223968623349117e+01  1.0090325347087749e+01  9.9566824731931280e+00  9.8230400910351037e+00  9.6893979211097996e+00  9.5557558770278970e+00  9.4221139030633125e+00  9.2884719688260411e+00  9.1548300562848528e+00  9.0211881554328279e+00  8.8875462606205584e+00  8.7539043689493514e+00  8.6202624788482147e+00  8.4866205895532563e+00  8.3529787006494338e+00  8.2193368119463521e+00  8.0856949233377602e+00  7.95205303477