<?xml version="1.0"?>
<VTKFile type="UnstructuredGrid"  version="0.1"  >
<UnstructuredGrid>
<Piece  NumberOfPoints="1369" NumberOfCells="2560">
<Points>
<DataArray  type="Float64"  NumberOfComponents="3"  format="ascii">0 0 0  0.75 0 0  1.5 0 0  2.25 0 0  3 0 0  3.75 0 0  4.5 0 0  5.25 0 0  6 0 0  6.75 0 0  7.5 0 0  8.25 0 0  9 0 0  9.75 0 0  10.5 0 0  11.25 0 0  12 0 0  12.75 0 0  13.5 0 0  14.25 0 0  15 0 0  15.75 0 0  16.5 0 0  17.25 0 0  18 0 0  18.75 0 0  19.5 0 0  20.25 0 0  21 0 0  21.75 0 0  22.5 0 0  23.25 0 0  24 0 0  24.75 0 0  25.5 0 0  26.25 0 0  27 0 0  27.75 0 0  28.5 0 0  29.25 0 0  30 0 0  30.75 0 0  31.5 0 0  32.25 0 0  33 0 0  33.75 0 0  34.5 0 0  35.25 0 0  36 0 0  36.75 0 0  37.5 0 0  38.25 0 0  39 0 0  39.75 0 0  40.5 0 0  41.25 0 0  42 0 0  42.75 0 0  43.5 0 0  44.25 0 0  45 0 0  45.75 0 0  46.5 0 0  47.25 0 0  48 0 0  48.75 0 0  49.5 0 0  50.25 0 0  51 0 0  51.75 0 0  52.5 0 0  53.25 0 0  54 0 0  54.75 0 0  55.5 0 0  56.25 0 0  57 0 0  57.75 0 0  58.5 0 0  59.25 0 0  60 0 0  0 0.5 0  0.75 0.5 0  1.5 0.5 0  2.25 0.5 0  3 0.5 0  3.75 0.5 0  4.5 0.5 0  5.25 0.5 0  6 0.5 0  6.75 0.5 0  7.5 0.5 0  8.25 0.5 0  9 0.5 0  9.75 0.5 0  10.5 0.5 0  11.25 0.5 0  12 0.5 0  12.75 0.5 0  13.5 0.5 0  14.25 0.5 0  15 0.5 0  15.75 0.5 0  16.5 0.5 0  17.25 0.5 0  18 0.5 0  18.75 0.5 0  19.5 0.5 0  20.25 0.5 0  21 0.5 0  21.75 0.5 0  22.5 0.5 0  23.25 0.5 0  24 0.5 0  24.75 0.5 0  25.5 0.5 0  26.25 0.5 0  27 0.5 0  27.75 0.5 0  28.5 0.5 0  29.25 0.5 0  30 0.5 0  30.75 0.5 0  31.5 0.5 0  32.25 0.5 0  33 0.5 0  33.75 0.5 0  34.5 0.5 0  35.25 0.5 0  36 0.5 0  36.75 0.5 0  37.5 0.5 0  38.25 0.5 0  39 0.5 0  39.75 0.5 0  40.5 0.5 0  41.25 0.5 0  42 0.5 0  42.75 0.5 0  43.5 0.5 0  44.25 0.5 0  45 0.5 0  45.75 0.5 0  46.5 0.5 0  47.25 0.5 0  48 0.5 0  48.75 0.5 0  49.5 0.5 0  50.25 0.5 0  51 0.5 0  51.75 0.5 0  52.5 0.5 0  53.25 0.5 0  54 0.5 0  54.75 0.5 0  55.5 0.5 0  56.25 0.5 0  57 0.5 0  57.75 0.5 0  58.5 0.5 0  59.25 0.5 0  60 0.5 0  0 1 0  0.75 1 0  1.5 1 0  2.25 1 0  3 1 0  3.75 1 0  4.5 1 0  5.25 1 0  6 1 0  6.75 1 0  7.5 1 0  8.25 1 0  9 1 0  9.75 1 0  10.5 1 0  11.25 1 0  12 1 0  12.75 1 0  13.5 1 0  14.25 1 0  15 1 0  15.75 1 0  16.5 1 0  17.25 1 0  18 1 0  18.75 1 0  19.5 1 0  20.25 1 0  21 1 0  21.75 1 0  22.5 1 0  23.25 1 0  24 1 0  24.75 1 0  25.5 1 0  26.25 1 0  27 1 0  27.75 1 0  28.5 1 0  29.25 1 0  30 1 0  30.75 1 0  31.5 1 0  32.25 1 0  33 1 0  33.75 1 0  34.5 1 0  35.25 1 0  36 1 0  36.75 1 0  37.5 1 0  38.25 1 0  39 1 0  39.75 1 0  40.5 1 0  41.25 1 0  42 1 0  42.75 1 0  43.5 1 0  44.25 1 0  45 1 0  45.75 1 0  46.5 1 0  47.25 1 0  48 1 0  48.75 1 0  49.5 1 0  50.25 1 0  51 1 0  51.75 1 0  52.5 1 0  53.25 1 0  54 1 0  54.75 1 0  55.5 1 0  56.25 1 0  57 1 0  57.75 1 0  58.5 1 0  59.25 1 0  60 1 0  0 1.5 0  0.75 1.5 0  1.5 1.5 0  2.25 1.5 0  3 1.5 0  3.75 1.5 0  4.5 1.5 0  5.25 1.5 0  6 1.5 0  6.75 1.5 0  7.5 1.5 0  8.25 1.5 0  9 1.5 0  9.75 1.5 0  10.5 1.5 0  11.25 1.5 0  12 1.5 0  12.75 1.5 0  13.5 1.5 0  14.25 1.5 0  15 1.5 0  15.75 1.5 0  16.5 1.5 0  17.25 1.5 0  18 1.5 0  18.75 1.5 0  19.5 1.5 0  20.25 1.5 0  21 1.5 0  21.75 1.5 0  22.5 1.5 0  23.25 1.5 0  24 1.5 0  24.75 1.5 0  25.5 1.5 0  26.25 1.5 0  27 1.5 0  27.75 1.5 0  28.5 1.5 0  29.25 1.5 0  30 1.5 0  30.75 1.5 0  31.5 1.5 0  32.25 1.5 0  33 1.5 0  33.75 1.5 0  34.5 1.5 0  35.25 1.5 0  36 1.5 0  36.75 1.5 0  37.5 1.5 0  38.25 1.5 0  39 1.5 0  39.75 1.5 0  40.5 1.5 0  41.25 1.5 0  42 1.5 0  42.75 1.5 0  43.5 1.5 0  44.25 1.5 0  45 1.5 0  45.75 1.5 0  46.5 1.5 0  47.25 1.5 0  48 1.5 0  48.75 1.5 0  49.5 1.5 0  50.25 1.5 0  51 1.5 0  51.75 1.5 0  52.5 1.5 0  53.25 1.5 0  54 1.5 0  54.75 1.5 0  55.5 1.5 0  56.25 1.5 0  57 1.5 0  57.75 1.5 0  58.5 1.5 0  59.25 1.5 0  60 1.5 0  0 2 0  0.75 2 0  1.5 2 0  2.25 2 0  3 2 0  3.75 2 0  4.5 2 0  5.25 2 0  6 2 0  6.75 2 0  7.5 2 0  8.25 2 0  9 2 0  9.75 2 0  10.5 2 0  11.25 2 0  12 2 0  12.75 2 0  13.5 2 0  14.25 2 0  15 2 0  15.75 2 0  16.5 2 0  17.25 2 0  18 2 0  18.75 2 0  19.5 2 0  20.25 2 0  21 2 0  21.75 2 0  22.5 2 0  23.25 2 0  24 2 0  24.75 2 0  25.5 2 0  26.25 2 0  27 2 0  27.75 2 0  28.5 2 0  29.25 2 0  30 2 0  30.75 2 0  31.5 2 0  32.25 2 0  33 2 0  33.75 2 0  34.5 2 0  35.25 2 0  36 2 0  36.75 2 0  37.5 2 0  38.25 2 0  39 2 0  39.75 2 0  40.5 2 0  41.25 2 0  42 2 0  42.75 2 0  43.5 2 0  44.25 2 0  45 2 0  45.75 2 0  46.5 2 0  47.25 2 0  48 2 0  48.75 2 0  49.5 2 0  50.25 2 0  51 2 0  51.75 2 0  52.5 2 0  53.25 2 0  54 2 0  54.75 2 0  55.5 2 0  56.25 2 0  57 2 0  57.75 2 0  58.5 2 0  59.25 2 0  60 2 0  0 2.5 0  0.75 2.5 0  1.5 2.5 0  2.25 2.5 0  3 2.5 0  3.75 2.5 0  4.5 2.5 0  5.25 2.5 0  6 2.5 0  6.75 2.5 0  7.5 2.5 0  8.25 2.5 0  9 2.5 0  9.75 2.5 0  10.5 2.5 0  11.25 2.5 0  12 2.5 0  12.75 2.5 0  13.5 2.5 0  14.25 2.5 0  15 2.5 0  15.75 2.5 0  16.5 2.5 0  17.25 2.5 0  18 2.5 0  18.75 2.5 0  19.5 2.5 0  20.25 2.5 0  21 2.5 0  21.75 2.5 0  22.5 2.5 0  23.25 2.5 0  24 2.5 0  24.75 2.5 0  25.5 2.5 0  26.25 2.5 0  27 2.5 0  27.75 2.5 0  28.5 2.5 0  29.25 2.5 0  30 2.5 0  30.75 2.5 0  31.5 2.5 0  32.25 2.5 0  33 2.5 0  33.75 2.5 0  34.5 2.5 0  35.25 2.5 0  36 2.5 0  36.75 2.5 0  37.5 2.5 0  38.25 2.5 0  39 2.5 0  39.75 2.5 0  40.5 2.5 0  41.25 2.5 0  42 2.5 0  42.75 2.5 0  43.5 2.5 0  44.25 2.5 0  45 2.5 0  45.75 2.5 0  46.5 2.5 0  47.25 2.5 0  48 2.5 0  48.75 2.5 0  49.5 2.5 0  50.25 2.5 0  51 2.5 0  51.75 2.5 0  52.5 2.5 0  53.25 2.5 0  54 2.5 0  54.75 2.5 0  55.5 2.5 0  56.25 2.5 0  57 2.5 0  57.75 2.5 0  58.5 2.5 0  59.25 2.5 0  60 2.5 0  0 3 0  0.75 3 0  1.5 3 0  2.25 3 0  3 3 0  3.75 3 0  4.5 3 0  5.25 3 0  6 3 0  6.75 3 0  7.5 3 0  8.25 3 0  9 3 0  9.75 3 0  10.5 3 0  11.25 3 0  12 3 0  12.75 3 0  13.5 3 0  14.25 3 0  15 3 0  15.75 3 0  16.5 3 0  17.25 3 0  18 3 0  18.75 3 0  19.5 3 0  20.25 3 0  21 3 0  21.75 3 0  22.5 3 0  23.25 3 0  24 3 0  24.75 3 0  25.5 3 0  26.25 3 0  27 3 0  27.75 3 0  28.5 3 0  29.25 3 0  30 3 0  30.75 3 0  31.5 3 0  32.25 3 0  33 3 0  33.75 3 0  34.5 3 0  35.25 3 0  36 3 0  36.75 3 0  37.5 3 0  38.25 3 0  39 3 0  39.75 3 0  40.5 3 0  41.25 3 0  42 3 0  42.75 3 0  43.5 3 0  44.25 3 0  45 3 0  45.75 3 0  46.5 3 0  47.25 3 0  48 3 0  48.75 3 0  49.5 3 0  50.25 3 0  51 3 0  51.75 3 0  52.5 3 0  53.25 3 0  54 3 0  54.75 3 0  55.5 3 0  56.25 3 0  57 3 0  57.75 3 0  58.5 3 0  59.25 3 0  60 3 0  0 3.5 0  0.75 3.5 0  1.5 3.5 0  2.25 3.5 0  3 3.5 0  3.75 3.5 0  4.5 3.5 0  5.25 3.5 0  6 3.5 0  6.75 3.5 0  7.5 3.5 0  8.25 3.5 0  9 3.5 0  9.75 3.5 0  10.5 3.5 0  11.25 3.5 0  12 3.5 0  12.75 3.5 0  13.5 3.5 0  14.25 3.5 0  15 3.5 0  15.75 3.5 0  16.5 3.5 0  17.25 3.5 0  18 3.5 0  18.75 3.5 0  19.5 3.5 0  20.25 3.5 0  21 3.5 0  21.75 3.5 0  22.5 3.5 0  23.25 3.5 0  24 3.5 0  24.75 3.5 0  25.5 3.5 0  26.25 3.5 0  27 3.5 0  27.75 3.5 0  28.5 3.5 0  29.25 3.5 0  30 3.5 0  30.75 3.5 0  31.5 3.5 0  32.25 3.5 0  33 3.5 0  33.75 3.5 0  34.5 3.5 0  35.25 3.5 0  36 3.5 0  36.75 3.5 0  37.5 3.5 0  38.25 3.5 0  39 3.5 0  39.75 3.5 0  40.5 3.5 0  41.25 3.5 0  42 3.5 0  42.75 3.5 0  43.5 3.5 0  44.25 3.5 0  45 3.5 0  45.75 3.5 0  46.5 3.5 0  47.25 3.5 0  48 3.5 0  48.75 3.5 0  49.5 3.5 0  50.25 3.5 0  51 3.5 0  51.75 3.5 0  52.5 3.5 0  53.25 3.5 0  54 3.5 0  54.75 3.5 0  55.5 3.5 0  56.25 3.5 0  57 3.5 0  57.75 3.5 0  58.5 3.5 0  59.25 3.5 0  60 3.5 0  0 4 0  0.75 4 0  1.5 4 0  2.25 4 0  3 4 0  3.75 4 0  4.5 4 0  5.25 4 0  6 4 0  6.75 4 0  7.5 4 0  8.25 4 0  9 4 0  9.75 4 0  10.5 4 0  11.25 4 0  12 4 0  12.75 4 0  13.5 4 0  14.25 4 0  15 4 0  15.75 4 0  16.5 4 0  17.25 4 0  18 4 0  18.75 4 0  19.5 4 0  20.25 4 0  21 4 0  21.75 4 0  22.5 4 0  23.25 4 0  24 4 0  24.75 4 0  25.5 4 0  26.25 4 0  27 4 0  27.75 4 0  28.5 4 0  29.25 4 0  30 4 0  30.75 4 0  31.5 4 0  32.25 4 0  33 4 0  33.75 4 0  34.5 4 0  35.25 4 0  36 4 0  36.75 4 0  37.5 4 0  38.25 4 0  39 4 0  39.75 4 0  40.5 4 0  41.25 4 0  42 4 0  42.75 4 0  43.5 4 0  44.25 4 0  45 4 0  45.75 4 0  46.5 4 0  47.25 4 0  48 4 0  48.75 4 0  49.5 4 0  50.25 4 0  51 4 0  51.75 4 0  52.5 4 0  53.25 4 0  54 4 0  54.75 4 0  55.5 4 0  56.25 4 0  57 4 0  57.75 4 0  58.5 4 0  59.25 4 0  60 4 0  0.375 0.25 0  1.125 0.25 0  1.875 0.25 0  2.625 0.25 0  3.375 0.25 0  4.125 0.25 0  4.875 0.25 0  5.625 0.25 0  6.375 0.25 0  7.125 0.25 0  7.875 0.25 0  8.625 0.25 0  9.375 0.25 0  10.125 0.25 0  10.875 0.25 0  11.625 0.25 0  12.375 0.25 0  13.125 0.25 0  13.875 0.25 0  14.625 0.25 0  15.375 0.25 0  16.125 0.25 0  16.875 0.25 0  17.625 0.25 0  18.375 0.25 0  19.125 0.25 0  19.875 0.25 0  20.625 0.25 0  21.375 0.25 0  22.125 0.25 0  22.875 0.25 0  23.625 0.25 0  24.375 0.25 0  25.125 0.25 0  25.875 0.25 0  26.625 0.25 0  27.375 0.25 0  28.125 0.25 0  28.875 0.25 0  29.625 0.25 0  30.375 0.25 0  31.125 0.25 0  31.875 0.25 0  32.625 0.25 0  33.375 0.25 0  34.125 0.25 0  34.875 0.25 0  35.625 0.25 0  36.375 0.25 0  37.125 0.25 0  37.875 0.25 0  38.625 0.25 0  39.375 0.25 0  40.125 0.25 0  40.875 0.25 0  41.625 0.25 0  42.375 0.25 0  43.125 0.25 0  43.875 0.25 0  44.625 0.25 0  45.375 0.25 0  46.125 0.25 0  46.875 0.25 0  47.625 0.25 0  48.375 0.25 0  49.125 0.25 0  49.875 0.25 0  50.625 0.25 0  51.375 0.25 0  52.125 0.25 0  52.875 0.25 0  53.625 0.25 0  54.375 0.25 0  55.125 0.25 0  55.875 0.25 0  56.625 0.25 0  57.375 0.25 0  58.125 0.25 0  58.875 0.25 0  59.625 0.25 0  0.375 0.75 0  1.125 0.75 0  1.875 0.75 0  2.625 0.75 0  3.375 0.75 0  4.125 0.75 0  4.875 0.75 0  5.625 0.75 0  6.375 0.75 0  7.125 0.75 0  7.875 0.75 0  8.625 0.75 0  9.375 0.75 0  10.125 0.75 0  10.875 0.75 0  11.625 0.75 0  12.375 0.75 0  13.125 0.75 0  13.875 0.75 0  14.625 0.75 0  15.375 0.75 0  16.125 0.75 0  16.875 0.75 0  17.625 0.75 0  18.375 0.75 0  19.125 0.75 0  19.875 0.75 0  20.625 0.75 0  21.375 0.75 0  22.125 0.75 0  22.875 0.75 0  23.625 0.75 0  24.375 0.75 0  25.125 0.75 0  25.875 0.75 0  26.625 0.75 0  27.375 0.75 0  28.125 0.75 0  28.875 0.75 0  29.625 0.75 0  30.375 0.75 0  31.125 0.75 0  31.875 0.75 0  32.625 0.75 0  33.375 0.75 0  34.125 0.75 0  34.875 0.75 0  35.625 0.75 0  36.375 0.75 0  37.125 0.75 0  37.875 0.75 0  38.625 0.75 0  39.375 0.75 0  40.125 0.75 0  40
[...]
<PointData  Scalars="f_8-1"> 
<DataArray  type="Float64"  Name="f_8-1"  format="ascii">-1.5905418099553007e-03  -2.8889690314479432e-04  -2.2366358221072736e-04  -1.9329751580004671e-04  -1.8510287698835724e-04  -1.8429117024457668e-04  -1.8687017913455534e-04  -1.9104153346178801e-04  -1.9544348448960483e-04  -1.9928692367948491e-04  -2.0240415141500087e-04  -2.0494153942517937e-04  -2.0710948539613060e-04  -2.0907191491530543e-04  -2.1093105891344723e-04  -2.1274145512683147e-04  -2.1452999977020351e-04  -2.1630882109568799e-04  -2.1808338826254366e-04  -2.1985598960445562e-04  -2.2162769077676330e-04  -2.2339893093103078e-04  -2.2516994786225483e-04  -2.2694083847620152e-04  -2.2871166753284054e-04  -2.3048245906913327e-04  -2.3225323330328370e-04  -2.3402399610077397e-04  -2.3579475415809421e-04  -2.3756550869892426e-04  -2.3933626201527380e-04  -2.4110701423190256e-04  -2.4287776613339052e-04  -2.4464851769920326e-04  -2.4641926919133193e-04  -2.4819002057323042e-04  -2.4996077194074209e-04  -2.5173152324723861e-04  -2.5350227462132201e-04  -2.5527302585231257e-04  -2.5704377732154972e-04  -2.5881452830333847e-04  -2.6058528026200368e-04  -2.6235603028238976e-04  -2.6412678413689441e-04  -2.6589753043964177e-04  -2.6766829153401485e-04  -2.6943902376016794e-04  -2.7120981202940093e-04  -2.7298049203537954e-04  -2.7475137989444592e-04  -2.7652187084660019e-04  -2.7829311456253647e-04  -2.8006293905805877e-04  -2.8183541867900057e-04  -2.8360296381755868e-04  -2.8537959901337573e-04  -2.8713961425256006e-04  -2.8892970859287448e-04  -2.9066584306908992e-04  -2.9249762571424942e-04  -2.9416172478660528e-04  -2.9611560161988028e-04  -2.9757603903761139e-04  -2.9986111861756164e-04  -3.0079247065929184e-04  -3.0387154328729345e-04  -3.0355551737526617e-04  -3.0812045204331191e-04  -3.0516923779337060e-04  -3.1152697057024452e-04  -3.0581839328791668e-04  -3.1732344467160021e-04  -3.2651054345848277e-04  -3.4641446235032704e-04  -3.8826393805320333e-04  -3.1755040437406857e-04  -4.7214077160634898e-04  8.8816362610744299e-05  -1.0926283350169103e-03  1.4593216518156583e-03  -7.3659825573003626e-06  -3.1292113445440385e-04  -2.1991846833558084e-04  -1.9908355285400321e-04  -1.9306418407222565e-04  -1.9308666900512441e-04  -1.9598424622844869e-04  -2.0017687741519751e-04  -2.0439402435479601e-04  -2.0798888552884479e-04  -2.1089350129136194e-04  -2.1328659177667801e-04  -2.1536872776378808e-04  -2.1728484812811626e-04  -2.1912038045915949e-04  -2.2091930359059242e-04  -2.2270234592415027e-04  -2.2447857441193445e-04  -2.2625189421802887e-04  -2.2802389628888306e-04  -2.2979529728730643e-04  -2.3156638730751432e-04  -2.3333732611027064e-04  -2.3510817608328170e-04  -2.3687898384002664e-04  -2.3864976382559288e-04  -2.4042053220917376e-04  -2.4219129161963062e-04  -2.4396204810248905e-04  -2.4573280162399984e-04  -2.4750355453078429e-04  -2.4927430642567803e-04  -2.5104505823145853e-04  -2.5281580969495820e-04  -2.5458656115997071e-04  -2.5635731252050494e-04  -2.5812806384659191e-04  -2.5989881522373823e-04  -2.6166956643694180e-04  -2.6344031797097733e-04  -2.6521106883940358e-04  -2.6698182099716853e-04  -2.6875257066416515e-04  -2.7052332511924625e-04  -2.7229407044172463e-04  -2.7406483306704240e-04  -2.7583556313444640e-04  -2.7760635393271404e-04  -2.7937703243577269e-04  -2.8114791660428757e-04  -2.8291842783462418e-04  -2.8468960776851344e-04  -2.8645960252223412e-04  -2.8823167045879255e-04  -2.9000016023129069e-04  -2.9177473211873132e-04  -2.9353912296654422e-04  -2.9532026087145417e-04  -2.9707431666553433e-04  -2.9887132925741401e-04  -3.0060143007597619e-04  -3.0243370031061360e-04  -3.0411281179601994e-04  -3.0601723253849747e-04  -3.0759596975977479e-04  -3.0963322075993341e-04  -3.1102347889500450e-04  -3.1322190870244757e-04  -3.1422701872416164e-04  -3.1617544648630922e-04  -3.1666529966795521e-04  -3.1812422148069168e-04  -3.2472978429625983e-04  -3.3548715015324312e-04  -3.6337875855049681e-04  -3.5880986289978301e-04  -3.7962145900134427e-04  -3.0112661272825277e-04  -2.4131804411851542e-04  -2.9200194262003347e-04  -2.9670591067690940e-04  -1.1817832987929114e-05  -1.6898570996193974e-04  -1.8553108069550663e-04  -1.7997584278079060e-04  -1.7792337372123036e-04  -1.7856586230025743e-04  -1.8108215444481314e-04  -1.8463578234517109e-04  -1.8839414395445007e-04  -1.9182056221925785e-04  -1.9474928535317436e-04  -1.9724026375228062e-04  -1.9942323950464014e-04  -2.0141629153950022e-04  -2.0330212014967600e-04  -2.0513095133308564e-04  -2.0693064618262639e-04  -2.0871576432264361e-04  -2.1049367126719075e-04  -2.1226800776889869e-04  -2.1404057479158982e-04  -2.1581225232941215e-04  -2.1758348234010241e-04  -2.1935448154743742e-04  -2.2112536317580130e-04  -2.2289618243940770e-04  -2.2466696999073191e-04  -2.2643774016303754e-04  -2.2820850168248658e-04  -2.2997925826754090e-04  -2.3175001248890880e-04  -2.3352076528121465e-04  -2.3529151743505178e-04  -2.3706226915027747e-04  -2.3883302072779961e-04  -2.4060377211395671e-04  -2.4237452357788703e-04  -2.4414527475567034e-04  -2.4591602640950452e-04  -2.4768677709196689e-04  -2.4945752963388587e-04  -2.5122827857067178e-04  -2.5299903442891161e-04  -2.5476977706950641e-04  -2.5654054479035029e-04  -2.5831126527685338e-04  -2.6008207398081227e-04  -2.6185271935213019e-04  -2.6362366432973461e-04  -2.6539406528134079e-04  -2.6716544338781716e-04  -2.6893508706465164e-04  -2.7070777056636302e-04  -2.7247519981124833e-04  -2.7425157779266228e-04  -2.7601295997855776e-04  -2.7779904656224664e-04  -2.7954519029440889e-04  -2.8135468627938742e-04  -2.8306580055803581e-04  -2.8492659354643316e-04  -2.8656476475068151e-04  -2.8852757388802072e-04  -2.9002753288430628e-04  -2.9217623674613501e-04  -2.9343374312968350e-04  -2.9588818157242003e-04  -2.9675162133715316e-04  -2.9959744605266960e-04  -2.9999593327640771e-04  -3.0341784103063202e-04  -3.0507149460673395e-04  -3.1286803745446070e-04  -3.2257996679238777e-04  -3.3477774437949660e-04  -3.3422173503752862e-04  -3.2257588106721270e-04  -2.8413311075710303e-04  -2.0770657134374420e-04  -2.3976048180581676e-04  7.9129519957630345e-05  -7.8141293184501355e-06  -9.8512874881048570e-05  -1.3910416953156709e-04  -1.4847143759605239e-04  -1.5029728904098513e-04  -1.5159404648832579e-04  -1.5375320286209804e-04  -1.5674988867193143e-04  -1.6017276104933698e-04  -1.6353082292429495e-04  -1.6653763161486151e-04  -1.6914785981070297e-04  -1.7143727724443198e-04  -1.7350742144043349e-04  -1.7544260222747724e-04  -1.7730056262066333e-04  -1.7911645081280673e-04  -1.8091021897188964e-04  -1.8269260129824127e-04  -1.8446921912967910e-04  -1.8624293053791618e-04  -1.8801518479254458e-04  -1.8978670254334980e-04  -1.9155784851098825e-04  -1.9332880370910663e-04  -1.9509966146094703e-04  -1.9687046830779047e-04  -1.9864124892611941e-04  -2.0041201561238990e-04  -2.0218277510489587e-04  -2.0395353073125329e-04  -2.0572428434846495e-04  -2.0749503687644209e-04  -2.0926578885455404e-04  -2.1103654048476513e-04  -2.1280729203809236e-04  -2.1457804334021858e-04  -2.1634879490957360e-04  -2.1811954584927216e-04  -2.1989029794795226e-04  -2.2166104774595148e-04  -2.2343180198533967e-04  -2.2520254768702502e-04  -2.2697330966557893e-04  -2.2874404084250800e-04  -2.3051482986947565e-04  -2.3228551109290396e-04  -2.3405639149897808e-04  -2.3582690732308530e-04  -2.3759808401990185e-04  -2.3936807547603390e-04  -2.4114016929822427e-04  -2.4290857910425897e-04  -2.4468336510286498e-04  -2.4644726606937569e-04  -2.4822949777204590e-04  -2.4998132786091624e-04  -2.5178285399387630e-04  -2.5350447533872513e-04  -2.5535272112406349e-04  -2.5700374266071678e-04  -2.5895787155272087e-04  -2.6045435015746338e-04  -2.6263391452655980e-04  -2.6381344172770525e-04  -2.6644148227592326e-04  -2.6702819787358735e-04  -2.7047508417749148e-04  -2.7018384174800551e-04  -2.7510197266907330e-04  -2.7457406989123709e-04  -2.8282105335598369e-04  -2.8595966013279518e-04  -2.9836958303994460e-04  -3.0350616463269858e-04  -2.9425579462928787e-04  -2.8880177904416424e-04  -2.1788010940444687e-04  -2.3322591119637995e-04  -6.7184513344798215e-05  -9.6848765656587819e-05  -6.4948757295713324e-08  -8.4322801038147160e-05  -1.2837916764456612e-04  -1.4268444612797424e-04  -1.4624584534482317e-04  -1.4792738856137807e-04  -1.5007861870351241e-04  -1.5296508142255535e-04  -1.5627802119414077e-04  -1.5958049046810538e-04  -1.6258347102104243e-04  -1.6521427341367452e-04  -1.6752856474637335e-04  -1.6961901207693351e-04  -1.7156809620892614e-04  -1.7343457539905282e-04  -1.7525532716707631e-04  -1.7705172693833809e-04  -1.7883548986069958e-04  -1.8061281191518891e-04  -1.8238688008916532e-04  -1.8415931246365167e-04  -1.8593092009120229e-04  -1.8770211093301496e-04  -1.8947308912375333e-04  -1.9124395844563662e-04  -1.9301477134973404e-04  -1.9478555503841600e-04  -1.9655632336707015e-04  -1.9832708369388774e-04  -2.0009783977280700e-04  -2.0186859361972183e-04  -2.0363934628576187e-04  -2.0541009830384231e-04  -2.0718085001972443e-04  -2.0895160148025392e-04  -2.1072235301237353e-04  -2.1249310416725537e-04  -2.1426385592123411e-04  -2.1603460644926099e-04  -2.1780535929922289e-04  -2.1957610765000929e-04  -2.2134686463457109e-04  -2.2311760515298078e-04  -2.2488837683776446e-04  -2.2665908998420611e-04  -2.2842991220274120e-04  -2.3020053294119807e-04  -2.3197152253702142e-04  -2.3374184343817188e-04  -2.3551336446583619e-04  -2.3728275536671567e-04  -2.3905588494412290e-04  -2.4082253379795334e-04  -2.4260027944863054e-04  -2.4435928430840596e-04  -2.4614952830351804e-04  -2.4788847412302332e-04  -2.4971053767747290e-04  -2.5140006884199020e-04  -2.5329818785159572e-04  -2.5487360562741234e-04  -2.5694215399759996e-04  -2.5827149527856232e-04  -2.6069563268751872e-04  -2.6153816053627054e-04  -2.6464332312479239e-04  -2.6466213557359319e-04  -2.6899658707968361e-04  -2.6817855201732215e-04  -2.7502689489230202e-04  -2.7528913591824775e-04  -2.8712893085557501e-04  -2.9075390553322814e-04  -2.9832802720149761e-04  -2.9278276952292856e-04  -2.6278343834509822e-04  -2.4957639227750280e-04  -1.5840565891025502e-04  -1.4904928049441066e-04  5.5027333493043158e-05  -7.8141293261860365e-06  -9.8512874880614062e-05  -1.3910416953173652e-04  -1.4847143759280160e-04  -1.5029728904741177e-04  -1.5159404648051495e-04  -1.5375320286407400e-04  -1.5674988867054462e-04  -1.6017276105376226e-04  -1.6353082292605328e-04  -1.6653763161289073e-04  -1.6914785980956095e-04  -1.7143727724139185e-04  -1.7350742143550714e-04  -1.7544260222845175e-04  -1.7730056262188962e-04  -1.7911645081728606e-04  -1.8091021896880343e-04  -1.8269260130011230e-04  -1.8446921913313903e-04  -1.8624293053578269e-04  -1.8801518479825879e-04  -1.8978670253968314e-04  -1.9155784850346844e-04  -1.9332880370729030e-04  -1.9509966145974636e-04  -1.9687046830971469e-04  -1.9864124892773733e-04  -2.0041201561178524e-04  -2.0218277510204071e-04  -2.0395353072995496e-04  -2.0572428434616146e-04  -2.0749503687800757e-04  -2.0926578885509687e-04  -2.1103654048855154e-04  -2.1280729203641526e-04  -2.1457804333951553e-04  -2.1634879491400330e-04  -2.1811954584334087e-04  -2.1989029794982333e-04  -2.2166104774280123e-04  -2.2343180199113765e-04  -2.2520254768793895e-04  -2.2697330966308551e-04  -2.2874404084346757e-04  -2.3051482986910580e-04  -2.3228551109716835e-04  -2.3405639149798752e-04  -2.3582690732286895e-04  -2.3759808401688936e-04  -2.3936807547868773e-04  -2.4114016929934978e-04  -2.4290857910249720e-04  -2.4468336510352981e-04  -2.4644726606982693e-04  -2.4822949777318957e-04  -2.4998132785816426e-04  -2.5178285399583941e-04  -2.5350447533618176e-04  -2.5535272112290377e-04  -2.5700374266109094e-04  -2.5895787155491324e-04  -2.6045435015793132e-04  -2.6263391452656604e-04  -2.6381344172857294e-04  -2.6644148227543792e-04  -2.6702819787501102e-04  -2.7047508417381023e-04  -2.7018384175032587e-04  -2.7510197267357507e-04  -2.7457406988960667e-04  -2.8282105335268392e-04  -2.8595966013447911e-04  -2.9836958303596130e-04  -3.0350616463394248e-04  -2.9425579463244800e-04  -2.8880177905056499e-04  -2.1788010940648536e-04  -2.3322591119944496e-04  -6.7184513343430046e-05  -9.6848765658488358e-05  -1.1817832974234854e-05  -1.6898570996447029e-04  -1.8553108068609787e-04  -1.7997584278430371e-04  -1.7792337372766557e-04  -1.7856586229504702e-04  -1.8108215444402978e-04  -1.8463578235108018e-04  -1.8839414395176797e-04  -1.9182056222262299e-04  -1.9474928534921748e-04  -1.9724026374725933e-04  -1.9942323950112895e-04  -2.0141629153384570e-04  -2.0330212014457220e-04  -2.0513095133312681e-04  -2.0693064618345050e-04  -2.0871576432378088e-04  -2.1049367126951823e-04  -2.1226800777589817e-04  -2.1404057478985173e-04  -2.1581225233698324e-04  -2.1758348233174489e-04  -2.1935448154298816e-04  -2.2112536317558235e-04  -2.2289618243469483e-04  -2.2466696998498000e-04  -2.2643774016369386e-04  -2.2820850167892782e-04  -2.2997925826392744e-04  -2.3175001248685977e-04  -2.3352076528140143e-04  -2.3529151743739116e-04  -2.3706226915252277e-04  -2.3883302073015691e-04  -2.4060377211297782e-04  -2.4237452357883351e-04  -2.4414527475562458e-04  -2.4591602640802837e-04  -2.4768677709008195e-04  -2.4945752963064551e-04  -2.5122827857385050e-04  -2.5299903443195166e-04  -2.5476977707029782e-04  -2.5654054479119711e-04  -2.5831126527291822e-04  -2.6008207398306503e-04  -2.6185271935234633e-04  -2.6362366433160578e-04  -2.6539406527926204e-04  -2.6716544338916380e-04  -2.6893508706538738e-04  -2.7070777056724307e-04  -2.7247519981127337e-04  -2.7425157779350254e-04  -2.7601295997496515e-04  -2.7779904655795255e-04  -2.7954519029409040e-04  -2.8135468627612527e-04  -2.8306580055820088e-04  -2.8492659354932499e-04  -2.8656476475270680e-04  -2.8852757388508053e-04  -2.9002753288516492e-04  -2.9217623674610531e-04  -2.9343374313393997e-04  -2.9588818157388181e-04  -2.9675162133342632e-04  -2.9959744605694347e-04  -2.9999593327752601e-04  -3.0341784103297709e-04  -3.0507149460551889e-04  -3.1286803745177622e-04  -3.2257996678885880e-04  -3.3477774437850509e-04  -3.3422173503789090e-04  -3.2257588106909921e-04  -2.8413311074864539e-04  -2.0770657134853122e-04  -2.3976048180446722e-04  7.9129519956233513e-05  -7.3659825607363991e-06  -3.1292113444603522e-04  -2.1991846831546596e-04  -1.9908355286080869e-04  -1.9306418408270129e-04  -1.9308666899704505e-04  -1.9598424623123610e-04  -2.0017687741843702e-04  -2.0439402434586251e-04  -2.0798888553600183e-04  -2.1089350128924712e-04  -2.1328659176852731e-04  -2.1536872775948239e-04  -2.1728484812885422e-04  -2.1912038045324216e-04  -2.2091930359176065e-04  -2.2270234592459531e-04  -2.2447857441930958e-04  -2.2625189421972508e-04  -2.2802389629883520e-04  -2.2979529728624223e-04  -2.3156638731954679e-04  -2.3333732610424438e-04  -2.3510817608019495e-04  -2.3687898383726379e-04  -2.3864976381539349e-04  -2.4042053220455338e-04  -2.4219129161908560e-04  -2.4396204809932497e-04  -2.4573280162169711e-04  -2.4750355452761566e-04  -2.4927430642684615e-04  -2.5104505823802706e-04  -2.5281580969834194e-04  -2.5458656115865687e-04  -2.5635731252174289e-04  -2.5812806384442128e-04  -2.5989881522757121e-04  -2.6166956643416912e-04  -2.6344031796067774e-04  -2.6521106883595398e-04  -2.6698182100099181e-04  -2.6875257066541665e-04  -2.7052332512436623e-04  -2.7229407044392659e-04  -2.7406483306013105e-04  -2.7583556313569865e-04  -2.7760635393904909e-04  -2.7937703243516933e-04  -2.8114791660720581e-04  -2.8291842783643241e-04  -2.8468960776833883e-04  -2.8645960252757864e-04  -2.8823167045789321e-04  -2.9000016023059762e-04  -2.9177473211488972e-04  -2.9353912296268793e-04  -2.9532026086835997e-04  -2.9707431666333133e-04  -2.9887132926231655e-04  -3.0060143008235754e-04  -3.0243370031183132e-04  -3.0411281179340083e-04  -3.0601723253662478e-04  -3.0759596976054213e-04  -3.0963322076298458e-04  -3.1102347889831213e-04  -3.1322190869974872e-04  -3.1422701872880186e-04  -3.1617544649071493e-04  -3.1666529967137343e-04  -3.1812422147985494e-04  -3.2472978429312827e-04  -3.3548715015012604e-04  -3.6337875855187981e-04  -3.5880986289534765e-04  -3.7962145900337981e-04  -3.0112661272876663e-04  -2.4131804412001100e-04  -2.9200194262078987e-04  -2.9670591067515906e-04  -1.5905418099617229e-03  -2.8889690313862917e-04  -2.2366358218620203e-04  -1.9329751581197900e-04  -1.8510287699553859e-04  -1.8429117025517365e-04  -1.8687017912146783e-04  -1.9104153347465958e-04  -1.9544348447563859e-04  -1.9928692368538075e-04  -2.0240415142286952e-04  -2.0494153941438169e-04  -2.0710948539842970e-04  -2.0907191491349755e-04  -2.1093105889245580e-04  -2.1274145513110673e-04  -2.1452999976759768e-04  -2.1630882109709390e-04  -2.1808338826408114e-04  -2.1985598960909021e-04  -2.2162769078078591e-04  -2.2339893093543050e-04  -2.2516994785649108e-04  -2.2694083847530066e-04  -2.2871166753563838e-04  -2.3048245905039048e-04  -2.3225323329752949e-04  -2.3402399610214473e-04  -2.3579475416065325e-04  -2.3756550869865424e-04  -2.3933626201849719e-04  -2.4110701422935736e-04  -2.4287776613563869e-04  -2.4464851770133881e-04  -2.4641926918857567e-04  -2.4819002057540175e-04  -2.4996077194475451e-04  -2.5173152325845788e-04  -2.5350227461748789e-04  -2.5527302583848341e-04  -2.5704377731890422e-04  -2.5881452831605936e-04  -2.6058528026214690e-04  -2.6235603029038798e-04  -2.6412678414181035e-04  -2.6589753043455139e-04  -2.6766829153184086e-04  -2.6943902376864700e-04  -2.7120981202263019e-04  -2.7298049204517271e-04  -2.7475137989359005e-04  -2.7652187084841124e-04  -2.7829311456630006e-04  -2.8006293906355649e-04  -2.8183541867642326e-04  -2.8360296381553811e-04  -2.8537959901053464e-04  -2.8713961425101149e-04  -2.8892970859014673e-04  -2.9066584307587052e-04  -2.9249762572201268e-04  -2.9416172478544068e-04  -2.9611560161916497e-04  -2.9757603903384525e-04  -2.9986111861858117e-04  -3.0079247066412782e-04  -3.0387154329027750e-04  -3.0355551737042363e-04  -3.0812045204956244e-04  -3.0516923779685132e-04  -3.1152697057551504e-04  -3.0581839329020966e-04  -3.1732344466871900e-04  -3.2651054345571512e-04  -3.4641446235006196e-04  -3.8826393804971664e-04  -3.1755040437484393e-04  -4.7214077160809400e-04  8.8816362609794091e-05  -1.0926283350169285e-03  1.4593216518158027e-03  -4.7135266544407373e-04  -2.1757349413511074e-04  -1.7020145972079700e-04  -1.5509861186996103e-04  -1.5180755170767247e-04  -1.5319433490756723e-04  -1.5679637843451775e-04  -1.6113123008902123e-04  -1.6516732690724040e-04  -1.6850880113051817e-04  -1.7120680935360597e-04  -1.7346597199183395e-04  -1.7547226285723197e-04  -1.7734952430037494e-04  -1.7916623386959508e-04  -1.8095645578392587e-04  -1.8273547173146837e-04  -1.8450987381093696e-04  -1.8628231725495382e-04  -1.8805391116685213e-04  -1.8982509972910401e-04  -1.9159608843226592e-04  -1.9336696954896332e-04  -1.9513779255656577e-04  -1.9690858344724129e-04  -1.9867935622106320e-04  -2.0045011945915927e-04  -2.0222087701957992e-04  -2.0399163189472480e-04  -2.0576238498301507e-04  -2.0753313737071133e-04  -2.0930388917010203e-04  -2.1107464081282162e-04  -2.1284539225860223e-04  -2.1461614367630416e-04  -2.1638689502088303e-04  -2.1815764635331705e-04  -2.1992839769524779e-04  -2.2169914897873859e-04  -2.2346990035574602e-04  -2.2524065152724928e-04  -2.2701140308958114e-04  -2.2878215390212866e-04  -2.3055290617758625e-04  -2.3232365563285992e-04  -2.3409441046416367e-04  -2.3586515509683192e-04  -2.3763591889964535e-04  -2.3940664694332994e-04  -2.4117744101930072e-04  -2.4294811419098595e-04  -2.4471900614177948e-04  -2.4648950600929698e-04  -2.4826069872668701e-04  -2.5003068030383284e-04  -2.5180274414050862e-04  -2.5357126996006685e-04  -2.5534569293304360e-04  -2.5711040455956538e-04  -2.5889077943068689e-04  -2.6064617601727574e-04  -2.6244065774853306e-04  -2.6417451550412300e-04  -2.6600098031957065e-04  -2.6768439711565738e-04  -2.6957506634331429e-04  -2.7111248997045776e-04  -2.7304417110804506e