<?xml version="1.0"?>
<VTKFile type="UnstructuredGrid"  version="0.1"  >
<UnstructuredGrid>
<Piece  NumberOfPoints="1369" NumberOfCells="2560">
<Points>
<DataArray  type="Float64"  NumberOfComponents="3"  format="ascii">0 0 0  0.75 0 0  1.5 0 0  2.25 0 0  3 0 0  3.75 0 0  4.5 0 0  5.25 0 0  6 0 0  6.75 0 0  7.5 0 0  8.25 0 0  9 0 0  9.75 0 0  10.5 0 0  11.25 0 0  12 0 0  12.75 0 0  13.5 0 0  14.25 0 0  15 0 0  15.75 0 0  16.5 0 0  17.25 0 0  18 0 0  18.75 0 0  19.5 0 0  20.25 0 0  21 0 0  21.75 0 0  22.5 0 0  23.25 0 0  24 0 0  24.75 0 0  25.5 0 0  26.25 0 0  27 0 0  27.75 0 0  28.5 0 0  29.25 0 0  30 0 0  30.75 0 0  31.5 0 0  32.25 0 0  33 0 0  33.75 0 0  34.5 0 0  35.25 0 0  36 0 0  36.75 0 0  37.5 0 0  38.25 0 0  39 0 0  39.75 0 0  40.5 0 0  41.25 0 0  42 0 0  42.75 0 0  43.5 0 0  44.25 0 0  45 0 0  45.75 0 0  46.5 0 0  47.25 0 0  48 0 0  48.75 0 0  49.5 0 0  50.25 0 0  51 0 0  51.75 0 0  52.5 0 0  53.25 0 0  54 0 0  54.75 0 0  55.5 0 0  56.25 0 0  57 0 0  57.75 0 0  58.5 0 0  59.25 0 0  60 0 0  0 0.5 0  0.75 0.5 0  1.5 0.5 0  2.25 0.5 0  3 0.5 0  3.75 0.5 0  4.5 0.5 0  5.25 0.5 0  6 0.5 0  6.75 0.5 0  7.5 0.5 0  8.25 0.5 0  9 0.5 0  9.75 0.5 0  10.5 0.5 0  11.25 0.5 0  12 0.5 0  12.75 0.5 0  13.5 0.5 0  14.25 0.5 0  15 0.5 0  15.75 0.5 0  16.5 0.5 0  17.25 0.5 0  18 0.5 0  18.75 0.5 0  19.5 0.5 0  20.25 0.5 0  21 0.5 0  21.75 0.5 0  22.5 0.5 0  23.25 0.5 0  24 0.5 0  24.75 0.5 0  25.5 0.5 0  26.25 0.5 0  27 0.5 0  27.75 0.5 0  28.5 0.5 0  29.25 0.5 0  30 0.5 0  30.75 0.5 0  31.5 0.5 0  32.25 0.5 0  33 0.5 0  33.75 0.5 0  34.5 0.5 0  35.25 0.5 0  36 0.5 0  36.75 0.5 0  37.5 0.5 0  38.25 0.5 0  39 0.5 0  39.75 0.5 0  40.5 0.5 0  41.25 0.5 0  42 0.5 0  42.75 0.5 0  43.5 0.5 0  44.25 0.5 0  45 0.5 0  45.75 0.5 0  46.5 0.5 0  47.25 0.5 0  48 0.5 0  48.75 0.5 0  49.5 0.5 0  50.25 0.5 0  51 0.5 0  51.75 0.5 0  52.5 0.5 0  53.25 0.5 0  54 0.5 0  54.75 0.5 0  55.5 0.5 0  56.25 0.5 0  57 0.5 0  57.75 0.5 0  58.5 0.5 0  59.25 0.5 0  60 0.5 0  0 1 0  0.75 1 0  1.5 1 0  2.25 1 0  3 1 0  3.75 1 0  4.5 1 0  5.25 1 0  6 1 0  6.75 1 0  7.5 1 0  8.25 1 0  9 1 0  9.75 1 0  10.5 1 0  11.25 1 0  12 1 0  12.75 1 0  13.5 1 0  14.25 1 0  15 1 0  15.75 1 0  16.5 1 0  17.25 1 0  18 1 0  18.75 1 0  19.5 1 0  20.25 1 0  21 1 0  21.75 1 0  22.5 1 0  23.25 1 0  24 1 0  24.75 1 0  25.5 1 0  26.25 1 0  27 1 0  27.75 1 0  28.5 1 0  29.25 1 0  30 1 0  30.75 1 0  31.5 1 0  32.25 1 0  33 1 0  33.75 1 0  34.5 1 0  35.25 1 0  36 1 0  36.75 1 0  37.5 1 0  38.25 1 0  39 1 0  39.75 1 0  40.5 1 0  41.25 1 0  42 1 0  42.75 1 0  43.5 1 0  44.25 1 0  45 1 0  45.75 1 0  46.5 1 0  47.25 1 0  48 1 0  48.75 1 0  49.5 1 0  50.25 1 0  51 1 0  51.75 1 0  52.5 1 0  53.25 1 0  54 1 0  54.75 1 0  55.5 1 0  56.25 1 0  57 1 0  57.75 1 0  58.5 1 0  59.25 1 0  60 1 0  0 1.5 0  0.75 1.5 0  1.5 1.5 0  2.25 1.5 0  3 1.5 0  3.75 1.5 0  4.5 1.5 0  5.25 1.5 0  6 1.5 0  6.75 1.5 0  7.5 1.5 0  8.25 1.5 0  9 1.5 0  9.75 1.5 0  10.5 1.5 0  11.25 1.5 0  12 1.5 0  12.75 1.5 0  13.5 1.5 0  14.25 1.5 0  15 1.5 0  15.75 1.5 0  16.5 1.5 0  17.25 1.5 0  18 1.5 0  18.75 1.5 0  19.5 1.5 0  20.25 1.5 0  21 1.5 0  21.75 1.5 0  22.5 1.5 0  23.25 1.5 0  24 1.5 0  24.75 1.5 0  25.5 1.5 0  26.25 1.5 0  27 1.5 0  27.75 1.5 0  28.5 1.5 0  29.25 1.5 0  30 1.5 0  30.75 1.5 0  31.5 1.5 0  32.25 1.5 0  33 1.5 0  33.75 1.5 0  34.5 1.5 0  35.25 1.5 0  36 1.5 0  36.75 1.5 0  37.5 1.5 0  38.25 1.5 0  39 1.5 0  39.75 1.5 0  40.5 1.5 0  41.25 1.5 0  42 1.5 0  42.75 1.5 0  43.5 1.5 0  44.25 1.5 0  45 1.5 0  45.75 1.5 0  46.5 1.5 0  47.25 1.5 0  48 1.5 0  48.75 1.5 0  49.5 1.5 0  50.25 1.5 0  51 1.5 0  51.75 1.5 0  52.5 1.5 0  53.25 1.5 0  54 1.5 0  54.75 1.5 0  55.5 1.5 0  56.25 1.5 0  57 1.5 0  57.75 1.5 0  58.5 1.5 0  59.25 1.5 0  60 1.5 0  0 2 0  0.75 2 0  1.5 2 0  2.25 2 0  3 2 0  3.75 2 0  4.5 2 0  5.25 2 0  6 2 0  6.75 2 0  7.5 2 0  8.25 2 0  9 2 0  9.75 2 0  10.5 2 0  11.25 2 0  12 2 0  12.75 2 0  13.5 2 0  14.25 2 0  15 2 0  15.75 2 0  16.5 2 0  17.25 2 0  18 2 0  18.75 2 0  19.5 2 0  20.25 2 0  21 2 0  21.75 2 0  22.5 2 0  23.25 2 0  24 2 0  24.75 2 0  25.5 2 0  26.25 2 0  27 2 0  27.75 2 0  28.5 2 0  29.25 2 0  30 2 0  30.75 2 0  31.5 2 0  32.25 2 0  33 2 0  33.75 2 0  34.5 2 0  35.25 2 0  36 2 0  36.75 2 0  37.5 2 0  38.25 2 0  39 2 0  39.75 2 0  40.5 2 0  41.25 2 0  42 2 0  42.75 2 0  43.5 2 0  44.25 2 0  45 2 0  45.75 2 0  46.5 2 0  47.25 2 0  48 2 0  48.75 2 0  49.5 2 0  50.25 2 0  51 2 0  51.75 2 0  52.5 2 0  53.25 2 0  54 2 0  54.75 2 0  55.5 2 0  56.25 2 0  57 2 0  57.75 2 0  58.5 2 0  59.25 2 0  60 2 0  0 2.5 0  0.75 2.5 0  1.5 2.5 0  2.25 2.5 0  3 2.5 0  3.75 2.5 0  4.5 2.5 0  5.25 2.5 0  6 2.5 0  6.75 2.5 0  7.5 2.5 0  8.25 2.5 0  9 2.5 0  9.75 2.5 0  10.5 2.5 0  11.25 2.5 0  12 2.5 0  12.75 2.5 0  13.5 2.5 0  14.25 2.5 0  15 2.5 0  15.75 2.5 0  16.5 2.5 0  17.25 2.5 0  18 2.5 0  18.75 2.5 0  19.5 2.5 0  20.25 2.5 0  21 2.5 0  21.75 2.5 0  22.5 2.5 0  23.25 2.5 0  24 2.5 0  24.75 2.5 0  25.5 2.5 0  26.25 2.5 0  27 2.5 0  27.75 2.5 0  28.5 2.5 0  29.25 2.5 0  30 2.5 0  30.75 2.5 0  31.5 2.5 0  32.25 2.5 0  33 2.5 0  33.75 2.5 0  34.5 2.5 0  35.25 2.5 0  36 2.5 0  36.75 2.5 0  37.5 2.5 0  38.25 2.5 0  39 2.5 0  39.75 2.5 0  40.5 2.5 0  41.25 2.5 0  42 2.5 0  42.75 2.5 0  43.5 2.5 0  44.25 2.5 0  45 2.5 0  45.75 2.5 0  46.5 2.5 0  47.25 2.5 0  48 2.5 0  48.75 2.5 0  49.5 2.5 0  50.25 2.5 0  51 2.5 0  51.75 2.5 0  52.5 2.5 0  53.25 2.5 0  54 2.5 0  54.75 2.5 0  55.5 2.5 0  56.25 2.5 0  57 2.5 0  57.75 2.5 0  58.5 2.5 0  59.25 2.5 0  60 2.5 0  0 3 0  0.75 3 0  1.5 3 0  2.25 3 0  3 3 0  3.75 3 0  4.5 3 0  5.25 3 0  6 3 0  6.75 3 0  7.5 3 0  8.25 3 0  9 3 0  9.75 3 0  10.5 3 0  11.25 3 0  12 3 0  12.75 3 0  13.5 3 0  14.25 3 0  15 3 0  15.75 3 0  16.5 3 0  17.25 3 0  18 3 0  18.75 3 0  19.5 3 0  20.25 3 0  21 3 0  21.75 3 0  22.5 3 0  23.25 3 0  24 3 0  24.75 3 0  25.5 3 0  26.25 3 0  27 3 0  27.75 3 0  28.5 3 0  29.25 3 0  30 3 0  30.75 3 0  31.5 3 0  32.25 3 0  33 3 0  33.75 3 0  34.5 3 0  35.25 3 0  36 3 0  36.75 3 0  37.5 3 0  38.25 3 0  39 3 0  39.75 3 0  40.5 3 0  41.25 3 0  42 3 0  42.75 3 0  43.5 3 0  44.25 3 0  45 3 0  45.75 3 0  46.5 3 0  47.25 3 0  48 3 0  48.75 3 0  49.5 3 0  50.25 3 0  51 3 0  51.75 3 0  52.5 3 0  53.25 3 0  54 3 0  54.75 3 0  55.5 3 0  56.25 3 0  57 3 0  57.75 3 0  58.5 3 0  59.25 3 0  60 3 0  0 3.5 0  0.75 3.5 0  1.5 3.5 0  2.25 3.5 0  3 3.5 0  3.75 3.5 0  4.5 3.5 0  5.25 3.5 0  6 3.5 0  6.75 3.5 0  7.5 3.5 0  8.25 3.5 0  9 3.5 0  9.75 3.5 0  10.5 3.5 0  11.25 3.5 0  12 3.5 0  12.75 3.5 0  13.5 3.5 0  14.25 3.5 0  15 3.5 0  15.75 3.5 0  16.5 3.5 0  17.25 3.5 0  18 3.5 0  18.75 3.5 0  19.5 3.5 0  20.25 3.5 0  21 3.5 0  21.75 3.5 0  22.5 3.5 0  23.25 3.5 0  24 3.5 0  24.75 3.5 0  25.5 3.5 0  26.25 3.5 0  27 3.5 0  27.75 3.5 0  28.5 3.5 0  29.25 3.5 0  30 3.5 0  30.75 3.5 0  31.5 3.5 0  32.25 3.5 0  33 3.5 0  33.75 3.5 0  34.5 3.5 0  35.25 3.5 0  36 3.5 0  36.75 3.5 0  37.5 3.5 0  38.25 3.5 0  39 3.5 0  39.75 3.5 0  40.5 3.5 0  41.25 3.5 0  42 3.5 0  42.75 3.5 0  43.5 3.5 0  44.25 3.5 0  45 3.5 0  45.75 3.5 0  46.5 3.5 0  47.25 3.5 0  48 3.5 0  48.75 3.5 0  49.5 3.5 0  50.25 3.5 0  51 3.5 0  51.75 3.5 0  52.5 3.5 0  53.25 3.5 0  54 3.5 0  54.75 3.5 0  55.5 3.5 0  56.25 3.5 0  57 3.5 0  57.75 3.5 0  58.5 3.5 0  59.25 3.5 0  60 3.5 0  0 4 0  0.75 4 0  1.5 4 0  2.25 4 0  3 4 0  3.75 4 0  4.5 4 0  5.25 4 0  6 4 0  6.75 4 0  7.5 4 0  8.25 4 0  9 4 0  9.75 4 0  10.5 4 0  11.25 4 0  12 4 0  12.75 4 0  13.5 4 0  14.25 4 0  15 4 0  15.75 4 0  16.5 4 0  17.25 4 0  18 4 0  18.75 4 0  19.5 4 0  20.25 4 0  21 4 0  21.75 4 0  22.5 4 0  23.25 4 0  24 4 0  24.75 4 0  25.5 4 0  26.25 4 0  27 4 0  27.75 4 0  28.5 4 0  29.25 4 0  30 4 0  30.75 4 0  31.5 4 0  32.25 4 0  33 4 0  33.75 4 0  34.5 4 0  35.25 4 0  36 4 0  36.75 4 0  37.5 4 0  38.25 4 0  39 4 0  39.75 4 0  40.5 4 0  41.25 4 0  42 4 0  42.75 4 0  43.5 4 0  44.25 4 0  45 4 0  45.75 4 0  46.5 4 0  47.25 4 0  48 4 0  48.75 4 0  49.5 4 0  50.25 4 0  51 4 0  51.75 4 0  52.5 4 0  53.25 4 0  54 4 0  54.75 4 0  55.5 4 0  56.25 4 0  57 4 0  57.75 4 0  58.5 4 0  59.25 4 0  60 4 0  0.375 0.25 0  1.125 0.25 0  1.875 0.25 0  2.625 0.25 0  3.375 0.25 0  4.125 0.25 0  4.875 0.25 0  5.625 0.25 0  6.375 0.25 0  7.125 0.25 0  7.875 0.25 0  8.625 0.25 0  9.375 0.25 0  10.125 0.25 0  10.875 0.25 0  11.625 0.25 0  12.375 0.25 0  13.125 0.25 0  13.875 0.25 0  14.625 0.25 0  15.375 0.25 0  16.125 0.25 0  16.875 0.25 0  17.625 0.25 0  18.375 0.25 0  19.125 0.25 0  19.875 0.25 0  20.625 0.25 0  21.375 0.25 0  22.125 0.25 0  22.875 0.25 0  23.625 0.25 0  24.375 0.25 0  25.125 0.25 0  25.875 0.25 0  26.625 0.25 0  27.375 0.25 0  28.125 0.25 0  28.875 0.25 0  29.625 0.25 0  30.375 0.25 0  31.125 0.25 0  31.875 0.25 0  32.625 0.25 0  33.375 0.25 0  34.125 0.25 0  34.875 0.25 0  35.625 0.25 0  36.375 0.25 0  37.125 0.25 0  37.875 0.25 0  38.625 0.25 0  39.375 0.25 0  40.125 0.25 0  40.875 0.25 0  41.625 0.25 0  42.375 0.25 0  43.125 0.25 0  43.875 0.25 0  44.625 0.25 0  45.375 0.25 0  46.125 0.25 0  46.875 0.25 0  47.625 0.25 0  48.375 0.25 0  49.125 0.25 0  49.875 0.25 0  50.625 0.25 0  51.375 0.25 0  52.125 0.25 0  52.875 0.25 0  53.625 0.25 0  54.375 0.25 0  55.125 0.25 0  55.875 0.25 0  56.625 0.25 0  57.375 0.25 0  58.125 0.25 0  58.875 0.25 0  59.625 0.25 0  0.375 0.75 0  1.125 0.75 0  1.875 0.75 0  2.625 0.75 0  3.375 0.75 0  4.125 0.75 0  4.875 0.75 0  5.625 0.75 0  6.375 0.75 0  7.125 0.75 0  7.875 0.75 0  8.625 0.75 0  9.375 0.75 0  10.125 0.75 0  10.875 0.75 0  11.625 0.75 0  12.375 0.75 0  13.125 0.75 0  13.875 0.75 0  14.625 0.75 0  15.375 0.75 0  16.125 0.75 0  16.875 0.75 0  17.625 0.75 0  18.375 0.75 0  19.125 0.75 0  19.875 0.75 0  20.625 0.75 0  21.375 0.75 0  22.125 0.75 0  22.875 0.75 0  23.625 0.75 0  24.375 0.75 0  25.125 0.75 0  25.875 0.75 0  26.625 0.75 0  27.375 0.75 0  28.125 0.75 0  28.875 0.75 0  29.625 0.75 0  30.375 0.75 0  31.125 0.75 0  31.875 0.75 0  32.625 0.75 0  33.375 0.75 0  34.125 0.75 0  34.875 0.75 0  35.625 0.75 0  36.375 0.75 0  37.125 0.75 0  37.875 0.75 0  38.625 0.75 0  39.375 0.75 0  40.125 0.75 0  40
[...]
<PointData  Scalars="f_8-1"> 
<DataArray  type="Float64"  Name="f_8-1"  format="ascii">-8.4834252310518270e+00  -8.3786721259983814e+00  -8.2727973642021801e+00  -8.1668057691863343e+00  -8.0607687806133193e+00  -7.9547156549080915e+00  -7.8486569718230186e+00  -7.7425966452361221e+00  -7.6365361708461394e+00  -7.5304765272633967e+00  -7.4244185123967492e+00  -7.3183622818223135e+00  -7.2123074251829893e+00  -7.1062534223002478e+00  -7.0001999038612706e+00  -6.8941466599350267e+00  -6.7880935751502660e+00  -6.6820405822370130e+00  -6.5759876404620963e+00  -6.4699347257745856e+00  -6.3638818247161870e+00  -6.2578289302978387e+00  -6.1517760390290883e+00  -6.0457231492707519e+00  -5.9396702602308862e+00  -5.8336173715512754e+00  -5.7275644830458656e+00  -5.6215115946339420e+00  -5.5154587062660205e+00  -5.4094058179239708e+00  -5.3033529295929212e+00  -5.1973000412694352e+00  -5.0912471529485330e+00  -4.9851942646299117e+00  -4.8791413763118188e+00  -4.7730884879944719e+00  -4.6670355996771855e+00  -4.5609827113601273e+00  -4.4549298230430869e+00  -4.3488769347261336e+00  -4.2428240464091509e+00  -4.1367711580921860e+00  -4.0307182697752424e+00  -3.9246653814582619e+00  -3.8186124931413090e+00  -3.7125596048243721e+00  -3.6065067165074245e+00  -3.5004538281904916e+00  -3.3944009398735293e+00  -3.2883480515565640e+00  -3.1822951632396217e+00  -3.0762422749225840e+00  -2.9701893866057234e+00  -2.8641364982881958e+00  -2.7580836099721080e+00  -2.6520307216513386e+00  -2.5459778333417891e+00  -2.4399249449984826e+00  -2.3338720567394660e+00  -2.2278191682393245e+00  -2.1217662803547772e+00  -2.0157133907706410e+00  -1.9096605055509128e+00  -1.8036076086349551e+00  -1.6975547415505134e+00  -1.5915017968447858e+00  -1.4854490464933769e+00  -1.3793958072931931e+00  -1.2733437543805470e+00  -1.1672888441323224e+00  -1.0612405463762506e+00  -9.5517723786517117e-01  -8.4914637826321282e-01  -7.4304779777035035e-01  -6.3708388565804130e-01  -5.3087121003557780e-01  -4.2514877582636906e-01  -3.1866474621126484e-01  -2.1374956197475528e-01  -1.0542343627948622e-01  -5.0424095030955499e-04  -8.4851587095320014e+00  -8.3786725903617665e+00  -8.2727721745461391e+00  -8.1667705535260939e+00  -8.0607324662384041e+00  -7.9546800659778238e+00  -7.8486222534486769e+00  -7.7425625172596257e+00  -7.6365024145383478e+00  -7.5304429219101525e+00  -7.4243847285523303e+00  -7.3183280573157754e+00  -7.2122727269387186e+00  -7.1062183731104724e+00  -7.0001646529004207e+00  -6.8941113128354967e+00  -6.7880581891812035e+00  -6.6820051824254314e+00  -6.5759522362176721e+00  -6.4698993200427291e+00  -6.3638464184073005e+00  -6.2577935236702817e+00  -6.1517406322194468e+00  -6.0456877423448141e+00  -5.9396348532406149e+00  -5.8335819645226552e+00  -5.7275290759976158e+00  -5.6214761875743777e+00  -5.5154232992010073e+00  -5.4093704108557921e+00  -5.3033175225233062e+00  -5.1972646341989446e+00  -5.0912117458776613e+00  -4.9851588575588046e+00  -4.8791059692406149e+00  -4.7730530809231961e+00  -4.6670001926058866e+00  -4.5609473042888133e+00  -4.4548944159717614e+00  -4.3488415276547991e+00  -4.2427886393378147e+00  -4.1367357510208524e+00  -4.0306828627038982e+00  -3.9246299743869204e+00  -3.8185770860699733e+00  -3.7125241977530310e+00  -3.6064713094360910e+00  -3.5004184211191558e+00  -3.3943655328021922e+00  -3.2883126444852473e+00  -3.1822597561682486e+00  -3.0762068678513628e+00  -2.9701539795341061e+00  -2.8641010912176919e+00  -2.7580482028987263e+00  -2.6519953145859079e+00  -2.5459424262555856e+00  -2.4398895379684782e+00  -2.3338366495630467e+00  -2.2277837614516129e+00  -2.1217308725634099e+00  -2.0156779855904552e+00  -1.9096250937326371e+00  -1.8035722136764312e+00  -1.6975193047045518e+00  -1.5914664632163344e+00  -1.4854134645152040e+00  -1.3793608137812552e+00  -1.2733074054983404e+00  -1.1672555463610341e+00  -1.0612006211900207e+00  -9.5515127152000889e-01  -8.4909232629659126e-01  -7.4304820603919219e-01  -6.3698430120873684e-01  -5.3094857293527997e-01  -4.2491844830024161e-01  -3.1890507114775429e-01  -2.1301176052786602e-01  -1.0603632662772716e-01  1.8597171445569659e-04  -8.4852429963410483e+00  -8.3789101760971949e+00  -8.2728110912323523e+00  -8.1667585865205758e+00  -8.0607041973452418e+00  -7.9546460124039040e+00  -7.8485856976594093e+00  -7.7425246193723307e+00  -7.6364638043064694e+00  -7.5304035471921447e+00  -7.4243442064632337e+00  -7.3182865283976497e+00  -7.2122307516321644e+00  -7.1061764185579905e+00  -7.0001229090128376e+00  -6.8940697802735480e+00  -6.7880168031636998e+00  -6.6819638801052763e+00  -6.5759109762072505e+00  -6.4698580797219343e+00  -6.3638051869002128e+00  -6.2577522960370064e+00  -6.1516994063413009e+00  -6.0456465172705229e+00  -5.9395936285624682e+00  -5.8335407400346826e+00  -5.7274878516116123e+00  -5.6214349632369940e+00  -5.5153820748918578e+00  -5.4093291865592033e+00  -5.3032762982348105e+00  -5.1972234099135752e+00  -5.0911705215946759e+00  -4.9851176332765395e+00  -4.8790647449590621e+00  -4.7730118566417907e+00  -4.6669589683246953e+00  -4.5609060800076575e+00  -4.4548531916906651e+00  -4.3488003033737046e+00  -4.2427474150567326e+00  -4.1366945267397748e+00  -4.0306416384228090e+00  -3.9245887501058530e+00  -3.8185358617889102e+00  -3.7124829734719693e+00  -3.6064300851550328e+00  -3.5003771968380843e+00  -3.3943243085211363e+00  -3.2882714202041687e+00  -3.1822185318872420e+00  -3.0761656435701843e+00  -2.9701127552534743e+00  -2.8640598669357482e+00  -2.7580069786205677e+00  -2.6519540902985042e+00  -2.5459012019937681e+00  -2.4398483136432221e+00  -2.3337954254073590e+00  -2.2277425368764852e+00  -2.1216896490729837e+00  -2.0156367594542899e+00  -1.9095838742017166e+00  -1.8035309784452549e+00  -1.6974781070605998e+00  -1.5914251797238042e+00  -1.4853723758234230e+00  -1.3793193054541169e+00  -1.2732667836020681e+00  -1.1672131700935693e+00  -1.0611616071227099e+00  -9.5510636259051551e-01  -8.4905734753995776e-01  -7.4299830777839981e-01  -6.3695551314394028e-01  -5.3088757920870844e-01  -4.2486790263351504e-01  -3.1874019011526955e-01  -2.1275818145497455e-01  -1.0603372717360403e-01  -2.1432393188653077e-04  -8.4852644342518815e+00  -8.3790144111598810e+00  -8.2728699729679445e+00  -8.1667853738448972e+00  -8.0607192851797986e+00  -7.9546571945045352e+00  -7.8485955566245433e+00  -7.7425339569727196e+00  -7.6364728604454033e+00  -7.5304123624238022e+00  -7.4243526776013917e+00  -7.3182946134864659e+00  -7.2122385575889520e+00  -7.1061841042883076e+00  -7.0001305857048512e+00  -6.8940774936926230e+00  -6.7880245571370486e+00  -6.6819716634742425e+00  -6.5759187768370966e+00  -6.4698658893307730e+00  -6.3638130007646634e+00  -6.2577601118460118e+00  -6.1517072230055714e+00  -6.0456543343248352e+00  -5.9396014457915705e+00  -5.8335485573501229e+00  -5.7274956689672951e+00  -5.6214427806144309e+00  -5.5153898922794760e+00  -5.4093370039527420e+00  -5.3032841156310084e+00  -5.1972312273114394e+00  -5.0911783389932204e+00  -4.9851254506755494e+00  -4.8790725623582567e+00  -4.7730196740411150e+00  -4.6669667857240587e+00  -4.5609138974070609e+00  -4.4548610090900764e+00  -4.3488081207731168e+00  -4.2427552324561466e+00  -4.1367023441391968e+00  -4.0306494558222301e+00  -3.9245965675052807e+00  -3.8185436791883380e+00  -3.7124907908713958e+00  -3.6064379025544540e+00  -3.5003850142375006e+00  -3.3943321259205468e+00  -3.2882792376036134e+00  -3.1822263492866347e+00  -3.0761734609697404e+00  -2.9701205726526134e+00  -2.8640676843360628e+00  -2.7580147960179944e+00  -2.6519619077037500e+00  -2.5459090193795815e+00  -2.4398561310802278e+00  -2.3338032427178748e+00  -2.2277503545103445e+00  -2.1216974659202141e+00  -2.0156445782483678e+00  -1.9095916883781894e+00  -1.8035388036210394e+00  -1.6974859070904629e+00  -1.5914330368691552e+00  -1.4853801088793666e+00  -1.3793273038317158e+00  -1.2732742435958766e+00  -1.1672216972764775e+00  -1.0611681463454687e+00  -9.5511651040206480e-01  -8.4906129090629423e-01  -7.4301253116071819e-01  -6.3695115852145179e-01  -5.3090940049115865e-01  -4.2481714343886612e-01  -3.1877002055196035e-01  -2.1253247465311459e-01  -1.0628448808591150e-01  4.8274753987353813e-05  -8.4852679429303315e+00  -8.3790487901124440e+00  -8.2728973343683894e+00  -8.1668040070893042e+00  -8.0607342914307747e+00  -7.9546711575998819e+00  -7.8486093150631246e+00  -7.7425477568880909e+00  -7.6364866741918203e+00  -7.5304262100107451e+00  -7.4243666446897292e+00  -7.3183086259724943e+00  -7.2122524840791025e+00  -7.1061979029738653e+00  -7.0001442878840043e+00  -6.8940911444848592e+00  -6.7880381869631572e+00  -6.6819852870340855e+00  -6.5759323993766801e+00  -6.4698795121612873e+00  -6.3638266239207697e+00  -6.2577737351829823e+00  -6.1517208464055857e+00  -6.0456679577441257e+00  -5.9396150692100260e+00  -5.8335621807666600e+00  -5.7275092923804047e+00  -5.6214564040262536e+00  -5.5154035156898944e+00  -5.4093506273628300e+00  -5.3032977390406675e+00  -5.1972448507210149e+00  -5.0911919624026591e+00  -4.9851390740849739e+00  -4.8790861857676449e+00  -4.7730332974505023e+00  -4.6669804091334521e+00  -4.5609275208164286e+00  -4.4548746324994424e+00  -4.3488217441824997e+00  -4.2427688558655161e+00  -4.1367159675485796e+00  -4.0306630792316147e+00  -3.9246101909146569e+00  -3.8185573025977217e+00  -3.7125044142807675e+00  -3.6064515259638346e+00  -3.5003986376468803e+00  -3.3943457493299340e+00  -3.2882928610129758e+00  -3.1822399726960473e+00  -3.0761870843790358e+00  -2.9701341960621832e+00  -2.8640813077449323e+00  -2.7580284194287130e+00  -2.6519755311097546e+00  -2.5459226427975579e+00  -2.4398697544681300e+00  -2.3338168661807361e+00  -2.2277639777890599e+00  -2.1217110896465066e+00  -2.0156582009046113e+00  -1.9096053135560638e+00  -1.8035524229722422e+00  -1.6974995396624155e+00  -1.5914466401423064e+00  -1.4853937756904450e+00  -1.3793408366166220e+00  -1.2732880524705501e+00  -1.1672349541575868e+00  -1.0611824814912305e+00  -9.5512878706510640e-01  -8.4907738960407775e-01  -7.4302139808829326e-01  -6.3697249913614684e-01  -5.3090558785227437e-01  -4.2484927548443818e-01  -3.1872856783553027e-01  -2.1256542242192619e-01  -1.0625922480005472e-01  -3.0207414178294838e-05  -8.4852644342519188e+00  -8.3790144111598561e+00  -8.2728699729679338e+00  -8.1667853738449114e+00  -8.0607192851798111e+00  -7.9546571945045770e+00  -7.8485955566245655e+00  -7.7425339569727223e+00  -7.6364728604454220e+00  -7.5304123624238102e+00  -7.4243526776014166e+00  -7.3182946134864535e+00  -7.2122385575889369e+00  -7.1061841042883334e+00  -7.0001305857048566e+00  -6.8940774936926239e+00  -6.7880245571370397e+00  -6.6819716634742310e+00  -6.5759187768370895e+00  -6.4698658893307819e+00  -6.3638130007646732e+00  -6.2577601118460251e+00  -6.1517072230055749e+00  -6.0456543343248423e+00  -5.9396014457915776e+00  -5.8335485573501327e+00  -5.7274956689672951e+00  -5.6214427806144407e+00  -5.5153898922794751e+00  -5.4093370039527331e+00  -5.3032841156310253e+00  -5.1972312273114296e+00  -5.0911783389932204e+00  -4.9851254506755502e+00  -4.8790725623582469e+00  -4.7730196740411195e+00  -4.6669667857240738e+00  -4.5609138974070733e+00  -4.4548610090900782e+00  -4.3488081207731089e+00  -4.2427552324561493e+00  -4.1367023441391968e+00  -4.0306494558222319e+00  -3.9245965675052843e+00  -3.8185436791883460e+00  -3.7124907908713998e+00  -3.6064379025544553e+00  -3.5003850142375064e+00  -3.3943321259205468e+00  -3.2882792376036125e+00  -3.1822263492866307e+00  -3.0761734609697382e+00  -2.9701205726526103e+00  -2.8640676843360717e+00  -2.7580147960180090e+00  -2.6519619077037602e+00  -2.5459090193795793e+00  -2.4398561310802251e+00  -2.3338032427178681e+00  -2.2277503545103414e+00  -2.1216974659202097e+00  -2.0156445782483723e+00  -1.9095916883781843e+00  -1.8035388036210354e+00  -1.6974859070904647e+00  -1.5914330368691560e+00  -1.4853801088793639e+00  -1.3793273038317182e+00  -1.2732742435958779e+00  -1.1672216972764782e+00  -1.0611681463454667e+00  -9.5511651040206680e-01  -8.4906129090629401e-01  -7.4301253116071564e-01  -6.3695115852145123e-01  -5.3090940049115898e-01  -4.2481714343886789e-01  -3.1877002055196135e-01  -2.1253247465311309e-01  -1.0628448808590908e-01  4.8274753987984975e-05  -8.4852429963410358e+00  -8.3789101760971665e+00  -8.2728110912323611e+00  -8.1667585865205723e+00  -8.0607041973452649e+00  -7.9546460124039262e+00  -7.8485856976594341e+00  -7.7425246193723591e+00  -7.6364638043064890e+00  -7.5304035471921544e+00  -7.4243442064632417e+00  -7.3182865283976568e+00  -7.2122307516321689e+00  -7.1061764185580021e+00  -7.0001229090128341e+00  -6.8940697802735666e+00  -6.7880168031636785e+00  -6.6819638801052577e+00  -6.5759109762072381e+00  -6.4698580797219547e+00  -6.3638051869002092e+00  -6.2577522960370011e+00  -6.1516994063413097e+00  -6.0456465172705256e+00  -5.9395936285624868e+00  -5.8335407400346853e+00  -5.7274878516116177e+00  -5.6214349632369984e+00  -5.5153820748918685e+00  -5.4093291865592050e+00  -5.3032762982348318e+00  -5.1972234099135868e+00  -5.0911705215946688e+00  -4.9851176332765519e+00  -4.8790647449590692e+00  -4.7730118566417898e+00  -4.6669589683247104e+00  -4.5609060800076655e+00  -4.4548531916906722e+00  -4.3488003033737019e+00  -4.2427474150567237e+00  -4.1366945267397695e+00  -4.0306416384228072e+00  -3.9245887501058503e+00  -3.8185358617889160e+00  -3.7124829734719738e+00  -3.6064300851550235e+00  -3.5003771968380732e+00  -3.3943243085211243e+00  -3.2882714202041585e+00  -3.1822185318872473e+00  -3.0761656435701670e+00  -2.9701127552534774e+00  -2.8640598669357540e+00  -2.7580069786205716e+00  -2.6519540902985064e+00  -2.5459012019937663e+00  -2.4398483136432132e+00  -2.3337954254073594e+00  -2.2277425368764869e+00  -2.1216896490729891e+00  -2.0156367594542894e+00  -1.9095838742017190e+00  -1.8035309784452582e+00  -1.6974781070606029e+00  -1.5914251797238084e+00  -1.4853723758234194e+00  -1.3793193054541260e+00  -1.2732667836020672e+00  -1.1672131700935704e+00  -1.0611616071227090e+00  -9.5510636259051351e-01  -8.4905734753995932e-01  -7.4299830777839670e-01  -6.3695551314393772e-01  -5.3088757920871188e-01  -4.2486790263352625e-01  -3.1874019011526550e-01  -2.1275818145497458e-01  -1.0603372717360245e-01  -2.1432393188648981e-04  -8.4851587095320244e+00  -8.3786725903617310e+00  -8.2727721745461640e+00  -8.1667705535261277e+00  -8.0607324662384254e+00  -7.9546800659778629e+00  -7.8486222534487178e+00  -7.7425625172596275e+00  -7.6365024145383673e+00  -7.5304429219101667e+00  -7.4243847285523223e+00  -7.3183280573157719e+00  -7.2122727269387372e+00  -7.1062183731104920e+00  -7.0001646529003994e+00  -6.8941113128354843e+00  -6.7880581891811742e+00  -6.6820051824254110e+00  -6.5759522362176712e+00  -6.4698993200427486e+00  -6.3638464184073111e+00  -6.2577935236702853e+00  -6.1517406322194468e+00  -6.0456877423448239e+00  -5.9396348532406176e+00  -5.8335819645226783e+00  -5.7275290759975928e+00  -5.6214761875743626e+00  -5.5154232992010011e+00  -5.4093704108557930e+00  -5.3033175225233329e+00  -5.1972646341989632e+00  -5.0912117458776640e+00  -4.9851588575588170e+00  -4.8791059692406211e+00  -4.7730530809232175e+00  -4.6670001926058919e+00  -4.5609473042888329e+00  -4.4548944159717578e+00  -4.3488415276547938e+00  -4.2427886393377934e+00  -4.1367357510208347e+00  -4.0306828627038698e+00  -3.9246299743869240e+00  -3.8185770860699879e+00  -3.7125241977530585e+00  -3.6064713094361012e+00  -3.5004184211191438e+00  -3.3943655328021776e+00  -3.2883126444852424e+00  -3.1822597561682446e+00  -3.0762068678513574e+00  -2.9701539795340923e+00  -2.8641010912176976e+00  -2.7580482028987316e+00  -2.6519953145859070e+00  -2.5459424262555808e+00  -2.4398895379684857e+00  -2.3338366495630511e+00  -2.2277837614516147e+00  -2.1217308725634094e+00  -2.0156779855904552e+00  -1.9096250937326391e+00  -1.8035722136764343e+00  -1.6975193047045567e+00  -1.5914664632163340e+00  -1.4854134645152064e+00  -1.3793608137812634e+00  -1.2733074054983413e+00  -1.1672555463610350e+00  -1.0612006211900198e+00  -9.5515127152001056e-01  -8.4909232629658993e-01  -7.4304820603919131e-01  -6.3698430120873595e-01  -5.3094857293528164e-01  -4.2491844830024872e-01  -3.1890507114775701e-01  -2.1301176052786472e-01  -1.0603632662772543e-01  1.8597171445555372e-04  -8.4834252310518146e+00  -8.3786721259983494e+00  -8.2727973642022157e+00  -8.1668057691863591e+00  -8.0607687806133157e+00  -7.9547156549081546e+00  -7.8486569718230541e+00  -7.7425966452361177e+00  -7.6365361708461466e+00  -7.5304765272634029e+00  -7.4244185123967341e+00  -7.3183622818223224e+00  -7.2123074251830035e+00  -7.1062534223002638e+00  -7.0001999038612368e+00  -6.8941466599350232e+00  -6.7880935751502705e+00  -6.6820405822369873e+00  -6.5759876404621345e+00  -6.4699347257746096e+00  -6.3638818247162128e+00  -6.2578289302978236e+00  -6.1517760390290812e+00  -6.0457231492707599e+00  -5.9396702602309004e+00  -5.8336173715513242e+00  -5.7275644830457999e+00  -5.6215115946339065e+00  -5.5154587062659948e+00  -5.4094058179239815e+00  -5.3033529295929638e+00  -5.1973000412694628e+00  -5.0912471529485392e+00  -4.9851942646299161e+00  -4.8791413763118126e+00  -4.7730884879945137e+00  -4.6670355996772139e+00  -4.5609827113601451e+00  -4.4549298230431029e+00  -4.3488769347261256e+00  -4.2428240464091314e+00  -4.1367711580921718e+00  -4.0307182697752095e+00  -3.9246653814582668e+00  -3.8186124931413179e+00  -3.7125596048244027e+00  -3.6065067165074485e+00  -3.5004538281904849e+00  -3.3944009398735244e+00  -3.2883480515565640e+00  -3.1822951632396403e+00  -3.0762422749225800e+00  -2.9701893866057203e+00  -2.8641364982881923e+00  -2.7580836099721155e+00  -2.6520307216513448e+00  -2.5459778333417891e+00  -2.4399249449984959e+00  -2.3338720567394757e+00  -2.2278191682393196e+00  -2.1217662803547683e+00  -2.0157133907706402e+00  -1.9096605055509241e+00  -1.8036076086349668e+00  -1.6975547415505214e+00  -1.5915017968447827e+00  -1.4854490464933878e+00  -1.3793958072932022e+00  -1.2733437543805461e+00  -1.1672888441323259e+00  -1.0612405463762484e+00  -9.5517723786517283e-01  -8.4914637826321115e-01  -7.4304779777035324e-01  -6.3708388565804008e-01  -5.3087121003558169e-01  -4.2514877582637550e-01  -3.1866474621126684e-01  -2.1374956197475523e-01  -1.0542343627948397e-01  -5.0424095030918669e-04  -8.4312210991958505e+00  -8.3256281922438173e+00  -8.2196956260837997e+00  -8.1136813542485875e+00  -8.0076376382318895e+00  -7.9015829961721362e+00  -7.7955244471732374e+00  -7.6894646471629846e+00  -7.5834049506356633e+00  -7.4773463194564291e+00  -7.3712891991418790e+00  -7.2652334637000688e+00  -7.1591787611487518e+00  -7.0531247572155342e+00  -6.9470712105604715e+00  -6.8410179518473404e+00  -6.7349648660680161e+00  -6.6289118773150388e+00  -6.5228589399234602e+00  -6.4168060281268149e+00  -6.3107531286937606e+00  -6.2047002350545659e+00  -6.0986473441599562e+00  -5.9925944545622620e+00  -5.8865415656015783e+00  -5.7804886769548496e+00  -5.6744357884681769e+00  -5.5683829000633853e+00  -5.4623300117005869e+00  -5.3562771233600381e+00  -5.2502242350306103e+00  -5.1441713467073926e+00  -5.0381184583869860e+00  -4.9320655700683966e+00  -4.8260126817505018e+00  -4.7199597934331345e+00  -4.6139069051158792e+00  -4.5078540167988468e+00  -4.4018011284818428e+00  -4.2957482401648601e+00  -4.1896953518478659e+00  -4.0836424635309463e+00  -3.9775895752139387e+00  -3.8715366868969983e+00  -3.7654837985800587e+00  -3.6594309102631142e+00  -3.5533780219461679e+00  -3.4473251336292186e+00  -3.3412722453122647e+00  -3.2352193569953078e+00  -3.1291664686783349e+00  -3.0231135803613562e+00  -2.9170606920442457e+00  -2.8110078037272026e+00  -2.7049549154094521e+00  -2.5989020270924899e+00  -2.4928491387711254e+00  -2.3867962504563889e+00  -2.2807433621142805e+00  -2.1746904738216051e+00  -2.0686375853597476e+00  -1.9625846972345096e+00  -1.8565318080946422e+00  -1.7504789210573901e+00  -1.6444260282689145e+00  -1.5383731473388835e+00  -1.4323202366542862e+00  -1.32626738419166