<?xml version="1.0"?>
<VTKFile type="UnstructuredGrid"  version="0.1"  >
<UnstructuredGrid>
<Piece  NumberOfPoints="1369" NumberOfCells="2560">
<Points>
<DataArray  type="Float64"  NumberOfComponents="3"  format="ascii">0 0 0  0.75 0 0  1.5 0 0  2.25 0 0  3 0 0  3.75 0 0  4.5 0 0  5.25 0 0  6 0 0  6.75 0 0  7.5 0 0  8.25 0 0  9 0 0  9.75 0 0  10.5 0 0  11.25 0 0  12 0 0  12.75 0 0  13.5 0 0  14.25 0 0  15 0 0  15.75 0 0  16.5 0 0  17.25 0 0  18 0 0  18.75 0 0  19.5 0 0  20.25 0 0  21 0 0  21.75 0 0  22.5 0 0  23.25 0 0  24 0 0  24.75 0 0  25.5 0 0  26.25 0 0  27 0 0  27.75 0 0  28.5 0 0  29.25 0 0  30 0 0  30.75 0 0  31.5 0 0  32.25 0 0  33 0 0  33.75 0 0  34.5 0 0  35.25 0 0  36 0 0  36.75 0 0  37.5 0 0  38.25 0 0  39 0 0  39.75 0 0  40.5 0 0  41.25 0 0  42 0 0  42.75 0 0  43.5 0 0  44.25 0 0  45 0 0  45.75 0 0  46.5 0 0  47.25 0 0  48 0 0  48.75 0 0  49.5 0 0  50.25 0 0  51 0 0  51.75 0 0  52.5 0 0  53.25 0 0  54 0 0  54.75 0 0  55.5 0 0  56.25 0 0  57 0 0  57.75 0 0  58.5 0 0  59.25 0 0  60 0 0  0 0.5 0  0.75 0.5 0  1.5 0.5 0  2.25 0.5 0  3 0.5 0  3.75 0.5 0  4.5 0.5 0  5.25 0.5 0  6 0.5 0  6.75 0.5 0  7.5 0.5 0  8.25 0.5 0  9 0.5 0  9.75 0.5 0  10.5 0.5 0  11.25 0.5 0  12 0.5 0  12.75 0.5 0  13.5 0.5 0  14.25 0.5 0  15 0.5 0  15.75 0.5 0  16.5 0.5 0  17.25 0.5 0  18 0.5 0  18.75 0.5 0  19.5 0.5 0  20.25 0.5 0  21 0.5 0  21.75 0.5 0  22.5 0.5 0  23.25 0.5 0  24 0.5 0  24.75 0.5 0  25.5 0.5 0  26.25 0.5 0  27 0.5 0  27.75 0.5 0  28.5 0.5 0  29.25 0.5 0  30 0.5 0  30.75 0.5 0  31.5 0.5 0  32.25 0.5 0  33 0.5 0  33.75 0.5 0  34.5 0.5 0  35.25 0.5 0  36 0.5 0  36.75 0.5 0  37.5 0.5 0  38.25 0.5 0  39 0.5 0  39.75 0.5 0  40.5 0.5 0  41.25 0.5 0  42 0.5 0  42.75 0.5 0  43.5 0.5 0  44.25 0.5 0  45 0.5 0  45.75 0.5 0  46.5 0.5 0  47.25 0.5 0  48 0.5 0  48.75 0.5 0  49.5 0.5 0  50.25 0.5 0  51 0.5 0  51.75 0.5 0  52.5 0.5 0  53.25 0.5 0  54 0.5 0  54.75 0.5 0  55.5 0.5 0  56.25 0.5 0  57 0.5 0  57.75 0.5 0  58.5 0.5 0  59.25 0.5 0  60 0.5 0  0 1 0  0.75 1 0  1.5 1 0  2.25 1 0  3 1 0  3.75 1 0  4.5 1 0  5.25 1 0  6 1 0  6.75 1 0  7.5 1 0  8.25 1 0  9 1 0  9.75 1 0  10.5 1 0  11.25 1 0  12 1 0  12.75 1 0  13.5 1 0  14.25 1 0  15 1 0  15.75 1 0  16.5 1 0  17.25 1 0  18 1 0  18.75 1 0  19.5 1 0  20.25 1 0  21 1 0  21.75 1 0  22.5 1 0  23.25 1 0  24 1 0  24.75 1 0  25.5 1 0  26.25 1 0  27 1 0  27.75 1 0  28.5 1 0  29.25 1 0  30 1 0  30.75 1 0  31.5 1 0  32.25 1 0  33 1 0  33.75 1 0  34.5 1 0  35.25 1 0  36 1 0  36.75 1 0  37.5 1 0  38.25 1 0  39 1 0  39.75 1 0  40.5 1 0  41.25 1 0  42 1 0  42.75 1 0  43.5 1 0  44.25 1 0  45 1 0  45.75 1 0  46.5 1 0  47.25 1 0  48 1 0  48.75 1 0  49.5 1 0  50.25 1 0  51 1 0  51.75 1 0  52.5 1 0  53.25 1 0  54 1 0  54.75 1 0  55.5 1 0  56.25 1 0  57 1 0  57.75 1 0  58.5 1 0  59.25 1 0  60 1 0  0 1.5 0  0.75 1.5 0  1.5 1.5 0  2.25 1.5 0  3 1.5 0  3.75 1.5 0  4.5 1.5 0  5.25 1.5 0  6 1.5 0  6.75 1.5 0  7.5 1.5 0  8.25 1.5 0  9 1.5 0  9.75 1.5 0  10.5 1.5 0  11.25 1.5 0  12 1.5 0  12.75 1.5 0  13.5 1.5 0  14.25 1.5 0  15 1.5 0  15.75 1.5 0  16.5 1.5 0  17.25 1.5 0  18 1.5 0  18.75 1.5 0  19.5 1.5 0  20.25 1.5 0  21 1.5 0  21.75 1.5 0  22.5 1.5 0  23.25 1.5 0  24 1.5 0  24.75 1.5 0  25.5 1.5 0  26.25 1.5 0  27 1.5 0  27.75 1.5 0  28.5 1.5 0  29.25 1.5 0  30 1.5 0  30.75 1.5 0  31.5 1.5 0  32.25 1.5 0  33 1.5 0  33.75 1.5 0  34.5 1.5 0  35.25 1.5 0  36 1.5 0  36.75 1.5 0  37.5 1.5 0  38.25 1.5 0  39 1.5 0  39.75 1.5 0  40.5 1.5 0  41.25 1.5 0  42 1.5 0  42.75 1.5 0  43.5 1.5 0  44.25 1.5 0  45 1.5 0  45.75 1.5 0  46.5 1.5 0  47.25 1.5 0  48 1.5 0  48.75 1.5 0  49.5 1.5 0  50.25 1.5 0  51 1.5 0  51.75 1.5 0  52.5 1.5 0  53.25 1.5 0  54 1.5 0  54.75 1.5 0  55.5 1.5 0  56.25 1.5 0  57 1.5 0  57.75 1.5 0  58.5 1.5 0  59.25 1.5 0  60 1.5 0  0 2 0  0.75 2 0  1.5 2 0  2.25 2 0  3 2 0  3.75 2 0  4.5 2 0  5.25 2 0  6 2 0  6.75 2 0  7.5 2 0  8.25 2 0  9 2 0  9.75 2 0  10.5 2 0  11.25 2 0  12 2 0  12.75 2 0  13.5 2 0  14.25 2 0  15 2 0  15.75 2 0  16.5 2 0  17.25 2 0  18 2 0  18.75 2 0  19.5 2 0  20.25 2 0  21 2 0  21.75 2 0  22.5 2 0  23.25 2 0  24 2 0  24.75 2 0  25.5 2 0  26.25 2 0  27 2 0  27.75 2 0  28.5 2 0  29.25 2 0  30 2 0  30.75 2 0  31.5 2 0  32.25 2 0  33 2 0  33.75 2 0  34.5 2 0  35.25 2 0  36 2 0  36.75 2 0  37.5 2 0  38.25 2 0  39 2 0  39.75 2 0  40.5 2 0  41.25 2 0  42 2 0  42.75 2 0  43.5 2 0  44.25 2 0  45 2 0  45.75 2 0  46.5 2 0  47.25 2 0  48 2 0  48.75 2 0  49.5 2 0  50.25 2 0  51 2 0  51.75 2 0  52.5 2 0  53.25 2 0  54 2 0  54.75 2 0  55.5 2 0  56.25 2 0  57 2 0  57.75 2 0  58.5 2 0  59.25 2 0  60 2 0  0 2.5 0  0.75 2.5 0  1.5 2.5 0  2.25 2.5 0  3 2.5 0  3.75 2.5 0  4.5 2.5 0  5.25 2.5 0  6 2.5 0  6.75 2.5 0  7.5 2.5 0  8.25 2.5 0  9 2.5 0  9.75 2.5 0  10.5 2.5 0  11.25 2.5 0  12 2.5 0  12.75 2.5 0  13.5 2.5 0  14.25 2.5 0  15 2.5 0  15.75 2.5 0  16.5 2.5 0  17.25 2.5 0  18 2.5 0  18.75 2.5 0  19.5 2.5 0  20.25 2.5 0  21 2.5 0  21.75 2.5 0  22.5 2.5 0  23.25 2.5 0  24 2.5 0  24.75 2.5 0  25.5 2.5 0  26.25 2.5 0  27 2.5 0  27.75 2.5 0  28.5 2.5 0  29.25 2.5 0  30 2.5 0  30.75 2.5 0  31.5 2.5 0  32.25 2.5 0  33 2.5 0  33.75 2.5 0  34.5 2.5 0  35.25 2.5 0  36 2.5 0  36.75 2.5 0  37.5 2.5 0  38.25 2.5 0  39 2.5 0  39.75 2.5 0  40.5 2.5 0  41.25 2.5 0  42 2.5 0  42.75 2.5 0  43.5 2.5 0  44.25 2.5 0  45 2.5 0  45.75 2.5 0  46.5 2.5 0  47.25 2.5 0  48 2.5 0  48.75 2.5 0  49.5 2.5 0  50.25 2.5 0  51 2.5 0  51.75 2.5 0  52.5 2.5 0  53.25 2.5 0  54 2.5 0  54.75 2.5 0  55.5 2.5 0  56.25 2.5 0  57 2.5 0  57.75 2.5 0  58.5 2.5 0  59.25 2.5 0  60 2.5 0  0 3 0  0.75 3 0  1.5 3 0  2.25 3 0  3 3 0  3.75 3 0  4.5 3 0  5.25 3 0  6 3 0  6.75 3 0  7.5 3 0  8.25 3 0  9 3 0  9.75 3 0  10.5 3 0  11.25 3 0  12 3 0  12.75 3 0  13.5 3 0  14.25 3 0  15 3 0  15.75 3 0  16.5 3 0  17.25 3 0  18 3 0  18.75 3 0  19.5 3 0  20.25 3 0  21 3 0  21.75 3 0  22.5 3 0  23.25 3 0  24 3 0  24.75 3 0  25.5 3 0  26.25 3 0  27 3 0  27.75 3 0  28.5 3 0  29.25 3 0  30 3 0  30.75 3 0  31.5 3 0  32.25 3 0  33 3 0  33.75 3 0  34.5 3 0  35.25 3 0  36 3 0  36.75 3 0  37.5 3 0  38.25 3 0  39 3 0  39.75 3 0  40.5 3 0  41.25 3 0  42 3 0  42.75 3 0  43.5 3 0  44.25 3 0  45 3 0  45.75 3 0  46.5 3 0  47.25 3 0  48 3 0  48.75 3 0  49.5 3 0  50.25 3 0  51 3 0  51.75 3 0  52.5 3 0  53.25 3 0  54 3 0  54.75 3 0  55.5 3 0  56.25 3 0  57 3 0  57.75 3 0  58.5 3 0  59.25 3 0  60 3 0  0 3.5 0  0.75 3.5 0  1.5 3.5 0  2.25 3.5 0  3 3.5 0  3.75 3.5 0  4.5 3.5 0  5.25 3.5 0  6 3.5 0  6.75 3.5 0  7.5 3.5 0  8.25 3.5 0  9 3.5 0  9.75 3.5 0  10.5 3.5 0  11.25 3.5 0  12 3.5 0  12.75 3.5 0  13.5 3.5 0  14.25 3.5 0  15 3.5 0  15.75 3.5 0  16.5 3.5 0  17.25 3.5 0  18 3.5 0  18.75 3.5 0  19.5 3.5 0  20.25 3.5 0  21 3.5 0  21.75 3.5 0  22.5 3.5 0  23.25 3.5 0  24 3.5 0  24.75 3.5 0  25.5 3.5 0  26.25 3.5 0  27 3.5 0  27.75 3.5 0  28.5 3.5 0  29.25 3.5 0  30 3.5 0  30.75 3.5 0  31.5 3.5 0  32.25 3.5 0  33 3.5 0  33.75 3.5 0  34.5 3.5 0  35.25 3.5 0  36 3.5 0  36.75 3.5 0  37.5 3.5 0  38.25 3.5 0  39 3.5 0  39.75 3.5 0  40.5 3.5 0  41.25 3.5 0  42 3.5 0  42.75 3.5 0  43.5 3.5 0  44.25 3.5 0  45 3.5 0  45.75 3.5 0  46.5 3.5 0  47.25 3.5 0  48 3.5 0  48.75 3.5 0  49.5 3.5 0  50.25 3.5 0  51 3.5 0  51.75 3.5 0  52.5 3.5 0  53.25 3.5 0  54 3.5 0  54.75 3.5 0  55.5 3.5 0  56.25 3.5 0  57 3.5 0  57.75 3.5 0  58.5 3.5 0  59.25 3.5 0  60 3.5 0  0 4 0  0.75 4 0  1.5 4 0  2.25 4 0  3 4 0  3.75 4 0  4.5 4 0  5.25 4 0  6 4 0  6.75 4 0  7.5 4 0  8.25 4 0  9 4 0  9.75 4 0  10.5 4 0  11.25 4 0  12 4 0  12.75 4 0  13.5 4 0  14.25 4 0  15 4 0  15.75 4 0  16.5 4 0  17.25 4 0  18 4 0  18.75 4 0  19.5 4 0  20.25 4 0  21 4 0  21.75 4 0  22.5 4 0  23.25 4 0  24 4 0  24.75 4 0  25.5 4 0  26.25 4 0  27 4 0  27.75 4 0  28.5 4 0  29.25 4 0  30 4 0  30.75 4 0  31.5 4 0  32.25 4 0  33 4 0  33.75 4 0  34.5 4 0  35.25 4 0  36 4 0  36.75 4 0  37.5 4 0  38.25 4 0  39 4 0  39.75 4 0  40.5 4 0  41.25 4 0  42 4 0  42.75 4 0  43.5 4 0  44.25 4 0  45 4 0  45.75 4 0  46.5 4 0  47.25 4 0  48 4 0  48.75 4 0  49.5 4 0  50.25 4 0  51 4 0  51.75 4 0  52.5 4 0  53.25 4 0  54 4 0  54.75 4 0  55.5 4 0  56.25 4 0  57 4 0  57.75 4 0  58.5 4 0  59.25 4 0  60 4 0  0.375 0.25 0  1.125 0.25 0  1.875 0.25 0  2.625 0.25 0  3.375 0.25 0  4.125 0.25 0  4.875 0.25 0  5.625 0.25 0  6.375 0.25 0  7.125 0.25 0  7.875 0.25 0  8.625 0.25 0  9.375 0.25 0  10.125 0.25 0  10.875 0.25 0  11.625 0.25 0  12.375 0.25 0  13.125 0.25 0  13.875 0.25 0  14.625 0.25 0  15.375 0.25 0  16.125 0.25 0  16.875 0.25 0  17.625 0.25 0  18.375 0.25 0  19.125 0.25 0  19.875 0.25 0  20.625 0.25 0  21.375 0.25 0  22.125 0.25 0  22.875 0.25 0  23.625 0.25 0  24.375 0.25 0  25.125 0.25 0  25.875 0.25 0  26.625 0.25 0  27.375 0.25 0  28.125 0.25 0  28.875 0.25 0  29.625 0.25 0  30.375 0.25 0  31.125 0.25 0  31.875 0.25 0  32.625 0.25 0  33.375 0.25 0  34.125 0.25 0  34.875 0.25 0  35.625 0.25 0  36.375 0.25 0  37.125 0.25 0  37.875 0.25 0  38.625 0.25 0  39.375 0.25 0  40.125 0.25 0  40.875 0.25 0  41.625 0.25 0  42.375 0.25 0  43.125 0.25 0  43.875 0.25 0  44.625 0.25 0  45.375 0.25 0  46.125 0.25 0  46.875 0.25 0  47.625 0.25 0  48.375 0.25 0  49.125 0.25 0  49.875 0.25 0  50.625 0.25 0  51.375 0.25 0  52.125 0.25 0  52.875 0.25 0  53.625 0.25 0  54.375 0.25 0  55.125 0.25 0  55.875 0.25 0  56.625 0.25 0  57.375 0.25 0  58.125 0.25 0  58.875 0.25 0  59.625 0.25 0  0.375 0.75 0  1.125 0.75 0  1.875 0.75 0  2.625 0.75 0  3.375 0.75 0  4.125 0.75 0  4.875 0.75 0  5.625 0.75 0  6.375 0.75 0  7.125 0.75 0  7.875 0.75 0  8.625 0.75 0  9.375 0.75 0  10.125 0.75 0  10.875 0.75 0  11.625 0.75 0  12.375 0.75 0  13.125 0.75 0  13.875 0.75 0  14.625 0.75 0  15.375 0.75 0  16.125 0.75 0  16.875 0.75 0  17.625 0.75 0  18.375 0.75 0  19.125 0.75 0  19.875 0.75 0  20.625 0.75 0  21.375 0.75 0  22.125 0.75 0  22.875 0.75 0  23.625 0.75 0  24.375 0.75 0  25.125 0.75 0  25.875 0.75 0  26.625 0.75 0  27.375 0.75 0  28.125 0.75 0  28.875 0.75 0  29.625 0.75 0  30.375 0.75 0  31.125 0.75 0  31.875 0.75 0  32.625 0.75 0  33.375 0.75 0  34.125 0.75 0  34.875 0.75 0  35.625 0.75 0  36.375 0.75 0  37.125 0.75 0  37.875 0.75 0  38.625 0.75 0  39.375 0.75 0  40.125 0.75 0  40
[...]
<PointData  Scalars="f_8-1"> 
<DataArray  type="Float64"  Name="f_8-1"  format="ascii">-9.7058663344908691e+00  -9.5862981382286208e+00  -9.4651791490275397e+00  -9.3439174757718284e+00  -9.2225989629562974e+00  -9.1012591712428250e+00  -8.9799106511172866e+00  -8.8585587284451446e+00  -8.7372055462335521e+00  -8.6158523842608385e+00  -8.4945004144883747e+00  -8.3731504505119716e+00  -8.2518025359709917e+00  -8.1304562388605071e+00  -8.0091110161049368e+00  -7.8877664395691305e+00  -7.7664222215100640e+00  -7.6450781924818347e+00  -7.5237342574061898e+00  -7.4023903676697103e+00  -7.2810464988517589e+00  -7.1597026397275823e+00  -7.0383587849815612e+00  -6.9170149323056762e+00  -6.7956710805931229e+00  -6.6743272293570746e+00  -6.5529833783534617e+00  -6.4316395274662872e+00  -6.3102956766391038e+00  -6.1889518258404177e+00  -6.0676079750580048e+00  -5.9462641242821404e+00  -5.8249202735109735e+00  -5.7035764227410581e+00  -5.5822325719726331e+00  -5.4608887212043138e+00  -5.3395448704365061e+00  -5.2182010196686308e+00  -5.0968571689009483e+00  -4.9755133181332134e+00  -4.8541694673655389e+00  -4.7328256165978440e+00  -4.6114817658301650e+00  -4.4901379150624701e+00  -4.3687940642947867e+00  -4.2474502135271086e+00  -4.1261063627594199e+00  -4.0047625119917303e+00  -3.8834186612240487e+00  -3.7620748104563626e+00  -3.6407309596886477e+00  -3.5193871089209288e+00  -3.3980432581531619e+00  -3.2766994073852618e+00  -3.1553555566173062e+00  -3.0340117058485752e+00  -2.9126678550801706e+00  -2.7913240043066874e+00  -2.6699801535399992e+00  -2.5486363027359600e+00  -2.4272924520078174e+00  -2.3059486009847494e+00  -2.1846047506837847e+00  -2.0632608979898608e+00  -1.9419170516362485e+00  -1.8205731859859100e+00  -1.6992293726888588e+00  -1.5778854088106304e+00  -1.4565418499833751e+00  -1.3351971835484768e+00  -1.2138554017028416e+00  -1.0925061851108810e+00  -9.7117528281726950e-01  -8.4980085716420695e-01  -7.2852535240904348e-01  -6.0704075075074138e-01  -4.8599735400451338e-01  -3.6416499634905825e-01  -2.4409797631827407e-01  -1.2040113965469106e-01  -9.2793120417358592e-04  -9.7080745750440158e+00  -9.5862932527193028e+00  -9.4651484556018328e+00  -9.3438736780025629e+00  -9.2225541338073640e+00  -9.1012155217132626e+00  -8.9798683250824425e+00  -8.8585172513477346e+00  -8.7371645881966344e+00  -8.6158117083611412e+00  -8.4944596407377890e+00  -8.3731091998222649e+00  -8.2517607162573388e+00  -8.1304139838428018e+00  -8.0090685137480246e+00  -7.8877238240387335e+00  -7.7663795641692035e+00  -7.6450355223165358e+00  -7.5236915842658503e+00  -7.4023476938827235e+00  -7.2810038249117444e+00  -7.1596599656334714e+00  -7.0383161107808254e+00  -6.9169722580200190e+00  -6.7956284062598602e+00  -6.6742845549955954e+00  -6.5529407039767085e+00  -6.4315968530823335e+00  -6.3102530022504775e+00  -6.1889091514503960e+00  -6.0675653006664287e+00  -5.9462214498905013e+00  -5.8248775991187340e+00  -5.7035337483489554e+00  -5.5821898975802826e+00  -5.4608460468120663e+00  -5.3395021960441484e+00  -5.2181583452763309e+00  -5.0968144945086085e+00  -4.9754706437408851e+00  -4.8541267929732035e+00  -4.7327829422055139e+00  -4.6114390914378252e+00  -4.4900952406701373e+00  -4.3687513899024486e+00  -4.2474075391347670e+00  -4.1260636883670827e+00  -4.0047198375993913e+00  -3.8833759868317150e+00  -3.7620321360640312e+00  -3.6406882852963158e+00  -3.5193444345286120e+00  -3.3980005837608345e+00  -3.2766567329930436e+00  -3.1553128822249294e+00  -3.0339690314569756e+00  -2.9126251806869119e+00  -2.7912813299196495e+00  -2.6699374791373378e+00  -2.5485936283846171e+00  -2.4272497775182793e+00  -2.3059059269179247e+00  -2.1845620754511721e+00  -2.0632182261634076e+00  -1.9418743704329591e+00  -1.8205305311544011e+00  -1.6991866466398020e+00  -1.5778428751486411e+00  -1.4564988144808904e+00  -1.3351554383181921e+00  -1.2138104609206612e+00  -1.0924689427140770e+00  -9.7112031558389444e-01  -8.4978503989562670e-01  -7.2842766644989942e-01  -6.0710520173400362e-01  -4.8575390037521710e-01  -3.6445498929840581e-01  -2.4328286957502490e-01  -1.2123647723155759e-01  2.8063282730596891e-04  -9.7081527257925782e+00  -9.5865510708999508e+00  -9.4651831686673376e+00  -9.3438576144150876e+00  -9.2225233968764275e+00  -9.1011801023727372e+00  -8.9798310434835678e+00  -8.8584787874433601e+00  -8.7371254508659799e+00  -8.6157720446797459e+00  -8.4944189441481459e+00  -8.3730672892177473e+00  -8.2517181000838509e+00  -8.1303712506966264e+00  -8.0090259649277158e+00  -7.8876815027197109e+00  -7.7663374101316816e+00  -7.6449934646734699e+00  -7.5236495749135752e+00  -7.4023057062590052e+00  -7.2809618466598627e+00  -7.1596179912762983e+00  -7.0382741381249669e+00  -6.9169302861057185e+00  -6.7955864347035337e+00  -6.6742425836062029e+00  -6.5528987326739756e+00  -6.4315548818211870e+00  -6.3102110310115203e+00  -6.1888671802222213e+00  -6.0675233294439366e+00  -5.9461794786708815e+00  -5.8248356279004847e+00  -5.7034917771315063e+00  -5.5821479263631382e+00  -5.4608040755951750e+00  -5.3394602248272847e+00  -5.2181163740595693e+00  -5.0967725232918042e+00  -4.9754286725241403e+00  -4.8540848217564401e+00  -4.7327409709887700e+00  -4.6113971202210733e+00  -4.4900532694533917e+00  -4.3687094186856958e+00  -4.2473655679180222e+00  -4.1260217171503415e+00  -4.0046778663826412e+00  -3.8833340156149592e+00  -3.7619901648472940e+00  -3.6406463140795902e+00  -3.5193024633118921e+00  -3.3979586125441834e+00  -3.2766147617763881e+00  -3.1552709110086603e+00  -3.0339270602403707e+00  -2.9125832094729041e+00  -2.7912393587014335e+00  -2.6698955079380746e+00  -2.5485516571448046e+00  -2.4272078064220644e+00  -2.3058639554742815e+00  -2.1845201050899052e+00  -2.0631762530610560e+00  -1.9418324051948999e+00  -1.8204885459850166e+00  -1.6991447148906835e+00  -1.5778008121692471e+00  -1.4564570786661093e+00  -1.3351129467374319e+00  -1.2137696875527169e+00  -1.0924245694478767e+00  -9.7108312132269403e-01  -8.4973477529991082e-01  -7.2839861309370790e-01  -6.0704206627544921e-01  -4.8572098915764284e-01  -3.6432753138894469e-01  -2.4306211663075114e-01  -1.2124809593744837e-01  -1.7309974180414528e-04  -9.7081862818425009e+00  -9.5866608717548853e+00  -9.4652462002683251e+00  -9.3438885251750285e+00  -9.2225436296062675e+00  -9.1011974453261573e+00  -8.9798477935589300e+00  -8.8584955396208382e+00  -8.7371422126276297e+00  -8.6157887929761525e+00  -8.4944356026249821e+00  -8.3730837042653263e+00  -8.2517342083137546e+00  -8.1303871306281152e+00  -8.0090417305667714e+00  -7.8876972355655637e+00  -7.7663531459666997e+00  -7.6450092125239095e+00  -7.5236653325168898e+00  -7.4023214697751332e+00  -7.2809776130832304e+00  -7.1596337590433254e+00  -7.0382899064372602e+00  -6.9169460546557815e+00  -6.7956022033444654e+00  -6.6742583522912291e+00  -6.5529145013760930e+00  -6.4315706505330361e+00  -6.3102267997272712e+00  -6.1888829489403570e+00  -6.0675390981631043e+00  -5.9461952473905750e+00  -5.8248513966205344e+00  -5.7035075458516369e+00  -5.5821636950834046e+00  -5.4608198443154121e+00  -5.3394759935476053e+00  -5.2181321427798286e+00  -5.0967882920121275e+00  -4.9754444412444618e+00  -4.8541005904767580e+00  -4.7327567397090720e+00  -4.6114128889413939e+00  -4.4900690381736990e+00  -4.3687251874060049e+00  -4.2473813366383171e+00  -4.1260374858706568e+00  -4.0046936351029618e+00  -3.8833497843352704e+00  -3.7620059335675968e+00  -3.6406620827999223e+00  -3.5193182320322167e+00  -3.3979743812645138e+00  -3.2766305304967918e+00  -3.1552866797289831e+00  -3.0339428289612447e+00  -2.9125989781927837e+00  -2.7912551274253916e+00  -2.6699112766529582e+00  -2.5485674258905009e+00  -2.4272235750919364e+00  -2.3058797243749138e+00  -2.1845358734031000e+00  -2.0631920230371597e+00  -1.9418481709501778e+00  -1.8205043229812388e+00  -1.6991604641698987e+00  -1.5778166306835659e+00  -1.4564727350766680e+00  -1.3351289777762609e+00  -1.2137849036736730e+00  -1.0924414870629706e+00  -9.7109663877753105e-01  -8.4975447292050965e-01  -7.2840628657979056e-01  -6.0706738586438480e-01  -4.8570120579424841e-01  -3.6436384326531362e-01  -2.4291102625709637e-01  -1.2147453543387284e-01  4.4518386132836239e-05  -9.7081927456499422e+00  -9.5866968414185187e+00  -9.4652742593498260e+00  -9.3439073272293456e+00  -9.2225589122618015e+00  -9.1012119698522636e+00  -8.9798623996509477e+00  -8.8585104159372143e+00  -8.7371572874540266e+00  -8.6158039510125768e+00  -8.4944509525947272e+00  -8.3730992389168009e+00  -8.2517497349969648e+00  -8.1304025133092797e+00  -8.0090569629029318e+00  -7.8877123683462820e+00  -7.7663682280301174e+00  -7.6450242731173326e+00  -7.5236803854446608e+00  -7.4023365202680420e+00  -7.2809926628745814e+00  -7.1596488085861303e+00  -7.0383049558731594e+00  -6.9169611040225174e+00  -6.7956172526737246e+00  -6.6742734015958174e+00  -6.5529295506687548e+00  -6.4315856998182319e+00  -6.3102418490091186e+00  -6.1888979982201784e+00  -6.0675541474420411e+00  -5.9462102966690269e+00  -5.8248664458987092e+00  -5.7035225951297353e+00  -5.5821787443614062e+00  -5.4608348935934172e+00  -5.3394910428255598e+00  -5.2181471920578169e+00  -5.0968033412900891e+00  -4.9754594905224110e+00  -4.8541156397547178e+00  -4.7327717889870202e+00  -4.6114279382193386e+00  -4.4900840874516730e+00  -4.3687402366839727e+00  -4.2473963859162875e+00  -4.1260525351486104e+00  -4.0047086843809163e+00  -3.8833648336132365e+00  -3.7620209828455531e+00  -3.6406771320778755e+00  -3.5193332813101788e+00  -3.3979894305424705e+00  -3.2766455797747271e+00  -3.1553017290069856e+00  -3.0339578782390206e+00  -2.9126140274711618e+00  -2.7912701767019641e+00  -2.6699263259343771e+00  -2.5485824751580113e+00  -2.4272386243966819e+00  -2.3058947735769744e+00  -2.1845509228753466e+00  -2.0632070717928532e+00  -1.9418632215373646e+00  -1.8205193689165109e+00  -1.6991755215227469e+00  -1.5778316604519009e+00  -1.4564878290885557e+00  -1.3351439250446198e+00  -1.2138001713288544e+00  -1.0924560611029133e+00  -9.7111261358273560e-01  -8.4976748259992496e-01  -7.2842470277144988e-01  -6.0707361021497774e-01  -4.8572682538731093e-01  -3.6434517633506375e-01  -2.4294536188997543e-01  -1.2145649349354487e-01  -2.6341361964862259e-05  -9.7081862818424884e+00  -9.5866608717548800e+00  -9.4652462002683126e+00  -9.3438885251750499e+00  -9.2225436296062657e+00  -9.1011974453261537e+00  -8.9798477935589069e+00  -8.8584955396208436e+00  -8.7371422126276421e+00  -8.6157887929761685e+00  -8.4944356026250141e+00  -8.3730837042653299e+00  -8.2517342083137581e+00  -8.1303871306281206e+00  -8.0090417305667625e+00  -7.8876972355655788e+00  -7.7663531459667166e+00  -7.6450092125238758e+00  -7.5236653325168614e+00  -7.4023214697751349e+00  -7.2809776130832420e+00  -7.1596337590433343e+00  -7.0382899064372673e+00  -6.9169460546557895e+00  -6.7956022033444441e+00  -6.6742583522912087e+00  -6.5529145013760690e+00  -6.4315706505330361e+00  -6.3102267997272552e+00  -6.1888829489403481e+00  -6.0675390981630999e+00  -5.9461952473905741e+00  -5.8248513966205318e+00  -5.7035075458516449e+00  -5.5821636950834073e+00  -5.4608198443154059e+00  -5.3394759935475982e+00  -5.2181321427798562e+00  -5.0967882920121141e+00  -4.9754444412444512e+00  -4.8541005904767482e+00  -4.7327567397090666e+00  -4.6114128889414037e+00  -4.4900690381737052e+00  -4.3687251874060182e+00  -4.2473813366383242e+00  -4.1260374858706399e+00  -4.0046936351029752e+00  -3.8833497843352731e+00  -3.7620059335676039e+00  -3.6406620827999103e+00  -3.5193182320322127e+00  -3.3979743812645036e+00  -3.2766305304967904e+00  -3.1552866797289800e+00  -3.0339428289612367e+00  -2.9125989781927943e+00  -2.7912551274253894e+00  -2.6699112766529542e+00  -2.5485674258905098e+00  -2.4272235750919395e+00  -2.3058797243749130e+00  -2.1845358734031022e+00  -2.0631920230371588e+00  -1.9418481709501783e+00  -1.8205043229812428e+00  -1.6991604641699041e+00  -1.5778166306835630e+00  -1.4564727350766671e+00  -1.3351289777762616e+00  -1.2137849036736719e+00  -1.0924414870629757e+00  -9.7109663877753294e-01  -8.4975447292051309e-01  -7.2840628657978612e-01  -6.0706738586438536e-01  -4.8570120579424780e-01  -3.6436384326531446e-01  -2.4291102625709110e-01  -1.2147453543387265e-01  4.4518386132699101e-05  -9.7081527257925924e+00  -9.5865510708999597e+00  -9.4651831686673393e+00  -9.3438576144151053e+00  -9.2225233968764311e+00  -9.1011801023727337e+00  -8.9798310434835411e+00  -8.8584787874433566e+00  -8.7371254508659622e+00  -8.6157720446797583e+00  -8.4944189441481726e+00  -8.3730672892176941e+00  -8.2517181000838438e+00  -8.1303712506966086e+00  -8.0090259649277300e+00  -7.8876815027197402e+00  -7.7663374101316993e+00  -7.6449934646734645e+00  -7.5236495749135699e+00  -7.4023057062590238e+00  -7.2809618466598485e+00  -7.1596179912762858e+00  -7.0382741381249776e+00  -6.9169302861056989e+00  -6.7955864347035186e+00  -6.6742425836061852e+00  -6.5528987326739854e+00  -6.4315548818211745e+00  -6.3102110310115451e+00  -6.1888671802222159e+00  -6.0675233294439481e+00  -5.9461794786708637e+00  -5.8248356279005051e+00  -5.7034917771315019e+00  -5.5821479263631266e+00  -5.4608040755951697e+00  -5.3394602248272696e+00  -5.2181163740595382e+00  -5.0967725232918131e+00  -4.9754286725241172e+00  -4.8540848217564339e+00  -4.7327409709887673e+00  -4.6113971202210875e+00  -4.4900532694533943e+00  -4.3687094186857012e+00  -4.2473655679180160e+00  -4.1260217171503308e+00  -4.0046778663826528e+00  -3.8833340156149836e+00  -3.7619901648472762e+00  -3.6406463140795933e+00  -3.5193024633118872e+00  -3.3979586125441710e+00  -3.2766147617763814e+00  -3.1552709110086559e+00  -3.0339270602403632e+00  -2.9125832094729001e+00  -2.7912393587014397e+00  -2.6698955079380831e+00  -2.5485516571448108e+00  -2.4272078064220692e+00  -2.3058639554742872e+00  -2.1845201050899026e+00  -2.0631762530610573e+00  -1.9418324051948994e+00  -1.8204885459850180e+00  -1.6991447148906889e+00  -1.5778008121692508e+00  -1.4564570786661064e+00  -1.3351129467374336e+00  -1.2137696875527177e+00  -1.0924245694478780e+00  -9.7108312132269725e-01  -8.4973477529991104e-01  -7.2839861309371190e-01  -6.0704206627544566e-01  -4.8572098915764550e-01  -3.6432753138894042e-01  -2.4306211663074784e-01  -1.2124809593744874e-01  -1.7309974180383279e-04  -9.7080745750440229e+00  -9.5862932527192903e+00  -9.4651484556017955e+00  -9.3438736780025415e+00  -9.2225541338073675e+00  -9.1012155217132538e+00  -8.9798683250824087e+00  -8.8585172513476955e+00  -8.7371645881966042e+00  -8.6158117083611554e+00  -8.4944596407377944e+00  -8.3731091998222329e+00  -8.2517607162573263e+00  -8.1304139838427982e+00  -8.0090685137480850e+00  -7.8877238240387513e+00  -7.7663795641692133e+00  -7.6450355223165571e+00  -7.5236915842658370e+00  -7.4023476938827395e+00  -7.2810038249117337e+00  -7.1596599656334741e+00  -7.0383161107808325e+00  -6.9169722580200101e+00  -6.7956284062598611e+00  -6.6742845549955883e+00  -6.5529407039767085e+00  -6.4315968530823282e+00  -6.3102530022504810e+00  -6.1889091514504111e+00  -6.0675653006664403e+00  -5.9462214498905022e+00  -5.8248775991187394e+00  -5.7035337483489625e+00  -5.5821898975802897e+00  -5.4608460468120672e+00  -5.3395021960441280e+00  -5.2181583452763078e+00  -5.0968144945085845e+00  -4.9754706437408736e+00  -4.8541267929731937e+00  -4.7327829422055121e+00  -4.6114390914378376e+00  -4.4900952406701480e+00  -4.3687513899024610e+00  -4.2474075391347590e+00  -4.1260636883670738e+00  -4.0047198375994180e+00  -3.8833759868317093e+00  -3.7620321360640210e+00  -3.6406882852963163e+00  -3.5193444345286036e+00  -3.3980005837608234e+00  -3.2766567329930134e+00  -3.1553128822249286e+00  -3.0339690314569601e+00  -2.9126251806869092e+00  -2.7912813299196508e+00  -2.6699374791373391e+00  -2.5485936283846322e+00  -2.4272497775182900e+00  -2.3059059269179381e+00  -2.1845620754511739e+00  -2.0632182261634120e+00  -1.9418743704329591e+00  -1.8205305311544002e+00  -1.6991866466398036e+00  -1.5778428751486475e+00  -1.4564988144808859e+00  -1.3351554383181961e+00  -1.2138104609206624e+00  -1.0924689427140810e+00  -9.7112031558390099e-01  -8.4978503989562348e-01  -7.2842766644990431e-01  -6.0710520173400429e-01  -4.8575390037522048e-01  -3.6445498929840286e-01  -2.4328286957502393e-01  -1.2123647723155807e-01  2.8063282730557285e-04  -9.7058663344908229e+00  -9.5862981382286208e+00  -9.4651791490275077e+00  -9.3439174757718231e+00  -9.2225989629563010e+00  -9.1012591712428534e+00  -8.9799106511172475e+00  -8.8585587284451197e+00  -8.7372055462335165e+00  -8.6158523842608741e+00  -8.4945004144883818e+00  -8.3731504505119361e+00  -8.2518025359710023e+00  -8.1304562388604751e+00  -8.0091110161050114e+00  -7.8877664395691856e+00  -7.7664222215100427e+00  -7.6450781924818720e+00  -7.5237342574061703e+00  -7.4023903676697325e+00  -7.2810464988517447e+00  -7.1597026397275956e+00  -7.0383587849815585e+00  -6.9170149323056780e+00  -6.7956710805931300e+00  -6.6743272293570364e+00  -6.5529833783534794e+00  -6.4316395274662606e+00  -6.3102956766391172e+00  -6.1889518258404213e+00  -6.0676079750580083e+00  -5.9462641242821608e+00  -5.8249202735109655e+00  -5.7035764227410803e+00  -5.5822325719726313e+00  -5.4608887212043156e+00  -5.3395448704364892e+00  -5.2182010196686006e+00  -5.0968571689009297e+00  -4.9755133181332072e+00  -4.8541694673655238e+00  -4.7328256165978626e+00  -4.6114817658301730e+00  -4.4901379150624896e+00  -4.3687940642947991e+00  -4.2474502135270864e+00  -4.1261063627594199e+00  -4.0047625119917383e+00  -3.8834186612240487e+00  -3.7620748104563595e+00  -3.6407309596886375e+00  -3.5193871089209341e+00  -3.3980432581531503e+00  -3.2766994073852427e+00  -3.1553555566173084e+00  -3.0340117058485583e+00  -2.9126678550801719e+00  -2.7913240043066883e+00  -2.6699801535400152e+00  -2.5486363027359658e+00  -2.4272924520078272e+00  -2.3059486009847601e+00  -2.1846047506837940e+00  -2.0632608979898612e+00  -1.9419170516362525e+00  -1.8205731859859084e+00  -1.6992293726888608e+00  -1.5778854088106324e+00  -1.4565418499833711e+00  -1.3351971835484806e+00  -1.2138554017028429e+00  -1.0925061851108873e+00  -9.7117528281727061e-01  -8.4980085716420639e-01  -7.2852535240904914e-01  -6.0704075075074237e-01  -4.8599735400451588e-01  -3.6416499634905602e-01  -2.4409797631827326e-01  -1.2040113965469147e-01  -9.2793120417352477e-04  -9.6463999358465671e+00  -9.5256292905011559e+00  -9.4044361071034039e+00  -9.2831442640071113e+00  -9.1618162398876724e+00  -9.0404735239600384e+00  -8.9191244906823108e+00  -8.7977727172382458e+00  -8.6764200280861878e+00  -8.5550677389089991e+00  -8.4337168159627556e+00  -8.3123676823993726e+00  -8.1910202696388428e+00  -8.0696742257554401e+00  -7.9483291303912402e+00  -7.8269846220449724e+00  -7.7056404443913484e+00  -7.5842964385686864e+00  -7.4629525165025328e+00  -7.3416086333406607e+00  -7.2202647677800860e+00  -7.0989209101299187e+00  -6.9775770560812322e+00  -6.8562332037147762e+00  -6.7348893521525852e+00  -6.6135455009876845e+00  -6.4922016500183544e+00  -6.3708577991497881e+00  -6.2495139483301845e+00  -6.1281700975370024e+00  -6.0068262467559101e+00  -5.8854823959819029e+00  -5.7641385452107423e+00  -5.6427946944415366e+00  -5.5214508436729535e+00  -5.4001069929049264e+00  -5.2787631421369969e+00  -5.1574192913692469e+00  -5.0360754406015076e+00  -4.9147315898338189e+00  -4.7933877390661168e+00  -4.6720438882984361e+00  -4.5507000375307536e+00  -4.4293561867630622e+00  -4.3080123359953788e+00  -4.1866684852276954e+00  -4.0653246344600138e+00  -3.9439807836923202e+00  -3.8226369329246408e+00  -3.7012930821569534e+00  -3.5799492313892332e+00  -3.4586053806214920e+00  -3.3372615298536745e+00  -3.2159176790857300e+00  -3.0945738283174768e+00  -2.9732299775487334e+00  -2.8518861267785320e+00  -2.7305422760066396e+00  -2.6091984252275426e+00  -2.4878545744445568e+00  -2.3665107236226834e+00  -2.2451668728098322e+00  -2.1238230217693332e+00  -2.0024791709509087e+00  -1.8811353187354336e+00  -1.7597914686391580e+00  -1.6384476100733771e+00  -1.51710376663459