<?xml version="1.0"?>
<VTKFile type="UnstructuredGrid"  version="0.1"  >
<UnstructuredGrid>
<Piece  NumberOfPoints="1369" NumberOfCells="2560">
<Points>
<DataArray  type="Float64"  NumberOfComponents="3"  format="ascii">0 0 0  0.75 0 0  1.5 0 0  2.25 0 0  3 0 0  3.75 0 0  4.5 0 0  5.25 0 0  6 0 0  6.75 0 0  7.5 0 0  8.25 0 0  9 0 0  9.75 0 0  10.5 0 0  11.25 0 0  12 0 0  12.75 0 0  13.5 0 0  14.25 0 0  15 0 0  15.75 0 0  16.5 0 0  17.25 0 0  18 0 0  18.75 0 0  19.5 0 0  20.25 0 0  21 0 0  21.75 0 0  22.5 0 0  23.25 0 0  24 0 0  24.75 0 0  25.5 0 0  26.25 0 0  27 0 0  27.75 0 0  28.5 0 0  29.25 0 0  30 0 0  30.75 0 0  31.5 0 0  32.25 0 0  33 0 0  33.75 0 0  34.5 0 0  35.25 0 0  36 0 0  36.75 0 0  37.5 0 0  38.25 0 0  39 0 0  39.75 0 0  40.5 0 0  41.25 0 0  42 0 0  42.75 0 0  43.5 0 0  44.25 0 0  45 0 0  45.75 0 0  46.5 0 0  47.25 0 0  48 0 0  48.75 0 0  49.5 0 0  50.25 0 0  51 0 0  51.75 0 0  52.5 0 0  53.25 0 0  54 0 0  54.75 0 0  55.5 0 0  56.25 0 0  57 0 0  57.75 0 0  58.5 0 0  59.25 0 0  60 0 0  0 0.5 0  0.75 0.5 0  1.5 0.5 0  2.25 0.5 0  3 0.5 0  3.75 0.5 0  4.5 0.5 0  5.25 0.5 0  6 0.5 0  6.75 0.5 0  7.5 0.5 0  8.25 0.5 0  9 0.5 0  9.75 0.5 0  10.5 0.5 0  11.25 0.5 0  12 0.5 0  12.75 0.5 0  13.5 0.5 0  14.25 0.5 0  15 0.5 0  15.75 0.5 0  16.5 0.5 0  17.25 0.5 0  18 0.5 0  18.75 0.5 0  19.5 0.5 0  20.25 0.5 0  21 0.5 0  21.75 0.5 0  22.5 0.5 0  23.25 0.5 0  24 0.5 0  24.75 0.5 0  25.5 0.5 0  26.25 0.5 0  27 0.5 0  27.75 0.5 0  28.5 0.5 0  29.25 0.5 0  30 0.5 0  30.75 0.5 0  31.5 0.5 0  32.25 0.5 0  33 0.5 0  33.75 0.5 0  34.5 0.5 0  35.25 0.5 0  36 0.5 0  36.75 0.5 0  37.5 0.5 0  38.25 0.5 0  39 0.5 0  39.75 0.5 0  40.5 0.5 0  41.25 0.5 0  42 0.5 0  42.75 0.5 0  43.5 0.5 0  44.25 0.5 0  45 0.5 0  45.75 0.5 0  46.5 0.5 0  47.25 0.5 0  48 0.5 0  48.75 0.5 0  49.5 0.5 0  50.25 0.5 0  51 0.5 0  51.75 0.5 0  52.5 0.5 0  53.25 0.5 0  54 0.5 0  54.75 0.5 0  55.5 0.5 0  56.25 0.5 0  57 0.5 0  57.75 0.5 0  58.5 0.5 0  59.25 0.5 0  60 0.5 0  0 1 0  0.75 1 0  1.5 1 0  2.25 1 0  3 1 0  3.75 1 0  4.5 1 0  5.25 1 0  6 1 0  6.75 1 0  7.5 1 0  8.25 1 0  9 1 0  9.75 1 0  10.5 1 0  11.25 1 0  12 1 0  12.75 1 0  13.5 1 0  14.25 1 0  15 1 0  15.75 1 0  16.5 1 0  17.25 1 0  18 1 0  18.75 1 0  19.5 1 0  20.25 1 0  21 1 0  21.75 1 0  22.5 1 0  23.25 1 0  24 1 0  24.75 1 0  25.5 1 0  26.25 1 0  27 1 0  27.75 1 0  28.5 1 0  29.25 1 0  30 1 0  30.75 1 0  31.5 1 0  32.25 1 0  33 1 0  33.75 1 0  34.5 1 0  35.25 1 0  36 1 0  36.75 1 0  37.5 1 0  38.25 1 0  39 1 0  39.75 1 0  40.5 1 0  41.25 1 0  42 1 0  42.75 1 0  43.5 1 0  44.25 1 0  45 1 0  45.75 1 0  46.5 1 0  47.25 1 0  48 1 0  48.75 1 0  49.5 1 0  50.25 1 0  51 1 0  51.75 1 0  52.5 1 0  53.25 1 0  54 1 0  54.75 1 0  55.5 1 0  56.25 1 0  57 1 0  57.75 1 0  58.5 1 0  59.25 1 0  60 1 0  0 1.5 0  0.75 1.5 0  1.5 1.5 0  2.25 1.5 0  3 1.5 0  3.75 1.5 0  4.5 1.5 0  5.25 1.5 0  6 1.5 0  6.75 1.5 0  7.5 1.5 0  8.25 1.5 0  9 1.5 0  9.75 1.5 0  10.5 1.5 0  11.25 1.5 0  12 1.5 0  12.75 1.5 0  13.5 1.5 0  14.25 1.5 0  15 1.5 0  15.75 1.5 0  16.5 1.5 0  17.25 1.5 0  18 1.5 0  18.75 1.5 0  19.5 1.5 0  20.25 1.5 0  21 1.5 0  21.75 1.5 0  22.5 1.5 0  23.25 1.5 0  24 1.5 0  24.75 1.5 0  25.5 1.5 0  26.25 1.5 0  27 1.5 0  27.75 1.5 0  28.5 1.5 0  29.25 1.5 0  30 1.5 0  30.75 1.5 0  31.5 1.5 0  32.25 1.5 0  33 1.5 0  33.75 1.5 0  34.5 1.5 0  35.25 1.5 0  36 1.5 0  36.75 1.5 0  37.5 1.5 0  38.25 1.5 0  39 1.5 0  39.75 1.5 0  40.5 1.5 0  41.25 1.5 0  42 1.5 0  42.75 1.5 0  43.5 1.5 0  44.25 1.5 0  45 1.5 0  45.75 1.5 0  46.5 1.5 0  47.25 1.5 0  48 1.5 0  48.75 1.5 0  49.5 1.5 0  50.25 1.5 0  51 1.5 0  51.75 1.5 0  52.5 1.5 0  53.25 1.5 0  54 1.5 0  54.75 1.5 0  55.5 1.5 0  56.25 1.5 0  57 1.5 0  57.75 1.5 0  58.5 1.5 0  59.25 1.5 0  60 1.5 0  0 2 0  0.75 2 0  1.5 2 0  2.25 2 0  3 2 0  3.75 2 0  4.5 2 0  5.25 2 0  6 2 0  6.75 2 0  7.5 2 0  8.25 2 0  9 2 0  9.75 2 0  10.5 2 0  11.25 2 0  12 2 0  12.75 2 0  13.5 2 0  14.25 2 0  15 2 0  15.75 2 0  16.5 2 0  17.25 2 0  18 2 0  18.75 2 0  19.5 2 0  20.25 2 0  21 2 0  21.75 2 0  22.5 2 0  23.25 2 0  24 2 0  24.75 2 0  25.5 2 0  26.25 2 0  27 2 0  27.75 2 0  28.5 2 0  29.25 2 0  30 2 0  30.75 2 0  31.5 2 0  32.25 2 0  33 2 0  33.75 2 0  34.5 2 0  35.25 2 0  36 2 0  36.75 2 0  37.5 2 0  38.25 2 0  39 2 0  39.75 2 0  40.5 2 0  41.25 2 0  42 2 0  42.75 2 0  43.5 2 0  44.25 2 0  45 2 0  45.75 2 0  46.5 2 0  47.25 2 0  48 2 0  48.75 2 0  49.5 2 0  50.25 2 0  51 2 0  51.75 2 0  52.5 2 0  53.25 2 0  54 2 0  54.75 2 0  55.5 2 0  56.25 2 0  57 2 0  57.75 2 0  58.5 2 0  59.25 2 0  60 2 0  0 2.5 0  0.75 2.5 0  1.5 2.5 0  2.25 2.5 0  3 2.5 0  3.75 2.5 0  4.5 2.5 0  5.25 2.5 0  6 2.5 0  6.75 2.5 0  7.5 2.5 0  8.25 2.5 0  9 2.5 0  9.75 2.5 0  10.5 2.5 0  11.25 2.5 0  12 2.5 0  12.75 2.5 0  13.5 2.5 0  14.25 2.5 0  15 2.5 0  15.75 2.5 0  16.5 2.5 0  17.25 2.5 0  18 2.5 0  18.75 2.5 0  19.5 2.5 0  20.25 2.5 0  21 2.5 0  21.75 2.5 0  22.5 2.5 0  23.25 2.5 0  24 2.5 0  24.75 2.5 0  25.5 2.5 0  26.25 2.5 0  27 2.5 0  27.75 2.5 0  28.5 2.5 0  29.25 2.5 0  30 2.5 0  30.75 2.5 0  31.5 2.5 0  32.25 2.5 0  33 2.5 0  33.75 2.5 0  34.5 2.5 0  35.25 2.5 0  36 2.5 0  36.75 2.5 0  37.5 2.5 0  38.25 2.5 0  39 2.5 0  39.75 2.5 0  40.5 2.5 0  41.25 2.5 0  42 2.5 0  42.75 2.5 0  43.5 2.5 0  44.25 2.5 0  45 2.5 0  45.75 2.5 0  46.5 2.5 0  47.25 2.5 0  48 2.5 0  48.75 2.5 0  49.5 2.5 0  50.25 2.5 0  51 2.5 0  51.75 2.5 0  52.5 2.5 0  53.25 2.5 0  54 2.5 0  54.75 2.5 0  55.5 2.5 0  56.25 2.5 0  57 2.5 0  57.75 2.5 0  58.5 2.5 0  59.25 2.5 0  60 2.5 0  0 3 0  0.75 3 0  1.5 3 0  2.25 3 0  3 3 0  3.75 3 0  4.5 3 0  5.25 3 0  6 3 0  6.75 3 0  7.5 3 0  8.25 3 0  9 3 0  9.75 3 0  10.5 3 0  11.25 3 0  12 3 0  12.75 3 0  13.5 3 0  14.25 3 0  15 3 0  15.75 3 0  16.5 3 0  17.25 3 0  18 3 0  18.75 3 0  19.5 3 0  20.25 3 0  21 3 0  21.75 3 0  22.5 3 0  23.25 3 0  24 3 0  24.75 3 0  25.5 3 0  26.25 3 0  27 3 0  27.75 3 0  28.5 3 0  29.25 3 0  30 3 0  30.75 3 0  31.5 3 0  32.25 3 0  33 3 0  33.75 3 0  34.5 3 0  35.25 3 0  36 3 0  36.75 3 0  37.5 3 0  38.25 3 0  39 3 0  39.75 3 0  40.5 3 0  41.25 3 0  42 3 0  42.75 3 0  43.5 3 0  44.25 3 0  45 3 0  45.75 3 0  46.5 3 0  47.25 3 0  48 3 0  48.75 3 0  49.5 3 0  50.25 3 0  51 3 0  51.75 3 0  52.5 3 0  53.25 3 0  54 3 0  54.75 3 0  55.5 3 0  56.25 3 0  57 3 0  57.75 3 0  58.5 3 0  59.25 3 0  60 3 0  0 3.5 0  0.75 3.5 0  1.5 3.5 0  2.25 3.5 0  3 3.5 0  3.75 3.5 0  4.5 3.5 0  5.25 3.5 0  6 3.5 0  6.75 3.5 0  7.5 3.5 0  8.25 3.5 0  9 3.5 0  9.75 3.5 0  10.5 3.5 0  11.25 3.5 0  12 3.5 0  12.75 3.5 0  13.5 3.5 0  14.25 3.5 0  15 3.5 0  15.75 3.5 0  16.5 3.5 0  17.25 3.5 0  18 3.5 0  18.75 3.5 0  19.5 3.5 0  20.25 3.5 0  21 3.5 0  21.75 3.5 0  22.5 3.5 0  23.25 3.5 0  24 3.5 0  24.75 3.5 0  25.5 3.5 0  26.25 3.5 0  27 3.5 0  27.75 3.5 0  28.5 3.5 0  29.25 3.5 0  30 3.5 0  30.75 3.5 0  31.5 3.5 0  32.25 3.5 0  33 3.5 0  33.75 3.5 0  34.5 3.5 0  35.25 3.5 0  36 3.5 0  36.75 3.5 0  37.5 3.5 0  38.25 3.5 0  39 3.5 0  39.75 3.5 0  40.5 3.5 0  41.25 3.5 0  42 3.5 0  42.75 3.5 0  43.5 3.5 0  44.25 3.5 0  45 3.5 0  45.75 3.5 0  46.5 3.5 0  47.25 3.5 0  48 3.5 0  48.75 3.5 0  49.5 3.5 0  50.25 3.5 0  51 3.5 0  51.75 3.5 0  52.5 3.5 0  53.25 3.5 0  54 3.5 0  54.75 3.5 0  55.5 3.5 0  56.25 3.5 0  57 3.5 0  57.75 3.5 0  58.5 3.5 0  59.25 3.5 0  60 3.5 0  0 4 0  0.75 4 0  1.5 4 0  2.25 4 0  3 4 0  3.75 4 0  4.5 4 0  5.25 4 0  6 4 0  6.75 4 0  7.5 4 0  8.25 4 0  9 4 0  9.75 4 0  10.5 4 0  11.25 4 0  12 4 0  12.75 4 0  13.5 4 0  14.25 4 0  15 4 0  15.75 4 0  16.5 4 0  17.25 4 0  18 4 0  18.75 4 0  19.5 4 0  20.25 4 0  21 4 0  21.75 4 0  22.5 4 0  23.25 4 0  24 4 0  24.75 4 0  25.5 4 0  26.25 4 0  27 4 0  27.75 4 0  28.5 4 0  29.25 4 0  30 4 0  30.75 4 0  31.5 4 0  32.25 4 0  33 4 0  33.75 4 0  34.5 4 0  35.25 4 0  36 4 0  36.75 4 0  37.5 4 0  38.25 4 0  39 4 0  39.75 4 0  40.5 4 0  41.25 4 0  42 4 0  42.75 4 0  43.5 4 0  44.25 4 0  45 4 0  45.75 4 0  46.5 4 0  47.25 4 0  48 4 0  48.75 4 0  49.5 4 0  50.25 4 0  51 4 0  51.75 4 0  52.5 4 0  53.25 4 0  54 4 0  54.75 4 0  55.5 4 0  56.25 4 0  57 4 0  57.75 4 0  58.5 4 0  59.25 4 0  60 4 0  0.375 0.25 0  1.125 0.25 0  1.875 0.25 0  2.625 0.25 0  3.375 0.25 0  4.125 0.25 0  4.875 0.25 0  5.625 0.25 0  6.375 0.25 0  7.125 0.25 0  7.875 0.25 0  8.625 0.25 0  9.375 0.25 0  10.125 0.25 0  10.875 0.25 0  11.625 0.25 0  12.375 0.25 0  13.125 0.25 0  13.875 0.25 0  14.625 0.25 0  15.375 0.25 0  16.125 0.25 0  16.875 0.25 0  17.625 0.25 0  18.375 0.25 0  19.125 0.25 0  19.875 0.25 0  20.625 0.25 0  21.375 0.25 0  22.125 0.25 0  22.875 0.25 0  23.625 0.25 0  24.375 0.25 0  25.125 0.25 0  25.875 0.25 0  26.625 0.25 0  27.375 0.25 0  28.125 0.25 0  28.875 0.25 0  29.625 0.25 0  30.375 0.25 0  31.125 0.25 0  31.875 0.25 0  32.625 0.25 0  33.375 0.25 0  34.125 0.25 0  34.875 0.25 0  35.625 0.25 0  36.375 0.25 0  37.125 0.25 0  37.875 0.25 0  38.625 0.25 0  39.375 0.25 0  40.125 0.25 0  40.875 0.25 0  41.625 0.25 0  42.375 0.25 0  43.125 0.25 0  43.875 0.25 0  44.625 0.25 0  45.375 0.25 0  46.125 0.25 0  46.875 0.25 0  47.625 0.25 0  48.375 0.25 0  49.125 0.25 0  49.875 0.25 0  50.625 0.25 0  51.375 0.25 0  52.125 0.25 0  52.875 0.25 0  53.625 0.25 0  54.375 0.25 0  55.125 0.25 0  55.875 0.25 0  56.625 0.25 0  57.375 0.25 0  58.125 0.25 0  58.875 0.25 0  59.625 0.25 0  0.375 0.75 0  1.125 0.75 0  1.875 0.75 0  2.625 0.75 0  3.375 0.75 0  4.125 0.75 0  4.875 0.75 0  5.625 0.75 0  6.375 0.75 0  7.125 0.75 0  7.875 0.75 0  8.625 0.75 0  9.375 0.75 0  10.125 0.75 0  10.875 0.75 0  11.625 0.75 0  12.375 0.75 0  13.125 0.75 0  13.875 0.75 0  14.625 0.75 0  15.375 0.75 0  16.125 0.75 0  16.875 0.75 0  17.625 0.75 0  18.375 0.75 0  19.125 0.75 0  19.875 0.75 0  20.625 0.75 0  21.375 0.75 0  22.125 0.75 0  22.875 0.75 0  23.625 0.75 0  24.375 0.75 0  25.125 0.75 0  25.875 0.75 0  26.625 0.75 0  27.375 0.75 0  28.125 0.75 0  28.875 0.75 0  29.625 0.75 0  30.375 0.75 0  31.125 0.75 0  31.875 0.75 0  32.625 0.75 0  33.375 0.75 0  34.125 0.75 0  34.875 0.75 0  35.625 0.75 0  36.375 0.75 0  37.125 0.75 0  37.875 0.75 0  38.625 0.75 0  39.375 0.75 0  40.125 0.75 0  40
[...]
<PointData  Scalars="f_8-1"> 
<DataArray  type="Float64"  Name="f_8-1"  format="ascii">-9.7058673399281812e+00  -9.5862996932773825e+00  -9.4651809617644087e+00  -9.3439194805352894e+00  -9.2226010700161343e+00  -9.1012613022743949e+00  -8.9799127429379411e+00  -8.8585607388641652e+00  -8.7372074520713632e+00  -8.6158541593767008e+00  -8.4945020280356864e+00  -8.3731518920627721e+00  -8.2518038221415821e+00  -8.1304573991243014e+00  -8.0091120779455078e+00  -7.8877674226931598e+00  -7.7664231380702082e+00  -7.6450790493512617e+00  -7.5237350582390370e+00  -7.4023911143490437e+00  -7.2810471923243396e+00  -7.1597032804714820e+00  -7.0383593732378431e+00  -6.9170154681995664e+00  -6.7956715641898411e+00  -6.6743276606917172e+00  -6.5529837574447729e+00  -6.4316398543244535e+00  -6.3102959512696639e+00  -6.1889520482463194e+00  -6.0676081452408575e+00  -5.9462642422427727e+00  -5.8249203392498732e+00  -5.7035764362584507e+00  -5.5822325332686455e+00  -5.4608886302790127e+00  -5.3395447272899377e+00  -5.2182008243007978e+00  -5.0968569213118888e+00  -4.9755130183228991e+00  -4.8541691153339865e+00  -4.7328252123450429e+00  -4.6114813093561500e+00  -4.4901374063672419e+00  -4.3687935033783436e+00  -4.2474496003894426e+00  -4.1261056974005470e+00  -4.0047617944116443e+00  -3.8834178914227393e+00  -3.7620739884338263e+00  -3.6407300854449089e+00  -3.5193861824559489e+00  -3.3980422794669742e+00  -3.2766983764778734e+00  -3.1553544734887233e+00  -3.0340105704988360e+00  -2.9126666675093262e+00  -2.7913227645149283e+00  -2.6699788615274129e+00  -2.5486349585034698e+00  -2.4272910555551022e+00  -2.3059471523170081e+00  -2.1846032497948253e+00  -2.0632593449118191e+00  -1.9419154463110897e+00  -1.8205715286199180e+00  -1.6992276628381702e+00  -1.5778836477785447e+00  -1.4565400348007520e+00  -1.3351953219184083e+00  -1.2138534762991289e+00  -1.0925042362195079e+00  -9.7117322571966991e-01  -8.4979886456429776e-01  -7.2852310140104193e-01  -6.0703878187753935e-01  -4.8599470951275658e-01  -3.6416287981785656e-01  -2.4409430236633567e-01  -1.2040165861353834e-01  -9.2810391410098913e-04  -9.7080747094932054e+00  -9.5862947196058954e+00  -9.4651502122813955e+00  -9.3438756302736579e+00  -9.2225561996746546e+00  -9.1012176220825634e+00  -8.9798703950624539e+00  -8.8585192465133655e+00  -8.7371664801243103e+00  -8.6158134738767966e+00  -8.4944612557933663e+00  -8.3731106506156259e+00  -8.2517620107891450e+00  -8.1304151467332240e+00  -8.0090695725887020e+00  -7.8877248005586473e+00  -7.7663804723455696e+00  -7.6450363700671158e+00  -7.5236923757164167e+00  -7.4023484310865166e+00  -7.2810045088714590e+00  -7.1596605968438274e+00  -7.0383166894909701e+00  -6.9169727843594542e+00  -6.7956288802972082e+00  -6.6742849767679315e+00  -6.5529410735040949e+00  -6.4315971703756993e+00  -6.3102532673157503e+00  -6.1889093642907733e+00  -6.0675654612836087e+00  -5.9462215582853961e+00  -5.8248776552918615e+00  -5.7035337523005554e+00  -5.5821898493104856e+00  -5.4608459463209620e+00  -5.3395020433317573e+00  -5.2181581403426893e+00  -5.0968142373537129e+00  -4.9754703343647586e+00  -4.8541264313758248e+00  -4.7327825283869016e+00  -4.6114386253979927e+00  -4.4900947224090952e+00  -4.3687508194201854e+00  -4.2474069164312906e+00  -4.1260630134423941e+00  -4.0047191104534878e+00  -3.8833752074645882e+00  -3.7620313044756730e+00  -3.6406874014867587e+00  -3.5193434984978129e+00  -3.3979995955088289e+00  -3.2766556925198258e+00  -3.1553117895305167e+00  -3.0339678865413782e+00  -2.9126239835502230e+00  -2.7912800805619038e+00  -2.6699361775589434e+00  -2.5485922745853906e+00  -2.4272483715005446e+00  -2.3059044686789045e+00  -2.1845605650047095e+00  -2.0632166634856230e+00  -1.9418727556072140e+00  -1.8205288640139898e+00  -1.6991849276619846e+00  -1.5778411033432729e+00  -1.4564969922948923e+00  -1.3351535608691874e+00  -1.2138085386011039e+00  -1.0924669569897858e+00  -9.7111829874310684e-01  -8.4978294519729691e-01  -7.2842554975874119e-01  -6.0710300012101492e-01  -4.8575155452102331e-01  -3.6445255159077050e-01  -2.4328004536671272e-01  -1.2123643693853030e-01  2.8059668217598143e-04  -9.7081525536189162e+00  -9.5865521777296969e+00  -9.4651847831908675e+00  -9.3438595161544509e+00  -9.2225254554325193e+00  -9.1011822130262630e+00  -8.9798331315301638e+00  -8.8584808036214806e+00  -8.7371273573856350e+00  -8.6157738364959524e+00  -8.4944206067448178e+00  -8.3730687857754518e+00  -8.2517194214959222e+00  -8.1303724246791926e+00  -8.0090270289931365e+00  -7.8876824850090603e+00  -7.7663383265937087e+00  -7.6449943229293194e+00  -7.5236503782711637e+00  -7.4023064561101011e+00  -7.2809625436224241e+00  -7.1596186356516220e+00  -7.0382747300754280e+00  -6.9169308257215389e+00  -6.7955869220359268e+00  -6.6742430186834643e+00  -6.5528991155118046e+00  -6.4315552124280027e+00  -6.3102113093919421e+00  -6.1888674063786437e+00  -6.0675235033776778e+00  -5.9461796003826048e+00  -5.8248356973906059e+00  -5.7034917944001755e+00  -5.5821478914104485e+00  -5.4608039884211959e+00  -5.3394600854320489e+00  -5.2181161824430644e+00  -5.0967722794540684e+00  -4.9754283764651532e+00  -4.8540844734762256e+00  -4.7327405704873149e+00  -4.6113966674983997e+00  -4.4900527645094961e+00  -4.3687088615205925e+00  -4.2473649585316959e+00  -4.1260210555427976e+00  -4.0046771525538869e+00  -3.8833332495649966e+00  -3.7619893465760907e+00  -3.6406454435871791e+00  -3.5193015405982409e+00  -3.3979576376093203e+00  -3.2766137346203008e+00  -3.1552698316313639e+00  -3.0339259286418785e+00  -2.9125820256532196e+00  -2.7912381226606890e+00  -2.6698942196761699e+00  -2.5485503166624590e+00  -2.4272064137182205e+00  -2.3058625105534278e+00  -2.1845186079434646e+00  -2.0631747037168204e+00  -1.9418308035941092e+00  -1.8204868922910551e+00  -1.6991430087511969e+00  -1.5777990544554270e+00  -1.4564552675633986e+00  -1.3351110862372566e+00  -1.2137677699805791e+00  -1.0924226095008449e+00  -9.7108109389293507e-01  -8.4973272107322639e-01  -7.2839646873329056e-01  -6.0703992399450990e-01  -4.8571867438982225e-01  -3.6432540704123478e-01  -2.4305976934452558e-01  -1.2124819990671368e-01  -1.7226971113290529e-04  -9.7081862768065044e+00  -9.5866617426797340e+00  -9.4652476838658703e+00  -9.3438903669794158e+00  -9.2225456603095637e+00  -9.1011995462600037e+00  -8.9798498825481978e+00  -8.8584975647624340e+00  -8.7371441338098546e+00  -8.6157906023018000e+00  -8.4944372886950426e+00  -8.3730852305189192e+00  -8.2517355600614746e+00  -8.1303883312909182e+00  -8.0090428171475558e+00  -7.8876982376759175e+00  -7.7663540810309515e+00  -7.6450100890274397e+00  -7.5236661541056691e+00  -7.4023222379218154e+00  -7.2809783283944709e+00  -7.1596344217979535e+00  -7.0382905167808616e+00  -6.9169466126708548e+00  -6.7956027090784215e+00  -6.6742588057711645e+00  -6.5529149026170517e+00  -6.4315709995433030e+00  -6.3102270965112464e+00  -6.1888831935004243e+00  -6.0675392905005587e+00  -5.9461953875060853e+00  -5.8248514845144204e+00  -5.7035075815240903e+00  -5.5821636785345214e+00  -5.4608197755452448e+00  -5.3394758725561644e+00  -5.2181319695671533e+00  -5.0967880665781946e+00  -4.9754441635892341e+00  -4.8541002606003296e+00  -4.7327563576114358e+00  -4.6114124546225206e+00  -4.4900685516336125e+00  -4.3687246486447071e+00  -4.2473807456558061e+00  -4.1260368426669105e+00  -4.0046929396780042e+00  -3.8833490366890970e+00  -3.7620051337002010e+00  -3.6406612307112871e+00  -3.5193173277223799e+00  -3.3979734247334412e+00  -3.2766295217445101e+00  -3.1552856187554679e+00  -3.0339417157665243e+00  -2.9125978127768755e+00  -2.7912539097883049e+00  -2.6699100067948303e+00  -2.5485661038111962e+00  -2.4272222007923943e+00  -2.3058782978536327e+00  -2.1845343946657962e+00  -2.0631904920728683e+00  -1.9418465877924074e+00  -1.8205026875608490e+00  -1.6991587766708542e+00  -1.5778148907223257e+00  -1.4564709435674732e+00  -1.3351271328604972e+00  -1.2137830093573780e+00  -1.0924395355248564e+00  -9.7109464548857616e-01  -8.4975240883393366e-01  -7.2840420807315476e-01  -6.0706519511446555e-01  -4.8569912554942585e-01  -3.6436163201376609e-01  -2.4290957057326143e-01  -1.2147383061176464e-01  4.4374259148770083e-05  -9.7081927753601054e+00  -9.5866976486175357e+00  -9.4652756844395807e+00  -9.3439091276481072e+00  -9.2225609133558688e+00  -9.1012140486879929e+00  -8.9798644729690906e+00  -8.8585124283081811e+00  -8.7371592016210080e+00  -8.6158057532081322e+00  -8.4944526279855950e+00  -8.3731007585704180e+00  -8.2517510869314705e+00  -8.1304037166389502e+00  -8.0090580507956357e+00  -7.8877133694188926e+00  -7.7663691602779510e+00  -7.6450251458089973e+00  -7.5236812027642355e+00  -7.4023372839580750e+00  -7.2809933736583226e+00  -7.1596494667842387e+00  -7.0383055616473156e+00  -6.9169616574608508e+00  -6.7956177538269431e+00  -6.6742738504925292e+00  -6.5529299473251221e+00  -6.4315860442430921e+00  -6.3102421412073078e+00  -6.1888982381942359e+00  -6.0675543351933303e+00  -5.9462104321982991e+00  -5.8248665292063402e+00  -5.7035226262159160e+00  -5.5821787232262139e+00  -5.4608348202369408e+00  -5.3394909172478293e+00  -5.2181470142588298e+00  -5.0968031112698524e+00  -4.9754592082809221e+00  -4.8541153052919954e+00  -4.7327714023030802e+00  -4.6114274993141828e+00  -4.4900835963252801e+00  -4.3687396933363667e+00  -4.2473957903474790e+00  -4.1260518873585772e+00  -4.0047079843696771e+00  -3.8833640813807668e+00  -3.7620201783918619e+00  -3.6406762754029520e+00  -3.5193323724140337e+00  -3.3979884694251155e+00  -3.2766445664361448e+00  -3.1553006634471861e+00  -3.0339567604580018e+00  -2.9126128574689543e+00  -2.7912689544786105e+00  -2.6699250514898800e+00  -2.5485811484926657e+00  -2.4272372455102413e+00  -2.3058933424711032e+00  -2.1845494395476890e+00  -2.0632055362527919e+00  -1.9418616337685630e+00  -1.8205177289699412e+00  -1.6991738293007577e+00  -1.5778299162147533e+00  -1.4564860323205033e+00  -1.3351420769652085e+00  -1.2137982695054435e+00  -1.0924541107697441e+00  -9.7111060443087460e-01  -8.4976543580619024e-01  -7.2842258071154420e-01  -6.0707149649317727e-01  -4.8572464203191362e-01  -3.6434321144597925e-01  -2.4294382762800484e-01  -1.2145587140272572e-01  -2.6270943546147902e-05  -9.7081862768065008e+00  -9.5866617426797109e+00  -9.4652476838658934e+00  -9.3438903669794282e+00  -9.2225456603095584e+00  -9.1011995462600410e+00  -8.9798498825481570e+00  -8.8584975647624233e+00  -8.7371441338098457e+00  -8.6157906023018178e+00  -8.4944372886950603e+00  -8.3730852305189725e+00  -8.2517355600615083e+00  -8.1303883312908862e+00  -8.0090428171475452e+00  -7.8876982376759157e+00  -7.7663540810309639e+00  -7.6450100890273873e+00  -7.5236661541056753e+00  -7.4023222379218216e+00  -7.2809783283944860e+00  -7.1596344217979553e+00  -7.0382905167809051e+00  -6.9169466126708388e+00  -6.7956027090784294e+00  -6.6742588057711725e+00  -6.5529149026170215e+00  -6.4315709995433172e+00  -6.3102270965112570e+00  -6.1888831935004385e+00  -6.0675392905005552e+00  -5.9461953875060782e+00  -5.8248514845143990e+00  -5.7035075815240761e+00  -5.5821636785345063e+00  -5.4608197755452217e+00  -5.3394758725561635e+00  -5.2181319695671604e+00  -5.0967880665781893e+00  -4.9754441635892386e+00  -4.8541002606003314e+00  -4.7327563576114180e+00  -4.6114124546225082e+00  -4.4900685516336187e+00  -4.3687246486447053e+00  -4.2473807456558168e+00  -4.1260368426669087e+00  -4.0046929396779909e+00  -3.8833490366891041e+00  -3.7620051337001952e+00  -3.6406612307112840e+00  -3.5193173277223631e+00  -3.3979734247334519e+00  -3.2766295217445034e+00  -3.1552856187554745e+00  -3.0339417157665149e+00  -2.9125978127768852e+00  -2.7912539097882876e+00  -2.6699100067948298e+00  -2.5485661038111926e+00  -2.4272222007923920e+00  -2.3058782978536314e+00  -2.1845343946657878e+00  -2.0631904920728723e+00  -1.9418465877924009e+00  -1.8205026875608503e+00  -1.6991587766708522e+00  -1.5778148907223262e+00  -1.4564709435674772e+00  -1.3351271328605052e+00  -1.2137830093573805e+00  -1.0924395355248582e+00  -9.7109464548857616e-01  -8.4975240883393477e-01  -7.2840420807315343e-01  -6.0706519511446455e-01  -4.8569912554942518e-01  -3.6436163201376642e-01  -2.4290957057326221e-01  -1.2147383061176451e-01  4.4374259148483589e-05  -9.7081525536189250e+00  -9.5865521777296525e+00  -9.4651847831908515e+00  -9.3438595161544526e+00  -9.2225254554325176e+00  -9.1011822130262257e+00  -8.9798331315301603e+00  -8.8584808036214486e+00  -8.7371273573856492e+00  -8.6157738364959613e+00  -8.4944206067448498e+00  -8.3730687857754837e+00  -8.2517194214959080e+00  -8.1303724246792086e+00  -8.0090270289931542e+00  -7.8876824850090630e+00  -7.7663383265937016e+00  -7.6449943229293140e+00  -7.5236503782711672e+00  -7.4023064561101464e+00  -7.2809625436224481e+00  -7.1596186356516700e+00  -7.0382747300754698e+00  -6.9169308257215567e+00  -6.7955869220359464e+00  -6.6742430186834891e+00  -6.5528991155118046e+00  -6.4315552124279947e+00  -6.3102113093919252e+00  -6.1888674063786473e+00  -6.0675235033776760e+00  -5.9461796003825951e+00  -5.8248356973905917e+00  -5.7034917944001604e+00  -5.5821478914104352e+00  -5.4608039884211932e+00  -5.3394600854320373e+00  -5.2181161824430493e+00  -5.0967722794540613e+00  -4.9754283764651515e+00  -4.8540844734762016e+00  -4.7327405704872998e+00  -4.6113966674983997e+00  -4.4900527645094934e+00  -4.3687088615205827e+00  -4.2473649585317004e+00  -4.1260210555427888e+00  -4.0046771525538869e+00  -3.8833332495649873e+00  -3.7619893465760867e+00  -3.6406454435871733e+00  -3.5193015405982582e+00  -3.3979576376093230e+00  -3.2766137346203315e+00  -3.1552698316313554e+00  -3.0339259286418852e+00  -2.9125820256532169e+00  -2.7912381226606859e+00  -2.6698942196761695e+00  -2.5485503166624661e+00  -2.4272064137182201e+00  -2.3058625105534274e+00  -2.1845186079434677e+00  -2.0631747037168244e+00  -1.9418308035941130e+00  -1.8204868922910591e+00  -1.6991430087512018e+00  -1.5777990544554314e+00  -1.4564552675633984e+00  -1.3351110862372573e+00  -1.2137677699805804e+00  -1.0924226095008474e+00  -9.7108109389293085e-01  -8.4973272107322695e-01  -7.2839646873328678e-01  -6.0703992399450168e-01  -4.8571867438982391e-01  -3.6432540704123062e-01  -2.4305976934452522e-01  -1.2124819990671479e-01  -1.7226971113309611e-04  -9.7080747094931823e+00  -9.5862947196059007e+00  -9.4651502122814204e+00  -9.3438756302736596e+00  -9.2225561996746226e+00  -9.1012176220825562e+00  -8.9798703950624628e+00  -8.8585192465133549e+00  -8.7371664801243156e+00  -8.6158134738767647e+00  -8.4944612557933716e+00  -8.3731106506156507e+00  -8.2517620107891609e+00  -8.1304151467332186e+00  -8.0090695725887073e+00  -7.8877248005586589e+00  -7.7663804723455740e+00  -7.6450363700671247e+00  -7.5236923757164478e+00  -7.4023484310865646e+00  -7.2810045088715079e+00  -7.1596605968438976e+00  -7.0383166894910287e+00  -6.9169727843594826e+00  -6.7956288802972065e+00  -6.6742849767679582e+00  -6.5529410735040798e+00  -6.4315971703756869e+00  -6.3102532673157601e+00  -6.1889093642907707e+00  -6.0675654612835981e+00  -5.9462215582853899e+00  -5.8248776552918740e+00  -5.7035337523005438e+00  -5.5821898493104829e+00  -5.4608459463209478e+00  -5.3395020433317466e+00  -5.2181581403426751e+00  -5.0968142373537040e+00  -4.9754703343647471e+00  -4.8541264313758186e+00  -4.7327825283868918e+00  -4.6114386253980051e+00  -4.4900947224090970e+00  -4.3687508194201996e+00  -4.2474069164312906e+00  -4.1260630134423879e+00  -4.0047191104534789e+00  -3.8833752074645727e+00  -3.7620313044756717e+00  -3.6406874014867538e+00  -3.5193434984978222e+00  -3.3979995955088369e+00  -3.2766556925198378e+00  -3.1553117895305189e+00  -3.0339678865413799e+00  -2.9126239835502248e+00  -2.7912800805618998e+00  -2.6699361775589443e+00  -2.5485922745853871e+00  -2.4272483715005397e+00  -2.3059044686789019e+00  -2.1845605650047091e+00  -2.0632166634856315e+00  -1.9418727556072213e+00  -1.8205288640139976e+00  -1.6991849276619877e+00  -1.5778411033432740e+00  -1.4564969922948963e+00  -1.3351535608691851e+00  -1.2138085386011059e+00  -1.0924669569897822e+00  -9.7111829874310451e-01  -8.4978294519729225e-01  -7.2842554975873652e-01  -6.0710300012100959e-01  -4.8575155452102403e-01  -3.6445255159076584e-01  -2.4328004536671133e-01  -1.2123643693853096e-01  2.8059668217614140e-04  -9.7058673399281741e+00  -9.5862996932773950e+00  -9.4651809617644282e+00  -9.3439194805352894e+00  -9.2226010700161041e+00  -9.1012613022744038e+00  -8.9799127429379446e+00  -8.8585607388641350e+00  -8.7372074520713827e+00  -8.6158541593766760e+00  -8.4945020280357042e+00  -8.3731518920627988e+00  -8.2518038221415910e+00  -8.1304573991242872e+00  -8.0091120779455185e+00  -7.8877674226931678e+00  -7.7664231380702127e+00  -7.6450790493512750e+00  -7.5237350582390770e+00  -7.4023911143491015e+00  -7.2810471923243805e+00  -7.1597032804715424e+00  -7.0383593732379079e+00  -6.9170154681995815e+00  -6.7956715641898562e+00  -6.6743276606917483e+00  -6.5529837574447773e+00  -6.4316398543244500e+00  -6.3102959512696906e+00  -6.1889520482463007e+00  -6.0676081452408503e+00  -5.9462642422427603e+00  -5.8249203392499185e+00  -5.7035764362584382e+00  -5.5822325332686553e+00  -5.4608886302789896e+00  -5.3395447272899386e+00  -5.2182008243007880e+00  -5.0968569213118675e+00  -4.9755130183228840e+00  -4.8541691153339848e+00  -4.7328252123450500e+00  -4.6114813093561597e+00  -4.4901374063672526e+00  -4.3687935033783445e+00  -4.2474496003894471e+00  -4.1261056974005488e+00  -4.0047617944116336e+00  -3.8834178914227340e+00  -3.7620739884338312e+00  -3.6407300854449050e+00  -3.5193861824559551e+00  -3.3980422794669907e+00  -3.2766983764778774e+00  -3.1553544734887295e+00  -3.0340105704988387e+00  -2.9126666675093285e+00  -2.7913227645149319e+00  -2.6699788615274098e+00  -2.5486349585034676e+00  -2.4272910555550866e+00  -2.3059471523170139e+00  -2.1846032497948258e+00  -2.0632593449118302e+00  -1.9419154463110979e+00  -1.8205715286199298e+00  -1.6992276628381726e+00  -1.5778836477785414e+00  -1.4565400348007576e+00  -1.3351953219184076e+00  -1.2138534762991307e+00  -1.0925042362195041e+00  -9.7117322571966791e-01  -8.4979886456429332e-01  -7.2852310140103804e-01  -6.0703878187753568e-01  -4.8599470951275403e-01  -3.6416287981785284e-01  -2.4409430236633517e-01  -1.2040165861353899e-01  -9.2810391410131992e-04  -9.6464013854266781e+00  -9.5256309420906451e+00  -9.4044379624631027e+00  -9.2831462587817235e+00  -9.1618182993637873e+00  -9.0404755810287032e+00  -8.9191264926649456e+00  -8.7977746305931177e+00  -8.6764218257672994e+00  -8.5550693930059207e+00  -8.4337183088791772e+00  -8.3123690168060129e+00  -8.1910214647326729e+00  -8.0696753066724174e+00  -7.9483301196694480e+00  -7.8269855361409002e+00  -7.7056412937628584e+00  -7.5842972292294402e+00  -7.4629532516649144e+00  -7.3416093146402002e+00  -7.2202653960285303e+00  -7.0989214857299414e+00  -6.9775775792354029e+00  -6.8562336745277470e+00  -6.7348897706795556e+00  -6.6135458672583809e+00  -6.4922019640488271e+00  -6.3708580609487973e+00  -6.2495141579024667e+00  -6.1281702548851138e+00  -6.0068263518812230e+00  -5.8854824488851563e+00  -5.7641385458923207e+00  -5.6427946429016460e+00  -5.5214507399116988e+00  -5.4001068369223750e+00  -5.2787629339331783e+00  -5.1574190309441752e+00  -5.0360751279551872e+00  -4.9147312249662596e+00  -4.7933873219773222e+00  -4.6720434189884079e+00  -4.5506995159995043e+00  -4.4293556130105998e+00  -4.3080117100217068e+00  -4.1866678070328049e+00  -4.0653239040439093e+00  -3.9439800010549999e+00  -3.8226360980660954e+00  -3.7012921950771771e+00  -3.5799482920882499e+00  -3.4586043890992810e+00  -3.3372604861102557e+00  -3.2159165831211167e+00  -3.0945726801316877e+00  -2.9732287771418084e+00  -2.8518848741505818e+00  -2.7305409711578252e+00  -2.6091970681582533e+00  -2.4878531651553493e+00  -2.3665092621151249e+00  -2.2451653590855440e+00  -2.1238214558349369e+00  -2.0024775528095207e+00  -1.8811336484162597e+00  -1.7597897461370930e+00  -1.6384458355186902e+00  -1.51710193993071