<?xml version="1.0"?>
<VTKFile type="UnstructuredGrid"  version="0.1"  >
<UnstructuredGrid>
<Piece  NumberOfPoints="1369" NumberOfCells="2560">
<Points>
<DataArray  type="Float64"  NumberOfComponents="3"  format="ascii">0 0 0  0.75 0 0  1.5 0 0  2.25 0 0  3 0 0  3.75 0 0  4.5 0 0  5.25 0 0  6 0 0  6.75 0 0  7.5 0 0  8.25 0 0  9 0 0  9.75 0 0  10.5 0 0  11.25 0 0  12 0 0  12.75 0 0  13.5 0 0  14.25 0 0  15 0 0  15.75 0 0  16.5 0 0  17.25 0 0  18 0 0  18.75 0 0  19.5 0 0  20.25 0 0  21 0 0  21.75 0 0  22.5 0 0  23.25 0 0  24 0 0  24.75 0 0  25.5 0 0  26.25 0 0  27 0 0  27.75 0 0  28.5 0 0  29.25 0 0  30 0 0  30.75 0 0  31.5 0 0  32.25 0 0  33 0 0  33.75 0 0  34.5 0 0  35.25 0 0  36 0 0  36.75 0 0  37.5 0 0  38.25 0 0  39 0 0  39.75 0 0  40.5 0 0  41.25 0 0  42 0 0  42.75 0 0  43.5 0 0  44.25 0 0  45 0 0  45.75 0 0  46.5 0 0  47.25 0 0  48 0 0  48.75 0 0  49.5 0 0  50.25 0 0  51 0 0  51.75 0 0  52.5 0 0  53.25 0 0  54 0 0  54.75 0 0  55.5 0 0  56.25 0 0  57 0 0  57.75 0 0  58.5 0 0  59.25 0 0  60 0 0  0 0.5 0  0.75 0.5 0  1.5 0.5 0  2.25 0.5 0  3 0.5 0  3.75 0.5 0  4.5 0.5 0  5.25 0.5 0  6 0.5 0  6.75 0.5 0  7.5 0.5 0  8.25 0.5 0  9 0.5 0  9.75 0.5 0  10.5 0.5 0  11.25 0.5 0  12 0.5 0  12.75 0.5 0  13.5 0.5 0  14.25 0.5 0  15 0.5 0  15.75 0.5 0  16.5 0.5 0  17.25 0.5 0  18 0.5 0  18.75 0.5 0  19.5 0.5 0  20.25 0.5 0  21 0.5 0  21.75 0.5 0  22.5 0.5 0  23.25 0.5 0  24 0.5 0  24.75 0.5 0  25.5 0.5 0  26.25 0.5 0  27 0.5 0  27.75 0.5 0  28.5 0.5 0  29.25 0.5 0  30 0.5 0  30.75 0.5 0  31.5 0.5 0  32.25 0.5 0  33 0.5 0  33.75 0.5 0  34.5 0.5 0  35.25 0.5 0  36 0.5 0  36.75 0.5 0  37.5 0.5 0  38.25 0.5 0  39 0.5 0  39.75 0.5 0  40.5 0.5 0  41.25 0.5 0  42 0.5 0  42.75 0.5 0  43.5 0.5 0  44.25 0.5 0  45 0.5 0  45.75 0.5 0  46.5 0.5 0  47.25 0.5 0  48 0.5 0  48.75 0.5 0  49.5 0.5 0  50.25 0.5 0  51 0.5 0  51.75 0.5 0  52.5 0.5 0  53.25 0.5 0  54 0.5 0  54.75 0.5 0  55.5 0.5 0  56.25 0.5 0  57 0.5 0  57.75 0.5 0  58.5 0.5 0  59.25 0.5 0  60 0.5 0  0 1 0  0.75 1 0  1.5 1 0  2.25 1 0  3 1 0  3.75 1 0  4.5 1 0  5.25 1 0  6 1 0  6.75 1 0  7.5 1 0  8.25 1 0  9 1 0  9.75 1 0  10.5 1 0  11.25 1 0  12 1 0  12.75 1 0  13.5 1 0  14.25 1 0  15 1 0  15.75 1 0  16.5 1 0  17.25 1 0  18 1 0  18.75 1 0  19.5 1 0  20.25 1 0  21 1 0  21.75 1 0  22.5 1 0  23.25 1 0  24 1 0  24.75 1 0  25.5 1 0  26.25 1 0  27 1 0  27.75 1 0  28.5 1 0  29.25 1 0  30 1 0  30.75 1 0  31.5 1 0  32.25 1 0  33 1 0  33.75 1 0  34.5 1 0  35.25 1 0  36 1 0  36.75 1 0  37.5 1 0  38.25 1 0  39 1 0  39.75 1 0  40.5 1 0  41.25 1 0  42 1 0  42.75 1 0  43.5 1 0  44.25 1 0  45 1 0  45.75 1 0  46.5 1 0  47.25 1 0  48 1 0  48.75 1 0  49.5 1 0  50.25 1 0  51 1 0  51.75 1 0  52.5 1 0  53.25 1 0  54 1 0  54.75 1 0  55.5 1 0  56.25 1 0  57 1 0  57.75 1 0  58.5 1 0  59.25 1 0  60 1 0  0 1.5 0  0.75 1.5 0  1.5 1.5 0  2.25 1.5 0  3 1.5 0  3.75 1.5 0  4.5 1.5 0  5.25 1.5 0  6 1.5 0  6.75 1.5 0  7.5 1.5 0  8.25 1.5 0  9 1.5 0  9.75 1.5 0  10.5 1.5 0  11.25 1.5 0  12 1.5 0  12.75 1.5 0  13.5 1.5 0  14.25 1.5 0  15 1.5 0  15.75 1.5 0  16.5 1.5 0  17.25 1.5 0  18 1.5 0  18.75 1.5 0  19.5 1.5 0  20.25 1.5 0  21 1.5 0  21.75 1.5 0  22.5 1.5 0  23.25 1.5 0  24 1.5 0  24.75 1.5 0  25.5 1.5 0  26.25 1.5 0  27 1.5 0  27.75 1.5 0  28.5 1.5 0  29.25 1.5 0  30 1.5 0  30.75 1.5 0  31.5 1.5 0  32.25 1.5 0  33 1.5 0  33.75 1.5 0  34.5 1.5 0  35.25 1.5 0  36 1.5 0  36.75 1.5 0  37.5 1.5 0  38.25 1.5 0  39 1.5 0  39.75 1.5 0  40.5 1.5 0  41.25 1.5 0  42 1.5 0  42.75 1.5 0  43.5 1.5 0  44.25 1.5 0  45 1.5 0  45.75 1.5 0  46.5 1.5 0  47.25 1.5 0  48 1.5 0  48.75 1.5 0  49.5 1.5 0  50.25 1.5 0  51 1.5 0  51.75 1.5 0  52.5 1.5 0  53.25 1.5 0  54 1.5 0  54.75 1.5 0  55.5 1.5 0  56.25 1.5 0  57 1.5 0  57.75 1.5 0  58.5 1.5 0  59.25 1.5 0  60 1.5 0  0 2 0  0.75 2 0  1.5 2 0  2.25 2 0  3 2 0  3.75 2 0  4.5 2 0  5.25 2 0  6 2 0  6.75 2 0  7.5 2 0  8.25 2 0  9 2 0  9.75 2 0  10.5 2 0  11.25 2 0  12 2 0  12.75 2 0  13.5 2 0  14.25 2 0  15 2 0  15.75 2 0  16.5 2 0  17.25 2 0  18 2 0  18.75 2 0  19.5 2 0  20.25 2 0  21 2 0  21.75 2 0  22.5 2 0  23.25 2 0  24 2 0  24.75 2 0  25.5 2 0  26.25 2 0  27 2 0  27.75 2 0  28.5 2 0  29.25 2 0  30 2 0  30.75 2 0  31.5 2 0  32.25 2 0  33 2 0  33.75 2 0  34.5 2 0  35.25 2 0  36 2 0  36.75 2 0  37.5 2 0  38.25 2 0  39 2 0  39.75 2 0  40.5 2 0  41.25 2 0  42 2 0  42.75 2 0  43.5 2 0  44.25 2 0  45 2 0  45.75 2 0  46.5 2 0  47.25 2 0  48 2 0  48.75 2 0  49.5 2 0  50.25 2 0  51 2 0  51.75 2 0  52.5 2 0  53.25 2 0  54 2 0  54.75 2 0  55.5 2 0  56.25 2 0  57 2 0  57.75 2 0  58.5 2 0  59.25 2 0  60 2 0  0 2.5 0  0.75 2.5 0  1.5 2.5 0  2.25 2.5 0  3 2.5 0  3.75 2.5 0  4.5 2.5 0  5.25 2.5 0  6 2.5 0  6.75 2.5 0  7.5 2.5 0  8.25 2.5 0  9 2.5 0  9.75 2.5 0  10.5 2.5 0  11.25 2.5 0  12 2.5 0  12.75 2.5 0  13.5 2.5 0  14.25 2.5 0  15 2.5 0  15.75 2.5 0  16.5 2.5 0  17.25 2.5 0  18 2.5 0  18.75 2.5 0  19.5 2.5 0  20.25 2.5 0  21 2.5 0  21.75 2.5 0  22.5 2.5 0  23.25 2.5 0  24 2.5 0  24.75 2.5 0  25.5 2.5 0  26.25 2.5 0  27 2.5 0  27.75 2.5 0  28.5 2.5 0  29.25 2.5 0  30 2.5 0  30.75 2.5 0  31.5 2.5 0  32.25 2.5 0  33 2.5 0  33.75 2.5 0  34.5 2.5 0  35.25 2.5 0  36 2.5 0  36.75 2.5 0  37.5 2.5 0  38.25 2.5 0  39 2.5 0  39.75 2.5 0  40.5 2.5 0  41.25 2.5 0  42 2.5 0  42.75 2.5 0  43.5 2.5 0  44.25 2.5 0  45 2.5 0  45.75 2.5 0  46.5 2.5 0  47.25 2.5 0  48 2.5 0  48.75 2.5 0  49.5 2.5 0  50.25 2.5 0  51 2.5 0  51.75 2.5 0  52.5 2.5 0  53.25 2.5 0  54 2.5 0  54.75 2.5 0  55.5 2.5 0  56.25 2.5 0  57 2.5 0  57.75 2.5 0  58.5 2.5 0  59.25 2.5 0  60 2.5 0  0 3 0  0.75 3 0  1.5 3 0  2.25 3 0  3 3 0  3.75 3 0  4.5 3 0  5.25 3 0  6 3 0  6.75 3 0  7.5 3 0  8.25 3 0  9 3 0  9.75 3 0  10.5 3 0  11.25 3 0  12 3 0  12.75 3 0  13.5 3 0  14.25 3 0  15 3 0  15.75 3 0  16.5 3 0  17.25 3 0  18 3 0  18.75 3 0  19.5 3 0  20.25 3 0  21 3 0  21.75 3 0  22.5 3 0  23.25 3 0  24 3 0  24.75 3 0  25.5 3 0  26.25 3 0  27 3 0  27.75 3 0  28.5 3 0  29.25 3 0  30 3 0  30.75 3 0  31.5 3 0  32.25 3 0  33 3 0  33.75 3 0  34.5 3 0  35.25 3 0  36 3 0  36.75 3 0  37.5 3 0  38.25 3 0  39 3 0  39.75 3 0  40.5 3 0  41.25 3 0  42 3 0  42.75 3 0  43.5 3 0  44.25 3 0  45 3 0  45.75 3 0  46.5 3 0  47.25 3 0  48 3 0  48.75 3 0  49.5 3 0  50.25 3 0  51 3 0  51.75 3 0  52.5 3 0  53.25 3 0  54 3 0  54.75 3 0  55.5 3 0  56.25 3 0  57 3 0  57.75 3 0  58.5 3 0  59.25 3 0  60 3 0  0 3.5 0  0.75 3.5 0  1.5 3.5 0  2.25 3.5 0  3 3.5 0  3.75 3.5 0  4.5 3.5 0  5.25 3.5 0  6 3.5 0  6.75 3.5 0  7.5 3.5 0  8.25 3.5 0  9 3.5 0  9.75 3.5 0  10.5 3.5 0  11.25 3.5 0  12 3.5 0  12.75 3.5 0  13.5 3.5 0  14.25 3.5 0  15 3.5 0  15.75 3.5 0  16.5 3.5 0  17.25 3.5 0  18 3.5 0  18.75 3.5 0  19.5 3.5 0  20.25 3.5 0  21 3.5 0  21.75 3.5 0  22.5 3.5 0  23.25 3.5 0  24 3.5 0  24.75 3.5 0  25.5 3.5 0  26.25 3.5 0  27 3.5 0  27.75 3.5 0  28.5 3.5 0  29.25 3.5 0  30 3.5 0  30.75 3.5 0  31.5 3.5 0  32.25 3.5 0  33 3.5 0  33.75 3.5 0  34.5 3.5 0  35.25 3.5 0  36 3.5 0  36.75 3.5 0  37.5 3.5 0  38.25 3.5 0  39 3.5 0  39.75 3.5 0  40.5 3.5 0  41.25 3.5 0  42 3.5 0  42.75 3.5 0  43.5 3.5 0  44.25 3.5 0  45 3.5 0  45.75 3.5 0  46.5 3.5 0  47.25 3.5 0  48 3.5 0  48.75 3.5 0  49.5 3.5 0  50.25 3.5 0  51 3.5 0  51.75 3.5 0  52.5 3.5 0  53.25 3.5 0  54 3.5 0  54.75 3.5 0  55.5 3.5 0  56.25 3.5 0  57 3.5 0  57.75 3.5 0  58.5 3.5 0  59.25 3.5 0  60 3.5 0  0 4 0  0.75 4 0  1.5 4 0  2.25 4 0  3 4 0  3.75 4 0  4.5 4 0  5.25 4 0  6 4 0  6.75 4 0  7.5 4 0  8.25 4 0  9 4 0  9.75 4 0  10.5 4 0  11.25 4 0  12 4 0  12.75 4 0  13.5 4 0  14.25 4 0  15 4 0  15.75 4 0  16.5 4 0  17.25 4 0  18 4 0  18.75 4 0  19.5 4 0  20.25 4 0  21 4 0  21.75 4 0  22.5 4 0  23.25 4 0  24 4 0  24.75 4 0  25.5 4 0  26.25 4 0  27 4 0  27.75 4 0  28.5 4 0  29.25 4 0  30 4 0  30.75 4 0  31.5 4 0  32.25 4 0  33 4 0  33.75 4 0  34.5 4 0  35.25 4 0  36 4 0  36.75 4 0  37.5 4 0  38.25 4 0  39 4 0  39.75 4 0  40.5 4 0  41.25 4 0  42 4 0  42.75 4 0  43.5 4 0  44.25 4 0  45 4 0  45.75 4 0  46.5 4 0  47.25 4 0  48 4 0  48.75 4 0  49.5 4 0  50.25 4 0  51 4 0  51.75 4 0  52.5 4 0  53.25 4 0  54 4 0  54.75 4 0  55.5 4 0  56.25 4 0  57 4 0  57.75 4 0  58.5 4 0  59.25 4 0  60 4 0  0.375 0.25 0  1.125 0.25 0  1.875 0.25 0  2.625 0.25 0  3.375 0.25 0  4.125 0.25 0  4.875 0.25 0  5.625 0.25 0  6.375 0.25 0  7.125 0.25 0  7.875 0.25 0  8.625 0.25 0  9.375 0.25 0  10.125 0.25 0  10.875 0.25 0  11.625 0.25 0  12.375 0.25 0  13.125 0.25 0  13.875 0.25 0  14.625 0.25 0  15.375 0.25 0  16.125 0.25 0  16.875 0.25 0  17.625 0.25 0  18.375 0.25 0  19.125 0.25 0  19.875 0.25 0  20.625 0.25 0  21.375 0.25 0  22.125 0.25 0  22.875 0.25 0  23.625 0.25 0  24.375 0.25 0  25.125 0.25 0  25.875 0.25 0  26.625 0.25 0  27.375 0.25 0  28.125 0.25 0  28.875 0.25 0  29.625 0.25 0  30.375 0.25 0  31.125 0.25 0  31.875 0.25 0  32.625 0.25 0  33.375 0.25 0  34.125 0.25 0  34.875 0.25 0  35.625 0.25 0  36.375 0.25 0  37.125 0.25 0  37.875 0.25 0  38.625 0.25 0  39.375 0.25 0  40.125 0.25 0  40.875 0.25 0  41.625 0.25 0  42.375 0.25 0  43.125 0.25 0  43.875 0.25 0  44.625 0.25 0  45.375 0.25 0  46.125 0.25 0  46.875 0.25 0  47.625 0.25 0  48.375 0.25 0  49.125 0.25 0  49.875 0.25 0  50.625 0.25 0  51.375 0.25 0  52.125 0.25 0  52.875 0.25 0  53.625 0.25 0  54.375 0.25 0  55.125 0.25 0  55.875 0.25 0  56.625 0.25 0  57.375 0.25 0  58.125 0.25 0  58.875 0.25 0  59.625 0.25 0  0.375 0.75 0  1.125 0.75 0  1.875 0.75 0  2.625 0.75 0  3.375 0.75 0  4.125 0.75 0  4.875 0.75 0  5.625 0.75 0  6.375 0.75 0  7.125 0.75 0  7.875 0.75 0  8.625 0.75 0  9.375 0.75 0  10.125 0.75 0  10.875 0.75 0  11.625 0.75 0  12.375 0.75 0  13.125 0.75 0  13.875 0.75 0  14.625 0.75 0  15.375 0.75 0  16.125 0.75 0  16.875 0.75 0  17.625 0.75 0  18.375 0.75 0  19.125 0.75 0  19.875 0.75 0  20.625 0.75 0  21.375 0.75 0  22.125 0.75 0  22.875 0.75 0  23.625 0.75 0  24.375 0.75 0  25.125 0.75 0  25.875 0.75 0  26.625 0.75 0  27.375 0.75 0  28.125 0.75 0  28.875 0.75 0  29.625 0.75 0  30.375 0.75 0  31.125 0.75 0  31.875 0.75 0  32.625 0.75 0  33.375 0.75 0  34.125 0.75 0  34.875 0.75 0  35.625 0.75 0  36.375 0.75 0  37.125 0.75 0  37.875 0.75 0  38.625 0.75 0  39.375 0.75 0  40.125 0.75 0  40
[...]
<PointData  Vectors="f_8-0"> 
<DataArray  type="Float64"  Name="f_8-0"  NumberOfComponents="3" format="ascii">0.0000000000000000e+00 0.0000000000000000e+00 0.0000000000000000e+00  0.0000000000000000e+00 0.0000000000000000e+00 0.0000000000000000e+00  0.0000000000000000e+00 0.0000000000000000e+00 0.0000000000000000e+00  0.0000000000000000e+00 0.0000000000000000e+00 0.0000000000000000e+00  0.0000000000000000e+00 0.0000000000000000e+00 0.0000000000000000e+00  0.0000000000000000e+00 0.0000000000000000e+00 0.0000000000000000e+00  0.0000000000000000e+00 0.0000000000000000e+00 0.0000000000000000e+00  0.0000000000000000e+00 0.0000000000000000e+00 0.0000000000000000e+00  0.0000000000000000e+00 0.0000000000000000e+00 0.0000000000000000e+00  0.0000000000000000e+00 0.0000000000000000e+00 0.0000000000000000e+00  0.0000000000000000e+00 0.0000000000000000e+00 0.0000000000000000e+00  0.0000000000000000e+00 0.0000000000000000e+00 0.0000000000000000e+00  0.0000000000000000e+00 0.0000000000000000e+00 0.0000000000000000e+00  0.0000000000000000e+00 0.0000000000000000e+00 0.0000000000000000e+00  0.0000000000000000e+00 0.0000000000000000e+00 0.0000000000000000e+00  0.0000000000000000e+00 0.0000000000000000e+00 0.0000000000000000e+00  0.0000000000000000e+00 0.0000000000000000e+00 0.0000000000000000e+00  0.0000000000000000e+00 0.0000000000000000e+00 0.0000000000000000e+00  0.0000000000000000e+00 0.0000000000000000e+00 0.0000000000000000e+00  0.0000000000000000e+00 0.0000000000000000e+00 0.0000000000000000e+00  0.0000000000000000e+00 0.0000000000000000e+00 0.0000000000000000e+00  0.0000000000000000e+00 0.0000000000000000e+00 0.0000000000000000e+00  0.0000000000000000e+00 0.0000000000000000e+00 0.0000000000000000e+00  0.0000000000000000e+00 0.0000000000000000e+00 0.0000000000000000e+00  0.0000000000000000e+00 0.0000000000000000e+00 0.0000000000000000e+00  0.0000000000000000e+00 0.0000000000000000e+00 0.0000000000000000e+00  0.0000000000000000e+00 0.0000000000000000e+00 0.0000000000000000e+00  0.0000000000000000e+00 0.0000000000000000e+00 0.0000000000000000e+00  0.0000000000000000e+00 0.0000000000000000e+00 0.0000000000000000e+00  0.0000000000000000e+00 0.0000000000000000e+00 0.0000000000000000e+00  0.0000000000000000e+00 0.0000000000000000e+00 0.0000000000000000e+00  0.0000000000000000e+00 0.0000000000000000e+00 0.0000000000000000e+00  0.0000000000000000e+00 0.0000000000000000e+00 0.0000000000000000e+00  0.0000000000000000e+00 0.0000000000000000e+00 0.0000000000000000e+00  0.0000000000000000e+00 0.0000000000000000e+00 0.0000000000000000e+00  0.0000000000000000e+00 0.0000000000000000e+00 0.0000000000000000e+00  0.0000000000000000e+00 0.0000000000000000e+00 0.0000000000000000e+00  0.0000000000000000e+00 0.0000000000000000e+00 0.0000000000000000e+00  0.0000000000000000e+00 0.0000000000000000e+00 0.0000000000000000e+00  0.0000000000000000e+00 0.0000000000000000e+00 0.0000000000000000e+00  0.0000000000000000e+00 0.0000000000000000e+00 0.0000000000000000e+00  0.0000000000000000e+00 0.0000000000000000e+00 0.0000000000000000e+00  0.0000000000000000e+00 0.0000000000000000e+00 0.0000000000000000e+00  0.0000000000000000e+00 0.0000000000000000e+00 0.0000000000000000e+00  0.0000000000000000e+00 0.0000000000000000e+00 0.0000000000000000e+00  0.0000000000000000e+00 0.0000000000000000e+00 0.0000000000000000e+00  0.0000000000000000e+00 0.0000000000000000e+00 0.0000000000000000e+00  0.0000000000000000e+00 0.0000000000000000e+00 0.0000000000000000e+00  0.0000000000000000e+00 0.0000000000000000e+00 0.0000000000000000e+00  0.0000000000000000e+00 0.0000000000000000e+00 0.0000000000000000e+00  0.0000000000000000e+00 0.0000000000000000e+00 0.0000000000000000e+00  0.0000000000000000e+00 0.0000000000000000e+00 0.0000000000000000e+00  0.0000000000000000e+00 0.0000000000000000e+00 0.0000000000000000e+00  0.0000000000000000e+00 0.0000000000000000e+00 0.0000000000000000e+00  0.0000000000000000e+00 0.0000000000000000e+00 0.0000000000000000e+00  0.0000000000000000e+00 0.0000000000000000e+00 0.0000000000000000e+00  0.0000000000000000e+00 0.0000000000000000e+00 0.0000000000000000e+00  0.0000000000000000e+00 0.0000000000000000e+00 0.0000000000000000e+00  0.0000000000000000e+00 0.0000000000000000e+00 0.0000000000000000e+00  0.0000000000000000e+00 0.0000000000000000e+00 0.0000000000000000e+00  0.0000000000000000e+00 0.0000000000000000e+00 0.0000000000000000e+00  0.0000000000000000e+00 0.0000000000000000e+00 0.0000000000000000e+00  0.0000000000000000e+00 0.0000000000000000e+00 0.0000000000000000e+00  0.0000000000000000e+00 0.0000000000000000e+00 0.0000000000000000e+00  0.0000000000000000e+00 0.0000000000000000e+00 0.0000000000000000e+00  0.0000000000000000e+00 0.0000000000000000e+00 0.0000000000000000e+00  0.0000000000000000e+00 0.0000000000000000e+00 0.0000000000000000e+00  0.0000000000000000e+00 0.0000000000000000e+00 0.0000000000000000e+00  0.0000000000000000e+00 0.0000000000000000e+00 0.0000000000000000e+00  0.0000000000000000e+00 0.0000000000000000e+00 0.0000000000000000e+00  0.0000000000000000e+00 0.0000000000000000e+00 0.0000000000000000e+00  0.0000000000000000e+00 0.0000000000000000e+00 0.0000000000000000e+00  0.0000000000000000e+00 0.0000000000000000e+00 0.0000000000000000e+00  0.0000000000000000e+00 0.0000000000000000e+00 0.0000000000000000e+00  0.0000000000000000e+00 0.0000000000000000e+00 0.0000000000000000e+00  0.0000000000000000e+00 0.0000000000000000e+00 0.0000000000000000e+00  0.0000000000000000e+00 0.0000000000000000e+00 0.0000000000000000e+00  0.0000000000000000e+00 0.0000000000000000e+00 0.0000000000000000e+00  0.0000000000000000e+00 0.0000000000000000e+00 0.0000000000000000e+00  0.0000000000000000e+00 0.0000000000000000e+00 0.0000000000000000e+00  0.0000000000000000e+00 0.0000000000000000e+00 0.0000000000000000e+00  -2.9903225806524065e+00 0.0000000000000000e+00 0.0000000000000000e+00  -3.0512662564108775e+00 -3.0198195158831175e-02 0.0000000000000000e+00  -3.0663833288606348e+00 -2.0735731451447482e-03 0.0000000000000000e+00  -3.0772388243225537e+00 2.1641240768373411e-03 0.0000000000000000e+00  -3.0890856056123344e+00 2.6170424887171132e-03 0.0000000000000000e+00  -3.0986787761066297e+00 1.5246948800521480e-03 0.0000000000000000e+00  -3.1039636279634535e+00 -2.1343413742076867e-04 0.0000000000000000e+00  -3.1062918717303170e+00 -1.3486483106469346e-03 0.0000000000000000e+00  -3.1060399639829912e+00 -2.2061479654383758e-03 0.0000000000000000e+00  -3.1045551591191773e+00 -2.6081969234804992e-03 0.0000000000000000e+00  -3.1020715709313333e+00 -2.8923966211193450e-03 0.0000000000000000e+00  -3.0993805799532046e+00 -2.8246317519354624e-03 0.0000000000000000e+00  -3.0970314450514298e+00 -2.5782269065638972e-03 0.0000000000000000e+00  -3.0954527626046784e+00 -2.2631451199629877e-03 0.0000000000000000e+00  -3.0945348030007578e+00 -2.0429132369915292e-03 0.0000000000000000e+00  -3.0940945297940083e+00 -1.9065107773410589e-03 0.0000000000000000e+00  -3.0938962324413319e+00 -1.8472420091385857e-03 0.0000000000000000e+00  -3.0938213540920438e+00 -1.8194847968768036e-03 0.0000000000000000e+00  -3.0937896904838844e+00 -1.8115194115591398e-03 0.0000000000000000e+00  -3.0937788187991506e+00 -1.8072220719283520e-03 0.0000000000000000e+00  -3.0937727848859407e+00 -1.8065488139822189e-03 0.0000000000000000e+00  -3.0937706499721918e+00 -1.8055659692904117e-03 0.0000000000000000e+00  -3.0937690154281117e+00 -1.8055210564426457e-03 0.0000000000000000e+00  -3.0937684912802994e+00 -1.8051964950638263e-03 0.0000000000000000e+00  -3.0937680113831107e+00 -1.8052123693272290e-03 0.0000000000000000e+00  -3.0937678881414512e+00 -1.8051027781037943e-03 0.0000000000000000e+00  -3.0937677518697546e+00 -1.8051184082287146e-03 0.0000000000000000e+00  -3.0937677237095818e+00 -1.8050830700393171e-03 0.0000000000000000e+00  -3.0937676879231488e+00 -1.8050902303671237e-03 0.0000000000000000e+00  -3.0937676797413611e+00 -1.8050800738975048e-03 0.0000000000000000e+00  -3.0937676723794643e+00 -1.8050818487849471e-03 0.0000000000000000e+00  -3.0937676684271671e+00 -1.8050798719313965e-03 0.0000000000000000e+00  -3.0937676683395749e+00 -1.8050795204609291e-03 0.0000000000000000e+00  -3.0937676658401130e+00 -1.8050798310077232e-03 0.0000000000000000e+00  -3.0937676670423699e+00 -1.8050790183598000e-03 0.0000000000000000e+00  -3.0937676654663995e+00 -1.8050797002419348e-03 0.0000000000000000e+00  -3.0937676664841645e+00 -1.8050790206507348e-03 0.0000000000000000e+00  -3.0937676655638757e+00 -1.8050795559772890e-03 0.0000000000000000e+00  -3.0937676661936493e+00 -1.8050791144948954e-03 0.0000000000000000e+00  -3.0937676657002431e+00 -1.8050794451142137e-03 0.0000000000000000e+00  -3.0937676660410660e+00 -1.8050791943185253e-03 0.0000000000000000e+00  -3.0937676657936408e+00 -1.8050793755856479e-03 0.0000000000000000e+00  -3.0937676659603146e+00 -1.8050792481169948e-03 0.0000000000000000e+00  -3.0937676658449025e+00 -1.8050793363430342e-03 0.0000000000000000e+00  -3.0937676659206561e+00 -1.8050792739319162e-03 0.0000000000000000e+00  -3.0937676658711561e+00 -1.8050793157512761e-03 0.0000000000000000e+00  -3.0937676659021141e+00 -1.8050792889453152e-03 0.0000000000000000e+00  -3.0937676658796196e+00 -1.8050793070535003e-03 0.0000000000000000e+00  -3.0937676658915558e+00 -1.8050792945388150e-03 0.0000000000000000e+00  -3.0937676658823077e+00 -1.8050793027354220e-03 0.0000000000000000e+00  -3.0937676658853945e+00 -1.8050792981063692e-03 0.0000000000000000e+00  -3.0937676658760167e+00 -1.8050793043360618e-03 0.0000000000000000e+00  -3.0937676658656490e+00 -1.8050793049987266e-03 0.0000000000000000e+00  -3.0937676658393172e+00 -1.8050793141338856e-03 0.0000000000000000e+00  -3.0937676657853044e+00 -1.8050793271252982e-03 0.0000000000000000e+00  -3.0937676656803359e+00 -1.8050793612153179e-03 0.0000000000000000e+00  -3.0937676654617068e+00 -1.8050794208227749e-03 0.0000000000000000e+00  -3.0937676650102484e+00 -1.8050795545245450e-03 0.0000000000000000e+00  -3.0937676640851999e+00 -1.8050798157460037e-03 0.0000000000000000e+00  -3.0937676621853565e+00 -1.8050803710919013e-03 0.0000000000000000e+00  -3.0937676582872555e+00 -1.8050814800511144e-03 0.0000000000000000e+00  -3.0937676502971954e+00 -1.8050837902794208e-03 0.0000000000000000e+00  -3.0937676339371665e+00 -1.8050884519551125e-03 0.0000000000000000e+00  -3.0937676005229116e+00 -1.8050980121432612e-03 0.0000000000000000e+00  -3.0937675324612388e+00 -1.8051172878056801e-03 0.0000000000000000e+00  -3.0937673943893653e+00 -1.8051563222784414e-03 0.0000000000000000e+00  -3.0937671155290145e+00 -1.8052345093325587e-03 0.0000000000000000e+00  -3.0937665553667975e+00 -1.8053910473984805e-03 0.0000000000000000e+00  -3.0937654359410942e+00 -1.8057022178919373e-03 0.0000000000000000e+00  -3.0937632097369958e+00 -1.8063201579676775e-03 0.0000000000000000e+00  -3.0937587930898909e+00 -1.8075489367767102e-03 0.0000000000000000e+00  -3.0937500233138717e+00 -1.8100122357949135e-03 0.0000000000000000e+00  -3.0937324471061900e+00 -1.8150859605466309e-03 0.0000000000000000e+00  -3.0936968009497638e+00 -1.8255202119238296e-03 0.0000000000000000e+00  -3.0936212071954521e+00 -1.8500572710008598e-03 0.0000000000000000e+00  -3.0934629092278194e+00 -1.8940769981912206e-03 0.0000000000000000e+00  -3.0930597264915911e+00 -2.0832589207122948e-03 0.0000000000000000e+00  -3.0923987010774088e+00 -1.9760999658955127e-03 0.0000000000000000e+00  -3.0889503015642323e+00 -5.2069525298232043e-03 0.0000000000000000e+00  -3.0944500842367448e+00 1.3454616706945546e-02 0.0000000000000000e+00  -3.0371405020438105e+00 0.0000000000000000e+00 0.0000000000000000e+00  4.8251886271661970e+00 0.0000000000000000e+00 0.0000000000000000e+00  4.8390867792878725e+00 1.5616556177679160e-02 0.0000000000000000e+00  4.8231115713687887e+00 8.8695355586488091e-03 0.0000000000000000e+00  4.8216640127088377e+00 1.2853758966865036e-02 0.0000000000000000e+00  4.8183126614119800e+00 1.0664810645816647e-02 0.0000000000000000e+00  4.8185084724096123e+00 7.0545212826182580e-03 0.0000000000000000e+00  4.8175490762551147e+00 3.8959736857288648e-03 0.0000000000000000e+00  4.8175490723900012e+00 1.0187058477743420e-03 0.0000000000000000e+00  4.8174106744934075e+00 -6.0228110050018161e-04 0.0000000000000000e+00  4.8179389525077418e+00 -1.6791328282884039e-03 0.0000000000000000e+00  4.8185528388778129e+00 -2.3953968078053367e-03 0.0000000000000000e+00  4.8199838885587898e+00 -2.6275717903372631e-03 0.0000000000000000e+00  4.8216874178254274e+00 -2.0684287827890933e-03 0.0000000000000000e+00  4.8232508786617894e+00 -1.2889942244649383e-03 0.0000000000000000e+00  4.8242759104660591e+00 -6.1312539380394503e-04 0.0000000000000000e+00  4.8248862836885138e+00 -2.0841750731313778e-04 0.0000000000000000e+00  4.8251771622769652e+00 9.5024666502660158e-06 0.0000000000000000e+00  4.8253190334188014e+00 1.0012115807889456e-04 0.0000000000000000e+00  4.8253724686291450e+00 1.4046309054382454e-04 0.0000000000000000e+00  4.8253984916986887e+00 1.5319092353960063e-04 0.0000000000000000e+00  4.8254064794158449e+00 1.5986960563463021e-04 0.0000000000000000e+00  4.8254118606704903e+00 1.6153836383234907e-04 0.0000000000000000e+00  4.8254131409291245e+00 1.6313483931106019e-04 0.0000000000000000e+00  4.8254146119772994e+00 1.6341018774747133e-04 0.0000000000000000e+00  4.8254148221520898e+00 1.6390639784702541e-04 0.0000000000000000e+00  4.8254152788919500e+00 1.6393965245263688e-04 0.0000000000000000e+00  4.8254152950330820e+00 1.6409919000243286e-04 0.0000000000000000e+00  4.8254154388446802e+00 1.6409321095955579e-04 0.0000000000000000e+00  4.8254154308104695e+00 1.6414306060003641e-04 0.0000000000000000e+00  4.8254154737965145e+00 1.6413776747432716e-04 0.0000000000000000e+00  4.8254154698566429e+00 1.6415182776206982e-04 0.0000000000000000e+00  4.8254154805882674e+00 1.6415058631210846e-04 0.0000000000000000e+00  4.8254154807971679e+00 1.6415339279516946e-04 0.0000000000000000e+00  4.8254154819430486e+00 1.6415406587363913e-04 0.0000000000000000e+00  4.8254154835495049e+00 1.6415377977387077e-04 0.0000000000000000e+00  4.8254154824540016e+00 1.6415483068169735e-04 0.0000000000000000e+00  4.8254154840001471e+00 1.6415402324878339e-04 0.0000000000000000e+00  4.8254154828191886e+00 1.6415486938869519e-04 0.0000000000000000e+00  4.8254154838978431e+00 1.6415422301325122e-04 0.0000000000000000e+00  4.8254154830940159e+00 1.6415476115167922e-04 0.0000000000000000e+00  4.8254154837304020e+00 1.6415436546907708e-04 0.0000000000000000e+00  4.8254154832714633e+00 1.6415466514437956e-04 0.0000000000000000e+00  4.8254154836088698e+00 1.6415445169279299e-04 0.0000000000000000e+00  4.8254154833721774e+00 1.6415460322959772e-04 0.0000000000000000e+00  4.8254154835375331e+00 1.6415449988849498e-04 0.0000000000000000e+00  4.8254154834255090e+00 1.6415456971925752e-04 0.0000000000000000e+00  4.8254154835004002e+00 1.6415452275323798e-04 0.0000000000000000e+00  4.8254154834512208e+00 1.6415455404571478e-04 0.0000000000000000e+00  4.8254154834852523e+00 1.6415453407151546e-04 0.0000000000000000e+00  4.8254154834650009e+00 1.6415454566932574e-04 0.0000000000000000e+00  4.8254154834787260e+00 1.6415453748863770e-04 0.0000000000000000e+00  4.8254154834728240e+00 1.6415453685750904e-04 0.0000000000000000e+00  4.8254154834809295e+00 1.6415452778695895e-04 0.0000000000000000e+00  4.8254154834812644e+00 1.6415451453200504e-04 0.0000000000000000e+00  4.8254154834940888e+00 1.6415448048426816e-04 0.0000000000000000e+00  4.8254154835169363e+00 1.6415441745887895e-04 0.0000000000000000e+00  4.8254154835640906e+00 1.6415428001539332e-04 0.0000000000000000e+00  4.8254154836612235e+00 1.6415401465485471e-04 0.0000000000000000e+00  4.8254154838595529e+00 1.6415343957057281e-04 0.0000000000000000e+00  4.8254154842717503e+00 1.6415230783189432e-04 0.0000000000000000e+00  4.8254154851105024e+00 1.6414990988008682e-04 0.0000000000000000e+00  4.8254154868408552e+00 1.6414512936298181e-04 0.0000000000000000e+00  4.8254154903648372e+00 1.6413514546146602e-04 0.0000000000000000e+00  4.8254154976026804e+00 1.6411515823629456e-04 0.0000000000000000e+00  4.8254155123245805e+00 1.6407406168544714e-04 0.0000000000000000e+00  4.8254155423221823e+00 1.6399209821225426e-04 0.0000000000000000e+00  4.8254156027031510e+00 1.6382658034435040e-04 0.0000000000000000e+00  4.8254157235045083e+00 1.6349935625903237e-04 0.0000000000000000e+00  4.8254159617460193e+00 1.6284828232613317e-04 0.0000000000000000e+00  4.8254164292963937e+00 1.6156502119172813e-04 0.0000000000000000e+00  4.8254173455209433e+00 1.5900831888513418e-04 0.0000000000000000e+00  4.8254191494372671e+00 1.5389668776200034e-04 0.0000000000000000e+00  4.8254227172139084e+00 1.4349930536669163e-04 0.0000000000000000e+00  4.8254298394485398e+00 1.2170802552714227e-04 0.0000000000000000e+00  4.8254448681423803e+00 7.4642558649190487e-05 0.0000000000000000e+00  4.8254775773787166e+00 -3.6288197211686369e-05 0.0000000000000000e+00  4.8255609320968107e+00 -2.7341522823935916e-04 0.0000000000000000e+00  4.8257917569615891e+00 -9.9201131269606099e-04 0.0000000000000000e+00  4.8264046266481673e+00 -1.7118057992220599e-03 0.0000000000000000e+00  4.8314304226175198e+00 -8.7686018402970082e-03 0.0000000000000000e+00  4.8268927125177408e+00 0.0000000000000000e+00 0.0000000000000000e+00  7.9589475113033989e+00 0.0000000000000000e+00 0.0000000000000000e+00  7.9600887023338940e+00 1.6860073749060066e-03 0.0000000000000000e+00  7.9720652222829429e+00 6.4180422862557870e-03 0.0000000000000000e+00  7.9857710912739721e+00 5.8504823164633657e-03 0.0000000000000000e+00  8.0004124513465182e+00 6.0927667361874464e-03 0.0000000000000000e+00  8.0089762290388400e+00 4.4453468001150959e-03 0.0000000000000000e+00  8.0150789753673184e+00 2.6342061520629716e-03 0.0000000000000000e+00  8.0169501421795921e+00 1.1873633458683499e-03 0.0000000000000000e+00  8.0172641161905585e+00 -1.3469004220956592e-04 0.0000000000000000e+00  8.0158705735631131e+00 -6.9331736909699964e-04 0.0000000000000000e+00  8.0139573770387411e+00 -1.4483079654098023e-03 0.0000000000000000e+00  8.0113845416916316e+00 -1.9284714263795122e-03 0.0000000000000000e+00  8.0092392392551179e+00 -1.7213878067352624e-03 0.0000000000000000e+00  8.0076952131408774e+00 -1.0103160531126061e-03 0.0000000000000000e+00  8.0068733304272932e+00 -3.3540954135883547e-04 0.0000000000000000e+00  8.0064465130046560e+00 1.3988797264070495e-04 0.0000000000000000e+00  8.0062834677299879e+00 3.9491099107272578e-04 0.0000000000000000e+00  8.0062079738672605e+00 5.2250049153511270e-04 0.0000000000000000e+00  8.0061879000234999e+00 5.7410959148571159e-04 0.0000000000000000e+00  8.0061744882120411e+00 5.9708434774698692e-04 0.0000000000000000e+00  8.0061724099413727e+00 6.0476016956229018e-04 0.0000000000000000e+00  8.0061686861164354e+00 6.0888256403800135e-04 0.0000000000000000e+00  8.0061685228763082e+00 6.1008909964796758e-04 0.0000000000000000e+00  8.0061672507162864e+00 6.1110028993674307e-04 0.0000000000000000e+00  8.0061673504044020e+00 6.1133176182099724e-04 0.0000000000000000e+00  8.0061669041901578e+00 6.1163273000109210e-04 0.0000000000000000e+00  8.0061669976590082e+00 6.1167343812798623e-04 0.0000000000000000e+00  8.0061668381056244e+00 6.1176608441715255e-04 0.0000000000000000e+00  8.0061668889348443e+00 6.1177001941053392e-04 0.0000000000000000e+00  8.0061668326655919e+00 6.1179766451093865e-04 0.0000000000000000e+00  8.0061668539100133e+00 6.1179734151416772e-04 0.0000000000000000e+00  8.0061668358015581e+00 6.1180461329231306e-04 0.0000000000000000e+00  8.0061668424857189e+00 6.1180493605149139e-04 0.0000000000000000e+00  8.0061668379948738e+00 6.1180612584270204e-04 0.0000000000000000e+00  8.0061668389649121e+00 6.1180690225420657e-04 0.0000000000000000e+00  8.0061668387844147e+00 6.1180655771478549e-04 0.0000000000000000e+00  8.0061668380772488e+00 6.1180729722724457e-04 0.0000000000000000e+00  8.0061668388772507e+00 6.1180677081521938e-04 0.0000000000000000e+00  8.0061668379980464e+00 6.1180729437471906e-0