<?xml version="1.0"?>
<VTKFile type="UnstructuredGrid"  version="0.1"  >
<UnstructuredGrid>
<Piece  NumberOfPoints="1369" NumberOfCells="2560">
<Points>
<DataArray  type="Float64"  NumberOfComponents="3"  format="ascii">0 0 0  0.75 0 0  1.5 0 0  2.25 0 0  3 0 0  3.75 0 0  4.5 0 0  5.25 0 0  6 0 0  6.75 0 0  7.5 0 0  8.25 0 0  9 0 0  9.75 0 0  10.5 0 0  11.25 0 0  12 0 0  12.75 0 0  13.5 0 0  14.25 0 0  15 0 0  15.75 0 0  16.5 0 0  17.25 0 0  18 0 0  18.75 0 0  19.5 0 0  20.25 0 0  21 0 0  21.75 0 0  22.5 0 0  23.25 0 0  24 0 0  24.75 0 0  25.5 0 0  26.25 0 0  27 0 0  27.75 0 0  28.5 0 0  29.25 0 0  30 0 0  30.75 0 0  31.5 0 0  32.25 0 0  33 0 0  33.75 0 0  34.5 0 0  35.25 0 0  36 0 0  36.75 0 0  37.5 0 0  38.25 0 0  39 0 0  39.75 0 0  40.5 0 0  41.25 0 0  42 0 0  42.75 0 0  43.5 0 0  44.25 0 0  45 0 0  45.75 0 0  46.5 0 0  47.25 0 0  48 0 0  48.75 0 0  49.5 0 0  50.25 0 0  51 0 0  51.75 0 0  52.5 0 0  53.25 0 0  54 0 0  54.75 0 0  55.5 0 0  56.25 0 0  57 0 0  57.75 0 0  58.5 0 0  59.25 0 0  60 0 0  0 0.5 0  0.75 0.5 0  1.5 0.5 0  2.25 0.5 0  3 0.5 0  3.75 0.5 0  4.5 0.5 0  5.25 0.5 0  6 0.5 0  6.75 0.5 0  7.5 0.5 0  8.25 0.5 0  9 0.5 0  9.75 0.5 0  10.5 0.5 0  11.25 0.5 0  12 0.5 0  12.75 0.5 0  13.5 0.5 0  14.25 0.5 0  15 0.5 0  15.75 0.5 0  16.5 0.5 0  17.25 0.5 0  18 0.5 0  18.75 0.5 0  19.5 0.5 0  20.25 0.5 0  21 0.5 0  21.75 0.5 0  22.5 0.5 0  23.25 0.5 0  24 0.5 0  24.75 0.5 0  25.5 0.5 0  26.25 0.5 0  27 0.5 0  27.75 0.5 0  28.5 0.5 0  29.25 0.5 0  30 0.5 0  30.75 0.5 0  31.5 0.5 0  32.25 0.5 0  33 0.5 0  33.75 0.5 0  34.5 0.5 0  35.25 0.5 0  36 0.5 0  36.75 0.5 0  37.5 0.5 0  38.25 0.5 0  39 0.5 0  39.75 0.5 0  40.5 0.5 0  41.25 0.5 0  42 0.5 0  42.75 0.5 0  43.5 0.5 0  44.25 0.5 0  45 0.5 0  45.75 0.5 0  46.5 0.5 0  47.25 0.5 0  48 0.5 0  48.75 0.5 0  49.5 0.5 0  50.25 0.5 0  51 0.5 0  51.75 0.5 0  52.5 0.5 0  53.25 0.5 0  54 0.5 0  54.75 0.5 0  55.5 0.5 0  56.25 0.5 0  57 0.5 0  57.75 0.5 0  58.5 0.5 0  59.25 0.5 0  60 0.5 0  0 1 0  0.75 1 0  1.5 1 0  2.25 1 0  3 1 0  3.75 1 0  4.5 1 0  5.25 1 0  6 1 0  6.75 1 0  7.5 1 0  8.25 1 0  9 1 0  9.75 1 0  10.5 1 0  11.25 1 0  12 1 0  12.75 1 0  13.5 1 0  14.25 1 0  15 1 0  15.75 1 0  16.5 1 0  17.25 1 0  18 1 0  18.75 1 0  19.5 1 0  20.25 1 0  21 1 0  21.75 1 0  22.5 1 0  23.25 1 0  24 1 0  24.75 1 0  25.5 1 0  26.25 1 0  27 1 0  27.75 1 0  28.5 1 0  29.25 1 0  30 1 0  30.75 1 0  31.5 1 0  32.25 1 0  33 1 0  33.75 1 0  34.5 1 0  35.25 1 0  36 1 0  36.75 1 0  37.5 1 0  38.25 1 0  39 1 0  39.75 1 0  40.5 1 0  41.25 1 0  42 1 0  42.75 1 0  43.5 1 0  44.25 1 0  45 1 0  45.75 1 0  46.5 1 0  47.25 1 0  48 1 0  48.75 1 0  49.5 1 0  50.25 1 0  51 1 0  51.75 1 0  52.5 1 0  53.25 1 0  54 1 0  54.75 1 0  55.5 1 0  56.25 1 0  57 1 0  57.75 1 0  58.5 1 0  59.25 1 0  60 1 0  0 1.5 0  0.75 1.5 0  1.5 1.5 0  2.25 1.5 0  3 1.5 0  3.75 1.5 0  4.5 1.5 0  5.25 1.5 0  6 1.5 0  6.75 1.5 0  7.5 1.5 0  8.25 1.5 0  9 1.5 0  9.75 1.5 0  10.5 1.5 0  11.25 1.5 0  12 1.5 0  12.75 1.5 0  13.5 1.5 0  14.25 1.5 0  15 1.5 0  15.75 1.5 0  16.5 1.5 0  17.25 1.5 0  18 1.5 0  18.75 1.5 0  19.5 1.5 0  20.25 1.5 0  21 1.5 0  21.75 1.5 0  22.5 1.5 0  23.25 1.5 0  24 1.5 0  24.75 1.5 0  25.5 1.5 0  26.25 1.5 0  27 1.5 0  27.75 1.5 0  28.5 1.5 0  29.25 1.5 0  30 1.5 0  30.75 1.5 0  31.5 1.5 0  32.25 1.5 0  33 1.5 0  33.75 1.5 0  34.5 1.5 0  35.25 1.5 0  36 1.5 0  36.75 1.5 0  37.5 1.5 0  38.25 1.5 0  39 1.5 0  39.75 1.5 0  40.5 1.5 0  41.25 1.5 0  42 1.5 0  42.75 1.5 0  43.5 1.5 0  44.25 1.5 0  45 1.5 0  45.75 1.5 0  46.5 1.5 0  47.25 1.5 0  48 1.5 0  48.75 1.5 0  49.5 1.5 0  50.25 1.5 0  51 1.5 0  51.75 1.5 0  52.5 1.5 0  53.25 1.5 0  54 1.5 0  54.75 1.5 0  55.5 1.5 0  56.25 1.5 0  57 1.5 0  57.75 1.5 0  58.5 1.5 0  59.25 1.5 0  60 1.5 0  0 2 0  0.75 2 0  1.5 2 0  2.25 2 0  3 2 0  3.75 2 0  4.5 2 0  5.25 2 0  6 2 0  6.75 2 0  7.5 2 0  8.25 2 0  9 2 0  9.75 2 0  10.5 2 0  11.25 2 0  12 2 0  12.75 2 0  13.5 2 0  14.25 2 0  15 2 0  15.75 2 0  16.5 2 0  17.25 2 0  18 2 0  18.75 2 0  19.5 2 0  20.25 2 0  21 2 0  21.75 2 0  22.5 2 0  23.25 2 0  24 2 0  24.75 2 0  25.5 2 0  26.25 2 0  27 2 0  27.75 2 0  28.5 2 0  29.25 2 0  30 2 0  30.75 2 0  31.5 2 0  32.25 2 0  33 2 0  33.75 2 0  34.5 2 0  35.25 2 0  36 2 0  36.75 2 0  37.5 2 0  38.25 2 0  39 2 0  39.75 2 0  40.5 2 0  41.25 2 0  42 2 0  42.75 2 0  43.5 2 0  44.25 2 0  45 2 0  45.75 2 0  46.5 2 0  47.25 2 0  48 2 0  48.75 2 0  49.5 2 0  50.25 2 0  51 2 0  51.75 2 0  52.5 2 0  53.25 2 0  54 2 0  54.75 2 0  55.5 2 0  56.25 2 0  57 2 0  57.75 2 0  58.5 2 0  59.25 2 0  60 2 0  0 2.5 0  0.75 2.5 0  1.5 2.5 0  2.25 2.5 0  3 2.5 0  3.75 2.5 0  4.5 2.5 0  5.25 2.5 0  6 2.5 0  6.75 2.5 0  7.5 2.5 0  8.25 2.5 0  9 2.5 0  9.75 2.5 0  10.5 2.5 0  11.25 2.5 0  12 2.5 0  12.75 2.5 0  13.5 2.5 0  14.25 2.5 0  15 2.5 0  15.75 2.5 0  16.5 2.5 0  17.25 2.5 0  18 2.5 0  18.75 2.5 0  19.5 2.5 0  20.25 2.5 0  21 2.5 0  21.75 2.5 0  22.5 2.5 0  23.25 2.5 0  24 2.5 0  24.75 2.5 0  25.5 2.5 0  26.25 2.5 0  27 2.5 0  27.75 2.5 0  28.5 2.5 0  29.25 2.5 0  30 2.5 0  30.75 2.5 0  31.5 2.5 0  32.25 2.5 0  33 2.5 0  33.75 2.5 0  34.5 2.5 0  35.25 2.5 0  36 2.5 0  36.75 2.5 0  37.5 2.5 0  38.25 2.5 0  39 2.5 0  39.75 2.5 0  40.5 2.5 0  41.25 2.5 0  42 2.5 0  42.75 2.5 0  43.5 2.5 0  44.25 2.5 0  45 2.5 0  45.75 2.5 0  46.5 2.5 0  47.25 2.5 0  48 2.5 0  48.75 2.5 0  49.5 2.5 0  50.25 2.5 0  51 2.5 0  51.75 2.5 0  52.5 2.5 0  53.25 2.5 0  54 2.5 0  54.75 2.5 0  55.5 2.5 0  56.25 2.5 0  57 2.5 0  57.75 2.5 0  58.5 2.5 0  59.25 2.5 0  60 2.5 0  0 3 0  0.75 3 0  1.5 3 0  2.25 3 0  3 3 0  3.75 3 0  4.5 3 0  5.25 3 0  6 3 0  6.75 3 0  7.5 3 0  8.25 3 0  9 3 0  9.75 3 0  10.5 3 0  11.25 3 0  12 3 0  12.75 3 0  13.5 3 0  14.25 3 0  15 3 0  15.75 3 0  16.5 3 0  17.25 3 0  18 3 0  18.75 3 0  19.5 3 0  20.25 3 0  21 3 0  21.75 3 0  22.5 3 0  23.25 3 0  24 3 0  24.75 3 0  25.5 3 0  26.25 3 0  27 3 0  27.75 3 0  28.5 3 0  29.25 3 0  30 3 0  30.75 3 0  31.5 3 0  32.25 3 0  33 3 0  33.75 3 0  34.5 3 0  35.25 3 0  36 3 0  36.75 3 0  37.5 3 0  38.25 3 0  39 3 0  39.75 3 0  40.5 3 0  41.25 3 0  42 3 0  42.75 3 0  43.5 3 0  44.25 3 0  45 3 0  45.75 3 0  46.5 3 0  47.25 3 0  48 3 0  48.75 3 0  49.5 3 0  50.25 3 0  51 3 0  51.75 3 0  52.5 3 0  53.25 3 0  54 3 0  54.75 3 0  55.5 3 0  56.25 3 0  57 3 0  57.75 3 0  58.5 3 0  59.25 3 0  60 3 0  0 3.5 0  0.75 3.5 0  1.5 3.5 0  2.25 3.5 0  3 3.5 0  3.75 3.5 0  4.5 3.5 0  5.25 3.5 0  6 3.5 0  6.75 3.5 0  7.5 3.5 0  8.25 3.5 0  9 3.5 0  9.75 3.5 0  10.5 3.5 0  11.25 3.5 0  12 3.5 0  12.75 3.5 0  13.5 3.5 0  14.25 3.5 0  15 3.5 0  15.75 3.5 0  16.5 3.5 0  17.25 3.5 0  18 3.5 0  18.75 3.5 0  19.5 3.5 0  20.25 3.5 0  21 3.5 0  21.75 3.5 0  22.5 3.5 0  23.25 3.5 0  24 3.5 0  24.75 3.5 0  25.5 3.5 0  26.25 3.5 0  27 3.5 0  27.75 3.5 0  28.5 3.5 0  29.25 3.5 0  30 3.5 0  30.75 3.5 0  31.5 3.5 0  32.25 3.5 0  33 3.5 0  33.75 3.5 0  34.5 3.5 0  35.25 3.5 0  36 3.5 0  36.75 3.5 0  37.5 3.5 0  38.25 3.5 0  39 3.5 0  39.75 3.5 0  40.5 3.5 0  41.25 3.5 0  42 3.5 0  42.75 3.5 0  43.5 3.5 0  44.25 3.5 0  45 3.5 0  45.75 3.5 0  46.5 3.5 0  47.25 3.5 0  48 3.5 0  48.75 3.5 0  49.5 3.5 0  50.25 3.5 0  51 3.5 0  51.75 3.5 0  52.5 3.5 0  53.25 3.5 0  54 3.5 0  54.75 3.5 0  55.5 3.5 0  56.25 3.5 0  57 3.5 0  57.75 3.5 0  58.5 3.5 0  59.25 3.5 0  60 3.5 0  0 4 0  0.75 4 0  1.5 4 0  2.25 4 0  3 4 0  3.75 4 0  4.5 4 0  5.25 4 0  6 4 0  6.75 4 0  7.5 4 0  8.25 4 0  9 4 0  9.75 4 0  10.5 4 0  11.25 4 0  12 4 0  12.75 4 0  13.5 4 0  14.25 4 0  15 4 0  15.75 4 0  16.5 4 0  17.25 4 0  18 4 0  18.75 4 0  19.5 4 0  20.25 4 0  21 4 0  21.75 4 0  22.5 4 0  23.25 4 0  24 4 0  24.75 4 0  25.5 4 0  26.25 4 0  27 4 0  27.75 4 0  28.5 4 0  29.25 4 0  30 4 0  30.75 4 0  31.5 4 0  32.25 4 0  33 4 0  33.75 4 0  34.5 4 0  35.25 4 0  36 4 0  36.75 4 0  37.5 4 0  38.25 4 0  39 4 0  39.75 4 0  40.5 4 0  41.25 4 0  42 4 0  42.75 4 0  43.5 4 0  44.25 4 0  45 4 0  45.75 4 0  46.5 4 0  47.25 4 0  48 4 0  48.75 4 0  49.5 4 0  50.25 4 0  51 4 0  51.75 4 0  52.5 4 0  53.25 4 0  54 4 0  54.75 4 0  55.5 4 0  56.25 4 0  57 4 0  57.75 4 0  58.5 4 0  59.25 4 0  60 4 0  0.375 0.25 0  1.125 0.25 0  1.875 0.25 0  2.625 0.25 0  3.375 0.25 0  4.125 0.25 0  4.875 0.25 0  5.625 0.25 0  6.375 0.25 0  7.125 0.25 0  7.875 0.25 0  8.625 0.25 0  9.375 0.25 0  10.125 0.25 0  10.875 0.25 0  11.625 0.25 0  12.375 0.25 0  13.125 0.25 0  13.875 0.25 0  14.625 0.25 0  15.375 0.25 0  16.125 0.25 0  16.875 0.25 0  17.625 0.25 0  18.375 0.25 0  19.125 0.25 0  19.875 0.25 0  20.625 0.25 0  21.375 0.25 0  22.125 0.25 0  22.875 0.25 0  23.625 0.25 0  24.375 0.25 0  25.125 0.25 0  25.875 0.25 0  26.625 0.25 0  27.375 0.25 0  28.125 0.25 0  28.875 0.25 0  29.625 0.25 0  30.375 0.25 0  31.125 0.25 0  31.875 0.25 0  32.625 0.25 0  33.375 0.25 0  34.125 0.25 0  34.875 0.25 0  35.625 0.25 0  36.375 0.25 0  37.125 0.25 0  37.875 0.25 0  38.625 0.25 0  39.375 0.25 0  40.125 0.25 0  40.875 0.25 0  41.625 0.25 0  42.375 0.25 0  43.125 0.25 0  43.875 0.25 0  44.625 0.25 0  45.375 0.25 0  46.125 0.25 0  46.875 0.25 0  47.625 0.25 0  48.375 0.25 0  49.125 0.25 0  49.875 0.25 0  50.625 0.25 0  51.375 0.25 0  52.125 0.25 0  52.875 0.25 0  53.625 0.25 0  54.375 0.25 0  55.125 0.25 0  55.875 0.25 0  56.625 0.25 0  57.375 0.25 0  58.125 0.25 0  58.875 0.25 0  59.625 0.25 0  0.375 0.75 0  1.125 0.75 0  1.875 0.75 0  2.625 0.75 0  3.375 0.75 0  4.125 0.75 0  4.875 0.75 0  5.625 0.75 0  6.375 0.75 0  7.125 0.75 0  7.875 0.75 0  8.625 0.75 0  9.375 0.75 0  10.125 0.75 0  10.875 0.75 0  11.625 0.75 0  12.375 0.75 0  13.125 0.75 0  13.875 0.75 0  14.625 0.75 0  15.375 0.75 0  16.125 0.75 0  16.875 0.75 0  17.625 0.75 0  18.375 0.75 0  19.125 0.75 0  19.875 0.75 0  20.625 0.75 0  21.375 0.75 0  22.125 0.75 0  22.875 0.75 0  23.625 0.75 0  24.375 0.75 0  25.125 0.75 0  25.875 0.75 0  26.625 0.75 0  27.375 0.75 0  28.125 0.75 0  28.875 0.75 0  29.625 0.75 0  30.375 0.75 0  31.125 0.75 0  31.875 0.75 0  32.625 0.75 0  33.375 0.75 0  34.125 0.75 0  34.875 0.75 0  35.625 0.75 0  36.375 0.75 0  37.125 0.75 0  37.875 0.75 0  38.625 0.75 0  39.375 0.75 0  40.125 0.75 0  40
[...]
<PointData  Vectors="f_8-0"> 
<DataArray  type="Float64"  Name="f_8-0"  NumberOfComponents="3" format="ascii">0.0000000000000000e+00 0.0000000000000000e+00 0.0000000000000000e+00  0.0000000000000000e+00 0.0000000000000000e+00 0.0000000000000000e+00  0.0000000000000000e+00 0.0000000000000000e+00 0.0000000000000000e+00  0.0000000000000000e+00 0.0000000000000000e+00 0.0000000000000000e+00  0.0000000000000000e+00 0.0000000000000000e+00 0.0000000000000000e+00  0.0000000000000000e+00 0.0000000000000000e+00 0.0000000000000000e+00  0.0000000000000000e+00 0.0000000000000000e+00 0.0000000000000000e+00  0.0000000000000000e+00 0.0000000000000000e+00 0.0000000000000000e+00  0.0000000000000000e+00 0.0000000000000000e+00 0.0000000000000000e+00  0.0000000000000000e+00 0.0000000000000000e+00 0.0000000000000000e+00  0.0000000000000000e+00 0.0000000000000000e+00 0.0000000000000000e+00  0.0000000000000000e+00 0.0000000000000000e+00 0.0000000000000000e+00  0.0000000000000000e+00 0.0000000000000000e+00 0.0000000000000000e+00  0.0000000000000000e+00 0.0000000000000000e+00 0.0000000000000000e+00  0.0000000000000000e+00 0.0000000000000000e+00 0.0000000000000000e+00  0.0000000000000000e+00 0.0000000000000000e+00 0.0000000000000000e+00  0.0000000000000000e+00 0.0000000000000000e+00 0.0000000000000000e+00  0.0000000000000000e+00 0.0000000000000000e+00 0.0000000000000000e+00  0.0000000000000000e+00 0.0000000000000000e+00 0.0000000000000000e+00  0.0000000000000000e+00 0.0000000000000000e+00 0.0000000000000000e+00  0.0000000000000000e+00 0.0000000000000000e+00 0.0000000000000000e+00  0.0000000000000000e+00 0.0000000000000000e+00 0.0000000000000000e+00  0.0000000000000000e+00 0.0000000000000000e+00 0.0000000000000000e+00  0.0000000000000000e+00 0.0000000000000000e+00 0.0000000000000000e+00  0.0000000000000000e+00 0.0000000000000000e+00 0.0000000000000000e+00  0.0000000000000000e+00 0.0000000000000000e+00 0.0000000000000000e+00  0.0000000000000000e+00 0.0000000000000000e+00 0.0000000000000000e+00  0.0000000000000000e+00 0.0000000000000000e+00 0.0000000000000000e+00  0.0000000000000000e+00 0.0000000000000000e+00 0.0000000000000000e+00  0.0000000000000000e+00 0.0000000000000000e+00 0.0000000000000000e+00  0.0000000000000000e+00 0.0000000000000000e+00 0.0000000000000000e+00  0.0000000000000000e+00 0.0000000000000000e+00 0.0000000000000000e+00  0.0000000000000000e+00 0.0000000000000000e+00 0.0000000000000000e+00  0.0000000000000000e+00 0.0000000000000000e+00 0.0000000000000000e+00  0.0000000000000000e+00 0.0000000000000000e+00 0.0000000000000000e+00  0.0000000000000000e+00 0.0000000000000000e+00 0.0000000000000000e+00  0.0000000000000000e+00 0.0000000000000000e+00 0.0000000000000000e+00  0.0000000000000000e+00 0.0000000000000000e+00 0.0000000000000000e+00  0.0000000000000000e+00 0.0000000000000000e+00 0.0000000000000000e+00  0.0000000000000000e+00 0.0000000000000000e+00 0.0000000000000000e+00  0.0000000000000000e+00 0.0000000000000000e+00 0.0000000000000000e+00  0.0000000000000000e+00 0.0000000000000000e+00 0.0000000000000000e+00  0.0000000000000000e+00 0.0000000000000000e+00 0.0000000000000000e+00  0.0000000000000000e+00 0.0000000000000000e+00 0.0000000000000000e+00  0.0000000000000000e+00 0.0000000000000000e+00 0.0000000000000000e+00  0.0000000000000000e+00 0.0000000000000000e+00 0.0000000000000000e+00  0.0000000000000000e+00 0.0000000000000000e+00 0.0000000000000000e+00  0.0000000000000000e+00 0.0000000000000000e+00 0.0000000000000000e+00  0.0000000000000000e+00 0.0000000000000000e+00 0.0000000000000000e+00  0.0000000000000000e+00 0.0000000000000000e+00 0.0000000000000000e+00  0.0000000000000000e+00 0.0000000000000000e+00 0.0000000000000000e+00  0.0000000000000000e+00 0.0000000000000000e+00 0.0000000000000000e+00  0.0000000000000000e+00 0.0000000000000000e+00 0.0000000000000000e+00  0.0000000000000000e+00 0.0000000000000000e+00 0.0000000000000000e+00  0.0000000000000000e+00 0.0000000000000000e+00 0.0000000000000000e+00  0.0000000000000000e+00 0.0000000000000000e+00 0.0000000000000000e+00  0.0000000000000000e+00 0.0000000000000000e+00 0.0000000000000000e+00  0.0000000000000000e+00 0.0000000000000000e+00 0.0000000000000000e+00  0.0000000000000000e+00 0.0000000000000000e+00 0.0000000000000000e+00  0.0000000000000000e+00 0.0000000000000000e+00 0.0000000000000000e+00  0.0000000000000000e+00 0.0000000000000000e+00 0.0000000000000000e+00  0.0000000000000000e+00 0.0000000000000000e+00 0.0000000000000000e+00  0.0000000000000000e+00 0.0000000000000000e+00 0.0000000000000000e+00  0.0000000000000000e+00 0.0000000000000000e+00 0.0000000000000000e+00  0.0000000000000000e+00 0.0000000000000000e+00 0.0000000000000000e+00  0.0000000000000000e+00 0.0000000000000000e+00 0.0000000000000000e+00  0.0000000000000000e+00 0.0000000000000000e+00 0.0000000000000000e+00  0.0000000000000000e+00 0.0000000000000000e+00 0.0000000000000000e+00  0.0000000000000000e+00 0.0000000000000000e+00 0.0000000000000000e+00  0.0000000000000000e+00 0.0000000000000000e+00 0.0000000000000000e+00  0.0000000000000000e+00 0.0000000000000000e+00 0.0000000000000000e+00  0.0000000000000000e+00 0.0000000000000000e+00 0.0000000000000000e+00  0.0000000000000000e+00 0.0000000000000000e+00 0.0000000000000000e+00  0.0000000000000000e+00 0.0000000000000000e+00 0.0000000000000000e+00  0.0000000000000000e+00 0.0000000000000000e+00 0.0000000000000000e+00  0.0000000000000000e+00 0.0000000000000000e+00 0.0000000000000000e+00  0.0000000000000000e+00 0.0000000000000000e+00 0.0000000000000000e+00  0.0000000000000000e+00 0.0000000000000000e+00 0.0000000000000000e+00  0.0000000000000000e+00 0.0000000000000000e+00 0.0000000000000000e+00  0.0000000000000000e+00 0.0000000000000000e+00 0.0000000000000000e+00  0.0000000000000000e+00 0.0000000000000000e+00 0.0000000000000000e+00  -1.6574348143103677e+01 0.0000000000000000e+00 0.0000000000000000e+00  -1.6524258551044113e+01 -2.7231078852059523e-04 0.0000000000000000e+00  -1.6509133265971606e+01 -5.6285336557809762e-03 0.0000000000000000e+00  -1.6505736710113506e+01 -5.5811012061543156e-03 0.0000000000000000e+00  -1.6504353806035223e+01 -5.3893605857933393e-03 0.0000000000000000e+00  -1.6503498949117080e+01 -5.2827672801737365e-03 0.0000000000000000e+00  -1.6502829880911477e+01 -5.2170610621289455e-03 0.0000000000000000e+00  -1.6502300195308496e+01 -5.1584139981325295e-03 0.0000000000000000e+00  -1.6501905297844214e+01 -5.1033391294164881e-03 0.0000000000000000e+00  -1.6501629368927809e+01 -5.0569611902945861e-03 0.0000000000000000e+00  -1.6501446662142111e+01 -5.0217991119921096e-03 0.0000000000000000e+00  -1.6501330511641111e+01 -4.9973770163876680e-03 0.0000000000000000e+00  -1.6501258730874632e+01 -4.9814234899498381e-03 0.0000000000000000e+00  -1.6501215069727866e+01 -4.9714995358923573e-03 0.0000000000000000e+00  -1.6501188629828423e+01 -4.9654831748234853e-03 0.0000000000000000e+00  -1.6501172533300991e+01 -4.9618935951536592e-03 0.0000000000000000e+00  -1.6501162617488863e+01 -4.9597423828574893e-03 0.0000000000000000e+00  -1.6501156416215494e+01 -4.9584456534144316e-03 0.0000000000000000e+00  -1.6501152478386928e+01 -4.9576484768741168e-03 0.0000000000000000e+00  -1.6501149942315696e+01 -4.9571529131767567e-03 0.0000000000000000e+00  -1.6501148288921407e+01 -4.9568384788583409e-03 0.0000000000000000e+00  -1.6501147198866228e+01 -4.9566376248831659e-03 0.0000000000000000e+00  -1.6501146472735034e+01 -4.9565071529020658e-03 0.0000000000000000e+00  -1.6501145983994459e+01 -4.9564220932538962e-03 0.0000000000000000e+00  -1.6501145651712800e+01 -4.9563657533771349e-03 0.0000000000000000e+00  -1.6501145423528410e+01 -4.9563282772060700e-03 0.0000000000000000e+00  -1.6501145265343894e+01 -4.9563029532848323e-03 0.0000000000000000e+00  -1.6501145154662741e+01 -4.9562857642715076e-03 0.0000000000000000e+00  -1.6501145076522640e+01 -4.9562739416193682e-03 0.0000000000000000e+00  -1.6501145020833203e+01 -4.9562657828542368e-03 0.0000000000000000e+00  -1.6501144980748130e+01 -4.9562600947234683e-03 0.0000000000000000e+00  -1.6501144951575590e+01 -4.9562561156398545e-03 0.0000000000000000e+00  -1.6501144930096125e+01 -4.9562533014872283e-03 0.0000000000000000e+00  -1.6501144914092304e+01 -4.9562512975168862e-03 0.0000000000000000e+00  -1.6501144902024123e+01 -4.9562498465832725e-03 0.0000000000000000e+00  -1.6501144892837960e+01 -4.9562487919242821e-03 0.0000000000000000e+00  -1.6501144885764433e+01 -4.9562479949112710e-03 0.0000000000000000e+00  -1.6501144880316389e+01 -4.9562474192869693e-03 0.0000000000000000e+00  -1.6501144876026085e+01 -4.9562469359306621e-03 0.0000000000000000e+00  -1.6501144872762566e+01 -4.9562466476477402e-03 0.0000000000000000e+00  -1.6501144870036313e+01 -4.9562462758709520e-03 0.0000000000000000e+00  -1.6501144868176993e+01 -4.9562462579791590e-03 0.0000000000000000e+00  -1.6501144866181516e+01 -4.9562457680154782e-03 0.0000000000000000e+00  -1.6501144865492435e+01 -4.9562462262511923e-03 0.0000000000000000e+00  -1.6501144863357325e+01 -4.9562451297627645e-03 0.0000000000000000e+00  -1.6501144864316135e+01 -4.9562467726999345e-03 0.0000000000000000e+00  -1.6501144860527035e+01 -4.9562438196721313e-03 0.0000000000000000e+00  -1.6501144865013565e+01 -4.9562486063397700e-03 0.0000000000000000e+00  -1.6501144856197495e+01 -4.9562406223629682e-03 0.0000000000000000e+00  -1.6501144869148028e+01 -4.9562534827669209e-03 0.0000000000000000e+00  -1.6501144847601509e+01 -4.9562328544418954e-03 0.0000000000000000e+00  -1.6501144880344210e+01 -4.9562652514333928e-03 0.0000000000000000e+00  -1.6501144829432274e+01 -4.9562150165169457e-03 0.0000000000000000e+00  -1.6501144905629801e+01 -4.9562915076380243e-03 0.0000000000000000e+00  -1.6501144792079991e+01 -4.9561768940353194e-03 0.0000000000000000e+00  -1.6501144956976450e+01 -4.9563456417936972e-03 0.0000000000000000e+00  -1.6501144719449730e+01 -4.9561018690327061e-03 0.0000000000000000e+00  -1.6501145050590505e+01 -4.9564480732094173e-03 0.0000000000000000e+00  -1.6501144587359850e+01 -4.9559694777452905e-03 0.0000000000000000e+00  -1.6501145187221628e+01 -4.9566219301694350e-03 0.0000000000000000e+00  -1.6501144369308768e+01 -4.9557783890605937e-03 0.0000000000000000e+00  -1.6501145253841614e+01 -4.9568540063520752e-03 0.0000000000000000e+00  -1.6501144137432497e+01 -4.9555913947399799e-03 0.0000000000000000e+00  -1.6501144947646011e+01 -4.9567640376813509e-03 0.0000000000000000e+00  -1.6501144972753668e+01 -4.9552463928103866e-03 0.0000000000000000e+00  -1.6501144085490086e+01 -4.9542983392220760e-03 0.0000000000000000e+00  -1.6501145532482592e+01 -4.9561563295924200e-03 0.0000000000000000e+00  -1.6501109094582610e+01 -4.9580076668767391e-03 0.0000000000000000e+00  -1.6501015718655932e+01 -5.0150140793388514e-03 0.0000000000000000e+00  -1.6500622634872734e+01 -5.1033727166100093e-03 0.0000000000000000e+00  -1.6499880152547821e+01 -5.3876460946595713e-03 0.0000000000000000e+00  -1.6498213939999918e+01 -5.5650762736616155e-03 0.0000000000000000e+00  -1.6496034669644278e+01 -5.9822472359922080e-03 0.0000000000000000e+00  -1.6492287582677555e+01 -5.7413232096814124e-03 0.0000000000000000e+00  -1.6490123241453521e+01 -5.7193731243307209e-03 0.0000000000000000e+00  -1.6488597138234709e+01 -3.5392677643851147e-03 0.0000000000000000e+00  -1.6491508074873661e+01 -4.7681463608637538e-03 0.0000000000000000e+00  -1.6491887421758296e+01 -5.1538017181985089e-03 0.0000000000000000e+00  -1.6489934390430367e+01 -2.0365226227003541e-02 0.0000000000000000e+00  -1.6498258479301395e+01 -6.1683798922505098e-02 0.0000000000000000e+00  -1.6445413935545517e+01 0.0000000000000000e+00 0.0000000000000000e+00  -2.5058867348604561e+01 0.0000000000000000e+00 0.0000000000000000e+00  -2.5066750810794062e+01 -4.0490068275379132e-03 0.0000000000000000e+00  -2.5066613653001355e+01 -1.9793527113528544e-04 0.0000000000000000e+00  -2.5065815818292432e+01 1.0570752068817860e-03 0.0000000000000000e+00  -2.5065347445483489e+01 1.5534971738883857e-03 0.0000000000000000e+00  -2.5064996911736689e+01 1.7711719675313491e-03 0.0000000000000000e+00  -2.5064759966084708e+01 1.9346726265486059e-03 0.0000000000000000e+00  -2.5064632618423946e+01 2.0848084610683047e-03 0.0000000000000000e+00  -2.5064577559162590e+01 2.2115500209068393e-03 0.0000000000000000e+00  -2.5064557330525624e+01 2.3074266780224238e-03 0.0000000000000000e+00  -2.5064550310663108e+01 2.3749592109067680e-03 0.0000000000000000e+00  -2.5064547264392960e+01 2.4198731113453304e-03 0.0000000000000000e+00  -2.5064545189768385e+01 2.4486102882446035e-03 0.0000000000000000e+00  -2.5064543452992737e+01 2.4663082527607411e-03 0.0000000000000000e+00  -2.5064542019092510e+01 2.4770381689004257e-03 0.0000000000000000e+00  -2.5064540908888986e+01 2.4834687286148641e-03 0.0000000000000000e+00  -2.5064540093840126e+01 2.4873665710028595e-03 0.0000000000000000e+00  -2.5064539518675140e+01 2.4897396788665007e-03 0.0000000000000000e+00  -2.5064539121004461e+01 2.4912160244210677e-03 0.0000000000000000e+00  -2.5064538848154612e+01 2.4921391997322897e-03 0.0000000000000000e+00  -2.5064538659626958e+01 2.4927295070850918e-03 0.0000000000000000e+00  -2.5064538527915232e+01 2.4931074283313843e-03 0.0000000000000000e+00  -2.5064538434528838e+01 2.4933546848448975e-03 0.0000000000000000e+00  -2.5064538367677798e+01 2.4935163156736282e-03 0.0000000000000000e+00  -2.5064538319427474e+01 2.4936243328135253e-03 0.0000000000000000e+00  -2.5064538284476569e+01 2.4936964364335084e-03 0.0000000000000000e+00  -2.5064538259028875e+01 2.4937456061407495e-03 0.0000000000000000e+00  -2.5064538240407444e+01 2.4937790567947371e-03 0.0000000000000000e+00  -2.5064538226646402e+01 2.4938022377815720e-03 0.0000000000000000e+00  -2.5064538216362486e+01 2.4938182458867468e-03 0.0000000000000000e+00  -2.5064538208568429e+01 2.4938294845519805e-03 0.0000000000000000e+00  -2.5064538202579527e+01 2.4938373603016510e-03 0.0000000000000000e+00  -2.5064538197926225e+01 2.4938429788893368e-03 0.0000000000000000e+00  -2.5064538194271304e+01 2.4938470051590242e-03 0.0000000000000000e+00  -2.5064538191404633e+01 2.4938499427423666e-03 0.0000000000000000e+00  -2.5064538189119233e+01 2.4938521183437887e-03 0.0000000000000000e+00  -2.5064538187354501e+01 2.4938537341347806e-03 0.0000000000000000e+00  -2.5064538185886573e+01 2.4938549915617583e-03 0.0000000000000000e+00  -2.5064538184858581e+01 2.4938558953041139e-03 0.0000000000000000e+00  -2.5064538183805407e+01 2.4938566950590303e-03 0.0000000000000000e+00  -2.5064538183386233e+01 2.4938571235640318e-03 0.0000000000000000e+00  -2.5064538182304993e+01 2.4938577882492124e-03 0.0000000000000000e+00  -2.5064538182715907e+01 2.4938577091444800e-03 0.0000000000000000e+00  -2.5064538180825124e+01 2.4938586780106726e-03 0.0000000000000000e+00  -2.5064538183030990e+01 2.4938576451890297e-03 0.0000000000000000e+00  -2.5064538178541756e+01 2.4938598833290746e-03 0.0000000000000000e+00  -2.5064538185200931e+01 2.4938565032395299e-03 0.0000000000000000e+00  -2.5064538173877217e+01 2.4938623948620956e-03 0.0000000000000000e+00  -2.5064538191330445e+01 2.4938530112017534e-03 0.0000000000000000e+00  -2.5064538163750232e+01 2.4938683131473750e-03 0.0000000000000000e+00  -2.5064538205526294e+01 2.4938442239926281e-03 0.0000000000000000e+00  -2.5064538142742855e+01 2.4938819544935396e-03 0.0000000000000000e+00  -2.5064538234384546e+01 2.4938241510727020e-03 0.0000000000000000e+00  -2.5064538103045411e+01 2.4939113662446181e-03 0.0000000000000000e+00  -2.5064538285488275e+01 2.4937820842939121e-03 0.0000000000000000e+00  -2.5064538037388392e+01 2.4939692156200326e-03 0.0000000000000000e+00  -2.5064538358331191e+01 2.4937018510697542e-03 0.0000000000000000e+00  -2.5064537951239668e+01 2.4940679178671646e-03 0.0000000000000000e+00  -2.5064538405205134e+01 2.4935652474185480e-03 0.0000000000000000e+00  -2.5064537902453775e+01 2.4941882356959428e-03 0.0000000000000000e+00  -2.5064538177420996e+01 2.4933676733088989e-03 0.0000000000000000e+00  -2.5064538086945916e+01 2.4941739439953625e-03 0.0000000000000000e+00  -2.5064536670797789e+01 2.4932142551536973e-03 0.0000000000000000e+00  -2.5064538493837869e+01 2.4935256085944087e-03 0.0000000000000000e+00  -2.5064528996710166e+01 2.4931773325714019e-03 0.0000000000000000e+00  -2.5064530298153198e+01 2.4872609551480009e-03 0.0000000000000000e+00  -2.5064476761463293e+01 2.4755905074173115e-03 0.0000000000000000e+00  -2.5064417801204598e+01 2.4015799332028380e-03 0.0000000000000000e+00  -2.5064130730083161e+01 2.2459836761131819e-03 0.0000000000000000e+00  -2.5063714828823027e+01 1.8119561799056687e-03 0.0000000000000000e+00  -2.5062555496629756e+01 1.1643907665005782e-03 0.0000000000000000e+00  -2.5060799519864261e+01 -2.1580894998452079e-05 0.0000000000000000e+00  -2.5056955919079382e+01 -1.1581747248127817e-03 0.0000000000000000e+00  -2.5053427372006389e+01 -1.6913059718046909e-03 0.0000000000000000e+00  -2.5050313945792535e+01 8.3947065507648496e-04 0.0000000000000000e+00  -2.5050924898790704e+01 2.9869237909981761e-03 0.0000000000000000e+00  -2.5048198302538175e+01 5.3169342371425683e-03 0.0000000000000000e+00  -2.5054591560368721e+01 8.0919276782848593e-03 0.0000000000000000e+00  -2.5055896328986410e+01 1.0879110968570660e-03 0.0000000000000000e+00  -2.5091486624706210e+01 3.3138168536556621e-02 0.0000000000000000e+00  -2.5058621523938431e+01 0.0000000000000000e+00 0.0000000000000000e+00  -2.5567471055585958e+01 0.0000000000000000e+00 0.0000000000000000e+00  -2.5579131053766705e+01 -2.7053246625144299e-03 0.0000000000000000e+00  -2.5584314090904176e+01 -1.1019578275680297e-03 0.0000000000000000e+00  -2.5586291695716557e+01 -9.8903262964209230e-05 0.0000000000000000e+00  -2.5587285452737060e+01 2.9780331802013846e-04 0.0000000000000000e+00  -2.5587977451403841e+01 4.9265113432352017e-04 0.0000000000000000e+00  -2.5588522978329916e+01 6.5806882693399669e-04 0.0000000000000000e+00  -2.5588942755706931e+01 8.0082011460069313e-04 0.0000000000000000e+00  -2.5589244791119253e+01 9.0647570795170497e-04 0.0000000000000000e+00  -2.5589449593745623e+01 9.7798474006246714e-04 0.0000000000000000e+00  -2.5589582392926133e+01 1.0252133622838235e-03 0.0000000000000000e+00  -2.5589665824911219e+01 1.0556358126440298e-03 0.0000000000000000e+00  -2.5589717204141273e+01 1.0749336226740529e-03 0.0000000000000000e+00  -2.5589748534375040e+01 1.0868369864555970e-03 0.0000000000000000e+00  -2.5589767614411986e+01 1.0941588227312401e-03 0.0000000000000000e+00  -2.5589779306143129e+01 1.0986122127514021e-03 0.0000000000000000e+00  -2.5589786554152628e+01 1.1013596542312923e-03 0.0000000000000000e+00  -2.5589791111252111e+01 1.1030475264309277e-03 0.0000000000000000e+00  -2.5589794018235530e+01 1.1041070622512749e-03 0.0000000000000000e+00  -2.5589795896740966e+01 1.1047700910074769e-03 0.0000000000000000e+00  -2.5589797125369262e+01 1.1051959865169797e-03 0.0000000000000000e+00  -2.5589797937508642e+01 1.1054683849138457e-03 0.0000000000000000e+00  -2.5589798480256764e+01 1.1056476961436130e-03 0.0000000000000000e+00  -2.5589798846606016e+01 1.1057650590567023e-03 0.0000000000000000e+00  -2.5589799096564395e+01 1.1058441454773963e-03 0.0000000000000000e+00  -2.5589799268692939e+01 1.1058970725444184e-03 0.0000000000000000e+00  -2.5589799388431004e+01 1.1059334379031999e-03 0.0000000000000000e+00  -2.5589799472416384e+01 1.1059582136509127e-03 0.0000000000000000e+00  -2.5589799531913062e+01 1.1059754764699355e-03 0.0000000000000000e+00  -2.5589799574428476e+01 1.1059874024100978e-03 0.0000000000000000e+00  -2.5589799605154855e+01 1.1059958182632894e-03 0.0000000000000000e+00  -2.5589799627594097e+01 1.1060017290419803e-03 0.0000000000000000e+00  -2.5589799644184890e+01 1.1060059775062990e-03 0.0000000000000000e+00  -2.5589799656603258e+01 1.1060090376989035e-03 0.0000000000000000e+00  -2.5589799665987808e+01 1.1060112985522032e-03 0.0000000000000000e+00  -2.5589799673187738e+01 1.1060129717298912e-03 0.0000000000000000e+00  -2.5589799678682400e+01 1.1060142466867322e-03 0.0000000000000000e+00  -2.5