<?xml version="1.0"?>
<VTKFile type="UnstructuredGrid"  version="0.1"  >
<UnstructuredGrid>
<Piece  NumberOfPoints="1369" NumberOfCells="2560">
<Points>
<DataArray  type="Float64"  NumberOfComponents="3"  format="ascii">0 0 0  0.75 0 0  1.5 0 0  2.25 0 0  3 0 0  3.75 0 0  4.5 0 0  5.25 0 0  6 0 0  6.75 0 0  7.5 0 0  8.25 0 0  9 0 0  9.75 0 0  10.5 0 0  11.25 0 0  12 0 0  12.75 0 0  13.5 0 0  14.25 0 0  15 0 0  15.75 0 0  16.5 0 0  17.25 0 0  18 0 0  18.75 0 0  19.5 0 0  20.25 0 0  21 0 0  21.75 0 0  22.5 0 0  23.25 0 0  24 0 0  24.75 0 0  25.5 0 0  26.25 0 0  27 0 0  27.75 0 0  28.5 0 0  29.25 0 0  30 0 0  30.75 0 0  31.5 0 0  32.25 0 0  33 0 0  33.75 0 0  34.5 0 0  35.25 0 0  36 0 0  36.75 0 0  37.5 0 0  38.25 0 0  39 0 0  39.75 0 0  40.5 0 0  41.25 0 0  42 0 0  42.75 0 0  43.5 0 0  44.25 0 0  45 0 0  45.75 0 0  46.5 0 0  47.25 0 0  48 0 0  48.75 0 0  49.5 0 0  50.25 0 0  51 0 0  51.75 0 0  52.5 0 0  53.25 0 0  54 0 0  54.75 0 0  55.5 0 0  56.25 0 0  57 0 0  57.75 0 0  58.5 0 0  59.25 0 0  60 0 0  0 0.5 0  0.75 0.5 0  1.5 0.5 0  2.25 0.5 0  3 0.5 0  3.75 0.5 0  4.5 0.5 0  5.25 0.5 0  6 0.5 0  6.75 0.5 0  7.5 0.5 0  8.25 0.5 0  9 0.5 0  9.75 0.5 0  10.5 0.5 0  11.25 0.5 0  12 0.5 0  12.75 0.5 0  13.5 0.5 0  14.25 0.5 0  15 0.5 0  15.75 0.5 0  16.5 0.5 0  17.25 0.5 0  18 0.5 0  18.75 0.5 0  19.5 0.5 0  20.25 0.5 0  21 0.5 0  21.75 0.5 0  22.5 0.5 0  23.25 0.5 0  24 0.5 0  24.75 0.5 0  25.5 0.5 0  26.25 0.5 0  27 0.5 0  27.75 0.5 0  28.5 0.5 0  29.25 0.5 0  30 0.5 0  30.75 0.5 0  31.5 0.5 0  32.25 0.5 0  33 0.5 0  33.75 0.5 0  34.5 0.5 0  35.25 0.5 0  36 0.5 0  36.75 0.5 0  37.5 0.5 0  38.25 0.5 0  39 0.5 0  39.75 0.5 0  40.5 0.5 0  41.25 0.5 0  42 0.5 0  42.75 0.5 0  43.5 0.5 0  44.25 0.5 0  45 0.5 0  45.75 0.5 0  46.5 0.5 0  47.25 0.5 0  48 0.5 0  48.75 0.5 0  49.5 0.5 0  50.25 0.5 0  51 0.5 0  51.75 0.5 0  52.5 0.5 0  53.25 0.5 0  54 0.5 0  54.75 0.5 0  55.5 0.5 0  56.25 0.5 0  57 0.5 0  57.75 0.5 0  58.5 0.5 0  59.25 0.5 0  60 0.5 0  0 1 0  0.75 1 0  1.5 1 0  2.25 1 0  3 1 0  3.75 1 0  4.5 1 0  5.25 1 0  6 1 0  6.75 1 0  7.5 1 0  8.25 1 0  9 1 0  9.75 1 0  10.5 1 0  11.25 1 0  12 1 0  12.75 1 0  13.5 1 0  14.25 1 0  15 1 0  15.75 1 0  16.5 1 0  17.25 1 0  18 1 0  18.75 1 0  19.5 1 0  20.25 1 0  21 1 0  21.75 1 0  22.5 1 0  23.25 1 0  24 1 0  24.75 1 0  25.5 1 0  26.25 1 0  27 1 0  27.75 1 0  28.5 1 0  29.25 1 0  30 1 0  30.75 1 0  31.5 1 0  32.25 1 0  33 1 0  33.75 1 0  34.5 1 0  35.25 1 0  36 1 0  36.75 1 0  37.5 1 0  38.25 1 0  39 1 0  39.75 1 0  40.5 1 0  41.25 1 0  42 1 0  42.75 1 0  43.5 1 0  44.25 1 0  45 1 0  45.75 1 0  46.5 1 0  47.25 1 0  48 1 0  48.75 1 0  49.5 1 0  50.25 1 0  51 1 0  51.75 1 0  52.5 1 0  53.25 1 0  54 1 0  54.75 1 0  55.5 1 0  56.25 1 0  57 1 0  57.75 1 0  58.5 1 0  59.25 1 0  60 1 0  0 1.5 0  0.75 1.5 0  1.5 1.5 0  2.25 1.5 0  3 1.5 0  3.75 1.5 0  4.5 1.5 0  5.25 1.5 0  6 1.5 0  6.75 1.5 0  7.5 1.5 0  8.25 1.5 0  9 1.5 0  9.75 1.5 0  10.5 1.5 0  11.25 1.5 0  12 1.5 0  12.75 1.5 0  13.5 1.5 0  14.25 1.5 0  15 1.5 0  15.75 1.5 0  16.5 1.5 0  17.25 1.5 0  18 1.5 0  18.75 1.5 0  19.5 1.5 0  20.25 1.5 0  21 1.5 0  21.75 1.5 0  22.5 1.5 0  23.25 1.5 0  24 1.5 0  24.75 1.5 0  25.5 1.5 0  26.25 1.5 0  27 1.5 0  27.75 1.5 0  28.5 1.5 0  29.25 1.5 0  30 1.5 0  30.75 1.5 0  31.5 1.5 0  32.25 1.5 0  33 1.5 0  33.75 1.5 0  34.5 1.5 0  35.25 1.5 0  36 1.5 0  36.75 1.5 0  37.5 1.5 0  38.25 1.5 0  39 1.5 0  39.75 1.5 0  40.5 1.5 0  41.25 1.5 0  42 1.5 0  42.75 1.5 0  43.5 1.5 0  44.25 1.5 0  45 1.5 0  45.75 1.5 0  46.5 1.5 0  47.25 1.5 0  48 1.5 0  48.75 1.5 0  49.5 1.5 0  50.25 1.5 0  51 1.5 0  51.75 1.5 0  52.5 1.5 0  53.25 1.5 0  54 1.5 0  54.75 1.5 0  55.5 1.5 0  56.25 1.5 0  57 1.5 0  57.75 1.5 0  58.5 1.5 0  59.25 1.5 0  60 1.5 0  0 2 0  0.75 2 0  1.5 2 0  2.25 2 0  3 2 0  3.75 2 0  4.5 2 0  5.25 2 0  6 2 0  6.75 2 0  7.5 2 0  8.25 2 0  9 2 0  9.75 2 0  10.5 2 0  11.25 2 0  12 2 0  12.75 2 0  13.5 2 0  14.25 2 0  15 2 0  15.75 2 0  16.5 2 0  17.25 2 0  18 2 0  18.75 2 0  19.5 2 0  20.25 2 0  21 2 0  21.75 2 0  22.5 2 0  23.25 2 0  24 2 0  24.75 2 0  25.5 2 0  26.25 2 0  27 2 0  27.75 2 0  28.5 2 0  29.25 2 0  30 2 0  30.75 2 0  31.5 2 0  32.25 2 0  33 2 0  33.75 2 0  34.5 2 0  35.25 2 0  36 2 0  36.75 2 0  37.5 2 0  38.25 2 0  39 2 0  39.75 2 0  40.5 2 0  41.25 2 0  42 2 0  42.75 2 0  43.5 2 0  44.25 2 0  45 2 0  45.75 2 0  46.5 2 0  47.25 2 0  48 2 0  48.75 2 0  49.5 2 0  50.25 2 0  51 2 0  51.75 2 0  52.5 2 0  53.25 2 0  54 2 0  54.75 2 0  55.5 2 0  56.25 2 0  57 2 0  57.75 2 0  58.5 2 0  59.25 2 0  60 2 0  0 2.5 0  0.75 2.5 0  1.5 2.5 0  2.25 2.5 0  3 2.5 0  3.75 2.5 0  4.5 2.5 0  5.25 2.5 0  6 2.5 0  6.75 2.5 0  7.5 2.5 0  8.25 2.5 0  9 2.5 0  9.75 2.5 0  10.5 2.5 0  11.25 2.5 0  12 2.5 0  12.75 2.5 0  13.5 2.5 0  14.25 2.5 0  15 2.5 0  15.75 2.5 0  16.5 2.5 0  17.25 2.5 0  18 2.5 0  18.75 2.5 0  19.5 2.5 0  20.25 2.5 0  21 2.5 0  21.75 2.5 0  22.5 2.5 0  23.25 2.5 0  24 2.5 0  24.75 2.5 0  25.5 2.5 0  26.25 2.5 0  27 2.5 0  27.75 2.5 0  28.5 2.5 0  29.25 2.5 0  30 2.5 0  30.75 2.5 0  31.5 2.5 0  32.25 2.5 0  33 2.5 0  33.75 2.5 0  34.5 2.5 0  35.25 2.5 0  36 2.5 0  36.75 2.5 0  37.5 2.5 0  38.25 2.5 0  39 2.5 0  39.75 2.5 0  40.5 2.5 0  41.25 2.5 0  42 2.5 0  42.75 2.5 0  43.5 2.5 0  44.25 2.5 0  45 2.5 0  45.75 2.5 0  46.5 2.5 0  47.25 2.5 0  48 2.5 0  48.75 2.5 0  49.5 2.5 0  50.25 2.5 0  51 2.5 0  51.75 2.5 0  52.5 2.5 0  53.25 2.5 0  54 2.5 0  54.75 2.5 0  55.5 2.5 0  56.25 2.5 0  57 2.5 0  57.75 2.5 0  58.5 2.5 0  59.25 2.5 0  60 2.5 0  0 3 0  0.75 3 0  1.5 3 0  2.25 3 0  3 3 0  3.75 3 0  4.5 3 0  5.25 3 0  6 3 0  6.75 3 0  7.5 3 0  8.25 3 0  9 3 0  9.75 3 0  10.5 3 0  11.25 3 0  12 3 0  12.75 3 0  13.5 3 0  14.25 3 0  15 3 0  15.75 3 0  16.5 3 0  17.25 3 0  18 3 0  18.75 3 0  19.5 3 0  20.25 3 0  21 3 0  21.75 3 0  22.5 3 0  23.25 3 0  24 3 0  24.75 3 0  25.5 3 0  26.25 3 0  27 3 0  27.75 3 0  28.5 3 0  29.25 3 0  30 3 0  30.75 3 0  31.5 3 0  32.25 3 0  33 3 0  33.75 3 0  34.5 3 0  35.25 3 0  36 3 0  36.75 3 0  37.5 3 0  38.25 3 0  39 3 0  39.75 3 0  40.5 3 0  41.25 3 0  42 3 0  42.75 3 0  43.5 3 0  44.25 3 0  45 3 0  45.75 3 0  46.5 3 0  47.25 3 0  48 3 0  48.75 3 0  49.5 3 0  50.25 3 0  51 3 0  51.75 3 0  52.5 3 0  53.25 3 0  54 3 0  54.75 3 0  55.5 3 0  56.25 3 0  57 3 0  57.75 3 0  58.5 3 0  59.25 3 0  60 3 0  0 3.5 0  0.75 3.5 0  1.5 3.5 0  2.25 3.5 0  3 3.5 0  3.75 3.5 0  4.5 3.5 0  5.25 3.5 0  6 3.5 0  6.75 3.5 0  7.5 3.5 0  8.25 3.5 0  9 3.5 0  9.75 3.5 0  10.5 3.5 0  11.25 3.5 0  12 3.5 0  12.75 3.5 0  13.5 3.5 0  14.25 3.5 0  15 3.5 0  15.75 3.5 0  16.5 3.5 0  17.25 3.5 0  18 3.5 0  18.75 3.5 0  19.5 3.5 0  20.25 3.5 0  21 3.5 0  21.75 3.5 0  22.5 3.5 0  23.25 3.5 0  24 3.5 0  24.75 3.5 0  25.5 3.5 0  26.25 3.5 0  27 3.5 0  27.75 3.5 0  28.5 3.5 0  29.25 3.5 0  30 3.5 0  30.75 3.5 0  31.5 3.5 0  32.25 3.5 0  33 3.5 0  33.75 3.5 0  34.5 3.5 0  35.25 3.5 0  36 3.5 0  36.75 3.5 0  37.5 3.5 0  38.25 3.5 0  39 3.5 0  39.75 3.5 0  40.5 3.5 0  41.25 3.5 0  42 3.5 0  42.75 3.5 0  43.5 3.5 0  44.25 3.5 0  45 3.5 0  45.75 3.5 0  46.5 3.5 0  47.25 3.5 0  48 3.5 0  48.75 3.5 0  49.5 3.5 0  50.25 3.5 0  51 3.5 0  51.75 3.5 0  52.5 3.5 0  53.25 3.5 0  54 3.5 0  54.75 3.5 0  55.5 3.5 0  56.25 3.5 0  57 3.5 0  57.75 3.5 0  58.5 3.5 0  59.25 3.5 0  60 3.5 0  0 4 0  0.75 4 0  1.5 4 0  2.25 4 0  3 4 0  3.75 4 0  4.5 4 0  5.25 4 0  6 4 0  6.75 4 0  7.5 4 0  8.25 4 0  9 4 0  9.75 4 0  10.5 4 0  11.25 4 0  12 4 0  12.75 4 0  13.5 4 0  14.25 4 0  15 4 0  15.75 4 0  16.5 4 0  17.25 4 0  18 4 0  18.75 4 0  19.5 4 0  20.25 4 0  21 4 0  21.75 4 0  22.5 4 0  23.25 4 0  24 4 0  24.75 4 0  25.5 4 0  26.25 4 0  27 4 0  27.75 4 0  28.5 4 0  29.25 4 0  30 4 0  30.75 4 0  31.5 4 0  32.25 4 0  33 4 0  33.75 4 0  34.5 4 0  35.25 4 0  36 4 0  36.75 4 0  37.5 4 0  38.25 4 0  39 4 0  39.75 4 0  40.5 4 0  41.25 4 0  42 4 0  42.75 4 0  43.5 4 0  44.25 4 0  45 4 0  45.75 4 0  46.5 4 0  47.25 4 0  48 4 0  48.75 4 0  49.5 4 0  50.25 4 0  51 4 0  51.75 4 0  52.5 4 0  53.25 4 0  54 4 0  54.75 4 0  55.5 4 0  56.25 4 0  57 4 0  57.75 4 0  58.5 4 0  59.25 4 0  60 4 0  0.375 0.25 0  1.125 0.25 0  1.875 0.25 0  2.625 0.25 0  3.375 0.25 0  4.125 0.25 0  4.875 0.25 0  5.625 0.25 0  6.375 0.25 0  7.125 0.25 0  7.875 0.25 0  8.625 0.25 0  9.375 0.25 0  10.125 0.25 0  10.875 0.25 0  11.625 0.25 0  12.375 0.25 0  13.125 0.25 0  13.875 0.25 0  14.625 0.25 0  15.375 0.25 0  16.125 0.25 0  16.875 0.25 0  17.625 0.25 0  18.375 0.25 0  19.125 0.25 0  19.875 0.25 0  20.625 0.25 0  21.375 0.25 0  22.125 0.25 0  22.875 0.25 0  23.625 0.25 0  24.375 0.25 0  25.125 0.25 0  25.875 0.25 0  26.625 0.25 0  27.375 0.25 0  28.125 0.25 0  28.875 0.25 0  29.625 0.25 0  30.375 0.25 0  31.125 0.25 0  31.875 0.25 0  32.625 0.25 0  33.375 0.25 0  34.125 0.25 0  34.875 0.25 0  35.625 0.25 0  36.375 0.25 0  37.125 0.25 0  37.875 0.25 0  38.625 0.25 0  39.375 0.25 0  40.125 0.25 0  40.875 0.25 0  41.625 0.25 0  42.375 0.25 0  43.125 0.25 0  43.875 0.25 0  44.625 0.25 0  45.375 0.25 0  46.125 0.25 0  46.875 0.25 0  47.625 0.25 0  48.375 0.25 0  49.125 0.25 0  49.875 0.25 0  50.625 0.25 0  51.375 0.25 0  52.125 0.25 0  52.875 0.25 0  53.625 0.25 0  54.375 0.25 0  55.125 0.25 0  55.875 0.25 0  56.625 0.25 0  57.375 0.25 0  58.125 0.25 0  58.875 0.25 0  59.625 0.25 0  0.375 0.75 0  1.125 0.75 0  1.875 0.75 0  2.625 0.75 0  3.375 0.75 0  4.125 0.75 0  4.875 0.75 0  5.625 0.75 0  6.375 0.75 0  7.125 0.75 0  7.875 0.75 0  8.625 0.75 0  9.375 0.75 0  10.125 0.75 0  10.875 0.75 0  11.625 0.75 0  12.375 0.75 0  13.125 0.75 0  13.875 0.75 0  14.625 0.75 0  15.375 0.75 0  16.125 0.75 0  16.875 0.75 0  17.625 0.75 0  18.375 0.75 0  19.125 0.75 0  19.875 0.75 0  20.625 0.75 0  21.375 0.75 0  22.125 0.75 0  22.875 0.75 0  23.625 0.75 0  24.375 0.75 0  25.125 0.75 0  25.875 0.75 0  26.625 0.75 0  27.375 0.75 0  28.125 0.75 0  28.875 0.75 0  29.625 0.75 0  30.375 0.75 0  31.125 0.75 0  31.875 0.75 0  32.625 0.75 0  33.375 0.75 0  34.125 0.75 0  34.875 0.75 0  35.625 0.75 0  36.375 0.75 0  37.125 0.75 0  37.875 0.75 0  38.625 0.75 0  39.375 0.75 0  40.125 0.75 0  40
[...]
<PointData  Vectors="f_8-0"> 
<DataArray  type="Float64"  Name="f_8-0"  NumberOfComponents="3" format="ascii">0.0000000000000000e+00 0.0000000000000000e+00 0.0000000000000000e+00  0.0000000000000000e+00 0.0000000000000000e+00 0.0000000000000000e+00  0.0000000000000000e+00 0.0000000000000000e+00 0.0000000000000000e+00  0.0000000000000000e+00 0.0000000000000000e+00 0.0000000000000000e+00  0.0000000000000000e+00 0.0000000000000000e+00 0.0000000000000000e+00  0.0000000000000000e+00 0.0000000000000000e+00 0.0000000000000000e+00  0.0000000000000000e+00 0.0000000000000000e+00 0.0000000000000000e+00  0.0000000000000000e+00 0.0000000000000000e+00 0.0000000000000000e+00  0.0000000000000000e+00 0.0000000000000000e+00 0.0000000000000000e+00  0.0000000000000000e+00 0.0000000000000000e+00 0.0000000000000000e+00  0.0000000000000000e+00 0.0000000000000000e+00 0.0000000000000000e+00  0.0000000000000000e+00 0.0000000000000000e+00 0.0000000000000000e+00  0.0000000000000000e+00 0.0000000000000000e+00 0.0000000000000000e+00  0.0000000000000000e+00 0.0000000000000000e+00 0.0000000000000000e+00  0.0000000000000000e+00 0.0000000000000000e+00 0.0000000000000000e+00  0.0000000000000000e+00 0.0000000000000000e+00 0.0000000000000000e+00  0.0000000000000000e+00 0.0000000000000000e+00 0.0000000000000000e+00  0.0000000000000000e+00 0.0000000000000000e+00 0.0000000000000000e+00  0.0000000000000000e+00 0.0000000000000000e+00 0.0000000000000000e+00  0.0000000000000000e+00 0.0000000000000000e+00 0.0000000000000000e+00  0.0000000000000000e+00 0.0000000000000000e+00 0.0000000000000000e+00  0.0000000000000000e+00 0.0000000000000000e+00 0.0000000000000000e+00  0.0000000000000000e+00 0.0000000000000000e+00 0.0000000000000000e+00  0.0000000000000000e+00 0.0000000000000000e+00 0.0000000000000000e+00  0.0000000000000000e+00 0.0000000000000000e+00 0.0000000000000000e+00  0.0000000000000000e+00 0.0000000000000000e+00 0.0000000000000000e+00  0.0000000000000000e+00 0.0000000000000000e+00 0.0000000000000000e+00  0.0000000000000000e+00 0.0000000000000000e+00 0.0000000000000000e+00  0.0000000000000000e+00 0.0000000000000000e+00 0.0000000000000000e+00  0.0000000000000000e+00 0.0000000000000000e+00 0.0000000000000000e+00  0.0000000000000000e+00 0.0000000000000000e+00 0.0000000000000000e+00  0.0000000000000000e+00 0.0000000000000000e+00 0.0000000000000000e+00  0.0000000000000000e+00 0.0000000000000000e+00 0.0000000000000000e+00  0.0000000000000000e+00 0.0000000000000000e+00 0.0000000000000000e+00  0.0000000000000000e+00 0.0000000000000000e+00 0.0000000000000000e+00  0.0000000000000000e+00 0.0000000000000000e+00 0.0000000000000000e+00  0.0000000000000000e+00 0.0000000000000000e+00 0.0000000000000000e+00  0.0000000000000000e+00 0.0000000000000000e+00 0.0000000000000000e+00  0.0000000000000000e+00 0.0000000000000000e+00 0.0000000000000000e+00  0.0000000000000000e+00 0.0000000000000000e+00 0.0000000000000000e+00  0.0000000000000000e+00 0.0000000000000000e+00 0.0000000000000000e+00  0.0000000000000000e+00 0.0000000000000000e+00 0.0000000000000000e+00  0.0000000000000000e+00 0.0000000000000000e+00 0.0000000000000000e+00  0.0000000000000000e+00 0.0000000000000000e+00 0.0000000000000000e+00  0.0000000000000000e+00 0.0000000000000000e+00 0.0000000000000000e+00  0.0000000000000000e+00 0.0000000000000000e+00 0.0000000000000000e+00  0.0000000000000000e+00 0.0000000000000000e+00 0.0000000000000000e+00  0.0000000000000000e+00 0.0000000000000000e+00 0.0000000000000000e+00  0.0000000000000000e+00 0.0000000000000000e+00 0.0000000000000000e+00  0.0000000000000000e+00 0.0000000000000000e+00 0.0000000000000000e+00  0.0000000000000000e+00 0.0000000000000000e+00 0.0000000000000000e+00  0.0000000000000000e+00 0.0000000000000000e+00 0.0000000000000000e+00  0.0000000000000000e+00 0.0000000000000000e+00 0.0000000000000000e+00  0.0000000000000000e+00 0.0000000000000000e+00 0.0000000000000000e+00  0.0000000000000000e+00 0.0000000000000000e+00 0.0000000000000000e+00  0.0000000000000000e+00 0.0000000000000000e+00 0.0000000000000000e+00  0.0000000000000000e+00 0.0000000000000000e+00 0.0000000000000000e+00  0.0000000000000000e+00 0.0000000000000000e+00 0.0000000000000000e+00  0.0000000000000000e+00 0.0000000000000000e+00 0.0000000000000000e+00  0.0000000000000000e+00 0.0000000000000000e+00 0.0000000000000000e+00  0.0000000000000000e+00 0.0000000000000000e+00 0.0000000000000000e+00  0.0000000000000000e+00 0.0000000000000000e+00 0.0000000000000000e+00  0.0000000000000000e+00 0.0000000000000000e+00 0.0000000000000000e+00  0.0000000000000000e+00 0.0000000000000000e+00 0.0000000000000000e+00  0.0000000000000000e+00 0.0000000000000000e+00 0.0000000000000000e+00  0.0000000000000000e+00 0.0000000000000000e+00 0.0000000000000000e+00  0.0000000000000000e+00 0.0000000000000000e+00 0.0000000000000000e+00  0.0000000000000000e+00 0.0000000000000000e+00 0.0000000000000000e+00  0.0000000000000000e+00 0.0000000000000000e+00 0.0000000000000000e+00  0.0000000000000000e+00 0.0000000000000000e+00 0.0000000000000000e+00  0.0000000000000000e+00 0.0000000000000000e+00 0.0000000000000000e+00  0.0000000000000000e+00 0.0000000000000000e+00 0.0000000000000000e+00  0.0000000000000000e+00 0.0000000000000000e+00 0.0000000000000000e+00  0.0000000000000000e+00 0.0000000000000000e+00 0.0000000000000000e+00  0.0000000000000000e+00 0.0000000000000000e+00 0.0000000000000000e+00  0.0000000000000000e+00 0.0000000000000000e+00 0.0000000000000000e+00  0.0000000000000000e+00 0.0000000000000000e+00 0.0000000000000000e+00  0.0000000000000000e+00 0.0000000000000000e+00 0.0000000000000000e+00  0.0000000000000000e+00 0.0000000000000000e+00 0.0000000000000000e+00  0.0000000000000000e+00 0.0000000000000000e+00 0.0000000000000000e+00  0.0000000000000000e+00 0.0000000000000000e+00 0.0000000000000000e+00  1.9081641865799348e+01 0.0000000000000000e+00 0.0000000000000000e+00  1.9054801020655603e+01 7.0786826700524205e-02 0.0000000000000000e+00  1.9047861883107490e+01 1.6584061282636453e-02 0.0000000000000000e+00  1.9039602819612309e+01 5.1042743022674600e-03 0.0000000000000000e+00  1.9037148870809723e+01 5.3565589933379891e-03 0.0000000000000000e+00  1.9038890060374595e+01 5.4404334755820362e-03 0.0000000000000000e+00  1.9038045137100461e+01 5.3394386790492779e-03 0.0000000000000000e+00  1.9038519394772056e+01 5.4032073415188229e-03 0.0000000000000000e+00  1.9038384847824723e+01 5.3885106486642629e-03 0.0000000000000000e+00  1.9038462204595959e+01 5.3987949530754711e-03 0.0000000000000000e+00  1.9038450779790129e+01 5.3985247838402974e-03 0.0000000000000000e+00  1.9038462093791487e+01 5.4001137103080491e-03 0.0000000000000000e+00  1.9038462504098657e+01 5.4004528293004625e-03 0.0000000000000000e+00  1.9038464376752781e+01 5.4007636037338947e-03 0.0000000000000000e+00  1.9038464843594845e+01 5.4008871103446250e-03 0.0000000000000000e+00  1.9038465222456040e+01 5.4009595465932068e-03 0.0000000000000000e+00  1.9038465373861225e+01 5.4009938166616391e-03 0.0000000000000000e+00  1.9038465461209121e+01 5.4010116815003525e-03 0.0000000000000000e+00  1.9038465501930737e+01 5.4010205007522542e-03 0.0000000000000000e+00  1.9038465523141362e+01 5.4010249390723858e-03 0.0000000000000000e+00  1.9038465533544443e+01 5.4010271587119733e-03 0.0000000000000000e+00  1.9038465538780926e+01 5.4010282612807770e-03 0.0000000000000000e+00  1.9038465541375682e+01 5.4010288146038058e-03 0.0000000000000000e+00  1.9038465542679727e+01 5.4010290898065900e-03 0.0000000000000000e+00  1.9038465543323792e+01 5.4010292262240021e-03 0.0000000000000000e+00  1.9038465543656020e+01 5.4010292923732817e-03 0.0000000000000000e+00  1.9038465543822930e+01 5.4010293273600218e-03 0.0000000000000000e+00  1.9038465543905094e+01 5.4010293463700922e-03 0.0000000000000000e+00  1.9038465543947691e+01 5.4010293538116717e-03 0.0000000000000000e+00  1.9038465543972951e+01 5.4010293600313380e-03 0.0000000000000000e+00  1.9038465543977328e+01 5.4010293629783998e-03 0.0000000000000000e+00  1.9038465543976066e+01 5.4010293621354812e-03 0.0000000000000000e+00  1.9038465543985598e+01 5.4010293628995792e-03 0.0000000000000000e+00  1.9038465543984721e+01 5.4010293613917428e-03 0.0000000000000000e+00  1.9038465543986693e+01 5.4010293621939787e-03 0.0000000000000000e+00  1.9038465543986437e+01 5.4010293614917583e-03 0.0000000000000000e+00  1.9038465543997415e+01 5.4010293661072737e-03 0.0000000000000000e+00  1.9038465543991975e+01 5.4010293636340473e-03 0.0000000000000000e+00  1.9038465543991261e+01 5.4010293634512863e-03 0.0000000000000000e+00  1.9038465543993201e+01 5.4010293666489351e-03 0.0000000000000000e+00  1.9038465543992622e+01 5.4010293632094208e-03 0.0000000000000000e+00  1.9038465543994189e+01 5.4010293657000986e-03 0.0000000000000000e+00  1.9038465543994768e+01 5.4010293607252057e-03 0.0000000000000000e+00  1.9038465544005032e+01 5.4010293588917383e-03 0.0000000000000000e+00  1.9038465544020848e+01 5.4010293472818204e-03 0.0000000000000000e+00  1.9038465544061193e+01 5.4010293434526369e-03 0.0000000000000000e+00  1.9038465544129288e+01 5.4010293057782845e-03 0.0000000000000000e+00  1.9038465544319301e+01 5.4010292610524452e-03 0.0000000000000000e+00  1.9038465544618699e+01 5.4010291363952743e-03 0.0000000000000000e+00  1.9038465545368314e+01 5.4010289221057065e-03 0.0000000000000000e+00  1.9038465546668913e+01 5.4010284397409030e-03 0.0000000000000000e+00  1.9038465549684595e+01 5.4010274970840762e-03 0.0000000000000000e+00  1.9038465555268363e+01 5.4010255814784447e-03 0.0000000000000000e+00  1.9038465567380573e+01 5.4010217020013605e-03 0.0000000000000000e+00  1.9038465590599174e+01 5.4010140290949651e-03 0.0000000000000000e+00  1.9038465639018465e+01 5.4009983847378186e-03 0.0000000000000000e+00  1.9038465733497105e+01 5.4009677253318159e-03 0.0000000000000000e+00  1.9038465925934332e+01 5.4009052232711742e-03 0.0000000000000000e+00  1.9038466304456126e+01 5.4007819936013248e-03 0.0000000000000000e+00  1.9038467069554496e+01 5.4005237498724228e-03 0.0000000000000000e+00  1.9038468616512159e+01 5.3999720247437932e-03 0.0000000000000000e+00  1.9038471921930032e+01 5.3986672419473070e-03 0.0000000000000000e+00  1.9038479413643156e+01 5.3954355318050189e-03 0.0000000000000000e+00  1.9038497663136379e+01 5.3871734566711535e-03 0.0000000000000000e+00  1.9038543354686151e+01 5.3669832501848681e-03 0.0000000000000000e+00  1.9038655613480209e+01 5.3214560269870485e-03 0.0000000000000000e+00  1.9038913302599507e+01 5.2312879276559055e-03 0.0000000000000000e+00  1.9039447104514096e+01 5.0804921632143715e-03 0.0000000000000000e+00  1.9040411253626750e+01 4.8837128178167103e-03 0.0000000000000000e+00  1.9041877265338119e+01 4.7120925189081128e-03 0.0000000000000000e+00  1.9043683993563441e+01 4.6706019969964827e-03 0.0000000000000000e+00  1.9045449972015874e+01 4.7935025409457889e-03 0.0000000000000000e+00  1.9046826019108988e+01 5.0351225826121074e-03 0.0000000000000000e+00  1.9047556183069357e+01 5.4261714601702088e-03 0.0000000000000000e+00  1.9047184297482378e+01 6.0894108694394301e-03 0.0000000000000000e+00  1.9045057964041956e+01 7.0464230852305913e-03 0.0000000000000000e+00  1.9040463548894685e+01 8.2496758403886507e-03 0.0000000000000000e+00  1.9032714836561329e+01 9.3691857379500417e-03 0.0000000000000000e+00  1.9020896642942425e+01 9.3417967641802983e-03 0.0000000000000000e+00  1.8998686514261433e+01 4.3241705191624912e-03 0.0000000000000000e+00  1.8971225519189463e+01 0.0000000000000000e+00 0.0000000000000000e+00  1.6007226902110588e+01 0.0000000000000000e+00 0.0000000000000000e+00  1.5962077903105049e+01 -6.0933048500354673e-03 0.0000000000000000e+00  1.5998506458338168e+01 8.5876643427977590e-03 0.0000000000000000e+00  1.5998717004243934e+01 -2.3750699730353932e-03 0.0000000000000000e+00  1.5999930181076248e+01 -1.3995891057614238e-03 0.0000000000000000e+00  1.5999286786718452e+01 -2.6129524513394085e-03 0.0000000000000000e+00  1.5999657702975355e+01 -2.1430184308754655e-03 0.0000000000000000e+00  1.5999560037319977e+01 -2.2775845489970189e-03 0.0000000000000000e+00  1.5999628222017060e+01 -2.2029944171053106e-03 0.0000000000000000e+00  1.5999619888015534e+01 -2.2105609539135162e-03 0.0000000000000000e+00  1.5999631016754797e+01 -2.1993547918617443e-03 0.0000000000000000e+00  1.5999631643481997e+01 -2.1980363950836368e-03 0.0000000000000000e+00  1.5999633633260165e+01 -2.1959925246055733e-03 0.0000000000000000e+00  1.5999634147854501e+01 -2.1953160945864005e-03 0.0000000000000000e+00  1.5999634567877354e+01 -2.1948577159064198e-03 0.0000000000000000e+00  1.5999634737277999e+01 -2.1946525555676930e-03 0.0000000000000000e+00  1.5999634836407299e+01 -2.1945397781693060e-03 0.0000000000000000e+00  1.5999634882908923e+01 -2.1944848919855640e-03 0.0000000000000000e+00  1.5999634907269632e+01 -2.1944566138319115e-03 0.0000000000000000e+00  1.5999634919233751e+01 -2.1944426119664007e-03 0.0000000000000000e+00  1.5999634925309948e+01 -2.1944355369904129e-03 0.0000000000000000e+00  1.5999634928337034e+01 -2.1944320148937157e-03 0.0000000000000000e+00  1.5999634929829170e+01 -2.1944302508346216e-03 0.0000000000000000e+00  1.5999634930591087e+01 -2.1944293800946232e-03 0.0000000000000000e+00  1.5999634930959466e+01 -2.1944289417882247e-03 0.0000000000000000e+00  1.5999634931145346e+01 -2.1944287267293716e-03 0.0000000000000000e+00  1.5999634931244783e+01 -2.1944286126855191e-03 0.0000000000000000e+00  1.5999634931295919e+01 -2.1944285582735637e-03 0.0000000000000000e+00  1.5999634931320813e+01 -2.1944285303764090e-03 0.0000000000000000e+00  1.5999634931341658e+01 -2.1944285118518161e-03 0.0000000000000000e+00  1.5999634931337045e+01 -2.1944285054772920e-03 0.0000000000000000e+00  1.5999634931333921e+01 -2.1944285065275196e-03 0.0000000000000000e+00  1.5999634931339475e+01 -2.1944285074145670e-03 0.0000000000000000e+00  1.5999634931344419e+01 -2.1944285046267666e-03 0.0000000000000000e+00  1.5999634931342426e+01 -2.1944285035110206e-03 0.0000000000000000e+00  1.5999634931336409e+01 -2.1944285062133182e-03 0.0000000000000000e+00  1.5999634931353963e+01 -2.1944285047945157e-03 0.0000000000000000e+00  1.5999634931350013e+01 -2.1944284997120079e-03 0.0000000000000000e+00  1.5999634931346513e+01 -2.1944284988743745e-03 0.0000000000000000e+00  1.5999634931353107e+01 -2.1944284987666027e-03 0.0000000000000000e+00  1.5999634931346197e+01 -2.1944285021635646e-03 0.0000000000000000e+00  1.5999634931343074e+01 -2.1944284987076325e-03 0.0000000000000000e+00  1.5999634931343966e+01 -2.1944285144324420e-03 0.0000000000000000e+00  1.5999634931347812e+01 -2.1944285125367361e-03 0.0000000000000000e+00  1.5999634931374514e+01 -2.1944285361103146e-03 0.0000000000000000e+00  1.5999634931380411e+01 -2.1944285540913041e-03 0.0000000000000000e+00  1.5999634931464852e+01 -2.1944286407879800e-03 0.0000000000000000e+00  1.5999634931556445e+01 -2.1944287469963224e-03 0.0000000000000000e+00  1.5999634931839164e+01 -2.1944290382043528e-03 0.0000000000000000e+00  1.5999634932293253e+01 -2.1944295705304093e-03 0.0000000000000000e+00  1.5999634933348604e+01 -2.1944307022149232e-03 0.0000000000000000e+00  1.5999634935350620e+01 -2.1944330028279644e-03 0.0000000000000000e+00  1.5999634939577270e+01 -2.1944375235045921e-03 0.0000000000000000e+00  1.5999634947981132e+01 -2.1944469578890724e-03 0.0000000000000000e+00  1.5999634964915188e+01 -2.1944651064691920e-03 0.0000000000000000e+00  1.5999634998907634e+01 -2.1945028524310351e-03 0.0000000000000000e+00  1.5999635066255122e+01 -2.1945753671974962e-03 0.0000000000000000e+00  1.5999635201479279e+01 -2.1947247667761112e-03 0.0000000000000000e+00  1.5999635470374544e+01 -2.1950160304470665e-03 0.0000000000000000e+00  1.5999636020107786e+01 -2.1956289385478048e-03 0.0000000000000000e+00  1.5999637163959527e+01 -2.1969313724001047e-03 0.0000000000000000e+00  1.5999639683308054e+01 -2.2000105965033633e-03 0.0000000000000000e+00  1.5999645507849712e+01 -2.2076220893958659e-03 0.0000000000000000e+00  1.5999659637616356e+01 -2.2271135531616061e-03 0.0000000000000000e+00  1.5999694106026672e+01 -2.2749348554842899e-03 0.0000000000000000e+00  1.5999775863925398e+01 -2.3836943636006344e-03 0.0000000000000000e+00  1.5999957287534377e+01 -2.6021854258896924e-03 0.0000000000000000e+00  1.6000322871599458e+01 -2.9753128993856796e-03 0.0000000000000000e+00  1.6000963861465785e+01 -3.4743483106288329e-03 0.0000000000000000e+00  1.6001886719265141e+01 -3.9159643870457627e-03 0.0000000000000000e+00  1.6002901975674710e+01 -4.0179536252077262e-03 0.0000000000000000e+00  1.6003748064473523e+01 -3.7252490903445911e-03 0.0000000000000000e+00  1.6004409203983162e+01 -3.2271392543492369e-03 0.0000000000000000e+00  1.6004954385457058e+01 -2.4395695705079832e-03 0.0000000000000000e+00  1.6005264846186886e+01 -1.1071672554197477e-03 0.0000000000000000e+00  1.6005312886975414e+01 8.0001373633375289e-04 0.0000000000000000e+00  1.6004973225057753e+01 3.3376862357268693e-03 0.0000000000000000e+00  1.6004009697033851e+01 6.3223115926332920e-03 0.0000000000000000e+00  1.6001745342211937e+01 9.7742026666255769e-03 0.0000000000000000e+00  1.5998084147764894e+01 1.5653997127276588e-02 0.0000000000000000e+00  1.5984245665698072e+01 0.0000000000000000e+00 0.0000000000000000e+00  1.2600267496829012e+01 0.0000000000000000e+00 0.0000000000000000e+00  1.2599698132800951e+01 1.7787678000073194e-03 0.0000000000000000e+00  1.2603625280425957e+01 7.5536703732082889e-04 0.0000000000000000e+00  1.2607651620342461e+01 5.9328198687667768e-04 0.0000000000000000e+00  1.2607735000596289e+01 -4.9185768920614545e-04 0.0000000000000000e+00  1.2607805240953933e+01 -3.4747809599637049e-04 0.0000000000000000e+00  1.2607673536893863e+01 -4.2677643438657084e-04 0.0000000000000000e+00  1.2607641757344231e+01 -3.6344123396034789e-04 0.0000000000000000e+00  1.2607605817564748e+01 -3.6146293712185484e-04 0.0000000000000000e+00  1.2607592981378723e+01 -3.4774063393274969e-04 0.0000000000000000e+00  1.2607584016907468e+01 -3.4453249469131936e-04 0.0000000000000000e+00  1.2607580079742934e+01 -3.4151626109787020e-04 0.0000000000000000e+00  1.2607577795377631e+01 -3.4034496635687459e-04 0.0000000000000000e+00  1.2607576695102425e+01 -3.3961228079423513e-04 0.0000000000000000e+00  1.2607576107927953e+01 -3.3926913558689122e-04 0.0000000000000000e+00  1.2607575816309064e+01 -3.3908254263708787e-04 0.0000000000000000e+00  1.2607575666620294e+01 -3.3899023330947797e-04 0.0000000000000000e+00  1.2607575591828958e+01 -3.3894261107730275e-04 0.0000000000000000e+00  1.2607575554121121e+01 -3.3891879361998701e-04 0.0000000000000000e+00  1.2607575535292716e+01 -3.3890679310818577e-04 0.0000000000000000e+00  1.2607575525866308e+01 -3.3890081545866522e-04 0.0000000000000000e+00  1.2607575521154994e+01 -3.3889779172524646e-04 0.0000000000000000e+00  1.2607575518804765e+01 -3.3889628038508770e-04 0.0000000000000000e+00  1.2607575517637565e+01 -3.3889553669237010e-04 0.0000000000000000e+00  1.2607575517046220e+01 -3.3889516531160579e-04 0.0000000000000000e+00  1.2607575516752224e+01 -3.3889498319516489e-04 0.0000000000000000e+00  1.2607575516606934e+01 -3.3889488855255923e-04 0.0000000000000000e+00  1.2607575516531268e+01 -3.3889484442461211e-04 0.0000000000000000e+00  1.2607575516491421e+01 -3.3889481362928565e-04 0.0000000000000000e+00  1.2607575516471661e+01 -3.3889480710473126e-04 0.0000000000000000e+00  1.2607575516465296e+01 -3.3889479226158068e-04 0.0000000000000000e+00  1.2607575516463072e+01 -3.3889478845062994e-04 0.0000000000000000e+00  1.2607575516456951e+01 -3.3889480184294692e-04 0.0000000000000000e+00  1.2607575516454828e+01 -3.3889479185061807e-04 0.0000000000000000e+00  1.2607575516456876e+01 -3.3889478859180385e-04 0.0000000000000000e+00  1.2607575516458903e+01 -3.3889479316774916e-04 0.0000000000000000e+00  1.2607575516451359e+01 -3.3889480342209503e-04 0.0000000000000000e+00  1.2607575516456427e+01 -3.3889479045211724e-04 0.0000000000000000e+00  1.2607575516457160e+01 -3.3889478723406853e-04 0.0000000000000000e+00  1.2607575516455441e+01 -3.3889479418485954