<?xml version="1.0"?>
<VTKFile type="UnstructuredGrid"  version="0.1"  >
<UnstructuredGrid>
<Piece  NumberOfPoints="1369" NumberOfCells="2560">
<Points>
<DataArray  type="Float64"  NumberOfComponents="3"  format="ascii">0 0 0  0.75 0 0  1.5 0 0  2.25 0 0  3 0 0  3.75 0 0  4.5 0 0  5.25 0 0  6 0 0  6.75 0 0  7.5 0 0  8.25 0 0  9 0 0  9.75 0 0  10.5 0 0  11.25 0 0  12 0 0  12.75 0 0  13.5 0 0  14.25 0 0  15 0 0  15.75 0 0  16.5 0 0  17.25 0 0  18 0 0  18.75 0 0  19.5 0 0  20.25 0 0  21 0 0  21.75 0 0  22.5 0 0  23.25 0 0  24 0 0  24.75 0 0  25.5 0 0  26.25 0 0  27 0 0  27.75 0 0  28.5 0 0  29.25 0 0  30 0 0  30.75 0 0  31.5 0 0  32.25 0 0  33 0 0  33.75 0 0  34.5 0 0  35.25 0 0  36 0 0  36.75 0 0  37.5 0 0  38.25 0 0  39 0 0  39.75 0 0  40.5 0 0  41.25 0 0  42 0 0  42.75 0 0  43.5 0 0  44.25 0 0  45 0 0  45.75 0 0  46.5 0 0  47.25 0 0  48 0 0  48.75 0 0  49.5 0 0  50.25 0 0  51 0 0  51.75 0 0  52.5 0 0  53.25 0 0  54 0 0  54.75 0 0  55.5 0 0  56.25 0 0  57 0 0  57.75 0 0  58.5 0 0  59.25 0 0  60 0 0  0 0.5 0  0.75 0.5 0  1.5 0.5 0  2.25 0.5 0  3 0.5 0  3.75 0.5 0  4.5 0.5 0  5.25 0.5 0  6 0.5 0  6.75 0.5 0  7.5 0.5 0  8.25 0.5 0  9 0.5 0  9.75 0.5 0  10.5 0.5 0  11.25 0.5 0  12 0.5 0  12.75 0.5 0  13.5 0.5 0  14.25 0.5 0  15 0.5 0  15.75 0.5 0  16.5 0.5 0  17.25 0.5 0  18 0.5 0  18.75 0.5 0  19.5 0.5 0  20.25 0.5 0  21 0.5 0  21.75 0.5 0  22.5 0.5 0  23.25 0.5 0  24 0.5 0  24.75 0.5 0  25.5 0.5 0  26.25 0.5 0  27 0.5 0  27.75 0.5 0  28.5 0.5 0  29.25 0.5 0  30 0.5 0  30.75 0.5 0  31.5 0.5 0  32.25 0.5 0  33 0.5 0  33.75 0.5 0  34.5 0.5 0  35.25 0.5 0  36 0.5 0  36.75 0.5 0  37.5 0.5 0  38.25 0.5 0  39 0.5 0  39.75 0.5 0  40.5 0.5 0  41.25 0.5 0  42 0.5 0  42.75 0.5 0  43.5 0.5 0  44.25 0.5 0  45 0.5 0  45.75 0.5 0  46.5 0.5 0  47.25 0.5 0  48 0.5 0  48.75 0.5 0  49.5 0.5 0  50.25 0.5 0  51 0.5 0  51.75 0.5 0  52.5 0.5 0  53.25 0.5 0  54 0.5 0  54.75 0.5 0  55.5 0.5 0  56.25 0.5 0  57 0.5 0  57.75 0.5 0  58.5 0.5 0  59.25 0.5 0  60 0.5 0  0 1 0  0.75 1 0  1.5 1 0  2.25 1 0  3 1 0  3.75 1 0  4.5 1 0  5.25 1 0  6 1 0  6.75 1 0  7.5 1 0  8.25 1 0  9 1 0  9.75 1 0  10.5 1 0  11.25 1 0  12 1 0  12.75 1 0  13.5 1 0  14.25 1 0  15 1 0  15.75 1 0  16.5 1 0  17.25 1 0  18 1 0  18.75 1 0  19.5 1 0  20.25 1 0  21 1 0  21.75 1 0  22.5 1 0  23.25 1 0  24 1 0  24.75 1 0  25.5 1 0  26.25 1 0  27 1 0  27.75 1 0  28.5 1 0  29.25 1 0  30 1 0  30.75 1 0  31.5 1 0  32.25 1 0  33 1 0  33.75 1 0  34.5 1 0  35.25 1 0  36 1 0  36.75 1 0  37.5 1 0  38.25 1 0  39 1 0  39.75 1 0  40.5 1 0  41.25 1 0  42 1 0  42.75 1 0  43.5 1 0  44.25 1 0  45 1 0  45.75 1 0  46.5 1 0  47.25 1 0  48 1 0  48.75 1 0  49.5 1 0  50.25 1 0  51 1 0  51.75 1 0  52.5 1 0  53.25 1 0  54 1 0  54.75 1 0  55.5 1 0  56.25 1 0  57 1 0  57.75 1 0  58.5 1 0  59.25 1 0  60 1 0  0 1.5 0  0.75 1.5 0  1.5 1.5 0  2.25 1.5 0  3 1.5 0  3.75 1.5 0  4.5 1.5 0  5.25 1.5 0  6 1.5 0  6.75 1.5 0  7.5 1.5 0  8.25 1.5 0  9 1.5 0  9.75 1.5 0  10.5 1.5 0  11.25 1.5 0  12 1.5 0  12.75 1.5 0  13.5 1.5 0  14.25 1.5 0  15 1.5 0  15.75 1.5 0  16.5 1.5 0  17.25 1.5 0  18 1.5 0  18.75 1.5 0  19.5 1.5 0  20.25 1.5 0  21 1.5 0  21.75 1.5 0  22.5 1.5 0  23.25 1.5 0  24 1.5 0  24.75 1.5 0  25.5 1.5 0  26.25 1.5 0  27 1.5 0  27.75 1.5 0  28.5 1.5 0  29.25 1.5 0  30 1.5 0  30.75 1.5 0  31.5 1.5 0  32.25 1.5 0  33 1.5 0  33.75 1.5 0  34.5 1.5 0  35.25 1.5 0  36 1.5 0  36.75 1.5 0  37.5 1.5 0  38.25 1.5 0  39 1.5 0  39.75 1.5 0  40.5 1.5 0  41.25 1.5 0  42 1.5 0  42.75 1.5 0  43.5 1.5 0  44.25 1.5 0  45 1.5 0  45.75 1.5 0  46.5 1.5 0  47.25 1.5 0  48 1.5 0  48.75 1.5 0  49.5 1.5 0  50.25 1.5 0  51 1.5 0  51.75 1.5 0  52.5 1.5 0  53.25 1.5 0  54 1.5 0  54.75 1.5 0  55.5 1.5 0  56.25 1.5 0  57 1.5 0  57.75 1.5 0  58.5 1.5 0  59.25 1.5 0  60 1.5 0  0 2 0  0.75 2 0  1.5 2 0  2.25 2 0  3 2 0  3.75 2 0  4.5 2 0  5.25 2 0  6 2 0  6.75 2 0  7.5 2 0  8.25 2 0  9 2 0  9.75 2 0  10.5 2 0  11.25 2 0  12 2 0  12.75 2 0  13.5 2 0  14.25 2 0  15 2 0  15.75 2 0  16.5 2 0  17.25 2 0  18 2 0  18.75 2 0  19.5 2 0  20.25 2 0  21 2 0  21.75 2 0  22.5 2 0  23.25 2 0  24 2 0  24.75 2 0  25.5 2 0  26.25 2 0  27 2 0  27.75 2 0  28.5 2 0  29.25 2 0  30 2 0  30.75 2 0  31.5 2 0  32.25 2 0  33 2 0  33.75 2 0  34.5 2 0  35.25 2 0  36 2 0  36.75 2 0  37.5 2 0  38.25 2 0  39 2 0  39.75 2 0  40.5 2 0  41.25 2 0  42 2 0  42.75 2 0  43.5 2 0  44.25 2 0  45 2 0  45.75 2 0  46.5 2 0  47.25 2 0  48 2 0  48.75 2 0  49.5 2 0  50.25 2 0  51 2 0  51.75 2 0  52.5 2 0  53.25 2 0  54 2 0  54.75 2 0  55.5 2 0  56.25 2 0  57 2 0  57.75 2 0  58.5 2 0  59.25 2 0  60 2 0  0 2.5 0  0.75 2.5 0  1.5 2.5 0  2.25 2.5 0  3 2.5 0  3.75 2.5 0  4.5 2.5 0  5.25 2.5 0  6 2.5 0  6.75 2.5 0  7.5 2.5 0  8.25 2.5 0  9 2.5 0  9.75 2.5 0  10.5 2.5 0  11.25 2.5 0  12 2.5 0  12.75 2.5 0  13.5 2.5 0  14.25 2.5 0  15 2.5 0  15.75 2.5 0  16.5 2.5 0  17.25 2.5 0  18 2.5 0  18.75 2.5 0  19.5 2.5 0  20.25 2.5 0  21 2.5 0  21.75 2.5 0  22.5 2.5 0  23.25 2.5 0  24 2.5 0  24.75 2.5 0  25.5 2.5 0  26.25 2.5 0  27 2.5 0  27.75 2.5 0  28.5 2.5 0  29.25 2.5 0  30 2.5 0  30.75 2.5 0  31.5 2.5 0  32.25 2.5 0  33 2.5 0  33.75 2.5 0  34.5 2.5 0  35.25 2.5 0  36 2.5 0  36.75 2.5 0  37.5 2.5 0  38.25 2.5 0  39 2.5 0  39.75 2.5 0  40.5 2.5 0  41.25 2.5 0  42 2.5 0  42.75 2.5 0  43.5 2.5 0  44.25 2.5 0  45 2.5 0  45.75 2.5 0  46.5 2.5 0  47.25 2.5 0  48 2.5 0  48.75 2.5 0  49.5 2.5 0  50.25 2.5 0  51 2.5 0  51.75 2.5 0  52.5 2.5 0  53.25 2.5 0  54 2.5 0  54.75 2.5 0  55.5 2.5 0  56.25 2.5 0  57 2.5 0  57.75 2.5 0  58.5 2.5 0  59.25 2.5 0  60 2.5 0  0 3 0  0.75 3 0  1.5 3 0  2.25 3 0  3 3 0  3.75 3 0  4.5 3 0  5.25 3 0  6 3 0  6.75 3 0  7.5 3 0  8.25 3 0  9 3 0  9.75 3 0  10.5 3 0  11.25 3 0  12 3 0  12.75 3 0  13.5 3 0  14.25 3 0  15 3 0  15.75 3 0  16.5 3 0  17.25 3 0  18 3 0  18.75 3 0  19.5 3 0  20.25 3 0  21 3 0  21.75 3 0  22.5 3 0  23.25 3 0  24 3 0  24.75 3 0  25.5 3 0  26.25 3 0  27 3 0  27.75 3 0  28.5 3 0  29.25 3 0  30 3 0  30.75 3 0  31.5 3 0  32.25 3 0  33 3 0  33.75 3 0  34.5 3 0  35.25 3 0  36 3 0  36.75 3 0  37.5 3 0  38.25 3 0  39 3 0  39.75 3 0  40.5 3 0  41.25 3 0  42 3 0  42.75 3 0  43.5 3 0  44.25 3 0  45 3 0  45.75 3 0  46.5 3 0  47.25 3 0  48 3 0  48.75 3 0  49.5 3 0  50.25 3 0  51 3 0  51.75 3 0  52.5 3 0  53.25 3 0  54 3 0  54.75 3 0  55.5 3 0  56.25 3 0  57 3 0  57.75 3 0  58.5 3 0  59.25 3 0  60 3 0  0 3.5 0  0.75 3.5 0  1.5 3.5 0  2.25 3.5 0  3 3.5 0  3.75 3.5 0  4.5 3.5 0  5.25 3.5 0  6 3.5 0  6.75 3.5 0  7.5 3.5 0  8.25 3.5 0  9 3.5 0  9.75 3.5 0  10.5 3.5 0  11.25 3.5 0  12 3.5 0  12.75 3.5 0  13.5 3.5 0  14.25 3.5 0  15 3.5 0  15.75 3.5 0  16.5 3.5 0  17.25 3.5 0  18 3.5 0  18.75 3.5 0  19.5 3.5 0  20.25 3.5 0  21 3.5 0  21.75 3.5 0  22.5 3.5 0  23.25 3.5 0  24 3.5 0  24.75 3.5 0  25.5 3.5 0  26.25 3.5 0  27 3.5 0  27.75 3.5 0  28.5 3.5 0  29.25 3.5 0  30 3.5 0  30.75 3.5 0  31.5 3.5 0  32.25 3.5 0  33 3.5 0  33.75 3.5 0  34.5 3.5 0  35.25 3.5 0  36 3.5 0  36.75 3.5 0  37.5 3.5 0  38.25 3.5 0  39 3.5 0  39.75 3.5 0  40.5 3.5 0  41.25 3.5 0  42 3.5 0  42.75 3.5 0  43.5 3.5 0  44.25 3.5 0  45 3.5 0  45.75 3.5 0  46.5 3.5 0  47.25 3.5 0  48 3.5 0  48.75 3.5 0  49.5 3.5 0  50.25 3.5 0  51 3.5 0  51.75 3.5 0  52.5 3.5 0  53.25 3.5 0  54 3.5 0  54.75 3.5 0  55.5 3.5 0  56.25 3.5 0  57 3.5 0  57.75 3.5 0  58.5 3.5 0  59.25 3.5 0  60 3.5 0  0 4 0  0.75 4 0  1.5 4 0  2.25 4 0  3 4 0  3.75 4 0  4.5 4 0  5.25 4 0  6 4 0  6.75 4 0  7.5 4 0  8.25 4 0  9 4 0  9.75 4 0  10.5 4 0  11.25 4 0  12 4 0  12.75 4 0  13.5 4 0  14.25 4 0  15 4 0  15.75 4 0  16.5 4 0  17.25 4 0  18 4 0  18.75 4 0  19.5 4 0  20.25 4 0  21 4 0  21.75 4 0  22.5 4 0  23.25 4 0  24 4 0  24.75 4 0  25.5 4 0  26.25 4 0  27 4 0  27.75 4 0  28.5 4 0  29.25 4 0  30 4 0  30.75 4 0  31.5 4 0  32.25 4 0  33 4 0  33.75 4 0  34.5 4 0  35.25 4 0  36 4 0  36.75 4 0  37.5 4 0  38.25 4 0  39 4 0  39.75 4 0  40.5 4 0  41.25 4 0  42 4 0  42.75 4 0  43.5 4 0  44.25 4 0  45 4 0  45.75 4 0  46.5 4 0  47.25 4 0  48 4 0  48.75 4 0  49.5 4 0  50.25 4 0  51 4 0  51.75 4 0  52.5 4 0  53.25 4 0  54 4 0  54.75 4 0  55.5 4 0  56.25 4 0  57 4 0  57.75 4 0  58.5 4 0  59.25 4 0  60 4 0  0.375 0.25 0  1.125 0.25 0  1.875 0.25 0  2.625 0.25 0  3.375 0.25 0  4.125 0.25 0  4.875 0.25 0  5.625 0.25 0  6.375 0.25 0  7.125 0.25 0  7.875 0.25 0  8.625 0.25 0  9.375 0.25 0  10.125 0.25 0  10.875 0.25 0  11.625 0.25 0  12.375 0.25 0  13.125 0.25 0  13.875 0.25 0  14.625 0.25 0  15.375 0.25 0  16.125 0.25 0  16.875 0.25 0  17.625 0.25 0  18.375 0.25 0  19.125 0.25 0  19.875 0.25 0  20.625 0.25 0  21.375 0.25 0  22.125 0.25 0  22.875 0.25 0  23.625 0.25 0  24.375 0.25 0  25.125 0.25 0  25.875 0.25 0  26.625 0.25 0  27.375 0.25 0  28.125 0.25 0  28.875 0.25 0  29.625 0.25 0  30.375 0.25 0  31.125 0.25 0  31.875 0.25 0  32.625 0.25 0  33.375 0.25 0  34.125 0.25 0  34.875 0.25 0  35.625 0.25 0  36.375 0.25 0  37.125 0.25 0  37.875 0.25 0  38.625 0.25 0  39.375 0.25 0  40.125 0.25 0  40.875 0.25 0  41.625 0.25 0  42.375 0.25 0  43.125 0.25 0  43.875 0.25 0  44.625 0.25 0  45.375 0.25 0  46.125 0.25 0  46.875 0.25 0  47.625 0.25 0  48.375 0.25 0  49.125 0.25 0  49.875 0.25 0  50.625 0.25 0  51.375 0.25 0  52.125 0.25 0  52.875 0.25 0  53.625 0.25 0  54.375 0.25 0  55.125 0.25 0  55.875 0.25 0  56.625 0.25 0  57.375 0.25 0  58.125 0.25 0  58.875 0.25 0  59.625 0.25 0  0.375 0.75 0  1.125 0.75 0  1.875 0.75 0  2.625 0.75 0  3.375 0.75 0  4.125 0.75 0  4.875 0.75 0  5.625 0.75 0  6.375 0.75 0  7.125 0.75 0  7.875 0.75 0  8.625 0.75 0  9.375 0.75 0  10.125 0.75 0  10.875 0.75 0  11.625 0.75 0  12.375 0.75 0  13.125 0.75 0  13.875 0.75 0  14.625 0.75 0  15.375 0.75 0  16.125 0.75 0  16.875 0.75 0  17.625 0.75 0  18.375 0.75 0  19.125 0.75 0  19.875 0.75 0  20.625 0.75 0  21.375 0.75 0  22.125 0.75 0  22.875 0.75 0  23.625 0.75 0  24.375 0.75 0  25.125 0.75 0  25.875 0.75 0  26.625 0.75 0  27.375 0.75 0  28.125 0.75 0  28.875 0.75 0  29.625 0.75 0  30.375 0.75 0  31.125 0.75 0  31.875 0.75 0  32.625 0.75 0  33.375 0.75 0  34.125 0.75 0  34.875 0.75 0  35.625 0.75 0  36.375 0.75 0  37.125 0.75 0  37.875 0.75 0  38.625 0.75 0  39.375 0.75 0  40.125 0.75 0  40
[...]
<PointData  Vectors="f_8-0"> 
<DataArray  type="Float64"  Name="f_8-0"  NumberOfComponents="3" format="ascii">0.0000000000000000e+00 0.0000000000000000e+00 0.0000000000000000e+00  0.0000000000000000e+00 0.0000000000000000e+00 0.0000000000000000e+00  0.0000000000000000e+00 0.0000000000000000e+00 0.0000000000000000e+00  0.0000000000000000e+00 0.0000000000000000e+00 0.0000000000000000e+00  0.0000000000000000e+00 0.0000000000000000e+00 0.0000000000000000e+00  0.0000000000000000e+00 0.0000000000000000e+00 0.0000000000000000e+00  0.0000000000000000e+00 0.0000000000000000e+00 0.0000000000000000e+00  0.0000000000000000e+00 0.0000000000000000e+00 0.0000000000000000e+00  0.0000000000000000e+00 0.0000000000000000e+00 0.0000000000000000e+00  0.0000000000000000e+00 0.0000000000000000e+00 0.0000000000000000e+00  0.0000000000000000e+00 0.0000000000000000e+00 0.0000000000000000e+00  0.0000000000000000e+00 0.0000000000000000e+00 0.0000000000000000e+00  0.0000000000000000e+00 0.0000000000000000e+00 0.0000000000000000e+00  0.0000000000000000e+00 0.0000000000000000e+00 0.0000000000000000e+00  0.0000000000000000e+00 0.0000000000000000e+00 0.0000000000000000e+00  0.0000000000000000e+00 0.0000000000000000e+00 0.0000000000000000e+00  0.0000000000000000e+00 0.0000000000000000e+00 0.0000000000000000e+00  0.0000000000000000e+00 0.0000000000000000e+00 0.0000000000000000e+00  0.0000000000000000e+00 0.0000000000000000e+00 0.0000000000000000e+00  0.0000000000000000e+00 0.0000000000000000e+00 0.0000000000000000e+00  0.0000000000000000e+00 0.0000000000000000e+00 0.0000000000000000e+00  0.0000000000000000e+00 0.0000000000000000e+00 0.0000000000000000e+00  0.0000000000000000e+00 0.0000000000000000e+00 0.0000000000000000e+00  0.0000000000000000e+00 0.0000000000000000e+00 0.0000000000000000e+00  0.0000000000000000e+00 0.0000000000000000e+00 0.0000000000000000e+00  0.0000000000000000e+00 0.0000000000000000e+00 0.0000000000000000e+00  0.0000000000000000e+00 0.0000000000000000e+00 0.0000000000000000e+00  0.0000000000000000e+00 0.0000000000000000e+00 0.0000000000000000e+00  0.0000000000000000e+00 0.0000000000000000e+00 0.0000000000000000e+00  0.0000000000000000e+00 0.0000000000000000e+00 0.0000000000000000e+00  0.0000000000000000e+00 0.0000000000000000e+00 0.0000000000000000e+00  0.0000000000000000e+00 0.0000000000000000e+00 0.0000000000000000e+00  0.0000000000000000e+00 0.0000000000000000e+00 0.0000000000000000e+00  0.0000000000000000e+00 0.0000000000000000e+00 0.0000000000000000e+00  0.0000000000000000e+00 0.0000000000000000e+00 0.0000000000000000e+00  0.0000000000000000e+00 0.0000000000000000e+00 0.0000000000000000e+00  0.0000000000000000e+00 0.0000000000000000e+00 0.0000000000000000e+00  0.0000000000000000e+00 0.0000000000000000e+00 0.0000000000000000e+00  0.0000000000000000e+00 0.0000000000000000e+00 0.0000000000000000e+00  0.0000000000000000e+00 0.0000000000000000e+00 0.0000000000000000e+00  0.0000000000000000e+00 0.0000000000000000e+00 0.0000000000000000e+00  0.0000000000000000e+00 0.0000000000000000e+00 0.0000000000000000e+00  0.0000000000000000e+00 0.0000000000000000e+00 0.0000000000000000e+00  0.0000000000000000e+00 0.0000000000000000e+00 0.0000000000000000e+00  0.0000000000000000e+00 0.0000000000000000e+00 0.0000000000000000e+00  0.0000000000000000e+00 0.0000000000000000e+00 0.0000000000000000e+00  0.0000000000000000e+00 0.0000000000000000e+00 0.0000000000000000e+00  0.0000000000000000e+00 0.0000000000000000e+00 0.0000000000000000e+00  0.0000000000000000e+00 0.0000000000000000e+00 0.0000000000000000e+00  0.0000000000000000e+00 0.0000000000000000e+00 0.0000000000000000e+00  0.0000000000000000e+00 0.0000000000000000e+00 0.0000000000000000e+00  0.0000000000000000e+00 0.0000000000000000e+00 0.0000000000000000e+00  0.0000000000000000e+00 0.0000000000000000e+00 0.0000000000000000e+00  0.0000000000000000e+00 0.0000000000000000e+00 0.0000000000000000e+00  0.0000000000000000e+00 0.0000000000000000e+00 0.0000000000000000e+00  0.0000000000000000e+00 0.0000000000000000e+00 0.0000000000000000e+00  0.0000000000000000e+00 0.0000000000000000e+00 0.0000000000000000e+00  0.0000000000000000e+00 0.0000000000000000e+00 0.0000000000000000e+00  0.0000000000000000e+00 0.0000000000000000e+00 0.0000000000000000e+00  0.0000000000000000e+00 0.0000000000000000e+00 0.0000000000000000e+00  0.0000000000000000e+00 0.0000000000000000e+00 0.0000000000000000e+00  0.0000000000000000e+00 0.0000000000000000e+00 0.0000000000000000e+00  0.0000000000000000e+00 0.0000000000000000e+00 0.0000000000000000e+00  0.0000000000000000e+00 0.0000000000000000e+00 0.0000000000000000e+00  0.0000000000000000e+00 0.0000000000000000e+00 0.0000000000000000e+00  0.0000000000000000e+00 0.0000000000000000e+00 0.0000000000000000e+00  0.0000000000000000e+00 0.0000000000000000e+00 0.0000000000000000e+00  0.0000000000000000e+00 0.0000000000000000e+00 0.0000000000000000e+00  0.0000000000000000e+00 0.0000000000000000e+00 0.0000000000000000e+00  0.0000000000000000e+00 0.0000000000000000e+00 0.0000000000000000e+00  0.0000000000000000e+00 0.0000000000000000e+00 0.0000000000000000e+00  0.0000000000000000e+00 0.0000000000000000e+00 0.0000000000000000e+00  0.0000000000000000e+00 0.0000000000000000e+00 0.0000000000000000e+00  0.0000000000000000e+00 0.0000000000000000e+00 0.0000000000000000e+00  0.0000000000000000e+00 0.0000000000000000e+00 0.0000000000000000e+00  0.0000000000000000e+00 0.0000000000000000e+00 0.0000000000000000e+00  0.0000000000000000e+00 0.0000000000000000e+00 0.0000000000000000e+00  0.0000000000000000e+00 0.0000000000000000e+00 0.0000000000000000e+00  0.0000000000000000e+00 0.0000000000000000e+00 0.0000000000000000e+00  0.0000000000000000e+00 0.0000000000000000e+00 0.0000000000000000e+00  0.0000000000000000e+00 0.0000000000000000e+00 0.0000000000000000e+00  1.3960493868924337e+01 0.0000000000000000e+00 0.0000000000000000e+00  1.4006114068214606e+01 -6.8864096642736253e-02 0.0000000000000000e+00  1.3993019288515306e+01 -2.2406870128213904e-02 0.0000000000000000e+00  1.3991768252896705e+01 -6.0561413219735417e-03 0.0000000000000000e+00  1.3988096786611523e+01 -4.8326148997762004e-03 0.0000000000000000e+00  1.3981941953880579e+01 -3.7920561407145895e-03 0.0000000000000000e+00  1.3981896679703381e+01 -6.0394136546208857e-03 0.0000000000000000e+00  1.3982165690150920e+01 -6.3640060183182620e-03 0.0000000000000000e+00  1.3985762896539510e+01 -7.4444934538719235e-03 0.0000000000000000e+00  1.3989415398440086e+01 -7.1552581348508755e-03 0.0000000000000000e+00  1.3993068170263928e+01 -6.9991425412560667e-03 0.0000000000000000e+00  1.3995325789477024e+01 -6.4650273765875762e-03 0.0000000000000000e+00  1.3996770566628399e+01 -6.2116398342437155e-03 0.0000000000000000e+00  1.3997388534870490e+01 -5.9837702257595224e-03 0.0000000000000000e+00  1.3997691852555384e+01 -5.9274799927643319e-03 0.0000000000000000e+00  1.3997777576329339e+01 -5.8834780909188733e-03 0.0000000000000000e+00  1.3997821562575322e+01 -5.8834930323813225e-03 0.0000000000000000e+00  1.3997829791206509e+01 -5.8767059624135970e-03 0.0000000000000000e+00  1.3997838016516257e+01 -5.8782014032861870e-03 0.0000000000000000e+00  1.3997839962078174e+01 -5.8768921451989855e-03 0.0000000000000000e+00  1.3997841908417252e+01 -5.8768056033939109e-03 0.0000000000000000e+00  1.3997842938466606e+01 -5.8768342413895464e-03 0.0000000000000000e+00  1.3997843117883239e+01 -5.8763905394058485e-03 0.0000000000000000e+00  1.3997843728918024e+01 -5.8767279275378078e-03 0.0000000000000000e+00  1.3997843512064565e+01 -5.8763373076566785e-03 0.0000000000000000e+00  1.3997843878596854e+01 -5.8766380597558565e-03 0.0000000000000000e+00  1.3997843664458530e+01 -5.8763755043945796e-03 0.0000000000000000e+00  1.3997843875311540e+01 -5.8765725513334043e-03 0.0000000000000000e+00  1.3997843735539922e+01 -5.8764187427619670e-03 0.0000000000000000e+00  1.3997843849638263e+01 -5.8765304913801801e-03 0.0000000000000000e+00  1.3997843771856576e+01 -5.8764485809073650e-03 0.0000000000000000e+00  1.3997843829759566e+01 -5.8765062041330682e-03 0.0000000000000000e+00  1.3997843790515171e+01 -5.8764657955580587e-03 0.0000000000000000e+00  1.3997843818105112e+01 -5.8764933652629006e-03 0.0000000000000000e+00  1.3997843799747052e+01 -5.8764747065601936e-03 0.0000000000000000e+00  1.3997843812129760e+01 -5.8764870762458548e-03 0.0000000000000000e+00  1.3997843804077476e+01 -5.8764789559056993e-03 0.0000000000000000e+00  1.3997843809329604e+01 -5.8764841974332264e-03 0.0000000000000000e+00  1.3997843805992517e+01 -5.8764808484703425e-03 0.0000000000000000e+00  1.3997843808103791e+01 -5.8764829575169023e-03 0.0000000000000000e+00  1.3997843806791490e+01 -5.8764816435717664e-03 0.0000000000000000e+00  1.3997843807603738e+01 -5.8764824527179583e-03 0.0000000000000000e+00  1.3997843807109323e+01 -5.8764819582600488e-03 0.0000000000000000e+00  1.3997843807407349e+01 -5.8764822569392517e-03 0.0000000000000000e+00  1.3997843807231407e+01 -5.8764820782484743e-03 0.0000000000000000e+00  1.3997843807337478e+01 -5.8764821845868603e-03 0.0000000000000000e+00  1.3997843807276475e+01 -5.8764821223047234e-03 0.0000000000000000e+00  1.3997843807315414e+01 -5.8764821593827732e-03 0.0000000000000000e+00  1.3997843807295643e+01 -5.8764821380397556e-03 0.0000000000000000e+00  1.3997843807311567e+01 -5.8764821521283556e-03 0.0000000000000000e+00  1.3997843807312377e+01 -5.8764821475893302e-03 0.0000000000000000e+00  1.3997843807334814e+01 -5.8764821591131035e-03 0.0000000000000000e+00  1.3997843807368927e+01 -5.8764821696937275e-03 0.0000000000000000e+00  1.3997843807448158e+01 -5.8764821957431436e-03 0.0000000000000000e+00  1.3997843807604610e+01 -5.8764822506767542e-03 0.0000000000000000e+00  1.3997843807933410e+01 -5.8764823564080963e-03 0.0000000000000000e+00  1.3997843808598857e+01 -5.8764825902901984e-03 0.0000000000000000e+00  1.3997843809976263e+01 -5.8764830400447983e-03 0.0000000000000000e+00  1.3997843812796530e+01 -5.8764840225801083e-03 0.0000000000000000e+00  1.3997843818621963e+01 -5.8764859439112875e-03 0.0000000000000000e+00  1.3997843830597626e+01 -5.8764900637078834e-03 0.0000000000000000e+00  1.3997843855300628e+01 -5.8764982222984027e-03 0.0000000000000000e+00  1.3997843906070456e+01 -5.8765153834231792e-03 0.0000000000000000e+00  1.3997844010429215e+01 -5.8765495325606926e-03 0.0000000000000000e+00  1.3997844223804268e+01 -5.8766199625300344e-03 0.0000000000000000e+00  1.3997844658359627e+01 -5.8767596538308112e-03 0.0000000000000000e+00  1.3997845535697058e+01 -5.8770410578617149e-03 0.0000000000000000e+00  1.3997847291328892e+01 -5.8775902133003308e-03 0.0000000000000000e+00  1.3997850759365159e+01 -5.8786597978577682e-03 0.0000000000000000e+00  1.3997857509343572e+01 -5.8806824517103002e-03 0.0000000000000000e+00  1.3997870416675170e+01 -5.8844925881815944e-03 0.0000000000000000e+00  1.3997894668818057e+01 -5.8915549480932725e-03 0.0000000000000000e+00  1.3997939449358245e+01 -5.9046661426847948e-03 0.0000000000000000e+00  1.3998020987258638e+01 -5.9290151369128710e-03 0.0000000000000000e+00  1.3998169211968593e+01 -5.9758473146050671e-03 0.0000000000000000e+00  1.3998446564305619e+01 -6.0694648490236449e-03 0.0000000000000000e+00  1.3999007519180982e+01 -6.2589562695789993e-03 0.0000000000000000e+00  1.4000327963639490e+01 -6.5623894292589253e-03 0.0000000000000000e+00  1.4003919420876004e+01 -6.6317186258581431e-03 0.0000000000000000e+00  1.4019586329222030e+01 1.2716179923969858e-03 0.0000000000000000e+00  1.4080482729822789e+01 0.0000000000000000e+00 0.0000000000000000e+00  2.3683626541105706e+01 0.0000000000000000e+00 0.0000000000000000e+00  2.3723542544527493e+01 3.7254607437635388e-02 0.0000000000000000e+00  2.3685923294899869e+01 3.3294921650381597e-03 0.0000000000000000e+00  2.3685505842960563e+01 1.1141850635681943e-02 0.0000000000000000e+00  2.3678065845208963e+01 8.7491421110957920e-03 0.0000000000000000e+00  2.3680022111739746e+01 4.6372735923025515e-03 0.0000000000000000e+00  2.3678649634572533e+01 2.6657291091961403e-03 0.0000000000000000e+00  2.3680204918386764e+01 -6.5768433171030794e-05 0.0000000000000000e+00  2.3680400350774597e+01 -1.4160095687285178e-03 0.0000000000000000e+00  2.3683449083932082e+01 -2.2923257544651176e-03 0.0000000000000000e+00  2.3686398062156400e+01 -1.1954066792846942e-03 0.0000000000000000e+00  2.3689297146923099e+01 -1.0002334396490247e-04 0.0000000000000000e+00  2.3690883886983240e+01 1.0098758010281482e-03 0.0000000000000000e+00  2.3691959560815199e+01 1.5811995181987007e-03 0.0000000000000000e+00  2.3692391186578586e+01 1.9434328140369370e-03 0.0000000000000000e+00  2.3692656920204357e+01 2.0612520464125053e-03 0.0000000000000000e+00  2.3692726927275690e+01 2.1301400672223306e-03 0.0000000000000000e+00  2.3692781580569420e+01 2.1411917039865099e-03 0.0000000000000000e+00  2.3692787457442588e+01 2.1533263514331080e-03 0.0000000000000000e+00  2.3692800390414565e+01 2.1537993135494569e-03 0.0000000000000000e+00  2.3692800152804359e+01 2.1564805617487592e-03 0.0000000000000000e+00  2.3692803651938309e+01 2.1568572700464269e-03 0.0000000000000000e+00  2.3692803599597699e+01 2.1572508970212393e-03 0.0000000000000000e+00  2.3692804352127837e+01 2.1576996643367123e-03 0.0000000000000000e+00  2.3692804566410789e+01 2.1575155236615933e-03 0.0000000000000000e+00  2.3692804545936056e+01 2.1578759845618228e-03 0.0000000000000000e+00  2.3692804794973828e+01 2.1576379757078999e-03 0.0000000000000000e+00  2.3692804630792605e+01 2.1578763095103618e-03 0.0000000000000000e+00  2.3692804820306925e+01 2.1577074279980177e-03 0.0000000000000000e+00  2.3692804682340618e+01 2.1578463374423650e-03 0.0000000000000000e+00  2.3692804801859062e+01 2.1577480214601623e-03 0.0000000000000000e+00  2.3692804715149723e+01 2.1578216882623888e-03 0.0000000000000000e+00  2.3692804782002909e+01 2.1577705983418503e-03 0.0000000000000000e+00  2.3692804734708751e+01 2.1578067503942762e-03 0.0000000000000000e+00  2.3692804768813378e+01 2.1577823121774497e-03 0.0000000000000000e+00  2.3692804745404491e+01 2.1577988985290934e-03 0.0000000000000000e+00  2.3692804761510253e+01 2.1577879786110303e-03 0.0000000000000000e+00  2.3692804750786113e+01 2.1577951457773322e-03 0.0000000000000000e+00  2.3692804757897779e+01 2.1577905457976338e-03 0.0000000000000000e+00  2.3692804753294901e+01 2.1577934817486686e-03 0.0000000000000000e+00  2.3692804756251704e+01 2.1577916414967763e-03 0.0000000000000000e+00  2.3692804754385385e+01 2.1577927848625746e-03 0.0000000000000000e+00  2.3692804755553642e+01 2.1577920843092926e-03 0.0000000000000000e+00  2.3692804754833002e+01 2.1577925116051553e-03 0.0000000000000000e+00  2.3692804755271876e+01 2.1577922529582498e-03 0.0000000000000000e+00  2.3692804755007558e+01 2.1577924066810213e-03 0.0000000000000000e+00  2.3692804755167160e+01 2.1577923158799042e-03 0.0000000000000000e+00  2.3692804755074565e+01 2.1577923685178343e-03 0.0000000000000000e+00  2.3692804755130833e+01 2.1577923371156444e-03 0.0000000000000000e+00  2.3692804755099161e+01 2.1577923522064983e-03 0.0000000000000000e+00  2.3692804755117727e+01 2.1577923381672390e-03 0.0000000000000000e+00  2.3692804755105286e+01 2.1577923344588638e-03 0.0000000000000000e+00  2.3692804755109801e+01 2.1577923028803753e-03 0.0000000000000000e+00  2.3692804755108796e+01 2.1577922729592545e-03 0.0000000000000000e+00  2.3692804755109009e+01 2.1577921600457045e-03 0.0000000000000000e+00  2.3692804755113624e+01 2.1577920095132330e-03 0.0000000000000000e+00  2.3692804755113169e+01 2.1577915697896383e-03 0.0000000000000000e+00  2.3692804755131842e+01 2.1577908696159150e-03 0.0000000000000000e+00  2.3692804755142024e+01 2.1577891142836895e-03 0.0000000000000000e+00  2.3692804755206616e+01 2.1577859849485157e-03 0.0000000000000000e+00  2.3692804755271791e+01 2.1577788112588795e-03 0.0000000000000000e+00  2.3692804755496851e+01 2.1577652493301788e-03 0.0000000000000000e+00  2.3692804755775683e+01 2.1577357268792014e-03 0.0000000000000000e+00  2.3692804756529508e+01 2.1576782189140758e-03 0.0000000000000000e+00  2.3692804757736504e+01 2.1575568947127966e-03 0.0000000000000000e+00  2.3692804761158733e+01 2.1573174109931923e-03 0.0000000000000000e+00  2.3692804768610888e+01 2.1568267913003583e-03 0.0000000000000000e+00  2.3692804786885098e+01 2.1558700251276489e-03 0.0000000000000000e+00  2.3692804820643765e+01 2.1539994039568061e-03 0.0000000000000000e+00  2.3692804879563855e+01 2.1504956759341226e-03 0.0000000000000000e+00  2.3692804975443771e+01 2.1439067895148048e-03 0.0000000000000000e+00  2.3692805183972208e+01 2.1316871333659738e-03 0.0000000000000000e+00  2.3692805637786407e+01 2.1089793788474434e-03 0.0000000000000000e+00  2.3692806691946480e+01 2.0673787890246650e-03 0.0000000000000000e+00  2.3692809764177227e+01 1.9883302905675609e-03 0.0000000000000000e+00  2.3692819718015183e+01 1.8298666869536334e-03 0.0000000000000000e+00  2.3692854466607439e+01 1.4851154483629841e-03 0.0000000000000000e+00  2.3692992961416579e+01 6.9517805170142251e-04 0.0000000000000000e+00  2.3693587305134500e+01 -9.9573669264471881e-04 0.0000000000000000e+00  2.3693802916320639e+01 -5.6464315029157086e-03 0.0000000000000000e+00  2.3686646566882356e+01 0.0000000000000000e+00 0.0000000000000000e+00  2.5391511712431601e+01 0.0000000000000000e+00 0.0000000000000000e+00  2.5356843218232068e+01 -1.6457077333792321e-02 0.0000000000000000e+00  2.5368797916863091e+01 3.0610674815990460e-03 0.0000000000000000e+00  2.5372693109662393e+01 -4.5757091512335432e-05 0.0000000000000000e+00  2.5388673207938602e+01 3.6242254559337118e-03 0.0000000000000000e+00  2.5390528373674996e+01 2.5609979237306612e-03 0.0000000000000000e+00  2.5395002941194516e+01 7.4660512840722757e-04 0.0000000000000000e+00  2.5392270771989249e+01 2.5216191327162297e-04 0.0000000000000000e+00  2.5390533886739188e+01 -1.7680914506338081e-03 0.0000000000000000e+00  2.5385726791401314e+01 -2.7625886809107265e-03 0.0000000000000000e+00  2.5382751524771617e+01 -2.4932633789693679e-03 0.0000000000000000e+00  2.5380040055477703e+01 -1.1998020815891200e-03 0.0000000000000000e+00  2.5378912262954920e+01 -1.6655712717110287e-04 0.0000000000000000e+00  2.5378089502209630e+01 5.8913293404745496e-04 0.0000000000000000e+00  2.5377887467790678e+01 9.5420999346011021e-04 0.0000000000000000e+00  2.5377711934729231e+01 1.1522168528046873e-03 0.0000000000000000e+00  2.5377707338350344e+01 1.2211292458227569e-03 0.0000000000000000e+00  2.5377667564913523e+01 1.2567716588583740e-03 0.0000000000000000e+00  2.5377675642429622e+01 1.2659354943167704e-03 0.0000000000000000e+00  2.5377663296715191e+01 1.2722594781303654e-03 0.0000000000000000e+00  2.5377666862814735e+01 1.2738468937452379e-03 0.0000000000000000e+00  2.5377662966888213e+01 1.2751107143993317e-03 0.0000000000000000e+00  2.5377663959862190e+01 1.2757262910687167e-03 0.0000000000000000e+00  2.5377663069856315e+01 1.2758512452610250e-03 0.0000000000000000e+00  2.5377663080973505e+01 1.2762027282816112e-03 0.0000000000000000e+00  2.5377663113088829e+01 1.2760861112984683e-03 0.0000000000000000e+00  2.5377662872772721e+01 1.2762968204452763e-03 0.0000000000000000e+00  2.5377663087861542e+01 1.2761772109261484e-03 0.0000000000000000e+00  2.5377662860047721e+01 1.2762974221675973e-03 0.0000000000000000e+00  2.5377663043874243e+01 1.2762193959310717e-03 0.0000000000000000e+00  2.5377662889169159e+01 1.2762833809368671e-03 0.0000000000000000e+00  2.5377663006617045e+01 1.2762405186888294e-03 0.0000000000000000e+00  2.5377662916898085e+01 1.2762723530667676e-03 0.0000000000000000e+00  2.5377662981912966e+01 1.2762510833317791e-03 0.0000000000000000e+00  2.5377662935087965e+01 1.2762659692526145e-03 0.0000000000000000e+00  2.5377662967712272e+01 1.2762561690548486e-03 0.0000000000000000e+00  2.5377662945217246e+01 1.2762627479595396e-03 0.0000000000000000e+00  2.5377662960361111e+01 1.2762585009517622e-03 0.0000000000000000e+00  2.5377662950287650e+01 1.2762612601137349e-03 0.0000000000000000e+00  2.5377662956866192e+01 1.2762595181868581e-03 0.0000000000