<?xml version="1.0"?>
<VTKFile type="UnstructuredGrid"  version="0.1"  >
<UnstructuredGrid>
<Piece  NumberOfPoints="1369" NumberOfCells="2560">
<Points>
<DataArray  type="Float64"  NumberOfComponents="3"  format="ascii">0 0 0  0.75 0 0  1.5 0 0  2.25 0 0  3 0 0  3.75 0 0  4.5 0 0  5.25 0 0  6 0 0  6.75 0 0  7.5 0 0  8.25 0 0  9 0 0  9.75 0 0  10.5 0 0  11.25 0 0  12 0 0  12.75 0 0  13.5 0 0  14.25 0 0  15 0 0  15.75 0 0  16.5 0 0  17.25 0 0  18 0 0  18.75 0 0  19.5 0 0  20.25 0 0  21 0 0  21.75 0 0  22.5 0 0  23.25 0 0  24 0 0  24.75 0 0  25.5 0 0  26.25 0 0  27 0 0  27.75 0 0  28.5 0 0  29.25 0 0  30 0 0  30.75 0 0  31.5 0 0  32.25 0 0  33 0 0  33.75 0 0  34.5 0 0  35.25 0 0  36 0 0  36.75 0 0  37.5 0 0  38.25 0 0  39 0 0  39.75 0 0  40.5 0 0  41.25 0 0  42 0 0  42.75 0 0  43.5 0 0  44.25 0 0  45 0 0  45.75 0 0  46.5 0 0  47.25 0 0  48 0 0  48.75 0 0  49.5 0 0  50.25 0 0  51 0 0  51.75 0 0  52.5 0 0  53.25 0 0  54 0 0  54.75 0 0  55.5 0 0  56.25 0 0  57 0 0  57.75 0 0  58.5 0 0  59.25 0 0  60 0 0  0 0.5 0  0.75 0.5 0  1.5 0.5 0  2.25 0.5 0  3 0.5 0  3.75 0.5 0  4.5 0.5 0  5.25 0.5 0  6 0.5 0  6.75 0.5 0  7.5 0.5 0  8.25 0.5 0  9 0.5 0  9.75 0.5 0  10.5 0.5 0  11.25 0.5 0  12 0.5 0  12.75 0.5 0  13.5 0.5 0  14.25 0.5 0  15 0.5 0  15.75 0.5 0  16.5 0.5 0  17.25 0.5 0  18 0.5 0  18.75 0.5 0  19.5 0.5 0  20.25 0.5 0  21 0.5 0  21.75 0.5 0  22.5 0.5 0  23.25 0.5 0  24 0.5 0  24.75 0.5 0  25.5 0.5 0  26.25 0.5 0  27 0.5 0  27.75 0.5 0  28.5 0.5 0  29.25 0.5 0  30 0.5 0  30.75 0.5 0  31.5 0.5 0  32.25 0.5 0  33 0.5 0  33.75 0.5 0  34.5 0.5 0  35.25 0.5 0  36 0.5 0  36.75 0.5 0  37.5 0.5 0  38.25 0.5 0  39 0.5 0  39.75 0.5 0  40.5 0.5 0  41.25 0.5 0  42 0.5 0  42.75 0.5 0  43.5 0.5 0  44.25 0.5 0  45 0.5 0  45.75 0.5 0  46.5 0.5 0  47.25 0.5 0  48 0.5 0  48.75 0.5 0  49.5 0.5 0  50.25 0.5 0  51 0.5 0  51.75 0.5 0  52.5 0.5 0  53.25 0.5 0  54 0.5 0  54.75 0.5 0  55.5 0.5 0  56.25 0.5 0  57 0.5 0  57.75 0.5 0  58.5 0.5 0  59.25 0.5 0  60 0.5 0  0 1 0  0.75 1 0  1.5 1 0  2.25 1 0  3 1 0  3.75 1 0  4.5 1 0  5.25 1 0  6 1 0  6.75 1 0  7.5 1 0  8.25 1 0  9 1 0  9.75 1 0  10.5 1 0  11.25 1 0  12 1 0  12.75 1 0  13.5 1 0  14.25 1 0  15 1 0  15.75 1 0  16.5 1 0  17.25 1 0  18 1 0  18.75 1 0  19.5 1 0  20.25 1 0  21 1 0  21.75 1 0  22.5 1 0  23.25 1 0  24 1 0  24.75 1 0  25.5 1 0  26.25 1 0  27 1 0  27.75 1 0  28.5 1 0  29.25 1 0  30 1 0  30.75 1 0  31.5 1 0  32.25 1 0  33 1 0  33.75 1 0  34.5 1 0  35.25 1 0  36 1 0  36.75 1 0  37.5 1 0  38.25 1 0  39 1 0  39.75 1 0  40.5 1 0  41.25 1 0  42 1 0  42.75 1 0  43.5 1 0  44.25 1 0  45 1 0  45.75 1 0  46.5 1 0  47.25 1 0  48 1 0  48.75 1 0  49.5 1 0  50.25 1 0  51 1 0  51.75 1 0  52.5 1 0  53.25 1 0  54 1 0  54.75 1 0  55.5 1 0  56.25 1 0  57 1 0  57.75 1 0  58.5 1 0  59.25 1 0  60 1 0  0 1.5 0  0.75 1.5 0  1.5 1.5 0  2.25 1.5 0  3 1.5 0  3.75 1.5 0  4.5 1.5 0  5.25 1.5 0  6 1.5 0  6.75 1.5 0  7.5 1.5 0  8.25 1.5 0  9 1.5 0  9.75 1.5 0  10.5 1.5 0  11.25 1.5 0  12 1.5 0  12.75 1.5 0  13.5 1.5 0  14.25 1.5 0  15 1.5 0  15.75 1.5 0  16.5 1.5 0  17.25 1.5 0  18 1.5 0  18.75 1.5 0  19.5 1.5 0  20.25 1.5 0  21 1.5 0  21.75 1.5 0  22.5 1.5 0  23.25 1.5 0  24 1.5 0  24.75 1.5 0  25.5 1.5 0  26.25 1.5 0  27 1.5 0  27.75 1.5 0  28.5 1.5 0  29.25 1.5 0  30 1.5 0  30.75 1.5 0  31.5 1.5 0  32.25 1.5 0  33 1.5 0  33.75 1.5 0  34.5 1.5 0  35.25 1.5 0  36 1.5 0  36.75 1.5 0  37.5 1.5 0  38.25 1.5 0  39 1.5 0  39.75 1.5 0  40.5 1.5 0  41.25 1.5 0  42 1.5 0  42.75 1.5 0  43.5 1.5 0  44.25 1.5 0  45 1.5 0  45.75 1.5 0  46.5 1.5 0  47.25 1.5 0  48 1.5 0  48.75 1.5 0  49.5 1.5 0  50.25 1.5 0  51 1.5 0  51.75 1.5 0  52.5 1.5 0  53.25 1.5 0  54 1.5 0  54.75 1.5 0  55.5 1.5 0  56.25 1.5 0  57 1.5 0  57.75 1.5 0  58.5 1.5 0  59.25 1.5 0  60 1.5 0  0 2 0  0.75 2 0  1.5 2 0  2.25 2 0  3 2 0  3.75 2 0  4.5 2 0  5.25 2 0  6 2 0  6.75 2 0  7.5 2 0  8.25 2 0  9 2 0  9.75 2 0  10.5 2 0  11.25 2 0  12 2 0  12.75 2 0  13.5 2 0  14.25 2 0  15 2 0  15.75 2 0  16.5 2 0  17.25 2 0  18 2 0  18.75 2 0  19.5 2 0  20.25 2 0  21 2 0  21.75 2 0  22.5 2 0  23.25 2 0  24 2 0  24.75 2 0  25.5 2 0  26.25 2 0  27 2 0  27.75 2 0  28.5 2 0  29.25 2 0  30 2 0  30.75 2 0  31.5 2 0  32.25 2 0  33 2 0  33.75 2 0  34.5 2 0  35.25 2 0  36 2 0  36.75 2 0  37.5 2 0  38.25 2 0  39 2 0  39.75 2 0  40.5 2 0  41.25 2 0  42 2 0  42.75 2 0  43.5 2 0  44.25 2 0  45 2 0  45.75 2 0  46.5 2 0  47.25 2 0  48 2 0  48.75 2 0  49.5 2 0  50.25 2 0  51 2 0  51.75 2 0  52.5 2 0  53.25 2 0  54 2 0  54.75 2 0  55.5 2 0  56.25 2 0  57 2 0  57.75 2 0  58.5 2 0  59.25 2 0  60 2 0  0 2.5 0  0.75 2.5 0  1.5 2.5 0  2.25 2.5 0  3 2.5 0  3.75 2.5 0  4.5 2.5 0  5.25 2.5 0  6 2.5 0  6.75 2.5 0  7.5 2.5 0  8.25 2.5 0  9 2.5 0  9.75 2.5 0  10.5 2.5 0  11.25 2.5 0  12 2.5 0  12.75 2.5 0  13.5 2.5 0  14.25 2.5 0  15 2.5 0  15.75 2.5 0  16.5 2.5 0  17.25 2.5 0  18 2.5 0  18.75 2.5 0  19.5 2.5 0  20.25 2.5 0  21 2.5 0  21.75 2.5 0  22.5 2.5 0  23.25 2.5 0  24 2.5 0  24.75 2.5 0  25.5 2.5 0  26.25 2.5 0  27 2.5 0  27.75 2.5 0  28.5 2.5 0  29.25 2.5 0  30 2.5 0  30.75 2.5 0  31.5 2.5 0  32.25 2.5 0  33 2.5 0  33.75 2.5 0  34.5 2.5 0  35.25 2.5 0  36 2.5 0  36.75 2.5 0  37.5 2.5 0  38.25 2.5 0  39 2.5 0  39.75 2.5 0  40.5 2.5 0  41.25 2.5 0  42 2.5 0  42.75 2.5 0  43.5 2.5 0  44.25 2.5 0  45 2.5 0  45.75 2.5 0  46.5 2.5 0  47.25 2.5 0  48 2.5 0  48.75 2.5 0  49.5 2.5 0  50.25 2.5 0  51 2.5 0  51.75 2.5 0  52.5 2.5 0  53.25 2.5 0  54 2.5 0  54.75 2.5 0  55.5 2.5 0  56.25 2.5 0  57 2.5 0  57.75 2.5 0  58.5 2.5 0  59.25 2.5 0  60 2.5 0  0 3 0  0.75 3 0  1.5 3 0  2.25 3 0  3 3 0  3.75 3 0  4.5 3 0  5.25 3 0  6 3 0  6.75 3 0  7.5 3 0  8.25 3 0  9 3 0  9.75 3 0  10.5 3 0  11.25 3 0  12 3 0  12.75 3 0  13.5 3 0  14.25 3 0  15 3 0  15.75 3 0  16.5 3 0  17.25 3 0  18 3 0  18.75 3 0  19.5 3 0  20.25 3 0  21 3 0  21.75 3 0  22.5 3 0  23.25 3 0  24 3 0  24.75 3 0  25.5 3 0  26.25 3 0  27 3 0  27.75 3 0  28.5 3 0  29.25 3 0  30 3 0  30.75 3 0  31.5 3 0  32.25 3 0  33 3 0  33.75 3 0  34.5 3 0  35.25 3 0  36 3 0  36.75 3 0  37.5 3 0  38.25 3 0  39 3 0  39.75 3 0  40.5 3 0  41.25 3 0  42 3 0  42.75 3 0  43.5 3 0  44.25 3 0  45 3 0  45.75 3 0  46.5 3 0  47.25 3 0  48 3 0  48.75 3 0  49.5 3 0  50.25 3 0  51 3 0  51.75 3 0  52.5 3 0  53.25 3 0  54 3 0  54.75 3 0  55.5 3 0  56.25 3 0  57 3 0  57.75 3 0  58.5 3 0  59.25 3 0  60 3 0  0 3.5 0  0.75 3.5 0  1.5 3.5 0  2.25 3.5 0  3 3.5 0  3.75 3.5 0  4.5 3.5 0  5.25 3.5 0  6 3.5 0  6.75 3.5 0  7.5 3.5 0  8.25 3.5 0  9 3.5 0  9.75 3.5 0  10.5 3.5 0  11.25 3.5 0  12 3.5 0  12.75 3.5 0  13.5 3.5 0  14.25 3.5 0  15 3.5 0  15.75 3.5 0  16.5 3.5 0  17.25 3.5 0  18 3.5 0  18.75 3.5 0  19.5 3.5 0  20.25 3.5 0  21 3.5 0  21.75 3.5 0  22.5 3.5 0  23.25 3.5 0  24 3.5 0  24.75 3.5 0  25.5 3.5 0  26.25 3.5 0  27 3.5 0  27.75 3.5 0  28.5 3.5 0  29.25 3.5 0  30 3.5 0  30.75 3.5 0  31.5 3.5 0  32.25 3.5 0  33 3.5 0  33.75 3.5 0  34.5 3.5 0  35.25 3.5 0  36 3.5 0  36.75 3.5 0  37.5 3.5 0  38.25 3.5 0  39 3.5 0  39.75 3.5 0  40.5 3.5 0  41.25 3.5 0  42 3.5 0  42.75 3.5 0  43.5 3.5 0  44.25 3.5 0  45 3.5 0  45.75 3.5 0  46.5 3.5 0  47.25 3.5 0  48 3.5 0  48.75 3.5 0  49.5 3.5 0  50.25 3.5 0  51 3.5 0  51.75 3.5 0  52.5 3.5 0  53.25 3.5 0  54 3.5 0  54.75 3.5 0  55.5 3.5 0  56.25 3.5 0  57 3.5 0  57.75 3.5 0  58.5 3.5 0  59.25 3.5 0  60 3.5 0  0 4 0  0.75 4 0  1.5 4 0  2.25 4 0  3 4 0  3.75 4 0  4.5 4 0  5.25 4 0  6 4 0  6.75 4 0  7.5 4 0  8.25 4 0  9 4 0  9.75 4 0  10.5 4 0  11.25 4 0  12 4 0  12.75 4 0  13.5 4 0  14.25 4 0  15 4 0  15.75 4 0  16.5 4 0  17.25 4 0  18 4 0  18.75 4 0  19.5 4 0  20.25 4 0  21 4 0  21.75 4 0  22.5 4 0  23.25 4 0  24 4 0  24.75 4 0  25.5 4 0  26.25 4 0  27 4 0  27.75 4 0  28.5 4 0  29.25 4 0  30 4 0  30.75 4 0  31.5 4 0  32.25 4 0  33 4 0  33.75 4 0  34.5 4 0  35.25 4 0  36 4 0  36.75 4 0  37.5 4 0  38.25 4 0  39 4 0  39.75 4 0  40.5 4 0  41.25 4 0  42 4 0  42.75 4 0  43.5 4 0  44.25 4 0  45 4 0  45.75 4 0  46.5 4 0  47.25 4 0  48 4 0  48.75 4 0  49.5 4 0  50.25 4 0  51 4 0  51.75 4 0  52.5 4 0  53.25 4 0  54 4 0  54.75 4 0  55.5 4 0  56.25 4 0  57 4 0  57.75 4 0  58.5 4 0  59.25 4 0  60 4 0  0.375 0.25 0  1.125 0.25 0  1.875 0.25 0  2.625 0.25 0  3.375 0.25 0  4.125 0.25 0  4.875 0.25 0  5.625 0.25 0  6.375 0.25 0  7.125 0.25 0  7.875 0.25 0  8.625 0.25 0  9.375 0.25 0  10.125 0.25 0  10.875 0.25 0  11.625 0.25 0  12.375 0.25 0  13.125 0.25 0  13.875 0.25 0  14.625 0.25 0  15.375 0.25 0  16.125 0.25 0  16.875 0.25 0  17.625 0.25 0  18.375 0.25 0  19.125 0.25 0  19.875 0.25 0  20.625 0.25 0  21.375 0.25 0  22.125 0.25 0  22.875 0.25 0  23.625 0.25 0  24.375 0.25 0  25.125 0.25 0  25.875 0.25 0  26.625 0.25 0  27.375 0.25 0  28.125 0.25 0  28.875 0.25 0  29.625 0.25 0  30.375 0.25 0  31.125 0.25 0  31.875 0.25 0  32.625 0.25 0  33.375 0.25 0  34.125 0.25 0  34.875 0.25 0  35.625 0.25 0  36.375 0.25 0  37.125 0.25 0  37.875 0.25 0  38.625 0.25 0  39.375 0.25 0  40.125 0.25 0  40.875 0.25 0  41.625 0.25 0  42.375 0.25 0  43.125 0.25 0  43.875 0.25 0  44.625 0.25 0  45.375 0.25 0  46.125 0.25 0  46.875 0.25 0  47.625 0.25 0  48.375 0.25 0  49.125 0.25 0  49.875 0.25 0  50.625 0.25 0  51.375 0.25 0  52.125 0.25 0  52.875 0.25 0  53.625 0.25 0  54.375 0.25 0  55.125 0.25 0  55.875 0.25 0  56.625 0.25 0  57.375 0.25 0  58.125 0.25 0  58.875 0.25 0  59.625 0.25 0  0.375 0.75 0  1.125 0.75 0  1.875 0.75 0  2.625 0.75 0  3.375 0.75 0  4.125 0.75 0  4.875 0.75 0  5.625 0.75 0  6.375 0.75 0  7.125 0.75 0  7.875 0.75 0  8.625 0.75 0  9.375 0.75 0  10.125 0.75 0  10.875 0.75 0  11.625 0.75 0  12.375 0.75 0  13.125 0.75 0  13.875 0.75 0  14.625 0.75 0  15.375 0.75 0  16.125 0.75 0  16.875 0.75 0  17.625 0.75 0  18.375 0.75 0  19.125 0.75 0  19.875 0.75 0  20.625 0.75 0  21.375 0.75 0  22.125 0.75 0  22.875 0.75 0  23.625 0.75 0  24.375 0.75 0  25.125 0.75 0  25.875 0.75 0  26.625 0.75 0  27.375 0.75 0  28.125 0.75 0  28.875 0.75 0  29.625 0.75 0  30.375 0.75 0  31.125 0.75 0  31.875 0.75 0  32.625 0.75 0  33.375 0.75 0  34.125 0.75 0  34.875 0.75 0  35.625 0.75 0  36.375 0.75 0  37.125 0.75 0  37.875 0.75 0  38.625 0.75 0  39.375 0.75 0  40.125 0.75 0  40
[...]
<PointData  Vectors="f_8-0"> 
<DataArray  type="Float64"  Name="f_8-0"  NumberOfComponents="3" format="ascii">0.0000000000000000e+00 0.0000000000000000e+00 0.0000000000000000e+00  0.0000000000000000e+00 0.0000000000000000e+00 0.0000000000000000e+00  0.0000000000000000e+00 0.0000000000000000e+00 0.0000000000000000e+00  0.0000000000000000e+00 0.0000000000000000e+00 0.0000000000000000e+00  0.0000000000000000e+00 0.0000000000000000e+00 0.0000000000000000e+00  0.0000000000000000e+00 0.0000000000000000e+00 0.0000000000000000e+00  0.0000000000000000e+00 0.0000000000000000e+00 0.0000000000000000e+00  0.0000000000000000e+00 0.0000000000000000e+00 0.0000000000000000e+00  0.0000000000000000e+00 0.0000000000000000e+00 0.0000000000000000e+00  0.0000000000000000e+00 0.0000000000000000e+00 0.0000000000000000e+00  0.0000000000000000e+00 0.0000000000000000e+00 0.0000000000000000e+00  0.0000000000000000e+00 0.0000000000000000e+00 0.0000000000000000e+00  0.0000000000000000e+00 0.0000000000000000e+00 0.0000000000000000e+00  0.0000000000000000e+00 0.0000000000000000e+00 0.0000000000000000e+00  0.0000000000000000e+00 0.0000000000000000e+00 0.0000000000000000e+00  0.0000000000000000e+00 0.0000000000000000e+00 0.0000000000000000e+00  0.0000000000000000e+00 0.0000000000000000e+00 0.0000000000000000e+00  0.0000000000000000e+00 0.0000000000000000e+00 0.0000000000000000e+00  0.0000000000000000e+00 0.0000000000000000e+00 0.0000000000000000e+00  0.0000000000000000e+00 0.0000000000000000e+00 0.0000000000000000e+00  0.0000000000000000e+00 0.0000000000000000e+00 0.0000000000000000e+00  0.0000000000000000e+00 0.0000000000000000e+00 0.0000000000000000e+00  0.0000000000000000e+00 0.0000000000000000e+00 0.0000000000000000e+00  0.0000000000000000e+00 0.0000000000000000e+00 0.0000000000000000e+00  0.0000000000000000e+00 0.0000000000000000e+00 0.0000000000000000e+00  0.0000000000000000e+00 0.0000000000000000e+00 0.0000000000000000e+00  0.0000000000000000e+00 0.0000000000000000e+00 0.0000000000000000e+00  0.0000000000000000e+00 0.0000000000000000e+00 0.0000000000000000e+00  0.0000000000000000e+00 0.0000000000000000e+00 0.0000000000000000e+00  0.0000000000000000e+00 0.0000000000000000e+00 0.0000000000000000e+00  0.0000000000000000e+00 0.0000000000000000e+00 0.0000000000000000e+00  0.0000000000000000e+00 0.0000000000000000e+00 0.0000000000000000e+00  0.0000000000000000e+00 0.0000000000000000e+00 0.0000000000000000e+00  0.0000000000000000e+00 0.0000000000000000e+00 0.0000000000000000e+00  0.0000000000000000e+00 0.0000000000000000e+00 0.0000000000000000e+00  0.0000000000000000e+00 0.0000000000000000e+00 0.0000000000000000e+00  0.0000000000000000e+00 0.0000000000000000e+00 0.0000000000000000e+00  0.0000000000000000e+00 0.0000000000000000e+00 0.0000000000000000e+00  0.0000000000000000e+00 0.0000000000000000e+00 0.0000000000000000e+00  0.0000000000000000e+00 0.0000000000000000e+00 0.0000000000000000e+00  0.0000000000000000e+00 0.0000000000000000e+00 0.0000000000000000e+00  0.0000000000000000e+00 0.0000000000000000e+00 0.0000000000000000e+00  0.0000000000000000e+00 0.0000000000000000e+00 0.0000000000000000e+00  0.0000000000000000e+00 0.0000000000000000e+00 0.0000000000000000e+00  0.0000000000000000e+00 0.0000000000000000e+00 0.0000000000000000e+00  0.0000000000000000e+00 0.0000000000000000e+00 0.0000000000000000e+00  0.0000000000000000e+00 0.0000000000000000e+00 0.0000000000000000e+00  0.0000000000000000e+00 0.0000000000000000e+00 0.0000000000000000e+00  0.0000000000000000e+00 0.0000000000000000e+00 0.0000000000000000e+00  0.0000000000000000e+00 0.0000000000000000e+00 0.0000000000000000e+00  0.0000000000000000e+00 0.0000000000000000e+00 0.0000000000000000e+00  0.0000000000000000e+00 0.0000000000000000e+00 0.0000000000000000e+00  0.0000000000000000e+00 0.0000000000000000e+00 0.0000000000000000e+00  0.0000000000000000e+00 0.0000000000000000e+00 0.0000000000000000e+00  0.0000000000000000e+00 0.0000000000000000e+00 0.0000000000000000e+00  0.0000000000000000e+00 0.0000000000000000e+00 0.0000000000000000e+00  0.0000000000000000e+00 0.0000000000000000e+00 0.0000000000000000e+00  0.0000000000000000e+00 0.0000000000000000e+00 0.0000000000000000e+00  0.0000000000000000e+00 0.0000000000000000e+00 0.0000000000000000e+00  0.0000000000000000e+00 0.0000000000000000e+00 0.0000000000000000e+00  0.0000000000000000e+00 0.0000000000000000e+00 0.0000000000000000e+00  0.0000000000000000e+00 0.0000000000000000e+00 0.0000000000000000e+00  0.0000000000000000e+00 0.0000000000000000e+00 0.0000000000000000e+00  0.0000000000000000e+00 0.0000000000000000e+00 0.0000000000000000e+00  0.0000000000000000e+00 0.0000000000000000e+00 0.0000000000000000e+00  0.0000000000000000e+00 0.0000000000000000e+00 0.0000000000000000e+00  0.0000000000000000e+00 0.0000000000000000e+00 0.0000000000000000e+00  0.0000000000000000e+00 0.0000000000000000e+00 0.0000000000000000e+00  0.0000000000000000e+00 0.0000000000000000e+00 0.0000000000000000e+00  0.0000000000000000e+00 0.0000000000000000e+00 0.0000000000000000e+00  0.0000000000000000e+00 0.0000000000000000e+00 0.0000000000000000e+00  0.0000000000000000e+00 0.0000000000000000e+00 0.0000000000000000e+00  0.0000000000000000e+00 0.0000000000000000e+00 0.0000000000000000e+00  0.0000000000000000e+00 0.0000000000000000e+00 0.0000000000000000e+00  0.0000000000000000e+00 0.0000000000000000e+00 0.0000000000000000e+00  0.0000000000000000e+00 0.0000000000000000e+00 0.0000000000000000e+00  0.0000000000000000e+00 0.0000000000000000e+00 0.0000000000000000e+00  0.0000000000000000e+00 0.0000000000000000e+00 0.0000000000000000e+00  0.0000000000000000e+00 0.0000000000000000e+00 0.0000000000000000e+00  0.0000000000000000e+00 0.0000000000000000e+00 0.0000000000000000e+00  0.0000000000000000e+00 0.0000000000000000e+00 0.0000000000000000e+00  1.1656988445207725e+01 0.0000000000000000e+00 0.0000000000000000e+00  1.1649250111121436e+01 2.3622270262653539e-02 0.0000000000000000e+00  1.1641405480886602e+01 3.1618885790578098e-03 0.0000000000000000e+00  1.1645787083313680e+01 3.4983955482621241e-03 0.0000000000000000e+00  1.1644066785299282e+01 2.3829021391134956e-03 0.0000000000000000e+00  1.1644799724091818e+01 2.6203110583561885e-03 0.0000000000000000e+00  1.1644735106521852e+01 2.5648848275376325e-03 0.0000000000000000e+00  1.1644829655836354e+01 2.5876835028276622e-03 0.0000000000000000e+00  1.1644848011618263e+01 2.5901310083820965e-03 0.0000000000000000e+00  1.1644865229595879e+01 2.5939537094542093e-03 0.0000000000000000e+00  1.1644872475474177e+01 2.5955627886532859e-03 0.0000000000000000e+00  1.1644876607322750e+01 2.5965134614686952e-03 0.0000000000000000e+00  1.1644878650407541e+01 2.5969926217162516e-03 0.0000000000000000e+00  1.1644879711389148e+01 2.5972439491185315e-03 0.0000000000000000e+00  1.1644880246145076e+01 2.5973719079371662e-03 0.0000000000000000e+00  1.1644880516633030e+01 2.5974369636354443e-03 0.0000000000000000e+00  1.1644880652151237e+01 2.5974697542585461e-03 0.0000000000000000e+00  1.1644880719893907e+01 2.5974861840225663e-03 0.0000000000000000e+00  1.1644880753560487e+01 2.5974943871689879e-03 0.0000000000000000e+00  1.1644880770357451e+01 2.5974984645206461e-03 0.0000000000000000e+00  1.1644880778642433e+01 2.5975004931073106e-03 0.0000000000000000e+00  1.1644880782770265e+01 2.5975014967482548e-03 0.0000000000000000e+00  1.1644880784807219e+01 2.5975019941437290e-03 0.0000000000000000e+00  1.1644880785838748e+01 2.5975022441842395e-03 0.0000000000000000e+00  1.1644880786327857e+01 2.5975023685181112e-03 0.0000000000000000e+00  1.1644880786577996e+01 2.5975024268212986e-03 0.0000000000000000e+00  1.1644880786683331e+01 2.5975024584093281e-03 0.0000000000000000e+00  1.1644880786747073e+01 2.5975024702999039e-03 0.0000000000000000e+00  1.1644880786785311e+01 2.5975024772858573e-03 0.0000000000000000e+00  1.1644880786782894e+01 2.5975024815484281e-03 0.0000000000000000e+00  1.1644880786840375e+01 2.5975024859866405e-03 0.0000000000000000e+00  1.1644880786825128e+01 2.5975024843312572e-03 0.0000000000000000e+00  1.1644880786800133e+01 2.5975024854256725e-03 0.0000000000000000e+00  1.1644880786807160e+01 2.5975024833956501e-03 0.0000000000000000e+00  1.1644880786826443e+01 2.5975024866605420e-03 0.0000000000000000e+00  1.1644880786818433e+01 2.5975024844619170e-03 0.0000000000000000e+00  1.1644880786832548e+01 2.5975024885136182e-03 0.0000000000000000e+00  1.1644880786859279e+01 2.5975024901765975e-03 0.0000000000000000e+00  1.1644880786809587e+01 2.5975024902335831e-03 0.0000000000000000e+00  1.1644880786840105e+01 2.5975024839516945e-03 0.0000000000000000e+00  1.1644880786858137e+01 2.5975024842905398e-03 0.0000000000000000e+00  1.1644880786809052e+01 2.5975024866477067e-03 0.0000000000000000e+00  1.1644880786839915e+01 2.5975024733991521e-03 0.0000000000000000e+00  1.1644880786811553e+01 2.5975024892807056e-03 0.0000000000000000e+00  1.1644880786927086e+01 2.5975024342952623e-03 0.0000000000000000e+00  1.1644880786905482e+01 2.5975025054033930e-03 0.0000000000000000e+00  1.1644880787129891e+01 2.5975023117964838e-03 0.0000000000000000e+00  1.1644880787337753e+01 2.5975024855528937e-03 0.0000000000000000e+00  1.1644880787942901e+01 2.5975019155154446e-03 0.0000000000000000e+00  1.1644880789182320e+01 2.5975022246303298e-03 0.0000000000000000e+00  1.1644880791231373e+01 2.5975005831335362e-03 0.0000000000000000e+00  1.1644880796655391e+01 2.5975006945119618e-03 0.0000000000000000e+00  1.1644880804889334e+01 2.5974958601060159e-03 0.0000000000000000e+00  1.1644880826530130e+01 2.5974935500042528e-03 0.0000000000000000e+00  1.1644880860855315e+01 2.5974784205221504e-03 0.0000000000000000e+00  1.1644880944469934e+01 2.5974633387724345e-03 0.0000000000000000e+00  1.1644881085179181e+01 2.5974127031763625e-03 0.0000000000000000e+00  1.1644881403019497e+01 2.5973434792991106e-03 0.0000000000000000e+00  1.1644881962262886e+01 2.5971669804499458e-03 0.0000000000000000e+00  1.1644883166606535e+01 2.5968780814027859e-03 0.0000000000000000e+00  1.1644885437897207e+01 2.5961730647964813e-03 0.0000000000000000e+00  1.1644890570309268e+01 2.5946455182112730e-03 0.0000000000000000e+00  1.1644902108453170e+01 2.5904459874799132e-03 0.0000000000000000e+00  1.1644931572450924e+01 2.5795419530871455e-03 0.0000000000000000e+00  1.1645005295295761e+01 2.5514540086153115e-03 0.0000000000000000e+00  1.1645186497952473e+01 2.4878724663861401e-03 0.0000000000000000e+00  1.1645590244425534e+01 2.3618531769606008e-03 0.0000000000000000e+00  1.1646397733131913e+01 2.1584247034538272e-03 0.0000000000000000e+00  1.1647780138569185e+01 1.9078991709007920e-03 0.0000000000000000e+00  1.1649758400109768e+01 1.7229791519701426e-03 0.0000000000000000e+00  1.1651998639500166e+01 1.7292820105904371e-03 0.0000000000000000e+00  1.1653979020606704e+01 1.9424998255224192e-03 0.0000000000000000e+00  1.1655282455406091e+01 2.3012492465405202e-03 0.0000000000000000e+00  1.1655574985990516e+01 2.9207383536734334e-03 0.0000000000000000e+00  1.1654048943999767e+01 3.9173141215238664e-03 0.0000000000000000e+00  1.1649954084384884e+01 5.2400084154874335e-03 0.0000000000000000e+00  1.1642544636623603e+01 6.6553000231229457e-03 0.0000000000000000e+00  1.1631945001153744e+01 7.2640014337690415e-03 0.0000000000000000e+00  1.1619391255534175e+01 6.3890577483612923e-03 0.0000000000000000e+00  1.1597450917950317e+01 -5.2532978484440352e-03 0.0000000000000000e+00  1.1549768479259251e+01 0.0000000000000000e+00 0.0000000000000000e+00  5.9143275847222281e+00 0.0000000000000000e+00 0.0000000000000000e+00  5.8989600841339271e+00 -8.4969654074170033e-03 0.0000000000000000e+00  5.9135243098771957e+00 1.4735825220992085e-03 0.0000000000000000e+00  5.9127363264065282e+00 -2.5540157022687633e-03 0.0000000000000000e+00  5.9135480464584242e+00 -1.5785699141565319e-03 0.0000000000000000e+00  5.9135428882339607e+00 -1.7504582054630028e-03 0.0000000000000000e+00  5.9136200869142250e+00 -1.6367155075213103e-03 0.0000000000000000e+00  5.9136377659805115e+00 -1.6193458077243563e-03 0.0000000000000000e+00  5.9136504676986670e+00 -1.5996255059985344e-03 0.0000000000000000e+00  5.9136559054244628e+00 -1.5914884181814869e-03 0.0000000000000000e+00  5.9136588633703449e+00 -1.5867552757712010e-03 0.0000000000000000e+00  5.9136603380693229e+00 -1.5843871345566265e-03 0.0000000000000000e+00  5.9136611028038732e+00 -1.5831397396212071e-03 0.0000000000000000e+00  5.9136614926422064e+00 -1.5824997129942620e-03 0.0000000000000000e+00  5.9136616915839477e+00 -1.5821712620558029e-03 0.0000000000000000e+00  5.9136617921698136e+00 -1.5820040540766166e-03 0.0000000000000000e+00  5.9136618429117531e+00 -1.5819195576169819e-03 0.0000000000000000e+00  5.9136618682826025e+00 -1.5818770966184595e-03 0.0000000000000000e+00  5.9136618808123327e+00 -1.5818560488467732e-03 0.0000000000000000e+00  5.9136618871637880e+00 -1.5818453327100168e-03 0.0000000000000000e+00  5.9136618902236116e+00 -1.5818401794787551e-03 0.0000000000000000e+00  5.9136618918319881e+00 -1.5818375249464106e-03 0.0000000000000000e+00  5.9136618925896887e+00 -1.5818362622421055e-03 0.0000000000000000e+00  5.9136618930156386e+00 -1.5818355780077731e-03 0.0000000000000000e+00  5.9136618931620681e+00 -1.5818352779422241e-03 0.0000000000000000e+00  5.9136618932295573e+00 -1.5818351532145480e-03 0.0000000000000000e+00  5.9136618932648153e+00 -1.5818350964168482e-03 0.0000000000000000e+00  5.9136618933029546e+00 -1.5818350196035529e-03 0.0000000000000000e+00  5.9136618933178298e+00 -1.5818349902512368e-03 0.0000000000000000e+00  5.9136618933036509e+00 -1.5818350301702192e-03 0.0000000000000000e+00  5.9136618934575758e+00 -1.5818348778420324e-03 0.0000000000000000e+00  5.9136618933081184e+00 -1.5818350524852396e-03 0.0000000000000000e+00  5.9136618932797038e+00 -1.5818350532389250e-03 0.0000000000000000e+00  5.9136618932861813e+00 -1.5818350055096142e-03 0.0000000000000000e+00  5.9136618933139085e+00 -1.5818349801319429e-03 0.0000000000000000e+00  5.9136618933264460e+00 -1.5818349750726126e-03 0.0000000000000000e+00  5.9136618933349379e+00 -1.5818349328226193e-03 0.0000000000000000e+00  5.9136618934899943e+00 -1.5818347950055330e-03 0.0000000000000000e+00  5.9136618932568288e+00 -1.5818350623055021e-03 0.0000000000000000e+00  5.9136618934549281e+00 -1.5818349060573755e-03 0.0000000000000000e+00  5.9136618933178218e+00 -1.5818349839182390e-03 0.0000000000000000e+00  5.9136618934284435e+00 -1.5818349491627318e-03 0.0000000000000000e+00  5.9136618932293805e+00 -1.5818350247080379e-03 0.0000000000000000e+00  5.9136618934430505e+00 -1.5818350004099665e-03 0.0000000000000000e+00  5.9136618933369416e+00 -1.5818349842428234e-03 0.0000000000000000e+00  5.9136618935434040e+00 -1.5818350841706296e-03 0.0000000000000000e+00  5.9136618935266831e+00 -1.5818352150222426e-03 0.0000000000000000e+00  5.9136618939099899e+00 -1.5818354985825650e-03 0.0000000000000000e+00  5.9136618947680590e+00 -1.5818357322936443e-03 0.0000000000000000e+00  5.9136618956109821e+00 -1.5818370213856584e-03 0.0000000000000000e+00  5.9136618994010846e+00 -1.5818385199828551e-03 0.0000000000000000e+00  5.9136619023974086e+00 -1.5818434046017084e-03 0.0000000000000000e+00  5.9136619173612335e+00 -1.5818499771537325e-03 0.0000000000000000e+00  5.9136619316011192e+00 -1.5818681644781416e-03 0.0000000000000000e+00  5.9136619861429249e+00 -1.5818962738193912e-03 0.0000000000000000e+00  5.9136620513519755e+00 -1.5819641239139732e-03 0.0000000000000000e+00  5.9136622481508105e+00 -1.5820788007833741e-03 0.0000000000000000e+00  5.9136625286188345e+00 -1.5823312478360279e-03 0.0000000000000000e+00  5.9136632570805476e+00 -1.5827853122280299e-03 0.0000000000000000e+00  5.9136644865889822e+00 -1.5837718606524520e-03 0.0000000000000000e+00  5.9136675732093158e+00 -1.5858296076141235e-03 0.0000000000000000e+00  5.9136740435629473e+00 -1.5909568729855173e-03 0.0000000000000000e+00  5.9136908492277653e+00 -1.6040110028030820e-03 0.0000000000000000e+00  5.9137305838572134e+00 -1.6383837671600982e-03 0.0000000000000000e+00  5.9138274460202256e+00 -1.7221923071050634e-03 0.0000000000000000e+00  5.9140387606960294e+00 -1.9077905624109892e-03 0.0000000000000000e+00  5.9144681275491786e+00 -2.2605467776175342e-03 0.0000000000000000e+00  5.9152191107412460e+00 -2.8120883369331102e-03 0.0000000000000000e+00  5.9163404475378956e+00 -3.4416988343804584e-03 0.0000000000000000e+00  5.9176313769561864e+00 -3.8218138602269689e-03 0.0000000000000000e+00  5.9187465820806970e+00 -3.6561307828945752e-03 0.0000000000000000e+00  5.9194590814053072e+00 -3.1181458584813872e-03 0.0000000000000000e+00  5.9199735072456328e+00 -2.3517958133679796e-03 0.0000000000000000e+00  5.9201834815450773e+00 -1.0018175497476464e-03 0.0000000000000000e+00  5.9201478328743322e+00 1.0710994549558118e-03 0.0000000000000000e+00  5.9197378190429291e+00 3.7967934949732930e-03 0.0000000000000000e+00  5.9191510678252381e+00 6.8027991006539817e-03 0.0000000000000000e+00  5.9176002572304958e+00 9.2791204252572080e-03 0.0000000000000000e+00  5.9150191869860143e+00 9.3034048931888505e-03 0.0000000000000000e+00  5.9116741174693157e+00 1.2256087984114542e-02 0.0000000000000000e+00  5.8964692298180852e+00 0.0000000000000000e+00 0.0000000000000000e+00  2.4649457219500350e+00 0.0000000000000000e+00 0.0000000000000000e+00  2.4616201220085703e+00 -3.6425031115036349e-04 0.0000000000000000e+00  2.4618071135218962e+00 -4.1487451346267732e-08 0.0000000000000000e+00  2.4618699214585704e+00 1.7239107683256029e-04 0.0000000000000000e+00  2.4616807481194316e+00 1.5309088021712308e-04 0.0000000000000000e+00  2.4615427062898281e+00 2.5161947462681080e-04 0.0000000000000000e+00  2.4614595122713316e+00 2.9061310972625977e-04 0.0000000000000000e+00  2.4614144925564672e+00 3.1793512026824305e-04 0.0000000000000000e+00  2.4613907285386780e+00 3.3094407707509599e-04 0.0000000000000000e+00  2.4613783009333186e+00 3.3804753207549912e-04 0.0000000000000000e+00  2.4613718447771631e+00 3.4166682026605247e-04 0.0000000000000000e+00  2.4613685036527180e+00 3.4356540439406342e-04 0.0000000000000000e+00  2.4613667849828427e+00 3.4454415376106959e-04 0.0000000000000000e+00  2.4613659063482354e+00 3.4505031283623794e-04 0.0000000000000000e+00  2.4613654601436346e+00 3.4530898684131294e-04 0.0000000000000000e+00  2.4613652349314248e+00 3.4544111315102185e-04 0.0000000000000000e+00  2.4613651218664283e+00 3.4550765230203427e-04 0.0000000000000000e+00  2.4613650653520245e+00 3.4554129349314102e-04 0.0000000000000000e+00  2.4613650372112819e+00 3.4555800137338420e-04 0.0000000000000000e+00  2.4613650232267430e+00 3.4556639923234239e-04 0.0000000000000000e+00  2.4613650162890481e+00 3.4557051786360802e-04 0.0000000000000000e+00  2.4613650128504534e+00 3.4557259375610032e-04 0.0000000000000000e+00  2.4613650111488097e+00 3.4557361090152940e-04 0.0000000000000000e+00  2.4613650103029392e+00 3.4557412213011025e-04 0.0000000000000000e+00  2.4613650098812991e+00 3.4557436663803652e-04 0.0000000000000000e+00  2.4613650096748945e+00 3.4557449826273134e-04 0.0000000000000000e+00  2.4613650095695045e+00 3.4557455431556342e-04 0.0000000000000000e+00  2.4613650095199398e+00 3.4557458042708435e-04 0.0000000000000000e+00  2.4613650094929675e+00 3.4557460121512008e-04 0.0000000000000000e+00  2.4613650094810060e+00 3.4557460778067276e-04 0.0000000000000000e+00  2.4613650094802155e+00 3.4557461603177336e-04 0.0000000000000000e+00  2.4613650094732975e+00 3.4557461540194747e-04 0.0000000000000000e+00  2.4613650094737149e+00 3.4557461671350830e-04 0.0000000000000000e+00  2.4613650094673916e+00 3.4557460957486072e-04 0.0000000000000000e+00  2.4613650094743331e+00 3.4557461766836591e-04 0.0000000000000000e+00  2.4613650094546555e+00 3.4557461334663495e-04 0.0000000000000000e+00  2.4613650094771735e+00 3.4557461868817824e-04 0.0000000000000000e+00  2.4613650094514439e+00 3.4557461070274068e-04 0.0000000000000000e+00  2.4613650094843553e+00 3.4557462835253832e-04 0.0000000000000000e+00  2.4613650094377220e+00 3.4557460443186580e-04 0.0000000000000000e+00  2.461