<?xml version="1.0"?>
<VTKFile type="UnstructuredGrid"  version="0.1"  >
<UnstructuredGrid>
<Piece  NumberOfPoints="1369" NumberOfCells="2560">
<Points>
<DataArray  type="Float64"  NumberOfComponents="3"  format="ascii">0 0 0  0.75 0 0  1.5 0 0  2.25 0 0  3 0 0  3.75 0 0  4.5 0 0  5.25 0 0  6 0 0  6.75 0 0  7.5 0 0  8.25 0 0  9 0 0  9.75 0 0  10.5 0 0  11.25 0 0  12 0 0  12.75 0 0  13.5 0 0  14.25 0 0  15 0 0  15.75 0 0  16.5 0 0  17.25 0 0  18 0 0  18.75 0 0  19.5 0 0  20.25 0 0  21 0 0  21.75 0 0  22.5 0 0  23.25 0 0  24 0 0  24.75 0 0  25.5 0 0  26.25 0 0  27 0 0  27.75 0 0  28.5 0 0  29.25 0 0  30 0 0  30.75 0 0  31.5 0 0  32.25 0 0  33 0 0  33.75 0 0  34.5 0 0  35.25 0 0  36 0 0  36.75 0 0  37.5 0 0  38.25 0 0  39 0 0  39.75 0 0  40.5 0 0  41.25 0 0  42 0 0  42.75 0 0  43.5 0 0  44.25 0 0  45 0 0  45.75 0 0  46.5 0 0  47.25 0 0  48 0 0  48.75 0 0  49.5 0 0  50.25 0 0  51 0 0  51.75 0 0  52.5 0 0  53.25 0 0  54 0 0  54.75 0 0  55.5 0 0  56.25 0 0  57 0 0  57.75 0 0  58.5 0 0  59.25 0 0  60 0 0  0 0.5 0  0.75 0.5 0  1.5 0.5 0  2.25 0.5 0  3 0.5 0  3.75 0.5 0  4.5 0.5 0  5.25 0.5 0  6 0.5 0  6.75 0.5 0  7.5 0.5 0  8.25 0.5 0  9 0.5 0  9.75 0.5 0  10.5 0.5 0  11.25 0.5 0  12 0.5 0  12.75 0.5 0  13.5 0.5 0  14.25 0.5 0  15 0.5 0  15.75 0.5 0  16.5 0.5 0  17.25 0.5 0  18 0.5 0  18.75 0.5 0  19.5 0.5 0  20.25 0.5 0  21 0.5 0  21.75 0.5 0  22.5 0.5 0  23.25 0.5 0  24 0.5 0  24.75 0.5 0  25.5 0.5 0  26.25 0.5 0  27 0.5 0  27.75 0.5 0  28.5 0.5 0  29.25 0.5 0  30 0.5 0  30.75 0.5 0  31.5 0.5 0  32.25 0.5 0  33 0.5 0  33.75 0.5 0  34.5 0.5 0  35.25 0.5 0  36 0.5 0  36.75 0.5 0  37.5 0.5 0  38.25 0.5 0  39 0.5 0  39.75 0.5 0  40.5 0.5 0  41.25 0.5 0  42 0.5 0  42.75 0.5 0  43.5 0.5 0  44.25 0.5 0  45 0.5 0  45.75 0.5 0  46.5 0.5 0  47.25 0.5 0  48 0.5 0  48.75 0.5 0  49.5 0.5 0  50.25 0.5 0  51 0.5 0  51.75 0.5 0  52.5 0.5 0  53.25 0.5 0  54 0.5 0  54.75 0.5 0  55.5 0.5 0  56.25 0.5 0  57 0.5 0  57.75 0.5 0  58.5 0.5 0  59.25 0.5 0  60 0.5 0  0 1 0  0.75 1 0  1.5 1 0  2.25 1 0  3 1 0  3.75 1 0  4.5 1 0  5.25 1 0  6 1 0  6.75 1 0  7.5 1 0  8.25 1 0  9 1 0  9.75 1 0  10.5 1 0  11.25 1 0  12 1 0  12.75 1 0  13.5 1 0  14.25 1 0  15 1 0  15.75 1 0  16.5 1 0  17.25 1 0  18 1 0  18.75 1 0  19.5 1 0  20.25 1 0  21 1 0  21.75 1 0  22.5 1 0  23.25 1 0  24 1 0  24.75 1 0  25.5 1 0  26.25 1 0  27 1 0  27.75 1 0  28.5 1 0  29.25 1 0  30 1 0  30.75 1 0  31.5 1 0  32.25 1 0  33 1 0  33.75 1 0  34.5 1 0  35.25 1 0  36 1 0  36.75 1 0  37.5 1 0  38.25 1 0  39 1 0  39.75 1 0  40.5 1 0  41.25 1 0  42 1 0  42.75 1 0  43.5 1 0  44.25 1 0  45 1 0  45.75 1 0  46.5 1 0  47.25 1 0  48 1 0  48.75 1 0  49.5 1 0  50.25 1 0  51 1 0  51.75 1 0  52.5 1 0  53.25 1 0  54 1 0  54.75 1 0  55.5 1 0  56.25 1 0  57 1 0  57.75 1 0  58.5 1 0  59.25 1 0  60 1 0  0 1.5 0  0.75 1.5 0  1.5 1.5 0  2.25 1.5 0  3 1.5 0  3.75 1.5 0  4.5 1.5 0  5.25 1.5 0  6 1.5 0  6.75 1.5 0  7.5 1.5 0  8.25 1.5 0  9 1.5 0  9.75 1.5 0  10.5 1.5 0  11.25 1.5 0  12 1.5 0  12.75 1.5 0  13.5 1.5 0  14.25 1.5 0  15 1.5 0  15.75 1.5 0  16.5 1.5 0  17.25 1.5 0  18 1.5 0  18.75 1.5 0  19.5 1.5 0  20.25 1.5 0  21 1.5 0  21.75 1.5 0  22.5 1.5 0  23.25 1.5 0  24 1.5 0  24.75 1.5 0  25.5 1.5 0  26.25 1.5 0  27 1.5 0  27.75 1.5 0  28.5 1.5 0  29.25 1.5 0  30 1.5 0  30.75 1.5 0  31.5 1.5 0  32.25 1.5 0  33 1.5 0  33.75 1.5 0  34.5 1.5 0  35.25 1.5 0  36 1.5 0  36.75 1.5 0  37.5 1.5 0  38.25 1.5 0  39 1.5 0  39.75 1.5 0  40.5 1.5 0  41.25 1.5 0  42 1.5 0  42.75 1.5 0  43.5 1.5 0  44.25 1.5 0  45 1.5 0  45.75 1.5 0  46.5 1.5 0  47.25 1.5 0  48 1.5 0  48.75 1.5 0  49.5 1.5 0  50.25 1.5 0  51 1.5 0  51.75 1.5 0  52.5 1.5 0  53.25 1.5 0  54 1.5 0  54.75 1.5 0  55.5 1.5 0  56.25 1.5 0  57 1.5 0  57.75 1.5 0  58.5 1.5 0  59.25 1.5 0  60 1.5 0  0 2 0  0.75 2 0  1.5 2 0  2.25 2 0  3 2 0  3.75 2 0  4.5 2 0  5.25 2 0  6 2 0  6.75 2 0  7.5 2 0  8.25 2 0  9 2 0  9.75 2 0  10.5 2 0  11.25 2 0  12 2 0  12.75 2 0  13.5 2 0  14.25 2 0  15 2 0  15.75 2 0  16.5 2 0  17.25 2 0  18 2 0  18.75 2 0  19.5 2 0  20.25 2 0  21 2 0  21.75 2 0  22.5 2 0  23.25 2 0  24 2 0  24.75 2 0  25.5 2 0  26.25 2 0  27 2 0  27.75 2 0  28.5 2 0  29.25 2 0  30 2 0  30.75 2 0  31.5 2 0  32.25 2 0  33 2 0  33.75 2 0  34.5 2 0  35.25 2 0  36 2 0  36.75 2 0  37.5 2 0  38.25 2 0  39 2 0  39.75 2 0  40.5 2 0  41.25 2 0  42 2 0  42.75 2 0  43.5 2 0  44.25 2 0  45 2 0  45.75 2 0  46.5 2 0  47.25 2 0  48 2 0  48.75 2 0  49.5 2 0  50.25 2 0  51 2 0  51.75 2 0  52.5 2 0  53.25 2 0  54 2 0  54.75 2 0  55.5 2 0  56.25 2 0  57 2 0  57.75 2 0  58.5 2 0  59.25 2 0  60 2 0  0 2.5 0  0.75 2.5 0  1.5 2.5 0  2.25 2.5 0  3 2.5 0  3.75 2.5 0  4.5 2.5 0  5.25 2.5 0  6 2.5 0  6.75 2.5 0  7.5 2.5 0  8.25 2.5 0  9 2.5 0  9.75 2.5 0  10.5 2.5 0  11.25 2.5 0  12 2.5 0  12.75 2.5 0  13.5 2.5 0  14.25 2.5 0  15 2.5 0  15.75 2.5 0  16.5 2.5 0  17.25 2.5 0  18 2.5 0  18.75 2.5 0  19.5 2.5 0  20.25 2.5 0  21 2.5 0  21.75 2.5 0  22.5 2.5 0  23.25 2.5 0  24 2.5 0  24.75 2.5 0  25.5 2.5 0  26.25 2.5 0  27 2.5 0  27.75 2.5 0  28.5 2.5 0  29.25 2.5 0  30 2.5 0  30.75 2.5 0  31.5 2.5 0  32.25 2.5 0  33 2.5 0  33.75 2.5 0  34.5 2.5 0  35.25 2.5 0  36 2.5 0  36.75 2.5 0  37.5 2.5 0  38.25 2.5 0  39 2.5 0  39.75 2.5 0  40.5 2.5 0  41.25 2.5 0  42 2.5 0  42.75 2.5 0  43.5 2.5 0  44.25 2.5 0  45 2.5 0  45.75 2.5 0  46.5 2.5 0  47.25 2.5 0  48 2.5 0  48.75 2.5 0  49.5 2.5 0  50.25 2.5 0  51 2.5 0  51.75 2.5 0  52.5 2.5 0  53.25 2.5 0  54 2.5 0  54.75 2.5 0  55.5 2.5 0  56.25 2.5 0  57 2.5 0  57.75 2.5 0  58.5 2.5 0  59.25 2.5 0  60 2.5 0  0 3 0  0.75 3 0  1.5 3 0  2.25 3 0  3 3 0  3.75 3 0  4.5 3 0  5.25 3 0  6 3 0  6.75 3 0  7.5 3 0  8.25 3 0  9 3 0  9.75 3 0  10.5 3 0  11.25 3 0  12 3 0  12.75 3 0  13.5 3 0  14.25 3 0  15 3 0  15.75 3 0  16.5 3 0  17.25 3 0  18 3 0  18.75 3 0  19.5 3 0  20.25 3 0  21 3 0  21.75 3 0  22.5 3 0  23.25 3 0  24 3 0  24.75 3 0  25.5 3 0  26.25 3 0  27 3 0  27.75 3 0  28.5 3 0  29.25 3 0  30 3 0  30.75 3 0  31.5 3 0  32.25 3 0  33 3 0  33.75 3 0  34.5 3 0  35.25 3 0  36 3 0  36.75 3 0  37.5 3 0  38.25 3 0  39 3 0  39.75 3 0  40.5 3 0  41.25 3 0  42 3 0  42.75 3 0  43.5 3 0  44.25 3 0  45 3 0  45.75 3 0  46.5 3 0  47.25 3 0  48 3 0  48.75 3 0  49.5 3 0  50.25 3 0  51 3 0  51.75 3 0  52.5 3 0  53.25 3 0  54 3 0  54.75 3 0  55.5 3 0  56.25 3 0  57 3 0  57.75 3 0  58.5 3 0  59.25 3 0  60 3 0  0 3.5 0  0.75 3.5 0  1.5 3.5 0  2.25 3.5 0  3 3.5 0  3.75 3.5 0  4.5 3.5 0  5.25 3.5 0  6 3.5 0  6.75 3.5 0  7.5 3.5 0  8.25 3.5 0  9 3.5 0  9.75 3.5 0  10.5 3.5 0  11.25 3.5 0  12 3.5 0  12.75 3.5 0  13.5 3.5 0  14.25 3.5 0  15 3.5 0  15.75 3.5 0  16.5 3.5 0  17.25 3.5 0  18 3.5 0  18.75 3.5 0  19.5 3.5 0  20.25 3.5 0  21 3.5 0  21.75 3.5 0  22.5 3.5 0  23.25 3.5 0  24 3.5 0  24.75 3.5 0  25.5 3.5 0  26.25 3.5 0  27 3.5 0  27.75 3.5 0  28.5 3.5 0  29.25 3.5 0  30 3.5 0  30.75 3.5 0  31.5 3.5 0  32.25 3.5 0  33 3.5 0  33.75 3.5 0  34.5 3.5 0  35.25 3.5 0  36 3.5 0  36.75 3.5 0  37.5 3.5 0  38.25 3.5 0  39 3.5 0  39.75 3.5 0  40.5 3.5 0  41.25 3.5 0  42 3.5 0  42.75 3.5 0  43.5 3.5 0  44.25 3.5 0  45 3.5 0  45.75 3.5 0  46.5 3.5 0  47.25 3.5 0  48 3.5 0  48.75 3.5 0  49.5 3.5 0  50.25 3.5 0  51 3.5 0  51.75 3.5 0  52.5 3.5 0  53.25 3.5 0  54 3.5 0  54.75 3.5 0  55.5 3.5 0  56.25 3.5 0  57 3.5 0  57.75 3.5 0  58.5 3.5 0  59.25 3.5 0  60 3.5 0  0 4 0  0.75 4 0  1.5 4 0  2.25 4 0  3 4 0  3.75 4 0  4.5 4 0  5.25 4 0  6 4 0  6.75 4 0  7.5 4 0  8.25 4 0  9 4 0  9.75 4 0  10.5 4 0  11.25 4 0  12 4 0  12.75 4 0  13.5 4 0  14.25 4 0  15 4 0  15.75 4 0  16.5 4 0  17.25 4 0  18 4 0  18.75 4 0  19.5 4 0  20.25 4 0  21 4 0  21.75 4 0  22.5 4 0  23.25 4 0  24 4 0  24.75 4 0  25.5 4 0  26.25 4 0  27 4 0  27.75 4 0  28.5 4 0  29.25 4 0  30 4 0  30.75 4 0  31.5 4 0  32.25 4 0  33 4 0  33.75 4 0  34.5 4 0  35.25 4 0  36 4 0  36.75 4 0  37.5 4 0  38.25 4 0  39 4 0  39.75 4 0  40.5 4 0  41.25 4 0  42 4 0  42.75 4 0  43.5 4 0  44.25 4 0  45 4 0  45.75 4 0  46.5 4 0  47.25 4 0  48 4 0  48.75 4 0  49.5 4 0  50.25 4 0  51 4 0  51.75 4 0  52.5 4 0  53.25 4 0  54 4 0  54.75 4 0  55.5 4 0  56.25 4 0  57 4 0  57.75 4 0  58.5 4 0  59.25 4 0  60 4 0  0.375 0.25 0  1.125 0.25 0  1.875 0.25 0  2.625 0.25 0  3.375 0.25 0  4.125 0.25 0  4.875 0.25 0  5.625 0.25 0  6.375 0.25 0  7.125 0.25 0  7.875 0.25 0  8.625 0.25 0  9.375 0.25 0  10.125 0.25 0  10.875 0.25 0  11.625 0.25 0  12.375 0.25 0  13.125 0.25 0  13.875 0.25 0  14.625 0.25 0  15.375 0.25 0  16.125 0.25 0  16.875 0.25 0  17.625 0.25 0  18.375 0.25 0  19.125 0.25 0  19.875 0.25 0  20.625 0.25 0  21.375 0.25 0  22.125 0.25 0  22.875 0.25 0  23.625 0.25 0  24.375 0.25 0  25.125 0.25 0  25.875 0.25 0  26.625 0.25 0  27.375 0.25 0  28.125 0.25 0  28.875 0.25 0  29.625 0.25 0  30.375 0.25 0  31.125 0.25 0  31.875 0.25 0  32.625 0.25 0  33.375 0.25 0  34.125 0.25 0  34.875 0.25 0  35.625 0.25 0  36.375 0.25 0  37.125 0.25 0  37.875 0.25 0  38.625 0.25 0  39.375 0.25 0  40.125 0.25 0  40.875 0.25 0  41.625 0.25 0  42.375 0.25 0  43.125 0.25 0  43.875 0.25 0  44.625 0.25 0  45.375 0.25 0  46.125 0.25 0  46.875 0.25 0  47.625 0.25 0  48.375 0.25 0  49.125 0.25 0  49.875 0.25 0  50.625 0.25 0  51.375 0.25 0  52.125 0.25 0  52.875 0.25 0  53.625 0.25 0  54.375 0.25 0  55.125 0.25 0  55.875 0.25 0  56.625 0.25 0  57.375 0.25 0  58.125 0.25 0  58.875 0.25 0  59.625 0.25 0  0.375 0.75 0  1.125 0.75 0  1.875 0.75 0  2.625 0.75 0  3.375 0.75 0  4.125 0.75 0  4.875 0.75 0  5.625 0.75 0  6.375 0.75 0  7.125 0.75 0  7.875 0.75 0  8.625 0.75 0  9.375 0.75 0  10.125 0.75 0  10.875 0.75 0  11.625 0.75 0  12.375 0.75 0  13.125 0.75 0  13.875 0.75 0  14.625 0.75 0  15.375 0.75 0  16.125 0.75 0  16.875 0.75 0  17.625 0.75 0  18.375 0.75 0  19.125 0.75 0  19.875 0.75 0  20.625 0.75 0  21.375 0.75 0  22.125 0.75 0  22.875 0.75 0  23.625 0.75 0  24.375 0.75 0  25.125 0.75 0  25.875 0.75 0  26.625 0.75 0  27.375 0.75 0  28.125 0.75 0  28.875 0.75 0  29.625 0.75 0  30.375 0.75 0  31.125 0.75 0  31.875 0.75 0  32.625 0.75 0  33.375 0.75 0  34.125 0.75 0  34.875 0.75 0  35.625 0.75 0  36.375 0.75 0  37.125 0.75 0  37.875 0.75 0  38.625 0.75 0  39.375 0.75 0  40.125 0.75 0  40
[...]
<PointData  Vectors="f_8-0"> 
<DataArray  type="Float64"  Name="f_8-0"  NumberOfComponents="3" format="ascii">0.0000000000000000e+00 0.0000000000000000e+00 0.0000000000000000e+00  0.0000000000000000e+00 0.0000000000000000e+00 0.0000000000000000e+00  0.0000000000000000e+00 0.0000000000000000e+00 0.0000000000000000e+00  0.0000000000000000e+00 0.0000000000000000e+00 0.0000000000000000e+00  0.0000000000000000e+00 0.0000000000000000e+00 0.0000000000000000e+00  0.0000000000000000e+00 0.0000000000000000e+00 0.0000000000000000e+00  0.0000000000000000e+00 0.0000000000000000e+00 0.0000000000000000e+00  0.0000000000000000e+00 0.0000000000000000e+00 0.0000000000000000e+00  0.0000000000000000e+00 0.0000000000000000e+00 0.0000000000000000e+00  0.0000000000000000e+00 0.0000000000000000e+00 0.0000000000000000e+00  0.0000000000000000e+00 0.0000000000000000e+00 0.0000000000000000e+00  0.0000000000000000e+00 0.0000000000000000e+00 0.0000000000000000e+00  0.0000000000000000e+00 0.0000000000000000e+00 0.0000000000000000e+00  0.0000000000000000e+00 0.0000000000000000e+00 0.0000000000000000e+00  0.0000000000000000e+00 0.0000000000000000e+00 0.0000000000000000e+00  0.0000000000000000e+00 0.0000000000000000e+00 0.0000000000000000e+00  0.0000000000000000e+00 0.0000000000000000e+00 0.0000000000000000e+00  0.0000000000000000e+00 0.0000000000000000e+00 0.0000000000000000e+00  0.0000000000000000e+00 0.0000000000000000e+00 0.0000000000000000e+00  0.0000000000000000e+00 0.0000000000000000e+00 0.0000000000000000e+00  0.0000000000000000e+00 0.0000000000000000e+00 0.0000000000000000e+00  0.0000000000000000e+00 0.0000000000000000e+00 0.0000000000000000e+00  0.0000000000000000e+00 0.0000000000000000e+00 0.0000000000000000e+00  0.0000000000000000e+00 0.0000000000000000e+00 0.0000000000000000e+00  0.0000000000000000e+00 0.0000000000000000e+00 0.0000000000000000e+00  0.0000000000000000e+00 0.0000000000000000e+00 0.0000000000000000e+00  0.0000000000000000e+00 0.0000000000000000e+00 0.0000000000000000e+00  0.0000000000000000e+00 0.0000000000000000e+00 0.0000000000000000e+00  0.0000000000000000e+00 0.0000000000000000e+00 0.0000000000000000e+00  0.0000000000000000e+00 0.0000000000000000e+00 0.0000000000000000e+00  0.0000000000000000e+00 0.0000000000000000e+00 0.0000000000000000e+00  0.0000000000000000e+00 0.0000000000000000e+00 0.0000000000000000e+00  0.0000000000000000e+00 0.0000000000000000e+00 0.0000000000000000e+00  0.0000000000000000e+00 0.0000000000000000e+00 0.0000000000000000e+00  0.0000000000000000e+00 0.0000000000000000e+00 0.0000000000000000e+00  0.0000000000000000e+00 0.0000000000000000e+00 0.0000000000000000e+00  0.0000000000000000e+00 0.0000000000000000e+00 0.0000000000000000e+00  0.0000000000000000e+00 0.0000000000000000e+00 0.0000000000000000e+00  0.0000000000000000e+00 0.0000000000000000e+00 0.0000000000000000e+00  0.0000000000000000e+00 0.0000000000000000e+00 0.0000000000000000e+00  0.0000000000000000e+00 0.0000000000000000e+00 0.0000000000000000e+00  0.0000000000000000e+00 0.0000000000000000e+00 0.0000000000000000e+00  0.0000000000000000e+00 0.0000000000000000e+00 0.0000000000000000e+00  0.0000000000000000e+00 0.0000000000000000e+00 0.0000000000000000e+00  0.0000000000000000e+00 0.0000000000000000e+00 0.0000000000000000e+00  0.0000000000000000e+00 0.0000000000000000e+00 0.0000000000000000e+00  0.0000000000000000e+00 0.0000000000000000e+00 0.0000000000000000e+00  0.0000000000000000e+00 0.0000000000000000e+00 0.0000000000000000e+00  0.0000000000000000e+00 0.0000000000000000e+00 0.0000000000000000e+00  0.0000000000000000e+00 0.0000000000000000e+00 0.0000000000000000e+00  0.0000000000000000e+00 0.0000000000000000e+00 0.0000000000000000e+00  0.0000000000000000e+00 0.0000000000000000e+00 0.0000000000000000e+00  0.0000000000000000e+00 0.0000000000000000e+00 0.0000000000000000e+00  0.0000000000000000e+00 0.0000000000000000e+00 0.0000000000000000e+00  0.0000000000000000e+00 0.0000000000000000e+00 0.0000000000000000e+00  0.0000000000000000e+00 0.0000000000000000e+00 0.0000000000000000e+00  0.0000000000000000e+00 0.0000000000000000e+00 0.0000000000000000e+00  0.0000000000000000e+00 0.0000000000000000e+00 0.0000000000000000e+00  0.0000000000000000e+00 0.0000000000000000e+00 0.0000000000000000e+00  0.0000000000000000e+00 0.0000000000000000e+00 0.0000000000000000e+00  0.0000000000000000e+00 0.0000000000000000e+00 0.0000000000000000e+00  0.0000000000000000e+00 0.0000000000000000e+00 0.0000000000000000e+00  0.0000000000000000e+00 0.0000000000000000e+00 0.0000000000000000e+00  0.0000000000000000e+00 0.0000000000000000e+00 0.0000000000000000e+00  0.0000000000000000e+00 0.0000000000000000e+00 0.0000000000000000e+00  0.0000000000000000e+00 0.0000000000000000e+00 0.0000000000000000e+00  0.0000000000000000e+00 0.0000000000000000e+00 0.0000000000000000e+00  0.0000000000000000e+00 0.0000000000000000e+00 0.0000000000000000e+00  0.0000000000000000e+00 0.0000000000000000e+00 0.0000000000000000e+00  0.0000000000000000e+00 0.0000000000000000e+00 0.0000000000000000e+00  0.0000000000000000e+00 0.0000000000000000e+00 0.0000000000000000e+00  0.0000000000000000e+00 0.0000000000000000e+00 0.0000000000000000e+00  0.0000000000000000e+00 0.0000000000000000e+00 0.0000000000000000e+00  0.0000000000000000e+00 0.0000000000000000e+00 0.0000000000000000e+00  0.0000000000000000e+00 0.0000000000000000e+00 0.0000000000000000e+00  0.0000000000000000e+00 0.0000000000000000e+00 0.0000000000000000e+00  0.0000000000000000e+00 0.0000000000000000e+00 0.0000000000000000e+00  0.0000000000000000e+00 0.0000000000000000e+00 0.0000000000000000e+00  0.0000000000000000e+00 0.0000000000000000e+00 0.0000000000000000e+00  0.0000000000000000e+00 0.0000000000000000e+00 0.0000000000000000e+00  0.0000000000000000e+00 0.0000000000000000e+00 0.0000000000000000e+00  2.9402562997697991e+01 0.0000000000000000e+00 0.0000000000000000e+00  2.9413859230825032e+01 -6.6527573020041934e-04 0.0000000000000000e+00  2.9426185944593438e+01 4.1337051393420228e-03 0.0000000000000000e+00  2.9429724088978414e+01 5.3943520438096918e-03 0.0000000000000000e+00  2.9437082635146432e+01 1.7335917098964416e-03 0.0000000000000000e+00  2.9441491605462403e+01 -3.0402393564136701e-04 0.0000000000000000e+00  2.9447893963661318e+01 -7.7937677789780512e-04 0.0000000000000000e+00  2.9452467914019842e+01 -1.7770070659481722e-03 0.0000000000000000e+00  2.9456178629680640e+01 -8.5961355022694675e-04 0.0000000000000000e+00  2.9458769049756878e+01 -7.7079802358526585e-04 0.0000000000000000e+00  2.9459955699342157e+01 -6.5159618578437026e-05 0.0000000000000000e+00  2.9460737442820864e+01 -1.6656314887142376e-04 0.0000000000000000e+00  2.9460930417469868e+01 6.7619878538619977e-05 0.0000000000000000e+00  2.9461230199751661e+01 -4.3218706229718943e-05 0.0000000000000000e+00  2.9461309036340104e+01 5.3059993407155589e-05 0.0000000000000000e+00  2.9461489301472053e+01 2.2735716601842109e-06 0.0000000000000000e+00  2.9461552329296190e+01 5.1530515514010484e-05 0.0000000000000000e+00  2.9461657380293769e+01 3.2530273007135543e-05 0.0000000000000000e+00  2.9461696418604319e+01 5.7480634800779778e-05 0.0000000000000000e+00  2.9461750022481883e+01 5.0409849245833573e-05 0.0000000000000000e+00  2.9461769893878987e+01 6.2032350748041835e-05 0.0000000000000000e+00  2.9461795078381755e+01 5.9205465065904264e-05 0.0000000000000000e+00  2.9461804887774878e+01 6.4167383319129406e-05 0.0000000000000000e+00  2.9461816875771742e+01 6.3008194365491140e-05 0.0000000000000000e+00  2.9461822430384704e+01 6.5018938129796143e-05 0.0000000000000000e+00  2.9461828807982197e+01 6.4610733440646073e-05 0.0000000000000000e+00  2.9461832525968063e+01 6.5450703298495740e-05 0.0000000000000000e+00  2.9461836365983626e+01 6.5387502405180788e-05 0.0000000000000000e+00  2.9461838986375714e+01 6.5786944940444397e-05 0.0000000000000000e+00  2.9461841412744342e+01 6.5853860309766644e-05 0.0000000000000000e+00  2.9461843181413261e+01 6.6071928437225929e-05 0.0000000000000000e+00  2.9461844685184989e+01 6.6160339600910873e-05 0.0000000000000000e+00  2.9461845801422278e+01 6.6285380910420156e-05 0.0000000000000000e+00  2.9461846699628467e+01 6.6354014586800242e-05 0.0000000000000000e+00  2.9461847371991706e+01 6.6423662997905719e-05 0.0000000000000000e+00  2.9461847901184910e+01 6.6466424921884094e-05 0.0000000000000000e+00  2.9461848306316636e+01 6.6502945415429978e-05 0.0000000000000000e+00  2.9461848629926621e+01 6.6526240039294952e-05 0.0000000000000000e+00  2.9461848889931900e+01 6.6544248553334631e-05 0.0000000000000000e+00  2.9461849107809837e+01 6.6555983850122684e-05 0.0000000000000000e+00  2.9461849294551026e+01 6.6564773716431305e-05 0.0000000000000000e+00  2.9461849459945768e+01 6.6571026408544199e-05 0.0000000000000000e+00  2.9461849608859492e+01 6.6576269942986361e-05 0.0000000000000000e+00  2.9461849744466321e+01 6.6581011706192376e-05 0.0000000000000000e+00  2.9461849867531789e+01 6.6585953654153815e-05 0.0000000000000000e+00  2.9461849977701178e+01 6.6591373296375202e-05 0.0000000000000000e+00  2.9461850073626863e+01 6.6597479830716609e-05 0.0000000000000000e+00  2.9461850153655998e+01 6.6604251444548398e-05 0.0000000000000000e+00  2.9461850216129879e+01 6.6611553409426795e-05 0.0000000000000000e+00  2.9461850259830086e+01 6.6619113090544030e-05 0.0000000000000000e+00  2.9461850284216172e+01 6.6626604501081037e-05 0.0000000000000000e+00  2.9461850289602285e+01 6.6633666214138785e-05 0.0000000000000000e+00  2.9461850277194095e+01 6.6639975474714903e-05 0.0000000000000000e+00  2.9461850249015566e+01 6.6645259438845430e-05 0.0000000000000000e+00  2.9461850207724694e+01 6.6649362237355852e-05 0.0000000000000000e+00  2.9461850156374197e+01 6.6652189072273488e-05 0.0000000000000000e+00  2.9461850098183717e+01 6.6653802029773243e-05 0.0000000000000000e+00  2.9461850036246492e+01 6.6654251028163658e-05 0.0000000000000000e+00  2.9461849973420122e+01 6.6653769432354135e-05 0.0000000000000000e+00  2.9461849912102426e+01 6.6652392189521539e-05 0.0000000000000000e+00  2.9461849854377039e+01 6.6650429726559303e-05 0.0000000000000000e+00  2.9461849801870542e+01 6.6647563023964325e-05 0.0000000000000000e+00  2.9461849756574548e+01 6.6643834688558917e-05 0.0000000000000000e+00  2.9461849721130768e+01 6.6637550207324694e-05 0.0000000000000000e+00  2.9461849702112488e+01 6.6626382960618372e-05 0.0000000000000000e+00  2.9461849713493194e+01 6.6602795885271652e-05 0.0000000000000000e+00  2.9461849789913487e+01 6.6551373218801357e-05 0.0000000000000000e+00  2.9461850010489812e+01 6.6436607056021471e-05 0.0000000000000000e+00  2.9461850562223258e+01 6.6177129541307585e-05 0.0000000000000000e+00  2.9461851863363421e+01 6.5610553715702511e-05 0.0000000000000000e+00  2.9461854807940373e+01 6.4413468990547496e-05 0.0000000000000000e+00  2.9461861241652208e+01 6.1962643684459020e-05 0.0000000000000000e+00  2.9461875104800093e+01 5.6753967810369088e-05 0.0000000000000000e+00  2.9461904643541565e+01 4.6364204400924990e-05 0.0000000000000000e+00  2.9461964153538009e+01 2.8718483553885889e-05 0.0000000000000000e+00  2.9462070733201092e+01 3.0229083969133868e-06 0.0000000000000000e+00  2.9462256670371723e+01 -4.6356199112112053e-05 0.0000000000000000e+00  2.9462623578337791e+01 -1.3094243077414814e-04 0.0000000000000000e+00  2.9463435750572895e+01 -2.5866813212276589e-04 0.0000000000000000e+00  2.9467274839260966e+01 -4.5048825652794301e-04 0.0000000000000000e+00  2.9472902337049334e+01 0.0000000000000000e+00 0.0000000000000000e+00  3.8047537456730524e+01 0.0000000000000000e+00 0.0000000000000000e+00  3.8035634792976651e+01 -1.2998947986509485e-03 0.0000000000000000e+00  3.8030446471022813e+01 -2.7939833432871256e-03 0.0000000000000000e+00  3.8031892203644098e+01 -2.7970557850917443e-03 0.0000000000000000e+00  3.8039335979633520e+01 -3.9935600230422957e-03 0.0000000000000000e+00  3.8045131995075074e+01 -4.7073184618782746e-03 0.0000000000000000e+00  3.8054325051781184e+01 -4.9118360735841303e-03 0.0000000000000000e+00  3.8061265690873149e+01 -2.2449148335259195e-03 0.0000000000000000e+00  3.8065915648615679e+01 -8.2627706708118386e-04 0.0000000000000000e+00  3.8068058755363367e+01 1.2136963304917713e-03 0.0000000000000000e+00  3.8069473101486786e+01 1.9264170652417195e-03 0.0000000000000000e+00  3.8069992077666150e+01 2.6606556485504998e-03 0.0000000000000000e+00  3.8070449295622787e+01 2.7256765194556441e-03 0.0000000000000000e+00  3.8070551243329604e+01 2.9134592400283988e-03 0.0000000000000000e+00  3.8070755693807286e+01 2.8793359396799795e-03 0.0000000000000000e+00  3.8070800401668436e+01 2.9571491453805063e-03 0.0000000000000000e+00  3.8070925853612053e+01 2.9475466632716031e-03 0.0000000000000000e+00  3.8070959352772945e+01 2.9948742244315261e-03 0.0000000000000000e+00  3.8071034254113698e+01 2.9982933157002988e-03 0.0000000000000000e+00  3.8071054195322404e+01 3.0252065149118860e-03 0.0000000000000000e+00  3.8071093697113994e+01 3.0293197305637843e-03 0.0000000000000000e+00  3.8071103381670987e+01 3.0424464092356062e-03 0.0000000000000000e+00  3.8071122360628877e+01 3.0446206056260771e-03 0.0000000000000000e+00  3.8071126973505834e+01 3.0502855382344685e-03 0.0000000000000000e+00  3.8071135947943638e+01 3.0512173888896182e-03 0.0000000000000000e+00  3.8071138649333484e+01 3.0535761628696562e-03 0.0000000000000000e+00  3.8071143238625950e+01 3.0540875435310835e-03 0.0000000000000000e+00  3.8071145214574990e+01 3.0551924066416491e-03 0.0000000000000000e+00  3.8071147849795693e+01 3.0556155735346792e-03 0.0000000000000000e+00  3.8071149353915210e+01 3.0562538941878363e-03 0.0000000000000000e+00  3.8071150966436058e+01 3.0566227581946765e-03 0.0000000000000000e+00  3.8071152031751808e+01 3.0570341543539369e-03 0.0000000000000000e+00  3.8071153014305857e+01 3.0573147322077790e-03 0.0000000000000000e+00  3.8071153704466681e+01 3.0575738651494101e-03 0.0000000000000000e+00  3.8071154284593447e+01 3.0577578262019059e-03 0.0000000000000000e+00  3.8071154704029333e+01 3.0579089331834609e-03 0.0000000000000000e+00  3.8071155040440232e+01 3.0580155630241341e-03 0.0000000000000000e+00  3.8071155291029093e+01 3.0580965741512111e-03 0.0000000000000000e+00  3.8071155491321143e+01 3.0581526418158984e-03 0.0000000000000000e+00  3.8071155648294130e+01 3.0581931580195955e-03 0.0000000000000000e+00  3.8071155778692784e+01 3.0582210726508231e-03 0.0000000000000000e+00  3.8071155888553257e+01 3.0582413978611678e-03 0.0000000000000000e+00  3.8071155985457928e+01 3.0582566874252115e-03 0.0000000000000000e+00  3.8071156072586305e+01 3.0582696801375645e-03 0.0000000000000000e+00  3.8071156152688182e+01 3.0582820208869470e-03 0.0000000000000000e+00  3.8071156226508165e+01 3.0582950663101171e-03 0.0000000000000000e+00  3.8071156294170180e+01 3.0583095219719678e-03 0.0000000000000000e+00  3.8071156354916845e+01 3.0583257126119393e-03 0.0000000000000000e+00  3.8071156407690353e+01 3.0583435044687665e-03 0.0000000000000000e+00  3.8071156451248676e+01 3.0583624211660550e-03 0.0000000000000000e+00  3.8071156484521588e+01 3.0583817253396011e-03 0.0000000000000000e+00  3.8071156506770343e+01 3.0584005363334834e-03 0.0000000000000000e+00  3.8071156517757267e+01 3.0584179670019372e-03 0.0000000000000000e+00  3.8071156517818942e+01 3.0584332192283314e-03 0.0000000000000000e+00  3.8071156507844265e+01 3.0584457190232133e-03 0.0000000000000000e+00  3.8071156489185199e+01 3.0584550784072189e-03 0.0000000000000000e+00  3.8071156463541250e+01 3.0584612699280801e-03 0.0000000000000000e+00  3.8071156432771460e+01 3.0584643221168756e-03 0.0000000000000000e+00  3.8071156398769205e+01 3.0584647312413551e-03 0.0000000000000000e+00  3.8071156363264095e+01 3.0584625778455757e-03 0.0000000000000000e+00  3.8071156327814052e+01 3.0584587997659184e-03 0.0000000000000000e+00  3.8071156293508324e+01 3.0584526931336409e-03 0.0000000000000000e+00  3.8071156261243360e+01 3.0584454153317880e-03 0.0000000000000000e+00  3.8071156230998156e+01 3.0584333300386949e-03 0.0000000000000000e+00  3.8071156202741726e+01 3.0584152492494784e-03 0.0000000000000000e+00  3.8071156173585813e+01 3.0583765823121462e-03 0.0000000000000000e+00  3.8071156139244941e+01 3.0583001176195525e-03 0.0000000000000000e+00  3.8071156084776433e+01 3.0581260422191366e-03 0.0000000000000000e+00  3.8071155995152637e+01 3.0577386165581209e-03 0.0000000000000000e+00  3.8071155836642440e+01 3.0568506533319977e-03 0.0000000000000000e+00  3.8071155553475428e+01 3.0550332048403040e-03 0.0000000000000000e+00  3.8071154801117153e+01 3.0515789501514567e-03 0.0000000000000000e+00  3.8071152491887183e+01 3.0444031290954546e-03 0.0000000000000000e+00  3.8071147553820026e+01 3.0281311401095319e-03 0.0000000000000000e+00  3.8071145663818641e+01 2.9980535354031447e-03 0.0000000000000000e+00  3.8071146331951937e+01 2.9665634681758008e-03 0.0000000000000000e+00  3.8071154820081567e+01 2.8916774417073340e-03 0.0000000000000000e+00  3.8071371390957168e+01 2.6894017827393249e-03 0.0000000000000000e+00  3.8072211689994326e+01 2.4796618053804253e-03 0.0000000000000000e+00  3.8073459231582660e+01 1.8437603390738157e-03 0.0000000000000000e+00  3.8070741888866714e+01 0.0000000000000000e+00 0.0000000000000000e+00  3.8385576672484198e+01 0.0000000000000000e+00 0.0000000000000000e+00  3.8397324219011665e+01 -6.7232533600417640e-04 0.0000000000000000e+00  3.8397287601983805e+01 -5.7366007160666486e-04 0.0000000000000000e+00  3.8393167734790083e+01 7.2257411197109629e-06 0.0000000000000000e+00  3.8384573075296643e+01 -2.8073647237566468e-03 0.0000000000000000e+00  3.8375663861762355e+01 -4.9754680080191871e-03 0.0000000000000000e+00  3.8364967633010764e+01 -6.5658385853775078e-03 0.0000000000000000e+00  3.8358557685607472e+01 -5.5748717819850422e-03 0.0000000000000000e+00  3.8353616733045740e+01 -3.1881931089143990e-03 0.0000000000000000e+00  3.8351632235856279e+01 -1.7455931338563443e-03 0.0000000000000000e+00  3.8349978195315060e+01 -5.2287315623604069e-04 0.0000000000000000e+00  3.8349650312279699e+01 -1.3526908097091547e-04 0.0000000000000000e+00  3.8349100833946544e+01 1.9411882561939719e-04 0.0000000000000000e+00  3.8349083791718023e+01 2.2016636763650250e-04 0.0000000000000000e+00  3.8348804684301513e+01 3.1092822344844722e-04 0.0000000000000000e+00  3.8348788068010322e+01 3.0611573115956023e-04 0.0000000000000000e+00  3.8348619980422775e+01 3.5299904127895199e-04 0.0000000000000000e+00  3.8348599974720152e+01 3.6047645936111759e-04 0.0000000000000000e+00  3.8348507054027586e+01 3.8981907048420139e-04 0.0000000000000000e+00  3.8348494745522231e+01 3.9908567159217524e-04 0.0000000000000000e+00  3.8348448529696171e+01 4.1502460390091598e-04 0.0000000000000000e+00  3.8348442509049207e+01 4.2079933925581801e-04 0.0000000000000000e+00  3.8348420752686430e+01 4.2817109739579090e-04 0.0000000000000000e+00  3.8348417357626083e+01 4.3087490710977530e-04 0.0000000000000000e+00  3.8348406875013765e+01 4.3395072684161533e-04 0.0000000000000000e+00  3.8348404253798066e+01 4.3512745291123119e-04 0.0000000000000000e+00  3.8348398717762656e+01 4.3645265696023110e-04 0.0000000000000000e+00  3.8348396489052043e+01 4.3708363241906943e-04 0.0000000000000000e+00  3.8348393283250225e+01 4.3778883447246182e-04 0.0000000000000000e+00  3.8348391536573530e+01 4.3823892692773284e-04 0.0000000000000000e+00  3.8348389613858160e+01 4.3869878702617059e-04 0.0000000000000000e+00  3.8348388393419299e+01 4.3903924560647381e-04 0.0000000000000000e+00  3.8348387254357590e+01 4.3934935584921512e-04 0.0000000000000000e+00  3.8348386475913216e+01 4.3958482365562333e-04 0.0000000000000000e+00  3.8348385814438053e+01 4.3977987061281232e-04 0.0000000000000000e+00  3.8348385340360977e+01 4.3992491025825675e-04 0.0000000000000000e+00  3.8348384952901675e+01 4.4003674162272296e-04 0.0000000000000000e+00  3.8348384660182113e+01 4.4011723954907487e-04 0.0000000000000000e+00  3.8348384418625635e+01 4.4017601582412339e-04 0.0000000000000000e+00  3.8348384222966580e+01 4.4021708631235854e-04 0.0000000000000000e+00  3.8348384054239865e+01 4.4024615344105721e-04 0.0