<?xml version="1.0"?>
<VTKFile type="UnstructuredGrid"  version="0.1"  >
<UnstructuredGrid>
<Piece  NumberOfPoints="1369" NumberOfCells="2560">
<Points>
<DataArray  type="Float64"  NumberOfComponents="3"  format="ascii">0 0 0  0.75 0 0  1.5 0 0  2.25 0 0  3 0 0  3.75 0 0  4.5 0 0  5.25 0 0  6 0 0  6.75 0 0  7.5 0 0  8.25 0 0  9 0 0  9.75 0 0  10.5 0 0  11.25 0 0  12 0 0  12.75 0 0  13.5 0 0  14.25 0 0  15 0 0  15.75 0 0  16.5 0 0  17.25 0 0  18 0 0  18.75 0 0  19.5 0 0  20.25 0 0  21 0 0  21.75 0 0  22.5 0 0  23.25 0 0  24 0 0  24.75 0 0  25.5 0 0  26.25 0 0  27 0 0  27.75 0 0  28.5 0 0  29.25 0 0  30 0 0  30.75 0 0  31.5 0 0  32.25 0 0  33 0 0  33.75 0 0  34.5 0 0  35.25 0 0  36 0 0  36.75 0 0  37.5 0 0  38.25 0 0  39 0 0  39.75 0 0  40.5 0 0  41.25 0 0  42 0 0  42.75 0 0  43.5 0 0  44.25 0 0  45 0 0  45.75 0 0  46.5 0 0  47.25 0 0  48 0 0  48.75 0 0  49.5 0 0  50.25 0 0  51 0 0  51.75 0 0  52.5 0 0  53.25 0 0  54 0 0  54.75 0 0  55.5 0 0  56.25 0 0  57 0 0  57.75 0 0  58.5 0 0  59.25 0 0  60 0 0  0 0.5 0  0.75 0.5 0  1.5 0.5 0  2.25 0.5 0  3 0.5 0  3.75 0.5 0  4.5 0.5 0  5.25 0.5 0  6 0.5 0  6.75 0.5 0  7.5 0.5 0  8.25 0.5 0  9 0.5 0  9.75 0.5 0  10.5 0.5 0  11.25 0.5 0  12 0.5 0  12.75 0.5 0  13.5 0.5 0  14.25 0.5 0  15 0.5 0  15.75 0.5 0  16.5 0.5 0  17.25 0.5 0  18 0.5 0  18.75 0.5 0  19.5 0.5 0  20.25 0.5 0  21 0.5 0  21.75 0.5 0  22.5 0.5 0  23.25 0.5 0  24 0.5 0  24.75 0.5 0  25.5 0.5 0  26.25 0.5 0  27 0.5 0  27.75 0.5 0  28.5 0.5 0  29.25 0.5 0  30 0.5 0  30.75 0.5 0  31.5 0.5 0  32.25 0.5 0  33 0.5 0  33.75 0.5 0  34.5 0.5 0  35.25 0.5 0  36 0.5 0  36.75 0.5 0  37.5 0.5 0  38.25 0.5 0  39 0.5 0  39.75 0.5 0  40.5 0.5 0  41.25 0.5 0  42 0.5 0  42.75 0.5 0  43.5 0.5 0  44.25 0.5 0  45 0.5 0  45.75 0.5 0  46.5 0.5 0  47.25 0.5 0  48 0.5 0  48.75 0.5 0  49.5 0.5 0  50.25 0.5 0  51 0.5 0  51.75 0.5 0  52.5 0.5 0  53.25 0.5 0  54 0.5 0  54.75 0.5 0  55.5 0.5 0  56.25 0.5 0  57 0.5 0  57.75 0.5 0  58.5 0.5 0  59.25 0.5 0  60 0.5 0  0 1 0  0.75 1 0  1.5 1 0  2.25 1 0  3 1 0  3.75 1 0  4.5 1 0  5.25 1 0  6 1 0  6.75 1 0  7.5 1 0  8.25 1 0  9 1 0  9.75 1 0  10.5 1 0  11.25 1 0  12 1 0  12.75 1 0  13.5 1 0  14.25 1 0  15 1 0  15.75 1 0  16.5 1 0  17.25 1 0  18 1 0  18.75 1 0  19.5 1 0  20.25 1 0  21 1 0  21.75 1 0  22.5 1 0  23.25 1 0  24 1 0  24.75 1 0  25.5 1 0  26.25 1 0  27 1 0  27.75 1 0  28.5 1 0  29.25 1 0  30 1 0  30.75 1 0  31.5 1 0  32.25 1 0  33 1 0  33.75 1 0  34.5 1 0  35.25 1 0  36 1 0  36.75 1 0  37.5 1 0  38.25 1 0  39 1 0  39.75 1 0  40.5 1 0  41.25 1 0  42 1 0  42.75 1 0  43.5 1 0  44.25 1 0  45 1 0  45.75 1 0  46.5 1 0  47.25 1 0  48 1 0  48.75 1 0  49.5 1 0  50.25 1 0  51 1 0  51.75 1 0  52.5 1 0  53.25 1 0  54 1 0  54.75 1 0  55.5 1 0  56.25 1 0  57 1 0  57.75 1 0  58.5 1 0  59.25 1 0  60 1 0  0 1.5 0  0.75 1.5 0  1.5 1.5 0  2.25 1.5 0  3 1.5 0  3.75 1.5 0  4.5 1.5 0  5.25 1.5 0  6 1.5 0  6.75 1.5 0  7.5 1.5 0  8.25 1.5 0  9 1.5 0  9.75 1.5 0  10.5 1.5 0  11.25 1.5 0  12 1.5 0  12.75 1.5 0  13.5 1.5 0  14.25 1.5 0  15 1.5 0  15.75 1.5 0  16.5 1.5 0  17.25 1.5 0  18 1.5 0  18.75 1.5 0  19.5 1.5 0  20.25 1.5 0  21 1.5 0  21.75 1.5 0  22.5 1.5 0  23.25 1.5 0  24 1.5 0  24.75 1.5 0  25.5 1.5 0  26.25 1.5 0  27 1.5 0  27.75 1.5 0  28.5 1.5 0  29.25 1.5 0  30 1.5 0  30.75 1.5 0  31.5 1.5 0  32.25 1.5 0  33 1.5 0  33.75 1.5 0  34.5 1.5 0  35.25 1.5 0  36 1.5 0  36.75 1.5 0  37.5 1.5 0  38.25 1.5 0  39 1.5 0  39.75 1.5 0  40.5 1.5 0  41.25 1.5 0  42 1.5 0  42.75 1.5 0  43.5 1.5 0  44.25 1.5 0  45 1.5 0  45.75 1.5 0  46.5 1.5 0  47.25 1.5 0  48 1.5 0  48.75 1.5 0  49.5 1.5 0  50.25 1.5 0  51 1.5 0  51.75 1.5 0  52.5 1.5 0  53.25 1.5 0  54 1.5 0  54.75 1.5 0  55.5 1.5 0  56.25 1.5 0  57 1.5 0  57.75 1.5 0  58.5 1.5 0  59.25 1.5 0  60 1.5 0  0 2 0  0.75 2 0  1.5 2 0  2.25 2 0  3 2 0  3.75 2 0  4.5 2 0  5.25 2 0  6 2 0  6.75 2 0  7.5 2 0  8.25 2 0  9 2 0  9.75 2 0  10.5 2 0  11.25 2 0  12 2 0  12.75 2 0  13.5 2 0  14.25 2 0  15 2 0  15.75 2 0  16.5 2 0  17.25 2 0  18 2 0  18.75 2 0  19.5 2 0  20.25 2 0  21 2 0  21.75 2 0  22.5 2 0  23.25 2 0  24 2 0  24.75 2 0  25.5 2 0  26.25 2 0  27 2 0  27.75 2 0  28.5 2 0  29.25 2 0  30 2 0  30.75 2 0  31.5 2 0  32.25 2 0  33 2 0  33.75 2 0  34.5 2 0  35.25 2 0  36 2 0  36.75 2 0  37.5 2 0  38.25 2 0  39 2 0  39.75 2 0  40.5 2 0  41.25 2 0  42 2 0  42.75 2 0  43.5 2 0  44.25 2 0  45 2 0  45.75 2 0  46.5 2 0  47.25 2 0  48 2 0  48.75 2 0  49.5 2 0  50.25 2 0  51 2 0  51.75 2 0  52.5 2 0  53.25 2 0  54 2 0  54.75 2 0  55.5 2 0  56.25 2 0  57 2 0  57.75 2 0  58.5 2 0  59.25 2 0  60 2 0  0 2.5 0  0.75 2.5 0  1.5 2.5 0  2.25 2.5 0  3 2.5 0  3.75 2.5 0  4.5 2.5 0  5.25 2.5 0  6 2.5 0  6.75 2.5 0  7.5 2.5 0  8.25 2.5 0  9 2.5 0  9.75 2.5 0  10.5 2.5 0  11.25 2.5 0  12 2.5 0  12.75 2.5 0  13.5 2.5 0  14.25 2.5 0  15 2.5 0  15.75 2.5 0  16.5 2.5 0  17.25 2.5 0  18 2.5 0  18.75 2.5 0  19.5 2.5 0  20.25 2.5 0  21 2.5 0  21.75 2.5 0  22.5 2.5 0  23.25 2.5 0  24 2.5 0  24.75 2.5 0  25.5 2.5 0  26.25 2.5 0  27 2.5 0  27.75 2.5 0  28.5 2.5 0  29.25 2.5 0  30 2.5 0  30.75 2.5 0  31.5 2.5 0  32.25 2.5 0  33 2.5 0  33.75 2.5 0  34.5 2.5 0  35.25 2.5 0  36 2.5 0  36.75 2.5 0  37.5 2.5 0  38.25 2.5 0  39 2.5 0  39.75 2.5 0  40.5 2.5 0  41.25 2.5 0  42 2.5 0  42.75 2.5 0  43.5 2.5 0  44.25 2.5 0  45 2.5 0  45.75 2.5 0  46.5 2.5 0  47.25 2.5 0  48 2.5 0  48.75 2.5 0  49.5 2.5 0  50.25 2.5 0  51 2.5 0  51.75 2.5 0  52.5 2.5 0  53.25 2.5 0  54 2.5 0  54.75 2.5 0  55.5 2.5 0  56.25 2.5 0  57 2.5 0  57.75 2.5 0  58.5 2.5 0  59.25 2.5 0  60 2.5 0  0 3 0  0.75 3 0  1.5 3 0  2.25 3 0  3 3 0  3.75 3 0  4.5 3 0  5.25 3 0  6 3 0  6.75 3 0  7.5 3 0  8.25 3 0  9 3 0  9.75 3 0  10.5 3 0  11.25 3 0  12 3 0  12.75 3 0  13.5 3 0  14.25 3 0  15 3 0  15.75 3 0  16.5 3 0  17.25 3 0  18 3 0  18.75 3 0  19.5 3 0  20.25 3 0  21 3 0  21.75 3 0  22.5 3 0  23.25 3 0  24 3 0  24.75 3 0  25.5 3 0  26.25 3 0  27 3 0  27.75 3 0  28.5 3 0  29.25 3 0  30 3 0  30.75 3 0  31.5 3 0  32.25 3 0  33 3 0  33.75 3 0  34.5 3 0  35.25 3 0  36 3 0  36.75 3 0  37.5 3 0  38.25 3 0  39 3 0  39.75 3 0  40.5 3 0  41.25 3 0  42 3 0  42.75 3 0  43.5 3 0  44.25 3 0  45 3 0  45.75 3 0  46.5 3 0  47.25 3 0  48 3 0  48.75 3 0  49.5 3 0  50.25 3 0  51 3 0  51.75 3 0  52.5 3 0  53.25 3 0  54 3 0  54.75 3 0  55.5 3 0  56.25 3 0  57 3 0  57.75 3 0  58.5 3 0  59.25 3 0  60 3 0  0 3.5 0  0.75 3.5 0  1.5 3.5 0  2.25 3.5 0  3 3.5 0  3.75 3.5 0  4.5 3.5 0  5.25 3.5 0  6 3.5 0  6.75 3.5 0  7.5 3.5 0  8.25 3.5 0  9 3.5 0  9.75 3.5 0  10.5 3.5 0  11.25 3.5 0  12 3.5 0  12.75 3.5 0  13.5 3.5 0  14.25 3.5 0  15 3.5 0  15.75 3.5 0  16.5 3.5 0  17.25 3.5 0  18 3.5 0  18.75 3.5 0  19.5 3.5 0  20.25 3.5 0  21 3.5 0  21.75 3.5 0  22.5 3.5 0  23.25 3.5 0  24 3.5 0  24.75 3.5 0  25.5 3.5 0  26.25 3.5 0  27 3.5 0  27.75 3.5 0  28.5 3.5 0  29.25 3.5 0  30 3.5 0  30.75 3.5 0  31.5 3.5 0  32.25 3.5 0  33 3.5 0  33.75 3.5 0  34.5 3.5 0  35.25 3.5 0  36 3.5 0  36.75 3.5 0  37.5 3.5 0  38.25 3.5 0  39 3.5 0  39.75 3.5 0  40.5 3.5 0  41.25 3.5 0  42 3.5 0  42.75 3.5 0  43.5 3.5 0  44.25 3.5 0  45 3.5 0  45.75 3.5 0  46.5 3.5 0  47.25 3.5 0  48 3.5 0  48.75 3.5 0  49.5 3.5 0  50.25 3.5 0  51 3.5 0  51.75 3.5 0  52.5 3.5 0  53.25 3.5 0  54 3.5 0  54.75 3.5 0  55.5 3.5 0  56.25 3.5 0  57 3.5 0  57.75 3.5 0  58.5 3.5 0  59.25 3.5 0  60 3.5 0  0 4 0  0.75 4 0  1.5 4 0  2.25 4 0  3 4 0  3.75 4 0  4.5 4 0  5.25 4 0  6 4 0  6.75 4 0  7.5 4 0  8.25 4 0  9 4 0  9.75 4 0  10.5 4 0  11.25 4 0  12 4 0  12.75 4 0  13.5 4 0  14.25 4 0  15 4 0  15.75 4 0  16.5 4 0  17.25 4 0  18 4 0  18.75 4 0  19.5 4 0  20.25 4 0  21 4 0  21.75 4 0  22.5 4 0  23.25 4 0  24 4 0  24.75 4 0  25.5 4 0  26.25 4 0  27 4 0  27.75 4 0  28.5 4 0  29.25 4 0  30 4 0  30.75 4 0  31.5 4 0  32.25 4 0  33 4 0  33.75 4 0  34.5 4 0  35.25 4 0  36 4 0  36.75 4 0  37.5 4 0  38.25 4 0  39 4 0  39.75 4 0  40.5 4 0  41.25 4 0  42 4 0  42.75 4 0  43.5 4 0  44.25 4 0  45 4 0  45.75 4 0  46.5 4 0  47.25 4 0  48 4 0  48.75 4 0  49.5 4 0  50.25 4 0  51 4 0  51.75 4 0  52.5 4 0  53.25 4 0  54 4 0  54.75 4 0  55.5 4 0  56.25 4 0  57 4 0  57.75 4 0  58.5 4 0  59.25 4 0  60 4 0  0.375 0.25 0  1.125 0.25 0  1.875 0.25 0  2.625 0.25 0  3.375 0.25 0  4.125 0.25 0  4.875 0.25 0  5.625 0.25 0  6.375 0.25 0  7.125 0.25 0  7.875 0.25 0  8.625 0.25 0  9.375 0.25 0  10.125 0.25 0  10.875 0.25 0  11.625 0.25 0  12.375 0.25 0  13.125 0.25 0  13.875 0.25 0  14.625 0.25 0  15.375 0.25 0  16.125 0.25 0  16.875 0.25 0  17.625 0.25 0  18.375 0.25 0  19.125 0.25 0  19.875 0.25 0  20.625 0.25 0  21.375 0.25 0  22.125 0.25 0  22.875 0.25 0  23.625 0.25 0  24.375 0.25 0  25.125 0.25 0  25.875 0.25 0  26.625 0.25 0  27.375 0.25 0  28.125 0.25 0  28.875 0.25 0  29.625 0.25 0  30.375 0.25 0  31.125 0.25 0  31.875 0.25 0  32.625 0.25 0  33.375 0.25 0  34.125 0.25 0  34.875 0.25 0  35.625 0.25 0  36.375 0.25 0  37.125 0.25 0  37.875 0.25 0  38.625 0.25 0  39.375 0.25 0  40.125 0.25 0  40.875 0.25 0  41.625 0.25 0  42.375 0.25 0  43.125 0.25 0  43.875 0.25 0  44.625 0.25 0  45.375 0.25 0  46.125 0.25 0  46.875 0.25 0  47.625 0.25 0  48.375 0.25 0  49.125 0.25 0  49.875 0.25 0  50.625 0.25 0  51.375 0.25 0  52.125 0.25 0  52.875 0.25 0  53.625 0.25 0  54.375 0.25 0  55.125 0.25 0  55.875 0.25 0  56.625 0.25 0  57.375 0.25 0  58.125 0.25 0  58.875 0.25 0  59.625 0.25 0  0.375 0.75 0  1.125 0.75 0  1.875 0.75 0  2.625 0.75 0  3.375 0.75 0  4.125 0.75 0  4.875 0.75 0  5.625 0.75 0  6.375 0.75 0  7.125 0.75 0  7.875 0.75 0  8.625 0.75 0  9.375 0.75 0  10.125 0.75 0  10.875 0.75 0  11.625 0.75 0  12.375 0.75 0  13.125 0.75 0  13.875 0.75 0  14.625 0.75 0  15.375 0.75 0  16.125 0.75 0  16.875 0.75 0  17.625 0.75 0  18.375 0.75 0  19.125 0.75 0  19.875 0.75 0  20.625 0.75 0  21.375 0.75 0  22.125 0.75 0  22.875 0.75 0  23.625 0.75 0  24.375 0.75 0  25.125 0.75 0  25.875 0.75 0  26.625 0.75 0  27.375 0.75 0  28.125 0.75 0  28.875 0.75 0  29.625 0.75 0  30.375 0.75 0  31.125 0.75 0  31.875 0.75 0  32.625 0.75 0  33.375 0.75 0  34.125 0.75 0  34.875 0.75 0  35.625 0.75 0  36.375 0.75 0  37.125 0.75 0  37.875 0.75 0  38.625 0.75 0  39.375 0.75 0  40.125 0.75 0  40
[...]
<PointData  Vectors="f_8-0"> 
<DataArray  type="Float64"  Name="f_8-0"  NumberOfComponents="3" format="ascii">0.0000000000000000e+00 0.0000000000000000e+00 0.0000000000000000e+00  0.0000000000000000e+00 0.0000000000000000e+00 0.0000000000000000e+00  0.0000000000000000e+00 0.0000000000000000e+00 0.0000000000000000e+00  0.0000000000000000e+00 0.0000000000000000e+00 0.0000000000000000e+00  0.0000000000000000e+00 0.0000000000000000e+00 0.0000000000000000e+00  0.0000000000000000e+00 0.0000000000000000e+00 0.0000000000000000e+00  0.0000000000000000e+00 0.0000000000000000e+00 0.0000000000000000e+00  0.0000000000000000e+00 0.0000000000000000e+00 0.0000000000000000e+00  0.0000000000000000e+00 0.0000000000000000e+00 0.0000000000000000e+00  0.0000000000000000e+00 0.0000000000000000e+00 0.0000000000000000e+00  0.0000000000000000e+00 0.0000000000000000e+00 0.0000000000000000e+00  0.0000000000000000e+00 0.0000000000000000e+00 0.0000000000000000e+00  0.0000000000000000e+00 0.0000000000000000e+00 0.0000000000000000e+00  0.0000000000000000e+00 0.0000000000000000e+00 0.0000000000000000e+00  0.0000000000000000e+00 0.0000000000000000e+00 0.0000000000000000e+00  0.0000000000000000e+00 0.0000000000000000e+00 0.0000000000000000e+00  0.0000000000000000e+00 0.0000000000000000e+00 0.0000000000000000e+00  0.0000000000000000e+00 0.0000000000000000e+00 0.0000000000000000e+00  0.0000000000000000e+00 0.0000000000000000e+00 0.0000000000000000e+00  0.0000000000000000e+00 0.0000000000000000e+00 0.0000000000000000e+00  0.0000000000000000e+00 0.0000000000000000e+00 0.0000000000000000e+00  0.0000000000000000e+00 0.0000000000000000e+00 0.0000000000000000e+00  0.0000000000000000e+00 0.0000000000000000e+00 0.0000000000000000e+00  0.0000000000000000e+00 0.0000000000000000e+00 0.0000000000000000e+00  0.0000000000000000e+00 0.0000000000000000e+00 0.0000000000000000e+00  0.0000000000000000e+00 0.0000000000000000e+00 0.0000000000000000e+00  0.0000000000000000e+00 0.0000000000000000e+00 0.0000000000000000e+00  0.0000000000000000e+00 0.0000000000000000e+00 0.0000000000000000e+00  0.0000000000000000e+00 0.0000000000000000e+00 0.0000000000000000e+00  0.0000000000000000e+00 0.0000000000000000e+00 0.0000000000000000e+00  0.0000000000000000e+00 0.0000000000000000e+00 0.0000000000000000e+00  0.0000000000000000e+00 0.0000000000000000e+00 0.0000000000000000e+00  0.0000000000000000e+00 0.0000000000000000e+00 0.0000000000000000e+00  0.0000000000000000e+00 0.0000000000000000e+00 0.0000000000000000e+00  0.0000000000000000e+00 0.0000000000000000e+00 0.0000000000000000e+00  0.0000000000000000e+00 0.0000000000000000e+00 0.0000000000000000e+00  0.0000000000000000e+00 0.0000000000000000e+00 0.0000000000000000e+00  0.0000000000000000e+00 0.0000000000000000e+00 0.0000000000000000e+00  0.0000000000000000e+00 0.0000000000000000e+00 0.0000000000000000e+00  0.0000000000000000e+00 0.0000000000000000e+00 0.0000000000000000e+00  0.0000000000000000e+00 0.0000000000000000e+00 0.0000000000000000e+00  0.0000000000000000e+00 0.0000000000000000e+00 0.0000000000000000e+00  0.0000000000000000e+00 0.0000000000000000e+00 0.0000000000000000e+00  0.0000000000000000e+00 0.0000000000000000e+00 0.0000000000000000e+00  0.0000000000000000e+00 0.0000000000000000e+00 0.0000000000000000e+00  0.0000000000000000e+00 0.0000000000000000e+00 0.0000000000000000e+00  0.0000000000000000e+00 0.0000000000000000e+00 0.0000000000000000e+00  0.0000000000000000e+00 0.0000000000000000e+00 0.0000000000000000e+00  0.0000000000000000e+00 0.0000000000000000e+00 0.0000000000000000e+00  0.0000000000000000e+00 0.0000000000000000e+00 0.0000000000000000e+00  0.0000000000000000e+00 0.0000000000000000e+00 0.0000000000000000e+00  0.0000000000000000e+00 0.0000000000000000e+00 0.0000000000000000e+00  0.0000000000000000e+00 0.0000000000000000e+00 0.0000000000000000e+00  0.0000000000000000e+00 0.0000000000000000e+00 0.0000000000000000e+00  0.0000000000000000e+00 0.0000000000000000e+00 0.0000000000000000e+00  0.0000000000000000e+00 0.0000000000000000e+00 0.0000000000000000e+00  0.0000000000000000e+00 0.0000000000000000e+00 0.0000000000000000e+00  0.0000000000000000e+00 0.0000000000000000e+00 0.0000000000000000e+00  0.0000000000000000e+00 0.0000000000000000e+00 0.0000000000000000e+00  0.0000000000000000e+00 0.0000000000000000e+00 0.0000000000000000e+00  0.0000000000000000e+00 0.0000000000000000e+00 0.0000000000000000e+00  0.0000000000000000e+00 0.0000000000000000e+00 0.0000000000000000e+00  0.0000000000000000e+00 0.0000000000000000e+00 0.0000000000000000e+00  0.0000000000000000e+00 0.0000000000000000e+00 0.0000000000000000e+00  0.0000000000000000e+00 0.0000000000000000e+00 0.0000000000000000e+00  0.0000000000000000e+00 0.0000000000000000e+00 0.0000000000000000e+00  0.0000000000000000e+00 0.0000000000000000e+00 0.0000000000000000e+00  0.0000000000000000e+00 0.0000000000000000e+00 0.0000000000000000e+00  0.0000000000000000e+00 0.0000000000000000e+00 0.0000000000000000e+00  0.0000000000000000e+00 0.0000000000000000e+00 0.0000000000000000e+00  0.0000000000000000e+00 0.0000000000000000e+00 0.0000000000000000e+00  0.0000000000000000e+00 0.0000000000000000e+00 0.0000000000000000e+00  0.0000000000000000e+00 0.0000000000000000e+00 0.0000000000000000e+00  0.0000000000000000e+00 0.0000000000000000e+00 0.0000000000000000e+00  0.0000000000000000e+00 0.0000000000000000e+00 0.0000000000000000e+00  0.0000000000000000e+00 0.0000000000000000e+00 0.0000000000000000e+00  0.0000000000000000e+00 0.0000000000000000e+00 0.0000000000000000e+00  0.0000000000000000e+00 0.0000000000000000e+00 0.0000000000000000e+00  0.0000000000000000e+00 0.0000000000000000e+00 0.0000000000000000e+00  0.0000000000000000e+00 0.0000000000000000e+00 0.0000000000000000e+00  0.0000000000000000e+00 0.0000000000000000e+00 0.0000000000000000e+00  2.6071412889619719e+01 0.0000000000000000e+00 0.0000000000000000e+00  2.6056143976321160e+01 7.1257430593021906e-02 0.0000000000000000e+00  2.6072746850376642e+01 3.8942477596886425e-02 0.0000000000000000e+00  2.6045300840096516e+01 7.4690332092551132e-03 0.0000000000000000e+00  2.6040452360794902e+01 5.2109458997974360e-03 0.0000000000000000e+00  2.6042243910316046e+01 3.2179870471772212e-03 0.0000000000000000e+00  2.6041936432202515e+01 4.4503763239215335e-03 0.0000000000000000e+00  2.6043313892381242e+01 4.2881021137644842e-03 0.0000000000000000e+00  2.6042971272285797e+01 4.4477091358775507e-03 0.0000000000000000e+00  2.6043517818995266e+01 4.4388853843148977e-03 0.0000000000000000e+00  2.6043437388355386e+01 4.4675163712164373e-03 0.0000000000000000e+00  2.6043624101255936e+01 4.4742839148146493e-03 0.0000000000000000e+00  2.6043631839051415e+01 4.4843801087654424e-03 0.0000000000000000e+00  2.6043691804858483e+01 4.4888219943270968e-03 0.0000000000000000e+00  2.6043706978173876e+01 4.4928608714311360e-03 0.0000000000000000e+00  2.6043727391678029e+01 4.4949185726902308e-03 0.0000000000000000e+00  2.6043736600603641e+01 4.4964813048439444e-03 0.0000000000000000e+00  2.6043744613435184e+01 4.4973757126238268e-03 0.0000000000000000e+00  2.6043749411686107e+01 4.4980184358203333e-03 0.0000000000000000e+00  2.6043753049502278e+01 4.4984334589400297e-03 0.0000000000000000e+00  2.6043755511229310e+01 4.4987322247843700e-03 0.0000000000000000e+00  2.6043757303726476e+01 4.4989395233447560e-03 0.0000000000000000e+00  2.6043758567354459e+01 4.4990882813568268e-03 0.0000000000000000e+00  2.6043759478136931e+01 4.4991929712858815e-03 0.0000000000000000e+00  2.6043760131768547e+01 4.4992669270970988e-03 0.0000000000000000e+00  2.6043760607466641e+01 4.4993187081403367e-03 0.0000000000000000e+00  2.6043760957210683e+01 4.4993551314654393e-03 0.0000000000000000e+00  2.6043761218637176e+01 4.4993809589302563e-03 0.0000000000000000e+00  2.6043761417045936e+01 4.4993996196342635e-03 0.0000000000000000e+00  2.6043761569804918e+01 4.4994134153892177e-03 0.0000000000000000e+00  2.6043761688677669e+01 4.4994238757459738e-03 0.0000000000000000e+00  2.6043761781797372e+01 4.4994319761749533e-03 0.0000000000000000e+00  2.6043761854961591e+01 4.4994383373965002e-03 0.0000000000000000e+00  2.6043761912469549e+01 4.4994433620314878e-03 0.0000000000000000e+00  2.6043761957628060e+01 4.4994473235300684e-03 0.0000000000000000e+00  2.6043761993072998e+01 4.4994504272864227e-03 0.0000000000000000e+00  2.6043762020929840e+01 4.4994528307718308e-03 0.0000000000000000e+00  2.6043762042920324e+01 4.4994546709023050e-03 0.0000000000000000e+00  2.6043762060428826e+01 4.4994560634061898e-03 0.0000000000000000e+00  2.6043762074550656e+01 4.4994571093014595e-03 0.0000000000000000e+00  2.6043762086124428e+01 4.4994578915408734e-03 0.0000000000000000e+00  2.6043762095788004e+01 4.4994584844185569e-03 0.0000000000000000e+00  2.6043762103998358e+01 4.4994589460525345e-03 0.0000000000000000e+00  2.6043762111066673e+01 4.4994593209869808e-03 0.0000000000000000e+00  2.6043762117195996e+01 4.4994596465327734e-03 0.0000000000000000e+00  2.6043762122500599e+01 4.4994599476210371e-03 0.0000000000000000e+00  2.6043762127037205e+01 4.4994602413131329e-03 0.0000000000000000e+00  2.6043762130820930e+01 4.4994605357790559e-03 0.0000000000000000e+00  2.6043762133848965e+01 4.4994608336092895e-03 0.0000000000000000e+00  2.6043762136113152e+01 4.4994611327875324e-03 0.0000000000000000e+00  2.6043762137621041e+01 4.4994614243857459e-03 0.0000000000000000e+00  2.6043762138378089e+01 4.4994617078927641e-03 0.0000000000000000e+00  2.6043762138448024e+01 4.4994619543297035e-03 0.0000000000000000e+00  2.6043762137862487e+01 4.4994621883691372e-03 0.0000000000000000e+00  2.6043762136776365e+01 4.4994623210181791e-03 0.0000000000000000e+00  2.6043762135238818e+01 4.4994624418358440e-03 0.0000000000000000e+00  2.6043762133627357e+01 4.4994622482738902e-03 0.0000000000000000e+00  2.6043762132186483e+01 4.4994618255744844e-03 0.0000000000000000e+00  2.6043762132370503e+01 4.4994599704208200e-03 0.0000000000000000e+00  2.6043762136604986e+01 4.4994557332686050e-03 0.0000000000000000e+00  2.6043762152881794e+01 4.4994438704407348e-03 0.0000000000000000e+00  2.6043762197603442e+01 4.4994169066094256e-03 0.0000000000000000e+00  2.6043762310210610e+01 4.4993509926525262e-03 0.0000000000000000e+00  2.6043762574656160e+01 4.4991931566056784e-03 0.0000000000000000e+00  2.6043763221068335e+01 4.4987523276907426e-03 0.0000000000000000e+00  2.6043765007027122e+01 4.4974328189740578e-03 0.0000000000000000e+00  2.6043770587620237e+01 4.4934103884785590e-03 0.0000000000000000e+00  2.6043788285232267e+01 4.4821836457173735e-03 0.0000000000000000e+00  2.6043840323114662e+01 4.4543820926301377e-03 0.0000000000000000e+00  2.6043976743650109e+01 4.3948807129472250e-03 0.0000000000000000e+00  2.6044291653531431e+01 4.2872930249252478e-03 0.0000000000000000e+00  2.6044919637413326e+01 4.1368758710960858e-03 0.0000000000000000e+00  2.6045948523697927e+01 4.0130450802286386e-03 0.0000000000000000e+00  2.6047222719197361e+01 4.0458401297745958e-03 0.0000000000000000e+00  2.6048291226973134e+01 4.2912988989924558e-03 0.0000000000000000e+00  2.6048689458937570e+01 4.7170425346502757e-03 0.0000000000000000e+00  2.6047963474652175e+01 5.3875559057458512e-03 0.0000000000000000e+00  2.6045281695582748e+01 6.3484803513255035e-03 0.0000000000000000e+00  2.6038841225530373e+01 7.1329419952875731e-03 0.0000000000000000e+00  2.6022004069646151e+01 5.0076098341683703e-03 0.0000000000000000e+00  2.6001048535795118e+01 0.0000000000000000e+00 0.0000000000000000e+00  2.7208943593084090e+01 0.0000000000000000e+00 0.0000000000000000e+00  2.7137656326801569e+01 -1.7895277381082819e-02 0.0000000000000000e+00  2.7191367073535748e+01 1.2576442806244337e-02 0.0000000000000000e+00  2.7206067594427076e+01 3.7562747636676898e-03 0.0000000000000000e+00  2.7213603104037329e+01 4.0961015474910656e-05 0.0000000000000000e+00  2.7211750766586494e+01 -1.2456937393644492e-03 0.0000000000000000e+00  2.7212697134110474e+01 -3.1040404633009218e-04 0.0000000000000000e+00  2.7212344811761561e+01 -4.8730412308966268e-04 0.0000000000000000e+00  2.7212819378769453e+01 -1.1244263045359638e-04 0.0000000000000000e+00  2.7212720211509971e+01 -1.8304613084938520e-04 0.0000000000000000e+00  2.7212907904757582e+01 -7.0258560900418428e-05 0.0000000000000000e+00  2.7212896903310831e+01 -6.9541181928506145e-05 0.0000000000000000e+00  2.7212962735044030e+01 -3.3414676714476355e-05 0.0000000000000000e+00  2.7212971437819128e+01 -2.3364818990856953e-05 0.0000000000000000e+00  2.7212993986687419e+01 -1.0693548195891529e-05 0.0000000000000000e+00  2.7213001451208367e+01 -4.7341057701055205e-06 0.0000000000000000e+00  2.7213009714131015e+01 -1.6108835475283788e-08 0.0000000000000000e+00  2.7213013873896038e+01 2.7086417740027447e-06 0.0000000000000000e+00  2.7213017295544347e+01 4.6211543630928505e-06 0.0000000000000000e+00  2.7213019424362422e+01 5.8643558124810583e-06 0.0000000000000000e+00  2.7213021010496735e+01 6.7366179061750448e-06 0.0000000000000000e+00  2.7213022093013777e+01 7.3419177161301537e-06 0.0000000000000000e+00  2.7213022876778332e+01 7.7712667601278276e-06 0.0000000000000000e+00  2.7213023430858328e+01 8.0739525444892343e-06 0.0000000000000000e+00  2.7213023831050254e+01 8.2873810951731566e-06 0.0000000000000000e+00  2.7213024120207766e+01 8.4371405377915168e-06 0.0000000000000000e+00  2.7213024332445361e+01 8.5423900559440264e-06 0.0000000000000000e+00  2.7213024490079857e+01 8.6168522150296923e-06 0.0000000000000000e+00  2.7213024609046073e+01 8.6703367518836365e-06 0.0000000000000000e+00  2.7213024700065635e+01 8.7095565807883539e-06 0.0000000000000000e+00  2.7213024770507012e+01 8.7390254542794843e-06 0.0000000000000000e+00  2.7213024825437156e+01 8.7616432294687642e-06 0.0000000000000000e+00  2.7213024868474516e+01 8.7792919292275874e-06 0.0000000000000000e+00  2.7213024902233926e+01 8.7931822800284027e-06 0.0000000000000000e+00  2.7213024928728537e+01 8.8041226913245588e-06 0.0000000000000000e+00  2.7213024949511119e+01 8.8127027189383146e-06 0.0000000000000000e+00  2.7213024965822036e+01 8.8193719566622325e-06 0.0000000000000000e+00  2.7213024978682952e+01 8.8244913620560361e-06 0.0000000000000000e+00  2.7213024988907144e+01 8.8283849110769691e-06 0.0000000000000000e+00  2.7213024997105364e+01 8.8313201989162951e-06 0.0000000000000000e+00  2.7213025003790484e+01 8.8335181801008398e-06 0.0000000000000000e+00  2.7213025009349607e+01 8.8351748946665094e-06 0.0000000000000000e+00  2.7213025014039474e+01 8.8364557050856153e-06 0.0000000000000000e+00  2.7213025018065615e+01 8.8374791834476095e-06 0.0000000000000000e+00  2.7213025021550486e+01 8.8383512393653065e-06 0.0000000000000000e+00  2.7213025024570623e+01 8.8391377944128052e-06 0.0000000000000000e+00  2.7213025027162217e+01 8.8398915822701417e-06 0.0000000000000000e+00  2.7213025029355578e+01 8.8406391601125371e-06 0.0000000000000000e+00  2.7213025031128019e+01 8.8414016747964317e-06 0.0000000000000000e+00  2.7213025032494485e+01 8.8421575625415334e-06 0.0000000000000000e+00  2.7213025033427872e+01 8.8429130358005999e-06 0.0000000000000000e+00  2.7213025033977061e+01 8.8436314167884800e-06 0.0000000000000000e+00  2.7213025034121316e+01 8.8442961805292587e-06 0.0000000000000000e+00  2.7213025033908814e+01 8.8449011131332966e-06 0.0000000000000000e+00  2.7213025033387815e+01 8.8453154081247254e-06 0.0000000000000000e+00  2.7213025032563891e+01 8.8457019412850512e-06 0.0000000000000000e+00  2.7213025031655668e+01 8.8454504382455738e-06 0.0000000000000000e+00  2.7213025030325788e+01 8.8450176157586790e-06 0.0000000000000000e+00  2.7213025029427705e+01 8.8417630865956911e-06 0.0000000000000000e+00  2.7213025027670191e+01 8.8352536262822628e-06 0.0000000000000000e+00  2.7213025028650080e+01 8.8137645524907958e-06 0.0000000000000000e+00  2.7213025031390710e+01 8.7672130368894726e-06 0.0000000000000000e+00  2.7213025052391792e+01 8.6464210830404249e-06 0.0000000000000000e+00  2.7213025090843459e+01 8.3811783265213080e-06 0.0000000000000000e+00  2.7213025156380251e+01 7.6726818909175345e-06 0.0000000000000000e+00  2.7213025133135943e+01 5.6510116827715966e-06 0.0000000000000000e+00  2.7213025025693224e+01 -7.7899517484857565e-07 0.0000000000000000e+00  2.7213025591165632e+01 -1.9793362644285266e-05 0.0000000000000000e+00  2.7213031465879006e+01 -7.0275446426583581e-05 0.0000000000000000e+00  2.7213057617102134e+01 -1.8654760070649744e-04 0.0000000000000000e+00  2.7213149345285572e+01 -4.2087860111750865e-04 0.0000000000000000e+00  2.7213413333987727e+01 -8.0483945352517142e-04 0.0000000000000000e+00  2.7213984179225928e+01 -1.2099872824339732e-03 0.0000000000000000e+00  2.7214799041919679e+01 -1.2640282942524277e-03 0.0000000000000000e+00  2.7215570020087625e+01 -7.9943902770520671e-04 0.0000000000000000e+00  2.7216175405376802e+01 2.3112932200810483e-05 0.0000000000000000e+00  2.7216584791719963e+01 1.3685546899135852e-03 0.0000000000000000e+00  2.7216575929385737e+01 3.5845331905335100e-03 0.0000000000000000e+00  2.7215846583957955e+01 6.9304105785428765e-03 0.0000000000000000e+00  2.7215114574470757e+01 1.1361265635051720e-02 0.0000000000000000e+00  2.7218964456973328e+01 0.0000000000000000e+00 0.0000000000000000e+00  2.5042573281338655e+01 0.0000000000000000e+00 0.0000000000000000e+00  2.5040256072419229e+01 2.0447187800695919e-03 0.0000000000000000e+00  2.5038609676869445e+01 -5.6864036171812736e-03 0.0000000000000000e+00  2.5042443073146430e+01 -3.5760000726747950e-04 0.0000000000000000e+00  2.5040830524819139e+01 -2.5193733265562145e-03 0.0000000000000000e+00  2.5041602604279664e+01 -2.1538357960932180e-03 0.0000000000000000e+00  2.5040187899616352e+01 -2.2593522565374246e-03 0.0000000000000000e+00  2.5040216196965396e+01 -1.9075283875055284e-03 0.0000000000000000e+00  2.5039764286056219e+01 -1.9266174886776112e-03 0.0000000000000000e+00  2.5039721017327004e+01 -1.8013615787718074e-03 0.0000000000000000e+00  2.5039553820855232e+01 -1.7966272934280018e-03 0.0000000000000000e+00  2.5039507967447172e+01 -1.7508850123996301e-03 0.0000000000000000e+00  2.5039442655989447e+01 -1.7390318071535088e-03 0.0000000000000000e+00  2.5039415339693463e+01 -1.7215091689502791e-03 0.0000000000000000e+00  2.5039389756919547e+01 -1.7137802289635506e-03 0.0000000000000000e+00  2.5039376326924859e+01 -1.7070199771484571e-03 0.0000000000000000e+00  2.5039365872794246e+01 -1.7033243941597610e-03 0.0000000000000000e+00  2.5039359485291854e+01 -1.7006467885781818e-03 0.0000000000000000e+00  2.5039354813350329e+01 -1.6989912514164733e-03 0.0000000000000000e+00  2.5039351674521050e+01 -1.6978348477243992e-03 0.0000000000000000e+00  2.5039349411259082e+01 -1.6970561430639263e-03 0.0000000000000000e+00  2.5039347823871129e+01 -1.6965062522909583e-03 0.0000000000000000e+00  2.5039346684116602e+01 -1.6961212907060156e-03 0.0000000000000000e+00  2.5039345871700537e+01 -1.6958490123178569e-03 0.0000000000000000e+00  2.5039345286052587e+01 -1.6956577049799498e-03 0.0000000000000000e+00  2.5039344861562903e+01 -1.6955232862829600e-03 0.0000000000000000e+00  2.5039344549544559e+01 -1.6954287950909004e-03 0.0000000000000000e+00  2.5039344316938408e+01 -1.6953618385488175e-03 0.0000000000000000e+00  2.5039344140699299e+01 -1.6953136888721661e-03 0.0000000000000000e+00  2.5039344005271275e+01 -1.6952783471895091e-03 0.0000000000000000e+00  2.5039343900035131e+01 -1.6952517836500902e-03 0.0000000000000000e+00  2.5039343817679551e+01 -1.6952314064704699e-03 0.0000000000000000e+00  2.5039343753002466e+01 -1.6952155249623103e-03 0.0000000000000000e+00  2.5039343702183533e+01 -1.6952030397418606e-03 0.0000000000000000e+00  2.5039343662274543e+01 -1.6951932217414215e-03 0.0000000000000000e+00  2.5039343630956548e+01 -1.6951855274047192e-03 0.0000000000000000e+00  2.5039343606351235e+01 -1.6951795527123180e-03 0.0000000000000000e+00  2.5039343586939900e+01 -1.6951749719106440e-03 0.0000000000000000e+00  2.5039343571501423e+01 -1.6951714849630999e-03 0.0000000000000000e+00  2.5039343559076741e+01 -1.6951688554683526e-03 0.0000000000000000e+00  2.5039343548909915e+