<?xml version="1.0"?>
<VTKFile type="UnstructuredGrid"  version="0.1"  >
<UnstructuredGrid>
<Piece  NumberOfPoints="1369" NumberOfCells="2560">
<Points>
<DataArray  type="Float64"  NumberOfComponents="3"  format="ascii">0 0 0  0.75 0 0  1.5 0 0  2.25 0 0  3 0 0  3.75 0 0  4.5 0 0  5.25 0 0  6 0 0  6.75 0 0  7.5 0 0  8.25 0 0  9 0 0  9.75 0 0  10.5 0 0  11.25 0 0  12 0 0  12.75 0 0  13.5 0 0  14.25 0 0  15 0 0  15.75 0 0  16.5 0 0  17.25 0 0  18 0 0  18.75 0 0  19.5 0 0  20.25 0 0  21 0 0  21.75 0 0  22.5 0 0  23.25 0 0  24 0 0  24.75 0 0  25.5 0 0  26.25 0 0  27 0 0  27.75 0 0  28.5 0 0  29.25 0 0  30 0 0  30.75 0 0  31.5 0 0  32.25 0 0  33 0 0  33.75 0 0  34.5 0 0  35.25 0 0  36 0 0  36.75 0 0  37.5 0 0  38.25 0 0  39 0 0  39.75 0 0  40.5 0 0  41.25 0 0  42 0 0  42.75 0 0  43.5 0 0  44.25 0 0  45 0 0  45.75 0 0  46.5 0 0  47.25 0 0  48 0 0  48.75 0 0  49.5 0 0  50.25 0 0  51 0 0  51.75 0 0  52.5 0 0  53.25 0 0  54 0 0  54.75 0 0  55.5 0 0  56.25 0 0  57 0 0  57.75 0 0  58.5 0 0  59.25 0 0  60 0 0  0 0.5 0  0.75 0.5 0  1.5 0.5 0  2.25 0.5 0  3 0.5 0  3.75 0.5 0  4.5 0.5 0  5.25 0.5 0  6 0.5 0  6.75 0.5 0  7.5 0.5 0  8.25 0.5 0  9 0.5 0  9.75 0.5 0  10.5 0.5 0  11.25 0.5 0  12 0.5 0  12.75 0.5 0  13.5 0.5 0  14.25 0.5 0  15 0.5 0  15.75 0.5 0  16.5 0.5 0  17.25 0.5 0  18 0.5 0  18.75 0.5 0  19.5 0.5 0  20.25 0.5 0  21 0.5 0  21.75 0.5 0  22.5 0.5 0  23.25 0.5 0  24 0.5 0  24.75 0.5 0  25.5 0.5 0  26.25 0.5 0  27 0.5 0  27.75 0.5 0  28.5 0.5 0  29.25 0.5 0  30 0.5 0  30.75 0.5 0  31.5 0.5 0  32.25 0.5 0  33 0.5 0  33.75 0.5 0  34.5 0.5 0  35.25 0.5 0  36 0.5 0  36.75 0.5 0  37.5 0.5 0  38.25 0.5 0  39 0.5 0  39.75 0.5 0  40.5 0.5 0  41.25 0.5 0  42 0.5 0  42.75 0.5 0  43.5 0.5 0  44.25 0.5 0  45 0.5 0  45.75 0.5 0  46.5 0.5 0  47.25 0.5 0  48 0.5 0  48.75 0.5 0  49.5 0.5 0  50.25 0.5 0  51 0.5 0  51.75 0.5 0  52.5 0.5 0  53.25 0.5 0  54 0.5 0  54.75 0.5 0  55.5 0.5 0  56.25 0.5 0  57 0.5 0  57.75 0.5 0  58.5 0.5 0  59.25 0.5 0  60 0.5 0  0 1 0  0.75 1 0  1.5 1 0  2.25 1 0  3 1 0  3.75 1 0  4.5 1 0  5.25 1 0  6 1 0  6.75 1 0  7.5 1 0  8.25 1 0  9 1 0  9.75 1 0  10.5 1 0  11.25 1 0  12 1 0  12.75 1 0  13.5 1 0  14.25 1 0  15 1 0  15.75 1 0  16.5 1 0  17.25 1 0  18 1 0  18.75 1 0  19.5 1 0  20.25 1 0  21 1 0  21.75 1 0  22.5 1 0  23.25 1 0  24 1 0  24.75 1 0  25.5 1 0  26.25 1 0  27 1 0  27.75 1 0  28.5 1 0  29.25 1 0  30 1 0  30.75 1 0  31.5 1 0  32.25 1 0  33 1 0  33.75 1 0  34.5 1 0  35.25 1 0  36 1 0  36.75 1 0  37.5 1 0  38.25 1 0  39 1 0  39.75 1 0  40.5 1 0  41.25 1 0  42 1 0  42.75 1 0  43.5 1 0  44.25 1 0  45 1 0  45.75 1 0  46.5 1 0  47.25 1 0  48 1 0  48.75 1 0  49.5 1 0  50.25 1 0  51 1 0  51.75 1 0  52.5 1 0  53.25 1 0  54 1 0  54.75 1 0  55.5 1 0  56.25 1 0  57 1 0  57.75 1 0  58.5 1 0  59.25 1 0  60 1 0  0 1.5 0  0.75 1.5 0  1.5 1.5 0  2.25 1.5 0  3 1.5 0  3.75 1.5 0  4.5 1.5 0  5.25 1.5 0  6 1.5 0  6.75 1.5 0  7.5 1.5 0  8.25 1.5 0  9 1.5 0  9.75 1.5 0  10.5 1.5 0  11.25 1.5 0  12 1.5 0  12.75 1.5 0  13.5 1.5 0  14.25 1.5 0  15 1.5 0  15.75 1.5 0  16.5 1.5 0  17.25 1.5 0  18 1.5 0  18.75 1.5 0  19.5 1.5 0  20.25 1.5 0  21 1.5 0  21.75 1.5 0  22.5 1.5 0  23.25 1.5 0  24 1.5 0  24.75 1.5 0  25.5 1.5 0  26.25 1.5 0  27 1.5 0  27.75 1.5 0  28.5 1.5 0  29.25 1.5 0  30 1.5 0  30.75 1.5 0  31.5 1.5 0  32.25 1.5 0  33 1.5 0  33.75 1.5 0  34.5 1.5 0  35.25 1.5 0  36 1.5 0  36.75 1.5 0  37.5 1.5 0  38.25 1.5 0  39 1.5 0  39.75 1.5 0  40.5 1.5 0  41.25 1.5 0  42 1.5 0  42.75 1.5 0  43.5 1.5 0  44.25 1.5 0  45 1.5 0  45.75 1.5 0  46.5 1.5 0  47.25 1.5 0  48 1.5 0  48.75 1.5 0  49.5 1.5 0  50.25 1.5 0  51 1.5 0  51.75 1.5 0  52.5 1.5 0  53.25 1.5 0  54 1.5 0  54.75 1.5 0  55.5 1.5 0  56.25 1.5 0  57 1.5 0  57.75 1.5 0  58.5 1.5 0  59.25 1.5 0  60 1.5 0  0 2 0  0.75 2 0  1.5 2 0  2.25 2 0  3 2 0  3.75 2 0  4.5 2 0  5.25 2 0  6 2 0  6.75 2 0  7.5 2 0  8.25 2 0  9 2 0  9.75 2 0  10.5 2 0  11.25 2 0  12 2 0  12.75 2 0  13.5 2 0  14.25 2 0  15 2 0  15.75 2 0  16.5 2 0  17.25 2 0  18 2 0  18.75 2 0  19.5 2 0  20.25 2 0  21 2 0  21.75 2 0  22.5 2 0  23.25 2 0  24 2 0  24.75 2 0  25.5 2 0  26.25 2 0  27 2 0  27.75 2 0  28.5 2 0  29.25 2 0  30 2 0  30.75 2 0  31.5 2 0  32.25 2 0  33 2 0  33.75 2 0  34.5 2 0  35.25 2 0  36 2 0  36.75 2 0  37.5 2 0  38.25 2 0  39 2 0  39.75 2 0  40.5 2 0  41.25 2 0  42 2 0  42.75 2 0  43.5 2 0  44.25 2 0  45 2 0  45.75 2 0  46.5 2 0  47.25 2 0  48 2 0  48.75 2 0  49.5 2 0  50.25 2 0  51 2 0  51.75 2 0  52.5 2 0  53.25 2 0  54 2 0  54.75 2 0  55.5 2 0  56.25 2 0  57 2 0  57.75 2 0  58.5 2 0  59.25 2 0  60 2 0  0 2.5 0  0.75 2.5 0  1.5 2.5 0  2.25 2.5 0  3 2.5 0  3.75 2.5 0  4.5 2.5 0  5.25 2.5 0  6 2.5 0  6.75 2.5 0  7.5 2.5 0  8.25 2.5 0  9 2.5 0  9.75 2.5 0  10.5 2.5 0  11.25 2.5 0  12 2.5 0  12.75 2.5 0  13.5 2.5 0  14.25 2.5 0  15 2.5 0  15.75 2.5 0  16.5 2.5 0  17.25 2.5 0  18 2.5 0  18.75 2.5 0  19.5 2.5 0  20.25 2.5 0  21 2.5 0  21.75 2.5 0  22.5 2.5 0  23.25 2.5 0  24 2.5 0  24.75 2.5 0  25.5 2.5 0  26.25 2.5 0  27 2.5 0  27.75 2.5 0  28.5 2.5 0  29.25 2.5 0  30 2.5 0  30.75 2.5 0  31.5 2.5 0  32.25 2.5 0  33 2.5 0  33.75 2.5 0  34.5 2.5 0  35.25 2.5 0  36 2.5 0  36.75 2.5 0  37.5 2.5 0  38.25 2.5 0  39 2.5 0  39.75 2.5 0  40.5 2.5 0  41.25 2.5 0  42 2.5 0  42.75 2.5 0  43.5 2.5 0  44.25 2.5 0  45 2.5 0  45.75 2.5 0  46.5 2.5 0  47.25 2.5 0  48 2.5 0  48.75 2.5 0  49.5 2.5 0  50.25 2.5 0  51 2.5 0  51.75 2.5 0  52.5 2.5 0  53.25 2.5 0  54 2.5 0  54.75 2.5 0  55.5 2.5 0  56.25 2.5 0  57 2.5 0  57.75 2.5 0  58.5 2.5 0  59.25 2.5 0  60 2.5 0  0 3 0  0.75 3 0  1.5 3 0  2.25 3 0  3 3 0  3.75 3 0  4.5 3 0  5.25 3 0  6 3 0  6.75 3 0  7.5 3 0  8.25 3 0  9 3 0  9.75 3 0  10.5 3 0  11.25 3 0  12 3 0  12.75 3 0  13.5 3 0  14.25 3 0  15 3 0  15.75 3 0  16.5 3 0  17.25 3 0  18 3 0  18.75 3 0  19.5 3 0  20.25 3 0  21 3 0  21.75 3 0  22.5 3 0  23.25 3 0  24 3 0  24.75 3 0  25.5 3 0  26.25 3 0  27 3 0  27.75 3 0  28.5 3 0  29.25 3 0  30 3 0  30.75 3 0  31.5 3 0  32.25 3 0  33 3 0  33.75 3 0  34.5 3 0  35.25 3 0  36 3 0  36.75 3 0  37.5 3 0  38.25 3 0  39 3 0  39.75 3 0  40.5 3 0  41.25 3 0  42 3 0  42.75 3 0  43.5 3 0  44.25 3 0  45 3 0  45.75 3 0  46.5 3 0  47.25 3 0  48 3 0  48.75 3 0  49.5 3 0  50.25 3 0  51 3 0  51.75 3 0  52.5 3 0  53.25 3 0  54 3 0  54.75 3 0  55.5 3 0  56.25 3 0  57 3 0  57.75 3 0  58.5 3 0  59.25 3 0  60 3 0  0 3.5 0  0.75 3.5 0  1.5 3.5 0  2.25 3.5 0  3 3.5 0  3.75 3.5 0  4.5 3.5 0  5.25 3.5 0  6 3.5 0  6.75 3.5 0  7.5 3.5 0  8.25 3.5 0  9 3.5 0  9.75 3.5 0  10.5 3.5 0  11.25 3.5 0  12 3.5 0  12.75 3.5 0  13.5 3.5 0  14.25 3.5 0  15 3.5 0  15.75 3.5 0  16.5 3.5 0  17.25 3.5 0  18 3.5 0  18.75 3.5 0  19.5 3.5 0  20.25 3.5 0  21 3.5 0  21.75 3.5 0  22.5 3.5 0  23.25 3.5 0  24 3.5 0  24.75 3.5 0  25.5 3.5 0  26.25 3.5 0  27 3.5 0  27.75 3.5 0  28.5 3.5 0  29.25 3.5 0  30 3.5 0  30.75 3.5 0  31.5 3.5 0  32.25 3.5 0  33 3.5 0  33.75 3.5 0  34.5 3.5 0  35.25 3.5 0  36 3.5 0  36.75 3.5 0  37.5 3.5 0  38.25 3.5 0  39 3.5 0  39.75 3.5 0  40.5 3.5 0  41.25 3.5 0  42 3.5 0  42.75 3.5 0  43.5 3.5 0  44.25 3.5 0  45 3.5 0  45.75 3.5 0  46.5 3.5 0  47.25 3.5 0  48 3.5 0  48.75 3.5 0  49.5 3.5 0  50.25 3.5 0  51 3.5 0  51.75 3.5 0  52.5 3.5 0  53.25 3.5 0  54 3.5 0  54.75 3.5 0  55.5 3.5 0  56.25 3.5 0  57 3.5 0  57.75 3.5 0  58.5 3.5 0  59.25 3.5 0  60 3.5 0  0 4 0  0.75 4 0  1.5 4 0  2.25 4 0  3 4 0  3.75 4 0  4.5 4 0  5.25 4 0  6 4 0  6.75 4 0  7.5 4 0  8.25 4 0  9 4 0  9.75 4 0  10.5 4 0  11.25 4 0  12 4 0  12.75 4 0  13.5 4 0  14.25 4 0  15 4 0  15.75 4 0  16.5 4 0  17.25 4 0  18 4 0  18.75 4 0  19.5 4 0  20.25 4 0  21 4 0  21.75 4 0  22.5 4 0  23.25 4 0  24 4 0  24.75 4 0  25.5 4 0  26.25 4 0  27 4 0  27.75 4 0  28.5 4 0  29.25 4 0  30 4 0  30.75 4 0  31.5 4 0  32.25 4 0  33 4 0  33.75 4 0  34.5 4 0  35.25 4 0  36 4 0  36.75 4 0  37.5 4 0  38.25 4 0  39 4 0  39.75 4 0  40.5 4 0  41.25 4 0  42 4 0  42.75 4 0  43.5 4 0  44.25 4 0  45 4 0  45.75 4 0  46.5 4 0  47.25 4 0  48 4 0  48.75 4 0  49.5 4 0  50.25 4 0  51 4 0  51.75 4 0  52.5 4 0  53.25 4 0  54 4 0  54.75 4 0  55.5 4 0  56.25 4 0  57 4 0  57.75 4 0  58.5 4 0  59.25 4 0  60 4 0  0.375 0.25 0  1.125 0.25 0  1.875 0.25 0  2.625 0.25 0  3.375 0.25 0  4.125 0.25 0  4.875 0.25 0  5.625 0.25 0  6.375 0.25 0  7.125 0.25 0  7.875 0.25 0  8.625 0.25 0  9.375 0.25 0  10.125 0.25 0  10.875 0.25 0  11.625 0.25 0  12.375 0.25 0  13.125 0.25 0  13.875 0.25 0  14.625 0.25 0  15.375 0.25 0  16.125 0.25 0  16.875 0.25 0  17.625 0.25 0  18.375 0.25 0  19.125 0.25 0  19.875 0.25 0  20.625 0.25 0  21.375 0.25 0  22.125 0.25 0  22.875 0.25 0  23.625 0.25 0  24.375 0.25 0  25.125 0.25 0  25.875 0.25 0  26.625 0.25 0  27.375 0.25 0  28.125 0.25 0  28.875 0.25 0  29.625 0.25 0  30.375 0.25 0  31.125 0.25 0  31.875 0.25 0  32.625 0.25 0  33.375 0.25 0  34.125 0.25 0  34.875 0.25 0  35.625 0.25 0  36.375 0.25 0  37.125 0.25 0  37.875 0.25 0  38.625 0.25 0  39.375 0.25 0  40.125 0.25 0  40.875 0.25 0  41.625 0.25 0  42.375 0.25 0  43.125 0.25 0  43.875 0.25 0  44.625 0.25 0  45.375 0.25 0  46.125 0.25 0  46.875 0.25 0  47.625 0.25 0  48.375 0.25 0  49.125 0.25 0  49.875 0.25 0  50.625 0.25 0  51.375 0.25 0  52.125 0.25 0  52.875 0.25 0  53.625 0.25 0  54.375 0.25 0  55.125 0.25 0  55.875 0.25 0  56.625 0.25 0  57.375 0.25 0  58.125 0.25 0  58.875 0.25 0  59.625 0.25 0  0.375 0.75 0  1.125 0.75 0  1.875 0.75 0  2.625 0.75 0  3.375 0.75 0  4.125 0.75 0  4.875 0.75 0  5.625 0.75 0  6.375 0.75 0  7.125 0.75 0  7.875 0.75 0  8.625 0.75 0  9.375 0.75 0  10.125 0.75 0  10.875 0.75 0  11.625 0.75 0  12.375 0.75 0  13.125 0.75 0  13.875 0.75 0  14.625 0.75 0  15.375 0.75 0  16.125 0.75 0  16.875 0.75 0  17.625 0.75 0  18.375 0.75 0  19.125 0.75 0  19.875 0.75 0  20.625 0.75 0  21.375 0.75 0  22.125 0.75 0  22.875 0.75 0  23.625 0.75 0  24.375 0.75 0  25.125 0.75 0  25.875 0.75 0  26.625 0.75 0  27.375 0.75 0  28.125 0.75 0  28.875 0.75 0  29.625 0.75 0  30.375 0.75 0  31.125 0.75 0  31.875 0.75 0  32.625 0.75 0  33.375 0.75 0  34.125 0.75 0  34.875 0.75 0  35.625 0.75 0  36.375 0.75 0  37.125 0.75 0  37.875 0.75 0  38.625 0.75 0  39.375 0.75 0  40.125 0.75 0  40
[...]
<PointData  Vectors="f_8-0"> 
<DataArray  type="Float64"  Name="f_8-0"  NumberOfComponents="3" format="ascii">0.0000000000000000e+00 0.0000000000000000e+00 0.0000000000000000e+00  0.0000000000000000e+00 0.0000000000000000e+00 0.0000000000000000e+00  0.0000000000000000e+00 0.0000000000000000e+00 0.0000000000000000e+00  0.0000000000000000e+00 0.0000000000000000e+00 0.0000000000000000e+00  0.0000000000000000e+00 0.0000000000000000e+00 0.0000000000000000e+00  0.0000000000000000e+00 0.0000000000000000e+00 0.0000000000000000e+00  0.0000000000000000e+00 0.0000000000000000e+00 0.0000000000000000e+00  0.0000000000000000e+00 0.0000000000000000e+00 0.0000000000000000e+00  0.0000000000000000e+00 0.0000000000000000e+00 0.0000000000000000e+00  0.0000000000000000e+00 0.0000000000000000e+00 0.0000000000000000e+00  0.0000000000000000e+00 0.0000000000000000e+00 0.0000000000000000e+00  0.0000000000000000e+00 0.0000000000000000e+00 0.0000000000000000e+00  0.0000000000000000e+00 0.0000000000000000e+00 0.0000000000000000e+00  0.0000000000000000e+00 0.0000000000000000e+00 0.0000000000000000e+00  0.0000000000000000e+00 0.0000000000000000e+00 0.0000000000000000e+00  0.0000000000000000e+00 0.0000000000000000e+00 0.0000000000000000e+00  0.0000000000000000e+00 0.0000000000000000e+00 0.0000000000000000e+00  0.0000000000000000e+00 0.0000000000000000e+00 0.0000000000000000e+00  0.0000000000000000e+00 0.0000000000000000e+00 0.0000000000000000e+00  0.0000000000000000e+00 0.0000000000000000e+00 0.0000000000000000e+00  0.0000000000000000e+00 0.0000000000000000e+00 0.0000000000000000e+00  0.0000000000000000e+00 0.0000000000000000e+00 0.0000000000000000e+00  0.0000000000000000e+00 0.0000000000000000e+00 0.0000000000000000e+00  0.0000000000000000e+00 0.0000000000000000e+00 0.0000000000000000e+00  0.0000000000000000e+00 0.0000000000000000e+00 0.0000000000000000e+00  0.0000000000000000e+00 0.0000000000000000e+00 0.0000000000000000e+00  0.0000000000000000e+00 0.0000000000000000e+00 0.0000000000000000e+00  0.0000000000000000e+00 0.0000000000000000e+00 0.0000000000000000e+00  0.0000000000000000e+00 0.0000000000000000e+00 0.0000000000000000e+00  0.0000000000000000e+00 0.0000000000000000e+00 0.0000000000000000e+00  0.0000000000000000e+00 0.0000000000000000e+00 0.0000000000000000e+00  0.0000000000000000e+00 0.0000000000000000e+00 0.0000000000000000e+00  0.0000000000000000e+00 0.0000000000000000e+00 0.0000000000000000e+00  0.0000000000000000e+00 0.0000000000000000e+00 0.0000000000000000e+00  0.0000000000000000e+00 0.0000000000000000e+00 0.0000000000000000e+00  0.0000000000000000e+00 0.0000000000000000e+00 0.0000000000000000e+00  0.0000000000000000e+00 0.0000000000000000e+00 0.0000000000000000e+00  0.0000000000000000e+00 0.0000000000000000e+00 0.0000000000000000e+00  0.0000000000000000e+00 0.0000000000000000e+00 0.0000000000000000e+00  0.0000000000000000e+00 0.0000000000000000e+00 0.0000000000000000e+00  0.0000000000000000e+00 0.0000000000000000e+00 0.0000000000000000e+00  0.0000000000000000e+00 0.0000000000000000e+00 0.0000000000000000e+00  0.0000000000000000e+00 0.0000000000000000e+00 0.0000000000000000e+00  0.0000000000000000e+00 0.0000000000000000e+00 0.0000000000000000e+00  0.0000000000000000e+00 0.0000000000000000e+00 0.0000000000000000e+00  0.0000000000000000e+00 0.0000000000000000e+00 0.0000000000000000e+00  0.0000000000000000e+00 0.0000000000000000e+00 0.0000000000000000e+00  0.0000000000000000e+00 0.0000000000000000e+00 0.0000000000000000e+00  0.0000000000000000e+00 0.0000000000000000e+00 0.0000000000000000e+00  0.0000000000000000e+00 0.0000000000000000e+00 0.0000000000000000e+00  0.0000000000000000e+00 0.0000000000000000e+00 0.0000000000000000e+00  0.0000000000000000e+00 0.0000000000000000e+00 0.0000000000000000e+00  0.0000000000000000e+00 0.0000000000000000e+00 0.0000000000000000e+00  0.0000000000000000e+00 0.0000000000000000e+00 0.0000000000000000e+00  0.0000000000000000e+00 0.0000000000000000e+00 0.0000000000000000e+00  0.0000000000000000e+00 0.0000000000000000e+00 0.0000000000000000e+00  0.0000000000000000e+00 0.0000000000000000e+00 0.0000000000000000e+00  0.0000000000000000e+00 0.0000000000000000e+00 0.0000000000000000e+00  0.0000000000000000e+00 0.0000000000000000e+00 0.0000000000000000e+00  0.0000000000000000e+00 0.0000000000000000e+00 0.0000000000000000e+00  0.0000000000000000e+00 0.0000000000000000e+00 0.0000000000000000e+00  0.0000000000000000e+00 0.0000000000000000e+00 0.0000000000000000e+00  0.0000000000000000e+00 0.0000000000000000e+00 0.0000000000000000e+00  0.0000000000000000e+00 0.0000000000000000e+00 0.0000000000000000e+00  0.0000000000000000e+00 0.0000000000000000e+00 0.0000000000000000e+00  0.0000000000000000e+00 0.0000000000000000e+00 0.0000000000000000e+00  0.0000000000000000e+00 0.0000000000000000e+00 0.0000000000000000e+00  0.0000000000000000e+00 0.0000000000000000e+00 0.0000000000000000e+00  0.0000000000000000e+00 0.0000000000000000e+00 0.0000000000000000e+00  0.0000000000000000e+00 0.0000000000000000e+00 0.0000000000000000e+00  0.0000000000000000e+00 0.0000000000000000e+00 0.0000000000000000e+00  0.0000000000000000e+00 0.0000000000000000e+00 0.0000000000000000e+00  0.0000000000000000e+00 0.0000000000000000e+00 0.0000000000000000e+00  0.0000000000000000e+00 0.0000000000000000e+00 0.0000000000000000e+00  0.0000000000000000e+00 0.0000000000000000e+00 0.0000000000000000e+00  0.0000000000000000e+00 0.0000000000000000e+00 0.0000000000000000e+00  0.0000000000000000e+00 0.0000000000000000e+00 0.0000000000000000e+00  0.0000000000000000e+00 0.0000000000000000e+00 0.0000000000000000e+00  0.0000000000000000e+00 0.0000000000000000e+00 0.0000000000000000e+00  0.0000000000000000e+00 0.0000000000000000e+00 0.0000000000000000e+00  0.0000000000000000e+00 0.0000000000000000e+00 0.0000000000000000e+00  -2.7601952122248296e+01 0.0000000000000000e+00 0.0000000000000000e+00  -2.7615331360424790e+01 3.7826252348272093e-03 0.0000000000000000e+00  -2.7625945977218080e+01 4.9807154951410793e-03 0.0000000000000000e+00  -2.7630419789283778e+01 4.3054449736608831e-03 0.0000000000000000e+00  -2.7632223824820461e+01 3.5644965071364586e-03 0.0000000000000000e+00  -2.7632593185729082e+01 3.0554663034139226e-03 0.0000000000000000e+00  -2.7632152365160547e+01 2.7504275170089159e-03 0.0000000000000000e+00  -2.7631239512148127e+01 2.5625860792154761e-03 0.0000000000000000e+00  -2.7630063830886904e+01 2.4656245939507510e-03 0.0000000000000000e+00  -2.7628866694985248e+01 2.4760514549996659e-03 0.0000000000000000e+00  -2.7627880402494760e+01 2.5719222329167323e-03 0.0000000000000000e+00  -2.7627203502362697e+01 2.6934982815037135e-03 0.0000000000000000e+00  -2.7626801707506004e+01 2.7957406408331254e-03 0.0000000000000000e+00  -2.7626588320846434e+01 2.8638984816104600e-03 0.0000000000000000e+00  -2.7626483967000109e+01 2.9029907976403416e-03 0.0000000000000000e+00  -2.7626435758934388e+01 2.9230802094837014e-03 0.0000000000000000e+00  -2.7626414167434067e+01 2.9326996280409387e-03 0.0000000000000000e+00  -2.7626404565683792e+01 2.9370840713948397e-03 0.0000000000000000e+00  -2.7626400237155657e+01 2.9390575132475457e-03 0.0000000000000000e+00  -2.7626398240523166e+01 2.9399398426618976e-03 0.0000000000000000e+00  -2.7626397293997616e+01 2.9403461970632936e-03 0.0000000000000000e+00  -2.7626396836534727e+01 2.9405338977035542e-03 0.0000000000000000e+00  -2.7626396611214904e+01 2.9406246768842823e-03 0.0000000000000000e+00  -2.7626396499648376e+01 2.9406678929504299e-03 0.0000000000000000e+00  -2.7626396443708220e+01 2.9406896224136270e-03 0.0000000000000000e+00  -2.7626396415840116e+01 2.9407000808575568e-03 0.0000000000000000e+00  -2.7626396401769650e+01 2.9407054899722330e-03 0.0000000000000000e+00  -2.7626396394793609e+01 2.9407080738785133e-03 0.0000000000000000e+00  -2.7626396391258748e+01 2.9407094403580115e-03 0.0000000000000000e+00  -2.7626396389525073e+01 2.9407100799536887e-03 0.0000000000000000e+00  -2.7626396388643371e+01 2.9407104243520704e-03 0.0000000000000000e+00  -2.7626396388218115e+01 2.9407105840386829e-03 0.0000000000000000e+00  -2.7626396387999563e+01 2.9407106679705860e-03 0.0000000000000000e+00  -2.7626396387895053e+01 2.9407107084862220e-03 0.0000000000000000e+00  -2.7626396387840028e+01 2.9407107284870420e-03 0.0000000000000000e+00  -2.7626396387814328e+01 2.9407107395485353e-03 0.0000000000000000e+00  -2.7626396387801130e+01 2.9407107442842488e-03 0.0000000000000000e+00  -2.7626396387796081e+01 2.9407107479037303e-03 0.0000000000000000e+00  -2.7626396387792859e+01 2.9407107472449326e-03 0.0000000000000000e+00  -2.7626396387790571e+01 2.9407107483697742e-03 0.0000000000000000e+00  -2.7626396387790361e+01 2.9407107488270512e-03 0.0000000000000000e+00  -2.7626396387790386e+01 2.9407107493071897e-03 0.0000000000000000e+00  -2.7626396387790148e+01 2.9407107490886479e-03 0.0000000000000000e+00  -2.7626396387789590e+01 2.9407107489473482e-03 0.0000000000000000e+00  -2.7626396387789267e+01 2.9407107492720281e-03 0.0000000000000000e+00  -2.7626396387789764e+01 2.9407107494634072e-03 0.0000000000000000e+00  -2.7626396387788038e+01 2.9407107489847831e-03 0.0000000000000000e+00  -2.7626396387788869e+01 2.9407107490690533e-03 0.0000000000000000e+00  -2.7626396387780716e+01 2.9407107494538636e-03 0.0000000000000000e+00  -2.7626396387787839e+01 2.9407107449969053e-03 0.0000000000000000e+00  -2.7626396387744112e+01 2.9407107513422515e-03 0.0000000000000000e+00  -2.7626396387799435e+01 2.9407107272332814e-03 0.0000000000000000e+00  -2.7626396387563087e+01 2.9407107668816372e-03 0.0000000000000000e+00  -2.7626396387927546e+01 2.9407106383237003e-03 0.0000000000000000e+00  -2.7626396386641435e+01 2.9407108669821532e-03 0.0000000000000000e+00  -2.7626396388857522e+01 2.9407101908430502e-03 0.0000000000000000e+00  -2.7626396381923850e+01 2.9407114505043399e-03 0.0000000000000000e+00  -2.7626396394692968e+01 2.9407079827705848e-03 0.0000000000000000e+00  -2.7626396358125906e+01 2.9407145745634767e-03 0.0000000000000000e+00  -2.7626396427747611e+01 2.9406974544088850e-03 0.0000000000000000e+00  -2.7626396241901215e+01 2.9407300367226465e-03 0.0000000000000000e+00  -2.7626396598259209e+01 2.9406495888693422e-03 0.0000000000000000e+00  -2.7626395704551506e+01 2.9408007172646083e-03 0.0000000000000000e+00  -2.7626397389950224e+01 2.9404443540752274e-03 0.0000000000000000e+00  -2.7626393419192929e+01 2.9411008444976197e-03 0.0000000000000000e+00  -2.7626400599713349e+01 2.9396129148203604e-03 0.0000000000000000e+00  -2.7626384810140216e+01 2.9423242832167327e-03 0.0000000000000000e+00  -2.7626411332642459e+01 2.9363224318451142e-03 0.0000000000000000e+00  -2.7626357342926990e+01 2.9474535681412255e-03 0.0000000000000000e+00  -2.7626437611322419e+01 2.9225704715935543e-03 0.0000000000000000e+00  -2.7626283014860054e+01 2.9694431535094257e-03 0.0000000000000000e+00  -2.7626462279891392e+01 2.8555672568002523e-03 0.0000000000000000e+00  -2.7626041899575867e+01 3.0301189215001740e-03 0.0000000000000000e+00  -2.7626169080760409e+01 2.4405431323300227e-03 0.0000000000000000e+00  -2.7624710986067139e+01 2.8461565545138063e-03 0.0000000000000000e+00  -2.7624117629957425e+01 9.7093450212718858e-04 0.0000000000000000e+00  -2.7625685098678780e+01 6.3870750943124102e-03 0.0000000000000000e+00  -2.7634130958800647e+01 1.2717839547419701e-02 0.0000000000000000e+00  -2.7647968851379954e+01 2.8853290606632526e-02 0.0000000000000000e+00  -2.7626539641360502e+01 4.6504053634927295e-02 0.0000000000000000e+00  -2.7628063938339771e+01 0.0000000000000000e+00 0.0000000000000000e+00  -3.0477100105966258e+01 0.0000000000000000e+00 0.0000000000000000e+00  -3.0472583327076098e+01 8.6879538231087530e-03 0.0000000000000000e+00  -3.0471820931928971e+01 6.0544828301535144e-03 0.0000000000000000e+00  -3.0471507756638712e+01 3.6763340424439159e-03 0.0000000000000000e+00  -3.0470993433621260e+01 2.1221004601262600e-03 0.0000000000000000e+00  -3.0470375630068855e+01 1.1719204870767341e-03 0.0000000000000000e+00  -3.0469701799226794e+01 6.3061578003493395e-04 0.0000000000000000e+00  -3.0469008165884652e+01 2.9628209876256793e-04 0.0000000000000000e+00  -3.0468287002560245e+01 1.5557495403979114e-04 0.0000000000000000e+00  -3.0467639839060684e+01 2.8536103763897146e-04 0.0000000000000000e+00  -3.0467206610169079e+01 5.9134318757472380e-04 0.0000000000000000e+00  -3.0466994432030056e+01 8.9954985255330468e-04 0.0000000000000000e+00  -3.0466917656278355e+01 1.1222133325742528e-03 0.0000000000000000e+00  -3.0466899271829842e+01 1.2543812962282764e-03 0.0000000000000000e+00  -3.0466898715478123e+01 1.3237398854336869e-03 0.0000000000000000e+00  -3.0466901154527285e+01 1.3570770530508410e-03 0.0000000000000000e+00  -3.0466902800137646e+01 1.3723821968499583e-03 0.0000000000000000e+00  -3.0466903532850957e+01 1.3792143774607650e-03 0.0000000000000000e+00  -3.0466903759524186e+01 1.3823034247069702e-03 0.0000000000000000e+00  -3.0466903809595472e+01 1.3837026113176266e-03 0.0000000000000000e+00  -3.0466903802838051e+01 1.3843637512374266e-03 0.0000000000000000e+00  -3.0466903792444143e+01 1.3846730141024565e-03 0.0000000000000000e+00  -3.0466903782687268e+01 1.3848258858994219e-03 0.0000000000000000e+00  -3.0466903777947280e+01 1.3848985751609550e-03 0.0000000000000000e+00  -3.0466903774728671e+01 1.3849358164457865e-03 0.0000000000000000e+00  -3.0466903773454227e+01 1.3849535135181080e-03 0.0000000000000000e+00  -3.0466903772593579e+01 1.3849628613586550e-03 0.0000000000000000e+00  -3.0466903772303670e+01 1.3849672245056139e-03 0.0000000000000000e+00  -3.0466903772095240e+01 1.3849695950532170e-03 0.0000000000000000e+00  -3.0466903772029706e+01 1.3849706684465268e-03 0.0000000000000000e+00  -3.0466903771986647e+01 1.3849712643793351e-03 0.0000000000000000e+00  -3.0466903771968131e+01 1.3849715316838795e-03 0.0000000000000000e+00  -3.0466903771961011e+01 1.3849716770782073e-03 0.0000000000000000e+00  -3.0466903771953522e+01 1.3849717449394582e-03 0.0000000000000000e+00  -3.0466903771954929e+01 1.3849717778353569e-03 0.0000000000000000e+00  -3.0466903771947990e+01 1.3849717978157308e-03 0.0000000000000000e+00  -3.0466903771951447e+01 1.3849718036284349e-03 0.0000000000000000e+00  -3.0466903771948886e+01 1.3849718103404738e-03 0.0000000000000000e+00  -3.0466903771951149e+01 1.3849718101690595e-03 0.0000000000000000e+00  -3.0466903771949593e+01 1.3849718133155018e-03 0.0000000000000000e+00  -3.0466903771951504e+01 1.3849718116128679e-03 0.0000000000000000e+00  -3.0466903771951003e+01 1.3849718135340711e-03 0.0000000000000000e+00  -3.0466903771950623e+01 1.3849718133342455e-03 0.0000000000000000e+00  -3.0466903771950733e+01 1.3849718130420272e-03 0.0000000000000000e+00  -3.0466903771951056e+01 1.3849718125951308e-03 0.0000000000000000e+00  -3.0466903771949681e+01 1.3849718123960626e-03 0.0000000000000000e+00  -3.0466903771949902e+01 1.3849718122636366e-03 0.0000000000000000e+00  -3.0466903771945162e+01 1.3849718112517650e-03 0.0000000000000000e+00  -3.0466903771950086e+01 1.3849718076377709e-03 0.0000000000000000e+00  -3.0466903771924201e+01 1.3849718041259341e-03 0.0000000000000000e+00  -3.0466903771957650e+01 1.3849717943024630e-03 0.0000000000000000e+00  -3.0466903771819915e+01 1.3849717768479803e-03 0.0000000000000000e+00  -3.0466903772030598e+01 1.3849717375585672e-03 0.0000000000000000e+00  -3.0466903771299773e+01 1.3849716596616346e-03 0.0000000000000000e+00  -3.0466903772540679e+01 1.3849715208458758e-03 0.0000000000000000e+00  -3.0466903768697012e+01 1.3849711295624862e-03 0.0000000000000000e+00  -3.0466903775619695e+01 1.3849707337254533e-03 0.0000000000000000e+00  -3.0466903755920161e+01 1.3849686390240768e-03 0.0000000000000000e+00  -3.0466903792392390e+01 1.3849682456105177e-03 0.0000000000000000e+00  -3.0466903695483882e+01 1.3849564642681731e-03 0.0000000000000000e+00  -3.0466903875371678e+01 1.3849626786179398e-03 0.0000000000000000e+00  -3.0466903425755003e+01 1.3848960241506193e-03 0.0000000000000000e+00  -3.0466904243219254e+01 1.3849648461893985e-03 0.0000000000000000e+00  -3.0466902319554666e+01 1.3846020710449611e-03 0.0000000000000000e+00  -3.0466905657498785e+01 1.3850820641272434e-03 0.0000000000000000e+00  -3.0466898286716550e+01 1.3832623352276131e-03 0.0000000000000000e+00  -3.0466910082386271e+01 1.3858588751287952e-03 0.0000000000000000e+00  -3.0466885681640516e+01 1.3778170497867972e-03 0.0000000000000000e+00  -3.0466919809446502e+01 1.3886283833315092e-03 0.0000000000000000e+00  -3.0466851998298342e+01 1.3586225852073365e-03 0.0000000000000000e+00  -3.0466926673072717e+01 1.3870237415180102e-03 0.0000000000000000e+00  -3.0466760745773726e+01 1.2886484613143002e-03 0.0000000000000000e+00  -3.0466881184035199e+01 1.2597181918762609e-03 0.0000000000000000e+00  -3.0466468064175412e+01 9.0185979193441071e-04 0.0000000000000000e+00  -3.0466924755378948e+01 3.2017935725565943e-04 0.0000000000000000e+00  -3.0465907250838480e+01 4.2215715073098020e-04 0.0000000000000000e+00  -3.0465531357923510e+01 2.1041090323771199e-03 0.0000000000000000e+00  -3.0446721838157213e+01 2.5519657060208692e-03 0.0000000000000000e+00  -3.0428201744132139e+01 2.1760350371512788e-03 0.0000000000000000e+00  -3.0397779321471756e+01 -1.2075289360520079e-02 0.0000000000000000e+00  -3.0447788406805646e+01 0.0000000000000000e+00 0.0000000000000000e+00  -2.8099687446059928e+01 0.0000000000000000e+00 0.0000000000000000e+00  -2.8087622910347044e+01 4.0355343576551810e-03 0.0000000000000000e+00  -2.8080508153814016e+01 2.1160497963621924e-03 0.0000000000000000e+00  -2.8077167447805817e+01 2.5906966886048128e-04 0.0000000000000000e+00  -2.8075887999261074e+01 -9.1881884962127282e-04 0.0000000000000000e+00  -2.8075733833412748e+01 -1.6308255403173985e-03 0.0000000000000000e+00  -2.8076205089055691e+01 -2.0322420880509533e-03 0.0000000000000000e+00  -2.8077037070246337e+01 -2.2803009710950940e-03 0.0000000000000000e+00  -2.8078067609854898e+01 -2.4008619306760716e-03 0.0000000000000000e+00  -2.8079074699493191e+01 -2.2760740272805193e-03 0.0000000000000000e+00  -2.8079867610451878e+01 -1.9759786700039653e-03 0.0000000000000000e+00  -2.8080390101697073e+01 -1.6834596548826678e-03 0.0000000000000000e+00  -2.8080690833439714e+01 -1.4845743039094898e-03 0.0000000000000000e+00  -2.8080847228190454e+01 -1.3739715162934220e-03 0.0000000000000000e+00  -2.8080923062864077e+01 -1.3193847242569526e-03 0.0000000000000000e+00  -2.8080958160864938e+01 -1.2944270597231630e-03 0.0000000000000000e+00  -2.8080974095491406e+01 -1.2833891901436209e-03 0.0000000000000000e+00  -2.8080981293999542e+01 -1.2785366034578118e-03 0.0000000000000000e+00  -2.8080984601946440e+01 -1.2763411961936755e-03 0.0000000000000000e+00  -2.8080986139143793e+01 -1.2753275488666753e-03 0.0000000000000000e+00  -2.8080986875144266e+01 -1.2748418711236930e-03 0.0000000000000000e+00  -2.8080987228208425e+01 -1.2746094912768429e-03 0.0000000000000000e+00  -2.8080987403378664e+01 -1.2744944580982975e-03 0.0000000000000000e+00  -2.8080987488702558e+01 -1.2744386890524326e-03 0.0000000000000000e+00  -2.8080987532111923e+01 -1.2744104621863254e-03 0.0000000000000000e+00  -2.8080987553187455e+01 -1.2743967293720592e-03 0.0000000000000000e+00  -2.8080987564134105e+01 -1.2743896551698226e-03 0.0000000000000000e+00  -2.8080987569341342e+01 -1.2743862486053251e-03 0.0000000000000000e+00  -2.8080987572113660e+01 -1.2743844636607764e-03 0.0000000000000000e+00  -2.8080987573387944e+01 -1.2743836223025968e-03 0.0000000000000000e+00  -2.8080987574087413e+01 -1.2743831758167679e-03 0.0000000000000000e+00  -2.8080987574395671e+01 -1.2743829695174356e-03 0.0000000000000000e+00  -2.8080987574570607e+01 -1.2743828581042078e-03 0.0000000000000000e+00  -2.8080987574645455e+01 -1.2743828090902409e-03 0.0000000000000000e+00  -2.8080987574687686e+01 -1.2743827816562464e-03 0.0000000000000000e+00  -2.8080987574707269e+01 -1.2743827681139586e-03 0.0000000000000000e+00  -2.8080987574716072e+01 -1.2743827614632420e-03 0.0000000000000000e+00  -2.8080987574721291e+01 -1.2743827564925692e-03 0.0000000