<?xml version="1.0"?>
<VTKFile type="UnstructuredGrid"  version="0.1"  >
<UnstructuredGrid>
<Piece  NumberOfPoints="1369" NumberOfCells="2560">
<Points>
<DataArray  type="Float64"  NumberOfComponents="3"  format="ascii">0 0 0  0.75 0 0  1.5 0 0  2.25 0 0  3 0 0  3.75 0 0  4.5 0 0  5.25 0 0  6 0 0  6.75 0 0  7.5 0 0  8.25 0 0  9 0 0  9.75 0 0  10.5 0 0  11.25 0 0  12 0 0  12.75 0 0  13.5 0 0  14.25 0 0  15 0 0  15.75 0 0  16.5 0 0  17.25 0 0  18 0 0  18.75 0 0  19.5 0 0  20.25 0 0  21 0 0  21.75 0 0  22.5 0 0  23.25 0 0  24 0 0  24.75 0 0  25.5 0 0  26.25 0 0  27 0 0  27.75 0 0  28.5 0 0  29.25 0 0  30 0 0  30.75 0 0  31.5 0 0  32.25 0 0  33 0 0  33.75 0 0  34.5 0 0  35.25 0 0  36 0 0  36.75 0 0  37.5 0 0  38.25 0 0  39 0 0  39.75 0 0  40.5 0 0  41.25 0 0  42 0 0  42.75 0 0  43.5 0 0  44.25 0 0  45 0 0  45.75 0 0  46.5 0 0  47.25 0 0  48 0 0  48.75 0 0  49.5 0 0  50.25 0 0  51 0 0  51.75 0 0  52.5 0 0  53.25 0 0  54 0 0  54.75 0 0  55.5 0 0  56.25 0 0  57 0 0  57.75 0 0  58.5 0 0  59.25 0 0  60 0 0  0 0.5 0  0.75 0.5 0  1.5 0.5 0  2.25 0.5 0  3 0.5 0  3.75 0.5 0  4.5 0.5 0  5.25 0.5 0  6 0.5 0  6.75 0.5 0  7.5 0.5 0  8.25 0.5 0  9 0.5 0  9.75 0.5 0  10.5 0.5 0  11.25 0.5 0  12 0.5 0  12.75 0.5 0  13.5 0.5 0  14.25 0.5 0  15 0.5 0  15.75 0.5 0  16.5 0.5 0  17.25 0.5 0  18 0.5 0  18.75 0.5 0  19.5 0.5 0  20.25 0.5 0  21 0.5 0  21.75 0.5 0  22.5 0.5 0  23.25 0.5 0  24 0.5 0  24.75 0.5 0  25.5 0.5 0  26.25 0.5 0  27 0.5 0  27.75 0.5 0  28.5 0.5 0  29.25 0.5 0  30 0.5 0  30.75 0.5 0  31.5 0.5 0  32.25 0.5 0  33 0.5 0  33.75 0.5 0  34.5 0.5 0  35.25 0.5 0  36 0.5 0  36.75 0.5 0  37.5 0.5 0  38.25 0.5 0  39 0.5 0  39.75 0.5 0  40.5 0.5 0  41.25 0.5 0  42 0.5 0  42.75 0.5 0  43.5 0.5 0  44.25 0.5 0  45 0.5 0  45.75 0.5 0  46.5 0.5 0  47.25 0.5 0  48 0.5 0  48.75 0.5 0  49.5 0.5 0  50.25 0.5 0  51 0.5 0  51.75 0.5 0  52.5 0.5 0  53.25 0.5 0  54 0.5 0  54.75 0.5 0  55.5 0.5 0  56.25 0.5 0  57 0.5 0  57.75 0.5 0  58.5 0.5 0  59.25 0.5 0  60 0.5 0  0 1 0  0.75 1 0  1.5 1 0  2.25 1 0  3 1 0  3.75 1 0  4.5 1 0  5.25 1 0  6 1 0  6.75 1 0  7.5 1 0  8.25 1 0  9 1 0  9.75 1 0  10.5 1 0  11.25 1 0  12 1 0  12.75 1 0  13.5 1 0  14.25 1 0  15 1 0  15.75 1 0  16.5 1 0  17.25 1 0  18 1 0  18.75 1 0  19.5 1 0  20.25 1 0  21 1 0  21.75 1 0  22.5 1 0  23.25 1 0  24 1 0  24.75 1 0  25.5 1 0  26.25 1 0  27 1 0  27.75 1 0  28.5 1 0  29.25 1 0  30 1 0  30.75 1 0  31.5 1 0  32.25 1 0  33 1 0  33.75 1 0  34.5 1 0  35.25 1 0  36 1 0  36.75 1 0  37.5 1 0  38.25 1 0  39 1 0  39.75 1 0  40.5 1 0  41.25 1 0  42 1 0  42.75 1 0  43.5 1 0  44.25 1 0  45 1 0  45.75 1 0  46.5 1 0  47.25 1 0  48 1 0  48.75 1 0  49.5 1 0  50.25 1 0  51 1 0  51.75 1 0  52.5 1 0  53.25 1 0  54 1 0  54.75 1 0  55.5 1 0  56.25 1 0  57 1 0  57.75 1 0  58.5 1 0  59.25 1 0  60 1 0  0 1.5 0  0.75 1.5 0  1.5 1.5 0  2.25 1.5 0  3 1.5 0  3.75 1.5 0  4.5 1.5 0  5.25 1.5 0  6 1.5 0  6.75 1.5 0  7.5 1.5 0  8.25 1.5 0  9 1.5 0  9.75 1.5 0  10.5 1.5 0  11.25 1.5 0  12 1.5 0  12.75 1.5 0  13.5 1.5 0  14.25 1.5 0  15 1.5 0  15.75 1.5 0  16.5 1.5 0  17.25 1.5 0  18 1.5 0  18.75 1.5 0  19.5 1.5 0  20.25 1.5 0  21 1.5 0  21.75 1.5 0  22.5 1.5 0  23.25 1.5 0  24 1.5 0  24.75 1.5 0  25.5 1.5 0  26.25 1.5 0  27 1.5 0  27.75 1.5 0  28.5 1.5 0  29.25 1.5 0  30 1.5 0  30.75 1.5 0  31.5 1.5 0  32.25 1.5 0  33 1.5 0  33.75 1.5 0  34.5 1.5 0  35.25 1.5 0  36 1.5 0  36.75 1.5 0  37.5 1.5 0  38.25 1.5 0  39 1.5 0  39.75 1.5 0  40.5 1.5 0  41.25 1.5 0  42 1.5 0  42.75 1.5 0  43.5 1.5 0  44.25 1.5 0  45 1.5 0  45.75 1.5 0  46.5 1.5 0  47.25 1.5 0  48 1.5 0  48.75 1.5 0  49.5 1.5 0  50.25 1.5 0  51 1.5 0  51.75 1.5 0  52.5 1.5 0  53.25 1.5 0  54 1.5 0  54.75 1.5 0  55.5 1.5 0  56.25 1.5 0  57 1.5 0  57.75 1.5 0  58.5 1.5 0  59.25 1.5 0  60 1.5 0  0 2 0  0.75 2 0  1.5 2 0  2.25 2 0  3 2 0  3.75 2 0  4.5 2 0  5.25 2 0  6 2 0  6.75 2 0  7.5 2 0  8.25 2 0  9 2 0  9.75 2 0  10.5 2 0  11.25 2 0  12 2 0  12.75 2 0  13.5 2 0  14.25 2 0  15 2 0  15.75 2 0  16.5 2 0  17.25 2 0  18 2 0  18.75 2 0  19.5 2 0  20.25 2 0  21 2 0  21.75 2 0  22.5 2 0  23.25 2 0  24 2 0  24.75 2 0  25.5 2 0  26.25 2 0  27 2 0  27.75 2 0  28.5 2 0  29.25 2 0  30 2 0  30.75 2 0  31.5 2 0  32.25 2 0  33 2 0  33.75 2 0  34.5 2 0  35.25 2 0  36 2 0  36.75 2 0  37.5 2 0  38.25 2 0  39 2 0  39.75 2 0  40.5 2 0  41.25 2 0  42 2 0  42.75 2 0  43.5 2 0  44.25 2 0  45 2 0  45.75 2 0  46.5 2 0  47.25 2 0  48 2 0  48.75 2 0  49.5 2 0  50.25 2 0  51 2 0  51.75 2 0  52.5 2 0  53.25 2 0  54 2 0  54.75 2 0  55.5 2 0  56.25 2 0  57 2 0  57.75 2 0  58.5 2 0  59.25 2 0  60 2 0  0 2.5 0  0.75 2.5 0  1.5 2.5 0  2.25 2.5 0  3 2.5 0  3.75 2.5 0  4.5 2.5 0  5.25 2.5 0  6 2.5 0  6.75 2.5 0  7.5 2.5 0  8.25 2.5 0  9 2.5 0  9.75 2.5 0  10.5 2.5 0  11.25 2.5 0  12 2.5 0  12.75 2.5 0  13.5 2.5 0  14.25 2.5 0  15 2.5 0  15.75 2.5 0  16.5 2.5 0  17.25 2.5 0  18 2.5 0  18.75 2.5 0  19.5 2.5 0  20.25 2.5 0  21 2.5 0  21.75 2.5 0  22.5 2.5 0  23.25 2.5 0  24 2.5 0  24.75 2.5 0  25.5 2.5 0  26.25 2.5 0  27 2.5 0  27.75 2.5 0  28.5 2.5 0  29.25 2.5 0  30 2.5 0  30.75 2.5 0  31.5 2.5 0  32.25 2.5 0  33 2.5 0  33.75 2.5 0  34.5 2.5 0  35.25 2.5 0  36 2.5 0  36.75 2.5 0  37.5 2.5 0  38.25 2.5 0  39 2.5 0  39.75 2.5 0  40.5 2.5 0  41.25 2.5 0  42 2.5 0  42.75 2.5 0  43.5 2.5 0  44.25 2.5 0  45 2.5 0  45.75 2.5 0  46.5 2.5 0  47.25 2.5 0  48 2.5 0  48.75 2.5 0  49.5 2.5 0  50.25 2.5 0  51 2.5 0  51.75 2.5 0  52.5 2.5 0  53.25 2.5 0  54 2.5 0  54.75 2.5 0  55.5 2.5 0  56.25 2.5 0  57 2.5 0  57.75 2.5 0  58.5 2.5 0  59.25 2.5 0  60 2.5 0  0 3 0  0.75 3 0  1.5 3 0  2.25 3 0  3 3 0  3.75 3 0  4.5 3 0  5.25 3 0  6 3 0  6.75 3 0  7.5 3 0  8.25 3 0  9 3 0  9.75 3 0  10.5 3 0  11.25 3 0  12 3 0  12.75 3 0  13.5 3 0  14.25 3 0  15 3 0  15.75 3 0  16.5 3 0  17.25 3 0  18 3 0  18.75 3 0  19.5 3 0  20.25 3 0  21 3 0  21.75 3 0  22.5 3 0  23.25 3 0  24 3 0  24.75 3 0  25.5 3 0  26.25 3 0  27 3 0  27.75 3 0  28.5 3 0  29.25 3 0  30 3 0  30.75 3 0  31.5 3 0  32.25 3 0  33 3 0  33.75 3 0  34.5 3 0  35.25 3 0  36 3 0  36.75 3 0  37.5 3 0  38.25 3 0  39 3 0  39.75 3 0  40.5 3 0  41.25 3 0  42 3 0  42.75 3 0  43.5 3 0  44.25 3 0  45 3 0  45.75 3 0  46.5 3 0  47.25 3 0  48 3 0  48.75 3 0  49.5 3 0  50.25 3 0  51 3 0  51.75 3 0  52.5 3 0  53.25 3 0  54 3 0  54.75 3 0  55.5 3 0  56.25 3 0  57 3 0  57.75 3 0  58.5 3 0  59.25 3 0  60 3 0  0 3.5 0  0.75 3.5 0  1.5 3.5 0  2.25 3.5 0  3 3.5 0  3.75 3.5 0  4.5 3.5 0  5.25 3.5 0  6 3.5 0  6.75 3.5 0  7.5 3.5 0  8.25 3.5 0  9 3.5 0  9.75 3.5 0  10.5 3.5 0  11.25 3.5 0  12 3.5 0  12.75 3.5 0  13.5 3.5 0  14.25 3.5 0  15 3.5 0  15.75 3.5 0  16.5 3.5 0  17.25 3.5 0  18 3.5 0  18.75 3.5 0  19.5 3.5 0  20.25 3.5 0  21 3.5 0  21.75 3.5 0  22.5 3.5 0  23.25 3.5 0  24 3.5 0  24.75 3.5 0  25.5 3.5 0  26.25 3.5 0  27 3.5 0  27.75 3.5 0  28.5 3.5 0  29.25 3.5 0  30 3.5 0  30.75 3.5 0  31.5 3.5 0  32.25 3.5 0  33 3.5 0  33.75 3.5 0  34.5 3.5 0  35.25 3.5 0  36 3.5 0  36.75 3.5 0  37.5 3.5 0  38.25 3.5 0  39 3.5 0  39.75 3.5 0  40.5 3.5 0  41.25 3.5 0  42 3.5 0  42.75 3.5 0  43.5 3.5 0  44.25 3.5 0  45 3.5 0  45.75 3.5 0  46.5 3.5 0  47.25 3.5 0  48 3.5 0  48.75 3.5 0  49.5 3.5 0  50.25 3.5 0  51 3.5 0  51.75 3.5 0  52.5 3.5 0  53.25 3.5 0  54 3.5 0  54.75 3.5 0  55.5 3.5 0  56.25 3.5 0  57 3.5 0  57.75 3.5 0  58.5 3.5 0  59.25 3.5 0  60 3.5 0  0 4 0  0.75 4 0  1.5 4 0  2.25 4 0  3 4 0  3.75 4 0  4.5 4 0  5.25 4 0  6 4 0  6.75 4 0  7.5 4 0  8.25 4 0  9 4 0  9.75 4 0  10.5 4 0  11.25 4 0  12 4 0  12.75 4 0  13.5 4 0  14.25 4 0  15 4 0  15.75 4 0  16.5 4 0  17.25 4 0  18 4 0  18.75 4 0  19.5 4 0  20.25 4 0  21 4 0  21.75 4 0  22.5 4 0  23.25 4 0  24 4 0  24.75 4 0  25.5 4 0  26.25 4 0  27 4 0  27.75 4 0  28.5 4 0  29.25 4 0  30 4 0  30.75 4 0  31.5 4 0  32.25 4 0  33 4 0  33.75 4 0  34.5 4 0  35.25 4 0  36 4 0  36.75 4 0  37.5 4 0  38.25 4 0  39 4 0  39.75 4 0  40.5 4 0  41.25 4 0  42 4 0  42.75 4 0  43.5 4 0  44.25 4 0  45 4 0  45.75 4 0  46.5 4 0  47.25 4 0  48 4 0  48.75 4 0  49.5 4 0  50.25 4 0  51 4 0  51.75 4 0  52.5 4 0  53.25 4 0  54 4 0  54.75 4 0  55.5 4 0  56.25 4 0  57 4 0  57.75 4 0  58.5 4 0  59.25 4 0  60 4 0  0.375 0.25 0  1.125 0.25 0  1.875 0.25 0  2.625 0.25 0  3.375 0.25 0  4.125 0.25 0  4.875 0.25 0  5.625 0.25 0  6.375 0.25 0  7.125 0.25 0  7.875 0.25 0  8.625 0.25 0  9.375 0.25 0  10.125 0.25 0  10.875 0.25 0  11.625 0.25 0  12.375 0.25 0  13.125 0.25 0  13.875 0.25 0  14.625 0.25 0  15.375 0.25 0  16.125 0.25 0  16.875 0.25 0  17.625 0.25 0  18.375 0.25 0  19.125 0.25 0  19.875 0.25 0  20.625 0.25 0  21.375 0.25 0  22.125 0.25 0  22.875 0.25 0  23.625 0.25 0  24.375 0.25 0  25.125 0.25 0  25.875 0.25 0  26.625 0.25 0  27.375 0.25 0  28.125 0.25 0  28.875 0.25 0  29.625 0.25 0  30.375 0.25 0  31.125 0.25 0  31.875 0.25 0  32.625 0.25 0  33.375 0.25 0  34.125 0.25 0  34.875 0.25 0  35.625 0.25 0  36.375 0.25 0  37.125 0.25 0  37.875 0.25 0  38.625 0.25 0  39.375 0.25 0  40.125 0.25 0  40.875 0.25 0  41.625 0.25 0  42.375 0.25 0  43.125 0.25 0  43.875 0.25 0  44.625 0.25 0  45.375 0.25 0  46.125 0.25 0  46.875 0.25 0  47.625 0.25 0  48.375 0.25 0  49.125 0.25 0  49.875 0.25 0  50.625 0.25 0  51.375 0.25 0  52.125 0.25 0  52.875 0.25 0  53.625 0.25 0  54.375 0.25 0  55.125 0.25 0  55.875 0.25 0  56.625 0.25 0  57.375 0.25 0  58.125 0.25 0  58.875 0.25 0  59.625 0.25 0  0.375 0.75 0  1.125 0.75 0  1.875 0.75 0  2.625 0.75 0  3.375 0.75 0  4.125 0.75 0  4.875 0.75 0  5.625 0.75 0  6.375 0.75 0  7.125 0.75 0  7.875 0.75 0  8.625 0.75 0  9.375 0.75 0  10.125 0.75 0  10.875 0.75 0  11.625 0.75 0  12.375 0.75 0  13.125 0.75 0  13.875 0.75 0  14.625 0.75 0  15.375 0.75 0  16.125 0.75 0  16.875 0.75 0  17.625 0.75 0  18.375 0.75 0  19.125 0.75 0  19.875 0.75 0  20.625 0.75 0  21.375 0.75 0  22.125 0.75 0  22.875 0.75 0  23.625 0.75 0  24.375 0.75 0  25.125 0.75 0  25.875 0.75 0  26.625 0.75 0  27.375 0.75 0  28.125 0.75 0  28.875 0.75 0  29.625 0.75 0  30.375 0.75 0  31.125 0.75 0  31.875 0.75 0  32.625 0.75 0  33.375 0.75 0  34.125 0.75 0  34.875 0.75 0  35.625 0.75 0  36.375 0.75 0  37.125 0.75 0  37.875 0.75 0  38.625 0.75 0  39.375 0.75 0  40.125 0.75 0  40
[...]
<PointData  Vectors="f_8-0"> 
<DataArray  type="Float64"  Name="f_8-0"  NumberOfComponents="3" format="ascii">0.0000000000000000e+00 0.0000000000000000e+00 0.0000000000000000e+00  0.0000000000000000e+00 0.0000000000000000e+00 0.0000000000000000e+00  0.0000000000000000e+00 0.0000000000000000e+00 0.0000000000000000e+00  0.0000000000000000e+00 0.0000000000000000e+00 0.0000000000000000e+00  0.0000000000000000e+00 0.0000000000000000e+00 0.0000000000000000e+00  0.0000000000000000e+00 0.0000000000000000e+00 0.0000000000000000e+00  0.0000000000000000e+00 0.0000000000000000e+00 0.0000000000000000e+00  0.0000000000000000e+00 0.0000000000000000e+00 0.0000000000000000e+00  0.0000000000000000e+00 0.0000000000000000e+00 0.0000000000000000e+00  0.0000000000000000e+00 0.0000000000000000e+00 0.0000000000000000e+00  0.0000000000000000e+00 0.0000000000000000e+00 0.0000000000000000e+00  0.0000000000000000e+00 0.0000000000000000e+00 0.0000000000000000e+00  0.0000000000000000e+00 0.0000000000000000e+00 0.0000000000000000e+00  0.0000000000000000e+00 0.0000000000000000e+00 0.0000000000000000e+00  0.0000000000000000e+00 0.0000000000000000e+00 0.0000000000000000e+00  0.0000000000000000e+00 0.0000000000000000e+00 0.0000000000000000e+00  0.0000000000000000e+00 0.0000000000000000e+00 0.0000000000000000e+00  0.0000000000000000e+00 0.0000000000000000e+00 0.0000000000000000e+00  0.0000000000000000e+00 0.0000000000000000e+00 0.0000000000000000e+00  0.0000000000000000e+00 0.0000000000000000e+00 0.0000000000000000e+00  0.0000000000000000e+00 0.0000000000000000e+00 0.0000000000000000e+00  0.0000000000000000e+00 0.0000000000000000e+00 0.0000000000000000e+00  0.0000000000000000e+00 0.0000000000000000e+00 0.0000000000000000e+00  0.0000000000000000e+00 0.0000000000000000e+00 0.0000000000000000e+00  0.0000000000000000e+00 0.0000000000000000e+00 0.0000000000000000e+00  0.0000000000000000e+00 0.0000000000000000e+00 0.0000000000000000e+00  0.0000000000000000e+00 0.0000000000000000e+00 0.0000000000000000e+00  0.0000000000000000e+00 0.0000000000000000e+00 0.0000000000000000e+00  0.0000000000000000e+00 0.0000000000000000e+00 0.0000000000000000e+00  0.0000000000000000e+00 0.0000000000000000e+00 0.0000000000000000e+00  0.0000000000000000e+00 0.0000000000000000e+00 0.0000000000000000e+00  0.0000000000000000e+00 0.0000000000000000e+00 0.0000000000000000e+00  0.0000000000000000e+00 0.0000000000000000e+00 0.0000000000000000e+00  0.0000000000000000e+00 0.0000000000000000e+00 0.0000000000000000e+00  0.0000000000000000e+00 0.0000000000000000e+00 0.0000000000000000e+00  0.0000000000000000e+00 0.0000000000000000e+00 0.0000000000000000e+00  0.0000000000000000e+00 0.0000000000000000e+00 0.0000000000000000e+00  0.0000000000000000e+00 0.0000000000000000e+00 0.0000000000000000e+00  0.0000000000000000e+00 0.0000000000000000e+00 0.0000000000000000e+00  0.0000000000000000e+00 0.0000000000000000e+00 0.0000000000000000e+00  0.0000000000000000e+00 0.0000000000000000e+00 0.0000000000000000e+00  0.0000000000000000e+00 0.0000000000000000e+00 0.0000000000000000e+00  0.0000000000000000e+00 0.0000000000000000e+00 0.0000000000000000e+00  0.0000000000000000e+00 0.0000000000000000e+00 0.0000000000000000e+00  0.0000000000000000e+00 0.0000000000000000e+00 0.0000000000000000e+00  0.0000000000000000e+00 0.0000000000000000e+00 0.0000000000000000e+00  0.0000000000000000e+00 0.0000000000000000e+00 0.0000000000000000e+00  0.0000000000000000e+00 0.0000000000000000e+00 0.0000000000000000e+00  0.0000000000000000e+00 0.0000000000000000e+00 0.0000000000000000e+00  0.0000000000000000e+00 0.0000000000000000e+00 0.0000000000000000e+00  0.0000000000000000e+00 0.0000000000000000e+00 0.0000000000000000e+00  0.0000000000000000e+00 0.0000000000000000e+00 0.0000000000000000e+00  0.0000000000000000e+00 0.0000000000000000e+00 0.0000000000000000e+00  0.0000000000000000e+00 0.0000000000000000e+00 0.0000000000000000e+00  0.0000000000000000e+00 0.0000000000000000e+00 0.0000000000000000e+00  0.0000000000000000e+00 0.0000000000000000e+00 0.0000000000000000e+00  0.0000000000000000e+00 0.0000000000000000e+00 0.0000000000000000e+00  0.0000000000000000e+00 0.0000000000000000e+00 0.0000000000000000e+00  0.0000000000000000e+00 0.0000000000000000e+00 0.0000000000000000e+00  0.0000000000000000e+00 0.0000000000000000e+00 0.0000000000000000e+00  0.0000000000000000e+00 0.0000000000000000e+00 0.0000000000000000e+00  0.0000000000000000e+00 0.0000000000000000e+00 0.0000000000000000e+00  0.0000000000000000e+00 0.0000000000000000e+00 0.0000000000000000e+00  0.0000000000000000e+00 0.0000000000000000e+00 0.0000000000000000e+00  0.0000000000000000e+00 0.0000000000000000e+00 0.0000000000000000e+00  0.0000000000000000e+00 0.0000000000000000e+00 0.0000000000000000e+00  0.0000000000000000e+00 0.0000000000000000e+00 0.0000000000000000e+00  0.0000000000000000e+00 0.0000000000000000e+00 0.0000000000000000e+00  0.0000000000000000e+00 0.0000000000000000e+00 0.0000000000000000e+00  0.0000000000000000e+00 0.0000000000000000e+00 0.0000000000000000e+00  0.0000000000000000e+00 0.0000000000000000e+00 0.0000000000000000e+00  0.0000000000000000e+00 0.0000000000000000e+00 0.0000000000000000e+00  0.0000000000000000e+00 0.0000000000000000e+00 0.0000000000000000e+00  0.0000000000000000e+00 0.0000000000000000e+00 0.0000000000000000e+00  0.0000000000000000e+00 0.0000000000000000e+00 0.0000000000000000e+00  0.0000000000000000e+00 0.0000000000000000e+00 0.0000000000000000e+00  0.0000000000000000e+00 0.0000000000000000e+00 0.0000000000000000e+00  0.0000000000000000e+00 0.0000000000000000e+00 0.0000000000000000e+00  0.0000000000000000e+00 0.0000000000000000e+00 0.0000000000000000e+00  0.0000000000000000e+00 0.0000000000000000e+00 0.0000000000000000e+00  0.0000000000000000e+00 0.0000000000000000e+00 0.0000000000000000e+00  -1.4050103060564608e+01 0.0000000000000000e+00 0.0000000000000000e+00  -1.4048487287589110e+01 5.7846098331596745e-03 0.0000000000000000e+00  -1.4009814299033902e+01 -1.3695419382834107e-02 0.0000000000000000e+00  -1.3885163691332735e+01 -5.9574375968024743e-02 0.0000000000000000e+00  -1.3690856152162056e+01 -9.1989641363211208e-02 0.0000000000000000e+00  -1.3484375215404571e+01 -9.4049506337664512e-02 0.0000000000000000e+00  -1.3322288101686153e+01 -7.0969160323799199e-02 0.0000000000000000e+00  -1.3222876179752710e+01 -4.1868073859803914e-02 0.0000000000000000e+00  -1.3181364790947688e+01 -1.6602276221141309e-02 0.0000000000000000e+00  -1.3179306879053772e+01 3.2702789832126511e-04 0.0000000000000000e+00  -1.3201011047165231e+01 1.0306246848707118e-02 0.0000000000000000e+00  -1.3233151396494181e+01 1.5011993744819598e-02 0.0000000000000000e+00  -1.3268486430123010e+01 1.6592119630850999e-02 0.0000000000000000e+00  -1.3302039375867066e+01 1.6312070184161736e-02 0.0000000000000000e+00  -1.3332035869628845e+01 1.5149976282322416e-02 0.0000000000000000e+00  -1.3357384268993316e+01 1.3614075601070065e-02 0.0000000000000000e+00  -1.3378293088616697e+01 1.2028539573978411e-02 0.0000000000000000e+00  -1.3394952340562376e+01 1.0545617146454005e-02 0.0000000000000000e+00  -1.3408031863924533e+01 9.2390908857104444e-03 0.0000000000000000e+00  -1.3418003693974224e+01 8.1303681629742216e-03 0.0000000000000000e+00  -1.3425486400872892e+01 7.2110897967720350e-03 0.0000000000000000e+00  -1.3430905240008160e+01 6.4673657428291481e-03 0.0000000000000000e+00  -1.3434730520028850e+01 5.8777535304717398e-03 0.0000000000000000e+00  -1.3437290679285985e+01 5.4214544359801938e-03 0.0000000000000000e+00  -1.3438909539696979e+01 5.0728355179282727e-03 0.0000000000000000e+00  -1.3439803081823561e+01 4.8107719755407672e-03 0.0000000000000000e+00  -1.3440174622624834e+01 4.6176341638434343e-03 0.0000000000000000e+00  -1.3440167070142962e+01 4.4826855571062354e-03 0.0000000000000000e+00  -1.3439920599533274e+01 4.3970971096943768e-03 0.0000000000000000e+00  -1.3439538230269429e+01 4.3530530578725739e-03 0.0000000000000000e+00  -1.3439111840621628e+01 4.3410316897776538e-03 0.0000000000000000e+00  -1.3438698679202737e+01 4.3512246704136299e-03 0.0000000000000000e+00  -1.3438338553450613e+01 4.3740103752775766e-03 0.0000000000000000e+00  -1.3438045199835686e+01 4.4017497198789671e-03 0.0000000000000000e+00  -1.3437821639082898e+01 4.4289640234001547e-03 0.0000000000000000e+00  -1.3437658824425670e+01 4.4526366437004890e-03 0.0000000000000000e+00  -1.3437546188703466e+01 4.4714935194510308e-03 0.0000000000000000e+00  -1.3437470787396032e+01 4.4855730549884405e-03 0.0000000000000000e+00  -1.3437422484757667e+01 4.4955068998225817e-03 0.0000000000000000e+00  -1.3437392242729015e+01 4.5022122341635794e-03 0.0000000000000000e+00  -1.3437374078473530e+01 4.5065482968836687e-03 0.0000000000000000e+00  -1.3437363301409682e+01 4.5092620130994833e-03 0.0000000000000000e+00  -1.3437357185903112e+01 4.5109007310403350e-03 0.0000000000000000e+00  -1.3437353705919822e+01 4.5118668420211470e-03 0.0000000000000000e+00  -1.3437351835324412e+01 4.5124180167370768e-03 0.0000000000000000e+00  -1.3437350799770407e+01 4.5127277701005096e-03 0.0000000000000000e+00  -1.3437350275356239e+01 4.5128958894731022e-03 0.0000000000000000e+00  -1.3437349986380060e+01 4.5129869432709935e-03 0.0000000000000000e+00  -1.3437349851669850e+01 4.5130340432920036e-03 0.0000000000000000e+00  -1.3437349774238927e+01 4.5130589754497560e-03 0.0000000000000000e+00  -1.3437349743230998e+01 4.5130711714396147e-03 0.0000000000000000e+00  -1.3437349722475439e+01 4.5130776462140943e-03 0.0000000000000000e+00  -1.3437349716702156e+01 4.5130805485553947e-03 0.0000000000000000e+00  -1.3437349710722385e+01 4.5130821898498354e-03 0.0000000000000000e+00  -1.3437349710354150e+01 4.5130827983486770e-03 0.0000000000000000e+00  -1.3437349708316827e+01 4.5130832283161761e-03 0.0000000000000000e+00  -1.3437349708797496e+01 4.5130833214818257e-03 0.0000000000000000e+00  -1.3437349707933802e+01 4.5130834495478774e-03 0.0000000000000000e+00  -1.3437349708366614e+01 4.5130834420133437e-03 0.0000000000000000e+00  -1.3437349707934208e+01 4.5130834911238094e-03 0.0000000000000000e+00  -1.3437349708219234e+01 4.5130834736638037e-03 0.0000000000000000e+00  -1.3437349707988650e+01 4.5130835009751045e-03 0.0000000000000000e+00  -1.3437349708153050e+01 4.5130834954205720e-03 0.0000000000000000e+00  -1.3437349708119720e+01 4.5130835459645680e-03 0.0000000000000000e+00  -1.3437349707985456e+01 4.5130835965978737e-03 0.0000000000000000e+00  -1.3437349709528331e+01 4.5130840052075303e-03 0.0000000000000000e+00  -1.3437349704856302e+01 4.5130842178599433e-03 0.0000000000000000e+00  -1.3437349730203152e+01 4.5130890993257391e-03 0.0000000000000000e+00  -1.3437349649846421e+01 4.5130860395808502e-03 0.0000000000000000e+00  -1.3437350024349357e+01 4.5131511488097041e-03 0.0000000000000000e+00  -1.3437348847092396e+01 4.5130555346306793e-03 0.0000000000000000e+00  -1.3437353765432203e+01 4.5139137321319935e-03 0.0000000000000000e+00  -1.3437339512474869e+01 4.5124634341459921e-03 0.0000000000000000e+00  -1.3437392875578530e+01 4.5218695297021662e-03 0.0000000000000000e+00  -1.3437265060285352e+01 4.5129620021355336e-03 0.0000000000000000e+00  -1.3437687229933069e+01 4.5620808052518891e-03 0.0000000000000000e+00  -1.3437092114125955e+01 4.7719547845994550e-03 0.0000000000000000e+00  -1.3438863171982117e+01 3.8486424497117676e-03 0.0000000000000000e+00  -1.3443185296047877e+01 1.2992558120818771e-02 0.0000000000000000e+00  -1.3449651709866510e+01 3.7722498599364412e-02 0.0000000000000000e+00  -1.3478662612888538e+01 0.0000000000000000e+00 0.0000000000000000e+00  -3.5532920172377707e+00 0.0000000000000000e+00 0.0000000000000000e+00  -3.5706329461715831e+00 -2.1322421760275337e-02 0.0000000000000000e+00  -3.5498839343854725e+00 -6.5195951103553015e-02 0.0000000000000000e+00  -3.5279264026497255e+00 -1.3033201551768503e-01 0.0000000000000000e+00  -3.5328561698518541e+00 -1.6813394697277612e-01 0.0000000000000000e+00  -3.5780072728752677e+00 -1.5191359914196922e-01 0.0000000000000000e+00  -3.6567675841891951e+00 -9.9924395651520809e-02 0.0000000000000000e+00  -3.7555327469157893e+00 -4.2355375561572449e-02 0.0000000000000000e+00  -3.8586351684502329e+00 1.6091703358461667e-03 0.0000000000000000e+00  -3.9565858659147874e+00 2.8217707549090192e-02 0.0000000000000000e+00  -4.0427506927505981e+00 4.0430131205134438e-02 0.0000000000000000e+00  -4.1160018074410338e+00 4.3354700782063459e-02 0.0000000000000000e+00  -4.1758028843851909e+00 4.0877074630724042e-02 0.0000000000000000e+00  -4.2240944321563676e+00 3.5891266595230314e-02 0.0000000000000000e+00  -4.2620389735163782e+00 2.9967019505985671e-02 0.0000000000000000e+00  -4.2917958930890805e+00 2.4133998938097818e-02 0.0000000000000000e+00  -4.3146147463879254e+00 1.8784662763663657e-02 0.0000000000000000e+00  -4.3321343268232555e+00 1.4161462322758911e-02 0.0000000000000000e+00  -4.3452888052583694e+00 1.0266022035523185e-02 0.0000000000000000e+00  -4.3551867496482046e+00 7.0857779023428399e-03 0.0000000000000000e+00  -4.3624561197368337e+00 4.5099558151234500e-03 0.0000000000000000e+00  -4.3677845704228782e+00 2.4692790068957704e-03 0.0000000000000000e+00  -4.3715584485702372e+00 8.7044935669621187e-04 0.0000000000000000e+00  -4.3742034244926797e+00 -3.5016014298098157e-04 0.0000000000000000e+00  -4.3759656127573097e+00 -1.2750579992553295e-03 0.0000000000000000e+00  -4.3771019339278521e+00 -1.9627937784714384e-03 0.0000000000000000e+00  -4.3777533061180263e+00 -2.4673780660937369e-03 0.0000000000000000e+00  -4.3780672288797264e+00 -2.8175269826819886e-03 0.0000000000000000e+00  -4.3781309505607373e+00 -3.0397775700045835e-03 0.0000000000000000e+00  -4.3780419155070298e+00 -3.1539728685856922e-03 0.0000000000000000e+00  -4.3778619074421297e+00 -3.1864297811939738e-03 0.0000000000000000e+00  -4.3776522628901438e+00 -3.1618849674657510e-03 0.0000000000000000e+00  -4.3774451773465657e+00 -3.1058319203684098e-03 0.0000000000000000e+00  -4.3772662521255388e+00 -3.0372416919260750e-03 0.0000000000000000e+00  -4.3771213722817066e+00 -2.9703292714861954e-03 0.0000000000000000e+00  -4.3770131767150362e+00 -2.9122621242859649e-03 0.0000000000000000e+00  -4.3769353569017255e+00 -2.8663410819657412e-03 0.0000000000000000e+00  -4.3768828484198643e+00 -2.8321752862753673e-03 0.0000000000000000e+00  -4.3768481572230691e+00 -2.8082574700123934e-03 0.0000000000000000e+00  -4.3768265561685968e+00 -2.7921674564189819e-03 0.0000000000000000e+00  -4.3768131691680106e+00 -2.7818503080600824e-03 0.0000000000000000e+00  -4.3768053917828187e+00 -2.7754085656295480e-03 0.0000000000000000e+00  -4.3768007902179997e+00 -2.7715558781703357e-03 0.0000000000000000e+00  -4.3767982891619983e+00 -2.7692850314497072e-03 0.0000000000000000e+00  -4.3767968473374879e+00 -2.7680050864259580e-03 0.0000000000000000e+00  -4.3767961211689874e+00 -2.7672829126019634e-03 0.0000000000000000e+00  -4.3767956996657977e+00 -2.7668977670734160e-03 0.0000000000000000e+00  -4.3767955098928715e+00 -2.7666865261821291e-03 0.0000000000000000e+00  -4.3767953912825988e+00 -2.7665804570895440e-03 0.0000000000000000e+00  -4.3767953483180255e+00 -2.7665225317800852e-03 0.0000000000000000e+00  -4.3767953144982892e+00 -2.7664957939996784e-03 0.0000000000000000e+00  -4.3767953075477211e+00 -2.7664805220940715e-03 0.0000000000000000e+00  -4.3767952969491297e+00 -2.7664744978236518e-03 0.0000000000000000e+00  -4.3767952974189690e+00 -2.7664704558959348e-03 0.0000000000000000e+00  -4.3767952934523775e+00 -2.7664693718554506e-03 0.0000000000000000e+00  -4.3767952947912558e+00 -2.7664682134745768e-03 0.0000000000000000e+00  -4.3767952929850509e+00 -2.7664681616377980e-03 0.0000000000000000e+00  -4.3767952940048946e+00 -2.7664677648196797e-03 0.0000000000000000e+00  -4.3767952930628606e+00 -2.7664678664975823e-03 0.0000000000000000e+00  -4.3767952937086338e+00 -2.7664676967300420e-03 0.0000000000000000e+00  -4.3767952931780627e+00 -2.7664677847894451e-03 0.0000000000000000e+00  -4.3767952935596606e+00 -2.7664677003031838e-03 0.0000000000000000e+00  -4.3767952932369560e+00 -2.7664677534797225e-03 0.0000000000000000e+00  -4.3767952934019343e+00 -2.7664677179158187e-03 0.0000000000000000e+00  -4.3767952930881879e+00 -2.7664676673568806e-03 0.0000000000000000e+00  -4.3767952926465545e+00 -2.7664678604993088e-03 0.0000000000000000e+00  -4.3767952917827957e+00 -2.7664662989843338e-03 0.0000000000000000e+00  -4.3767952861817090e+00 -2.7664702831874141e-03 0.0000000000000000e+00  -4.3767952859582078e+00 -2.7664433543773195e-03 0.0000000000000000e+00  -4.3767952222651560e+00 -2.7665118074626043e-03 0.0000000000000000e+00  -4.3767953161022781e+00 -2.7660886065231961e-03 0.0000000000000000e+00  -4.3767945201304252e+00 -2.7671351093740866e-03 0.0000000000000000e+00  -4.3767966384592558e+00 -2.7611457538378303e-03 0.0000000000000000e+00  -4.3767864697347632e+00 -2.7745727451465455e-03 0.0000000000000000e+00  -4.3768198466731283e+00 -2.7013048197202677e-03 0.0000000000000000e+00  -4.3767024115239144e+00 -2.8304491479916433e-03 0.0000000000000000e+00  -4.3771047606503322e+00 -2.0875661914749608e-03 0.0000000000000000e+00  -4.3760654351351853e+00 -2.7199047862481881e-03 0.0000000000000000e+00  -4.3776419243393168e+00 3.8147067916126957e-03 0.0000000000000000e+00  -4.3605511344142611e+00 2.4419696514658188e-03 0.0000000000000000e+00  -4.3694698564475072e+00 0.0000000000000000e+00 0.0000000000000000e+00  4.7490912862620984e+00 0.0000000000000000e+00 0.0000000000000000e+00  4.7483387477596120e+00 1.0741992605678595e-03 0.0000000000000000e+00  4.7112284339854424e+00 -3.3473290864494729e-02 0.0000000000000000e+00  4.6166533170838040e+00 -7.2378064953147803e-02 0.0000000000000000e+00  4.4683513499524272e+00 -8.6994751884693258e-02 0.0000000000000000e+00  4.3132097063754697e+00 -6.3977219623266843e-02 0.0000000000000000e+00  4.1925640123986367e+00 -1.7115228005169635e-02 0.0000000000000000e+00  4.1244584693488209e+00 2.7918769950630046e-02 0.0000000000000000e+00  4.1004949445182088e+00 5.8569515405009806e-02 0.0000000000000000e+00  4.1072050536605538e+00 7.2446962859094480e-02 0.0000000000000000e+00  4.1299494089274438e+00 7.4474523266601991e-02 0.0000000000000000e+00  4.1600172906932107e+00 6.9131458110178040e-02 0.0000000000000000e+00  4.1908786342597502e+00 6.0606636718359988e-02 0.0000000000000000e+00  4.2199211051146257e+00 5.0980870502302940e-02 0.0000000000000000e+00  4.2452240578384330e+00 4.1776313687782646e-02 0.0000000000000000e+00  4.2666783151319434e+00 3.3468926053270842e-02 0.0000000000000000e+00  4.2841042843666912e+00 2.6411286850996859e-02 0.0000000000000000e+00  4.2980760541325642e+00 2.0501907477705576e-02 0.0000000000000000e+00  4.3089051705132215e+00 1.5721583825948255e-02 0.0000000000000000e+00  4.3172212991193906e+00 1.1880896150359699e-02 0.0000000000000000e+00  4.3233856310680103e+00 8.8611471602155975e-03 0.0000000000000000e+00  4.3278795652314512e+00 6.4801779068305969e-03 0.0000000000000000e+00  4.3309987604923705e+00 4.6431782278498809e-03 0.0000000000000000e+00  4.3330949152080409e+00 3.2355355080626886e-03 0.0000000000000000e+00  4.3343846221518820e+00 2.1835532981025296e-03 0.0000000000000000e+00  4.3350921565227223e+00 1.3966647920960037e-03 0.0000000000000000e+00  4.3353519169022912e+00 8.1997313748520930e-04 0.0000000000000000e+00  4.3353074829623672e+00 4.0441689226804498e-04 0.0000000000000000e+00  4.3350568703671000e+00 1.2726518107765046e-04 0.0000000000000000e+00  4.3347033766736622e+00 -3.7026170528763495e-05 0.0000000000000000e+00  4.3343145653478530e+00 -1.0827999087540112e-04 0.0000000000000000e+00  4.3339483919568664e+00 -1.1368928731783518e-04 0.0000000000000000e+00  4.3336312366497980e+00 -7.6494703459570830e-05 0.0000000000000000e+00  4.3333785148965687e+00 -1.9508994939437797e-05 0.0000000000000000e+00  4.3331870554077287e+00 4.2351927715176979e-05 0.0000000000000000e+00  4.3330506060017493e+00 9.8507144489894574e-05 0.0000000000000000e+00  4.3329566489586222e+00 1.4487929091853231e-04 0.0000000000000000e+00  4.3328951956058575e+00 1.7999703379933783e-04 0.0