<?xml version="1.0"?>
<VTKFile type="UnstructuredGrid"  version="0.1"  >
<UnstructuredGrid>
<Piece  NumberOfPoints="1369" NumberOfCells="2560">
<Points>
<DataArray  type="Float64"  NumberOfComponents="3"  format="ascii">0 0 0  0.75 0 0  1.5 0 0  2.25 0 0  3 0 0  3.75 0 0  4.5 0 0  5.25 0 0  6 0 0  6.75 0 0  7.5 0 0  8.25 0 0  9 0 0  9.75 0 0  10.5 0 0  11.25 0 0  12 0 0  12.75 0 0  13.5 0 0  14.25 0 0  15 0 0  15.75 0 0  16.5 0 0  17.25 0 0  18 0 0  18.75 0 0  19.5 0 0  20.25 0 0  21 0 0  21.75 0 0  22.5 0 0  23.25 0 0  24 0 0  24.75 0 0  25.5 0 0  26.25 0 0  27 0 0  27.75 0 0  28.5 0 0  29.25 0 0  30 0 0  30.75 0 0  31.5 0 0  32.25 0 0  33 0 0  33.75 0 0  34.5 0 0  35.25 0 0  36 0 0  36.75 0 0  37.5 0 0  38.25 0 0  39 0 0  39.75 0 0  40.5 0 0  41.25 0 0  42 0 0  42.75 0 0  43.5 0 0  44.25 0 0  45 0 0  45.75 0 0  46.5 0 0  47.25 0 0  48 0 0  48.75 0 0  49.5 0 0  50.25 0 0  51 0 0  51.75 0 0  52.5 0 0  53.25 0 0  54 0 0  54.75 0 0  55.5 0 0  56.25 0 0  57 0 0  57.75 0 0  58.5 0 0  59.25 0 0  60 0 0  0 0.5 0  0.75 0.5 0  1.5 0.5 0  2.25 0.5 0  3 0.5 0  3.75 0.5 0  4.5 0.5 0  5.25 0.5 0  6 0.5 0  6.75 0.5 0  7.5 0.5 0  8.25 0.5 0  9 0.5 0  9.75 0.5 0  10.5 0.5 0  11.25 0.5 0  12 0.5 0  12.75 0.5 0  13.5 0.5 0  14.25 0.5 0  15 0.5 0  15.75 0.5 0  16.5 0.5 0  17.25 0.5 0  18 0.5 0  18.75 0.5 0  19.5 0.5 0  20.25 0.5 0  21 0.5 0  21.75 0.5 0  22.5 0.5 0  23.25 0.5 0  24 0.5 0  24.75 0.5 0  25.5 0.5 0  26.25 0.5 0  27 0.5 0  27.75 0.5 0  28.5 0.5 0  29.25 0.5 0  30 0.5 0  30.75 0.5 0  31.5 0.5 0  32.25 0.5 0  33 0.5 0  33.75 0.5 0  34.5 0.5 0  35.25 0.5 0  36 0.5 0  36.75 0.5 0  37.5 0.5 0  38.25 0.5 0  39 0.5 0  39.75 0.5 0  40.5 0.5 0  41.25 0.5 0  42 0.5 0  42.75 0.5 0  43.5 0.5 0  44.25 0.5 0  45 0.5 0  45.75 0.5 0  46.5 0.5 0  47.25 0.5 0  48 0.5 0  48.75 0.5 0  49.5 0.5 0  50.25 0.5 0  51 0.5 0  51.75 0.5 0  52.5 0.5 0  53.25 0.5 0  54 0.5 0  54.75 0.5 0  55.5 0.5 0  56.25 0.5 0  57 0.5 0  57.75 0.5 0  58.5 0.5 0  59.25 0.5 0  60 0.5 0  0 1 0  0.75 1 0  1.5 1 0  2.25 1 0  3 1 0  3.75 1 0  4.5 1 0  5.25 1 0  6 1 0  6.75 1 0  7.5 1 0  8.25 1 0  9 1 0  9.75 1 0  10.5 1 0  11.25 1 0  12 1 0  12.75 1 0  13.5 1 0  14.25 1 0  15 1 0  15.75 1 0  16.5 1 0  17.25 1 0  18 1 0  18.75 1 0  19.5 1 0  20.25 1 0  21 1 0  21.75 1 0  22.5 1 0  23.25 1 0  24 1 0  24.75 1 0  25.5 1 0  26.25 1 0  27 1 0  27.75 1 0  28.5 1 0  29.25 1 0  30 1 0  30.75 1 0  31.5 1 0  32.25 1 0  33 1 0  33.75 1 0  34.5 1 0  35.25 1 0  36 1 0  36.75 1 0  37.5 1 0  38.25 1 0  39 1 0  39.75 1 0  40.5 1 0  41.25 1 0  42 1 0  42.75 1 0  43.5 1 0  44.25 1 0  45 1 0  45.75 1 0  46.5 1 0  47.25 1 0  48 1 0  48.75 1 0  49.5 1 0  50.25 1 0  51 1 0  51.75 1 0  52.5 1 0  53.25 1 0  54 1 0  54.75 1 0  55.5 1 0  56.25 1 0  57 1 0  57.75 1 0  58.5 1 0  59.25 1 0  60 1 0  0 1.5 0  0.75 1.5 0  1.5 1.5 0  2.25 1.5 0  3 1.5 0  3.75 1.5 0  4.5 1.5 0  5.25 1.5 0  6 1.5 0  6.75 1.5 0  7.5 1.5 0  8.25 1.5 0  9 1.5 0  9.75 1.5 0  10.5 1.5 0  11.25 1.5 0  12 1.5 0  12.75 1.5 0  13.5 1.5 0  14.25 1.5 0  15 1.5 0  15.75 1.5 0  16.5 1.5 0  17.25 1.5 0  18 1.5 0  18.75 1.5 0  19.5 1.5 0  20.25 1.5 0  21 1.5 0  21.75 1.5 0  22.5 1.5 0  23.25 1.5 0  24 1.5 0  24.75 1.5 0  25.5 1.5 0  26.25 1.5 0  27 1.5 0  27.75 1.5 0  28.5 1.5 0  29.25 1.5 0  30 1.5 0  30.75 1.5 0  31.5 1.5 0  32.25 1.5 0  33 1.5 0  33.75 1.5 0  34.5 1.5 0  35.25 1.5 0  36 1.5 0  36.75 1.5 0  37.5 1.5 0  38.25 1.5 0  39 1.5 0  39.75 1.5 0  40.5 1.5 0  41.25 1.5 0  42 1.5 0  42.75 1.5 0  43.5 1.5 0  44.25 1.5 0  45 1.5 0  45.75 1.5 0  46.5 1.5 0  47.25 1.5 0  48 1.5 0  48.75 1.5 0  49.5 1.5 0  50.25 1.5 0  51 1.5 0  51.75 1.5 0  52.5 1.5 0  53.25 1.5 0  54 1.5 0  54.75 1.5 0  55.5 1.5 0  56.25 1.5 0  57 1.5 0  57.75 1.5 0  58.5 1.5 0  59.25 1.5 0  60 1.5 0  0 2 0  0.75 2 0  1.5 2 0  2.25 2 0  3 2 0  3.75 2 0  4.5 2 0  5.25 2 0  6 2 0  6.75 2 0  7.5 2 0  8.25 2 0  9 2 0  9.75 2 0  10.5 2 0  11.25 2 0  12 2 0  12.75 2 0  13.5 2 0  14.25 2 0  15 2 0  15.75 2 0  16.5 2 0  17.25 2 0  18 2 0  18.75 2 0  19.5 2 0  20.25 2 0  21 2 0  21.75 2 0  22.5 2 0  23.25 2 0  24 2 0  24.75 2 0  25.5 2 0  26.25 2 0  27 2 0  27.75 2 0  28.5 2 0  29.25 2 0  30 2 0  30.75 2 0  31.5 2 0  32.25 2 0  33 2 0  33.75 2 0  34.5 2 0  35.25 2 0  36 2 0  36.75 2 0  37.5 2 0  38.25 2 0  39 2 0  39.75 2 0  40.5 2 0  41.25 2 0  42 2 0  42.75 2 0  43.5 2 0  44.25 2 0  45 2 0  45.75 2 0  46.5 2 0  47.25 2 0  48 2 0  48.75 2 0  49.5 2 0  50.25 2 0  51 2 0  51.75 2 0  52.5 2 0  53.25 2 0  54 2 0  54.75 2 0  55.5 2 0  56.25 2 0  57 2 0  57.75 2 0  58.5 2 0  59.25 2 0  60 2 0  0 2.5 0  0.75 2.5 0  1.5 2.5 0  2.25 2.5 0  3 2.5 0  3.75 2.5 0  4.5 2.5 0  5.25 2.5 0  6 2.5 0  6.75 2.5 0  7.5 2.5 0  8.25 2.5 0  9 2.5 0  9.75 2.5 0  10.5 2.5 0  11.25 2.5 0  12 2.5 0  12.75 2.5 0  13.5 2.5 0  14.25 2.5 0  15 2.5 0  15.75 2.5 0  16.5 2.5 0  17.25 2.5 0  18 2.5 0  18.75 2.5 0  19.5 2.5 0  20.25 2.5 0  21 2.5 0  21.75 2.5 0  22.5 2.5 0  23.25 2.5 0  24 2.5 0  24.75 2.5 0  25.5 2.5 0  26.25 2.5 0  27 2.5 0  27.75 2.5 0  28.5 2.5 0  29.25 2.5 0  30 2.5 0  30.75 2.5 0  31.5 2.5 0  32.25 2.5 0  33 2.5 0  33.75 2.5 0  34.5 2.5 0  35.25 2.5 0  36 2.5 0  36.75 2.5 0  37.5 2.5 0  38.25 2.5 0  39 2.5 0  39.75 2.5 0  40.5 2.5 0  41.25 2.5 0  42 2.5 0  42.75 2.5 0  43.5 2.5 0  44.25 2.5 0  45 2.5 0  45.75 2.5 0  46.5 2.5 0  47.25 2.5 0  48 2.5 0  48.75 2.5 0  49.5 2.5 0  50.25 2.5 0  51 2.5 0  51.75 2.5 0  52.5 2.5 0  53.25 2.5 0  54 2.5 0  54.75 2.5 0  55.5 2.5 0  56.25 2.5 0  57 2.5 0  57.75 2.5 0  58.5 2.5 0  59.25 2.5 0  60 2.5 0  0 3 0  0.75 3 0  1.5 3 0  2.25 3 0  3 3 0  3.75 3 0  4.5 3 0  5.25 3 0  6 3 0  6.75 3 0  7.5 3 0  8.25 3 0  9 3 0  9.75 3 0  10.5 3 0  11.25 3 0  12 3 0  12.75 3 0  13.5 3 0  14.25 3 0  15 3 0  15.75 3 0  16.5 3 0  17.25 3 0  18 3 0  18.75 3 0  19.5 3 0  20.25 3 0  21 3 0  21.75 3 0  22.5 3 0  23.25 3 0  24 3 0  24.75 3 0  25.5 3 0  26.25 3 0  27 3 0  27.75 3 0  28.5 3 0  29.25 3 0  30 3 0  30.75 3 0  31.5 3 0  32.25 3 0  33 3 0  33.75 3 0  34.5 3 0  35.25 3 0  36 3 0  36.75 3 0  37.5 3 0  38.25 3 0  39 3 0  39.75 3 0  40.5 3 0  41.25 3 0  42 3 0  42.75 3 0  43.5 3 0  44.25 3 0  45 3 0  45.75 3 0  46.5 3 0  47.25 3 0  48 3 0  48.75 3 0  49.5 3 0  50.25 3 0  51 3 0  51.75 3 0  52.5 3 0  53.25 3 0  54 3 0  54.75 3 0  55.5 3 0  56.25 3 0  57 3 0  57.75 3 0  58.5 3 0  59.25 3 0  60 3 0  0 3.5 0  0.75 3.5 0  1.5 3.5 0  2.25 3.5 0  3 3.5 0  3.75 3.5 0  4.5 3.5 0  5.25 3.5 0  6 3.5 0  6.75 3.5 0  7.5 3.5 0  8.25 3.5 0  9 3.5 0  9.75 3.5 0  10.5 3.5 0  11.25 3.5 0  12 3.5 0  12.75 3.5 0  13.5 3.5 0  14.25 3.5 0  15 3.5 0  15.75 3.5 0  16.5 3.5 0  17.25 3.5 0  18 3.5 0  18.75 3.5 0  19.5 3.5 0  20.25 3.5 0  21 3.5 0  21.75 3.5 0  22.5 3.5 0  23.25 3.5 0  24 3.5 0  24.75 3.5 0  25.5 3.5 0  26.25 3.5 0  27 3.5 0  27.75 3.5 0  28.5 3.5 0  29.25 3.5 0  30 3.5 0  30.75 3.5 0  31.5 3.5 0  32.25 3.5 0  33 3.5 0  33.75 3.5 0  34.5 3.5 0  35.25 3.5 0  36 3.5 0  36.75 3.5 0  37.5 3.5 0  38.25 3.5 0  39 3.5 0  39.75 3.5 0  40.5 3.5 0  41.25 3.5 0  42 3.5 0  42.75 3.5 0  43.5 3.5 0  44.25 3.5 0  45 3.5 0  45.75 3.5 0  46.5 3.5 0  47.25 3.5 0  48 3.5 0  48.75 3.5 0  49.5 3.5 0  50.25 3.5 0  51 3.5 0  51.75 3.5 0  52.5 3.5 0  53.25 3.5 0  54 3.5 0  54.75 3.5 0  55.5 3.5 0  56.25 3.5 0  57 3.5 0  57.75 3.5 0  58.5 3.5 0  59.25 3.5 0  60 3.5 0  0 4 0  0.75 4 0  1.5 4 0  2.25 4 0  3 4 0  3.75 4 0  4.5 4 0  5.25 4 0  6 4 0  6.75 4 0  7.5 4 0  8.25 4 0  9 4 0  9.75 4 0  10.5 4 0  11.25 4 0  12 4 0  12.75 4 0  13.5 4 0  14.25 4 0  15 4 0  15.75 4 0  16.5 4 0  17.25 4 0  18 4 0  18.75 4 0  19.5 4 0  20.25 4 0  21 4 0  21.75 4 0  22.5 4 0  23.25 4 0  24 4 0  24.75 4 0  25.5 4 0  26.25 4 0  27 4 0  27.75 4 0  28.5 4 0  29.25 4 0  30 4 0  30.75 4 0  31.5 4 0  32.25 4 0  33 4 0  33.75 4 0  34.5 4 0  35.25 4 0  36 4 0  36.75 4 0  37.5 4 0  38.25 4 0  39 4 0  39.75 4 0  40.5 4 0  41.25 4 0  42 4 0  42.75 4 0  43.5 4 0  44.25 4 0  45 4 0  45.75 4 0  46.5 4 0  47.25 4 0  48 4 0  48.75 4 0  49.5 4 0  50.25 4 0  51 4 0  51.75 4 0  52.5 4 0  53.25 4 0  54 4 0  54.75 4 0  55.5 4 0  56.25 4 0  57 4 0  57.75 4 0  58.5 4 0  59.25 4 0  60 4 0  0.375 0.25 0  1.125 0.25 0  1.875 0.25 0  2.625 0.25 0  3.375 0.25 0  4.125 0.25 0  4.875 0.25 0  5.625 0.25 0  6.375 0.25 0  7.125 0.25 0  7.875 0.25 0  8.625 0.25 0  9.375 0.25 0  10.125 0.25 0  10.875 0.25 0  11.625 0.25 0  12.375 0.25 0  13.125 0.25 0  13.875 0.25 0  14.625 0.25 0  15.375 0.25 0  16.125 0.25 0  16.875 0.25 0  17.625 0.25 0  18.375 0.25 0  19.125 0.25 0  19.875 0.25 0  20.625 0.25 0  21.375 0.25 0  22.125 0.25 0  22.875 0.25 0  23.625 0.25 0  24.375 0.25 0  25.125 0.25 0  25.875 0.25 0  26.625 0.25 0  27.375 0.25 0  28.125 0.25 0  28.875 0.25 0  29.625 0.25 0  30.375 0.25 0  31.125 0.25 0  31.875 0.25 0  32.625 0.25 0  33.375 0.25 0  34.125 0.25 0  34.875 0.25 0  35.625 0.25 0  36.375 0.25 0  37.125 0.25 0  37.875 0.25 0  38.625 0.25 0  39.375 0.25 0  40.125 0.25 0  40.875 0.25 0  41.625 0.25 0  42.375 0.25 0  43.125 0.25 0  43.875 0.25 0  44.625 0.25 0  45.375 0.25 0  46.125 0.25 0  46.875 0.25 0  47.625 0.25 0  48.375 0.25 0  49.125 0.25 0  49.875 0.25 0  50.625 0.25 0  51.375 0.25 0  52.125 0.25 0  52.875 0.25 0  53.625 0.25 0  54.375 0.25 0  55.125 0.25 0  55.875 0.25 0  56.625 0.25 0  57.375 0.25 0  58.125 0.25 0  58.875 0.25 0  59.625 0.25 0  0.375 0.75 0  1.125 0.75 0  1.875 0.75 0  2.625 0.75 0  3.375 0.75 0  4.125 0.75 0  4.875 0.75 0  5.625 0.75 0  6.375 0.75 0  7.125 0.75 0  7.875 0.75 0  8.625 0.75 0  9.375 0.75 0  10.125 0.75 0  10.875 0.75 0  11.625 0.75 0  12.375 0.75 0  13.125 0.75 0  13.875 0.75 0  14.625 0.75 0  15.375 0.75 0  16.125 0.75 0  16.875 0.75 0  17.625 0.75 0  18.375 0.75 0  19.125 0.75 0  19.875 0.75 0  20.625 0.75 0  21.375 0.75 0  22.125 0.75 0  22.875 0.75 0  23.625 0.75 0  24.375 0.75 0  25.125 0.75 0  25.875 0.75 0  26.625 0.75 0  27.375 0.75 0  28.125 0.75 0  28.875 0.75 0  29.625 0.75 0  30.375 0.75 0  31.125 0.75 0  31.875 0.75 0  32.625 0.75 0  33.375 0.75 0  34.125 0.75 0  34.875 0.75 0  35.625 0.75 0  36.375 0.75 0  37.125 0.75 0  37.875 0.75 0  38.625 0.75 0  39.375 0.75 0  40.125 0.75 0  40
[...]
<PointData  Vectors="f_8-0"> 
<DataArray  type="Float64"  Name="f_8-0"  NumberOfComponents="3" format="ascii">0.0000000000000000e+00 0.0000000000000000e+00 0.0000000000000000e+00  0.0000000000000000e+00 0.0000000000000000e+00 0.0000000000000000e+00  0.0000000000000000e+00 0.0000000000000000e+00 0.0000000000000000e+00  0.0000000000000000e+00 0.0000000000000000e+00 0.0000000000000000e+00  0.0000000000000000e+00 0.0000000000000000e+00 0.0000000000000000e+00  0.0000000000000000e+00 0.0000000000000000e+00 0.0000000000000000e+00  0.0000000000000000e+00 0.0000000000000000e+00 0.0000000000000000e+00  0.0000000000000000e+00 0.0000000000000000e+00 0.0000000000000000e+00  0.0000000000000000e+00 0.0000000000000000e+00 0.0000000000000000e+00  0.0000000000000000e+00 0.0000000000000000e+00 0.0000000000000000e+00  0.0000000000000000e+00 0.0000000000000000e+00 0.0000000000000000e+00  0.0000000000000000e+00 0.0000000000000000e+00 0.0000000000000000e+00  0.0000000000000000e+00 0.0000000000000000e+00 0.0000000000000000e+00  0.0000000000000000e+00 0.0000000000000000e+00 0.0000000000000000e+00  0.0000000000000000e+00 0.0000000000000000e+00 0.0000000000000000e+00  0.0000000000000000e+00 0.0000000000000000e+00 0.0000000000000000e+00  0.0000000000000000e+00 0.0000000000000000e+00 0.0000000000000000e+00  0.0000000000000000e+00 0.0000000000000000e+00 0.0000000000000000e+00  0.0000000000000000e+00 0.0000000000000000e+00 0.0000000000000000e+00  0.0000000000000000e+00 0.0000000000000000e+00 0.0000000000000000e+00  0.0000000000000000e+00 0.0000000000000000e+00 0.0000000000000000e+00  0.0000000000000000e+00 0.0000000000000000e+00 0.0000000000000000e+00  0.0000000000000000e+00 0.0000000000000000e+00 0.0000000000000000e+00  0.0000000000000000e+00 0.0000000000000000e+00 0.0000000000000000e+00  0.0000000000000000e+00 0.0000000000000000e+00 0.0000000000000000e+00  0.0000000000000000e+00 0.0000000000000000e+00 0.0000000000000000e+00  0.0000000000000000e+00 0.0000000000000000e+00 0.0000000000000000e+00  0.0000000000000000e+00 0.0000000000000000e+00 0.0000000000000000e+00  0.0000000000000000e+00 0.0000000000000000e+00 0.0000000000000000e+00  0.0000000000000000e+00 0.0000000000000000e+00 0.0000000000000000e+00  0.0000000000000000e+00 0.0000000000000000e+00 0.0000000000000000e+00  0.0000000000000000e+00 0.0000000000000000e+00 0.0000000000000000e+00  0.0000000000000000e+00 0.0000000000000000e+00 0.0000000000000000e+00  0.0000000000000000e+00 0.0000000000000000e+00 0.0000000000000000e+00  0.0000000000000000e+00 0.0000000000000000e+00 0.0000000000000000e+00  0.0000000000000000e+00 0.0000000000000000e+00 0.0000000000000000e+00  0.0000000000000000e+00 0.0000000000000000e+00 0.0000000000000000e+00  0.0000000000000000e+00 0.0000000000000000e+00 0.0000000000000000e+00  0.0000000000000000e+00 0.0000000000000000e+00 0.0000000000000000e+00  0.0000000000000000e+00 0.0000000000000000e+00 0.0000000000000000e+00  0.0000000000000000e+00 0.0000000000000000e+00 0.0000000000000000e+00  0.0000000000000000e+00 0.0000000000000000e+00 0.0000000000000000e+00  0.0000000000000000e+00 0.0000000000000000e+00 0.0000000000000000e+00  0.0000000000000000e+00 0.0000000000000000e+00 0.0000000000000000e+00  0.0000000000000000e+00 0.0000000000000000e+00 0.0000000000000000e+00  0.0000000000000000e+00 0.0000000000000000e+00 0.0000000000000000e+00  0.0000000000000000e+00 0.0000000000000000e+00 0.0000000000000000e+00  0.0000000000000000e+00 0.0000000000000000e+00 0.0000000000000000e+00  0.0000000000000000e+00 0.0000000000000000e+00 0.0000000000000000e+00  0.0000000000000000e+00 0.0000000000000000e+00 0.0000000000000000e+00  0.0000000000000000e+00 0.0000000000000000e+00 0.0000000000000000e+00  0.0000000000000000e+00 0.0000000000000000e+00 0.0000000000000000e+00  0.0000000000000000e+00 0.0000000000000000e+00 0.0000000000000000e+00  0.0000000000000000e+00 0.0000000000000000e+00 0.0000000000000000e+00  0.0000000000000000e+00 0.0000000000000000e+00 0.0000000000000000e+00  0.0000000000000000e+00 0.0000000000000000e+00 0.0000000000000000e+00  0.0000000000000000e+00 0.0000000000000000e+00 0.0000000000000000e+00  0.0000000000000000e+00 0.0000000000000000e+00 0.0000000000000000e+00  0.0000000000000000e+00 0.0000000000000000e+00 0.0000000000000000e+00  0.0000000000000000e+00 0.0000000000000000e+00 0.0000000000000000e+00  0.0000000000000000e+00 0.0000000000000000e+00 0.0000000000000000e+00  0.0000000000000000e+00 0.0000000000000000e+00 0.0000000000000000e+00  0.0000000000000000e+00 0.0000000000000000e+00 0.0000000000000000e+00  0.0000000000000000e+00 0.0000000000000000e+00 0.0000000000000000e+00  0.0000000000000000e+00 0.0000000000000000e+00 0.0000000000000000e+00  0.0000000000000000e+00 0.0000000000000000e+00 0.0000000000000000e+00  0.0000000000000000e+00 0.0000000000000000e+00 0.0000000000000000e+00  0.0000000000000000e+00 0.0000000000000000e+00 0.0000000000000000e+00  0.0000000000000000e+00 0.0000000000000000e+00 0.0000000000000000e+00  0.0000000000000000e+00 0.0000000000000000e+00 0.0000000000000000e+00  0.0000000000000000e+00 0.0000000000000000e+00 0.0000000000000000e+00  0.0000000000000000e+00 0.0000000000000000e+00 0.0000000000000000e+00  0.0000000000000000e+00 0.0000000000000000e+00 0.0000000000000000e+00  0.0000000000000000e+00 0.0000000000000000e+00 0.0000000000000000e+00  0.0000000000000000e+00 0.0000000000000000e+00 0.0000000000000000e+00  0.0000000000000000e+00 0.0000000000000000e+00 0.0000000000000000e+00  0.0000000000000000e+00 0.0000000000000000e+00 0.0000000000000000e+00  0.0000000000000000e+00 0.0000000000000000e+00 0.0000000000000000e+00  0.0000000000000000e+00 0.0000000000000000e+00 0.0000000000000000e+00  0.0000000000000000e+00 0.0000000000000000e+00 0.0000000000000000e+00  0.0000000000000000e+00 0.0000000000000000e+00 0.0000000000000000e+00  -2.8174948757880806e+01 0.0000000000000000e+00 0.0000000000000000e+00  -2.8182893284049708e+01 2.4852718205327856e-03 0.0000000000000000e+00  -2.8188975638960031e+01 3.3630918594682747e-03 0.0000000000000000e+00  -2.8191664335396791e+01 2.8978036695546197e-03 0.0000000000000000e+00  -2.8192533337412947e+01 2.3729113492058735e-03 0.0000000000000000e+00  -2.8192409111446356e+01 2.0239708891078437e-03 0.0000000000000000e+00  -2.8191730033760859e+01 1.8101017451101827e-03 0.0000000000000000e+00  -2.8190737003346914e+01 1.6889812644189902e-03 0.0000000000000000e+00  -2.8189652287260298e+01 1.6660543624506374e-03 0.0000000000000000e+00  -2.8188703509382016e+01 1.7321630861525000e-03 0.0000000000000000e+00  -2.8188016226209196e+01 1.8375142759753183e-03 0.0000000000000000e+00  -2.8187586942398912e+01 1.9352063165437550e-03 0.0000000000000000e+00  -2.8187347311628383e+01 2.0048458693979103e-03 0.0000000000000000e+00  -2.8187224148339155e+01 2.0471380502374860e-03 0.0000000000000000e+00  -2.8187164442078352e+01 2.0701045420349782e-03 0.0000000000000000e+00  -2.8187136517927936e+01 2.0816821956251884e-03 0.0000000000000000e+00  -2.8187123688223480e+01 2.0872195738949884e-03 0.0000000000000000e+00  -2.8187117799219731e+01 2.0898015157438839e-03 0.0000000000000000e+00  -2.8187115077059406e+01 2.0909888692627861e-03 0.0000000000000000e+00  -2.8187113798753931e+01 2.0915384381545534e-03 0.0000000000000000e+00  -2.8187113190966912e+01 2.0917940423151346e-03 0.0000000000000000e+00  -2.8187112896585838e+01 2.0919151005093679e-03 0.0000000000000000e+00  -2.8187112753102557e+01 2.0919729702384847e-03 0.0000000000000000e+00  -2.8187112681959910e+01 2.0920009879909040e-03 0.0000000000000000e+00  -2.8187112646854942e+01 2.0920147940627384e-03 0.0000000000000000e+00  -2.8187112629214301e+01 2.0920214995747612e-03 0.0000000000000000e+00  -2.8187112620513290e+01 2.0920249311892395e-03 0.0000000000000000e+00  -2.8187112616106337e+01 2.0920265475193028e-03 0.0000000000000000e+00  -2.8187112613952706e+01 2.0920274272454649e-03 0.0000000000000000e+00  -2.8187112612854925e+01 2.0920278077904524e-03 0.0000000000000000e+00  -2.8187112612326167e+01 2.0920280409055143e-03 0.0000000000000000e+00  -2.8187112612053667e+01 2.0920281246033338e-03 0.0000000000000000e+00  -2.8187112611924988e+01 2.0920281902006652e-03 0.0000000000000000e+00  -2.8187112611857536e+01 2.0920282054235637e-03 0.0000000000000000e+00  -2.8187112611826208e+01 2.0920282240193496e-03 0.0000000000000000e+00  -2.8187112611809884e+01 2.0920282257493260e-03 0.0000000000000000e+00  -2.8187112611801439e+01 2.0920282317014663e-03 0.0000000000000000e+00  -2.8187112611797946e+01 2.0920282319971018e-03 0.0000000000000000e+00  -2.8187112611797158e+01 2.0920282337813885e-03 0.0000000000000000e+00  -2.8187112611795865e+01 2.0920282325837146e-03 0.0000000000000000e+00  -2.8187112611794202e+01 2.0920282348319079e-03 0.0000000000000000e+00  -2.8187112611795104e+01 2.0920282344616590e-03 0.0000000000000000e+00  -2.8187112611796053e+01 2.0920282347837663e-03 0.0000000000000000e+00  -2.8187112611796291e+01 2.0920282341772081e-03 0.0000000000000000e+00  -2.8187112611793516e+01 2.0920282345429850e-03 0.0000000000000000e+00  -2.8187112611797158e+01 2.0920282333824819e-03 0.0000000000000000e+00  -2.8187112611785242e+01 2.0920282366162588e-03 0.0000000000000000e+00  -2.8187112611806686e+01 2.0920282270408888e-03 0.0000000000000000e+00  -2.8187112611748208e+01 2.0920282474001426e-03 0.0000000000000000e+00  -2.8187112611860250e+01 2.0920281985117388e-03 0.0000000000000000e+00  -2.8187112611570004e+01 2.0920282995504870e-03 0.0000000000000000e+00  -2.8187112612134516e+01 2.0920280646957588e-03 0.0000000000000000e+00  -2.8187112610729780e+01 2.0920285486479115e-03 0.0000000000000000e+00  -2.8187112613490701e+01 2.0920274478252636e-03 0.0000000000000000e+00  -2.8187112606838411e+01 2.0920296995160150e-03 0.0000000000000000e+00  -2.8187112619885657e+01 2.0920246938643540e-03 0.0000000000000000e+00  -2.8187112589369107e+01 2.0920347673752736e-03 0.0000000000000000e+00  -2.8187112648517633e+01 2.0920129029810513e-03 0.0000000000000000e+00  -2.8187112514307692e+01 2.0920559680578537e-03 0.0000000000000000e+00  -2.8187112768652167e+01 2.0919648967381264e-03 0.0000000000000000e+00  -2.8187112210315224e+01 2.0921394007902632e-03 0.0000000000000000e+00  -2.8187113231693349e+01 2.0917804701175123e-03 0.0000000000000000e+00  -2.8187111072981491e+01 2.0924466640655729e-03 0.0000000000000000e+00  -2.8187114823188921e+01 2.0911135461848126e-03 0.0000000000000000e+00  -2.8187107241836351e+01 2.0935141543373488e-03 0.0000000000000000e+00  -2.8187119491997013e+01 2.0888195775648297e-03 0.0000000000000000e+00  -2.8187095942210245e+01 2.0971433236338672e-03 0.0000000000000000e+00  -2.8187130475218385e+01 2.0811027428119756e-03 0.0000000000000000e+00  -2.8187066781376650e+01 2.1097934969334054e-03 0.0000000000000000e+00  -2.8187148434284818e+01 2.0544748303144744e-03 0.0000000000000000e+00  -2.8186986486328109e+01 2.1498723486641520e-03 0.0000000000000000e+00  -2.8187119675725388e+01 1.9418840646430993e-03 0.0000000000000000e+00  -2.8186575321892825e+01 2.1672891227131623e-03 0.0000000000000000e+00  -2.8186313323423811e+01 1.2859177299122239e-03 0.0000000000000000e+00  -2.8184436361437132e+01 1.7286438677783847e-03 0.0000000000000000e+00  -2.8184070595395294e+01 9.5373938194553227e-04 0.0000000000000000e+00  -2.8187206786265406e+01 7.2803306173722495e-03 0.0000000000000000e+00  -2.8190076336143154e+01 1.1080340569208178e-02 0.0000000000000000e+00  -2.8196071514062876e+01 2.1333218023841766e-02 0.0000000000000000e+00  -2.8176348987130485e+01 3.0843739902714596e-02 0.0000000000000000e+00  -2.8171902382188275e+01 0.0000000000000000e+00 0.0000000000000000e+00  -3.2443340613480331e+01 0.0000000000000000e+00 0.0000000000000000e+00  -3.2440035559206869e+01 6.3134770191123337e-03 0.0000000000000000e+00  -3.2438763186138772e+01 4.8129758447740126e-03 0.0000000000000000e+00  -3.2438017578634792e+01 3.2137787208907521e-03 0.0000000000000000e+00  -3.2437331716697628e+01 2.1428629736544883e-03 0.0000000000000000e+00  -3.2436648058768192e+01 1.5129101686234771e-03 0.0000000000000000e+00  -3.2435973625884266e+01 1.1429228672658969e-03 0.0000000000000000e+00  -3.2435297492849429e+01 9.5583363641544292e-04 0.0000000000000000e+00  -3.2434689174839171e+01 1.0131387182894173e-03 0.0000000000000000e+00  -3.2434280161477488e+01 1.2638398078299805e-03 0.0000000000000000e+00  -3.2434087595209441e+01 1.5471684182009917e-03 0.0000000000000000e+00  -3.2434027839668055e+01 1.7631459112667598e-03 0.0000000000000000e+00  -3.2434021896553105e+01 1.8970592269405223e-03 0.0000000000000000e+00  -3.2434029049736033e+01 1.9705710228363478e-03 0.0000000000000000e+00  -3.2434035671628095e+01 2.0078437625148824e-03 0.0000000000000000e+00  -3.2434039417037475e+01 2.0258262040152662e-03 0.0000000000000000e+00  -3.2434041144903176e+01 2.0342613481706992e-03 0.0000000000000000e+00  -3.2434041841040838e+01 2.0381796180803801e-03 0.0000000000000000e+00  -3.2434042108265835e+01 2.0400021055060201e-03 0.0000000000000000e+00  -3.2434042205574073e+01 2.0408547687261113e-03 0.0000000000000000e+00  -3.2434042243603081e+01 2.0412584849250899e-03 0.0000000000000000e+00  -3.2434042257637529e+01 2.0414507791096190e-03 0.0000000000000000e+00  -3.2434042263875419e+01 2.0415442446431093e-03 0.0000000000000000e+00  -3.2434042266242244e+01 2.0415893400364642e-03 0.0000000000000000e+00  -3.2434042267499855e+01 2.0416119583213784e-03 0.0000000000000000e+00  -3.2434042268003090e+01 2.0416227964139824e-03 0.0000000000000000e+00  -3.2434042268317263e+01 2.0416284574215600e-03 0.0000000000000000e+00  -3.2434042268448842e+01 2.0416310671220899e-03 0.0000000000000000e+00  -3.2434042268533297e+01 2.0416325171422616e-03 0.0000000000000000e+00  -3.2434042268571346e+01 2.0416331317060304e-03 0.0000000000000000e+00  -3.2434042268591362e+01 2.0416335116700515e-03 0.0000000000000000e+00  -3.2434042268604628e+01 2.0416336500829824e-03 0.0000000000000000e+00  -3.2434042268609531e+01 2.0416337525557345e-03 0.0000000000000000e+00  -3.2434042268614682e+01 2.0416337804072312e-03 0.0000000000000000e+00  -3.2434042268614490e+01 2.0416338085498353e-03 0.0000000000000000e+00  -3.2434042268617382e+01 2.0416338146284400e-03 0.0000000000000000e+00  -3.2434042268616452e+01 2.0416338228728859e-03 0.0000000000000000e+00  -3.2434042268616892e+01 2.0416338227267627e-03 0.0000000000000000e+00  -3.2434042268616317e+01 2.0416338252924999e-03 0.0000000000000000e+00  -3.2434042268616153e+01 2.0416338255526373e-03 0.0000000000000000e+00  -3.2434042268617461e+01 2.0416338264521239e-03 0.0000000000000000e+00  -3.2434042268616992e+01 2.0416338257751980e-03 0.0000000000000000e+00  -3.2434042268618320e+01 2.0416338263707689e-03 0.0000000000000000e+00  -3.2434042268616757e+01 2.0416338260089086e-03 0.0000000000000000e+00  -3.2434042268619827e+01 2.0416338242903935e-03 0.0000000000000000e+00  -3.2434042268610384e+01 2.0416338252426851e-03 0.0000000000000000e+00  -3.2434042268627742e+01 2.0416338224262904e-03 0.0000000000000000e+00  -3.2434042268582232e+01 2.0416338255240980e-03 0.0000000000000000e+00  -3.2434042268671035e+01 2.0416338117336149e-03 0.0000000000000000e+00  -3.2434042268447634e+01 2.0416338246873364e-03 0.0000000000000000e+00  -3.2434042268888028e+01 2.0416337663823857e-03 0.0000000000000000e+00  -3.2434042267824736e+01 2.0416338209003578e-03 0.0000000000000000e+00  -3.2434042269925925e+01 2.0416335830084151e-03 0.0000000000000000e+00  -3.2434042264998020e+01 2.0416337946219491e-03 0.0000000000000000e+00  -3.2434042274653059e+01 2.0416328781985606e-03 0.0000000000000000e+00  -3.2434042252641255e+01 2.0416335268665228e-03 0.0000000000000000e+00  -3.2434042295039120e+01 2.0416303701394898e-03 0.0000000000000000e+00  -3.2434042201192874e+01 2.0416314193637962e-03 0.0000000000000000e+00  -3.2434042377042246e+01 2.0416224075928192e-03 0.0000000000000000e+00  -3.2434042000425258e+01 2.0416175309603095e-03 0.0000000000000000e+00  -3.2434042678021719e+01 2.0416011633328721e-03 0.0000000000000000e+00  -3.2434041281069170e+01 2.0415392699799700e-03 0.0000000000000000e+00  -3.2434043651836070e+01 2.0415582257854795e-03 0.0000000000000000e+00  -3.2434038974355673e+01 2.0411627303350056e-03 0.0000000000000000e+00  -3.2434046272660545e+01 2.0414949541150353e-03 0.0000000000000000e+00  -3.2434032518584210e+01 2.0396512010076888e-03 0.0000000000000000e+00  -3.2434051477195389e+01 2.0412215729841208e-03 0.0000000000000000e+00  -3.2434016572956899e+01 2.0347433439460178e-03 0.0000000000000000e+00  -3.2434056072851881e+01 2.0377168734782803e-03 0.0000000000000000e+00  -3.2433975136181232e+01 2.0196514628490099e-03 0.0000000000000000e+00  -3.2434036956563752e+01 1.9984239964583833e-03 0.0000000000000000e+00  -3.2433822571069939e+01 1.9229906590997475e-03 0.0000000000000000e+00  -3.2433903803958486e+01 1.6303879348071196e-03 0.0000000000000000e+00  -3.2433306121754406e+01 1.2226189541245870e-03 0.0000000000000000e+00  -3.2433706197676678e+01 3.0293923158785334e-04 0.0000000000000000e+00  -3.2430996323940718e+01 9.8709966953055466e-04 0.0000000000000000e+00  -3.2424962587707228e+01 1.7384148591699533e-04 0.0000000000000000e+00  -3.2402756908222912e+01 -2.1250837803958242e-03 0.0000000000000000e+00  -3.2391215335262260e+01 1.6757192231952641e-03 0.0000000000000000e+00  -3.2372016429189905e+01 -9.1938230282300783e-03 0.0000000000000000e+00  -3.2409029123703952e+01 0.0000000000000000e+00 0.0000000000000000e+00  -3.0483855987774373e+01 0.0000000000000000e+00 0.0000000000000000e+00  -3.0474049989994153e+01 2.3036664196079168e-03 0.0000000000000000e+00  -3.0468951585234667e+01 1.0585176937767126e-03 0.0000000000000000e+00  -3.0466811806814334e+01 -1.8291635502875762e-04 0.0000000000000000e+00  -3.0466218097459283e+01 -9.7654546670648194e-04 0.0000000000000000e+00  -3.0466432208039063e+01 -1.4378155321297032e-03 0.0000000000000000e+00  -3.0467076162544089e+01 -1.7002942756267837e-03 0.0000000000000000e+00  -3.0467959496031281e+01 -1.8418625805270790e-03 0.0000000000000000e+00  -3.0468879558205270e+01 -1.7685570896903001e-03 0.0000000000000000e+00  -3.0469643032657153e+01 -1.5081046116134306e-03 0.0000000000000000e+00  -3.0470170626166951e+01 -1.2352864245099879e-03 0.0000000000000000e+00  -3.0470488257441801e+01 -1.0460103620837751e-03 0.0000000000000000e+00  -3.0470660829357229e+01 -9.3882522768319935e-04 0.0000000000000000e+00  -3.0470748153725950e+01 -8.8440110865804561e-04 0.0000000000000000e+00  -3.0470790273586978e+01 -8.5840622384380193e-04 0.0000000000000000e+00  -3.0470810094538230e+01 -8.4636345878372741e-04 0.0000000000000000e+00  -3.0470819313272916e+01 -8.4079713324901654e-04 0.0000000000000000e+00  -3.0470823617884172e+01 -8.3820175033492397e-04 0.0000000000000000e+00  -3.0470825634579132e+01 -8.3697130454763249e-04 0.0000000000000000e+00  -3.0470826593627343e+01 -8.3638572913782264e-04 0.0000000000000000e+00  -3.0470827051033901e+01 -8.3610316359592483e-04 0.0000000000000000e+00  -3.0470827273583843e+01 -8.3596749083686786e-04 0.0000000000000000e+00  -3.0470827381468506e+01 -8.3590087603113402e-04 0.0000000000000000e+00  -3.0470827435063150e+01 -8.3586867126822268e-04 0.0000000000000000e+00  -3.0470827461283214e+01 -8.3585248187543104e-04 0.0000000000000000e+00  -3.0470827474502865e+01 -8.3584468195844477e-04 0.0000000000000000e+00  -3.0470827480970925e+01 -8.3584065592562601e-04 0.0000000000000000e+00  -3.0470827484257544e+01 -8.3583875740906634e-04 0.0000000000000000e+00  -3.0470827485857427e+01 -8.3583774727572933e-04 0.0000000000000000e+00  -3.0470827486671155e+01 -8.3583728643526892e-04 0.0000000000000000e+00  -3.0470827487068362e+01 -8.3583703252248251e-04 0.0000000000000000e+00  -3.0470827487265282e+01 -8.3583691791505078e-04 0.0000000000000000e+00  -3.0470827487365238e+01 -8.3583685707099367e-04 0.0000000000000000e+00  -3.0470827487412460e+01 -8.3583682952135629e-04 0.0000000000000000e+00  -3.0470827487439180e+01 -8.3583681464731441e-04 0.0000000000000000e+00  -3.0470827487450499e+01 -8.3583680698534287e-04 0.0000000000000000e+00  -3.0470827487457349e+01 -8.3583680497249682e-04 0.0000000000000000e+00  -3.0470827487458720e+01 -8.3583680213190990e-04 0.00000