<?xml version="1.0"?>
<VTKFile type="UnstructuredGrid"  version="0.1"  >
<UnstructuredGrid>
<Piece  NumberOfPoints="1369" NumberOfCells="2560">
<Points>
<DataArray  type="Float64"  NumberOfComponents="3"  format="ascii">0 0 0  0.75 0 0  1.5 0 0  2.25 0 0  3 0 0  3.75 0 0  4.5 0 0  5.25 0 0  6 0 0  6.75 0 0  7.5 0 0  8.25 0 0  9 0 0  9.75 0 0  10.5 0 0  11.25 0 0  12 0 0  12.75 0 0  13.5 0 0  14.25 0 0  15 0 0  15.75 0 0  16.5 0 0  17.25 0 0  18 0 0  18.75 0 0  19.5 0 0  20.25 0 0  21 0 0  21.75 0 0  22.5 0 0  23.25 0 0  24 0 0  24.75 0 0  25.5 0 0  26.25 0 0  27 0 0  27.75 0 0  28.5 0 0  29.25 0 0  30 0 0  30.75 0 0  31.5 0 0  32.25 0 0  33 0 0  33.75 0 0  34.5 0 0  35.25 0 0  36 0 0  36.75 0 0  37.5 0 0  38.25 0 0  39 0 0  39.75 0 0  40.5 0 0  41.25 0 0  42 0 0  42.75 0 0  43.5 0 0  44.25 0 0  45 0 0  45.75 0 0  46.5 0 0  47.25 0 0  48 0 0  48.75 0 0  49.5 0 0  50.25 0 0  51 0 0  51.75 0 0  52.5 0 0  53.25 0 0  54 0 0  54.75 0 0  55.5 0 0  56.25 0 0  57 0 0  57.75 0 0  58.5 0 0  59.25 0 0  60 0 0  0 0.5 0  0.75 0.5 0  1.5 0.5 0  2.25 0.5 0  3 0.5 0  3.75 0.5 0  4.5 0.5 0  5.25 0.5 0  6 0.5 0  6.75 0.5 0  7.5 0.5 0  8.25 0.5 0  9 0.5 0  9.75 0.5 0  10.5 0.5 0  11.25 0.5 0  12 0.5 0  12.75 0.5 0  13.5 0.5 0  14.25 0.5 0  15 0.5 0  15.75 0.5 0  16.5 0.5 0  17.25 0.5 0  18 0.5 0  18.75 0.5 0  19.5 0.5 0  20.25 0.5 0  21 0.5 0  21.75 0.5 0  22.5 0.5 0  23.25 0.5 0  24 0.5 0  24.75 0.5 0  25.5 0.5 0  26.25 0.5 0  27 0.5 0  27.75 0.5 0  28.5 0.5 0  29.25 0.5 0  30 0.5 0  30.75 0.5 0  31.5 0.5 0  32.25 0.5 0  33 0.5 0  33.75 0.5 0  34.5 0.5 0  35.25 0.5 0  36 0.5 0  36.75 0.5 0  37.5 0.5 0  38.25 0.5 0  39 0.5 0  39.75 0.5 0  40.5 0.5 0  41.25 0.5 0  42 0.5 0  42.75 0.5 0  43.5 0.5 0  44.25 0.5 0  45 0.5 0  45.75 0.5 0  46.5 0.5 0  47.25 0.5 0  48 0.5 0  48.75 0.5 0  49.5 0.5 0  50.25 0.5 0  51 0.5 0  51.75 0.5 0  52.5 0.5 0  53.25 0.5 0  54 0.5 0  54.75 0.5 0  55.5 0.5 0  56.25 0.5 0  57 0.5 0  57.75 0.5 0  58.5 0.5 0  59.25 0.5 0  60 0.5 0  0 1 0  0.75 1 0  1.5 1 0  2.25 1 0  3 1 0  3.75 1 0  4.5 1 0  5.25 1 0  6 1 0  6.75 1 0  7.5 1 0  8.25 1 0  9 1 0  9.75 1 0  10.5 1 0  11.25 1 0  12 1 0  12.75 1 0  13.5 1 0  14.25 1 0  15 1 0  15.75 1 0  16.5 1 0  17.25 1 0  18 1 0  18.75 1 0  19.5 1 0  20.25 1 0  21 1 0  21.75 1 0  22.5 1 0  23.25 1 0  24 1 0  24.75 1 0  25.5 1 0  26.25 1 0  27 1 0  27.75 1 0  28.5 1 0  29.25 1 0  30 1 0  30.75 1 0  31.5 1 0  32.25 1 0  33 1 0  33.75 1 0  34.5 1 0  35.25 1 0  36 1 0  36.75 1 0  37.5 1 0  38.25 1 0  39 1 0  39.75 1 0  40.5 1 0  41.25 1 0  42 1 0  42.75 1 0  43.5 1 0  44.25 1 0  45 1 0  45.75 1 0  46.5 1 0  47.25 1 0  48 1 0  48.75 1 0  49.5 1 0  50.25 1 0  51 1 0  51.75 1 0  52.5 1 0  53.25 1 0  54 1 0  54.75 1 0  55.5 1 0  56.25 1 0  57 1 0  57.75 1 0  58.5 1 0  59.25 1 0  60 1 0  0 1.5 0  0.75 1.5 0  1.5 1.5 0  2.25 1.5 0  3 1.5 0  3.75 1.5 0  4.5 1.5 0  5.25 1.5 0  6 1.5 0  6.75 1.5 0  7.5 1.5 0  8.25 1.5 0  9 1.5 0  9.75 1.5 0  10.5 1.5 0  11.25 1.5 0  12 1.5 0  12.75 1.5 0  13.5 1.5 0  14.25 1.5 0  15 1.5 0  15.75 1.5 0  16.5 1.5 0  17.25 1.5 0  18 1.5 0  18.75 1.5 0  19.5 1.5 0  20.25 1.5 0  21 1.5 0  21.75 1.5 0  22.5 1.5 0  23.25 1.5 0  24 1.5 0  24.75 1.5 0  25.5 1.5 0  26.25 1.5 0  27 1.5 0  27.75 1.5 0  28.5 1.5 0  29.25 1.5 0  30 1.5 0  30.75 1.5 0  31.5 1.5 0  32.25 1.5 0  33 1.5 0  33.75 1.5 0  34.5 1.5 0  35.25 1.5 0  36 1.5 0  36.75 1.5 0  37.5 1.5 0  38.25 1.5 0  39 1.5 0  39.75 1.5 0  40.5 1.5 0  41.25 1.5 0  42 1.5 0  42.75 1.5 0  43.5 1.5 0  44.25 1.5 0  45 1.5 0  45.75 1.5 0  46.5 1.5 0  47.25 1.5 0  48 1.5 0  48.75 1.5 0  49.5 1.5 0  50.25 1.5 0  51 1.5 0  51.75 1.5 0  52.5 1.5 0  53.25 1.5 0  54 1.5 0  54.75 1.5 0  55.5 1.5 0  56.25 1.5 0  57 1.5 0  57.75 1.5 0  58.5 1.5 0  59.25 1.5 0  60 1.5 0  0 2 0  0.75 2 0  1.5 2 0  2.25 2 0  3 2 0  3.75 2 0  4.5 2 0  5.25 2 0  6 2 0  6.75 2 0  7.5 2 0  8.25 2 0  9 2 0  9.75 2 0  10.5 2 0  11.25 2 0  12 2 0  12.75 2 0  13.5 2 0  14.25 2 0  15 2 0  15.75 2 0  16.5 2 0  17.25 2 0  18 2 0  18.75 2 0  19.5 2 0  20.25 2 0  21 2 0  21.75 2 0  22.5 2 0  23.25 2 0  24 2 0  24.75 2 0  25.5 2 0  26.25 2 0  27 2 0  27.75 2 0  28.5 2 0  29.25 2 0  30 2 0  30.75 2 0  31.5 2 0  32.25 2 0  33 2 0  33.75 2 0  34.5 2 0  35.25 2 0  36 2 0  36.75 2 0  37.5 2 0  38.25 2 0  39 2 0  39.75 2 0  40.5 2 0  41.25 2 0  42 2 0  42.75 2 0  43.5 2 0  44.25 2 0  45 2 0  45.75 2 0  46.5 2 0  47.25 2 0  48 2 0  48.75 2 0  49.5 2 0  50.25 2 0  51 2 0  51.75 2 0  52.5 2 0  53.25 2 0  54 2 0  54.75 2 0  55.5 2 0  56.25 2 0  57 2 0  57.75 2 0  58.5 2 0  59.25 2 0  60 2 0  0 2.5 0  0.75 2.5 0  1.5 2.5 0  2.25 2.5 0  3 2.5 0  3.75 2.5 0  4.5 2.5 0  5.25 2.5 0  6 2.5 0  6.75 2.5 0  7.5 2.5 0  8.25 2.5 0  9 2.5 0  9.75 2.5 0  10.5 2.5 0  11.25 2.5 0  12 2.5 0  12.75 2.5 0  13.5 2.5 0  14.25 2.5 0  15 2.5 0  15.75 2.5 0  16.5 2.5 0  17.25 2.5 0  18 2.5 0  18.75 2.5 0  19.5 2.5 0  20.25 2.5 0  21 2.5 0  21.75 2.5 0  22.5 2.5 0  23.25 2.5 0  24 2.5 0  24.75 2.5 0  25.5 2.5 0  26.25 2.5 0  27 2.5 0  27.75 2.5 0  28.5 2.5 0  29.25 2.5 0  30 2.5 0  30.75 2.5 0  31.5 2.5 0  32.25 2.5 0  33 2.5 0  33.75 2.5 0  34.5 2.5 0  35.25 2.5 0  36 2.5 0  36.75 2.5 0  37.5 2.5 0  38.25 2.5 0  39 2.5 0  39.75 2.5 0  40.5 2.5 0  41.25 2.5 0  42 2.5 0  42.75 2.5 0  43.5 2.5 0  44.25 2.5 0  45 2.5 0  45.75 2.5 0  46.5 2.5 0  47.25 2.5 0  48 2.5 0  48.75 2.5 0  49.5 2.5 0  50.25 2.5 0  51 2.5 0  51.75 2.5 0  52.5 2.5 0  53.25 2.5 0  54 2.5 0  54.75 2.5 0  55.5 2.5 0  56.25 2.5 0  57 2.5 0  57.75 2.5 0  58.5 2.5 0  59.25 2.5 0  60 2.5 0  0 3 0  0.75 3 0  1.5 3 0  2.25 3 0  3 3 0  3.75 3 0  4.5 3 0  5.25 3 0  6 3 0  6.75 3 0  7.5 3 0  8.25 3 0  9 3 0  9.75 3 0  10.5 3 0  11.25 3 0  12 3 0  12.75 3 0  13.5 3 0  14.25 3 0  15 3 0  15.75 3 0  16.5 3 0  17.25 3 0  18 3 0  18.75 3 0  19.5 3 0  20.25 3 0  21 3 0  21.75 3 0  22.5 3 0  23.25 3 0  24 3 0  24.75 3 0  25.5 3 0  26.25 3 0  27 3 0  27.75 3 0  28.5 3 0  29.25 3 0  30 3 0  30.75 3 0  31.5 3 0  32.25 3 0  33 3 0  33.75 3 0  34.5 3 0  35.25 3 0  36 3 0  36.75 3 0  37.5 3 0  38.25 3 0  39 3 0  39.75 3 0  40.5 3 0  41.25 3 0  42 3 0  42.75 3 0  43.5 3 0  44.25 3 0  45 3 0  45.75 3 0  46.5 3 0  47.25 3 0  48 3 0  48.75 3 0  49.5 3 0  50.25 3 0  51 3 0  51.75 3 0  52.5 3 0  53.25 3 0  54 3 0  54.75 3 0  55.5 3 0  56.25 3 0  57 3 0  57.75 3 0  58.5 3 0  59.25 3 0  60 3 0  0 3.5 0  0.75 3.5 0  1.5 3.5 0  2.25 3.5 0  3 3.5 0  3.75 3.5 0  4.5 3.5 0  5.25 3.5 0  6 3.5 0  6.75 3.5 0  7.5 3.5 0  8.25 3.5 0  9 3.5 0  9.75 3.5 0  10.5 3.5 0  11.25 3.5 0  12 3.5 0  12.75 3.5 0  13.5 3.5 0  14.25 3.5 0  15 3.5 0  15.75 3.5 0  16.5 3.5 0  17.25 3.5 0  18 3.5 0  18.75 3.5 0  19.5 3.5 0  20.25 3.5 0  21 3.5 0  21.75 3.5 0  22.5 3.5 0  23.25 3.5 0  24 3.5 0  24.75 3.5 0  25.5 3.5 0  26.25 3.5 0  27 3.5 0  27.75 3.5 0  28.5 3.5 0  29.25 3.5 0  30 3.5 0  30.75 3.5 0  31.5 3.5 0  32.25 3.5 0  33 3.5 0  33.75 3.5 0  34.5 3.5 0  35.25 3.5 0  36 3.5 0  36.75 3.5 0  37.5 3.5 0  38.25 3.5 0  39 3.5 0  39.75 3.5 0  40.5 3.5 0  41.25 3.5 0  42 3.5 0  42.75 3.5 0  43.5 3.5 0  44.25 3.5 0  45 3.5 0  45.75 3.5 0  46.5 3.5 0  47.25 3.5 0  48 3.5 0  48.75 3.5 0  49.5 3.5 0  50.25 3.5 0  51 3.5 0  51.75 3.5 0  52.5 3.5 0  53.25 3.5 0  54 3.5 0  54.75 3.5 0  55.5 3.5 0  56.25 3.5 0  57 3.5 0  57.75 3.5 0  58.5 3.5 0  59.25 3.5 0  60 3.5 0  0 4 0  0.75 4 0  1.5 4 0  2.25 4 0  3 4 0  3.75 4 0  4.5 4 0  5.25 4 0  6 4 0  6.75 4 0  7.5 4 0  8.25 4 0  9 4 0  9.75 4 0  10.5 4 0  11.25 4 0  12 4 0  12.75 4 0  13.5 4 0  14.25 4 0  15 4 0  15.75 4 0  16.5 4 0  17.25 4 0  18 4 0  18.75 4 0  19.5 4 0  20.25 4 0  21 4 0  21.75 4 0  22.5 4 0  23.25 4 0  24 4 0  24.75 4 0  25.5 4 0  26.25 4 0  27 4 0  27.75 4 0  28.5 4 0  29.25 4 0  30 4 0  30.75 4 0  31.5 4 0  32.25 4 0  33 4 0  33.75 4 0  34.5 4 0  35.25 4 0  36 4 0  36.75 4 0  37.5 4 0  38.25 4 0  39 4 0  39.75 4 0  40.5 4 0  41.25 4 0  42 4 0  42.75 4 0  43.5 4 0  44.25 4 0  45 4 0  45.75 4 0  46.5 4 0  47.25 4 0  48 4 0  48.75 4 0  49.5 4 0  50.25 4 0  51 4 0  51.75 4 0  52.5 4 0  53.25 4 0  54 4 0  54.75 4 0  55.5 4 0  56.25 4 0  57 4 0  57.75 4 0  58.5 4 0  59.25 4 0  60 4 0  0.375 0.25 0  1.125 0.25 0  1.875 0.25 0  2.625 0.25 0  3.375 0.25 0  4.125 0.25 0  4.875 0.25 0  5.625 0.25 0  6.375 0.25 0  7.125 0.25 0  7.875 0.25 0  8.625 0.25 0  9.375 0.25 0  10.125 0.25 0  10.875 0.25 0  11.625 0.25 0  12.375 0.25 0  13.125 0.25 0  13.875 0.25 0  14.625 0.25 0  15.375 0.25 0  16.125 0.25 0  16.875 0.25 0  17.625 0.25 0  18.375 0.25 0  19.125 0.25 0  19.875 0.25 0  20.625 0.25 0  21.375 0.25 0  22.125 0.25 0  22.875 0.25 0  23.625 0.25 0  24.375 0.25 0  25.125 0.25 0  25.875 0.25 0  26.625 0.25 0  27.375 0.25 0  28.125 0.25 0  28.875 0.25 0  29.625 0.25 0  30.375 0.25 0  31.125 0.25 0  31.875 0.25 0  32.625 0.25 0  33.375 0.25 0  34.125 0.25 0  34.875 0.25 0  35.625 0.25 0  36.375 0.25 0  37.125 0.25 0  37.875 0.25 0  38.625 0.25 0  39.375 0.25 0  40.125 0.25 0  40.875 0.25 0  41.625 0.25 0  42.375 0.25 0  43.125 0.25 0  43.875 0.25 0  44.625 0.25 0  45.375 0.25 0  46.125 0.25 0  46.875 0.25 0  47.625 0.25 0  48.375 0.25 0  49.125 0.25 0  49.875 0.25 0  50.625 0.25 0  51.375 0.25 0  52.125 0.25 0  52.875 0.25 0  53.625 0.25 0  54.375 0.25 0  55.125 0.25 0  55.875 0.25 0  56.625 0.25 0  57.375 0.25 0  58.125 0.25 0  58.875 0.25 0  59.625 0.25 0  0.375 0.75 0  1.125 0.75 0  1.875 0.75 0  2.625 0.75 0  3.375 0.75 0  4.125 0.75 0  4.875 0.75 0  5.625 0.75 0  6.375 0.75 0  7.125 0.75 0  7.875 0.75 0  8.625 0.75 0  9.375 0.75 0  10.125 0.75 0  10.875 0.75 0  11.625 0.75 0  12.375 0.75 0  13.125 0.75 0  13.875 0.75 0  14.625 0.75 0  15.375 0.75 0  16.125 0.75 0  16.875 0.75 0  17.625 0.75 0  18.375 0.75 0  19.125 0.75 0  19.875 0.75 0  20.625 0.75 0  21.375 0.75 0  22.125 0.75 0  22.875 0.75 0  23.625 0.75 0  24.375 0.75 0  25.125 0.75 0  25.875 0.75 0  26.625 0.75 0  27.375 0.75 0  28.125 0.75 0  28.875 0.75 0  29.625 0.75 0  30.375 0.75 0  31.125 0.75 0  31.875 0.75 0  32.625 0.75 0  33.375 0.75 0  34.125 0.75 0  34.875 0.75 0  35.625 0.75 0  36.375 0.75 0  37.125 0.75 0  37.875 0.75 0  38.625 0.75 0  39.375 0.75 0  40.125 0.75 0  40
[...]
<PointData  Vectors="f_8-0"> 
<DataArray  type="Float64"  Name="f_8-0"  NumberOfComponents="3" format="ascii">0.0000000000000000e+00 0.0000000000000000e+00 0.0000000000000000e+00  0.0000000000000000e+00 0.0000000000000000e+00 0.0000000000000000e+00  0.0000000000000000e+00 0.0000000000000000e+00 0.0000000000000000e+00  0.0000000000000000e+00 0.0000000000000000e+00 0.0000000000000000e+00  0.0000000000000000e+00 0.0000000000000000e+00 0.0000000000000000e+00  0.0000000000000000e+00 0.0000000000000000e+00 0.0000000000000000e+00  0.0000000000000000e+00 0.0000000000000000e+00 0.0000000000000000e+00  0.0000000000000000e+00 0.0000000000000000e+00 0.0000000000000000e+00  0.0000000000000000e+00 0.0000000000000000e+00 0.0000000000000000e+00  0.0000000000000000e+00 0.0000000000000000e+00 0.0000000000000000e+00  0.0000000000000000e+00 0.0000000000000000e+00 0.0000000000000000e+00  0.0000000000000000e+00 0.0000000000000000e+00 0.0000000000000000e+00  0.0000000000000000e+00 0.0000000000000000e+00 0.0000000000000000e+00  0.0000000000000000e+00 0.0000000000000000e+00 0.0000000000000000e+00  0.0000000000000000e+00 0.0000000000000000e+00 0.0000000000000000e+00  0.0000000000000000e+00 0.0000000000000000e+00 0.0000000000000000e+00  0.0000000000000000e+00 0.0000000000000000e+00 0.0000000000000000e+00  0.0000000000000000e+00 0.0000000000000000e+00 0.0000000000000000e+00  0.0000000000000000e+00 0.0000000000000000e+00 0.0000000000000000e+00  0.0000000000000000e+00 0.0000000000000000e+00 0.0000000000000000e+00  0.0000000000000000e+00 0.0000000000000000e+00 0.0000000000000000e+00  0.0000000000000000e+00 0.0000000000000000e+00 0.0000000000000000e+00  0.0000000000000000e+00 0.0000000000000000e+00 0.0000000000000000e+00  0.0000000000000000e+00 0.0000000000000000e+00 0.0000000000000000e+00  0.0000000000000000e+00 0.0000000000000000e+00 0.0000000000000000e+00  0.0000000000000000e+00 0.0000000000000000e+00 0.0000000000000000e+00  0.0000000000000000e+00 0.0000000000000000e+00 0.0000000000000000e+00  0.0000000000000000e+00 0.0000000000000000e+00 0.0000000000000000e+00  0.0000000000000000e+00 0.0000000000000000e+00 0.0000000000000000e+00  0.0000000000000000e+00 0.0000000000000000e+00 0.0000000000000000e+00  0.0000000000000000e+00 0.0000000000000000e+00 0.0000000000000000e+00  0.0000000000000000e+00 0.0000000000000000e+00 0.0000000000000000e+00  0.0000000000000000e+00 0.0000000000000000e+00 0.0000000000000000e+00  0.0000000000000000e+00 0.0000000000000000e+00 0.0000000000000000e+00  0.0000000000000000e+00 0.0000000000000000e+00 0.0000000000000000e+00  0.0000000000000000e+00 0.0000000000000000e+00 0.0000000000000000e+00  0.0000000000000000e+00 0.0000000000000000e+00 0.0000000000000000e+00  0.0000000000000000e+00 0.0000000000000000e+00 0.0000000000000000e+00  0.0000000000000000e+00 0.0000000000000000e+00 0.0000000000000000e+00  0.0000000000000000e+00 0.0000000000000000e+00 0.0000000000000000e+00  0.0000000000000000e+00 0.0000000000000000e+00 0.0000000000000000e+00  0.0000000000000000e+00 0.0000000000000000e+00 0.0000000000000000e+00  0.0000000000000000e+00 0.0000000000000000e+00 0.0000000000000000e+00  0.0000000000000000e+00 0.0000000000000000e+00 0.0000000000000000e+00  0.0000000000000000e+00 0.0000000000000000e+00 0.0000000000000000e+00  0.0000000000000000e+00 0.0000000000000000e+00 0.0000000000000000e+00  0.0000000000000000e+00 0.0000000000000000e+00 0.0000000000000000e+00  0.0000000000000000e+00 0.0000000000000000e+00 0.0000000000000000e+00  0.0000000000000000e+00 0.0000000000000000e+00 0.0000000000000000e+00  0.0000000000000000e+00 0.0000000000000000e+00 0.0000000000000000e+00  0.0000000000000000e+00 0.0000000000000000e+00 0.0000000000000000e+00  0.0000000000000000e+00 0.0000000000000000e+00 0.0000000000000000e+00  0.0000000000000000e+00 0.0000000000000000e+00 0.0000000000000000e+00  0.0000000000000000e+00 0.0000000000000000e+00 0.0000000000000000e+00  0.0000000000000000e+00 0.0000000000000000e+00 0.0000000000000000e+00  0.0000000000000000e+00 0.0000000000000000e+00 0.0000000000000000e+00  0.0000000000000000e+00 0.0000000000000000e+00 0.0000000000000000e+00  0.0000000000000000e+00 0.0000000000000000e+00 0.0000000000000000e+00  0.0000000000000000e+00 0.0000000000000000e+00 0.0000000000000000e+00  0.0000000000000000e+00 0.0000000000000000e+00 0.0000000000000000e+00  0.0000000000000000e+00 0.0000000000000000e+00 0.0000000000000000e+00  0.0000000000000000e+00 0.0000000000000000e+00 0.0000000000000000e+00  0.0000000000000000e+00 0.0000000000000000e+00 0.0000000000000000e+00  0.0000000000000000e+00 0.0000000000000000e+00 0.0000000000000000e+00  0.0000000000000000e+00 0.0000000000000000e+00 0.0000000000000000e+00  0.0000000000000000e+00 0.0000000000000000e+00 0.0000000000000000e+00  0.0000000000000000e+00 0.0000000000000000e+00 0.0000000000000000e+00  0.0000000000000000e+00 0.0000000000000000e+00 0.0000000000000000e+00  0.0000000000000000e+00 0.0000000000000000e+00 0.0000000000000000e+00  0.0000000000000000e+00 0.0000000000000000e+00 0.0000000000000000e+00  0.0000000000000000e+00 0.0000000000000000e+00 0.0000000000000000e+00  0.0000000000000000e+00 0.0000000000000000e+00 0.0000000000000000e+00  0.0000000000000000e+00 0.0000000000000000e+00 0.0000000000000000e+00  0.0000000000000000e+00 0.0000000000000000e+00 0.0000000000000000e+00  0.0000000000000000e+00 0.0000000000000000e+00 0.0000000000000000e+00  0.0000000000000000e+00 0.0000000000000000e+00 0.0000000000000000e+00  0.0000000000000000e+00 0.0000000000000000e+00 0.0000000000000000e+00  0.0000000000000000e+00 0.0000000000000000e+00 0.0000000000000000e+00  0.0000000000000000e+00 0.0000000000000000e+00 0.0000000000000000e+00  0.0000000000000000e+00 0.0000000000000000e+00 0.0000000000000000e+00  0.0000000000000000e+00 0.0000000000000000e+00 0.0000000000000000e+00  1.2028342151664509e+01 0.0000000000000000e+00 0.0000000000000000e+00  1.2064458837718918e+01 -7.4622478978769280e-02 0.0000000000000000e+00  1.2044502259091665e+01 -2.3260505958508454e-02 0.0000000000000000e+00  1.2038351203351567e+01 -5.8829672372344962e-03 0.0000000000000000e+00  1.2029283173552049e+01 -4.4406181939342275e-03 0.0000000000000000e+00  1.2019462205010264e+01 -3.0548931317865846e-03 0.0000000000000000e+00  1.2016287706452623e+01 -6.0914505728256636e-03 0.0000000000000000e+00  1.2014868555451946e+01 -6.4818472991517101e-03 0.0000000000000000e+00  1.2017438461809867e+01 -7.9372837178409775e-03 0.0000000000000000e+00  1.2020304510971227e+01 -7.9299395480086684e-03 0.0000000000000000e+00  1.2024788970296846e+01 -8.4597975827887615e-03 0.0000000000000000e+00  1.2028985900435215e+01 -8.1562655077174803e-03 0.0000000000000000e+00  1.2033079520013858e+01 -7.9582623759326572e-03 0.0000000000000000e+00  1.2035984950035710e+01 -7.4280584482461576e-03 0.0000000000000000e+00  1.2038015852849430e+01 -7.1255581308966786e-03 0.0000000000000000e+00  1.2039119253038264e+01 -6.8401738953829524e-03 0.0000000000000000e+00  1.2039761876374371e+01 -6.7332841346203027e-03 0.0000000000000000e+00  1.2040070730295204e+01 -6.6507347811554356e-03 0.0000000000000000e+00  1.2040266342851810e+01 -6.6325925281810029e-03 0.0000000000000000e+00  1.2040379424471347e+01 -6.6119195519774186e-03 0.0000000000000000e+00  1.2040470540381643e+01 -6.6079772166393550e-03 0.0000000000000000e+00  1.2040535646753231e+01 -6.5995052875923357e-03 0.0000000000000000e+00  1.2040589064125166e+01 -6.5956894608925239e-03 0.0000000000000000e+00  1.2040628090002905e+01 -6.5907430521682233e-03 0.0000000000000000e+00  1.2040657460717311e+01 -6.5875242937732895e-03 0.0000000000000000e+00  1.2040678408764796e+01 -6.5848934655257331e-03 0.0000000000000000e+00  1.2040693026471953e+01 -6.5828884234156648e-03 0.0000000000000000e+00  1.2040703525921995e+01 -6.5817477178175751e-03 0.0000000000000000e+00  1.2040710609149246e+01 -6.5806864459022774e-03 0.0000000000000000e+00  1.2040716024099625e+01 -6.5802827339157535e-03 0.0000000000000000e+00  1.2040719739807392e+01 -6.5797370287142224e-03 0.0000000000000000e+00  1.2040722847648146e+01 -6.5796070522790668e-03 0.0000000000000000e+00  1.2040725066954288e+01 -6.5793001872077941e-03 0.0000000000000000e+00  1.2040727027286685e+01 -6.5792422292260330e-03 0.0000000000000000e+00  1.2040728457760814e+01 -6.5790491635353311e-03 0.0000000000000000e+00  1.2040729722772749e+01 -6.5790051144639069e-03 0.0000000000000000e+00  1.2040730643640940e+01 -6.5788793217038868e-03 0.0000000000000000e+00  1.2040731437283213e+01 -6.5788429251464426e-03 0.0000000000000000e+00  1.2040732009529460e+01 -6.5787642393055198e-03 0.0000000000000000e+00  1.2040732489908111e+01 -6.5787379570196140e-03 0.0000000000000000e+00  1.2040732836694938e+01 -6.5786921912550592e-03 0.0000000000000000e+00  1.2040733124711426e+01 -6.5786757462869289e-03 0.0000000000000000e+00  1.2040733338152782e+01 -6.5786510760582175e-03 0.0000000000000000e+00  1.2040733517891251e+01 -6.5786418696845749e-03 0.0000000000000000e+00  1.2040733658788117e+01 -6.5786293502148388e-03 0.0000000000000000e+00  1.2040733781655915e+01 -6.5786244200858211e-03 0.0000000000000000e+00  1.2040733884845508e+01 -6.5786180531789912e-03 0.0000000000000000e+00  1.2040733977938173e+01 -6.5786150155854872e-03 0.0000000000000000e+00  1.2040734059913889e+01 -6.5786111235107475e-03 0.0000000000000000e+00  1.2040734134361328e+01 -6.5786083765844777e-03 0.0000000000000000e+00  1.2040734200086160e+01 -6.5786049315792079e-03 0.0000000000000000e+00  1.2040734257769516e+01 -6.5786016439382203e-03 0.0000000000000000e+00  1.2040734306144952e+01 -6.5785977979671405e-03 0.0000000000000000e+00  1.2040734344881821e+01 -6.5785938388120049e-03 0.0000000000000000e+00  1.2040734373126417e+01 -6.5785896022235394e-03 0.0000000000000000e+00  1.2040734390706715e+01 -6.5785854037371970e-03 0.0000000000000000e+00  1.2040734397608180e+01 -6.5785813141688047e-03 0.0000000000000000e+00  1.2040734394408519e+01 -6.5785775789390620e-03 0.0000000000000000e+00  1.2040734382028345e+01 -6.5785743071036335e-03 0.0000000000000000e+00  1.2040734361813943e+01 -6.5785716574001049e-03 0.0000000000000000e+00  1.2040734335346107e+01 -6.5785696623232503e-03 0.0000000000000000e+00  1.2040734304370304e+01 -6.5785684202796903e-03 0.0000000000000000e+00  1.2040734270722941e+01 -6.5785678554670579e-03 0.0000000000000000e+00  1.2040734236230682e+01 -6.5785682045107008e-03 0.0000000000000000e+00  1.2040734203053068e+01 -6.5785694955486943e-03 0.0000000000000000e+00  1.2040734173993481e+01 -6.5785730381535644e-03 0.0000000000000000e+00  1.2040734154620861e+01 -6.5785809506483175e-03 0.0000000000000000e+00  1.2040734157854121e+01 -6.5786021220540919e-03 0.0000000000000000e+00  1.2040734218568351e+01 -6.5786572707253943e-03 0.0000000000000000e+00  1.2040734431419212e+01 -6.5788109945448909e-03 0.0000000000000000e+00  1.2040735056734279e+01 -6.5792368870488237e-03 0.0000000000000000e+00  1.2040736834702580e+01 -6.5804530928606185e-03 0.0000000000000000e+00  1.2040741893619579e+01 -6.5838818649377358e-03 0.0000000000000000e+00  1.2040756263799329e+01 -6.5934443536359308e-03 0.0000000000000000e+00  1.2040797088921510e+01 -6.6196908250170982e-03 0.0000000000000000e+00  1.2040914307047116e+01 -6.6890641730753047e-03 0.0000000000000000e+00  1.2041253196908622e+01 -6.8555997736000976e-03 0.0000000000000000e+00  1.2042279156082865e+01 -7.1220126737571495e-03 0.0000000000000000e+00  1.2045348829701426e+01 -7.1085943517651875e-03 0.0000000000000000e+00  1.2059577670871672e+01 3.6595286743636205e-03 0.0000000000000000e+00  1.2128321293576134e+01 0.0000000000000000e+00 0.0000000000000000e+00  2.3363812551048078e+01 0.0000000000000000e+00 0.0000000000000000e+00  2.3407216426287480e+01 4.2038539427156268e-02 0.0000000000000000e+00  2.3370356541206053e+01 7.0649084967465345e-03 0.0000000000000000e+00  2.3372102331691188e+01 1.5514919160721369e-02 0.0000000000000000e+00  2.3365464343829245e+01 1.2523818643152338e-02 0.0000000000000000e+00  2.3368584384785706e+01 7.2282262188246797e-03 0.0000000000000000e+00  2.3366689159176875e+01 4.7866590167281514e-03 0.0000000000000000e+00  2.3367994078109618e+01 5.1234481608370764e-04 0.0000000000000000e+00  2.3367326560579507e+01 -2.9129387227416493e-04 0.0000000000000000e+00  2.3368528598748089e+01 -1.8990700933816797e-03 0.0000000000000000e+00  2.3368783494822409e+01 -2.2119337046317463e-03 0.0000000000000000e+00  2.3370858333006787e+01 -2.7842805335348657e-03 0.0000000000000000e+00  2.3373135279142410e+01 -2.0263354657579277e-03 0.0000000000000000e+00  2.3375948561743531e+01 -1.1685277067881243e-03 0.0000000000000000e+00  2.3377979017636275e+01 -3.9656532784828450e-05 0.0000000000000000e+00  2.3379539498691550e+01 6.6734372041347880e-04 0.0000000000000000e+00  2.3380367724019546e+01 1.1931480379394168e-03 0.0000000000000000e+00  2.3380894588335000e+01 1.4199852690750484e-03 0.0000000000000000e+00  2.3381126427474801e+01 1.5638603277567324e-03 0.0000000000000000e+00  2.3381286805015783e+01 1.6093948671391258e-03 0.0000000000000000e+00  2.3381363867960303e+01 1.6476054320787659e-03 0.0000000000000000e+00  2.3381434089184634e+01 1.6617713143906021e-03 0.0000000000000000e+00  2.3381477398961206e+01 1.6799063276515531e-03 0.0000000000000000e+00  2.3381518032452195e+01 1.6905528093561944e-03 0.0000000000000000e+00  2.3381545070367967e+01 1.7018532756645879e-03 0.0000000000000000e+00  2.3381567720253059e+01 1.7093609336665118e-03 0.0000000000000000e+00  2.3381582691974153e+01 1.7155652448217931e-03 0.0000000000000000e+00  2.3381593994029188e+01 1.7197827646613048e-03 0.0000000000000000e+00  2.3381601527023999e+01 1.7226348871379003e-03 0.0000000000000000e+00  2.3381606855197600e+01 1.7246906567883577e-03 0.0000000000000000e+00  2.3381610658956077e+01 1.7258542453403546e-03 0.0000000000000000e+00  2.3381613305236797e+01 1.7268480140327845e-03 0.0000000000000000e+00  2.3381615439957386e+01 1.7273427576378262e-03 0.0000000000000000e+00  2.3381616949456834e+01 1.7278934857499744e-03 0.0000000000000000e+00  2.3381618295214970e+01 1.7281652962729786e-03 0.0000000000000000e+00  2.3381619255602597e+01 1.7285211497037073e-03 0.0000000000000000e+00  2.3381620138163704e+01 1.7287079830031879e-03 0.0000000000000000e+00  2.3381620760817007e+01 1.7289472218173889e-03 0.0000000000000000e+00  2.3381621324053672e+01 1.7290781605050526e-03 0.0000000000000000e+00  2.3381621714056873e+01 1.7292308280700455e-03 0.0000000000000000e+00  2.3381622057235866e+01 1.7293151864549133e-03 0.0000000000000000e+00  2.3381622292697319e+01 1.7294048960901454e-03 0.0000000000000000e+00  2.3381622495899492e+01 1.7294540775512424e-03 0.0000000000000000e+00  2.3381622637482888e+01 1.7295027045444746e-03 0.0000000000000000e+00  2.3381622759670385e+01 1.7295291104756584e-03 0.0000000000000000e+00  2.3381622849312791e+01 1.7295540249784790e-03 0.0000000000000000e+00  2.3381622928511113e+01 1.7295679001736786e-03 0.0000000000000000e+00  2.3381622991597933e+01 1.7295810701832425e-03 0.0000000000000000e+00  2.3381623049298074e+01 1.7295896117700935e-03 0.0000000000000000e+00  2.3381623099005278e+01 1.7295984758846558e-03 0.0000000000000000e+00  2.3381623145330249e+01 1.7296061213015351e-03 0.0000000000000000e+00  2.3381623186720809e+01 1.7296147382527517e-03 0.0000000000000000e+00  2.3381623224663119e+01 1.7296236095165015e-03 0.0000000000000000e+00  2.3381623257941119e+01 1.7296334788235131e-03 0.0000000000000000e+00  2.3381623286638526e+01 1.7296437863467459e-03 0.0000000000000000e+00  2.3381623309811072e+01 1.7296545006786289e-03 0.0000000000000000e+00  2.3381623327211084e+01 1.7296650549090775e-03 0.0000000000000000e+00  2.3381623338381033e+01 1.7296750937454419e-03 0.0000000000000000e+00  2.3381623343375860e+01 1.7296841400490592e-03 0.0000000000000000e+00  2.3381623342375295e+01 1.7296918318980921e-03 0.0000000000000000e+00  2.3381623335960246e+01 1.7296979525319122e-03 0.0000000000000000e+00  2.3381623324849038e+01 1.7297022279133887e-03 0.0000000000000000e+00  2.3381623310045107e+01 1.7297048016685981e-03 0.0000000000000000e+00  2.3381623292499150e+01 1.7297051552859414e-03 0.0000000000000000e+00  2.3381623273426705e+01 1.7297035473810216e-03 0.0000000000000000e+00  2.3381623253643934e+01 1.7296977670090143e-03 0.0000000000000000e+00  2.3381623234456452e+01 1.7296852783910436e-03 0.0000000000000000e+00  2.3381623216521735e+01 1.7296520588813767e-03 0.0000000000000000e+00  2.3381623202633925e+01 1.7295671637508716e-03 0.0000000000000000e+00  2.3381623194893194e+01 1.7293354519028821e-03 0.0000000000000000e+00  2.3381623200833396e+01 1.7287000978822372e-03 0.0000000000000000e+00  2.3381623249823249e+01 1.7268739618891697e-03 0.0000000000000000e+00  2.3381623452698367e+01 1.7217255570215998e-03 0.0000000000000000e+00  2.3381624031016699e+01 1.7074892524059067e-03 0.0000000000000000e+00  2.3381625691377124e+01 1.6678259065388960e-03 0.0000000000000000e+00  2.3381631304493609e+01 1.5581825884158629e-03 0.0000000000000000e+00  2.3381655463168943e+01 1.2639637630153515e-03 0.0000000000000000e+00  2.3381751611238524e+01 5.0854240939080637e-04 0.0000000000000000e+00  2.3382279349045898e+01 -1.2111298670111302e-03 0.0000000000000000e+00  2.3382632204443979e+01 -6.3551868706696844e-03 0.0000000000000000e+00  2.3376064230976201e+01 0.0000000000000000e+00 0.0000000000000000e+00  2.6689372210296074e+01 0.0000000000000000e+00 0.0000000000000000e+00  2.6654771573307752e+01 -1.8540653232651159e-02 0.0000000000000000e+00  2.6667997309582539e+01 2.9264779797150155e-03 0.0000000000000000e+00  2.6675097367946272e+01 -1.8277571117181264e-04 0.0000000000000000e+00  2.6697149019535342e+01 3.9683589279053185e-03 0.0000000000000000e+00  2.6702511977660528e+01 3.6303225413695231e-03 0.0000000000000000e+00  2.6711425102358337e+01 1.7057759477859900e-03 0.0000000000000000e+00  2.6710188611553253e+01 1.2128125872531410e-03 0.0000000000000000e+00  2.6710457509170382e+01 -5.5753907337403993e-04 0.0000000000000000e+00  2.6706532091230159e+01 -5.0747567706528021e-04 0.0000000000000000e+00  2.6703709190146864e+01 -1.6142426890781744e-03 0.0000000000000000e+00  2.6699019762764994e+01 -2.1234610309105628e-03 0.0000000000000000e+00  2.6695601904304592e+01 -2.3263076095014082e-03 0.0000000000000000e+00  2.6692414763490145e+01 -1.5352793748034470e-03 0.0000000000000000e+00  2.6690671038276182e+01 -6.6724359264851347e-04 0.0000000000000000e+00  2.6689418203513135e+01 2.0259290255159829e-04 0.0000000000000000e+00  2.6688897876889897e+01 7.3069066877905718e-04 0.0000000000000000e+00  2.6688522092641556e+01 1.0757944380510366e-03 0.0000000000000000e+00  2.6688385868164520e+01 1.2279482339245167e-03 0.0000000000000000e+00  2.6688248810716065e+01 1.3166585299957748e-03 0.0000000000000000e+00  2.6688186515161313e+01 1.3499171193396627e-03 0.0000000000000000e+00  2.6688113409589384e+01 1.3759351537315011e-03 0.0000000000000000e+00  2.6688072788311732e+01 1.3894995424699138e-03 0.0000000000000000e+00  2.6688031168840645e+01 1.4036959230665522e-03 0.0000000000000000e+00  2.6688007000296427e+01 1.4135253702373981e-03 0.0000000000000000e+00  2.6687985430094436e+01 1.4224903399376551e-03 0.0000000000000000e+00  2.6687972765814063e+01 1.4288001888267503e-03 0.0000000000000000e+00  2.6687962408660386e+01 1.4336271574328710e-03 0.0000000000000000e+00  2.6687956004607216e+01 1.4369438779272793e-03 0.0000000000000000e+00  2.6687950983478451e+01 1.4391436984174540e-03 0.0000000000000000e+00  2.6687947481365850e+01 1.4406918559036581e-03 0.0000000000000000e+00  2.6687944780914794e+01 1.4416159986700183e-03 0.0000000000000000e+00  2.6687942612854737e+01 1.4423550973251572e-03 0.0000000000000000e+00  2.6687940978008637e+01 1.4427840446175246e-03 0.0000000000000000e+00  2.6687939545443104e+01 1.4432017810249913e-03 0.0000000000000000e+00  2.6687938506121611e+01 1.4434576320965992e-03 0.0000000000000000e+00  2.6687937570179791e+01 1.4437332332306041e-03 0.0000000000000000e+00  2.6687936919377947e+01 1.4439104727275854e-03 0.0000000000000000e+00  2.6687936334213639e+01 1.4440963680999962e-03 0.0000000000000000e+00  2.6687935939430893e+01 1.4442167811894782e-03 0.000000