<?xml version="1.0"?>
<VTKFile type="UnstructuredGrid"  version="0.1"  >
<UnstructuredGrid>
<Piece  NumberOfPoints="1369" NumberOfCells="2560">
<Points>
<DataArray  type="Float64"  NumberOfComponents="3"  format="ascii">0 0 0  0.75 0 0  1.5 0 0  2.25 0 0  3 0 0  3.75 0 0  4.5 0 0  5.25 0 0  6 0 0  6.75 0 0  7.5 0 0  8.25 0 0  9 0 0  9.75 0 0  10.5 0 0  11.25 0 0  12 0 0  12.75 0 0  13.5 0 0  14.25 0 0  15 0 0  15.75 0 0  16.5 0 0  17.25 0 0  18 0 0  18.75 0 0  19.5 0 0  20.25 0 0  21 0 0  21.75 0 0  22.5 0 0  23.25 0 0  24 0 0  24.75 0 0  25.5 0 0  26.25 0 0  27 0 0  27.75 0 0  28.5 0 0  29.25 0 0  30 0 0  30.75 0 0  31.5 0 0  32.25 0 0  33 0 0  33.75 0 0  34.5 0 0  35.25 0 0  36 0 0  36.75 0 0  37.5 0 0  38.25 0 0  39 0 0  39.75 0 0  40.5 0 0  41.25 0 0  42 0 0  42.75 0 0  43.5 0 0  44.25 0 0  45 0 0  45.75 0 0  46.5 0 0  47.25 0 0  48 0 0  48.75 0 0  49.5 0 0  50.25 0 0  51 0 0  51.75 0 0  52.5 0 0  53.25 0 0  54 0 0  54.75 0 0  55.5 0 0  56.25 0 0  57 0 0  57.75 0 0  58.5 0 0  59.25 0 0  60 0 0  0 0.5 0  0.75 0.5 0  1.5 0.5 0  2.25 0.5 0  3 0.5 0  3.75 0.5 0  4.5 0.5 0  5.25 0.5 0  6 0.5 0  6.75 0.5 0  7.5 0.5 0  8.25 0.5 0  9 0.5 0  9.75 0.5 0  10.5 0.5 0  11.25 0.5 0  12 0.5 0  12.75 0.5 0  13.5 0.5 0  14.25 0.5 0  15 0.5 0  15.75 0.5 0  16.5 0.5 0  17.25 0.5 0  18 0.5 0  18.75 0.5 0  19.5 0.5 0  20.25 0.5 0  21 0.5 0  21.75 0.5 0  22.5 0.5 0  23.25 0.5 0  24 0.5 0  24.75 0.5 0  25.5 0.5 0  26.25 0.5 0  27 0.5 0  27.75 0.5 0  28.5 0.5 0  29.25 0.5 0  30 0.5 0  30.75 0.5 0  31.5 0.5 0  32.25 0.5 0  33 0.5 0  33.75 0.5 0  34.5 0.5 0  35.25 0.5 0  36 0.5 0  36.75 0.5 0  37.5 0.5 0  38.25 0.5 0  39 0.5 0  39.75 0.5 0  40.5 0.5 0  41.25 0.5 0  42 0.5 0  42.75 0.5 0  43.5 0.5 0  44.25 0.5 0  45 0.5 0  45.75 0.5 0  46.5 0.5 0  47.25 0.5 0  48 0.5 0  48.75 0.5 0  49.5 0.5 0  50.25 0.5 0  51 0.5 0  51.75 0.5 0  52.5 0.5 0  53.25 0.5 0  54 0.5 0  54.75 0.5 0  55.5 0.5 0  56.25 0.5 0  57 0.5 0  57.75 0.5 0  58.5 0.5 0  59.25 0.5 0  60 0.5 0  0 1 0  0.75 1 0  1.5 1 0  2.25 1 0  3 1 0  3.75 1 0  4.5 1 0  5.25 1 0  6 1 0  6.75 1 0  7.5 1 0  8.25 1 0  9 1 0  9.75 1 0  10.5 1 0  11.25 1 0  12 1 0  12.75 1 0  13.5 1 0  14.25 1 0  15 1 0  15.75 1 0  16.5 1 0  17.25 1 0  18 1 0  18.75 1 0  19.5 1 0  20.25 1 0  21 1 0  21.75 1 0  22.5 1 0  23.25 1 0  24 1 0  24.75 1 0  25.5 1 0  26.25 1 0  27 1 0  27.75 1 0  28.5 1 0  29.25 1 0  30 1 0  30.75 1 0  31.5 1 0  32.25 1 0  33 1 0  33.75 1 0  34.5 1 0  35.25 1 0  36 1 0  36.75 1 0  37.5 1 0  38.25 1 0  39 1 0  39.75 1 0  40.5 1 0  41.25 1 0  42 1 0  42.75 1 0  43.5 1 0  44.25 1 0  45 1 0  45.75 1 0  46.5 1 0  47.25 1 0  48 1 0  48.75 1 0  49.5 1 0  50.25 1 0  51 1 0  51.75 1 0  52.5 1 0  53.25 1 0  54 1 0  54.75 1 0  55.5 1 0  56.25 1 0  57 1 0  57.75 1 0  58.5 1 0  59.25 1 0  60 1 0  0 1.5 0  0.75 1.5 0  1.5 1.5 0  2.25 1.5 0  3 1.5 0  3.75 1.5 0  4.5 1.5 0  5.25 1.5 0  6 1.5 0  6.75 1.5 0  7.5 1.5 0  8.25 1.5 0  9 1.5 0  9.75 1.5 0  10.5 1.5 0  11.25 1.5 0  12 1.5 0  12.75 1.5 0  13.5 1.5 0  14.25 1.5 0  15 1.5 0  15.75 1.5 0  16.5 1.5 0  17.25 1.5 0  18 1.5 0  18.75 1.5 0  19.5 1.5 0  20.25 1.5 0  21 1.5 0  21.75 1.5 0  22.5 1.5 0  23.25 1.5 0  24 1.5 0  24.75 1.5 0  25.5 1.5 0  26.25 1.5 0  27 1.5 0  27.75 1.5 0  28.5 1.5 0  29.25 1.5 0  30 1.5 0  30.75 1.5 0  31.5 1.5 0  32.25 1.5 0  33 1.5 0  33.75 1.5 0  34.5 1.5 0  35.25 1.5 0  36 1.5 0  36.75 1.5 0  37.5 1.5 0  38.25 1.5 0  39 1.5 0  39.75 1.5 0  40.5 1.5 0  41.25 1.5 0  42 1.5 0  42.75 1.5 0  43.5 1.5 0  44.25 1.5 0  45 1.5 0  45.75 1.5 0  46.5 1.5 0  47.25 1.5 0  48 1.5 0  48.75 1.5 0  49.5 1.5 0  50.25 1.5 0  51 1.5 0  51.75 1.5 0  52.5 1.5 0  53.25 1.5 0  54 1.5 0  54.75 1.5 0  55.5 1.5 0  56.25 1.5 0  57 1.5 0  57.75 1.5 0  58.5 1.5 0  59.25 1.5 0  60 1.5 0  0 2 0  0.75 2 0  1.5 2 0  2.25 2 0  3 2 0  3.75 2 0  4.5 2 0  5.25 2 0  6 2 0  6.75 2 0  7.5 2 0  8.25 2 0  9 2 0  9.75 2 0  10.5 2 0  11.25 2 0  12 2 0  12.75 2 0  13.5 2 0  14.25 2 0  15 2 0  15.75 2 0  16.5 2 0  17.25 2 0  18 2 0  18.75 2 0  19.5 2 0  20.25 2 0  21 2 0  21.75 2 0  22.5 2 0  23.25 2 0  24 2 0  24.75 2 0  25.5 2 0  26.25 2 0  27 2 0  27.75 2 0  28.5 2 0  29.25 2 0  30 2 0  30.75 2 0  31.5 2 0  32.25 2 0  33 2 0  33.75 2 0  34.5 2 0  35.25 2 0  36 2 0  36.75 2 0  37.5 2 0  38.25 2 0  39 2 0  39.75 2 0  40.5 2 0  41.25 2 0  42 2 0  42.75 2 0  43.5 2 0  44.25 2 0  45 2 0  45.75 2 0  46.5 2 0  47.25 2 0  48 2 0  48.75 2 0  49.5 2 0  50.25 2 0  51 2 0  51.75 2 0  52.5 2 0  53.25 2 0  54 2 0  54.75 2 0  55.5 2 0  56.25 2 0  57 2 0  57.75 2 0  58.5 2 0  59.25 2 0  60 2 0  0 2.5 0  0.75 2.5 0  1.5 2.5 0  2.25 2.5 0  3 2.5 0  3.75 2.5 0  4.5 2.5 0  5.25 2.5 0  6 2.5 0  6.75 2.5 0  7.5 2.5 0  8.25 2.5 0  9 2.5 0  9.75 2.5 0  10.5 2.5 0  11.25 2.5 0  12 2.5 0  12.75 2.5 0  13.5 2.5 0  14.25 2.5 0  15 2.5 0  15.75 2.5 0  16.5 2.5 0  17.25 2.5 0  18 2.5 0  18.75 2.5 0  19.5 2.5 0  20.25 2.5 0  21 2.5 0  21.75 2.5 0  22.5 2.5 0  23.25 2.5 0  24 2.5 0  24.75 2.5 0  25.5 2.5 0  26.25 2.5 0  27 2.5 0  27.75 2.5 0  28.5 2.5 0  29.25 2.5 0  30 2.5 0  30.75 2.5 0  31.5 2.5 0  32.25 2.5 0  33 2.5 0  33.75 2.5 0  34.5 2.5 0  35.25 2.5 0  36 2.5 0  36.75 2.5 0  37.5 2.5 0  38.25 2.5 0  39 2.5 0  39.75 2.5 0  40.5 2.5 0  41.25 2.5 0  42 2.5 0  42.75 2.5 0  43.5 2.5 0  44.25 2.5 0  45 2.5 0  45.75 2.5 0  46.5 2.5 0  47.25 2.5 0  48 2.5 0  48.75 2.5 0  49.5 2.5 0  50.25 2.5 0  51 2.5 0  51.75 2.5 0  52.5 2.5 0  53.25 2.5 0  54 2.5 0  54.75 2.5 0  55.5 2.5 0  56.25 2.5 0  57 2.5 0  57.75 2.5 0  58.5 2.5 0  59.25 2.5 0  60 2.5 0  0 3 0  0.75 3 0  1.5 3 0  2.25 3 0  3 3 0  3.75 3 0  4.5 3 0  5.25 3 0  6 3 0  6.75 3 0  7.5 3 0  8.25 3 0  9 3 0  9.75 3 0  10.5 3 0  11.25 3 0  12 3 0  12.75 3 0  13.5 3 0  14.25 3 0  15 3 0  15.75 3 0  16.5 3 0  17.25 3 0  18 3 0  18.75 3 0  19.5 3 0  20.25 3 0  21 3 0  21.75 3 0  22.5 3 0  23.25 3 0  24 3 0  24.75 3 0  25.5 3 0  26.25 3 0  27 3 0  27.75 3 0  28.5 3 0  29.25 3 0  30 3 0  30.75 3 0  31.5 3 0  32.25 3 0  33 3 0  33.75 3 0  34.5 3 0  35.25 3 0  36 3 0  36.75 3 0  37.5 3 0  38.25 3 0  39 3 0  39.75 3 0  40.5 3 0  41.25 3 0  42 3 0  42.75 3 0  43.5 3 0  44.25 3 0  45 3 0  45.75 3 0  46.5 3 0  47.25 3 0  48 3 0  48.75 3 0  49.5 3 0  50.25 3 0  51 3 0  51.75 3 0  52.5 3 0  53.25 3 0  54 3 0  54.75 3 0  55.5 3 0  56.25 3 0  57 3 0  57.75 3 0  58.5 3 0  59.25 3 0  60 3 0  0 3.5 0  0.75 3.5 0  1.5 3.5 0  2.25 3.5 0  3 3.5 0  3.75 3.5 0  4.5 3.5 0  5.25 3.5 0  6 3.5 0  6.75 3.5 0  7.5 3.5 0  8.25 3.5 0  9 3.5 0  9.75 3.5 0  10.5 3.5 0  11.25 3.5 0  12 3.5 0  12.75 3.5 0  13.5 3.5 0  14.25 3.5 0  15 3.5 0  15.75 3.5 0  16.5 3.5 0  17.25 3.5 0  18 3.5 0  18.75 3.5 0  19.5 3.5 0  20.25 3.5 0  21 3.5 0  21.75 3.5 0  22.5 3.5 0  23.25 3.5 0  24 3.5 0  24.75 3.5 0  25.5 3.5 0  26.25 3.5 0  27 3.5 0  27.75 3.5 0  28.5 3.5 0  29.25 3.5 0  30 3.5 0  30.75 3.5 0  31.5 3.5 0  32.25 3.5 0  33 3.5 0  33.75 3.5 0  34.5 3.5 0  35.25 3.5 0  36 3.5 0  36.75 3.5 0  37.5 3.5 0  38.25 3.5 0  39 3.5 0  39.75 3.5 0  40.5 3.5 0  41.25 3.5 0  42 3.5 0  42.75 3.5 0  43.5 3.5 0  44.25 3.5 0  45 3.5 0  45.75 3.5 0  46.5 3.5 0  47.25 3.5 0  48 3.5 0  48.75 3.5 0  49.5 3.5 0  50.25 3.5 0  51 3.5 0  51.75 3.5 0  52.5 3.5 0  53.25 3.5 0  54 3.5 0  54.75 3.5 0  55.5 3.5 0  56.25 3.5 0  57 3.5 0  57.75 3.5 0  58.5 3.5 0  59.25 3.5 0  60 3.5 0  0 4 0  0.75 4 0  1.5 4 0  2.25 4 0  3 4 0  3.75 4 0  4.5 4 0  5.25 4 0  6 4 0  6.75 4 0  7.5 4 0  8.25 4 0  9 4 0  9.75 4 0  10.5 4 0  11.25 4 0  12 4 0  12.75 4 0  13.5 4 0  14.25 4 0  15 4 0  15.75 4 0  16.5 4 0  17.25 4 0  18 4 0  18.75 4 0  19.5 4 0  20.25 4 0  21 4 0  21.75 4 0  22.5 4 0  23.25 4 0  24 4 0  24.75 4 0  25.5 4 0  26.25 4 0  27 4 0  27.75 4 0  28.5 4 0  29.25 4 0  30 4 0  30.75 4 0  31.5 4 0  32.25 4 0  33 4 0  33.75 4 0  34.5 4 0  35.25 4 0  36 4 0  36.75 4 0  37.5 4 0  38.25 4 0  39 4 0  39.75 4 0  40.5 4 0  41.25 4 0  42 4 0  42.75 4 0  43.5 4 0  44.25 4 0  45 4 0  45.75 4 0  46.5 4 0  47.25 4 0  48 4 0  48.75 4 0  49.5 4 0  50.25 4 0  51 4 0  51.75 4 0  52.5 4 0  53.25 4 0  54 4 0  54.75 4 0  55.5 4 0  56.25 4 0  57 4 0  57.75 4 0  58.5 4 0  59.25 4 0  60 4 0  0.375 0.25 0  1.125 0.25 0  1.875 0.25 0  2.625 0.25 0  3.375 0.25 0  4.125 0.25 0  4.875 0.25 0  5.625 0.25 0  6.375 0.25 0  7.125 0.25 0  7.875 0.25 0  8.625 0.25 0  9.375 0.25 0  10.125 0.25 0  10.875 0.25 0  11.625 0.25 0  12.375 0.25 0  13.125 0.25 0  13.875 0.25 0  14.625 0.25 0  15.375 0.25 0  16.125 0.25 0  16.875 0.25 0  17.625 0.25 0  18.375 0.25 0  19.125 0.25 0  19.875 0.25 0  20.625 0.25 0  21.375 0.25 0  22.125 0.25 0  22.875 0.25 0  23.625 0.25 0  24.375 0.25 0  25.125 0.25 0  25.875 0.25 0  26.625 0.25 0  27.375 0.25 0  28.125 0.25 0  28.875 0.25 0  29.625 0.25 0  30.375 0.25 0  31.125 0.25 0  31.875 0.25 0  32.625 0.25 0  33.375 0.25 0  34.125 0.25 0  34.875 0.25 0  35.625 0.25 0  36.375 0.25 0  37.125 0.25 0  37.875 0.25 0  38.625 0.25 0  39.375 0.25 0  40.125 0.25 0  40.875 0.25 0  41.625 0.25 0  42.375 0.25 0  43.125 0.25 0  43.875 0.25 0  44.625 0.25 0  45.375 0.25 0  46.125 0.25 0  46.875 0.25 0  47.625 0.25 0  48.375 0.25 0  49.125 0.25 0  49.875 0.25 0  50.625 0.25 0  51.375 0.25 0  52.125 0.25 0  52.875 0.25 0  53.625 0.25 0  54.375 0.25 0  55.125 0.25 0  55.875 0.25 0  56.625 0.25 0  57.375 0.25 0  58.125 0.25 0  58.875 0.25 0  59.625 0.25 0  0.375 0.75 0  1.125 0.75 0  1.875 0.75 0  2.625 0.75 0  3.375 0.75 0  4.125 0.75 0  4.875 0.75 0  5.625 0.75 0  6.375 0.75 0  7.125 0.75 0  7.875 0.75 0  8.625 0.75 0  9.375 0.75 0  10.125 0.75 0  10.875 0.75 0  11.625 0.75 0  12.375 0.75 0  13.125 0.75 0  13.875 0.75 0  14.625 0.75 0  15.375 0.75 0  16.125 0.75 0  16.875 0.75 0  17.625 0.75 0  18.375 0.75 0  19.125 0.75 0  19.875 0.75 0  20.625 0.75 0  21.375 0.75 0  22.125 0.75 0  22.875 0.75 0  23.625 0.75 0  24.375 0.75 0  25.125 0.75 0  25.875 0.75 0  26.625 0.75 0  27.375 0.75 0  28.125 0.75 0  28.875 0.75 0  29.625 0.75 0  30.375 0.75 0  31.125 0.75 0  31.875 0.75 0  32.625 0.75 0  33.375 0.75 0  34.125 0.75 0  34.875 0.75 0  35.625 0.75 0  36.375 0.75 0  37.125 0.75 0  37.875 0.75 0  38.625 0.75 0  39.375 0.75 0  40.125 0.75 0  40
[...]
<PointData  Vectors="f_8-0"> 
<DataArray  type="Float64"  Name="f_8-0"  NumberOfComponents="3" format="ascii">0.0000000000000000e+00 0.0000000000000000e+00 0.0000000000000000e+00  0.0000000000000000e+00 0.0000000000000000e+00 0.0000000000000000e+00  0.0000000000000000e+00 0.0000000000000000e+00 0.0000000000000000e+00  0.0000000000000000e+00 0.0000000000000000e+00 0.0000000000000000e+00  0.0000000000000000e+00 0.0000000000000000e+00 0.0000000000000000e+00  0.0000000000000000e+00 0.0000000000000000e+00 0.0000000000000000e+00  0.0000000000000000e+00 0.0000000000000000e+00 0.0000000000000000e+00  0.0000000000000000e+00 0.0000000000000000e+00 0.0000000000000000e+00  0.0000000000000000e+00 0.0000000000000000e+00 0.0000000000000000e+00  0.0000000000000000e+00 0.0000000000000000e+00 0.0000000000000000e+00  0.0000000000000000e+00 0.0000000000000000e+00 0.0000000000000000e+00  0.0000000000000000e+00 0.0000000000000000e+00 0.0000000000000000e+00  0.0000000000000000e+00 0.0000000000000000e+00 0.0000000000000000e+00  0.0000000000000000e+00 0.0000000000000000e+00 0.0000000000000000e+00  0.0000000000000000e+00 0.0000000000000000e+00 0.0000000000000000e+00  0.0000000000000000e+00 0.0000000000000000e+00 0.0000000000000000e+00  0.0000000000000000e+00 0.0000000000000000e+00 0.0000000000000000e+00  0.0000000000000000e+00 0.0000000000000000e+00 0.0000000000000000e+00  0.0000000000000000e+00 0.0000000000000000e+00 0.0000000000000000e+00  0.0000000000000000e+00 0.0000000000000000e+00 0.0000000000000000e+00  0.0000000000000000e+00 0.0000000000000000e+00 0.0000000000000000e+00  0.0000000000000000e+00 0.0000000000000000e+00 0.0000000000000000e+00  0.0000000000000000e+00 0.0000000000000000e+00 0.0000000000000000e+00  0.0000000000000000e+00 0.0000000000000000e+00 0.0000000000000000e+00  0.0000000000000000e+00 0.0000000000000000e+00 0.0000000000000000e+00  0.0000000000000000e+00 0.0000000000000000e+00 0.0000000000000000e+00  0.0000000000000000e+00 0.0000000000000000e+00 0.0000000000000000e+00  0.0000000000000000e+00 0.0000000000000000e+00 0.0000000000000000e+00  0.0000000000000000e+00 0.0000000000000000e+00 0.0000000000000000e+00  0.0000000000000000e+00 0.0000000000000000e+00 0.0000000000000000e+00  0.0000000000000000e+00 0.0000000000000000e+00 0.0000000000000000e+00  0.0000000000000000e+00 0.0000000000000000e+00 0.0000000000000000e+00  0.0000000000000000e+00 0.0000000000000000e+00 0.0000000000000000e+00  0.0000000000000000e+00 0.0000000000000000e+00 0.0000000000000000e+00  0.0000000000000000e+00 0.0000000000000000e+00 0.0000000000000000e+00  0.0000000000000000e+00 0.0000000000000000e+00 0.0000000000000000e+00  0.0000000000000000e+00 0.0000000000000000e+00 0.0000000000000000e+00  0.0000000000000000e+00 0.0000000000000000e+00 0.0000000000000000e+00  0.0000000000000000e+00 0.0000000000000000e+00 0.0000000000000000e+00  0.0000000000000000e+00 0.0000000000000000e+00 0.0000000000000000e+00  0.0000000000000000e+00 0.0000000000000000e+00 0.0000000000000000e+00  0.0000000000000000e+00 0.0000000000000000e+00 0.0000000000000000e+00  0.0000000000000000e+00 0.0000000000000000e+00 0.0000000000000000e+00  0.0000000000000000e+00 0.0000000000000000e+00 0.0000000000000000e+00  0.0000000000000000e+00 0.0000000000000000e+00 0.0000000000000000e+00  0.0000000000000000e+00 0.0000000000000000e+00 0.0000000000000000e+00  0.0000000000000000e+00 0.0000000000000000e+00 0.0000000000000000e+00  0.0000000000000000e+00 0.0000000000000000e+00 0.0000000000000000e+00  0.0000000000000000e+00 0.0000000000000000e+00 0.0000000000000000e+00  0.0000000000000000e+00 0.0000000000000000e+00 0.0000000000000000e+00  0.0000000000000000e+00 0.0000000000000000e+00 0.0000000000000000e+00  0.0000000000000000e+00 0.0000000000000000e+00 0.0000000000000000e+00  0.0000000000000000e+00 0.0000000000000000e+00 0.0000000000000000e+00  0.0000000000000000e+00 0.0000000000000000e+00 0.0000000000000000e+00  0.0000000000000000e+00 0.0000000000000000e+00 0.0000000000000000e+00  0.0000000000000000e+00 0.0000000000000000e+00 0.0000000000000000e+00  0.0000000000000000e+00 0.0000000000000000e+00 0.0000000000000000e+00  0.0000000000000000e+00 0.0000000000000000e+00 0.0000000000000000e+00  0.0000000000000000e+00 0.0000000000000000e+00 0.0000000000000000e+00  0.0000000000000000e+00 0.0000000000000000e+00 0.0000000000000000e+00  0.0000000000000000e+00 0.0000000000000000e+00 0.0000000000000000e+00  0.0000000000000000e+00 0.0000000000000000e+00 0.0000000000000000e+00  0.0000000000000000e+00 0.0000000000000000e+00 0.0000000000000000e+00  0.0000000000000000e+00 0.0000000000000000e+00 0.0000000000000000e+00  0.0000000000000000e+00 0.0000000000000000e+00 0.0000000000000000e+00  0.0000000000000000e+00 0.0000000000000000e+00 0.0000000000000000e+00  0.0000000000000000e+00 0.0000000000000000e+00 0.0000000000000000e+00  0.0000000000000000e+00 0.0000000000000000e+00 0.0000000000000000e+00  0.0000000000000000e+00 0.0000000000000000e+00 0.0000000000000000e+00  0.0000000000000000e+00 0.0000000000000000e+00 0.0000000000000000e+00  0.0000000000000000e+00 0.0000000000000000e+00 0.0000000000000000e+00  0.0000000000000000e+00 0.0000000000000000e+00 0.0000000000000000e+00  0.0000000000000000e+00 0.0000000000000000e+00 0.0000000000000000e+00  0.0000000000000000e+00 0.0000000000000000e+00 0.0000000000000000e+00  0.0000000000000000e+00 0.0000000000000000e+00 0.0000000000000000e+00  0.0000000000000000e+00 0.0000000000000000e+00 0.0000000000000000e+00  0.0000000000000000e+00 0.0000000000000000e+00 0.0000000000000000e+00  0.0000000000000000e+00 0.0000000000000000e+00 0.0000000000000000e+00  0.0000000000000000e+00 0.0000000000000000e+00 0.0000000000000000e+00  0.0000000000000000e+00 0.0000000000000000e+00 0.0000000000000000e+00  0.0000000000000000e+00 0.0000000000000000e+00 0.0000000000000000e+00  -7.8470654929984418e+00 0.0000000000000000e+00 0.0000000000000000e+00  -7.7395180375237738e+00 -1.8005641189822917e-02 0.0000000000000000e+00  -7.6635257171725506e+00 -3.2861614990930543e-02 0.0000000000000000e+00  -7.5980457118987008e+00 -3.0482184798582394e-02 0.0000000000000000e+00  -7.5518921414966007e+00 -2.1658433117975284e-02 0.0000000000000000e+00  -7.5304431063833182e+00 -1.1216772558271615e-02 0.0000000000000000e+00  -7.5309508737042528e+00 -2.4835663193288168e-03 0.0000000000000000e+00  -7.5467989502693822e+00 3.3433190819007531e-03 0.0000000000000000e+00  -7.5711431910239160e+00 6.4297043273751206e-03 0.0000000000000000e+00  -7.5986493413725436e+00 7.4767632450413535e-03 0.0000000000000000e+00  -7.6258103295367556e+00 7.2231677939853245e-03 0.0000000000000000e+00  -7.6506442572931279e+00 6.2521995810178692e-03 0.0000000000000000e+00  -7.6722406386203135e+00 4.9652406883268522e-03 0.0000000000000000e+00  -7.6903676325599744e+00 3.6107332358886520e-03 0.0000000000000000e+00  -7.7051792572520332e+00 2.3290736738510159e-03 0.0000000000000000e+00  -7.7170223114610179e+00 1.1877566274315144e-03 0.0000000000000000e+00  -7.7263157566812115e+00 2.1156594387272619e-04 0.0000000000000000e+00  -7.7334830835692614e+00 -6.0041645177264533e-04 0.0000000000000000e+00  -7.7389148916241952e+00 -1.2618407019133297e-03 0.0000000000000000e+00  -7.7429534837994627e+00 -1.7921045422991876e-03 0.0000000000000000e+00  -7.7458897437078766e+00 -2.2107922488383055e-03 0.0000000000000000e+00  -7.7479665333642416e+00 -2.5365624679026641e-03 0.0000000000000000e+00  -7.7493825792503861e+00 -2.7864702880707683e-03 0.0000000000000000e+00  -7.7502972585240544e+00 -2.9759229896117001e-03 0.0000000000000000e+00  -7.7508366188084050e+00 -3.1175692221737067e-03 0.0000000000000000e+00  -7.7511009168600715e+00 -3.2210552143011992e-03 0.0000000000000000e+00  -7.7511713472822059e+00 -3.2933295138450266e-03 0.0000000000000000e+00  -7.7511145670299681e+00 -3.3398674406961730e-03 0.0000000000000000e+00  -7.7509844977508733e+00 -3.3656167200579626e-03 0.0000000000000000e+00  -7.7508226821355111e+00 -3.3755617375746286e-03 0.0000000000000000e+00  -7.7506584632679933e+00 -3.3745813214496275e-03 0.0000000000000000e+00  -7.7505100135528684e+00 -3.3670973048657870e-03 0.0000000000000000e+00  -7.7503862702008206e+00 -3.3566592700465503e-03 0.0000000000000000e+00  -7.7502894565567049e+00 -3.3457818771344731e-03 0.0000000000000000e+00  -7.7502175924657868e+00 -3.3359651905204694e-03 0.0000000000000000e+00  -7.7501666112377503e+00 -3.3279038131466304e-03 0.0000000000000000e+00  -7.7501318580865926e+00 -3.3217305745406149e-03 0.0000000000000000e+00  -7.7501089980710267e+00 -3.3172626837413141e-03 0.0000000000000000e+00  -7.7500944378211587e+00 -3.3141769767631724e-03 0.0000000000000000e+00  -7.7500854326365749e+00 -3.3121312678829062e-03 0.0000000000000000e+00  -7.7500800108160153e+00 -3.3108221843496924e-03 0.0000000000000000e+00  -7.7500768265326556e+00 -3.3100110734231975e-03 0.0000000000000000e+00  -7.7500749986151307e+00 -3.3095224928551656e-03 0.0000000000000000e+00  -7.7500739714701590e+00 -3.3092359513260208e-03 0.0000000000000000e+00  -7.7500734055285108e+00 -3.3090717303037379e-03 0.0000000000000000e+00  -7.7500730994528926e+00 -3.3089797573093533e-03 0.0000000000000000e+00  -7.7500729367085723e+00 -3.3089292048263993e-03 0.0000000000000000e+00  -7.7500728515962471e+00 -3.3089019931079656e-03 0.0000000000000000e+00  -7.7500728077275580e+00 -3.3088875552521550e-03 0.0000000000000000e+00  -7.7500727854554707e+00 -3.3088800527776930e-03 0.0000000000000000e+00  -7.7500727742848321e+00 -3.3088761880277341e-03 0.0000000000000000e+00  -7.7500727687656346e+00 -3.3088742437615277e-03 0.0000000000000000e+00  -7.7500727660523232e+00 -3.3088732644673989e-03 0.0000000000000000e+00  -7.7500727647710237e+00 -3.3088727895262703e-03 0.0000000000000000e+00  -7.7500727640891158e+00 -3.3088725500514675e-03 0.0000000000000000e+00  -7.7500727639275890e+00 -3.3088724496688256e-03 0.0000000000000000e+00  -7.7500727634838720e+00 -3.3088723639367493e-03 0.0000000000000000e+00  -7.7500727640905387e+00 -3.3088724289291479e-03 0.0000000000000000e+00  -7.7500727626381618e+00 -3.3088721631747437e-03 0.0000000000000000e+00  -7.7500727655076229e+00 -3.3088728568934395e-03 0.0000000000000000e+00  -7.7500727599425279e+00 -3.3088710013723034e-03 0.0000000000000000e+00  -7.7500727699601777e+00 -3.3088757764832984e-03 0.0000000000000000e+00  -7.7500727529630469e+00 -3.3088641590537544e-03 0.0000000000000000e+00  -7.7500727785582093e+00 -3.3088917198765633e-03 0.0000000000000000e+00  -7.7500727423804445e+00 -3.3088317843400698e-03 0.0000000000000000e+00  -7.7500727796105702e+00 -3.3089587501665390e-03 0.0000000000000000e+00  -7.7500727519168491e+00 -3.3087190725046450e-03 0.0000000000000000e+00  -7.7500727285942022e+00 -3.3091268145050124e-03 0.0000000000000000e+00  -7.7500731251339161e+00 -3.3083796626896776e-03 0.0000000000000000e+00  -7.7500730222126988e+00 -3.3086350276207970e-03 0.0000000000000000e+00  -7.7500797331412601e+00 -3.3049328934417130e-03 0.0000000000000000e+00  -7.7500840887684639e+00 -3.2974137752425784e-03 0.0000000000000000e+00  -7.7501168803181386e+00 -3.2995146709873520e-03 0.0000000000000000e+00  -7.7498944431458021e+00 -3.4693169833326931e-03 0.0000000000000000e+00  -7.7492771506805207e+00 -3.9234722853672098e-03 0.0000000000000000e+00  -7.7489834628938175e+00 -2.9453675139602684e-03 0.0000000000000000e+00  -7.7534285778165071e+00 -3.9736905924444004e-04 0.0000000000000000e+00  -7.7553181567019189e+00 -2.0631378263571980e-03 0.0000000000000000e+00  -7.7530515190089844e+00 -1.0047057309314435e-02 0.0000000000000000e+00  -7.7419829729930729e+00 -4.0775856152276503e-02 0.0000000000000000e+00  -7.7318042402274649e+00 0.0000000000000000e+00 0.0000000000000000e+00  -8.9328494391355804e+00 0.0000000000000000e+00 0.0000000000000000e+00  -8.9126052475777033e+00 -5.7801956617473539e-02 0.0000000000000000e+00  -8.8901685303225726e+00 -6.1258183855951630e-02 0.0000000000000000e+00  -8.8828783942158704e+00 -4.5767366559995026e-02 0.0000000000000000e+00  -8.8932783705919896e+00 -2.1683866872952005e-02 0.0000000000000000e+00  -8.9154086803745720e+00 1.0614510318910043e-03 0.0000000000000000e+00  -8.9422329727679664e+00 1.7435889329509305e-02 0.0000000000000000e+00  -8.9687804082198550e+00 2.6743755672456439e-02 0.0000000000000000e+00  -8.9925084006694789e+00 3.0395516117744482e-02 0.0000000000000000e+00  -9.0125404777285194e+00 3.0275514648355300e-02 0.0000000000000000e+00  -9.0288732071738753e+00 2.7990442137808665e-02 0.0000000000000000e+00  -9.0418853322108870e+00 2.4685334142184663e-02 0.0000000000000000e+00  -9.0520751771744070e+00 2.1091203873368519e-02 0.0000000000000000e+00  -9.0599451426276083e+00 1.7629892900992660e-02 0.0000000000000000e+00  -9.0659479399864544e+00 1.4515660667731784e-02 0.0000000000000000e+00  -9.0704706039577232e+00 1.1831630702612863e-02 0.0000000000000000e+00  -9.0738328589295616e+00 9.5877618391324582e-03 0.0000000000000000e+00  -9.0762947804187313e+00 7.7528814496744935e-03 0.0000000000000000e+00  -9.0780632476778518e+00 6.2776206152912054e-03 0.0000000000000000e+00  -9.0793015646032167e+00 5.1079102264803347e-03 0.0000000000000000e+00  -9.0801384316011493e+00 4.1936115224574105e-03 0.0000000000000000e+00  -9.0806755898155558e+00 3.4890978888172893e-03 0.0000000000000000e+00  -9.0809920376720914e+00 2.9535426155550574e-03 0.0000000000000000e+00  -9.0811482827699042e+00 2.5515242181721460e-03 0.0000000000000000e+00  -9.0811908800067975e+00 2.2550554803014780e-03 0.0000000000000000e+00  -9.0811570825898258e+00 2.0433941726616498e-03 0.0000000000000000e+00  -9.0810775289390318e+00 1.9012398118851298e-03 0.0000000000000000e+00  -9.0809770811883208e+00 1.8157618501017827e-03 0.0000000000000000e+00  -9.0808743930804283e+00 1.7747339692186536e-03 0.0000000000000000e+00  -9.0807816850476755e+00 1.7659475897195554e-03 0.0000000000000000e+00  -9.0807052147413589e+00 1.7779347848935704e-03 0.0000000000000000e+00  -9.0806465843854269e+00 1.8009143869078753e-03 0.0000000000000000e+00  -9.0806043496035276e+00 1.8275382050328818e-03 0.0000000000000000e+00  -9.0805755615217016e+00 1.8530115712952916e-03 0.0000000000000000e+00  -9.0805568933374854e+00 1.8747910040582800e-03 0.0000000000000000e+00  -9.0805453329946690e+00 1.8919835121623957e-03 0.0000000000000000e+00  -9.0805384751560787e+00 1.9047416892437204e-03 0.0000000000000000e+00  -9.0805345709666039e+00 1.9137375519045732e-03 0.0000000000000000e+00  -9.0805324345016807e+00 1.9198122876791393e-03 0.0000000000000000e+00  -9.0805313109326420e+00 1.9237614330765195e-03 0.0000000000000000e+00  -9.0805307431250988e+00 1.9262446932043189e-03 0.0000000000000000e+00  -9.0805304683452839e+00 1.9277595402592514e-03 0.0000000000000000e+00  -9.0805303414156562e+00 1.9286591443955139e-03 0.0000000000000000e+00  -9.0805302861181403e+00 1.9291800640193976e-03 0.0000000000000000e+00  -9.0805302636975611e+00 1.9294750953719757e-03 0.0000000000000000e+00  -9.0805302556441649e+00 1.9296385969601363e-03 0.0000000000000000e+00  -9.0805302533099130e+00 1.9297275650003406e-03 0.0000000000000000e+00  -9.0805302530651240e+00 1.9297750381134324e-03 0.0000000000000000e+00  -9.0805302533759633e+00 1.9298000049398243e-03 0.0000000000000000e+00  -9.0805302537572281e+00 1.9298128891146618e-03 0.0000000000000000e+00  -9.0805302540400721e+00 1.9298194725477092e-03 0.0000000000000000e+00  -9.0805302542274386e+00 1.9298227656182124e-03 0.0000000000000000e+00  -9.0805302543471385e+00 1.9298244129895192e-03 0.0000000000000000e+00  -9.0805302543821131e+00 1.9298252044212749e-03 0.0000000000000000e+00  -9.0805302544888722e+00 1.9298256139673327e-03 0.0000000000000000e+00  -9.0805302543304371e+00 1.9298257553151536e-03 0.0000000000000000e+00  -9.0805302547467104e+00 1.9298259509435249e-03 0.0000000000000000e+00  -9.0805302538448700e+00 1.9298257357848443e-03 0.0000000000000000e+00  -9.0805302557801717e+00 1.9298263554166086e-03 0.0000000000000000e+00  -9.0805302518470921e+00 1.9298249971390186e-03 0.0000000000000000e+00  -9.0805302593933437e+00 1.9298279804269975e-03 0.0000000000000000e+00  -9.0805302458979629e+00 1.9298216806243531e-03 0.0000000000000000e+00  -9.0805302676887578e+00 1.9298340383172756e-03 0.0000000000000000e+00  -9.0805302375155268e+00 1.9298105585621016e-03 0.0000000000000000e+00  -9.0805302675034625e+00 1.9298493047975147e-03 0.0000000000000000e+00  -9.0805302714254825e+00 1.9297904605968948e-03 0.0000000000000000e+00  -9.0805301595524686e+00 1.9298616301481758e-03 0.0000000000000000e+00  -9.0805306123746323e+00 1.9298872486710787e-03 0.0000000000000000e+00  -9.0805295568292159e+00 1.9299488187286057e-03 0.0000000000000000e+00  -9.0805324669625360e+00 1.9318466780349195e-03 0.0000000000000000e+00  -9.0805260427300354e+00 1.9334199136574986e-03 0.0000000000000000e+00  -9.0805333031066660e+00 1.9454292076853364e-03 0.0000000000000000e+00  -9.0804717763013958e+00 1.8935696259251040e-03 0.0000000000000000e+00  -9.0804918756302477e+00 1.6354666312453801e-03 0.0000000000000000e+00  -9.0806189544584921e+00 1.2392340831044540e-03 0.0000000000000000e+00  -9.0819609837580302e+00 3.6021562458215992e-03 0.0000000000000000e+00  -9.0814393215715974e+00 5.7773603672990788e-03 0.0000000000000000e+00  -9.0798230626901280e+00 2.2097678045841281e-03 0.0000000000000000e+00  -9.0772968717777829e+00 -4.1113667401230392e-03 0.0000000000000000e+00  -9.1061830136825765e+00 1.3006170077293277e-02 0.0000000000000000e+00  -9.0917836358269071e+00 0.0000000000000000e+00 0.0000000000000000e+00  -4.9172994139187898e+00 0.0000000000000000e+00 0.0000000000000000e+00  -4.9733842150897427e+00 -4.9135653787436874e-02 0.0000000000000000e+00  -5.0309018191531836e+00 -4.9371455168476609e-02 0.0000000000000000e+00  -5.0808546903088176e+00 -3.1577826199717614e-02 0.0000000000000000e+00  -5.1131617304397547e+00 -8.8626904538725189e-03 0.0000000000000000e+00  -5.1249814116693599e+00 1.0173718057649583e-02 0.0000000000000000e+00  -5.1196906601503231e+00 2.2234014750214057e-02 0.0000000000000000e+00  -5.1031060866836224e+00 2.7846147309587791e-02 0.0000000000000000e+00  -5.0807497225010492e+00 2.8867539097973152e-02 0.0000000000000000e+00  -5.0567202159895492e+00 2.7139541142391026e-02 0.0000000000000000e+00  -5.0336130747415719e+00 2.4021784946451977e-02 0.0000000000000000e+00  -5.0128281652277176e+00 2.0404486051808234e-02 0.0000000000000000e+00  -4.9949525861175861e+00 1.6809449716083915e-02 0.0000000000000000e+00  -4.9800693572818870e+00 1.3516463408669096e-02 0.0000000000000000e+00  -4.9679845416202948e+00 1.0645410337220808e-02 0.0000000000000000e+00  -4.9583719297032589e+00 8.2247622382237706e-03 0.0000000000000000e+00  -4.9508634039762329e+00 6.2327771628093477e-03 0.0000000000000000e+00  -4.9450978776379397e+00 4.6241869771381358e-03 0.0000000000000000e+00  -4.9407481061136691e+00 3.3433214326662637e-03 0.0000000000000000e+00  -4.9375300872903933e+00 2.3359917224426625e-03 0.0000000000000000e+00  -4.9352041218121547e+00 1.5540326739542625e-03 0.0000000000000000e+00  -4.9335711192064187e+00 9.5567671745852448e-04 0.0000000000000000e+00  -4.9324690439657823e+00 5.0383537276503466e-04 0.0000000000000000e+00  -4.9317683664203029e+00 1.6708593567447378e-04 0.0000000000000000e+00  -4.9313667128014860e+00 -7.9172394300819311e-05 0.0000000000000000e+00  -4.9311824619136280e+00 -2.5268445742277184e-04 0.0000000000000000e+00  -4.9311494363222259e+00 -3.6662824800133255e-04 0.0000000000000000e+00  -4.9312134784717934e+00 -4.3218807970431180e-04 0.0000000000000000e+00  -4.9313312186114091e+00 -4.6034083320385742e-04 0.0000000000000000e+00  -4.9314697802478120e+00 -4.6201029890416634e-04 0.0000000000000000e+00  -4.9316064881150243e+00 -4.4735490284112279e-04 0.0000000000000000e+00  -4.9317277927765346e+00 -4.2477917315309290e-04 0.0000000000000000e+00  -4.9318275095700326e+00 -4.0039528927667624e-04 0.0000000000000000e+00  -4.9319046525199868e+00 -3.7797351094389882e-04 0.0000000000000000e+00  -4.9319613759469298e+00 -3.5934911968998429e-04 0.0000000000000000e+00  -4.9320012880544066e+00 -3.4498298716174300e-04 0.0000000000000000e+00  -4.9320283008710692e+00 -3.3453499534061586e-04 0.0000000000000000e+00  