<?xml version="1.0"?>
<VTKFile type="UnstructuredGrid"  version="0.1"  >
<UnstructuredGrid>
<Piece  NumberOfPoints="1369" NumberOfCells="2560">
<Points>
<DataArray  type="Float64"  NumberOfComponents="3"  format="ascii">0 0 0  0.75 0 0  1.5 0 0  2.25 0 0  3 0 0  3.75 0 0  4.5 0 0  5.25 0 0  6 0 0  6.75 0 0  7.5 0 0  8.25 0 0  9 0 0  9.75 0 0  10.5 0 0  11.25 0 0  12 0 0  12.75 0 0  13.5 0 0  14.25 0 0  15 0 0  15.75 0 0  16.5 0 0  17.25 0 0  18 0 0  18.75 0 0  19.5 0 0  20.25 0 0  21 0 0  21.75 0 0  22.5 0 0  23.25 0 0  24 0 0  24.75 0 0  25.5 0 0  26.25 0 0  27 0 0  27.75 0 0  28.5 0 0  29.25 0 0  30 0 0  30.75 0 0  31.5 0 0  32.25 0 0  33 0 0  33.75 0 0  34.5 0 0  35.25 0 0  36 0 0  36.75 0 0  37.5 0 0  38.25 0 0  39 0 0  39.75 0 0  40.5 0 0  41.25 0 0  42 0 0  42.75 0 0  43.5 0 0  44.25 0 0  45 0 0  45.75 0 0  46.5 0 0  47.25 0 0  48 0 0  48.75 0 0  49.5 0 0  50.25 0 0  51 0 0  51.75 0 0  52.5 0 0  53.25 0 0  54 0 0  54.75 0 0  55.5 0 0  56.25 0 0  57 0 0  57.75 0 0  58.5 0 0  59.25 0 0  60 0 0  0 0.5 0  0.75 0.5 0  1.5 0.5 0  2.25 0.5 0  3 0.5 0  3.75 0.5 0  4.5 0.5 0  5.25 0.5 0  6 0.5 0  6.75 0.5 0  7.5 0.5 0  8.25 0.5 0  9 0.5 0  9.75 0.5 0  10.5 0.5 0  11.25 0.5 0  12 0.5 0  12.75 0.5 0  13.5 0.5 0  14.25 0.5 0  15 0.5 0  15.75 0.5 0  16.5 0.5 0  17.25 0.5 0  18 0.5 0  18.75 0.5 0  19.5 0.5 0  20.25 0.5 0  21 0.5 0  21.75 0.5 0  22.5 0.5 0  23.25 0.5 0  24 0.5 0  24.75 0.5 0  25.5 0.5 0  26.25 0.5 0  27 0.5 0  27.75 0.5 0  28.5 0.5 0  29.25 0.5 0  30 0.5 0  30.75 0.5 0  31.5 0.5 0  32.25 0.5 0  33 0.5 0  33.75 0.5 0  34.5 0.5 0  35.25 0.5 0  36 0.5 0  36.75 0.5 0  37.5 0.5 0  38.25 0.5 0  39 0.5 0  39.75 0.5 0  40.5 0.5 0  41.25 0.5 0  42 0.5 0  42.75 0.5 0  43.5 0.5 0  44.25 0.5 0  45 0.5 0  45.75 0.5 0  46.5 0.5 0  47.25 0.5 0  48 0.5 0  48.75 0.5 0  49.5 0.5 0  50.25 0.5 0  51 0.5 0  51.75 0.5 0  52.5 0.5 0  53.25 0.5 0  54 0.5 0  54.75 0.5 0  55.5 0.5 0  56.25 0.5 0  57 0.5 0  57.75 0.5 0  58.5 0.5 0  59.25 0.5 0  60 0.5 0  0 1 0  0.75 1 0  1.5 1 0  2.25 1 0  3 1 0  3.75 1 0  4.5 1 0  5.25 1 0  6 1 0  6.75 1 0  7.5 1 0  8.25 1 0  9 1 0  9.75 1 0  10.5 1 0  11.25 1 0  12 1 0  12.75 1 0  13.5 1 0  14.25 1 0  15 1 0  15.75 1 0  16.5 1 0  17.25 1 0  18 1 0  18.75 1 0  19.5 1 0  20.25 1 0  21 1 0  21.75 1 0  22.5 1 0  23.25 1 0  24 1 0  24.75 1 0  25.5 1 0  26.25 1 0  27 1 0  27.75 1 0  28.5 1 0  29.25 1 0  30 1 0  30.75 1 0  31.5 1 0  32.25 1 0  33 1 0  33.75 1 0  34.5 1 0  35.25 1 0  36 1 0  36.75 1 0  37.5 1 0  38.25 1 0  39 1 0  39.75 1 0  40.5 1 0  41.25 1 0  42 1 0  42.75 1 0  43.5 1 0  44.25 1 0  45 1 0  45.75 1 0  46.5 1 0  47.25 1 0  48 1 0  48.75 1 0  49.5 1 0  50.25 1 0  51 1 0  51.75 1 0  52.5 1 0  53.25 1 0  54 1 0  54.75 1 0  55.5 1 0  56.25 1 0  57 1 0  57.75 1 0  58.5 1 0  59.25 1 0  60 1 0  0 1.5 0  0.75 1.5 0  1.5 1.5 0  2.25 1.5 0  3 1.5 0  3.75 1.5 0  4.5 1.5 0  5.25 1.5 0  6 1.5 0  6.75 1.5 0  7.5 1.5 0  8.25 1.5 0  9 1.5 0  9.75 1.5 0  10.5 1.5 0  11.25 1.5 0  12 1.5 0  12.75 1.5 0  13.5 1.5 0  14.25 1.5 0  15 1.5 0  15.75 1.5 0  16.5 1.5 0  17.25 1.5 0  18 1.5 0  18.75 1.5 0  19.5 1.5 0  20.25 1.5 0  21 1.5 0  21.75 1.5 0  22.5 1.5 0  23.25 1.5 0  24 1.5 0  24.75 1.5 0  25.5 1.5 0  26.25 1.5 0  27 1.5 0  27.75 1.5 0  28.5 1.5 0  29.25 1.5 0  30 1.5 0  30.75 1.5 0  31.5 1.5 0  32.25 1.5 0  33 1.5 0  33.75 1.5 0  34.5 1.5 0  35.25 1.5 0  36 1.5 0  36.75 1.5 0  37.5 1.5 0  38.25 1.5 0  39 1.5 0  39.75 1.5 0  40.5 1.5 0  41.25 1.5 0  42 1.5 0  42.75 1.5 0  43.5 1.5 0  44.25 1.5 0  45 1.5 0  45.75 1.5 0  46.5 1.5 0  47.25 1.5 0  48 1.5 0  48.75 1.5 0  49.5 1.5 0  50.25 1.5 0  51 1.5 0  51.75 1.5 0  52.5 1.5 0  53.25 1.5 0  54 1.5 0  54.75 1.5 0  55.5 1.5 0  56.25 1.5 0  57 1.5 0  57.75 1.5 0  58.5 1.5 0  59.25 1.5 0  60 1.5 0  0 2 0  0.75 2 0  1.5 2 0  2.25 2 0  3 2 0  3.75 2 0  4.5 2 0  5.25 2 0  6 2 0  6.75 2 0  7.5 2 0  8.25 2 0  9 2 0  9.75 2 0  10.5 2 0  11.25 2 0  12 2 0  12.75 2 0  13.5 2 0  14.25 2 0  15 2 0  15.75 2 0  16.5 2 0  17.25 2 0  18 2 0  18.75 2 0  19.5 2 0  20.25 2 0  21 2 0  21.75 2 0  22.5 2 0  23.25 2 0  24 2 0  24.75 2 0  25.5 2 0  26.25 2 0  27 2 0  27.75 2 0  28.5 2 0  29.25 2 0  30 2 0  30.75 2 0  31.5 2 0  32.25 2 0  33 2 0  33.75 2 0  34.5 2 0  35.25 2 0  36 2 0  36.75 2 0  37.5 2 0  38.25 2 0  39 2 0  39.75 2 0  40.5 2 0  41.25 2 0  42 2 0  42.75 2 0  43.5 2 0  44.25 2 0  45 2 0  45.75 2 0  46.5 2 0  47.25 2 0  48 2 0  48.75 2 0  49.5 2 0  50.25 2 0  51 2 0  51.75 2 0  52.5 2 0  53.25 2 0  54 2 0  54.75 2 0  55.5 2 0  56.25 2 0  57 2 0  57.75 2 0  58.5 2 0  59.25 2 0  60 2 0  0 2.5 0  0.75 2.5 0  1.5 2.5 0  2.25 2.5 0  3 2.5 0  3.75 2.5 0  4.5 2.5 0  5.25 2.5 0  6 2.5 0  6.75 2.5 0  7.5 2.5 0  8.25 2.5 0  9 2.5 0  9.75 2.5 0  10.5 2.5 0  11.25 2.5 0  12 2.5 0  12.75 2.5 0  13.5 2.5 0  14.25 2.5 0  15 2.5 0  15.75 2.5 0  16.5 2.5 0  17.25 2.5 0  18 2.5 0  18.75 2.5 0  19.5 2.5 0  20.25 2.5 0  21 2.5 0  21.75 2.5 0  22.5 2.5 0  23.25 2.5 0  24 2.5 0  24.75 2.5 0  25.5 2.5 0  26.25 2.5 0  27 2.5 0  27.75 2.5 0  28.5 2.5 0  29.25 2.5 0  30 2.5 0  30.75 2.5 0  31.5 2.5 0  32.25 2.5 0  33 2.5 0  33.75 2.5 0  34.5 2.5 0  35.25 2.5 0  36 2.5 0  36.75 2.5 0  37.5 2.5 0  38.25 2.5 0  39 2.5 0  39.75 2.5 0  40.5 2.5 0  41.25 2.5 0  42 2.5 0  42.75 2.5 0  43.5 2.5 0  44.25 2.5 0  45 2.5 0  45.75 2.5 0  46.5 2.5 0  47.25 2.5 0  48 2.5 0  48.75 2.5 0  49.5 2.5 0  50.25 2.5 0  51 2.5 0  51.75 2.5 0  52.5 2.5 0  53.25 2.5 0  54 2.5 0  54.75 2.5 0  55.5 2.5 0  56.25 2.5 0  57 2.5 0  57.75 2.5 0  58.5 2.5 0  59.25 2.5 0  60 2.5 0  0 3 0  0.75 3 0  1.5 3 0  2.25 3 0  3 3 0  3.75 3 0  4.5 3 0  5.25 3 0  6 3 0  6.75 3 0  7.5 3 0  8.25 3 0  9 3 0  9.75 3 0  10.5 3 0  11.25 3 0  12 3 0  12.75 3 0  13.5 3 0  14.25 3 0  15 3 0  15.75 3 0  16.5 3 0  17.25 3 0  18 3 0  18.75 3 0  19.5 3 0  20.25 3 0  21 3 0  21.75 3 0  22.5 3 0  23.25 3 0  24 3 0  24.75 3 0  25.5 3 0  26.25 3 0  27 3 0  27.75 3 0  28.5 3 0  29.25 3 0  30 3 0  30.75 3 0  31.5 3 0  32.25 3 0  33 3 0  33.75 3 0  34.5 3 0  35.25 3 0  36 3 0  36.75 3 0  37.5 3 0  38.25 3 0  39 3 0  39.75 3 0  40.5 3 0  41.25 3 0  42 3 0  42.75 3 0  43.5 3 0  44.25 3 0  45 3 0  45.75 3 0  46.5 3 0  47.25 3 0  48 3 0  48.75 3 0  49.5 3 0  50.25 3 0  51 3 0  51.75 3 0  52.5 3 0  53.25 3 0  54 3 0  54.75 3 0  55.5 3 0  56.25 3 0  57 3 0  57.75 3 0  58.5 3 0  59.25 3 0  60 3 0  0 3.5 0  0.75 3.5 0  1.5 3.5 0  2.25 3.5 0  3 3.5 0  3.75 3.5 0  4.5 3.5 0  5.25 3.5 0  6 3.5 0  6.75 3.5 0  7.5 3.5 0  8.25 3.5 0  9 3.5 0  9.75 3.5 0  10.5 3.5 0  11.25 3.5 0  12 3.5 0  12.75 3.5 0  13.5 3.5 0  14.25 3.5 0  15 3.5 0  15.75 3.5 0  16.5 3.5 0  17.25 3.5 0  18 3.5 0  18.75 3.5 0  19.5 3.5 0  20.25 3.5 0  21 3.5 0  21.75 3.5 0  22.5 3.5 0  23.25 3.5 0  24 3.5 0  24.75 3.5 0  25.5 3.5 0  26.25 3.5 0  27 3.5 0  27.75 3.5 0  28.5 3.5 0  29.25 3.5 0  30 3.5 0  30.75 3.5 0  31.5 3.5 0  32.25 3.5 0  33 3.5 0  33.75 3.5 0  34.5 3.5 0  35.25 3.5 0  36 3.5 0  36.75 3.5 0  37.5 3.5 0  38.25 3.5 0  39 3.5 0  39.75 3.5 0  40.5 3.5 0  41.25 3.5 0  42 3.5 0  42.75 3.5 0  43.5 3.5 0  44.25 3.5 0  45 3.5 0  45.75 3.5 0  46.5 3.5 0  47.25 3.5 0  48 3.5 0  48.75 3.5 0  49.5 3.5 0  50.25 3.5 0  51 3.5 0  51.75 3.5 0  52.5 3.5 0  53.25 3.5 0  54 3.5 0  54.75 3.5 0  55.5 3.5 0  56.25 3.5 0  57 3.5 0  57.75 3.5 0  58.5 3.5 0  59.25 3.5 0  60 3.5 0  0 4 0  0.75 4 0  1.5 4 0  2.25 4 0  3 4 0  3.75 4 0  4.5 4 0  5.25 4 0  6 4 0  6.75 4 0  7.5 4 0  8.25 4 0  9 4 0  9.75 4 0  10.5 4 0  11.25 4 0  12 4 0  12.75 4 0  13.5 4 0  14.25 4 0  15 4 0  15.75 4 0  16.5 4 0  17.25 4 0  18 4 0  18.75 4 0  19.5 4 0  20.25 4 0  21 4 0  21.75 4 0  22.5 4 0  23.25 4 0  24 4 0  24.75 4 0  25.5 4 0  26.25 4 0  27 4 0  27.75 4 0  28.5 4 0  29.25 4 0  30 4 0  30.75 4 0  31.5 4 0  32.25 4 0  33 4 0  33.75 4 0  34.5 4 0  35.25 4 0  36 4 0  36.75 4 0  37.5 4 0  38.25 4 0  39 4 0  39.75 4 0  40.5 4 0  41.25 4 0  42 4 0  42.75 4 0  43.5 4 0  44.25 4 0  45 4 0  45.75 4 0  46.5 4 0  47.25 4 0  48 4 0  48.75 4 0  49.5 4 0  50.25 4 0  51 4 0  51.75 4 0  52.5 4 0  53.25 4 0  54 4 0  54.75 4 0  55.5 4 0  56.25 4 0  57 4 0  57.75 4 0  58.5 4 0  59.25 4 0  60 4 0  0.375 0.25 0  1.125 0.25 0  1.875 0.25 0  2.625 0.25 0  3.375 0.25 0  4.125 0.25 0  4.875 0.25 0  5.625 0.25 0  6.375 0.25 0  7.125 0.25 0  7.875 0.25 0  8.625 0.25 0  9.375 0.25 0  10.125 0.25 0  10.875 0.25 0  11.625 0.25 0  12.375 0.25 0  13.125 0.25 0  13.875 0.25 0  14.625 0.25 0  15.375 0.25 0  16.125 0.25 0  16.875 0.25 0  17.625 0.25 0  18.375 0.25 0  19.125 0.25 0  19.875 0.25 0  20.625 0.25 0  21.375 0.25 0  22.125 0.25 0  22.875 0.25 0  23.625 0.25 0  24.375 0.25 0  25.125 0.25 0  25.875 0.25 0  26.625 0.25 0  27.375 0.25 0  28.125 0.25 0  28.875 0.25 0  29.625 0.25 0  30.375 0.25 0  31.125 0.25 0  31.875 0.25 0  32.625 0.25 0  33.375 0.25 0  34.125 0.25 0  34.875 0.25 0  35.625 0.25 0  36.375 0.25 0  37.125 0.25 0  37.875 0.25 0  38.625 0.25 0  39.375 0.25 0  40.125 0.25 0  40.875 0.25 0  41.625 0.25 0  42.375 0.25 0  43.125 0.25 0  43.875 0.25 0  44.625 0.25 0  45.375 0.25 0  46.125 0.25 0  46.875 0.25 0  47.625 0.25 0  48.375 0.25 0  49.125 0.25 0  49.875 0.25 0  50.625 0.25 0  51.375 0.25 0  52.125 0.25 0  52.875 0.25 0  53.625 0.25 0  54.375 0.25 0  55.125 0.25 0  55.875 0.25 0  56.625 0.25 0  57.375 0.25 0  58.125 0.25 0  58.875 0.25 0  59.625 0.25 0  0.375 0.75 0  1.125 0.75 0  1.875 0.75 0  2.625 0.75 0  3.375 0.75 0  4.125 0.75 0  4.875 0.75 0  5.625 0.75 0  6.375 0.75 0  7.125 0.75 0  7.875 0.75 0  8.625 0.75 0  9.375 0.75 0  10.125 0.75 0  10.875 0.75 0  11.625 0.75 0  12.375 0.75 0  13.125 0.75 0  13.875 0.75 0  14.625 0.75 0  15.375 0.75 0  16.125 0.75 0  16.875 0.75 0  17.625 0.75 0  18.375 0.75 0  19.125 0.75 0  19.875 0.75 0  20.625 0.75 0  21.375 0.75 0  22.125 0.75 0  22.875 0.75 0  23.625 0.75 0  24.375 0.75 0  25.125 0.75 0  25.875 0.75 0  26.625 0.75 0  27.375 0.75 0  28.125 0.75 0  28.875 0.75 0  29.625 0.75 0  30.375 0.75 0  31.125 0.75 0  31.875 0.75 0  32.625 0.75 0  33.375 0.75 0  34.125 0.75 0  34.875 0.75 0  35.625 0.75 0  36.375 0.75 0  37.125 0.75 0  37.875 0.75 0  38.625 0.75 0  39.375 0.75 0  40.125 0.75 0  40
[...]
<PointData  Vectors="f_8-0"> 
<DataArray  type="Float64"  Name="f_8-0"  NumberOfComponents="3" format="ascii">0.0000000000000000e+00 0.0000000000000000e+00 0.0000000000000000e+00  0.0000000000000000e+00 0.0000000000000000e+00 0.0000000000000000e+00  0.0000000000000000e+00 0.0000000000000000e+00 0.0000000000000000e+00  0.0000000000000000e+00 0.0000000000000000e+00 0.0000000000000000e+00  0.0000000000000000e+00 0.0000000000000000e+00 0.0000000000000000e+00  0.0000000000000000e+00 0.0000000000000000e+00 0.0000000000000000e+00  0.0000000000000000e+00 0.0000000000000000e+00 0.0000000000000000e+00  0.0000000000000000e+00 0.0000000000000000e+00 0.0000000000000000e+00  0.0000000000000000e+00 0.0000000000000000e+00 0.0000000000000000e+00  0.0000000000000000e+00 0.0000000000000000e+00 0.0000000000000000e+00  0.0000000000000000e+00 0.0000000000000000e+00 0.0000000000000000e+00  0.0000000000000000e+00 0.0000000000000000e+00 0.0000000000000000e+00  0.0000000000000000e+00 0.0000000000000000e+00 0.0000000000000000e+00  0.0000000000000000e+00 0.0000000000000000e+00 0.0000000000000000e+00  0.0000000000000000e+00 0.0000000000000000e+00 0.0000000000000000e+00  0.0000000000000000e+00 0.0000000000000000e+00 0.0000000000000000e+00  0.0000000000000000e+00 0.0000000000000000e+00 0.0000000000000000e+00  0.0000000000000000e+00 0.0000000000000000e+00 0.0000000000000000e+00  0.0000000000000000e+00 0.0000000000000000e+00 0.0000000000000000e+00  0.0000000000000000e+00 0.0000000000000000e+00 0.0000000000000000e+00  0.0000000000000000e+00 0.0000000000000000e+00 0.0000000000000000e+00  0.0000000000000000e+00 0.0000000000000000e+00 0.0000000000000000e+00  0.0000000000000000e+00 0.0000000000000000e+00 0.0000000000000000e+00  0.0000000000000000e+00 0.0000000000000000e+00 0.0000000000000000e+00  0.0000000000000000e+00 0.0000000000000000e+00 0.0000000000000000e+00  0.0000000000000000e+00 0.0000000000000000e+00 0.0000000000000000e+00  0.0000000000000000e+00 0.0000000000000000e+00 0.0000000000000000e+00  0.0000000000000000e+00 0.0000000000000000e+00 0.0000000000000000e+00  0.0000000000000000e+00 0.0000000000000000e+00 0.0000000000000000e+00  0.0000000000000000e+00 0.0000000000000000e+00 0.0000000000000000e+00  0.0000000000000000e+00 0.0000000000000000e+00 0.0000000000000000e+00  0.0000000000000000e+00 0.0000000000000000e+00 0.0000000000000000e+00  0.0000000000000000e+00 0.0000000000000000e+00 0.0000000000000000e+00  0.0000000000000000e+00 0.0000000000000000e+00 0.0000000000000000e+00  0.0000000000000000e+00 0.0000000000000000e+00 0.0000000000000000e+00  0.0000000000000000e+00 0.0000000000000000e+00 0.0000000000000000e+00  0.0000000000000000e+00 0.0000000000000000e+00 0.0000000000000000e+00  0.0000000000000000e+00 0.0000000000000000e+00 0.0000000000000000e+00  0.0000000000000000e+00 0.0000000000000000e+00 0.0000000000000000e+00  0.0000000000000000e+00 0.0000000000000000e+00 0.0000000000000000e+00  0.0000000000000000e+00 0.0000000000000000e+00 0.0000000000000000e+00  0.0000000000000000e+00 0.0000000000000000e+00 0.0000000000000000e+00  0.0000000000000000e+00 0.0000000000000000e+00 0.0000000000000000e+00  0.0000000000000000e+00 0.0000000000000000e+00 0.0000000000000000e+00  0.0000000000000000e+00 0.0000000000000000e+00 0.0000000000000000e+00  0.0000000000000000e+00 0.0000000000000000e+00 0.0000000000000000e+00  0.0000000000000000e+00 0.0000000000000000e+00 0.0000000000000000e+00  0.0000000000000000e+00 0.0000000000000000e+00 0.0000000000000000e+00  0.0000000000000000e+00 0.0000000000000000e+00 0.0000000000000000e+00  0.0000000000000000e+00 0.0000000000000000e+00 0.0000000000000000e+00  0.0000000000000000e+00 0.0000000000000000e+00 0.0000000000000000e+00  0.0000000000000000e+00 0.0000000000000000e+00 0.0000000000000000e+00  0.0000000000000000e+00 0.0000000000000000e+00 0.0000000000000000e+00  0.0000000000000000e+00 0.0000000000000000e+00 0.0000000000000000e+00  0.0000000000000000e+00 0.0000000000000000e+00 0.0000000000000000e+00  0.0000000000000000e+00 0.0000000000000000e+00 0.0000000000000000e+00  0.0000000000000000e+00 0.0000000000000000e+00 0.0000000000000000e+00  0.0000000000000000e+00 0.0000000000000000e+00 0.0000000000000000e+00  0.0000000000000000e+00 0.0000000000000000e+00 0.0000000000000000e+00  0.0000000000000000e+00 0.0000000000000000e+00 0.0000000000000000e+00  0.0000000000000000e+00 0.0000000000000000e+00 0.0000000000000000e+00  0.0000000000000000e+00 0.0000000000000000e+00 0.0000000000000000e+00  0.0000000000000000e+00 0.0000000000000000e+00 0.0000000000000000e+00  0.0000000000000000e+00 0.0000000000000000e+00 0.0000000000000000e+00  0.0000000000000000e+00 0.0000000000000000e+00 0.0000000000000000e+00  0.0000000000000000e+00 0.0000000000000000e+00 0.0000000000000000e+00  0.0000000000000000e+00 0.0000000000000000e+00 0.0000000000000000e+00  0.0000000000000000e+00 0.0000000000000000e+00 0.0000000000000000e+00  0.0000000000000000e+00 0.0000000000000000e+00 0.0000000000000000e+00  0.0000000000000000e+00 0.0000000000000000e+00 0.0000000000000000e+00  0.0000000000000000e+00 0.0000000000000000e+00 0.0000000000000000e+00  0.0000000000000000e+00 0.0000000000000000e+00 0.0000000000000000e+00  0.0000000000000000e+00 0.0000000000000000e+00 0.0000000000000000e+00  0.0000000000000000e+00 0.0000000000000000e+00 0.0000000000000000e+00  0.0000000000000000e+00 0.0000000000000000e+00 0.0000000000000000e+00  0.0000000000000000e+00 0.0000000000000000e+00 0.0000000000000000e+00  0.0000000000000000e+00 0.0000000000000000e+00 0.0000000000000000e+00  0.0000000000000000e+00 0.0000000000000000e+00 0.0000000000000000e+00  0.0000000000000000e+00 0.0000000000000000e+00 0.0000000000000000e+00  0.0000000000000000e+00 0.0000000000000000e+00 0.0000000000000000e+00  0.0000000000000000e+00 0.0000000000000000e+00 0.0000000000000000e+00  2.4552618770219048e+01 0.0000000000000000e+00 0.0000000000000000e+00  2.4540864854158123e+01 7.0183405678850452e-02 0.0000000000000000e+00  2.4549738843663818e+01 3.4561660824337842e-02 0.0000000000000000e+00  2.4523781128242707e+01 6.2550358597949097e-03 0.0000000000000000e+00  2.4519907922659279e+01 4.6547967265638248e-03 0.0000000000000000e+00  2.4521600794619101e+01 3.6838918342175873e-03 0.0000000000000000e+00  2.4520908414991840e+01 4.4098082411142808e-03 0.0000000000000000e+00  2.4521906531289364e+01 4.3598682356899131e-03 0.0000000000000000e+00  2.4521460822543119e+01 4.4171568212980480e-03 0.0000000000000000e+00  2.4521783344125755e+01 4.4222062639418429e-03 0.0000000000000000e+00  2.4521649299535490e+01 4.4251088569830788e-03 0.0000000000000000e+00  2.4521726686830302e+01 4.4273331810834021e-03 0.0000000000000000e+00  2.4521698950453146e+01 4.4277676229716829e-03 0.0000000000000000e+00  2.4521713947965434e+01 4.4281823344208661e-03 0.0000000000000000e+00  2.4521709476899208e+01 4.4283574869955740e-03 0.0000000000000000e+00  2.4521712040702049e+01 4.4284317681653144e-03 0.0000000000000000e+00  2.4521711462471995e+01 4.4284853405381847e-03 0.0000000000000000e+00  2.4521711878443757e+01 4.4285018885662202e-03 0.0000000000000000e+00  2.4521711824923358e+01 4.4285154121108837e-03 0.0000000000000000e+00  2.4521711893227202e+01 4.4285196960189826e-03 0.0000000000000000e+00  2.4521711893072510e+01 4.4285228653318234e-03 0.0000000000000000e+00  2.4521711905044985e+01 4.4285239992779566e-03 0.0000000000000000e+00  2.4521711906735312e+01 4.4285247295429266e-03 0.0000000000000000e+00  2.4521711909036608e+01 4.4285250243231433e-03 0.0000000000000000e+00  2.4521711909672629e+01 4.4285251949005306e-03 0.0000000000000000e+00  2.4521711910161113e+01 4.4285252716821689e-03 0.0000000000000000e+00  2.4521711910340652e+01 4.4285253096276464e-03 0.0000000000000000e+00  2.4521711910451774e+01 4.4285253296814054e-03 0.0000000000000000e+00  2.4521711910501452e+01 4.4285253381281487e-03 0.0000000000000000e+00  2.4521711910524058e+01 4.4285253439412696e-03 0.0000000000000000e+00  2.4521711910540496e+01 4.4285253483800297e-03 0.0000000000000000e+00  2.4521711910542692e+01 4.4285253455975497e-03 0.0000000000000000e+00  2.4521711910547005e+01 4.4285253506215613e-03 0.0000000000000000e+00  2.4521711910543377e+01 4.4285253478452509e-03 0.0000000000000000e+00  2.4521711910546788e+01 4.4285253485963514e-03 0.0000000000000000e+00  2.4521711910550081e+01 4.4285253507261764e-03 0.0000000000000000e+00  2.4521711910543001e+01 4.4285253460406761e-03 0.0000000000000000e+00  2.4521711910545015e+01 4.4285253487654557e-03 0.0000000000000000e+00  2.4521711910548415e+01 4.4285253501180665e-03 0.0000000000000000e+00  2.4521711910546074e+01 4.4285253478739666e-03 0.0000000000000000e+00  2.4521711910547197e+01 4.4285253469250954e-03 0.0000000000000000e+00  2.4521711910552575e+01 4.4285253466990948e-03 0.0000000000000000e+00  2.4521711910557006e+01 4.4285253502106686e-03 0.0000000000000000e+00  2.4521711910561251e+01 4.4285253431955067e-03 0.0000000000000000e+00  2.4521711910572204e+01 4.4285253421601327e-03 0.0000000000000000e+00  2.4521711910596476e+01 4.4285253272193480e-03 0.0000000000000000e+00  2.4521711910652577e+01 4.4285253171201583e-03 0.0000000000000000e+00  2.4521711910752106e+01 4.4285252659816889e-03 0.0000000000000000e+00  2.4521711910976911e+01 4.4285251982814737e-03 0.0000000000000000e+00  2.4521711911399922e+01 4.4285250225412996e-03 0.0000000000000000e+00  2.4521711912321930e+01 4.4285247117038023e-03 0.0000000000000000e+00  2.4521711914079582e+01 4.4285240440988301e-03 0.0000000000000000e+00  2.4521711917788000e+01 4.4285227348142336e-03 0.0000000000000000e+00  2.4521711924982711e+01 4.4285201186523588e-03 0.0000000000000000e+00  2.4521711939793885e+01 4.4285148244284679e-03 0.0000000000000000e+00  2.4521711968766461e+01 4.4285044726572126e-03 0.0000000000000000e+00  2.4521712027387903e+01 4.4284833334877274e-03 0.0000000000000000e+00  2.4521712142667560e+01 4.4284418221354309e-03 0.0000000000000000e+00  2.4521712374103714e+01 4.4283559328676496e-03 0.0000000000000000e+00  2.4521712834200908e+01 4.4281814727695368e-03 0.0000000000000000e+00  2.4521713772029639e+01 4.4278030873246711e-03 0.0000000000000000e+00  2.4521715723099994e+01 4.4269669414627342e-03 0.0000000000000000e+00  2.4521719990580149e+01 4.4250019145613897e-03 0.0000000000000000e+00  2.4521729766510187e+01 4.4203475986749115e-03 0.0000000000000000e+00  2.4521753022602567e+01 4.4093828892908899e-03 0.0000000000000000e+00  2.4521808391429222e+01 4.3850165182046704e-03 0.0000000000000000e+00  2.4521935698926654e+01 4.3352582372739729e-03 0.0000000000000000e+00  2.4522208319708561e+01 4.2459993432134996e-03 0.0000000000000000e+00  2.4522736024129429e+01 4.1113480087469831e-03 0.0000000000000000e+00  2.4523630095403483e+01 3.9555016031356006e-03 0.0000000000000000e+00  2.4524911375325225e+01 3.8430954182434749e-03 0.0000000000000000e+00  2.4526412080896961e+01 3.8469175447473237e-03 0.0000000000000000e+00  2.4527825067509980e+01 3.9754149263058376e-03 0.0000000000000000e+00  2.4528887038570922e+01 4.1997477812202857e-03 0.0000000000000000e+00  2.4529372726372809e+01 4.5606474185277300e-03 0.0000000000000000e+00  2.4528892673281717e+01 5.1562452826210232e-03 0.0000000000000000e+00  2.4526868994325422e+01 6.0256264225703720e-03 0.0000000000000000e+00  2.4522465443859119e+01 7.1392330166122533e-03 0.0000000000000000e+00  2.4514079193561990e+01 7.9408816384135082e-03 0.0000000000000000e+00  2.4495606616829338e+01 5.4727583929807845e-03 0.0000000000000000e+00  2.4474234842716594e+01 0.0000000000000000e+00 0.0000000000000000e+00  2.4408376326284674e+01 0.0000000000000000e+00 0.0000000000000000e+00  2.4337784441442960e+01 -1.5305550218649809e-02 0.0000000000000000e+00  2.4392699211719911e+01 1.4388281591751007e-02 0.0000000000000000e+00  2.4403060552351537e+01 4.1045967086272865e-03 0.0000000000000000e+00  2.4407140086719330e+01 3.3246883549214891e-05 0.0000000000000000e+00  2.4405480263041508e+01 -1.0667690932058668e-03 0.0000000000000000e+00  2.4406130961315984e+01 -1.9106765298931101e-04 0.0000000000000000e+00  2.4405772592351713e+01 -4.6302698563965025e-04 0.0000000000000000e+00  2.4406058498002309e+01 -1.7757842172050876e-04 0.0000000000000000e+00  2.4405938859570078e+01 -2.6512278852993629e-04 0.0000000000000000e+00  2.4406022874671269e+01 -2.0291349703583438e-04 0.0000000000000000e+00  2.4405992151888849e+01 -2.1968835877828605e-04 0.0000000000000000e+00  2.4406011616847138e+01 -2.0826004883909920e-04 0.0000000000000000e+00  2.4406005650483369e+01 -2.1048274310950696e-04 0.0000000000000000e+00  2.4406009489781997e+01 -2.0853002712682979e-04 0.0000000000000000e+00  2.4406008584058917e+01 -2.0868894338975889e-04 0.0000000000000000e+00  2.4406009275346509e+01 -2.0835053942405677e-04 0.0000000000000000e+00  2.4406009174596520e+01 -2.0832871671877190e-04 0.0000000000000000e+00  2.4406009295665864e+01 -2.0826560384863327e-04 0.0000000000000000e+00  2.4406009291932904e+01 -2.0825201539350239e-04 0.0000000000000000e+00  2.4406009313724422e+01 -2.0823913543095081e-04 0.0000000000000000e+00  2.4406009315955153e+01 -2.0823479628611868e-04 0.0000000000000000e+00  2.4406009320136985e+01 -2.0823196663572263e-04 0.0000000000000000e+00  2.4406009321112784e+01 -2.0823078837009881e-04 0.0000000000000000e+00  2.4406009321978534e+01 -2.0823013587221287e-04 0.0000000000000000e+00  2.4406009322273253e+01 -2.0822983796602376e-04 0.0000000000000000e+00  2.4406009322467177e+01 -2.0822968338982543e-04 0.0000000000000000e+00  2.4406009322544350e+01 -2.0822960466191701e-04 0.0000000000000000e+00  2.4406009322592578e+01 -2.0822957387147531e-04 0.0000000000000000e+00  2.4406009322612398e+01 -2.0822954473529557e-04 0.0000000000000000e+00  2.4406009322623483e+01 -2.0822954848343848e-04 0.0000000000000000e+00  2.4406009322624875e+01 -2.0822952896601451e-04 0.0000000000000000e+00  2.4406009322626726e+01 -2.0822953620497288e-04 0.0000000000000000e+00  2.4406009322626005e+01 -2.0822953260344102e-04 0.0000000000000000e+00  2.4406009322626133e+01 -2.0822953106676222e-04 0.0000000000000000e+00  2.4406009322629316e+01 -2.0822954012887927e-04 0.0000000000000000e+00  2.4406009322624065e+01 -2.0822952625950834e-04 0.0000000000000000e+00  2.4406009322628080e+01 -2.0822953643855554e-04 0.0000000000000000e+00  2.4406009322627789e+01 -2.0822953240384821e-04 0.0000000000000000e+00  2.4406009322628826e+01 -2.0822953467580010e-04 0.0000000000000000e+00  2.4406009322625106e+01 -2.0822953108115409e-04 0.0000000000000000e+00  2.4406009322632027e+01 -2.0822953718214045e-04 0.0000000000000000e+00  2.4406009322634105e+01 -2.0822953635417683e-04 0.0000000000000000e+00  2.4406009322637626e+01 -2.0822954205357088e-04 0.0000000000000000e+00  2.4406009322634546e+01 -2.0822954769451665e-04 0.0000000000000000e+00  2.4406009322647748e+01 -2.0822957207013141e-04 0.0000000000000000e+00  2.4406009322655247e+01 -2.0822959985646952e-04 0.0000000000000000e+00  2.4406009322701500e+01 -2.0822969621224724e-04 0.0000000000000000e+00  2.4406009322753732e+01 -2.0822982574635512e-04 0.0000000000000000e+00  2.4406009322906371e+01 -2.0823016994039721e-04 0.0000000000000000e+00  2.4406009323181742e+01 -2.0823078144733325e-04 0.0000000000000000e+00  2.4406009323772249e+01 -2.0823210105345077e-04 0.0000000000000000e+00  2.4406009324954034e+01 -2.0823465966149637e-04 0.0000000000000000e+00  2.4406009327308229e+01 -2.0823985198570720e-04 0.0000000000000000e+00  2.4406009332167059e+01 -2.0825020046543250e-04 0.0000000000000000e+00  2.4406009341597120e+01 -2.0827073234385292e-04 0.0000000000000000e+00  2.4406009360913021e+01 -2.0831201733980959e-04 0.0000000000000000e+00  2.4406009397986821e+01 -2.0839372482610899e-04 0.0000000000000000e+00  2.4406009472348988e+01 -2.0855981976698339e-04 0.0000000000000000e+00  2.4406009613040482e+01 -2.0889523047908147e-04 0.0000000000000000e+00  2.4406009885970914e+01 -2.0960304748159029e-04 0.0000000000000000e+00  2.4406010393274745e+01 -2.1113672057118451e-04 0.0000000000000000e+00  2.4406011387181810e+01 -2.1467121015142181e-04 0.0000000000000000e+00  2.4406013466126218e+01 -2.2307129030493917e-04 0.0000000000000000e+00  2.4406018560020268e+01 -2.4327806207661003e-04 0.0000000000000000e+00  2.4406032296830503e+01 -2.9004631121147165e-04 0.0000000000000000e+00  2.4406070173629839e+01 -3.9075005607256883e-04 0.0000000000000000e+00  2.4406167913999482e+01 -5.8399649349998180e-04 0.0000000000000000e+00  2.4406393374247031e+01 -9.0005751498445385e-04 0.0000000000000000e+00  2.4406834990675158e+01 -1.3048209850936260e-03 0.0000000000000000e+00  2.4407530856049259e+01 -1.6431586946201472e-03 0.0000000000000000e+00  2.4408365561152412e+01 -1.7029154208541097e-03 0.0000000000000000e+00  2.4409148072518320e+01 -1.4559039016856193e-03 0.0000000000000000e+00  2.4409839771039241e+01 -1.0317908779715168e-03 0.0000000000000000e+00  2.4410461745903518e+01 -3.5106616454672865e-04 0.0000000000000000e+00  2.4410928519725619e+01 7.9711129562004437e-04 0.0000000000000000e+00  2.4411164647572235e+01 2.5535580678690646e-03 0.0000000000000000e+00  2.4410928906764916e+01 5.1715157680675729e-03 0.0000000000000000e+00  2.4409760596489104e+01 8.8545359920514169e-03 0.0000000000000000e+00  2.4408036980480578e+01 1.3105749326410159e-02 0.0000000000000000e+00  2.4408443180229874e+01 0.0000000000000000e+00 0.0000000000000000e+00  2.1371163035504889e+01 0.0000000000000000e+00 0.0000000000000000e+00  2.1365373155471939e+01 7.3294112070885543e-04 0.0000000000000000e+00  2.1365790176859253e+01 -3.9397753142426340e-03 0.0000000000000000e+00  2.1371477195500244e+01 5.4581478633560648e-04 0.0000000000000000e+00  2.1371090916550163e+01 -1.7731843385691063e-03 0.0000000000000000e+00  2.1371586871576977e+01 -1.6872523392022884e-03 0.0000000000000000e+00  2.1370859181066077e+01 -1.8450171023755165e-03 0.0000000000000000e+00  2.1370924040560102e+01 -1.5943820776863598e-03 0.0000000000000000e+00  2.1370752649066709e+01 -1.6385855907781843e-03 0.0000000000000000e+00  2.1370776996657465e+01 -1.5701091085513210e-03 0.0000000000000000e+00  2.1370737355911558e+01 -1.5832585043607742e-03 0.0000000000000000e+00  2.1370742780566154e+01 -1.5680607575418292e-03 0.0000000000000000e+00  2.1370733884818566e+01 -1.5703037895592310e-03 0.0000000000000000e+00  2.1370734605458146e+01 -1.5672411961381917e-03 0.0000000000000000e+00  2.1370732702950569e+01 -1.5674076236312207e-03 0.0000000000000000e+00  2.1370732693268039e+01 -1.5668096836338463e-03 0.0000000000000000e+00  2.1370732298153111e+01 -1.5667676901586762e-03 0.0000000000000000e+00  2.1370732255476973e+01 -1.5666483330820180e-03 0.0000000000000000e+00  2.1370732173346664e+01 -1.5666241930071862e-03 0.0000000000000000e+00  2.1370732155754709e+01 -1.5665991394960010e-03 0.0000000000000000e+00  2.1370732138243383e+01 -1.5665912576356754e-03 0.0000000000000000e+00  2.1370732132829673e+01 -1.5665857168513648e-03 0.0000000000000000e+00  2.1370732128954238e+01 -1.5665835352533517e-03 0.0000000000000000e+00  2.1370732127471815e+01 -1.5665822589910046e-03 0.0000000000000000e+00  2.1370732126581952e+01 -1.5665817035675539e-03 0.0000000000000000e+00  2.1370732126200203e+01 -1.5665814012361362e-03 0.0000000000000000e+00  2.1370732125985633e+01 -1.5665812583471989e-03 0.0000000000000000e+00  2.1370732125890967e+01 -1.5665811863311192e-03 0.0000000000000000e+00  2.1370732125838522e+01 -1.5665811537794447e-03 0.0000000000000000e+00  2.1370732125818130e+01 -1.5665811350672387e-03 0.0000000000000000e+00  2.1370732125804146e+01 -1.5665811264299863e-03 0.0000000000000000e+00  2.1370732125795840e+01 -1.5665811152595121e-03 0.0000000000000000e+00  2.1370732125795008e+01 -1.5665811190801061e-03 0.0000000000000000e+00  2.1370732125793726e+01 -1.5665811140507567e-03 0.0000000000000000e+00  2.1370732125793275e+01 -1.5665811195220093e-03 0.0000000000000000e+00  2.1370732125789548e+01 -1.5665811212192842e-03 0.0000000000000000e+00  2.1370732125792312e+01 -1.5665811120473706e-03 0.0000000000000000e+00  2.1370732125790049e+01 -1.5665811232272290e-03 0.0000000000000000e+00  2.1370732125794586e+01 -1.5665811188293128e-03 0.0000000000000000e+00  2.1370732125792429e+01 -1.5665811152974622e