<?xml version="1.0"?>
<VTKFile type="UnstructuredGrid"  version="0.1"  >
<UnstructuredGrid>
<Piece  NumberOfPoints="1369" NumberOfCells="2560">
<Points>
<DataArray  type="Float64"  NumberOfComponents="3"  format="ascii">0 0 0  0.75 0 0  1.5 0 0  2.25 0 0  3 0 0  3.75 0 0  4.5 0 0  5.25 0 0  6 0 0  6.75 0 0  7.5 0 0  8.25 0 0  9 0 0  9.75 0 0  10.5 0 0  11.25 0 0  12 0 0  12.75 0 0  13.5 0 0  14.25 0 0  15 0 0  15.75 0 0  16.5 0 0  17.25 0 0  18 0 0  18.75 0 0  19.5 0 0  20.25 0 0  21 0 0  21.75 0 0  22.5 0 0  23.25 0 0  24 0 0  24.75 0 0  25.5 0 0  26.25 0 0  27 0 0  27.75 0 0  28.5 0 0  29.25 0 0  30 0 0  30.75 0 0  31.5 0 0  32.25 0 0  33 0 0  33.75 0 0  34.5 0 0  35.25 0 0  36 0 0  36.75 0 0  37.5 0 0  38.25 0 0  39 0 0  39.75 0 0  40.5 0 0  41.25 0 0  42 0 0  42.75 0 0  43.5 0 0  44.25 0 0  45 0 0  45.75 0 0  46.5 0 0  47.25 0 0  48 0 0  48.75 0 0  49.5 0 0  50.25 0 0  51 0 0  51.75 0 0  52.5 0 0  53.25 0 0  54 0 0  54.75 0 0  55.5 0 0  56.25 0 0  57 0 0  57.75 0 0  58.5 0 0  59.25 0 0  60 0 0  0 0.5 0  0.75 0.5 0  1.5 0.5 0  2.25 0.5 0  3 0.5 0  3.75 0.5 0  4.5 0.5 0  5.25 0.5 0  6 0.5 0  6.75 0.5 0  7.5 0.5 0  8.25 0.5 0  9 0.5 0  9.75 0.5 0  10.5 0.5 0  11.25 0.5 0  12 0.5 0  12.75 0.5 0  13.5 0.5 0  14.25 0.5 0  15 0.5 0  15.75 0.5 0  16.5 0.5 0  17.25 0.5 0  18 0.5 0  18.75 0.5 0  19.5 0.5 0  20.25 0.5 0  21 0.5 0  21.75 0.5 0  22.5 0.5 0  23.25 0.5 0  24 0.5 0  24.75 0.5 0  25.5 0.5 0  26.25 0.5 0  27 0.5 0  27.75 0.5 0  28.5 0.5 0  29.25 0.5 0  30 0.5 0  30.75 0.5 0  31.5 0.5 0  32.25 0.5 0  33 0.5 0  33.75 0.5 0  34.5 0.5 0  35.25 0.5 0  36 0.5 0  36.75 0.5 0  37.5 0.5 0  38.25 0.5 0  39 0.5 0  39.75 0.5 0  40.5 0.5 0  41.25 0.5 0  42 0.5 0  42.75 0.5 0  43.5 0.5 0  44.25 0.5 0  45 0.5 0  45.75 0.5 0  46.5 0.5 0  47.25 0.5 0  48 0.5 0  48.75 0.5 0  49.5 0.5 0  50.25 0.5 0  51 0.5 0  51.75 0.5 0  52.5 0.5 0  53.25 0.5 0  54 0.5 0  54.75 0.5 0  55.5 0.5 0  56.25 0.5 0  57 0.5 0  57.75 0.5 0  58.5 0.5 0  59.25 0.5 0  60 0.5 0  0 1 0  0.75 1 0  1.5 1 0  2.25 1 0  3 1 0  3.75 1 0  4.5 1 0  5.25 1 0  6 1 0  6.75 1 0  7.5 1 0  8.25 1 0  9 1 0  9.75 1 0  10.5 1 0  11.25 1 0  12 1 0  12.75 1 0  13.5 1 0  14.25 1 0  15 1 0  15.75 1 0  16.5 1 0  17.25 1 0  18 1 0  18.75 1 0  19.5 1 0  20.25 1 0  21 1 0  21.75 1 0  22.5 1 0  23.25 1 0  24 1 0  24.75 1 0  25.5 1 0  26.25 1 0  27 1 0  27.75 1 0  28.5 1 0  29.25 1 0  30 1 0  30.75 1 0  31.5 1 0  32.25 1 0  33 1 0  33.75 1 0  34.5 1 0  35.25 1 0  36 1 0  36.75 1 0  37.5 1 0  38.25 1 0  39 1 0  39.75 1 0  40.5 1 0  41.25 1 0  42 1 0  42.75 1 0  43.5 1 0  44.25 1 0  45 1 0  45.75 1 0  46.5 1 0  47.25 1 0  48 1 0  48.75 1 0  49.5 1 0  50.25 1 0  51 1 0  51.75 1 0  52.5 1 0  53.25 1 0  54 1 0  54.75 1 0  55.5 1 0  56.25 1 0  57 1 0  57.75 1 0  58.5 1 0  59.25 1 0  60 1 0  0 1.5 0  0.75 1.5 0  1.5 1.5 0  2.25 1.5 0  3 1.5 0  3.75 1.5 0  4.5 1.5 0  5.25 1.5 0  6 1.5 0  6.75 1.5 0  7.5 1.5 0  8.25 1.5 0  9 1.5 0  9.75 1.5 0  10.5 1.5 0  11.25 1.5 0  12 1.5 0  12.75 1.5 0  13.5 1.5 0  14.25 1.5 0  15 1.5 0  15.75 1.5 0  16.5 1.5 0  17.25 1.5 0  18 1.5 0  18.75 1.5 0  19.5 1.5 0  20.25 1.5 0  21 1.5 0  21.75 1.5 0  22.5 1.5 0  23.25 1.5 0  24 1.5 0  24.75 1.5 0  25.5 1.5 0  26.25 1.5 0  27 1.5 0  27.75 1.5 0  28.5 1.5 0  29.25 1.5 0  30 1.5 0  30.75 1.5 0  31.5 1.5 0  32.25 1.5 0  33 1.5 0  33.75 1.5 0  34.5 1.5 0  35.25 1.5 0  36 1.5 0  36.75 1.5 0  37.5 1.5 0  38.25 1.5 0  39 1.5 0  39.75 1.5 0  40.5 1.5 0  41.25 1.5 0  42 1.5 0  42.75 1.5 0  43.5 1.5 0  44.25 1.5 0  45 1.5 0  45.75 1.5 0  46.5 1.5 0  47.25 1.5 0  48 1.5 0  48.75 1.5 0  49.5 1.5 0  50.25 1.5 0  51 1.5 0  51.75 1.5 0  52.5 1.5 0  53.25 1.5 0  54 1.5 0  54.75 1.5 0  55.5 1.5 0  56.25 1.5 0  57 1.5 0  57.75 1.5 0  58.5 1.5 0  59.25 1.5 0  60 1.5 0  0 2 0  0.75 2 0  1.5 2 0  2.25 2 0  3 2 0  3.75 2 0  4.5 2 0  5.25 2 0  6 2 0  6.75 2 0  7.5 2 0  8.25 2 0  9 2 0  9.75 2 0  10.5 2 0  11.25 2 0  12 2 0  12.75 2 0  13.5 2 0  14.25 2 0  15 2 0  15.75 2 0  16.5 2 0  17.25 2 0  18 2 0  18.75 2 0  19.5 2 0  20.25 2 0  21 2 0  21.75 2 0  22.5 2 0  23.25 2 0  24 2 0  24.75 2 0  25.5 2 0  26.25 2 0  27 2 0  27.75 2 0  28.5 2 0  29.25 2 0  30 2 0  30.75 2 0  31.5 2 0  32.25 2 0  33 2 0  33.75 2 0  34.5 2 0  35.25 2 0  36 2 0  36.75 2 0  37.5 2 0  38.25 2 0  39 2 0  39.75 2 0  40.5 2 0  41.25 2 0  42 2 0  42.75 2 0  43.5 2 0  44.25 2 0  45 2 0  45.75 2 0  46.5 2 0  47.25 2 0  48 2 0  48.75 2 0  49.5 2 0  50.25 2 0  51 2 0  51.75 2 0  52.5 2 0  53.25 2 0  54 2 0  54.75 2 0  55.5 2 0  56.25 2 0  57 2 0  57.75 2 0  58.5 2 0  59.25 2 0  60 2 0  0 2.5 0  0.75 2.5 0  1.5 2.5 0  2.25 2.5 0  3 2.5 0  3.75 2.5 0  4.5 2.5 0  5.25 2.5 0  6 2.5 0  6.75 2.5 0  7.5 2.5 0  8.25 2.5 0  9 2.5 0  9.75 2.5 0  10.5 2.5 0  11.25 2.5 0  12 2.5 0  12.75 2.5 0  13.5 2.5 0  14.25 2.5 0  15 2.5 0  15.75 2.5 0  16.5 2.5 0  17.25 2.5 0  18 2.5 0  18.75 2.5 0  19.5 2.5 0  20.25 2.5 0  21 2.5 0  21.75 2.5 0  22.5 2.5 0  23.25 2.5 0  24 2.5 0  24.75 2.5 0  25.5 2.5 0  26.25 2.5 0  27 2.5 0  27.75 2.5 0  28.5 2.5 0  29.25 2.5 0  30 2.5 0  30.75 2.5 0  31.5 2.5 0  32.25 2.5 0  33 2.5 0  33.75 2.5 0  34.5 2.5 0  35.25 2.5 0  36 2.5 0  36.75 2.5 0  37.5 2.5 0  38.25 2.5 0  39 2.5 0  39.75 2.5 0  40.5 2.5 0  41.25 2.5 0  42 2.5 0  42.75 2.5 0  43.5 2.5 0  44.25 2.5 0  45 2.5 0  45.75 2.5 0  46.5 2.5 0  47.25 2.5 0  48 2.5 0  48.75 2.5 0  49.5 2.5 0  50.25 2.5 0  51 2.5 0  51.75 2.5 0  52.5 2.5 0  53.25 2.5 0  54 2.5 0  54.75 2.5 0  55.5 2.5 0  56.25 2.5 0  57 2.5 0  57.75 2.5 0  58.5 2.5 0  59.25 2.5 0  60 2.5 0  0 3 0  0.75 3 0  1.5 3 0  2.25 3 0  3 3 0  3.75 3 0  4.5 3 0  5.25 3 0  6 3 0  6.75 3 0  7.5 3 0  8.25 3 0  9 3 0  9.75 3 0  10.5 3 0  11.25 3 0  12 3 0  12.75 3 0  13.5 3 0  14.25 3 0  15 3 0  15.75 3 0  16.5 3 0  17.25 3 0  18 3 0  18.75 3 0  19.5 3 0  20.25 3 0  21 3 0  21.75 3 0  22.5 3 0  23.25 3 0  24 3 0  24.75 3 0  25.5 3 0  26.25 3 0  27 3 0  27.75 3 0  28.5 3 0  29.25 3 0  30 3 0  30.75 3 0  31.5 3 0  32.25 3 0  33 3 0  33.75 3 0  34.5 3 0  35.25 3 0  36 3 0  36.75 3 0  37.5 3 0  38.25 3 0  39 3 0  39.75 3 0  40.5 3 0  41.25 3 0  42 3 0  42.75 3 0  43.5 3 0  44.25 3 0  45 3 0  45.75 3 0  46.5 3 0  47.25 3 0  48 3 0  48.75 3 0  49.5 3 0  50.25 3 0  51 3 0  51.75 3 0  52.5 3 0  53.25 3 0  54 3 0  54.75 3 0  55.5 3 0  56.25 3 0  57 3 0  57.75 3 0  58.5 3 0  59.25 3 0  60 3 0  0 3.5 0  0.75 3.5 0  1.5 3.5 0  2.25 3.5 0  3 3.5 0  3.75 3.5 0  4.5 3.5 0  5.25 3.5 0  6 3.5 0  6.75 3.5 0  7.5 3.5 0  8.25 3.5 0  9 3.5 0  9.75 3.5 0  10.5 3.5 0  11.25 3.5 0  12 3.5 0  12.75 3.5 0  13.5 3.5 0  14.25 3.5 0  15 3.5 0  15.75 3.5 0  16.5 3.5 0  17.25 3.5 0  18 3.5 0  18.75 3.5 0  19.5 3.5 0  20.25 3.5 0  21 3.5 0  21.75 3.5 0  22.5 3.5 0  23.25 3.5 0  24 3.5 0  24.75 3.5 0  25.5 3.5 0  26.25 3.5 0  27 3.5 0  27.75 3.5 0  28.5 3.5 0  29.25 3.5 0  30 3.5 0  30.75 3.5 0  31.5 3.5 0  32.25 3.5 0  33 3.5 0  33.75 3.5 0  34.5 3.5 0  35.25 3.5 0  36 3.5 0  36.75 3.5 0  37.5 3.5 0  38.25 3.5 0  39 3.5 0  39.75 3.5 0  40.5 3.5 0  41.25 3.5 0  42 3.5 0  42.75 3.5 0  43.5 3.5 0  44.25 3.5 0  45 3.5 0  45.75 3.5 0  46.5 3.5 0  47.25 3.5 0  48 3.5 0  48.75 3.5 0  49.5 3.5 0  50.25 3.5 0  51 3.5 0  51.75 3.5 0  52.5 3.5 0  53.25 3.5 0  54 3.5 0  54.75 3.5 0  55.5 3.5 0  56.25 3.5 0  57 3.5 0  57.75 3.5 0  58.5 3.5 0  59.25 3.5 0  60 3.5 0  0 4 0  0.75 4 0  1.5 4 0  2.25 4 0  3 4 0  3.75 4 0  4.5 4 0  5.25 4 0  6 4 0  6.75 4 0  7.5 4 0  8.25 4 0  9 4 0  9.75 4 0  10.5 4 0  11.25 4 0  12 4 0  12.75 4 0  13.5 4 0  14.25 4 0  15 4 0  15.75 4 0  16.5 4 0  17.25 4 0  18 4 0  18.75 4 0  19.5 4 0  20.25 4 0  21 4 0  21.75 4 0  22.5 4 0  23.25 4 0  24 4 0  24.75 4 0  25.5 4 0  26.25 4 0  27 4 0  27.75 4 0  28.5 4 0  29.25 4 0  30 4 0  30.75 4 0  31.5 4 0  32.25 4 0  33 4 0  33.75 4 0  34.5 4 0  35.25 4 0  36 4 0  36.75 4 0  37.5 4 0  38.25 4 0  39 4 0  39.75 4 0  40.5 4 0  41.25 4 0  42 4 0  42.75 4 0  43.5 4 0  44.25 4 0  45 4 0  45.75 4 0  46.5 4 0  47.25 4 0  48 4 0  48.75 4 0  49.5 4 0  50.25 4 0  51 4 0  51.75 4 0  52.5 4 0  53.25 4 0  54 4 0  54.75 4 0  55.5 4 0  56.25 4 0  57 4 0  57.75 4 0  58.5 4 0  59.25 4 0  60 4 0  0.375 0.25 0  1.125 0.25 0  1.875 0.25 0  2.625 0.25 0  3.375 0.25 0  4.125 0.25 0  4.875 0.25 0  5.625 0.25 0  6.375 0.25 0  7.125 0.25 0  7.875 0.25 0  8.625 0.25 0  9.375 0.25 0  10.125 0.25 0  10.875 0.25 0  11.625 0.25 0  12.375 0.25 0  13.125 0.25 0  13.875 0.25 0  14.625 0.25 0  15.375 0.25 0  16.125 0.25 0  16.875 0.25 0  17.625 0.25 0  18.375 0.25 0  19.125 0.25 0  19.875 0.25 0  20.625 0.25 0  21.375 0.25 0  22.125 0.25 0  22.875 0.25 0  23.625 0.25 0  24.375 0.25 0  25.125 0.25 0  25.875 0.25 0  26.625 0.25 0  27.375 0.25 0  28.125 0.25 0  28.875 0.25 0  29.625 0.25 0  30.375 0.25 0  31.125 0.25 0  31.875 0.25 0  32.625 0.25 0  33.375 0.25 0  34.125 0.25 0  34.875 0.25 0  35.625 0.25 0  36.375 0.25 0  37.125 0.25 0  37.875 0.25 0  38.625 0.25 0  39.375 0.25 0  40.125 0.25 0  40.875 0.25 0  41.625 0.25 0  42.375 0.25 0  43.125 0.25 0  43.875 0.25 0  44.625 0.25 0  45.375 0.25 0  46.125 0.25 0  46.875 0.25 0  47.625 0.25 0  48.375 0.25 0  49.125 0.25 0  49.875 0.25 0  50.625 0.25 0  51.375 0.25 0  52.125 0.25 0  52.875 0.25 0  53.625 0.25 0  54.375 0.25 0  55.125 0.25 0  55.875 0.25 0  56.625 0.25 0  57.375 0.25 0  58.125 0.25 0  58.875 0.25 0  59.625 0.25 0  0.375 0.75 0  1.125 0.75 0  1.875 0.75 0  2.625 0.75 0  3.375 0.75 0  4.125 0.75 0  4.875 0.75 0  5.625 0.75 0  6.375 0.75 0  7.125 0.75 0  7.875 0.75 0  8.625 0.75 0  9.375 0.75 0  10.125 0.75 0  10.875 0.75 0  11.625 0.75 0  12.375 0.75 0  13.125 0.75 0  13.875 0.75 0  14.625 0.75 0  15.375 0.75 0  16.125 0.75 0  16.875 0.75 0  17.625 0.75 0  18.375 0.75 0  19.125 0.75 0  19.875 0.75 0  20.625 0.75 0  21.375 0.75 0  22.125 0.75 0  22.875 0.75 0  23.625 0.75 0  24.375 0.75 0  25.125 0.75 0  25.875 0.75 0  26.625 0.75 0  27.375 0.75 0  28.125 0.75 0  28.875 0.75 0  29.625 0.75 0  30.375 0.75 0  31.125 0.75 0  31.875 0.75 0  32.625 0.75 0  33.375 0.75 0  34.125 0.75 0  34.875 0.75 0  35.625 0.75 0  36.375 0.75 0  37.125 0.75 0  37.875 0.75 0  38.625 0.75 0  39.375 0.75 0  40.125 0.75 0  40
[...]
<PointData  Vectors="f_8-0"> 
<DataArray  type="Float64"  Name="f_8-0"  NumberOfComponents="3" format="ascii">0.0000000000000000e+00 0.0000000000000000e+00 0.0000000000000000e+00  0.0000000000000000e+00 0.0000000000000000e+00 0.0000000000000000e+00  0.0000000000000000e+00 0.0000000000000000e+00 0.0000000000000000e+00  0.0000000000000000e+00 0.0000000000000000e+00 0.0000000000000000e+00  0.0000000000000000e+00 0.0000000000000000e+00 0.0000000000000000e+00  0.0000000000000000e+00 0.0000000000000000e+00 0.0000000000000000e+00  0.0000000000000000e+00 0.0000000000000000e+00 0.0000000000000000e+00  0.0000000000000000e+00 0.0000000000000000e+00 0.0000000000000000e+00  0.0000000000000000e+00 0.0000000000000000e+00 0.0000000000000000e+00  0.0000000000000000e+00 0.0000000000000000e+00 0.0000000000000000e+00  0.0000000000000000e+00 0.0000000000000000e+00 0.0000000000000000e+00  0.0000000000000000e+00 0.0000000000000000e+00 0.0000000000000000e+00  0.0000000000000000e+00 0.0000000000000000e+00 0.0000000000000000e+00  0.0000000000000000e+00 0.0000000000000000e+00 0.0000000000000000e+00  0.0000000000000000e+00 0.0000000000000000e+00 0.0000000000000000e+00  0.0000000000000000e+00 0.0000000000000000e+00 0.0000000000000000e+00  0.0000000000000000e+00 0.0000000000000000e+00 0.0000000000000000e+00  0.0000000000000000e+00 0.0000000000000000e+00 0.0000000000000000e+00  0.0000000000000000e+00 0.0000000000000000e+00 0.0000000000000000e+00  0.0000000000000000e+00 0.0000000000000000e+00 0.0000000000000000e+00  0.0000000000000000e+00 0.0000000000000000e+00 0.0000000000000000e+00  0.0000000000000000e+00 0.0000000000000000e+00 0.0000000000000000e+00  0.0000000000000000e+00 0.0000000000000000e+00 0.0000000000000000e+00  0.0000000000000000e+00 0.0000000000000000e+00 0.0000000000000000e+00  0.0000000000000000e+00 0.0000000000000000e+00 0.0000000000000000e+00  0.0000000000000000e+00 0.0000000000000000e+00 0.0000000000000000e+00  0.0000000000000000e+00 0.0000000000000000e+00 0.0000000000000000e+00  0.0000000000000000e+00 0.0000000000000000e+00 0.0000000000000000e+00  0.0000000000000000e+00 0.0000000000000000e+00 0.0000000000000000e+00  0.0000000000000000e+00 0.0000000000000000e+00 0.0000000000000000e+00  0.0000000000000000e+00 0.0000000000000000e+00 0.0000000000000000e+00  0.0000000000000000e+00 0.0000000000000000e+00 0.0000000000000000e+00  0.0000000000000000e+00 0.0000000000000000e+00 0.0000000000000000e+00  0.0000000000000000e+00 0.0000000000000000e+00 0.0000000000000000e+00  0.0000000000000000e+00 0.0000000000000000e+00 0.0000000000000000e+00  0.0000000000000000e+00 0.0000000000000000e+00 0.0000000000000000e+00  0.0000000000000000e+00 0.0000000000000000e+00 0.0000000000000000e+00  0.0000000000000000e+00 0.0000000000000000e+00 0.0000000000000000e+00  0.0000000000000000e+00 0.0000000000000000e+00 0.0000000000000000e+00  0.0000000000000000e+00 0.0000000000000000e+00 0.0000000000000000e+00  0.0000000000000000e+00 0.0000000000000000e+00 0.0000000000000000e+00  0.0000000000000000e+00 0.0000000000000000e+00 0.0000000000000000e+00  0.0000000000000000e+00 0.0000000000000000e+00 0.0000000000000000e+00  0.0000000000000000e+00 0.0000000000000000e+00 0.0000000000000000e+00  0.0000000000000000e+00 0.0000000000000000e+00 0.0000000000000000e+00  0.0000000000000000e+00 0.0000000000000000e+00 0.0000000000000000e+00  0.0000000000000000e+00 0.0000000000000000e+00 0.0000000000000000e+00  0.0000000000000000e+00 0.0000000000000000e+00 0.0000000000000000e+00  0.0000000000000000e+00 0.0000000000000000e+00 0.0000000000000000e+00  0.0000000000000000e+00 0.0000000000000000e+00 0.0000000000000000e+00  0.0000000000000000e+00 0.0000000000000000e+00 0.0000000000000000e+00  0.0000000000000000e+00 0.0000000000000000e+00 0.0000000000000000e+00  0.0000000000000000e+00 0.0000000000000000e+00 0.0000000000000000e+00  0.0000000000000000e+00 0.0000000000000000e+00 0.0000000000000000e+00  0.0000000000000000e+00 0.0000000000000000e+00 0.0000000000000000e+00  0.0000000000000000e+00 0.0000000000000000e+00 0.0000000000000000e+00  0.0000000000000000e+00 0.0000000000000000e+00 0.0000000000000000e+00  0.0000000000000000e+00 0.0000000000000000e+00 0.0000000000000000e+00  0.0000000000000000e+00 0.0000000000000000e+00 0.0000000000000000e+00  0.0000000000000000e+00 0.0000000000000000e+00 0.0000000000000000e+00  0.0000000000000000e+00 0.0000000000000000e+00 0.0000000000000000e+00  0.0000000000000000e+00 0.0000000000000000e+00 0.0000000000000000e+00  0.0000000000000000e+00 0.0000000000000000e+00 0.0000000000000000e+00  0.0000000000000000e+00 0.0000000000000000e+00 0.0000000000000000e+00  0.0000000000000000e+00 0.0000000000000000e+00 0.0000000000000000e+00  0.0000000000000000e+00 0.0000000000000000e+00 0.0000000000000000e+00  0.0000000000000000e+00 0.0000000000000000e+00 0.0000000000000000e+00  0.0000000000000000e+00 0.0000000000000000e+00 0.0000000000000000e+00  0.0000000000000000e+00 0.0000000000000000e+00 0.0000000000000000e+00  0.0000000000000000e+00 0.0000000000000000e+00 0.0000000000000000e+00  0.0000000000000000e+00 0.0000000000000000e+00 0.0000000000000000e+00  0.0000000000000000e+00 0.0000000000000000e+00 0.0000000000000000e+00  0.0000000000000000e+00 0.0000000000000000e+00 0.0000000000000000e+00  0.0000000000000000e+00 0.0000000000000000e+00 0.0000000000000000e+00  0.0000000000000000e+00 0.0000000000000000e+00 0.0000000000000000e+00  0.0000000000000000e+00 0.0000000000000000e+00 0.0000000000000000e+00  0.0000000000000000e+00 0.0000000000000000e+00 0.0000000000000000e+00  0.0000000000000000e+00 0.0000000000000000e+00 0.0000000000000000e+00  0.0000000000000000e+00 0.0000000000000000e+00 0.0000000000000000e+00  0.0000000000000000e+00 0.0000000000000000e+00 0.0000000000000000e+00  0.0000000000000000e+00 0.0000000000000000e+00 0.0000000000000000e+00  2.6416550028868826e+01 0.0000000000000000e+00 0.0000000000000000e+00  2.6409914413270318e+01 5.9024559772806184e-02 0.0000000000000000e+00  2.6429647791311041e+01 3.6761121588719727e-02 0.0000000000000000e+00  2.6404726982826833e+01 9.5483542235317142e-03 0.0000000000000000e+00  2.6397673537412533e+01 5.2623186788868619e-03 0.0000000000000000e+00  2.6398228498286173e+01 2.1626196021133281e-03 0.0000000000000000e+00  2.6398363374167097e+01 3.8665289567995859e-03 0.0000000000000000e+00  2.6399454489625892e+01 3.5709141799320204e-03 0.0000000000000000e+00  2.6399092566709214e+01 3.8464927448872942e-03 0.0000000000000000e+00  2.6399486373015215e+01 3.7806567576479269e-03 0.0000000000000000e+00  2.6399297694014134e+01 3.8187660880111187e-03 0.0000000000000000e+00  2.6399427220091415e+01 3.8077932564084022e-03 0.0000000000000000e+00  2.6399368350779664e+01 3.8141685437332179e-03 0.0000000000000000e+00  2.6399402541585648e+01 3.8121568240157733e-03 0.0000000000000000e+00  2.6399388564311064e+01 3.8134960990370650e-03 0.0000000000000000e+00  2.6399396112054664e+01 3.8130803580210914e-03 0.0000000000000000e+00  2.6399393346699810e+01 3.8133797353253371e-03 0.0000000000000000e+00  2.6399394821268398e+01 3.8132963925992516e-03 0.0000000000000000e+00  2.6399394343230664e+01 3.8133603684646217e-03 0.0000000000000000e+00  2.6399394609908324e+01 3.8133454852412232e-03 0.0000000000000000e+00  2.6399394536324060e+01 3.8133583629432338e-03 0.0000000000000000e+00  2.6399394582614764e+01 3.8133561028616788e-03 0.0000000000000000e+00  2.6399394572669927e+01 3.8133585944574817e-03 0.0000000000000000e+00  2.6399394580634212e+01 3.8133583383343130e-03 0.0000000000000000e+00  2.6399394579553075e+01 3.8133588144693186e-03 0.0000000000000000e+00  2.6399394580949867e+01 3.8133588067823035e-03 0.0000000000000000e+00  2.6399394580899035e+01 3.8133588986397535e-03 0.0000000000000000e+00  2.6399394581155821e+01 3.8133589074036329e-03 0.0000000000000000e+00  2.6399394581174210e+01 3.8133589242048361e-03 0.0000000000000000e+00  2.6399394581225319e+01 3.8133589294304924e-03 0.0000000000000000e+00  2.6399394581236045e+01 3.8133589315723828e-03 0.0000000000000000e+00  2.6399394581247776e+01 3.8133589302752212e-03 0.0000000000000000e+00  2.6399394581250998e+01 3.8133589347721887e-03 0.0000000000000000e+00  2.6399394581249453e+01 3.8133589387989060e-03 0.0000000000000000e+00  2.6399394581246366e+01 3.8133589332067066e-03 0.0000000000000000e+00  2.6399394581248174e+01 3.8133589367209254e-03 0.0000000000000000e+00  2.6399394581244351e+01 3.8133589356513877e-03 0.0000000000000000e+00  2.6399394581244781e+01 3.8133589343262659e-03 0.0000000000000000e+00  2.6399394581247229e+01 3.8133589324286206e-03 0.0000000000000000e+00  2.6399394581250515e+01 3.8133589323779849e-03 0.0000000000000000e+00  2.6399394581252846e+01 3.8133589367135199e-03 0.0000000000000000e+00  2.6399394581250952e+01 3.8133589339257364e-03 0.0000000000000000e+00  2.6399394581255848e+01 3.8133589328294614e-03 0.0000000000000000e+00  2.6399394581262143e+01 3.8133589308592241e-03 0.0000000000000000e+00  2.6399394581273508e+01 3.8133589268625093e-03 0.0000000000000000e+00  2.6399394581288586e+01 3.8133589237581648e-03 0.0000000000000000e+00  2.6399394581328792e+01 3.8133588998712819e-03 0.0000000000000000e+00  2.6399394581403605e+01 3.8133588864119276e-03 0.0000000000000000e+00  2.6399394581558202e+01 3.8133588071330633e-03 0.0000000000000000e+00  2.6399394581868389e+01 3.8133587226774940e-03 0.0000000000000000e+00  2.6399394582495269e+01 3.8133584371957663e-03 0.0000000000000000e+00  2.6399394583772786e+01 3.8133580284064588e-03 0.0000000000000000e+00  2.6399394586317115e+01 3.8133569783364795e-03 0.0000000000000000e+00  2.6399394591484079e+01 3.8133551979012510e-03 0.0000000000000000e+00  2.6399394601719354e+01 3.8133512223334949e-03 0.0000000000000000e+00  2.6399394622330721e+01 3.8133438265713967e-03 0.0000000000000000e+00  2.6399394663126230e+01 3.8133283254366203e-03 0.0000000000000000e+00  2.6399394744922994e+01 3.8132979521768020e-03 0.0000000000000000e+00  2.6399394907554626e+01 3.8132351609228119e-03 0.0000000000000000e+00  2.6399395235566104e+01 3.8131065352545535e-03 0.0000000000000000e+00  2.6399395900457616e+01 3.8128328896371759e-03 0.0000000000000000e+00  2.6399397283216945e+01 3.8122369023597929e-03 0.0000000000000000e+00  2.6399400237524627e+01 3.8108922543293139e-03 0.0000000000000000e+00  2.6399406807254604e+01 3.8078009174968017e-03 0.0000000000000000e+00  2.6399421862205255e+01 3.8007122771229651e-03 0.0000000000000000e+00  2.6399456822169554e+01 3.7849913629020913e-03 0.0000000000000000e+00  2.6399536506114508e+01 3.7523633958867994e-03 0.0000000000000000e+00  2.6399709460421427e+01 3.6910371694796160e-03 0.0000000000000000e+00  2.6400056015452716e+01 3.5909506927162675e-03 0.0000000000000000e+00  2.6400678827385512e+01 3.4575858590162370e-03 0.0000000000000000e+00  2.6401650424811663e+01 3.3297200441620490e-03 0.0000000000000000e+00  2.6402921634136455e+01 3.2737722533690457e-03 0.0000000000000000e+00  2.6404274662256988e+01 3.3339349035672590e-03 0.0000000000000000e+00  2.6405432314040269e+01 3.4951245682120621e-03 0.0000000000000000e+00  2.6406178816410986e+01 3.7560830845721747e-03 0.0000000000000000e+00  2.6406251186125481e+01 4.1892745953204533e-03 0.0000000000000000e+00  2.6405177557286645e+01 4.8779496946611753e-03 0.0000000000000000e+00  2.6402190645701413e+01 5.8268956790414727e-03 0.0000000000000000e+00  2.6395751706464786e+01 6.6365721326868497e-03 0.0000000000000000e+00  2.6380824812874547e+01 4.9451353691395616e-03 0.0000000000000000e+00  2.6362985612090963e+01 0.0000000000000000e+00 0.0000000000000000e+00  2.7768785157327805e+01 0.0000000000000000e+00 0.0000000000000000e+00  2.7706337119905388e+01 -1.4425897165340386e-02 0.0000000000000000e+00  2.7750343485749568e+01 8.3783293957284087e-03 0.0000000000000000e+00  2.7768892885334527e+01 5.0285256641537743e-03 0.0000000000000000e+00  2.7779117213734562e+01 1.3456208988656352e-03 0.0000000000000000e+00  2.7777333259412664e+01 -4.8469925539993422e-04 0.0000000000000000e+00  2.7777949447717468e+01 2.2600157627546290e-04 0.0000000000000000e+00  2.7777582329310512e+01 2.4409828637916148e-04 0.0000000000000000e+00  2.7777927767651232e+01 5.9940609999627507e-04 0.0000000000000000e+00  2.7777777086155265e+01 5.0642158064043900e-04 0.0000000000000000e+00  2.7777914435285659e+01 6.0424045333469121e-04 0.0000000000000000e+00  2.7777851767422753e+01 5.7102106716764277e-04 0.0000000000000000e+00  2.7777896307158830e+01 5.9437370746792889e-04 0.0000000000000000e+00  2.7777877293438422e+01 5.8710556410123847e-04 0.0000000000000000e+00  2.7777889100755289e+01 5.9191870915039778e-04 0.0000000000000000e+00  2.7777884541389785e+01 5.9071627066096979e-04 0.0000000000000000e+00  2.7777887213971891e+01 5.9161691628873054e-04 0.0000000000000000e+00  2.7777886293873891e+01 5.9146651278614809e-04 0.0000000000000000e+00  2.7777886835047976e+01 5.9162834707703158e-04 0.0000000000000000e+00  2.7777886673134176e+01 5.9161839186091668e-04 0.0000000000000000e+00  2.7777886775076826e+01 5.9164772993178607e-04 0.0000000000000000e+00  2.7777886749995432e+01 5.9164956242466985e-04 0.0000000000000000e+00  2.7777886768469379e+01 5.9165513832819239e-04 0.0000000000000000e+00  2.7777886765165778e+01 5.9165620645603009e-04 0.0000000000000000e+00  2.7777886768477757e+01 5.9165733675561004e-04 0.0000000000000000e+00  2.7777886768160819e+01 5.9165767799933679e-04 0.0000000000000000e+00  2.7777886768765086e+01 5.9165792397092819e-04 0.0000000000000000e+00  2.7777886768768962e+01 5.9165801868800558e-04 0.0000000000000000e+00  2.7777886768881284e+01 5.9165807130243293e-04 0.0000000000000000e+00  2.7777886768894735e+01 5.9165809774101353e-04 0.0000000000000000e+00  2.7777886768916002e+01 5.9165810395793558e-04 0.0000000000000000e+00  2.7777886768923040e+01 5.9165811094012656e-04 0.0000000000000000e+00  2.7777886768934710e+01 5.9165812335825547e-04 0.0000000000000000e+00  2.7777886768934081e+01 5.9165812778435038e-04 0.0000000000000000e+00  2.7777886768926574e+01 5.9165811878881744e-04 0.0000000000000000e+00  2.7777886768928365e+01 5.9165812646428924e-04 0.0000000000000000e+00  2.7777886768924446e+01 5.9165812187134017e-04 0.0000000000000000e+00  2.7777886768922659e+01 5.9165811902232618e-04 0.0000000000000000e+00  2.7777886768920318e+01 5.9165811576981052e-04 0.0000000000000000e+00  2.7777886768925026e+01 5.9165811686817205e-04 0.0000000000000000e+00  2.7777886768930802e+01 5.9165812290016011e-04 0.0000000000000000e+00  2.7777886768926567e+01 5.9165811720412965e-04 0.0000000000000000e+00  2.7777886768926628e+01 5.9165811568069821e-04 0.0000000000000000e+00  2.7777886768931108e+01 5.9165810950183024e-04 0.0000000000000000e+00  2.7777886768937243e+01 5.9165811012731461e-04 0.0000000000000000e+00  2.7777886768939403e+01 5.9165809547702408e-04 0.0000000000000000e+00  2.7777886768944260e+01 5.9165806517584259e-04 0.0000000000000000e+00  2.7777886768957497e+01 5.9165802758975124e-04 0.0000000000000000e+00  2.7777886768982700e+01 5.9165789792619628e-04 0.0000000000000000e+00  2.7777886769027528e+01 5.9165772852216099e-04 0.0000000000000000e+00  2.7777886769135733e+01 5.9165722754524143e-04 0.0000000000000000e+00  2.7777886769329204e+01 5.9165647659150647e-04 0.0000000000000000e+00  2.7777886769782892e+01 5.9165455943808705e-04 0.0000000000000000e+00  2.7777886770608578e+01 5.9165136462560695e-04 0.0000000000000000e+00  2.7777886772448948e+01 5.9164401825299244e-04 0.0000000000000000e+00  2.7777886775872432e+01 5.9163077554212379e-04 0.0000000000000000e+00  2.7777886783099898e+01 5.9160222031294908e-04 0.0000000000000000e+00  2.7777886796679454e+01 5.9154799608543635e-04 0.0000000000000000e+00  2.7777886823846860e+01 5.9143408079615791e-04 0.0000000000000000e+00  2.7777886873623604e+01 5.9120796923219955e-04 0.0000000000000000e+00  2.7777886964883223e+01 5.9072841299665565e-04 0.0000000000000000e+00  2.7777887113013005e+01 5.8971962630499359e-04 0.0000000000000000e+00  2.7777887333670932e+01 5.8747265515219857e-04 0.0000000000000000e+00  2.7777887618953805e+01 5.8238369417174516e-04 0.0000000000000000e+00  2.7777888123897799e+01 5.7053607414851639e-04 0.0000000000000000e+00  2.7777889925623683e+01 5.4343529970819738e-04 0.0000000000000000e+00  2.7777897853284387e+01 4.8397164568604584e-04 0.0000000000000000e+00  2.7777927315576889e+01 3.6393096991273676e-04 0.0000000000000000e+00  2.7778017120130510e+01 1.4860198650383654e-04 0.0000000000000000e+00  2.7778240432240658e+01 -1.7418466371869160e-04 0.0000000000000000e+00  2.7778684232761982e+01 -5.3721105864668734e-04 0.0000000000000000e+00  2.7779360828628125e+01 -7.6266963403346679e-04 0.0000000000000000e+00  2.7780135163115226e+01 -6.9844777535340696e-04 0.0000000000000000e+00  2.7780862552772120e+01 -3.9929792566389694e-04 0.0000000000000000e+00  2.7781541781627755e+01 7.1329185819336719e-05 0.0000000000000000e+00  2.7782152155546910e+01 8.7800181448207120e-04 0.0000000000000000e+00  2.7782617907192595e+01 2.2050481202415266e-03 0.0000000000000000e+00  2.7782816005198768e+01 4.2925548165694358e-03 0.0000000000000000e+00  2.7782475505925099e+01 7.3623342203427977e-03 0.0000000000000000e+00  2.7782201275856767e+01 1.1035616187290117e-02 0.0000000000000000e+00  2.7785714997894097e+01 0.0000000000000000e+00 0.0000000000000000e+00  2.5042871689939517e+01 0.0000000000000000e+00 0.0000000000000000e+00  2.5037365250154565e+01 1.3501628906232987e-03 0.0000000000000000e+00  2.5034664483024685e+01 -6.5381383963894956e-03 0.0000000000000000e+00  2.5036513133182591e+01 -8.1994129494905620e-04 0.0000000000000000e+00  2.5035303801986924e+01 -2.1835667129520829e-03 0.0000000000000000e+00  2.5036405815757181e+01 -1.9414340938550621e-03 0.0000000000000000e+00  2.5034963508684235e+01 -2.0068334553253100e-03 0.0000000000000000e+00  2.5035105484896420e+01 -1.6603612579120170e-03 0.0000000000000000e+00  2.5034743369023197e+01 -1.6706449494840560e-03 0.0000000000000000e+00  2.5034827256341885e+01 -1.5598870230010651e-03 0.0000000000000000e+00  2.5034734709975051e+01 -1.5847854562896242e-03 0.0000000000000000e+00  2.5034763421103104e+01 -1.5540849330401394e-03 0.0000000000000000e+00  2.5034738743184768e+01 -1.5626915418519092e-03 0.0000000000000000e+00  2.5034746490340996e+01 -1.5550173152601410e-03 0.0000000000000000e+00  2.5034740317302653e+01 -1.5569541048754229e-03 0.0000000000000000e+00  2.5034742083522488e+01 -1.5552482770926240e-03 0.0000000000000000e+00  2.5034740669424504e+01 -1.5555769753958547e-03 0.0000000000000000e+00  2.5034741015202453e+01 -1.5552278984607198e-03 0.0000000000000000e+00  2.5034740714966713e+01 -1.5552677634338989e-03 0.0000000000000000e+00  2.5034740772694811e+01 -1.5551991749410924e-03 0.0000000000000000e+00  2.5034740712223769e+01 -1.5552005574487068e-03 0.0000000000000000e+00  2.5034740719955767e+01 -1.5551871321857857e-03 0.0000000000000000e+00  2.5034740708096887e+01 -1.5551860051178782e-03 0.0000000000000000e+00  2.5034740708684488e+01 -1.5551832989795539e-03 0.0000000000000000e+00  2.5034740706364403e+01 -1.5551827851235025e-03 0.0000000000000000e+00  2.5034740706263729e+01 -1.5551822223865432e-03 0.0000000000000000e+00  2.5034740705801646e+01 -1.5551820611807829e-03 0.0000000000000000e+00  2.5034740705735455e+01 -1.5551819373914406e-03 0.0000000000000000e+00  2.5034740705638967e+01 -1.5551818979604539e-03 0.0000000000000000e+00  2.5034740705616599e+01 -1.5551818648002302e-03 0.0000000000000000e+00  2.5034740705594956e+01 -1.5551818591753449e-03 0.0000000000000000e+00  2.5034740705587851e+01 -1.5551818562591154e-03 0.0000000000000000e+00  2.5034740705583349e+01 -1.5551818465119281e-03 0.0000000000000000e+00  2.5034740705584603e+01 -1.5551818343840361e-03 0.0000000000000000e+00  2.5034740705584358e+01 -1.5551818452579854e-03 0.0000000000000000e+00  2.5034740705581189e+01 -1.5551818395494819e-03 0.0000000000000000e+00  2.5034740705581907e+01 -1.5551818411817257e-03 0.0000000000000000e+00  2.5034740705580415e+01 -1.5551818447340695e-03 0.0000000000000000e+00  2.5034740705579424e+01 -1.5551818472337396e-03 0.0000000000000000e+00  2.5034740705577480e+01 -1.5551818521604682e-03 0.0000000000000000e+00  2.5034740705577992e+01 -1.555181841