<?xml version="1.0"?>
<VTKFile type="UnstructuredGrid"  version="0.1"  >
<UnstructuredGrid>
<Piece  NumberOfPoints="1369" NumberOfCells="2560">
<Points>
<DataArray  type="Float64"  NumberOfComponents="3"  format="ascii">0 0 0  0.75 0 0  1.5 0 0  2.25 0 0  3 0 0  3.75 0 0  4.5 0 0  5.25 0 0  6 0 0  6.75 0 0  7.5 0 0  8.25 0 0  9 0 0  9.75 0 0  10.5 0 0  11.25 0 0  12 0 0  12.75 0 0  13.5 0 0  14.25 0 0  15 0 0  15.75 0 0  16.5 0 0  17.25 0 0  18 0 0  18.75 0 0  19.5 0 0  20.25 0 0  21 0 0  21.75 0 0  22.5 0 0  23.25 0 0  24 0 0  24.75 0 0  25.5 0 0  26.25 0 0  27 0 0  27.75 0 0  28.5 0 0  29.25 0 0  30 0 0  30.75 0 0  31.5 0 0  32.25 0 0  33 0 0  33.75 0 0  34.5 0 0  35.25 0 0  36 0 0  36.75 0 0  37.5 0 0  38.25 0 0  39 0 0  39.75 0 0  40.5 0 0  41.25 0 0  42 0 0  42.75 0 0  43.5 0 0  44.25 0 0  45 0 0  45.75 0 0  46.5 0 0  47.25 0 0  48 0 0  48.75 0 0  49.5 0 0  50.25 0 0  51 0 0  51.75 0 0  52.5 0 0  53.25 0 0  54 0 0  54.75 0 0  55.5 0 0  56.25 0 0  57 0 0  57.75 0 0  58.5 0 0  59.25 0 0  60 0 0  0 0.5 0  0.75 0.5 0  1.5 0.5 0  2.25 0.5 0  3 0.5 0  3.75 0.5 0  4.5 0.5 0  5.25 0.5 0  6 0.5 0  6.75 0.5 0  7.5 0.5 0  8.25 0.5 0  9 0.5 0  9.75 0.5 0  10.5 0.5 0  11.25 0.5 0  12 0.5 0  12.75 0.5 0  13.5 0.5 0  14.25 0.5 0  15 0.5 0  15.75 0.5 0  16.5 0.5 0  17.25 0.5 0  18 0.5 0  18.75 0.5 0  19.5 0.5 0  20.25 0.5 0  21 0.5 0  21.75 0.5 0  22.5 0.5 0  23.25 0.5 0  24 0.5 0  24.75 0.5 0  25.5 0.5 0  26.25 0.5 0  27 0.5 0  27.75 0.5 0  28.5 0.5 0  29.25 0.5 0  30 0.5 0  30.75 0.5 0  31.5 0.5 0  32.25 0.5 0  33 0.5 0  33.75 0.5 0  34.5 0.5 0  35.25 0.5 0  36 0.5 0  36.75 0.5 0  37.5 0.5 0  38.25 0.5 0  39 0.5 0  39.75 0.5 0  40.5 0.5 0  41.25 0.5 0  42 0.5 0  42.75 0.5 0  43.5 0.5 0  44.25 0.5 0  45 0.5 0  45.75 0.5 0  46.5 0.5 0  47.25 0.5 0  48 0.5 0  48.75 0.5 0  49.5 0.5 0  50.25 0.5 0  51 0.5 0  51.75 0.5 0  52.5 0.5 0  53.25 0.5 0  54 0.5 0  54.75 0.5 0  55.5 0.5 0  56.25 0.5 0  57 0.5 0  57.75 0.5 0  58.5 0.5 0  59.25 0.5 0  60 0.5 0  0 1 0  0.75 1 0  1.5 1 0  2.25 1 0  3 1 0  3.75 1 0  4.5 1 0  5.25 1 0  6 1 0  6.75 1 0  7.5 1 0  8.25 1 0  9 1 0  9.75 1 0  10.5 1 0  11.25 1 0  12 1 0  12.75 1 0  13.5 1 0  14.25 1 0  15 1 0  15.75 1 0  16.5 1 0  17.25 1 0  18 1 0  18.75 1 0  19.5 1 0  20.25 1 0  21 1 0  21.75 1 0  22.5 1 0  23.25 1 0  24 1 0  24.75 1 0  25.5 1 0  26.25 1 0  27 1 0  27.75 1 0  28.5 1 0  29.25 1 0  30 1 0  30.75 1 0  31.5 1 0  32.25 1 0  33 1 0  33.75 1 0  34.5 1 0  35.25 1 0  36 1 0  36.75 1 0  37.5 1 0  38.25 1 0  39 1 0  39.75 1 0  40.5 1 0  41.25 1 0  42 1 0  42.75 1 0  43.5 1 0  44.25 1 0  45 1 0  45.75 1 0  46.5 1 0  47.25 1 0  48 1 0  48.75 1 0  49.5 1 0  50.25 1 0  51 1 0  51.75 1 0  52.5 1 0  53.25 1 0  54 1 0  54.75 1 0  55.5 1 0  56.25 1 0  57 1 0  57.75 1 0  58.5 1 0  59.25 1 0  60 1 0  0 1.5 0  0.75 1.5 0  1.5 1.5 0  2.25 1.5 0  3 1.5 0  3.75 1.5 0  4.5 1.5 0  5.25 1.5 0  6 1.5 0  6.75 1.5 0  7.5 1.5 0  8.25 1.5 0  9 1.5 0  9.75 1.5 0  10.5 1.5 0  11.25 1.5 0  12 1.5 0  12.75 1.5 0  13.5 1.5 0  14.25 1.5 0  15 1.5 0  15.75 1.5 0  16.5 1.5 0  17.25 1.5 0  18 1.5 0  18.75 1.5 0  19.5 1.5 0  20.25 1.5 0  21 1.5 0  21.75 1.5 0  22.5 1.5 0  23.25 1.5 0  24 1.5 0  24.75 1.5 0  25.5 1.5 0  26.25 1.5 0  27 1.5 0  27.75 1.5 0  28.5 1.5 0  29.25 1.5 0  30 1.5 0  30.75 1.5 0  31.5 1.5 0  32.25 1.5 0  33 1.5 0  33.75 1.5 0  34.5 1.5 0  35.25 1.5 0  36 1.5 0  36.75 1.5 0  37.5 1.5 0  38.25 1.5 0  39 1.5 0  39.75 1.5 0  40.5 1.5 0  41.25 1.5 0  42 1.5 0  42.75 1.5 0  43.5 1.5 0  44.25 1.5 0  45 1.5 0  45.75 1.5 0  46.5 1.5 0  47.25 1.5 0  48 1.5 0  48.75 1.5 0  49.5 1.5 0  50.25 1.5 0  51 1.5 0  51.75 1.5 0  52.5 1.5 0  53.25 1.5 0  54 1.5 0  54.75 1.5 0  55.5 1.5 0  56.25 1.5 0  57 1.5 0  57.75 1.5 0  58.5 1.5 0  59.25 1.5 0  60 1.5 0  0 2 0  0.75 2 0  1.5 2 0  2.25 2 0  3 2 0  3.75 2 0  4.5 2 0  5.25 2 0  6 2 0  6.75 2 0  7.5 2 0  8.25 2 0  9 2 0  9.75 2 0  10.5 2 0  11.25 2 0  12 2 0  12.75 2 0  13.5 2 0  14.25 2 0  15 2 0  15.75 2 0  16.5 2 0  17.25 2 0  18 2 0  18.75 2 0  19.5 2 0  20.25 2 0  21 2 0  21.75 2 0  22.5 2 0  23.25 2 0  24 2 0  24.75 2 0  25.5 2 0  26.25 2 0  27 2 0  27.75 2 0  28.5 2 0  29.25 2 0  30 2 0  30.75 2 0  31.5 2 0  32.25 2 0  33 2 0  33.75 2 0  34.5 2 0  35.25 2 0  36 2 0  36.75 2 0  37.5 2 0  38.25 2 0  39 2 0  39.75 2 0  40.5 2 0  41.25 2 0  42 2 0  42.75 2 0  43.5 2 0  44.25 2 0  45 2 0  45.75 2 0  46.5 2 0  47.25 2 0  48 2 0  48.75 2 0  49.5 2 0  50.25 2 0  51 2 0  51.75 2 0  52.5 2 0  53.25 2 0  54 2 0  54.75 2 0  55.5 2 0  56.25 2 0  57 2 0  57.75 2 0  58.5 2 0  59.25 2 0  60 2 0  0 2.5 0  0.75 2.5 0  1.5 2.5 0  2.25 2.5 0  3 2.5 0  3.75 2.5 0  4.5 2.5 0  5.25 2.5 0  6 2.5 0  6.75 2.5 0  7.5 2.5 0  8.25 2.5 0  9 2.5 0  9.75 2.5 0  10.5 2.5 0  11.25 2.5 0  12 2.5 0  12.75 2.5 0  13.5 2.5 0  14.25 2.5 0  15 2.5 0  15.75 2.5 0  16.5 2.5 0  17.25 2.5 0  18 2.5 0  18.75 2.5 0  19.5 2.5 0  20.25 2.5 0  21 2.5 0  21.75 2.5 0  22.5 2.5 0  23.25 2.5 0  24 2.5 0  24.75 2.5 0  25.5 2.5 0  26.25 2.5 0  27 2.5 0  27.75 2.5 0  28.5 2.5 0  29.25 2.5 0  30 2.5 0  30.75 2.5 0  31.5 2.5 0  32.25 2.5 0  33 2.5 0  33.75 2.5 0  34.5 2.5 0  35.25 2.5 0  36 2.5 0  36.75 2.5 0  37.5 2.5 0  38.25 2.5 0  39 2.5 0  39.75 2.5 0  40.5 2.5 0  41.25 2.5 0  42 2.5 0  42.75 2.5 0  43.5 2.5 0  44.25 2.5 0  45 2.5 0  45.75 2.5 0  46.5 2.5 0  47.25 2.5 0  48 2.5 0  48.75 2.5 0  49.5 2.5 0  50.25 2.5 0  51 2.5 0  51.75 2.5 0  52.5 2.5 0  53.25 2.5 0  54 2.5 0  54.75 2.5 0  55.5 2.5 0  56.25 2.5 0  57 2.5 0  57.75 2.5 0  58.5 2.5 0  59.25 2.5 0  60 2.5 0  0 3 0  0.75 3 0  1.5 3 0  2.25 3 0  3 3 0  3.75 3 0  4.5 3 0  5.25 3 0  6 3 0  6.75 3 0  7.5 3 0  8.25 3 0  9 3 0  9.75 3 0  10.5 3 0  11.25 3 0  12 3 0  12.75 3 0  13.5 3 0  14.25 3 0  15 3 0  15.75 3 0  16.5 3 0  17.25 3 0  18 3 0  18.75 3 0  19.5 3 0  20.25 3 0  21 3 0  21.75 3 0  22.5 3 0  23.25 3 0  24 3 0  24.75 3 0  25.5 3 0  26.25 3 0  27 3 0  27.75 3 0  28.5 3 0  29.25 3 0  30 3 0  30.75 3 0  31.5 3 0  32.25 3 0  33 3 0  33.75 3 0  34.5 3 0  35.25 3 0  36 3 0  36.75 3 0  37.5 3 0  38.25 3 0  39 3 0  39.75 3 0  40.5 3 0  41.25 3 0  42 3 0  42.75 3 0  43.5 3 0  44.25 3 0  45 3 0  45.75 3 0  46.5 3 0  47.25 3 0  48 3 0  48.75 3 0  49.5 3 0  50.25 3 0  51 3 0  51.75 3 0  52.5 3 0  53.25 3 0  54 3 0  54.75 3 0  55.5 3 0  56.25 3 0  57 3 0  57.75 3 0  58.5 3 0  59.25 3 0  60 3 0  0 3.5 0  0.75 3.5 0  1.5 3.5 0  2.25 3.5 0  3 3.5 0  3.75 3.5 0  4.5 3.5 0  5.25 3.5 0  6 3.5 0  6.75 3.5 0  7.5 3.5 0  8.25 3.5 0  9 3.5 0  9.75 3.5 0  10.5 3.5 0  11.25 3.5 0  12 3.5 0  12.75 3.5 0  13.5 3.5 0  14.25 3.5 0  15 3.5 0  15.75 3.5 0  16.5 3.5 0  17.25 3.5 0  18 3.5 0  18.75 3.5 0  19.5 3.5 0  20.25 3.5 0  21 3.5 0  21.75 3.5 0  22.5 3.5 0  23.25 3.5 0  24 3.5 0  24.75 3.5 0  25.5 3.5 0  26.25 3.5 0  27 3.5 0  27.75 3.5 0  28.5 3.5 0  29.25 3.5 0  30 3.5 0  30.75 3.5 0  31.5 3.5 0  32.25 3.5 0  33 3.5 0  33.75 3.5 0  34.5 3.5 0  35.25 3.5 0  36 3.5 0  36.75 3.5 0  37.5 3.5 0  38.25 3.5 0  39 3.5 0  39.75 3.5 0  40.5 3.5 0  41.25 3.5 0  42 3.5 0  42.75 3.5 0  43.5 3.5 0  44.25 3.5 0  45 3.5 0  45.75 3.5 0  46.5 3.5 0  47.25 3.5 0  48 3.5 0  48.75 3.5 0  49.5 3.5 0  50.25 3.5 0  51 3.5 0  51.75 3.5 0  52.5 3.5 0  53.25 3.5 0  54 3.5 0  54.75 3.5 0  55.5 3.5 0  56.25 3.5 0  57 3.5 0  57.75 3.5 0  58.5 3.5 0  59.25 3.5 0  60 3.5 0  0 4 0  0.75 4 0  1.5 4 0  2.25 4 0  3 4 0  3.75 4 0  4.5 4 0  5.25 4 0  6 4 0  6.75 4 0  7.5 4 0  8.25 4 0  9 4 0  9.75 4 0  10.5 4 0  11.25 4 0  12 4 0  12.75 4 0  13.5 4 0  14.25 4 0  15 4 0  15.75 4 0  16.5 4 0  17.25 4 0  18 4 0  18.75 4 0  19.5 4 0  20.25 4 0  21 4 0  21.75 4 0  22.5 4 0  23.25 4 0  24 4 0  24.75 4 0  25.5 4 0  26.25 4 0  27 4 0  27.75 4 0  28.5 4 0  29.25 4 0  30 4 0  30.75 4 0  31.5 4 0  32.25 4 0  33 4 0  33.75 4 0  34.5 4 0  35.25 4 0  36 4 0  36.75 4 0  37.5 4 0  38.25 4 0  39 4 0  39.75 4 0  40.5 4 0  41.25 4 0  42 4 0  42.75 4 0  43.5 4 0  44.25 4 0  45 4 0  45.75 4 0  46.5 4 0  47.25 4 0  48 4 0  48.75 4 0  49.5 4 0  50.25 4 0  51 4 0  51.75 4 0  52.5 4 0  53.25 4 0  54 4 0  54.75 4 0  55.5 4 0  56.25 4 0  57 4 0  57.75 4 0  58.5 4 0  59.25 4 0  60 4 0  0.375 0.25 0  1.125 0.25 0  1.875 0.25 0  2.625 0.25 0  3.375 0.25 0  4.125 0.25 0  4.875 0.25 0  5.625 0.25 0  6.375 0.25 0  7.125 0.25 0  7.875 0.25 0  8.625 0.25 0  9.375 0.25 0  10.125 0.25 0  10.875 0.25 0  11.625 0.25 0  12.375 0.25 0  13.125 0.25 0  13.875 0.25 0  14.625 0.25 0  15.375 0.25 0  16.125 0.25 0  16.875 0.25 0  17.625 0.25 0  18.375 0.25 0  19.125 0.25 0  19.875 0.25 0  20.625 0.25 0  21.375 0.25 0  22.125 0.25 0  22.875 0.25 0  23.625 0.25 0  24.375 0.25 0  25.125 0.25 0  25.875 0.25 0  26.625 0.25 0  27.375 0.25 0  28.125 0.25 0  28.875 0.25 0  29.625 0.25 0  30.375 0.25 0  31.125 0.25 0  31.875 0.25 0  32.625 0.25 0  33.375 0.25 0  34.125 0.25 0  34.875 0.25 0  35.625 0.25 0  36.375 0.25 0  37.125 0.25 0  37.875 0.25 0  38.625 0.25 0  39.375 0.25 0  40.125 0.25 0  40.875 0.25 0  41.625 0.25 0  42.375 0.25 0  43.125 0.25 0  43.875 0.25 0  44.625 0.25 0  45.375 0.25 0  46.125 0.25 0  46.875 0.25 0  47.625 0.25 0  48.375 0.25 0  49.125 0.25 0  49.875 0.25 0  50.625 0.25 0  51.375 0.25 0  52.125 0.25 0  52.875 0.25 0  53.625 0.25 0  54.375 0.25 0  55.125 0.25 0  55.875 0.25 0  56.625 0.25 0  57.375 0.25 0  58.125 0.25 0  58.875 0.25 0  59.625 0.25 0  0.375 0.75 0  1.125 0.75 0  1.875 0.75 0  2.625 0.75 0  3.375 0.75 0  4.125 0.75 0  4.875 0.75 0  5.625 0.75 0  6.375 0.75 0  7.125 0.75 0  7.875 0.75 0  8.625 0.75 0  9.375 0.75 0  10.125 0.75 0  10.875 0.75 0  11.625 0.75 0  12.375 0.75 0  13.125 0.75 0  13.875 0.75 0  14.625 0.75 0  15.375 0.75 0  16.125 0.75 0  16.875 0.75 0  17.625 0.75 0  18.375 0.75 0  19.125 0.75 0  19.875 0.75 0  20.625 0.75 0  21.375 0.75 0  22.125 0.75 0  22.875 0.75 0  23.625 0.75 0  24.375 0.75 0  25.125 0.75 0  25.875 0.75 0  26.625 0.75 0  27.375 0.75 0  28.125 0.75 0  28.875 0.75 0  29.625 0.75 0  30.375 0.75 0  31.125 0.75 0  31.875 0.75 0  32.625 0.75 0  33.375 0.75 0  34.125 0.75 0  34.875 0.75 0  35.625 0.75 0  36.375 0.75 0  37.125 0.75 0  37.875 0.75 0  38.625 0.75 0  39.375 0.75 0  40.125 0.75 0  40
[...]
<PointData  Vectors="f_8-0"> 
<DataArray  type="Float64"  Name="f_8-0"  NumberOfComponents="3" format="ascii">0.0000000000000000e+00 0.0000000000000000e+00 0.0000000000000000e+00  0.0000000000000000e+00 0.0000000000000000e+00 0.0000000000000000e+00  0.0000000000000000e+00 0.0000000000000000e+00 0.0000000000000000e+00  0.0000000000000000e+00 0.0000000000000000e+00 0.0000000000000000e+00  0.0000000000000000e+00 0.0000000000000000e+00 0.0000000000000000e+00  0.0000000000000000e+00 0.0000000000000000e+00 0.0000000000000000e+00  0.0000000000000000e+00 0.0000000000000000e+00 0.0000000000000000e+00  0.0000000000000000e+00 0.0000000000000000e+00 0.0000000000000000e+00  0.0000000000000000e+00 0.0000000000000000e+00 0.0000000000000000e+00  0.0000000000000000e+00 0.0000000000000000e+00 0.0000000000000000e+00  0.0000000000000000e+00 0.0000000000000000e+00 0.0000000000000000e+00  0.0000000000000000e+00 0.0000000000000000e+00 0.0000000000000000e+00  0.0000000000000000e+00 0.0000000000000000e+00 0.0000000000000000e+00  0.0000000000000000e+00 0.0000000000000000e+00 0.0000000000000000e+00  0.0000000000000000e+00 0.0000000000000000e+00 0.0000000000000000e+00  0.0000000000000000e+00 0.0000000000000000e+00 0.0000000000000000e+00  0.0000000000000000e+00 0.0000000000000000e+00 0.0000000000000000e+00  0.0000000000000000e+00 0.0000000000000000e+00 0.0000000000000000e+00  0.0000000000000000e+00 0.0000000000000000e+00 0.0000000000000000e+00  0.0000000000000000e+00 0.0000000000000000e+00 0.0000000000000000e+00  0.0000000000000000e+00 0.0000000000000000e+00 0.0000000000000000e+00  0.0000000000000000e+00 0.0000000000000000e+00 0.0000000000000000e+00  0.0000000000000000e+00 0.0000000000000000e+00 0.0000000000000000e+00  0.0000000000000000e+00 0.0000000000000000e+00 0.0000000000000000e+00  0.0000000000000000e+00 0.0000000000000000e+00 0.0000000000000000e+00  0.0000000000000000e+00 0.0000000000000000e+00 0.0000000000000000e+00  0.0000000000000000e+00 0.0000000000000000e+00 0.0000000000000000e+00  0.0000000000000000e+00 0.0000000000000000e+00 0.0000000000000000e+00  0.0000000000000000e+00 0.0000000000000000e+00 0.0000000000000000e+00  0.0000000000000000e+00 0.0000000000000000e+00 0.0000000000000000e+00  0.0000000000000000e+00 0.0000000000000000e+00 0.0000000000000000e+00  0.0000000000000000e+00 0.0000000000000000e+00 0.0000000000000000e+00  0.0000000000000000e+00 0.0000000000000000e+00 0.0000000000000000e+00  0.0000000000000000e+00 0.0000000000000000e+00 0.0000000000000000e+00  0.0000000000000000e+00 0.0000000000000000e+00 0.0000000000000000e+00  0.0000000000000000e+00 0.0000000000000000e+00 0.0000000000000000e+00  0.0000000000000000e+00 0.0000000000000000e+00 0.0000000000000000e+00  0.0000000000000000e+00 0.0000000000000000e+00 0.0000000000000000e+00  0.0000000000000000e+00 0.0000000000000000e+00 0.0000000000000000e+00  0.0000000000000000e+00 0.0000000000000000e+00 0.0000000000000000e+00  0.0000000000000000e+00 0.0000000000000000e+00 0.0000000000000000e+00  0.0000000000000000e+00 0.0000000000000000e+00 0.0000000000000000e+00  0.0000000000000000e+00 0.0000000000000000e+00 0.0000000000000000e+00  0.0000000000000000e+00 0.0000000000000000e+00 0.0000000000000000e+00  0.0000000000000000e+00 0.0000000000000000e+00 0.0000000000000000e+00  0.0000000000000000e+00 0.0000000000000000e+00 0.0000000000000000e+00  0.0000000000000000e+00 0.0000000000000000e+00 0.0000000000000000e+00  0.0000000000000000e+00 0.0000000000000000e+00 0.0000000000000000e+00  0.0000000000000000e+00 0.0000000000000000e+00 0.0000000000000000e+00  0.0000000000000000e+00 0.0000000000000000e+00 0.0000000000000000e+00  0.0000000000000000e+00 0.0000000000000000e+00 0.0000000000000000e+00  0.0000000000000000e+00 0.0000000000000000e+00 0.0000000000000000e+00  0.0000000000000000e+00 0.0000000000000000e+00 0.0000000000000000e+00  0.0000000000000000e+00 0.0000000000000000e+00 0.0000000000000000e+00  0.0000000000000000e+00 0.0000000000000000e+00 0.0000000000000000e+00  0.0000000000000000e+00 0.0000000000000000e+00 0.0000000000000000e+00  0.0000000000000000e+00 0.0000000000000000e+00 0.0000000000000000e+00  0.0000000000000000e+00 0.0000000000000000e+00 0.0000000000000000e+00  0.0000000000000000e+00 0.0000000000000000e+00 0.0000000000000000e+00  0.0000000000000000e+00 0.0000000000000000e+00 0.0000000000000000e+00  0.0000000000000000e+00 0.0000000000000000e+00 0.0000000000000000e+00  0.0000000000000000e+00 0.0000000000000000e+00 0.0000000000000000e+00  0.0000000000000000e+00 0.0000000000000000e+00 0.0000000000000000e+00  0.0000000000000000e+00 0.0000000000000000e+00 0.0000000000000000e+00  0.0000000000000000e+00 0.0000000000000000e+00 0.0000000000000000e+00  0.0000000000000000e+00 0.0000000000000000e+00 0.0000000000000000e+00  0.0000000000000000e+00 0.0000000000000000e+00 0.0000000000000000e+00  0.0000000000000000e+00 0.0000000000000000e+00 0.0000000000000000e+00  0.0000000000000000e+00 0.0000000000000000e+00 0.0000000000000000e+00  0.0000000000000000e+00 0.0000000000000000e+00 0.0000000000000000e+00  0.0000000000000000e+00 0.0000000000000000e+00 0.0000000000000000e+00  0.0000000000000000e+00 0.0000000000000000e+00 0.0000000000000000e+00  0.0000000000000000e+00 0.0000000000000000e+00 0.0000000000000000e+00  0.0000000000000000e+00 0.0000000000000000e+00 0.0000000000000000e+00  0.0000000000000000e+00 0.0000000000000000e+00 0.0000000000000000e+00  0.0000000000000000e+00 0.0000000000000000e+00 0.0000000000000000e+00  0.0000000000000000e+00 0.0000000000000000e+00 0.0000000000000000e+00  0.0000000000000000e+00 0.0000000000000000e+00 0.0000000000000000e+00  0.0000000000000000e+00 0.0000000000000000e+00 0.0000000000000000e+00  0.0000000000000000e+00 0.0000000000000000e+00 0.0000000000000000e+00  0.0000000000000000e+00 0.0000000000000000e+00 0.0000000000000000e+00  1.5561736611209083e+01 0.0000000000000000e+00 0.0000000000000000e+00  1.5534350294071993e+01 4.6104228012904015e-02 0.0000000000000000e+00  1.5528741205643662e+01 1.0789610925100031e-02 0.0000000000000000e+00  1.5528288080397070e+01 5.0761872275915708e-03 0.0000000000000000e+00  1.5525583895040068e+01 4.4799938626423966e-03 0.0000000000000000e+00  1.5526871541913005e+01 4.6812017433451444e-03 0.0000000000000000e+00  1.5526472698715011e+01 4.5778104440097880e-03 0.0000000000000000e+00  1.5526681250352439e+01 4.6142445089597806e-03 0.0000000000000000e+00  1.5526658995081677e+01 4.6098845376722885e-03 0.0000000000000000e+00  1.5526688279200432e+01 4.6149840745232330e-03 0.0000000000000000e+00  1.5526692217795352e+01 4.6160271915237456e-03 0.0000000000000000e+00  1.5526697401380064e+01 4.6170395897609431e-03 0.0000000000000000e+00  1.5526699274214078e+01 4.6174726305673545e-03 0.0000000000000000e+00  1.5526700441522417e+01 4.6177222017798935e-03 0.0000000000000000e+00  1.5526700985548482e+01 4.6178453116560540e-03 0.0000000000000000e+00  1.5526701273313565e+01 4.6179091992991040e-03 0.0000000000000000e+00  1.5526701415173989e+01 4.6179412879379213e-03 0.0000000000000000e+00  1.5526701486997498e+01 4.6179574376452176e-03 0.0000000000000000e+00  1.5526701522640481e+01 4.6179655226902139e-03 0.0000000000000000e+00  1.5526701540455427e+01 4.6179695448389608e-03 0.0000000000000000e+00  1.5526701549309545e+01 4.6179715612613172e-03 0.0000000000000000e+00  1.5526701553731479e+01 4.6179725585834509e-03 0.0000000000000000e+00  1.5526701555911309e+01 4.6179730483684612e-03 0.0000000000000000e+00  1.5526701557014571e+01 4.6179732976980069e-03 0.0000000000000000e+00  1.5526701557547177e+01 4.6179734103248713e-03 0.0000000000000000e+00  1.5526701557806877e+01 4.6179734727299741e-03 0.0000000000000000e+00  1.5526701557923484e+01 4.6179735137279352e-03 0.0000000000000000e+00  1.5526701558007835e+01 4.6179735226145428e-03 0.0000000000000000e+00  1.5526701558055747e+01 4.6179735306716039e-03 0.0000000000000000e+00  1.5526701558059695e+01 4.6179735326963454e-03 0.0000000000000000e+00  1.5526701558069487e+01 4.6179735342394583e-03 0.0000000000000000e+00  1.5526701558080362e+01 4.6179735318597620e-03 0.0000000000000000e+00  1.5526701558078136e+01 4.6179735350849495e-03 0.0000000000000000e+00  1.5526701558088586e+01 4.6179735362399891e-03 0.0000000000000000e+00  1.5526701558074119e+01 4.6179735262533534e-03 0.0000000000000000e+00  1.5526701558072475e+01 4.6179735314178577e-03 0.0000000000000000e+00  1.5526701558084758e+01 4.6179735309664852e-03 0.0000000000000000e+00  1.5526701558068037e+01 4.6179735271466519e-03 0.0000000000000000e+00  1.5526701558075469e+01 4.6179735344851602e-03 0.0000000000000000e+00  1.5526701558073457e+01 4.6179735327452551e-03 0.0000000000000000e+00  1.5526701558096697e+01 4.6179735358107587e-03 0.0000000000000000e+00  1.5526701558085938e+01 4.6179735377735939e-03 0.0000000000000000e+00  1.5526701558094043e+01 4.6179735226510510e-03 0.0000000000000000e+00  1.5526701558097542e+01 4.6179735440266458e-03 0.0000000000000000e+00  1.5526701558145946e+01 4.6179734926136157e-03 0.0000000000000000e+00  1.5526701558176763e+01 4.6179735410520799e-03 0.0000000000000000e+00  1.5526701558299186e+01 4.6179734116045664e-03 0.0000000000000000e+00  1.5526701558531304e+01 4.6179734777462775e-03 0.0000000000000000e+00  1.5526701558949568e+01 4.6179731268800699e-03 0.0000000000000000e+00  1.5526701559990071e+01 4.6179731327727954e-03 0.0000000000000000e+00  1.5526701561735297e+01 4.6179721297336870e-03 0.0000000000000000e+00  1.5526701565976778e+01 4.6179714960933394e-03 0.0000000000000000e+00  1.5526701573292176e+01 4.6179683376481604e-03 0.0000000000000000e+00  1.5526701590185963e+01 4.6179645228679230e-03 0.0000000000000000e+00  1.5526701620507751e+01 4.6179536451797717e-03 0.0000000000000000e+00  1.5526701686867954e+01 4.6179360912441793e-03 0.0000000000000000e+00  1.5526701809903297e+01 4.6178963986900556e-03 0.0000000000000000e+00  1.5526702068246944e+01 4.6178237913107514e-03 0.0000000000000000e+00  1.5526702557176693e+01 4.6176739632792221e-03 0.0000000000000000e+00  1.5526703563973376e+01 4.6173767363221598e-03 0.0000000000000000e+00  1.5526705556538165e+01 4.6167300217891541e-03 0.0000000000000000e+00  1.5526709907184133e+01 4.6152057451089102e-03 0.0000000000000000e+00  1.5526719799328665e+01 4.6113161409438493e-03 0.0000000000000000e+00  1.5526744367368178e+01 4.6011865150967831e-03 0.0000000000000000e+00  1.5526805857439843e+01 4.5760812556101885e-03 0.0000000000000000e+00  1.5526956218874833e+01 4.5194454253966064e-03 0.0000000000000000e+00  1.5527295028954578e+01 4.4085568762257769e-03 0.0000000000000000e+00  1.5527980403862047e+01 4.2279609071129423e-03 0.0000000000000000e+00  1.5529177226850930e+01 4.0040108059616244e-03 0.0000000000000000e+00  1.5530922408268667e+01 3.8300562413345150e-03 0.0000000000000000e+00  1.5532954034895768e+01 3.8232927568982089e-03 0.0000000000000000e+00  1.5534812230428066e+01 3.9972391885193760e-03 0.0000000000000000e+00  1.5536141210411364e+01 4.2996673621584413e-03 0.0000000000000000e+00  1.5536646594611707e+01 4.8003678506521770e-03 0.0000000000000000e+00  1.5535697937273941e+01 5.6397385691903043e-03 0.0000000000000000e+00  1.5532570199834030e+01 6.7829753989465851e-03 0.0000000000000000e+00  1.5526522119886765e+01 8.1297668653376263e-03 0.0000000000000000e+00  1.5517189516374318e+01 9.0799875340942578e-03 0.0000000000000000e+00  1.5504425104414901e+01 8.6067233177105559e-03 0.0000000000000000e+00  1.5481562669289238e+01 1.2098335797814000e-03 0.0000000000000000e+00  1.5447154870567468e+01 0.0000000000000000e+00 0.0000000000000000e+00  1.1092198491112084e+01 0.0000000000000000e+00 0.0000000000000000e+00  1.1065879511757924e+01 -6.7264081307086554e-03 0.0000000000000000e+00  1.1088533100550638e+01 4.6653870145593572e-03 0.0000000000000000e+00  1.1087797049030103e+01 -3.2945076448115942e-03 0.0000000000000000e+00  1.1089014552421157e+01 -1.8358516394900899e-03 0.0000000000000000e+00  1.1088754379167309e+01 -2.5261441284245090e-03 0.0000000000000000e+00  1.1088926314671257e+01 -2.2999322441697796e-03 0.0000000000000000e+00  1.1088918149779616e+01 -2.3315697491245423e-03 0.0000000000000000e+00  1.1088942655090456e+01 -2.3003353705736279e-03 0.0000000000000000e+00  1.1088946908097808e+01 -2.2955932766783138e-03 0.0000000000000000e+00  1.1088951395260791e+01 -2.2898032227448894e-03 0.0000000000000000e+00  1.1088953095031956e+01 -2.2875378885127491e-03 0.0000000000000000e+00  1.1088954133175854e+01 -2.2861540750499635e-03 0.0000000000000000e+00  1.1088954626546297e+01 -2.2854819732552765e-03 0.0000000000000000e+00  1.1088954888841883e+01 -2.2851247940035230e-03 0.0000000000000000e+00  1.1088955019900276e+01 -2.2849447516192015e-03 0.0000000000000000e+00  1.1088955086624589e+01 -2.2848528942688334e-03 0.0000000000000000e+00  1.1088955120104682e+01 -2.2848066657317938e-03 0.0000000000000000e+00  1.1088955136857475e+01 -2.2847834754360103e-03 0.0000000000000000e+00  1.1088955145250520e+01 -2.2847718759647626e-03 0.0000000000000000e+00  1.1088955149377689e+01 -2.2847661124631318e-03 0.0000000000000000e+00  1.1088955151468621e+01 -2.2847632091035600e-03 0.0000000000000000e+00  1.1088955152491705e+01 -2.2847617911331891e-03 0.0000000000000000e+00  1.1088955153014036e+01 -2.2847610690583013e-03 0.0000000000000000e+00  1.1088955153273067e+01 -2.2847607281502309e-03 0.0000000000000000e+00  1.1088955153404168e+01 -2.2847605635859932e-03 0.0000000000000000e+00  1.1088955153449620e+01 -2.2847604766570266e-03 0.0000000000000000e+00  1.1088955153482924e+01 -2.2847604224171280e-03 0.0000000000000000e+00  1.1088955153498301e+01 -2.2847604043066501e-03 0.0000000000000000e+00  1.1088955153512044e+01 -2.2847603817597929e-03 0.0000000000000000e+00  1.1088955153514288e+01 -2.2847603850332378e-03 0.0000000000000000e+00  1.1088955153522617e+01 -2.2847603857388621e-03 0.0000000000000000e+00  1.1088955153519555e+01 -2.2847603839141330e-03 0.0000000000000000e+00  1.1088955153529186e+01 -2.2847603799441537e-03 0.0000000000000000e+00  1.1088955153525781e+01 -2.2847603981236016e-03 0.0000000000000000e+00  1.1088955153529115e+01 -2.2847603948643229e-03 0.0000000000000000e+00  1.1088955153530174e+01 -2.2847603879990667e-03 0.0000000000000000e+00  1.1088955153537277e+01 -2.2847603915171328e-03 0.0000000000000000e+00  1.1088955153519883e+01 -2.2847603969948765e-03 0.0000000000000000e+00  1.1088955153530428e+01 -2.2847603945030737e-03 0.0000000000000000e+00  1.1088955153522377e+01 -2.2847603821707224e-03 0.0000000000000000e+00  1.1088955153543923e+01 -2.2847603856200552e-03 0.0000000000000000e+00  1.1088955153521848e+01 -2.2847604032974990e-03 0.0000000000000000e+00  1.1088955153554434e+01 -2.2847603994233644e-03 0.0000000000000000e+00  1.1088955153558199e+01 -2.2847604246348393e-03 0.0000000000000000e+00  1.1088955153634164e+01 -2.2847604666224640e-03 0.0000000000000000e+00  1.1088955153718180e+01 -2.2847605718663280e-03 0.0000000000000000e+00  1.1088955153929945e+01 -2.2847607388245092e-03 0.0000000000000000e+00  1.1088955154424969e+01 -2.2847611731057231e-03 0.0000000000000000e+00  1.1088955155153981e+01 -2.2847618857980050e-03 0.0000000000000000e+00  1.1088955157256562e+01 -2.2847635766670821e-03 0.0000000000000000e+00  1.1088955160316765e+01 -2.2847666079605956e-03 0.0000000000000000e+00  1.1088955168645606e+01 -2.2847732747158342e-03 0.0000000000000000e+00  1.1088955181654432e+01 -2.2847857721177813e-03 0.0000000000000000e+00  1.1088955213738050e+01 -2.2848118570088123e-03 0.0000000000000000e+00  1.1088955267592697e+01 -2.2848620677561522e-03 0.0000000000000000e+00  1.1088955389971634e+01 -2.2849632711088893e-03 0.0000000000000000e+00  1.1088955607707256e+01 -2.2851603782746556e-03 0.0000000000000000e+00  1.1088956081575491e+01 -2.2855544229713307e-03 0.0000000000000000e+00  1.1088956991186645e+01 -2.2863561773627627e-03 0.0000000000000000e+00  1.1088959034006383e+01 -2.2881118833709790e-03 0.0000000000000000e+00  1.1088963526359207e+01 -2.2922945156892780e-03 0.0000000000000000e+00  1.1088974526312425e+01 -2.3029925889819784e-03 0.0000000000000000e+00  1.1089001092603194e+01 -2.3305769478882969e-03 0.0000000000000000e+00  1.1089065389396705e+01 -2.3981994520821501e-03 0.0000000000000000e+00  1.1089210418114408e+01 -2.5485400754269548e-03 0.0000000000000000e+00  1.1089513244469181e+01 -2.8399900305470290e-03 0.0000000000000000e+00  1.1090072435496209e+01 -3.3083115748908836e-03 0.0000000000000000e+00  1.1090958676159195e+01 -3.8751207145553521e-03 0.0000000000000000e+00  1.1092081290958577e+01 -4.2756048027397745e-03 0.0000000000000000e+00  1.1093154787385725e+01 -4.2275365757980859e-03 0.0000000000000000e+00  1.1093934108844545e+01 -3.8004216489516368e-03 0.0000000000000000e+00  1.1094517017979497e+01 -3.1753049840315289e-03 0.0000000000000000e+00  1.1094911656659999e+01 -2.1070965242754040e-03 0.0000000000000000e+00  1.1095027539004535e+01 -4.0662539464440844e-04 0.0000000000000000e+00  1.1094843716511022e+01 1.9213084333077556e-03 0.0000000000000000e+00  1.1094295478100657e+01 4.7146891959376378e-03 0.0000000000000000e+00  1.1093067750873219e+01 7.4742489770644894e-03 0.0000000000000000e+00  1.1090630069267332e+01 9.4201824075576257e-03 0.0000000000000000e+00  1.1087863686731461e+01 1.4230214379041404e-02 0.0000000000000000e+00  1.1068944857482983e+01 0.0000000000000000e+00 0.0000000000000000e+00  7.6168192776213148e+00 0.0000000000000000e+00 0.0000000000000000e+00  7.6166140056592386e+00 1.1373999232406119e-03 0.0000000000000000e+00  7.6191273351443956e+00 7.6760584279116778e-04 0.0000000000000000e+00  7.6208267623545618e+00 4.5803303927390428e-04 0.0000000000000000e+00  7.6208920071121717e+00 3.2283837276802072e-05 0.0000000000000000e+00  7.6208552703098498e+00 1.1898747539900917e-04 0.0000000000000000e+00  7.6207793985127470e+00 1.1797263621350655e-04 0.0000000000000000e+00  7.6207395845279366e+00 1.4978712916495160e-04 0.0000000000000000e+00  7.6207149202865905e+00 1.6027503074307918e-04 0.0000000000000000e+00  7.6207022209616788e+00 1.6837066368914936e-04 0.0000000000000000e+00  7.6206953363667083e+00 1.7206368552437050e-04 0.0000000000000000e+00  7.6206917814426376e+00 1.7417918458847157e-04 0.0000000000000000e+00  7.6206899275755369e+00 1.7524200649627676e-04 0.0000000000000000e+00  7.6206889776808220e+00 1.7580499108810899e-04 0.0000000000000000e+00  7.6206884923207392e+00 1.7609203620700526e-04 0.0000000000000000e+00  7.6206882464850594e+00 1.7623970279025318e-04 0.0000000000000000e+00  7.6206881225837098e+00 1.7631435694515787e-04 0.0000000000000000e+00  7.6206880604537233e+00 1.7635219005229490e-04 0.0000000000000000e+00  7.6206880293988783e+00 1.7637109109422069e-04 0.0000000000000000e+00  7.6206880139119031e+00 1.7638059031966258e-04 0.0000000000000000e+00  7.6206880062236060e+00 1.7638530633863324e-04 0.0000000000000000e+00  7.6206880024138659e+00 1.7638766878282712e-04 0.0000000000000000e+00  7.6206880005045523e+00 1.7638881832094023e-04 0.0000000000000000e+00  7.6206879995932821e+00 1.7638940762004489e-04 0.0000000000000000e+00  7.6206879990823673e+00 1.7638968777920796e-04 0.0000000000000000e+00  7.6206879988395198e+00 1.7638982685725399e-04 0.0000000000000000e+00  7.6206879987348550e+00 1.7638990433284783e-04 0.0000000000000000e+00  7.6206879987173712e+00 1.7638994130370520e-04 0.0000000000000000e+00  7.6206879986508751e+00 1.7638995199001177e-04 0.0000000000000000e+00  7.6206879985938336e+00 1.7638993378645787e-04 0.0000000000000000e+00  7.6206879986174592e+00 1.7638996585338915e-04 0.0000000000000000e+00  7.6206879986143186e+00 1.7638996786744363e-04 0.0000000000000000e+00  7.6206879986072487e+00 1.7638997113163208e-04 0.0000000000000000e+00  7.6206879986523406e+00 1.7638997936500472e-04 0.0000000000000000e+00  7.6206879985998794e+00 1.7638997033381815e-04 0.0000000000000000e+00  7.6206879985535849e+00 1.7638995887615290e-04 0.0000000000000000e+00  7.6206879986105438e+00 1.7638997093595809e-04 0.0000000000000000e+00  7.6206879985929223e+00 1.7638996909583146e-04 0.0000000000000000e+00  7.6206879986093510e+00 1.7638997772705773e-04 0.0000000000000000e+00  7.6206879985953089e+00 1.7638997646310376e-04 0.0000000000000000e+00  7.62068