<?xml version="1.0"?>
<VTKFile type="UnstructuredGrid"  version="0.1"  >
<UnstructuredGrid>
<Piece  NumberOfPoints="1369" NumberOfCells="2560">
<Points>
<DataArray  type="Float64"  NumberOfComponents="3"  format="ascii">0 0 0  0.75 0 0  1.5 0 0  2.25 0 0  3 0 0  3.75 0 0  4.5 0 0  5.25 0 0  6 0 0  6.75 0 0  7.5 0 0  8.25 0 0  9 0 0  9.75 0 0  10.5 0 0  11.25 0 0  12 0 0  12.75 0 0  13.5 0 0  14.25 0 0  15 0 0  15.75 0 0  16.5 0 0  17.25 0 0  18 0 0  18.75 0 0  19.5 0 0  20.25 0 0  21 0 0  21.75 0 0  22.5 0 0  23.25 0 0  24 0 0  24.75 0 0  25.5 0 0  26.25 0 0  27 0 0  27.75 0 0  28.5 0 0  29.25 0 0  30 0 0  30.75 0 0  31.5 0 0  32.25 0 0  33 0 0  33.75 0 0  34.5 0 0  35.25 0 0  36 0 0  36.75 0 0  37.5 0 0  38.25 0 0  39 0 0  39.75 0 0  40.5 0 0  41.25 0 0  42 0 0  42.75 0 0  43.5 0 0  44.25 0 0  45 0 0  45.75 0 0  46.5 0 0  47.25 0 0  48 0 0  48.75 0 0  49.5 0 0  50.25 0 0  51 0 0  51.75 0 0  52.5 0 0  53.25 0 0  54 0 0  54.75 0 0  55.5 0 0  56.25 0 0  57 0 0  57.75 0 0  58.5 0 0  59.25 0 0  60 0 0  0 0.5 0  0.75 0.5 0  1.5 0.5 0  2.25 0.5 0  3 0.5 0  3.75 0.5 0  4.5 0.5 0  5.25 0.5 0  6 0.5 0  6.75 0.5 0  7.5 0.5 0  8.25 0.5 0  9 0.5 0  9.75 0.5 0  10.5 0.5 0  11.25 0.5 0  12 0.5 0  12.75 0.5 0  13.5 0.5 0  14.25 0.5 0  15 0.5 0  15.75 0.5 0  16.5 0.5 0  17.25 0.5 0  18 0.5 0  18.75 0.5 0  19.5 0.5 0  20.25 0.5 0  21 0.5 0  21.75 0.5 0  22.5 0.5 0  23.25 0.5 0  24 0.5 0  24.75 0.5 0  25.5 0.5 0  26.25 0.5 0  27 0.5 0  27.75 0.5 0  28.5 0.5 0  29.25 0.5 0  30 0.5 0  30.75 0.5 0  31.5 0.5 0  32.25 0.5 0  33 0.5 0  33.75 0.5 0  34.5 0.5 0  35.25 0.5 0  36 0.5 0  36.75 0.5 0  37.5 0.5 0  38.25 0.5 0  39 0.5 0  39.75 0.5 0  40.5 0.5 0  41.25 0.5 0  42 0.5 0  42.75 0.5 0  43.5 0.5 0  44.25 0.5 0  45 0.5 0  45.75 0.5 0  46.5 0.5 0  47.25 0.5 0  48 0.5 0  48.75 0.5 0  49.5 0.5 0  50.25 0.5 0  51 0.5 0  51.75 0.5 0  52.5 0.5 0  53.25 0.5 0  54 0.5 0  54.75 0.5 0  55.5 0.5 0  56.25 0.5 0  57 0.5 0  57.75 0.5 0  58.5 0.5 0  59.25 0.5 0  60 0.5 0  0 1 0  0.75 1 0  1.5 1 0  2.25 1 0  3 1 0  3.75 1 0  4.5 1 0  5.25 1 0  6 1 0  6.75 1 0  7.5 1 0  8.25 1 0  9 1 0  9.75 1 0  10.5 1 0  11.25 1 0  12 1 0  12.75 1 0  13.5 1 0  14.25 1 0  15 1 0  15.75 1 0  16.5 1 0  17.25 1 0  18 1 0  18.75 1 0  19.5 1 0  20.25 1 0  21 1 0  21.75 1 0  22.5 1 0  23.25 1 0  24 1 0  24.75 1 0  25.5 1 0  26.25 1 0  27 1 0  27.75 1 0  28.5 1 0  29.25 1 0  30 1 0  30.75 1 0  31.5 1 0  32.25 1 0  33 1 0  33.75 1 0  34.5 1 0  35.25 1 0  36 1 0  36.75 1 0  37.5 1 0  38.25 1 0  39 1 0  39.75 1 0  40.5 1 0  41.25 1 0  42 1 0  42.75 1 0  43.5 1 0  44.25 1 0  45 1 0  45.75 1 0  46.5 1 0  47.25 1 0  48 1 0  48.75 1 0  49.5 1 0  50.25 1 0  51 1 0  51.75 1 0  52.5 1 0  53.25 1 0  54 1 0  54.75 1 0  55.5 1 0  56.25 1 0  57 1 0  57.75 1 0  58.5 1 0  59.25 1 0  60 1 0  0 1.5 0  0.75 1.5 0  1.5 1.5 0  2.25 1.5 0  3 1.5 0  3.75 1.5 0  4.5 1.5 0  5.25 1.5 0  6 1.5 0  6.75 1.5 0  7.5 1.5 0  8.25 1.5 0  9 1.5 0  9.75 1.5 0  10.5 1.5 0  11.25 1.5 0  12 1.5 0  12.75 1.5 0  13.5 1.5 0  14.25 1.5 0  15 1.5 0  15.75 1.5 0  16.5 1.5 0  17.25 1.5 0  18 1.5 0  18.75 1.5 0  19.5 1.5 0  20.25 1.5 0  21 1.5 0  21.75 1.5 0  22.5 1.5 0  23.25 1.5 0  24 1.5 0  24.75 1.5 0  25.5 1.5 0  26.25 1.5 0  27 1.5 0  27.75 1.5 0  28.5 1.5 0  29.25 1.5 0  30 1.5 0  30.75 1.5 0  31.5 1.5 0  32.25 1.5 0  33 1.5 0  33.75 1.5 0  34.5 1.5 0  35.25 1.5 0  36 1.5 0  36.75 1.5 0  37.5 1.5 0  38.25 1.5 0  39 1.5 0  39.75 1.5 0  40.5 1.5 0  41.25 1.5 0  42 1.5 0  42.75 1.5 0  43.5 1.5 0  44.25 1.5 0  45 1.5 0  45.75 1.5 0  46.5 1.5 0  47.25 1.5 0  48 1.5 0  48.75 1.5 0  49.5 1.5 0  50.25 1.5 0  51 1.5 0  51.75 1.5 0  52.5 1.5 0  53.25 1.5 0  54 1.5 0  54.75 1.5 0  55.5 1.5 0  56.25 1.5 0  57 1.5 0  57.75 1.5 0  58.5 1.5 0  59.25 1.5 0  60 1.5 0  0 2 0  0.75 2 0  1.5 2 0  2.25 2 0  3 2 0  3.75 2 0  4.5 2 0  5.25 2 0  6 2 0  6.75 2 0  7.5 2 0  8.25 2 0  9 2 0  9.75 2 0  10.5 2 0  11.25 2 0  12 2 0  12.75 2 0  13.5 2 0  14.25 2 0  15 2 0  15.75 2 0  16.5 2 0  17.25 2 0  18 2 0  18.75 2 0  19.5 2 0  20.25 2 0  21 2 0  21.75 2 0  22.5 2 0  23.25 2 0  24 2 0  24.75 2 0  25.5 2 0  26.25 2 0  27 2 0  27.75 2 0  28.5 2 0  29.25 2 0  30 2 0  30.75 2 0  31.5 2 0  32.25 2 0  33 2 0  33.75 2 0  34.5 2 0  35.25 2 0  36 2 0  36.75 2 0  37.5 2 0  38.25 2 0  39 2 0  39.75 2 0  40.5 2 0  41.25 2 0  42 2 0  42.75 2 0  43.5 2 0  44.25 2 0  45 2 0  45.75 2 0  46.5 2 0  47.25 2 0  48 2 0  48.75 2 0  49.5 2 0  50.25 2 0  51 2 0  51.75 2 0  52.5 2 0  53.25 2 0  54 2 0  54.75 2 0  55.5 2 0  56.25 2 0  57 2 0  57.75 2 0  58.5 2 0  59.25 2 0  60 2 0  0 2.5 0  0.75 2.5 0  1.5 2.5 0  2.25 2.5 0  3 2.5 0  3.75 2.5 0  4.5 2.5 0  5.25 2.5 0  6 2.5 0  6.75 2.5 0  7.5 2.5 0  8.25 2.5 0  9 2.5 0  9.75 2.5 0  10.5 2.5 0  11.25 2.5 0  12 2.5 0  12.75 2.5 0  13.5 2.5 0  14.25 2.5 0  15 2.5 0  15.75 2.5 0  16.5 2.5 0  17.25 2.5 0  18 2.5 0  18.75 2.5 0  19.5 2.5 0  20.25 2.5 0  21 2.5 0  21.75 2.5 0  22.5 2.5 0  23.25 2.5 0  24 2.5 0  24.75 2.5 0  25.5 2.5 0  26.25 2.5 0  27 2.5 0  27.75 2.5 0  28.5 2.5 0  29.25 2.5 0  30 2.5 0  30.75 2.5 0  31.5 2.5 0  32.25 2.5 0  33 2.5 0  33.75 2.5 0  34.5 2.5 0  35.25 2.5 0  36 2.5 0  36.75 2.5 0  37.5 2.5 0  38.25 2.5 0  39 2.5 0  39.75 2.5 0  40.5 2.5 0  41.25 2.5 0  42 2.5 0  42.75 2.5 0  43.5 2.5 0  44.25 2.5 0  45 2.5 0  45.75 2.5 0  46.5 2.5 0  47.25 2.5 0  48 2.5 0  48.75 2.5 0  49.5 2.5 0  50.25 2.5 0  51 2.5 0  51.75 2.5 0  52.5 2.5 0  53.25 2.5 0  54 2.5 0  54.75 2.5 0  55.5 2.5 0  56.25 2.5 0  57 2.5 0  57.75 2.5 0  58.5 2.5 0  59.25 2.5 0  60 2.5 0  0 3 0  0.75 3 0  1.5 3 0  2.25 3 0  3 3 0  3.75 3 0  4.5 3 0  5.25 3 0  6 3 0  6.75 3 0  7.5 3 0  8.25 3 0  9 3 0  9.75 3 0  10.5 3 0  11.25 3 0  12 3 0  12.75 3 0  13.5 3 0  14.25 3 0  15 3 0  15.75 3 0  16.5 3 0  17.25 3 0  18 3 0  18.75 3 0  19.5 3 0  20.25 3 0  21 3 0  21.75 3 0  22.5 3 0  23.25 3 0  24 3 0  24.75 3 0  25.5 3 0  26.25 3 0  27 3 0  27.75 3 0  28.5 3 0  29.25 3 0  30 3 0  30.75 3 0  31.5 3 0  32.25 3 0  33 3 0  33.75 3 0  34.5 3 0  35.25 3 0  36 3 0  36.75 3 0  37.5 3 0  38.25 3 0  39 3 0  39.75 3 0  40.5 3 0  41.25 3 0  42 3 0  42.75 3 0  43.5 3 0  44.25 3 0  45 3 0  45.75 3 0  46.5 3 0  47.25 3 0  48 3 0  48.75 3 0  49.5 3 0  50.25 3 0  51 3 0  51.75 3 0  52.5 3 0  53.25 3 0  54 3 0  54.75 3 0  55.5 3 0  56.25 3 0  57 3 0  57.75 3 0  58.5 3 0  59.25 3 0  60 3 0  0 3.5 0  0.75 3.5 0  1.5 3.5 0  2.25 3.5 0  3 3.5 0  3.75 3.5 0  4.5 3.5 0  5.25 3.5 0  6 3.5 0  6.75 3.5 0  7.5 3.5 0  8.25 3.5 0  9 3.5 0  9.75 3.5 0  10.5 3.5 0  11.25 3.5 0  12 3.5 0  12.75 3.5 0  13.5 3.5 0  14.25 3.5 0  15 3.5 0  15.75 3.5 0  16.5 3.5 0  17.25 3.5 0  18 3.5 0  18.75 3.5 0  19.5 3.5 0  20.25 3.5 0  21 3.5 0  21.75 3.5 0  22.5 3.5 0  23.25 3.5 0  24 3.5 0  24.75 3.5 0  25.5 3.5 0  26.25 3.5 0  27 3.5 0  27.75 3.5 0  28.5 3.5 0  29.25 3.5 0  30 3.5 0  30.75 3.5 0  31.5 3.5 0  32.25 3.5 0  33 3.5 0  33.75 3.5 0  34.5 3.5 0  35.25 3.5 0  36 3.5 0  36.75 3.5 0  37.5 3.5 0  38.25 3.5 0  39 3.5 0  39.75 3.5 0  40.5 3.5 0  41.25 3.5 0  42 3.5 0  42.75 3.5 0  43.5 3.5 0  44.25 3.5 0  45 3.5 0  45.75 3.5 0  46.5 3.5 0  47.25 3.5 0  48 3.5 0  48.75 3.5 0  49.5 3.5 0  50.25 3.5 0  51 3.5 0  51.75 3.5 0  52.5 3.5 0  53.25 3.5 0  54 3.5 0  54.75 3.5 0  55.5 3.5 0  56.25 3.5 0  57 3.5 0  57.75 3.5 0  58.5 3.5 0  59.25 3.5 0  60 3.5 0  0 4 0  0.75 4 0  1.5 4 0  2.25 4 0  3 4 0  3.75 4 0  4.5 4 0  5.25 4 0  6 4 0  6.75 4 0  7.5 4 0  8.25 4 0  9 4 0  9.75 4 0  10.5 4 0  11.25 4 0  12 4 0  12.75 4 0  13.5 4 0  14.25 4 0  15 4 0  15.75 4 0  16.5 4 0  17.25 4 0  18 4 0  18.75 4 0  19.5 4 0  20.25 4 0  21 4 0  21.75 4 0  22.5 4 0  23.25 4 0  24 4 0  24.75 4 0  25.5 4 0  26.25 4 0  27 4 0  27.75 4 0  28.5 4 0  29.25 4 0  30 4 0  30.75 4 0  31.5 4 0  32.25 4 0  33 4 0  33.75 4 0  34.5 4 0  35.25 4 0  36 4 0  36.75 4 0  37.5 4 0  38.25 4 0  39 4 0  39.75 4 0  40.5 4 0  41.25 4 0  42 4 0  42.75 4 0  43.5 4 0  44.25 4 0  45 4 0  45.75 4 0  46.5 4 0  47.25 4 0  48 4 0  48.75 4 0  49.5 4 0  50.25 4 0  51 4 0  51.75 4 0  52.5 4 0  53.25 4 0  54 4 0  54.75 4 0  55.5 4 0  56.25 4 0  57 4 0  57.75 4 0  58.5 4 0  59.25 4 0  60 4 0  0.375 0.25 0  1.125 0.25 0  1.875 0.25 0  2.625 0.25 0  3.375 0.25 0  4.125 0.25 0  4.875 0.25 0  5.625 0.25 0  6.375 0.25 0  7.125 0.25 0  7.875 0.25 0  8.625 0.25 0  9.375 0.25 0  10.125 0.25 0  10.875 0.25 0  11.625 0.25 0  12.375 0.25 0  13.125 0.25 0  13.875 0.25 0  14.625 0.25 0  15.375 0.25 0  16.125 0.25 0  16.875 0.25 0  17.625 0.25 0  18.375 0.25 0  19.125 0.25 0  19.875 0.25 0  20.625 0.25 0  21.375 0.25 0  22.125 0.25 0  22.875 0.25 0  23.625 0.25 0  24.375 0.25 0  25.125 0.25 0  25.875 0.25 0  26.625 0.25 0  27.375 0.25 0  28.125 0.25 0  28.875 0.25 0  29.625 0.25 0  30.375 0.25 0  31.125 0.25 0  31.875 0.25 0  32.625 0.25 0  33.375 0.25 0  34.125 0.25 0  34.875 0.25 0  35.625 0.25 0  36.375 0.25 0  37.125 0.25 0  37.875 0.25 0  38.625 0.25 0  39.375 0.25 0  40.125 0.25 0  40.875 0.25 0  41.625 0.25 0  42.375 0.25 0  43.125 0.25 0  43.875 0.25 0  44.625 0.25 0  45.375 0.25 0  46.125 0.25 0  46.875 0.25 0  47.625 0.25 0  48.375 0.25 0  49.125 0.25 0  49.875 0.25 0  50.625 0.25 0  51.375 0.25 0  52.125 0.25 0  52.875 0.25 0  53.625 0.25 0  54.375 0.25 0  55.125 0.25 0  55.875 0.25 0  56.625 0.25 0  57.375 0.25 0  58.125 0.25 0  58.875 0.25 0  59.625 0.25 0  0.375 0.75 0  1.125 0.75 0  1.875 0.75 0  2.625 0.75 0  3.375 0.75 0  4.125 0.75 0  4.875 0.75 0  5.625 0.75 0  6.375 0.75 0  7.125 0.75 0  7.875 0.75 0  8.625 0.75 0  9.375 0.75 0  10.125 0.75 0  10.875 0.75 0  11.625 0.75 0  12.375 0.75 0  13.125 0.75 0  13.875 0.75 0  14.625 0.75 0  15.375 0.75 0  16.125 0.75 0  16.875 0.75 0  17.625 0.75 0  18.375 0.75 0  19.125 0.75 0  19.875 0.75 0  20.625 0.75 0  21.375 0.75 0  22.125 0.75 0  22.875 0.75 0  23.625 0.75 0  24.375 0.75 0  25.125 0.75 0  25.875 0.75 0  26.625 0.75 0  27.375 0.75 0  28.125 0.75 0  28.875 0.75 0  29.625 0.75 0  30.375 0.75 0  31.125 0.75 0  31.875 0.75 0  32.625 0.75 0  33.375 0.75 0  34.125 0.75 0  34.875 0.75 0  35.625 0.75 0  36.375 0.75 0  37.125 0.75 0  37.875 0.75 0  38.625 0.75 0  39.375 0.75 0  40.125 0.75 0  40
[...]
<PointData  Vectors="f_8-0"> 
<DataArray  type="Float64"  Name="f_8-0"  NumberOfComponents="3" format="ascii">0.0000000000000000e+00 0.0000000000000000e+00 0.0000000000000000e+00  0.0000000000000000e+00 0.0000000000000000e+00 0.0000000000000000e+00  0.0000000000000000e+00 0.0000000000000000e+00 0.0000000000000000e+00  0.0000000000000000e+00 0.0000000000000000e+00 0.0000000000000000e+00  0.0000000000000000e+00 0.0000000000000000e+00 0.0000000000000000e+00  0.0000000000000000e+00 0.0000000000000000e+00 0.0000000000000000e+00  0.0000000000000000e+00 0.0000000000000000e+00 0.0000000000000000e+00  0.0000000000000000e+00 0.0000000000000000e+00 0.0000000000000000e+00  0.0000000000000000e+00 0.0000000000000000e+00 0.0000000000000000e+00  0.0000000000000000e+00 0.0000000000000000e+00 0.0000000000000000e+00  0.0000000000000000e+00 0.0000000000000000e+00 0.0000000000000000e+00  0.0000000000000000e+00 0.0000000000000000e+00 0.0000000000000000e+00  0.0000000000000000e+00 0.0000000000000000e+00 0.0000000000000000e+00  0.0000000000000000e+00 0.0000000000000000e+00 0.0000000000000000e+00  0.0000000000000000e+00 0.0000000000000000e+00 0.0000000000000000e+00  0.0000000000000000e+00 0.0000000000000000e+00 0.0000000000000000e+00  0.0000000000000000e+00 0.0000000000000000e+00 0.0000000000000000e+00  0.0000000000000000e+00 0.0000000000000000e+00 0.0000000000000000e+00  0.0000000000000000e+00 0.0000000000000000e+00 0.0000000000000000e+00  0.0000000000000000e+00 0.0000000000000000e+00 0.0000000000000000e+00  0.0000000000000000e+00 0.0000000000000000e+00 0.0000000000000000e+00  0.0000000000000000e+00 0.0000000000000000e+00 0.0000000000000000e+00  0.0000000000000000e+00 0.0000000000000000e+00 0.0000000000000000e+00  0.0000000000000000e+00 0.0000000000000000e+00 0.0000000000000000e+00  0.0000000000000000e+00 0.0000000000000000e+00 0.0000000000000000e+00  0.0000000000000000e+00 0.0000000000000000e+00 0.0000000000000000e+00  0.0000000000000000e+00 0.0000000000000000e+00 0.0000000000000000e+00  0.0000000000000000e+00 0.0000000000000000e+00 0.0000000000000000e+00  0.0000000000000000e+00 0.0000000000000000e+00 0.0000000000000000e+00  0.0000000000000000e+00 0.0000000000000000e+00 0.0000000000000000e+00  0.0000000000000000e+00 0.0000000000000000e+00 0.0000000000000000e+00  0.0000000000000000e+00 0.0000000000000000e+00 0.0000000000000000e+00  0.0000000000000000e+00 0.0000000000000000e+00 0.0000000000000000e+00  0.0000000000000000e+00 0.0000000000000000e+00 0.0000000000000000e+00  0.0000000000000000e+00 0.0000000000000000e+00 0.0000000000000000e+00  0.0000000000000000e+00 0.0000000000000000e+00 0.0000000000000000e+00  0.0000000000000000e+00 0.0000000000000000e+00 0.0000000000000000e+00  0.0000000000000000e+00 0.0000000000000000e+00 0.0000000000000000e+00  0.0000000000000000e+00 0.0000000000000000e+00 0.0000000000000000e+00  0.0000000000000000e+00 0.0000000000000000e+00 0.0000000000000000e+00  0.0000000000000000e+00 0.0000000000000000e+00 0.0000000000000000e+00  0.0000000000000000e+00 0.0000000000000000e+00 0.0000000000000000e+00  0.0000000000000000e+00 0.0000000000000000e+00 0.0000000000000000e+00  0.0000000000000000e+00 0.0000000000000000e+00 0.0000000000000000e+00  0.0000000000000000e+00 0.0000000000000000e+00 0.0000000000000000e+00  0.0000000000000000e+00 0.0000000000000000e+00 0.0000000000000000e+00  0.0000000000000000e+00 0.0000000000000000e+00 0.0000000000000000e+00  0.0000000000000000e+00 0.0000000000000000e+00 0.0000000000000000e+00  0.0000000000000000e+00 0.0000000000000000e+00 0.0000000000000000e+00  0.0000000000000000e+00 0.0000000000000000e+00 0.0000000000000000e+00  0.0000000000000000e+00 0.0000000000000000e+00 0.0000000000000000e+00  0.0000000000000000e+00 0.0000000000000000e+00 0.0000000000000000e+00  0.0000000000000000e+00 0.0000000000000000e+00 0.0000000000000000e+00  0.0000000000000000e+00 0.0000000000000000e+00 0.0000000000000000e+00  0.0000000000000000e+00 0.0000000000000000e+00 0.0000000000000000e+00  0.0000000000000000e+00 0.0000000000000000e+00 0.0000000000000000e+00  0.0000000000000000e+00 0.0000000000000000e+00 0.0000000000000000e+00  0.0000000000000000e+00 0.0000000000000000e+00 0.0000000000000000e+00  0.0000000000000000e+00 0.0000000000000000e+00 0.0000000000000000e+00  0.0000000000000000e+00 0.0000000000000000e+00 0.0000000000000000e+00  0.0000000000000000e+00 0.0000000000000000e+00 0.0000000000000000e+00  0.0000000000000000e+00 0.0000000000000000e+00 0.0000000000000000e+00  0.0000000000000000e+00 0.0000000000000000e+00 0.0000000000000000e+00  0.0000000000000000e+00 0.0000000000000000e+00 0.0000000000000000e+00  0.0000000000000000e+00 0.0000000000000000e+00 0.0000000000000000e+00  0.0000000000000000e+00 0.0000000000000000e+00 0.0000000000000000e+00  0.0000000000000000e+00 0.0000000000000000e+00 0.0000000000000000e+00  0.0000000000000000e+00 0.0000000000000000e+00 0.0000000000000000e+00  0.0000000000000000e+00 0.0000000000000000e+00 0.0000000000000000e+00  0.0000000000000000e+00 0.0000000000000000e+00 0.0000000000000000e+00  0.0000000000000000e+00 0.0000000000000000e+00 0.0000000000000000e+00  0.0000000000000000e+00 0.0000000000000000e+00 0.0000000000000000e+00  0.0000000000000000e+00 0.0000000000000000e+00 0.0000000000000000e+00  0.0000000000000000e+00 0.0000000000000000e+00 0.0000000000000000e+00  0.0000000000000000e+00 0.0000000000000000e+00 0.0000000000000000e+00  0.0000000000000000e+00 0.0000000000000000e+00 0.0000000000000000e+00  0.0000000000000000e+00 0.0000000000000000e+00 0.0000000000000000e+00  0.0000000000000000e+00 0.0000000000000000e+00 0.0000000000000000e+00  0.0000000000000000e+00 0.0000000000000000e+00 0.0000000000000000e+00  0.0000000000000000e+00 0.0000000000000000e+00 0.0000000000000000e+00  0.0000000000000000e+00 0.0000000000000000e+00 0.0000000000000000e+00  -2.7099406055931464e+01 0.0000000000000000e+00 0.0000000000000000e+00  -2.7093100799808902e+01 1.3082517792031224e-04 0.0000000000000000e+00  -2.7090354370065924e+01 1.6434541945679161e-04 0.0000000000000000e+00  -2.7090210704797375e+01 2.6140472576076403e-05 0.0000000000000000e+00  -2.7089887416355001e+01 -1.5255859755781398e-04 0.0000000000000000e+00  -2.7089253336324578e+01 -2.8916123087364010e-04 0.0000000000000000e+00  -2.7088422792759236e+01 -3.6208563746393954e-04 0.0000000000000000e+00  -2.7087576609865014e+01 -3.5691198711073046e-04 0.0000000000000000e+00  -2.7086874465480218e+01 -2.9269239179141810e-04 0.0000000000000000e+00  -2.7086378122167837e+01 -2.1118709437481872e-04 0.0000000000000000e+00  -2.7086065960257681e+01 -1.4119650542659802e-04 0.0000000000000000e+00  -2.7085885570173307e+01 -9.2290421059805606e-05 0.0000000000000000e+00  -2.7085787533037777e+01 -6.2046817628107697e-05 0.0000000000000000e+00  -2.7085736538542893e+01 -4.4913609296001865e-05 0.0000000000000000e+00  -2.7085710786722249e+01 -3.5732733923188685e-05 0.0000000000000000e+00  -2.7085698025408625e+01 -3.1029547807942038e-05 0.0000000000000000e+00  -2.7085691761607833e+01 -2.8669085129692767e-05 0.0000000000000000e+00  -2.7085688696637970e+01 -2.7508880722873512e-05 0.0000000000000000e+00  -2.7085687191588409e+01 -2.6936828821433334e-05 0.0000000000000000e+00  -2.7085686448081670e+01 -2.6657827629394240e-05 0.0000000000000000e+00  -2.7085686077046848e+01 -2.6519128446868537e-05 0.0000000000000000e+00  -2.7085685890530801e+01 -2.6450938792351053e-05 0.0000000000000000e+00  -2.7085685795754202e+01 -2.6416413115955272e-05 0.0000000000000000e+00  -2.7085685747449482e+01 -2.6399218726166193e-05 0.0000000000000000e+00  -2.7085685722582692e+01 -2.6390365146498599e-05 0.0000000000000000e+00  -2.7085685709821238e+01 -2.6385900488447605e-05 0.0000000000000000e+00  -2.7085685703197793e+01 -2.6383582516276902e-05 0.0000000000000000e+00  -2.7085685699792840e+01 -2.6382397659212768e-05 0.0000000000000000e+00  -2.7085685698014817e+01 -2.6381786429567095e-05 0.0000000000000000e+00  -2.7085685697102129e+01 -2.6381465319837522e-05 0.0000000000000000e+00  -2.7085685696622807e+01 -2.6381305861117971e-05 0.0000000000000000e+00  -2.7085685696376522e+01 -2.6381216886844341e-05 0.0000000000000000e+00  -2.7085685696246241e+01 -2.6381176248707449e-05 0.0000000000000000e+00  -2.7085685696180143e+01 -2.6381151042311674e-05 0.0000000000000000e+00  -2.7085685696144246e+01 -2.6381140969307476e-05 0.0000000000000000e+00  -2.7085685696125690e+01 -2.6381133259395103e-05 0.0000000000000000e+00  -2.7085685696115171e+01 -2.6381131260311418e-05 0.0000000000000000e+00  -2.7085685696110783e+01 -2.6381128400587750e-05 0.0000000000000000e+00  -2.7085685696107369e+01 -2.6381127399386190e-05 0.0000000000000000e+00  -2.7085685696108456e+01 -2.6381128093519414e-05 0.0000000000000000e+00  -2.7085685696102509e+01 -2.6381125132267145e-05 0.0000000000000000e+00  -2.7085685696112684e+01 -2.6381131583411116e-05 0.0000000000000000e+00  -2.7085685696090902e+01 -2.6381117576985888e-05 0.0000000000000000e+00  -2.7085685696133659e+01 -2.6381145525636108e-05 0.0000000000000000e+00  -2.7085685696047683e+01 -2.6381089070533769e-05 0.0000000000000000e+00  -2.7085685696218558e+01 -2.6381202235553432e-05 0.0000000000000000e+00  -2.7085685695876276e+01 -2.6380978816145857e-05 0.0000000000000000e+00  -2.7085685696546921e+01 -2.6381419201901917e-05 0.0000000000000000e+00  -2.7085685695223084e+01 -2.6380560200350445e-05 0.0000000000000000e+00  -2.7085685697771211e+01 -2.6382230284399235e-05 0.0000000000000000e+00  -2.7085685692815595e+01 -2.6379025411005192e-05 0.0000000000000000e+00  -2.7085685702176207e+01 -2.6385151738468645e-05 0.0000000000000000e+00  -2.7085685684291921e+01 -2.6373620355852377e-05 0.0000000000000000e+00  -2.7085685717268195e+01 -2.6395235024877202e-05 0.0000000000000000e+00  -2.7085685655529382e+01 -2.6355467357788237e-05 0.0000000000000000e+00  -2.7085685766034249e+01 -2.6428350246893861e-05 0.0000000000000000e+00  -2.7085685563881096e+01 -2.6297764452556442e-05 0.0000000000000000e+00  -2.7085685912569122e+01 -2.6531176561325612e-05 0.0000000000000000e+00  -2.7085685290611160e+01 -2.6125372759687092e-05 0.0000000000000000e+00  -2.7085686314832383e+01 -2.6831956873655070e-05 0.0000000000000000e+00  -2.7085684532437636e+01 -2.5642813748630379e-05 0.0000000000000000e+00  -2.7085687302928154e+01 -2.7663824340078876e-05 0.0000000000000000e+00  -2.7085682565547724e+01 -2.4367250495892044e-05 0.0000000000000000e+00  -2.7085689437051158e+01 -2.9869660544490594e-05 0.0000000000000000e+00  -2.7085677695433628e+01 -2.1083877886373315e-05 0.0000000000000000e+00  -2.7085693545537737e+01 -3.5530060031902315e-05 0.0000000000000000e+00  -2.7085665990425600e+01 -1.2397942855381396e-05 0.0000000000000000e+00  -2.7085700538891814e+01 -4.9356740102920491e-05 0.0000000000000000e+00  -2.7085635807185177e+01 9.6998171903075608e-06 0.0000000000000000e+00  -2.7085684372584108e+01 -9.0432894414093940e-05 0.0000000000000000e+00  -2.7085468007365829e+01 1.5018211312818086e-05 0.0000000000000000e+00  -2.7085218582674081e+01 -3.4487299903501322e-04 0.0000000000000000e+00  -2.7084197922007359e+01 -3.4835259226202416e-04 0.0000000000000000e+00  -2.7082614722097880e+01 -1.1209311758462591e-03 0.0000000000000000e+00  -2.7081115276963935e+01 -1.2309140706410362e-04 0.0000000000000000e+00  -2.7078948996861328e+01 4.8549663503519454e-04 0.0000000000000000e+00  -2.7077023249241481e+01 2.4432509816236197e-03 0.0000000000000000e+00  -2.7072484608744553e+01 4.5160137971720351e-03 0.0000000000000000e+00  -2.7070342242843356e+01 4.2588664459232853e-03 0.0000000000000000e+00  -2.7059628127707459e+01 -3.6780615722301667e-03 0.0000000000000000e+00  -2.7036474394706563e+01 0.0000000000000000e+00 0.0000000000000000e+00  -3.3688671151816486e+01 0.0000000000000000e+00 0.0000000000000000e+00  -3.3691222498694067e+01 2.7421906600355872e-03 0.0000000000000000e+00  -3.3690154529777175e+01 3.0979109158135345e-03 0.0000000000000000e+00  -3.3689134072264451e+01 2.6819996385030040e-03 0.0000000000000000e+00  -3.3688390499274298e+01 2.3257053203623308e-03 0.0000000000000000e+00  -3.3687760311777588e+01 2.0895530852951100e-03 0.0000000000000000e+00  -3.3687202915140034e+01 2.0145221596784154e-03 0.0000000000000000e+00  -3.3686792415932111e+01 2.1320213815487423e-03 0.0000000000000000e+00  -3.3686583905044635e+01 2.3487814796441923e-03 0.0000000000000000e+00  -3.3686521155178674e+01 2.5490157004938413e-03 0.0000000000000000e+00  -3.3686520309461642e+01 2.6909447100362830e-03 0.0000000000000000e+00  -3.3686534104982606e+01 2.7784097249242191e-03 0.0000000000000000e+00  -3.3686545866575585e+01 2.8284994740577140e-03 0.0000000000000000e+00  -3.3686552915561741e+01 2.8556497287830344e-03 0.0000000000000000e+00  -3.3686556460078279e+01 2.8699150864625535e-03 0.0000000000000000e+00  -3.3686558113841386e+01 2.8771612011131544e-03 0.0000000000000000e+00  -3.3686558847036906e+01 2.8808054919756232e-03 0.0000000000000000e+00  -3.3686559178672709e+01 2.8825985265431525e-03 0.0000000000000000e+00  -3.3686559325080523e+01 2.8834897551269995e-03 0.0000000000000000e+00  -3.3686559394207961e+01 2.8839247233380626e-03 0.0000000000000000e+00  -3.3686559425085406e+01 2.8841435190154982e-03 0.0000000000000000e+00  -3.3686559440667025e+01 2.8842508003952337e-03 0.0000000000000000e+00  -3.3686559447689433e+01 2.8843059640901486e-03 0.0000000000000000e+00  -3.3686559451549527e+01 2.8843331683035480e-03 0.0000000000000000e+00  -3.3686559453274818e+01 2.8843474599574226e-03 0.0000000000000000e+00  -3.3686559454302824e+01 2.8843545203542376e-03 0.0000000000000000e+00  -3.3686559454743346e+01 2.8843582971743312e-03 0.0000000000000000e+00  -3.3686559455023229e+01 2.8843601585742261e-03 0.0000000000000000e+00  -3.3686559455137704e+01 2.8843611657418593e-03 0.0000000000000000e+00  -3.3686559455212517e+01 2.8843616642409654e-03 0.0000000000000000e+00  -3.3686559455242623e+01 2.8843619314128919e-03 0.0000000000000000e+00  -3.3686559455262191e+01 2.8843620673472000e-03 0.0000000000000000e+00  -3.3686559455270199e+01 2.8843621373320074e-03 0.0000000000000000e+00  -3.3686559455274356e+01 2.8843621758183479e-03 0.0000000000000000e+00  -3.3686559455278278e+01 2.8843621921549778e-03 0.0000000000000000e+00  -3.3686559455277866e+01 2.8843622052621390e-03 0.0000000000000000e+00  -3.3686559455279401e+01 2.8843622085989794e-03 0.0000000000000000e+00  -3.3686559455277852e+01 2.8843622127234011e-03 0.0000000000000000e+00  -3.3686559455281717e+01 2.8843622123655406e-03 0.0000000000000000e+00  -3.3686559455274804e+01 2.8843622158330126e-03 0.0000000000000000e+00  -3.3686559455288140e+01 2.8843622129397692e-03 0.0000000000000000e+00  -3.3686559455262461e+01 2.8843622190238057e-03 0.0000000000000000e+00  -3.3686559455312988e+01 2.8843622069906249e-03 0.0000000000000000e+00  -3.3686559455213455e+01 2.8843622316405398e-03 0.0000000000000000e+00  -3.3686559455409686e+01 2.8843621819592364e-03 0.0000000000000000e+00  -3.3686559455019712e+01 2.8843622782858212e-03 0.0000000000000000e+00  -3.3686559455780461e+01 2.8843620886774431e-03 0.0000000000000000e+00  -3.3686559454290922e+01 2.8843624508598821e-03 0.0000000000000000e+00  -3.3686559457145918e+01 2.8843617437819403e-03 0.0000000000000000e+00  -3.3686559451650140e+01 2.8843630683596804e-03 0.0000000000000000e+00  -3.3686559461969864e+01 2.8843605256659993e-03 0.0000000000000000e+00  -3.3686559442496950e+01 2.8843651757443148e-03 0.0000000000000000e+00  -3.3686559478143522e+01 2.8843564031594692e-03 0.0000000000000000e+00  -3.3686559412421055e+01 2.8843719529412200e-03 0.0000000000000000e+00  -3.3686559528982087e+01 2.8843431556005309e-03 0.0000000000000000e+00  -3.3686559319866156e+01 2.8843923114109998e-03 0.0000000000000000e+00  -3.3686559676250717e+01 2.8843028296568372e-03 0.0000000000000000e+00  -3.3686559056728093e+01 2.8844486269515132e-03 0.0000000000000000e+00  -3.3686560059978333e+01 2.8841862295700934e-03 0.0000000000000000e+00  -3.3686558374933526e+01 2.8845900406563592e-03 0.0000000000000000e+00  -3.3686560928037963e+01 2.8838609019303484e-03 0.0000000000000000e+00  -3.3686556772449229e+01 2.8849090532372824e-03 0.0000000000000000e+00  -3.3686562538107516e+01 2.8829580263028090e-03 0.0000000000000000e+00  -3.3686553249616878e+01 2.8855624205152779e-03 0.0000000000000000e+00  -3.3686564671809251e+01 2.8804048389531539e-03 0.0000000000000000e+00  -3.3686545120991084e+01 2.8868356715814765e-03 0.0000000000000000e+00  -3.3686564669770256e+01 2.8728912660158420e-03 0.0000000000000000e+00  -3.3686520822820349e+01 2.8875614566311260e-03 0.0000000000000000e+00  -3.3686541385381659e+01 2.8419055036726388e-03 0.0000000000000000e+00  -3.3686414751967547e+01 2.8440672354219398e-03 0.0000000000000000e+00  -3.3686347287523965e+01 2.6136923017817614e-03 0.0000000000000000e+00  -3.3685927296280646e+01 2.3618460028817650e-03 0.0000000000000000e+00  -3.3685454549974871e+01 1.4486606793926884e-03 0.0000000000000000e+00  -3.3684001694699418e+01 8.1231352864226945e-04 0.0000000000000000e+00  -3.3680555566736729e+01 -7.5491221956939148e-04 0.0000000000000000e+00  -3.3671629143421555e+01 -2.3736656458593947e-03 0.0000000000000000e+00  -3.3661462571998008e+01 -3.3834996593574418e-03 0.0000000000000000e+00  -3.3652780348036735e+01 -4.2696663058744606e-04 0.0000000000000000e+00  -3.3648971685731439e+01 -1.7586171293912014e-03 0.0000000000000000e+00  -3.3653349451531355e+01 3.9789631487051787e-03 0.0000000000000000e+00  -3.3666317450885366e+01 0.0000000000000000e+00 0.0000000000000000e+00  -3.2623583598905256e+01 0.0000000000000000e+00 0.0000000000000000e+00  -3.2620661336120840e+01 1.3006278468903000e-04 0.0000000000000000e+00  -3.2619535630992331e+01 4.6244481149740425e-05 0.0000000000000000e+00  -3.2619195114220751e+01 -2.2844287453839432e-04 0.0000000000000000e+00  -3.2619419503526238e+01 -4.6334432049187542e-04 0.0000000000000000e+00  -3.2619980047138654e+01 -6.1580118943761189e-04 0.0000000000000000e+00  -3.2620699747515808e+01 -6.4416387659097332e-04 0.0000000000000000e+00  -3.2621396402402766e+01 -4.9215597495160977e-04 0.0000000000000000e+00  -3.2621944125826815e+01 -2.6382404042073578e-04 0.0000000000000000e+00  -3.2622313559501201e+01 -8.3798639319219539e-05 0.0000000000000000e+00  -3.2622537484197650e+01 2.6214769734114284e-05 0.0000000000000000e+00  -3.2622663448689487e+01 8.7149326330254989e-05 0.0000000000000000e+00  -3.2622730920183031e+01 1.1986257670373106e-04 0.0000000000000000e+00  -3.2622765828680279e+01 1.3702115342941615e-04 0.0000000000000000e+00  -3.2622783544572478e+01 1.4595103277089590e-04 0.0000000000000000e+00  -3.2622792394769739e+01 1.5051929053935741e-04 0.0000000000000000e+00  -3.2622796797183312e+01 1.5284971380871457e-04 0.0000000000000000e+00  -3.2622798968574592e+01 1.5401461285238332e-04 0.0000000000000000e+00  -3.2622800047106523e+01 1.5460038187730719e-04 0.0000000000000000e+00  -3.2622800579835783e+01 1.5488932312091407e-04 0.0000000000000000e+00  -3.2622800847991975e+01 1.5503534567379092e-04 0.0000000000000000e+00  -3.2622800981697395e+01 1.5510738471305547e-04 0.0000000000000000e+00  -3.2622801050387125e+01 1.5514441137125663e-04 0.0000000000000000e+00  -3.2622801084855247e+01 1.5516274690412105e-04 0.0000000000000000e+00  -3.2622801102928662e+01 1.5517234173097630e-04 0.0000000000000000e+00  -3.2622801111964556e+01 1.5517710366426169e-04 0.0000000000000000e+00  -3.2622801116803053e+01 1.5517963598563362e-04 0.0000000000000000e+00  -3.2622801119188928e+01 1.5518088897220993e-04 0.0000000000000000e+00  -3.2622801120499631e+01 1.5518156608204973e-04 0.0000000000000000e+00  -3.2622801121131026e+01 1.5518189791172390e-04 0.0000000000000000e+00  -3.2622801121488209e+01 1.5518208102944318e-04 0.0000000000000000e+00  -3.2622801121657098e+01 1.5518216851972440e-04 0.0000000000000000e+00  -3.2622801121754833e+01 1.5518221852389466e-04 0.0000000000000000e+00  -3.2622801121799824e+01 1.5518224252827637e-04 0.0000000000000000e+00  -3.2622801121826988e+01 1.5518225651549493e-04 0.0000000000000000e+00  -3.2622801121840361e+01 1.5518226284504287e-04 0.0000000000000000e+00  -3.2622801121845889e+01 1.5518226685644747e-04 0.0000000000000000e+00  -3.262280