<?xml version="1.0"?>
<VTKFile type="UnstructuredGrid"  version="0.1"  >
<UnstructuredGrid>
<Piece  NumberOfPoints="1369" NumberOfCells="2560">
<Points>
<DataArray  type="Float64"  NumberOfComponents="3"  format="ascii">0 0 0  0.75 0 0  1.5 0 0  2.25 0 0  3 0 0  3.75 0 0  4.5 0 0  5.25 0 0  6 0 0  6.75 0 0  7.5 0 0  8.25 0 0  9 0 0  9.75 0 0  10.5 0 0  11.25 0 0  12 0 0  12.75 0 0  13.5 0 0  14.25 0 0  15 0 0  15.75 0 0  16.5 0 0  17.25 0 0  18 0 0  18.75 0 0  19.5 0 0  20.25 0 0  21 0 0  21.75 0 0  22.5 0 0  23.25 0 0  24 0 0  24.75 0 0  25.5 0 0  26.25 0 0  27 0 0  27.75 0 0  28.5 0 0  29.25 0 0  30 0 0  30.75 0 0  31.5 0 0  32.25 0 0  33 0 0  33.75 0 0  34.5 0 0  35.25 0 0  36 0 0  36.75 0 0  37.5 0 0  38.25 0 0  39 0 0  39.75 0 0  40.5 0 0  41.25 0 0  42 0 0  42.75 0 0  43.5 0 0  44.25 0 0  45 0 0  45.75 0 0  46.5 0 0  47.25 0 0  48 0 0  48.75 0 0  49.5 0 0  50.25 0 0  51 0 0  51.75 0 0  52.5 0 0  53.25 0 0  54 0 0  54.75 0 0  55.5 0 0  56.25 0 0  57 0 0  57.75 0 0  58.5 0 0  59.25 0 0  60 0 0  0 0.5 0  0.75 0.5 0  1.5 0.5 0  2.25 0.5 0  3 0.5 0  3.75 0.5 0  4.5 0.5 0  5.25 0.5 0  6 0.5 0  6.75 0.5 0  7.5 0.5 0  8.25 0.5 0  9 0.5 0  9.75 0.5 0  10.5 0.5 0  11.25 0.5 0  12 0.5 0  12.75 0.5 0  13.5 0.5 0  14.25 0.5 0  15 0.5 0  15.75 0.5 0  16.5 0.5 0  17.25 0.5 0  18 0.5 0  18.75 0.5 0  19.5 0.5 0  20.25 0.5 0  21 0.5 0  21.75 0.5 0  22.5 0.5 0  23.25 0.5 0  24 0.5 0  24.75 0.5 0  25.5 0.5 0  26.25 0.5 0  27 0.5 0  27.75 0.5 0  28.5 0.5 0  29.25 0.5 0  30 0.5 0  30.75 0.5 0  31.5 0.5 0  32.25 0.5 0  33 0.5 0  33.75 0.5 0  34.5 0.5 0  35.25 0.5 0  36 0.5 0  36.75 0.5 0  37.5 0.5 0  38.25 0.5 0  39 0.5 0  39.75 0.5 0  40.5 0.5 0  41.25 0.5 0  42 0.5 0  42.75 0.5 0  43.5 0.5 0  44.25 0.5 0  45 0.5 0  45.75 0.5 0  46.5 0.5 0  47.25 0.5 0  48 0.5 0  48.75 0.5 0  49.5 0.5 0  50.25 0.5 0  51 0.5 0  51.75 0.5 0  52.5 0.5 0  53.25 0.5 0  54 0.5 0  54.75 0.5 0  55.5 0.5 0  56.25 0.5 0  57 0.5 0  57.75 0.5 0  58.5 0.5 0  59.25 0.5 0  60 0.5 0  0 1 0  0.75 1 0  1.5 1 0  2.25 1 0  3 1 0  3.75 1 0  4.5 1 0  5.25 1 0  6 1 0  6.75 1 0  7.5 1 0  8.25 1 0  9 1 0  9.75 1 0  10.5 1 0  11.25 1 0  12 1 0  12.75 1 0  13.5 1 0  14.25 1 0  15 1 0  15.75 1 0  16.5 1 0  17.25 1 0  18 1 0  18.75 1 0  19.5 1 0  20.25 1 0  21 1 0  21.75 1 0  22.5 1 0  23.25 1 0  24 1 0  24.75 1 0  25.5 1 0  26.25 1 0  27 1 0  27.75 1 0  28.5 1 0  29.25 1 0  30 1 0  30.75 1 0  31.5 1 0  32.25 1 0  33 1 0  33.75 1 0  34.5 1 0  35.25 1 0  36 1 0  36.75 1 0  37.5 1 0  38.25 1 0  39 1 0  39.75 1 0  40.5 1 0  41.25 1 0  42 1 0  42.75 1 0  43.5 1 0  44.25 1 0  45 1 0  45.75 1 0  46.5 1 0  47.25 1 0  48 1 0  48.75 1 0  49.5 1 0  50.25 1 0  51 1 0  51.75 1 0  52.5 1 0  53.25 1 0  54 1 0  54.75 1 0  55.5 1 0  56.25 1 0  57 1 0  57.75 1 0  58.5 1 0  59.25 1 0  60 1 0  0 1.5 0  0.75 1.5 0  1.5 1.5 0  2.25 1.5 0  3 1.5 0  3.75 1.5 0  4.5 1.5 0  5.25 1.5 0  6 1.5 0  6.75 1.5 0  7.5 1.5 0  8.25 1.5 0  9 1.5 0  9.75 1.5 0  10.5 1.5 0  11.25 1.5 0  12 1.5 0  12.75 1.5 0  13.5 1.5 0  14.25 1.5 0  15 1.5 0  15.75 1.5 0  16.5 1.5 0  17.25 1.5 0  18 1.5 0  18.75 1.5 0  19.5 1.5 0  20.25 1.5 0  21 1.5 0  21.75 1.5 0  22.5 1.5 0  23.25 1.5 0  24 1.5 0  24.75 1.5 0  25.5 1.5 0  26.25 1.5 0  27 1.5 0  27.75 1.5 0  28.5 1.5 0  29.25 1.5 0  30 1.5 0  30.75 1.5 0  31.5 1.5 0  32.25 1.5 0  33 1.5 0  33.75 1.5 0  34.5 1.5 0  35.25 1.5 0  36 1.5 0  36.75 1.5 0  37.5 1.5 0  38.25 1.5 0  39 1.5 0  39.75 1.5 0  40.5 1.5 0  41.25 1.5 0  42 1.5 0  42.75 1.5 0  43.5 1.5 0  44.25 1.5 0  45 1.5 0  45.75 1.5 0  46.5 1.5 0  47.25 1.5 0  48 1.5 0  48.75 1.5 0  49.5 1.5 0  50.25 1.5 0  51 1.5 0  51.75 1.5 0  52.5 1.5 0  53.25 1.5 0  54 1.5 0  54.75 1.5 0  55.5 1.5 0  56.25 1.5 0  57 1.5 0  57.75 1.5 0  58.5 1.5 0  59.25 1.5 0  60 1.5 0  0 2 0  0.75 2 0  1.5 2 0  2.25 2 0  3 2 0  3.75 2 0  4.5 2 0  5.25 2 0  6 2 0  6.75 2 0  7.5 2 0  8.25 2 0  9 2 0  9.75 2 0  10.5 2 0  11.25 2 0  12 2 0  12.75 2 0  13.5 2 0  14.25 2 0  15 2 0  15.75 2 0  16.5 2 0  17.25 2 0  18 2 0  18.75 2 0  19.5 2 0  20.25 2 0  21 2 0  21.75 2 0  22.5 2 0  23.25 2 0  24 2 0  24.75 2 0  25.5 2 0  26.25 2 0  27 2 0  27.75 2 0  28.5 2 0  29.25 2 0  30 2 0  30.75 2 0  31.5 2 0  32.25 2 0  33 2 0  33.75 2 0  34.5 2 0  35.25 2 0  36 2 0  36.75 2 0  37.5 2 0  38.25 2 0  39 2 0  39.75 2 0  40.5 2 0  41.25 2 0  42 2 0  42.75 2 0  43.5 2 0  44.25 2 0  45 2 0  45.75 2 0  46.5 2 0  47.25 2 0  48 2 0  48.75 2 0  49.5 2 0  50.25 2 0  51 2 0  51.75 2 0  52.5 2 0  53.25 2 0  54 2 0  54.75 2 0  55.5 2 0  56.25 2 0  57 2 0  57.75 2 0  58.5 2 0  59.25 2 0  60 2 0  0 2.5 0  0.75 2.5 0  1.5 2.5 0  2.25 2.5 0  3 2.5 0  3.75 2.5 0  4.5 2.5 0  5.25 2.5 0  6 2.5 0  6.75 2.5 0  7.5 2.5 0  8.25 2.5 0  9 2.5 0  9.75 2.5 0  10.5 2.5 0  11.25 2.5 0  12 2.5 0  12.75 2.5 0  13.5 2.5 0  14.25 2.5 0  15 2.5 0  15.75 2.5 0  16.5 2.5 0  17.25 2.5 0  18 2.5 0  18.75 2.5 0  19.5 2.5 0  20.25 2.5 0  21 2.5 0  21.75 2.5 0  22.5 2.5 0  23.25 2.5 0  24 2.5 0  24.75 2.5 0  25.5 2.5 0  26.25 2.5 0  27 2.5 0  27.75 2.5 0  28.5 2.5 0  29.25 2.5 0  30 2.5 0  30.75 2.5 0  31.5 2.5 0  32.25 2.5 0  33 2.5 0  33.75 2.5 0  34.5 2.5 0  35.25 2.5 0  36 2.5 0  36.75 2.5 0  37.5 2.5 0  38.25 2.5 0  39 2.5 0  39.75 2.5 0  40.5 2.5 0  41.25 2.5 0  42 2.5 0  42.75 2.5 0  43.5 2.5 0  44.25 2.5 0  45 2.5 0  45.75 2.5 0  46.5 2.5 0  47.25 2.5 0  48 2.5 0  48.75 2.5 0  49.5 2.5 0  50.25 2.5 0  51 2.5 0  51.75 2.5 0  52.5 2.5 0  53.25 2.5 0  54 2.5 0  54.75 2.5 0  55.5 2.5 0  56.25 2.5 0  57 2.5 0  57.75 2.5 0  58.5 2.5 0  59.25 2.5 0  60 2.5 0  0 3 0  0.75 3 0  1.5 3 0  2.25 3 0  3 3 0  3.75 3 0  4.5 3 0  5.25 3 0  6 3 0  6.75 3 0  7.5 3 0  8.25 3 0  9 3 0  9.75 3 0  10.5 3 0  11.25 3 0  12 3 0  12.75 3 0  13.5 3 0  14.25 3 0  15 3 0  15.75 3 0  16.5 3 0  17.25 3 0  18 3 0  18.75 3 0  19.5 3 0  20.25 3 0  21 3 0  21.75 3 0  22.5 3 0  23.25 3 0  24 3 0  24.75 3 0  25.5 3 0  26.25 3 0  27 3 0  27.75 3 0  28.5 3 0  29.25 3 0  30 3 0  30.75 3 0  31.5 3 0  32.25 3 0  33 3 0  33.75 3 0  34.5 3 0  35.25 3 0  36 3 0  36.75 3 0  37.5 3 0  38.25 3 0  39 3 0  39.75 3 0  40.5 3 0  41.25 3 0  42 3 0  42.75 3 0  43.5 3 0  44.25 3 0  45 3 0  45.75 3 0  46.5 3 0  47.25 3 0  48 3 0  48.75 3 0  49.5 3 0  50.25 3 0  51 3 0  51.75 3 0  52.5 3 0  53.25 3 0  54 3 0  54.75 3 0  55.5 3 0  56.25 3 0  57 3 0  57.75 3 0  58.5 3 0  59.25 3 0  60 3 0  0 3.5 0  0.75 3.5 0  1.5 3.5 0  2.25 3.5 0  3 3.5 0  3.75 3.5 0  4.5 3.5 0  5.25 3.5 0  6 3.5 0  6.75 3.5 0  7.5 3.5 0  8.25 3.5 0  9 3.5 0  9.75 3.5 0  10.5 3.5 0  11.25 3.5 0  12 3.5 0  12.75 3.5 0  13.5 3.5 0  14.25 3.5 0  15 3.5 0  15.75 3.5 0  16.5 3.5 0  17.25 3.5 0  18 3.5 0  18.75 3.5 0  19.5 3.5 0  20.25 3.5 0  21 3.5 0  21.75 3.5 0  22.5 3.5 0  23.25 3.5 0  24 3.5 0  24.75 3.5 0  25.5 3.5 0  26.25 3.5 0  27 3.5 0  27.75 3.5 0  28.5 3.5 0  29.25 3.5 0  30 3.5 0  30.75 3.5 0  31.5 3.5 0  32.25 3.5 0  33 3.5 0  33.75 3.5 0  34.5 3.5 0  35.25 3.5 0  36 3.5 0  36.75 3.5 0  37.5 3.5 0  38.25 3.5 0  39 3.5 0  39.75 3.5 0  40.5 3.5 0  41.25 3.5 0  42 3.5 0  42.75 3.5 0  43.5 3.5 0  44.25 3.5 0  45 3.5 0  45.75 3.5 0  46.5 3.5 0  47.25 3.5 0  48 3.5 0  48.75 3.5 0  49.5 3.5 0  50.25 3.5 0  51 3.5 0  51.75 3.5 0  52.5 3.5 0  53.25 3.5 0  54 3.5 0  54.75 3.5 0  55.5 3.5 0  56.25 3.5 0  57 3.5 0  57.75 3.5 0  58.5 3.5 0  59.25 3.5 0  60 3.5 0  0 4 0  0.75 4 0  1.5 4 0  2.25 4 0  3 4 0  3.75 4 0  4.5 4 0  5.25 4 0  6 4 0  6.75 4 0  7.5 4 0  8.25 4 0  9 4 0  9.75 4 0  10.5 4 0  11.25 4 0  12 4 0  12.75 4 0  13.5 4 0  14.25 4 0  15 4 0  15.75 4 0  16.5 4 0  17.25 4 0  18 4 0  18.75 4 0  19.5 4 0  20.25 4 0  21 4 0  21.75 4 0  22.5 4 0  23.25 4 0  24 4 0  24.75 4 0  25.5 4 0  26.25 4 0  27 4 0  27.75 4 0  28.5 4 0  29.25 4 0  30 4 0  30.75 4 0  31.5 4 0  32.25 4 0  33 4 0  33.75 4 0  34.5 4 0  35.25 4 0  36 4 0  36.75 4 0  37.5 4 0  38.25 4 0  39 4 0  39.75 4 0  40.5 4 0  41.25 4 0  42 4 0  42.75 4 0  43.5 4 0  44.25 4 0  45 4 0  45.75 4 0  46.5 4 0  47.25 4 0  48 4 0  48.75 4 0  49.5 4 0  50.25 4 0  51 4 0  51.75 4 0  52.5 4 0  53.25 4 0  54 4 0  54.75 4 0  55.5 4 0  56.25 4 0  57 4 0  57.75 4 0  58.5 4 0  59.25 4 0  60 4 0  0.375 0.25 0  1.125 0.25 0  1.875 0.25 0  2.625 0.25 0  3.375 0.25 0  4.125 0.25 0  4.875 0.25 0  5.625 0.25 0  6.375 0.25 0  7.125 0.25 0  7.875 0.25 0  8.625 0.25 0  9.375 0.25 0  10.125 0.25 0  10.875 0.25 0  11.625 0.25 0  12.375 0.25 0  13.125 0.25 0  13.875 0.25 0  14.625 0.25 0  15.375 0.25 0  16.125 0.25 0  16.875 0.25 0  17.625 0.25 0  18.375 0.25 0  19.125 0.25 0  19.875 0.25 0  20.625 0.25 0  21.375 0.25 0  22.125 0.25 0  22.875 0.25 0  23.625 0.25 0  24.375 0.25 0  25.125 0.25 0  25.875 0.25 0  26.625 0.25 0  27.375 0.25 0  28.125 0.25 0  28.875 0.25 0  29.625 0.25 0  30.375 0.25 0  31.125 0.25 0  31.875 0.25 0  32.625 0.25 0  33.375 0.25 0  34.125 0.25 0  34.875 0.25 0  35.625 0.25 0  36.375 0.25 0  37.125 0.25 0  37.875 0.25 0  38.625 0.25 0  39.375 0.25 0  40.125 0.25 0  40.875 0.25 0  41.625 0.25 0  42.375 0.25 0  43.125 0.25 0  43.875 0.25 0  44.625 0.25 0  45.375 0.25 0  46.125 0.25 0  46.875 0.25 0  47.625 0.25 0  48.375 0.25 0  49.125 0.25 0  49.875 0.25 0  50.625 0.25 0  51.375 0.25 0  52.125 0.25 0  52.875 0.25 0  53.625 0.25 0  54.375 0.25 0  55.125 0.25 0  55.875 0.25 0  56.625 0.25 0  57.375 0.25 0  58.125 0.25 0  58.875 0.25 0  59.625 0.25 0  0.375 0.75 0  1.125 0.75 0  1.875 0.75 0  2.625 0.75 0  3.375 0.75 0  4.125 0.75 0  4.875 0.75 0  5.625 0.75 0  6.375 0.75 0  7.125 0.75 0  7.875 0.75 0  8.625 0.75 0  9.375 0.75 0  10.125 0.75 0  10.875 0.75 0  11.625 0.75 0  12.375 0.75 0  13.125 0.75 0  13.875 0.75 0  14.625 0.75 0  15.375 0.75 0  16.125 0.75 0  16.875 0.75 0  17.625 0.75 0  18.375 0.75 0  19.125 0.75 0  19.875 0.75 0  20.625 0.75 0  21.375 0.75 0  22.125 0.75 0  22.875 0.75 0  23.625 0.75 0  24.375 0.75 0  25.125 0.75 0  25.875 0.75 0  26.625 0.75 0  27.375 0.75 0  28.125 0.75 0  28.875 0.75 0  29.625 0.75 0  30.375 0.75 0  31.125 0.75 0  31.875 0.75 0  32.625 0.75 0  33.375 0.75 0  34.125 0.75 0  34.875 0.75 0  35.625 0.75 0  36.375 0.75 0  37.125 0.75 0  37.875 0.75 0  38.625 0.75 0  39.375 0.75 0  40.125 0.75 0  40
[...]
<PointData  Vectors="f_8-0"> 
<DataArray  type="Float64"  Name="f_8-0"  NumberOfComponents="3" format="ascii">0.0000000000000000e+00 0.0000000000000000e+00 0.0000000000000000e+00  0.0000000000000000e+00 0.0000000000000000e+00 0.0000000000000000e+00  0.0000000000000000e+00 0.0000000000000000e+00 0.0000000000000000e+00  0.0000000000000000e+00 0.0000000000000000e+00 0.0000000000000000e+00  0.0000000000000000e+00 0.0000000000000000e+00 0.0000000000000000e+00  0.0000000000000000e+00 0.0000000000000000e+00 0.0000000000000000e+00  0.0000000000000000e+00 0.0000000000000000e+00 0.0000000000000000e+00  0.0000000000000000e+00 0.0000000000000000e+00 0.0000000000000000e+00  0.0000000000000000e+00 0.0000000000000000e+00 0.0000000000000000e+00  0.0000000000000000e+00 0.0000000000000000e+00 0.0000000000000000e+00  0.0000000000000000e+00 0.0000000000000000e+00 0.0000000000000000e+00  0.0000000000000000e+00 0.0000000000000000e+00 0.0000000000000000e+00  0.0000000000000000e+00 0.0000000000000000e+00 0.0000000000000000e+00  0.0000000000000000e+00 0.0000000000000000e+00 0.0000000000000000e+00  0.0000000000000000e+00 0.0000000000000000e+00 0.0000000000000000e+00  0.0000000000000000e+00 0.0000000000000000e+00 0.0000000000000000e+00  0.0000000000000000e+00 0.0000000000000000e+00 0.0000000000000000e+00  0.0000000000000000e+00 0.0000000000000000e+00 0.0000000000000000e+00  0.0000000000000000e+00 0.0000000000000000e+00 0.0000000000000000e+00  0.0000000000000000e+00 0.0000000000000000e+00 0.0000000000000000e+00  0.0000000000000000e+00 0.0000000000000000e+00 0.0000000000000000e+00  0.0000000000000000e+00 0.0000000000000000e+00 0.0000000000000000e+00  0.0000000000000000e+00 0.0000000000000000e+00 0.0000000000000000e+00  0.0000000000000000e+00 0.0000000000000000e+00 0.0000000000000000e+00  0.0000000000000000e+00 0.0000000000000000e+00 0.0000000000000000e+00  0.0000000000000000e+00 0.0000000000000000e+00 0.0000000000000000e+00  0.0000000000000000e+00 0.0000000000000000e+00 0.0000000000000000e+00  0.0000000000000000e+00 0.0000000000000000e+00 0.0000000000000000e+00  0.0000000000000000e+00 0.0000000000000000e+00 0.0000000000000000e+00  0.0000000000000000e+00 0.0000000000000000e+00 0.0000000000000000e+00  0.0000000000000000e+00 0.0000000000000000e+00 0.0000000000000000e+00  0.0000000000000000e+00 0.0000000000000000e+00 0.0000000000000000e+00  0.0000000000000000e+00 0.0000000000000000e+00 0.0000000000000000e+00  0.0000000000000000e+00 0.0000000000000000e+00 0.0000000000000000e+00  0.0000000000000000e+00 0.0000000000000000e+00 0.0000000000000000e+00  0.0000000000000000e+00 0.0000000000000000e+00 0.0000000000000000e+00  0.0000000000000000e+00 0.0000000000000000e+00 0.0000000000000000e+00  0.0000000000000000e+00 0.0000000000000000e+00 0.0000000000000000e+00  0.0000000000000000e+00 0.0000000000000000e+00 0.0000000000000000e+00  0.0000000000000000e+00 0.0000000000000000e+00 0.0000000000000000e+00  0.0000000000000000e+00 0.0000000000000000e+00 0.0000000000000000e+00  0.0000000000000000e+00 0.0000000000000000e+00 0.0000000000000000e+00  0.0000000000000000e+00 0.0000000000000000e+00 0.0000000000000000e+00  0.0000000000000000e+00 0.0000000000000000e+00 0.0000000000000000e+00  0.0000000000000000e+00 0.0000000000000000e+00 0.0000000000000000e+00  0.0000000000000000e+00 0.0000000000000000e+00 0.0000000000000000e+00  0.0000000000000000e+00 0.0000000000000000e+00 0.0000000000000000e+00  0.0000000000000000e+00 0.0000000000000000e+00 0.0000000000000000e+00  0.0000000000000000e+00 0.0000000000000000e+00 0.0000000000000000e+00  0.0000000000000000e+00 0.0000000000000000e+00 0.0000000000000000e+00  0.0000000000000000e+00 0.0000000000000000e+00 0.0000000000000000e+00  0.0000000000000000e+00 0.0000000000000000e+00 0.0000000000000000e+00  0.0000000000000000e+00 0.0000000000000000e+00 0.0000000000000000e+00  0.0000000000000000e+00 0.0000000000000000e+00 0.0000000000000000e+00  0.0000000000000000e+00 0.0000000000000000e+00 0.0000000000000000e+00  0.0000000000000000e+00 0.0000000000000000e+00 0.0000000000000000e+00  0.0000000000000000e+00 0.0000000000000000e+00 0.0000000000000000e+00  0.0000000000000000e+00 0.0000000000000000e+00 0.0000000000000000e+00  0.0000000000000000e+00 0.0000000000000000e+00 0.0000000000000000e+00  0.0000000000000000e+00 0.0000000000000000e+00 0.0000000000000000e+00  0.0000000000000000e+00 0.0000000000000000e+00 0.0000000000000000e+00  0.0000000000000000e+00 0.0000000000000000e+00 0.0000000000000000e+00  0.0000000000000000e+00 0.0000000000000000e+00 0.0000000000000000e+00  0.0000000000000000e+00 0.0000000000000000e+00 0.0000000000000000e+00  0.0000000000000000e+00 0.0000000000000000e+00 0.0000000000000000e+00  0.0000000000000000e+00 0.0000000000000000e+00 0.0000000000000000e+00  0.0000000000000000e+00 0.0000000000000000e+00 0.0000000000000000e+00  0.0000000000000000e+00 0.0000000000000000e+00 0.0000000000000000e+00  0.0000000000000000e+00 0.0000000000000000e+00 0.0000000000000000e+00  0.0000000000000000e+00 0.0000000000000000e+00 0.0000000000000000e+00  0.0000000000000000e+00 0.0000000000000000e+00 0.0000000000000000e+00  0.0000000000000000e+00 0.0000000000000000e+00 0.0000000000000000e+00  0.0000000000000000e+00 0.0000000000000000e+00 0.0000000000000000e+00  0.0000000000000000e+00 0.0000000000000000e+00 0.0000000000000000e+00  0.0000000000000000e+00 0.0000000000000000e+00 0.0000000000000000e+00  0.0000000000000000e+00 0.0000000000000000e+00 0.0000000000000000e+00  0.0000000000000000e+00 0.0000000000000000e+00 0.0000000000000000e+00  0.0000000000000000e+00 0.0000000000000000e+00 0.0000000000000000e+00  0.0000000000000000e+00 0.0000000000000000e+00 0.0000000000000000e+00  0.0000000000000000e+00 0.0000000000000000e+00 0.0000000000000000e+00  0.0000000000000000e+00 0.0000000000000000e+00 0.0000000000000000e+00  -1.5411347029284597e+01 0.0000000000000000e+00 0.0000000000000000e+00  -1.5445789883887198e+01 1.1789584216271459e-03 0.0000000000000000e+00  -1.5468672507400200e+01 8.6057904340525147e-03 0.0000000000000000e+00  -1.5481480278817182e+01 9.0893830068531842e-03 0.0000000000000000e+00  -1.5490869883336392e+01 8.1422015533048394e-03 0.0000000000000000e+00  -1.5496969342649558e+01 6.7912318412854953e-03 0.0000000000000000e+00  -1.5500135166670793e+01 5.6423720851283025e-03 0.0000000000000000e+00  -1.5501110832036600e+01 4.7972621486081267e-03 0.0000000000000000e+00  -1.5500619910637132e+01 4.2917594759646488e-03 0.0000000000000000e+00  -1.5499299899970117e+01 3.9884193153784343e-03 0.0000000000000000e+00  -1.5497448505331294e+01 3.8115958861031289e-03 0.0000000000000000e+00  -1.5495409858840766e+01 3.8112312464012765e-03 0.0000000000000000e+00  -1.5493640355126070e+01 3.9799049350981615e-03 0.0000000000000000e+00  -1.5492413571477579e+01 4.2037566467245224e-03 0.0000000000000000e+00  -1.5491703667847091e+01 4.3874376077740057e-03 0.0000000000000000e+00  -1.5491349211453928e+01 4.5017411106936288e-03 0.0000000000000000e+00  -1.5491190364177729e+01 4.5607954246069185e-03 0.0000000000000000e+00  -1.5491124757388567e+01 4.5872604447114015e-03 0.0000000000000000e+00  -1.5491098297435618e+01 4.5980503446431710e-03 0.0000000000000000e+00  -1.5491087545804634e+01 4.6022356529142813e-03 0.0000000000000000e+00  -1.5491082784716610e+01 4.6038890416608500e-03 0.0000000000000000e+00  -1.5491080586289977e+01 4.6045951107477803e-03 0.0000000000000000e+00  -1.5491079469001480e+01 4.6049214054916191e-03 0.0000000000000000e+00  -1.5491078920542915e+01 4.6050868026974810e-03 0.0000000000000000e+00  -1.5491078629111854e+01 4.6051678109191056e-03 0.0000000000000000e+00  -1.5491078488375873e+01 4.6052122526999547e-03 0.0000000000000000e+00  -1.5491078412272053e+01 4.6052323285654881e-03 0.0000000000000000e+00  -1.5491078376874476e+01 4.6052446416933734e-03 0.0000000000000000e+00  -1.5491078357212610e+01 4.6052491700779730e-03 0.0000000000000000e+00  -1.5491078348491630e+01 4.6052527588988697e-03 0.0000000000000000e+00  -1.5491078343483061e+01 4.6052535779650596e-03 0.0000000000000000e+00  -1.5491078341357218e+01 4.6052547063578737e-03 0.0000000000000000e+00  -1.5491078340116401e+01 4.6052547508550271e-03 0.0000000000000000e+00  -1.5491078339583233e+01 4.6052551393471319e-03 0.0000000000000000e+00  -1.5491078339297149e+01 4.6052550775576529e-03 0.0000000000000000e+00  -1.5491078339148423e+01 4.6052552194993995e-03 0.0000000000000000e+00  -1.5491078339097381e+01 4.6052551748319518e-03 0.0000000000000000e+00  -1.5491078339046732e+01 4.6052552271135536e-03 0.0000000000000000e+00  -1.5491078339045718e+01 4.6052552063092925e-03 0.0000000000000000e+00  -1.5491078339023312e+01 4.6052552249806001e-03 0.0000000000000000e+00  -1.5491078339030464e+01 4.6052552147024476e-03 0.0000000000000000e+00  -1.5491078339018996e+01 4.6052552227739321e-03 0.0000000000000000e+00  -1.5491078339025147e+01 4.6052552196124133e-03 0.0000000000000000e+00  -1.5491078339021067e+01 4.6052552219333839e-03 0.0000000000000000e+00  -1.5491078339024428e+01 4.6052552214589457e-03 0.0000000000000000e+00  -1.5491078339022010e+01 4.6052552226177618e-03 0.0000000000000000e+00  -1.5491078339023598e+01 4.6052552215858555e-03 0.0000000000000000e+00  -1.5491078339021863e+01 4.6052552208043131e-03 0.0000000000000000e+00  -1.5491078339021961e+01 4.6052552207428996e-03 0.0000000000000000e+00  -1.5491078339018641e+01 4.6052552203226758e-03 0.0000000000000000e+00  -1.5491078339014221e+01 4.6052552201266269e-03 0.0000000000000000e+00  -1.5491078339008940e+01 4.6052552178785415e-03 0.0000000000000000e+00  -1.5491078338995838e+01 4.6052552152840700e-03 0.0000000000000000e+00  -1.5491078338968157e+01 4.6052552099095532e-03 0.0000000000000000e+00  -1.5491078338912715e+01 4.6052551975016261e-03 0.0000000000000000e+00  -1.5491078338803598e+01 4.6052551707180750e-03 0.0000000000000000e+00  -1.5491078338578783e+01 4.6052551211184277e-03 0.0000000000000000e+00  -1.5491078338125513e+01 4.6052550166337273e-03 0.0000000000000000e+00  -1.5491078337202683e+01 4.6052548078246471e-03 0.0000000000000000e+00  -1.5491078335329659e+01 4.6052543783785416e-03 0.0000000000000000e+00  -1.5491078331519518e+01 4.6052535130305947e-03 0.0000000000000000e+00  -1.5491078323798112e+01 4.6052517452377763e-03 0.0000000000000000e+00  -1.5491078308107243e+01 4.6052481811232312e-03 0.0000000000000000e+00  -1.5491078276457522e+01 4.6052409560580201e-03 0.0000000000000000e+00  -1.5491078212233328e+01 4.6052264224866945e-03 0.0000000000000000e+00  -1.5491078084569194e+01 4.6051973663033419e-03 0.0000000000000000e+00  -1.5491077823386744e+01 4.6051390890999144e-03 0.0000000000000000e+00  -1.5491077328078303e+01 4.6050262968820744e-03 0.0000000000000000e+00  -1.5491076251888588e+01 4.6047955728345715e-03 0.0000000000000000e+00  -1.5491074536627659e+01 4.6043955082857623e-03 0.0000000000000000e+00  -1.5491069658185703e+01 4.6034429847315941e-03 0.0000000000000000e+00  -1.5491066161266266e+01 4.6024919764757581e-03 0.0000000000000000e+00  -1.5491037909777559e+01 4.5975750153395833e-03 0.0000000000000000e+00  -1.5491060975369342e+01 4.6021147758254898e-03 0.0000000000000000e+00  -1.5490856120863148e+01 4.5662506660551425e-03 0.0000000000000000e+00  -1.5491254646630074e+01 4.6697817371910656e-03 0.0000000000000000e+00  -1.5489977475028940e+01 4.4694184135286681e-03 0.0000000000000000e+00  -1.5492683636503756e+01 5.0704601369852900e-03 0.0000000000000000e+00  -1.5493099772582235e+01 1.0749109021494160e-02 0.0000000000000000e+00  -1.5498721247147779e+01 4.5857813110549553e-02 0.0000000000000000e+00  -1.5526053100234543e+01 0.0000000000000000e+00 0.0000000000000000e+00  -1.1003237547577761e+01 0.0000000000000000e+00 0.0000000000000000e+00  -1.1022188968674113e+01 1.4217033440867114e-02 0.0000000000000000e+00  -1.1024940154786545e+01 9.4423275431993799e-03 0.0000000000000000e+00  -1.1027378925593471e+01 7.5217896967058034e-03 0.0000000000000000e+00  -1.1028604119335274e+01 4.7635261907764551e-03 0.0000000000000000e+00  -1.1029147602925251e+01 1.9620582518451160e-03 0.0000000000000000e+00  -1.1029327476175780e+01 -3.7714582087841934e-04 0.0000000000000000e+00  -1.1029211668403564e+01 -2.0859587142353850e-03 0.0000000000000000e+00  -1.1028820031899857e+01 -3.1645683775750819e-03 0.0000000000000000e+00  -1.1028237550460739e+01 -3.7909585102116525e-03 0.0000000000000000e+00  -1.1027467287585450e+01 -4.2207251550602492e-03 0.0000000000000000e+00  -1.1026402836860004e+01 -4.2865579771046314e-03 0.0000000000000000e+00  -1.1025274869965935e+01 -3.9021601133156069e-03 0.0000000000000000e+00  -1.1024371884440374e+01 -3.3371958458121298e-03 0.0000000000000000e+00  -1.1023795268065584e+01 -2.8612360973856222e-03 0.0000000000000000e+00  -1.1023479845578684e+01 -2.5608677425886179e-03 0.0000000000000000e+00  -1.1023327446012432e+01 -2.4041402696166666e-03 0.0000000000000000e+00  -1.1023259330158288e+01 -2.3329112928209775e-03 0.0000000000000000e+00  -1.1023230951656080e+01 -2.3035655129233267e-03 0.0000000000000000e+00  -1.1023219109755440e+01 -2.2920774694061728e-03 0.0000000000000000e+00  -1.1023214229499349e+01 -2.2875484978214736e-03 0.0000000000000000e+00  -1.1023211994718640e+01 -2.2856350382208556e-03 0.0000000000000000e+00  -1.1023210988511991e+01 -2.2847556593073924e-03 0.0000000000000000e+00  -1.1023210461576767e+01 -2.2843206930733885e-03 0.0000000000000000e+00  -1.1023210215886870e+01 -2.2841011222326339e-03 0.0000000000000000e+00  -1.1023210077617236e+01 -2.2839875351826234e-03 0.0000000000000000e+00  -1.1023210015553818e+01 -2.2839304965293892e-03 0.0000000000000000e+00  -1.1023209978782065e+01 -2.2839007144934763e-03 0.0000000000000000e+00  -1.1023209963451867e+01 -2.2838862235715633e-03 0.0000000000000000e+00  -1.1023209953781112e+01 -2.2838784930534622e-03 0.0000000000000000e+00  -1.1023209950086059e+01 -2.2838749043729632e-03 0.0000000000000000e+00  -1.1023209947609070e+01 -2.2838729178727476e-03 0.0000000000000000e+00  -1.1023209946704933e+01 -2.2838720492243808e-03 0.0000000000000000e+00  -1.1023209946111281e+01 -2.2838715422714741e-03 0.0000000000000000e+00  -1.1023209945861637e+01 -2.2838713367528511e-03 0.0000000000000000e+00  -1.1023209945747702e+01 -2.2838712094531144e-03 0.0000000000000000e+00  -1.1023209945657767e+01 -2.2838711599190466e-03 0.0000000000000000e+00  -1.1023209945655401e+01 -2.2838711294029946e-03 0.0000000000000000e+00  -1.1023209945614509e+01 -2.2838711174440656e-03 0.0000000000000000e+00  -1.1023209945629375e+01 -2.2838711110215494e-03 0.0000000000000000e+00  -1.1023209945608281e+01 -2.2838711076765229e-03 0.0000000000000000e+00  -1.1023209945618211e+01 -2.2838711059620528e-03 0.0000000000000000e+00  -1.1023209945607563e+01 -2.2838711048507646e-03 0.0000000000000000e+00  -1.1023209945615333e+01 -2.2838711050421731e-03 0.0000000000000000e+00  -1.1023209945610196e+01 -2.2838711028874054e-03 0.0000000000000000e+00  -1.1023209945614491e+01 -2.2838711041244411e-03 0.0000000000000000e+00  -1.1023209945612972e+01 -2.2838711043332263e-03 0.0000000000000000e+00  -1.1023209945614481e+01 -2.2838711046142333e-03 0.0000000000000000e+00  -1.1023209945612756e+01 -2.2838711048847565e-03 0.0000000000000000e+00  -1.1023209945613077e+01 -2.2838711065264771e-03 0.0000000000000000e+00  -1.1023209945608894e+01 -2.2838711081725185e-03 0.0000000000000000e+00  -1.1023209945607253e+01 -2.2838711128763426e-03 0.0000000000000000e+00  -1.1023209945599515e+01 -2.2838711221669292e-03 0.0000000000000000e+00  -1.1023209945586988e+01 -2.2838711389615105e-03 0.0000000000000000e+00  -1.1023209945559342e+01 -2.2838711756744817e-03 0.0000000000000000e+00  -1.1023209945507848e+01 -2.2838712481549730e-03 0.0000000000000000e+00  -1.1023209945399923e+01 -2.2838713954711695e-03 0.0000000000000000e+00  -1.1023209945187224e+01 -2.2838716961296065e-03 0.0000000000000000e+00  -1.1023209944746824e+01 -2.2838723077444685e-03 0.0000000000000000e+00  -1.1023209943863593e+01 -2.2838735464375819e-03 0.0000000000000000e+00  -1.1023209942051050e+01 -2.2838760705454694e-03 0.0000000000000000e+00  -1.1023209938402644e+01 -2.2838811718741336e-03 0.0000000000000000e+00  -1.1023209930974044e+01 -2.2838915127433137e-03 0.0000000000000000e+00  -1.1023209916026421e+01 -2.2839123246692216e-03 0.0000000000000000e+00  -1.1023209885920590e+01 -2.2839541137289632e-03 0.0000000000000000e+00  -1.1023209825512273e+01 -2.2840376886484673e-03 0.0000000000000000e+00  -1.1023209706139927e+01 -2.2842025069007761e-03 0.0000000000000000e+00  -1.1023209465384026e+01 -2.2845318074979611e-03 0.0000000000000000e+00  -1.1023209010534359e+01 -2.2851543759150289e-03 0.0000000000000000e+00  -1.1023208042886981e+01 -2.2864495635505269e-03 0.0000000000000000e+00  -1.1023206458784438e+01 -2.2885693367279362e-03 0.0000000000000000e+00  -1.1023202193130023e+01 -2.2940964801104269e-03 0.0000000000000000e+00  -1.1023198220310420e+01 -2.2984986579344300e-03 0.0000000000000000e+00  -1.1023174425157240e+01 -2.3289564505621159e-03 0.0000000000000000e+00  -1.1023182886457777e+01 -2.2970511530570445e-03 0.0000000000000000e+00  -1.1023013416353480e+01 -2.5205300218328047e-03 0.0000000000000000e+00  -1.1023272168760840e+01 -1.8337434957880422e-03 0.0000000000000000e+00  -1.1022058528648319e+01 -3.2864946996166455e-03 0.0000000000000000e+00  -1.1022802006197702e+01 4.6406743485449750e-03 0.0000000000000000e+00  -1.1000249404910015e+01 -6.7075610687265521e-03 0.0000000000000000e+00  -1.1026378473503431e+01 0.0000000000000000e+00 0.0000000000000000e+00  -7.5750693644705107e+00 0.0000000000000000e+00 0.0000000000000000e+00  -7.5666653914810249e+00 8.4207704183140615e-03 0.0000000000000000e+00  -7.5541515400468899e+00 8.0745349084236240e-03 0.0000000000000000e+00  -7.5433971280817698e+00 6.6371960466912105e-03 0.0000000000000000e+00  -7.5351113662211100e+00 4.8418227045859130e-03 0.0000000000000000e+00  -7.5297932206153924e+00 3.0032746553506308e-03 0.0000000000000000e+00  -7.5269543865268265e+00 1.4356326178701132e-03 0.0000000000000000e+00  -7.5260677588926637e+00 2.5891941753636288e-04 0.0000000000000000e+00  -7.5264327581166892e+00 -5.7298488584704905e-04 0.0000000000000000e+00  -7.5275530076307549e+00 -1.0452370969661700e-03 0.0000000000000000e+00  -7.5291139699218483e+00 -1.4407600166578725e-03 0.0000000000000000e+00  -7.5308896413006261e+00 -1.6526476596356410e-03 0.0000000000000000e+00  -7.5324588277104887e+00 -1.4282711162812865e-03 0.0000000000000000e+00  -7.5335577255096524e+00 -9.3062042835213464e-04 0.0000000000000000e+00  -7.5341855362011847e+00 -4.5665214773923609e-04 0.0000000000000000e+00  -7.5344947917857557e+00 -1.3682225792104158e-04 0.0000000000000000e+00  -7.5346284079225816e+00 3.8109500850532648e-05 0.0000000000000000e+00  -7.5346822868548688e+00 1.2123803258269114e-04 0.0000000000000000e+00  -7.5347027362088284e+00 1.5674662379000422e-04 0.0000000000000000e+00  -7.5347111506973530e+00 1.7107362486803432e-04 0.0000000000000000e+00  -7.5347146741498143e+00 1.7672163678630852e-04 0.0000000000000000e+00  -7.5347164879412007e+00 1.7908147197640608e-04 0.0000000000000000e+00  -7.5347173341265288e+00 1.8011744117390555e-04 0.0000000000000000e+00  -7.5347178232822074e+00 1.8062492187064045e-04 0.0000000000000000e+00  -7.5347180414077730e+00 1.8087126602981977e-04 0.0000000000000000e+00  -7.5347181748033458e+00 1.8100165339085111e-04 0.0000000000000000e+00  -7.5347182280780549e+00 1.8106504989190959e-04 0.0000000000000000e+00  -7.5347182642236623e+00 1.8109943455147528e-04 0.0000000000000000e+00  -7.5347182763999534e+00 1.8111558472107424e-04 0.0000000000000000e+00  -7.5347182862811319e+00 1.8112456525843217e-04 0.0000000000000000e+00  -7.5347182888478192e+00 1.8112858766643750e-04 0.0000000000000000e+00  -7.5347182915514113e+00 1.8113089226693191e-04 0.0000000000000000e+00  -7.5347182920589795e+00 1.8113187674446984e-04 0.0000000000000000e+00  -7.5347182927680159e+00 1.8113245242605785e-04 0.0000000000000000e+00  -7.5347182928848193e+00 1.8113269843085650e-04 0.0000000000000000e+00  -7.5347182930441416e+00 1.8113283515481024e-04 0.0000000000000000e+00  -7.5347182930969563e+00 1.8113290293615635e-04 0.0000000000000000e+00  -7.5347182