<?xml version="1.0"?>
<VTKFile type="UnstructuredGrid"  version="0.1"  >
<UnstructuredGrid>
<Piece  NumberOfPoints="1369" NumberOfCells="2560">
<Points>
<DataArray  type="Float64"  NumberOfComponents="3"  format="ascii">0 0 0  0.75 0 0  1.5 0 0  2.25 0 0  3 0 0  3.75 0 0  4.5 0 0  5.25 0 0  6 0 0  6.75 0 0  7.5 0 0  8.25 0 0  9 0 0  9.75 0 0  10.5 0 0  11.25 0 0  12 0 0  12.75 0 0  13.5 0 0  14.25 0 0  15 0 0  15.75 0 0  16.5 0 0  17.25 0 0  18 0 0  18.75 0 0  19.5 0 0  20.25 0 0  21 0 0  21.75 0 0  22.5 0 0  23.25 0 0  24 0 0  24.75 0 0  25.5 0 0  26.25 0 0  27 0 0  27.75 0 0  28.5 0 0  29.25 0 0  30 0 0  30.75 0 0  31.5 0 0  32.25 0 0  33 0 0  33.75 0 0  34.5 0 0  35.25 0 0  36 0 0  36.75 0 0  37.5 0 0  38.25 0 0  39 0 0  39.75 0 0  40.5 0 0  41.25 0 0  42 0 0  42.75 0 0  43.5 0 0  44.25 0 0  45 0 0  45.75 0 0  46.5 0 0  47.25 0 0  48 0 0  48.75 0 0  49.5 0 0  50.25 0 0  51 0 0  51.75 0 0  52.5 0 0  53.25 0 0  54 0 0  54.75 0 0  55.5 0 0  56.25 0 0  57 0 0  57.75 0 0  58.5 0 0  59.25 0 0  60 0 0  0 0.5 0  0.75 0.5 0  1.5 0.5 0  2.25 0.5 0  3 0.5 0  3.75 0.5 0  4.5 0.5 0  5.25 0.5 0  6 0.5 0  6.75 0.5 0  7.5 0.5 0  8.25 0.5 0  9 0.5 0  9.75 0.5 0  10.5 0.5 0  11.25 0.5 0  12 0.5 0  12.75 0.5 0  13.5 0.5 0  14.25 0.5 0  15 0.5 0  15.75 0.5 0  16.5 0.5 0  17.25 0.5 0  18 0.5 0  18.75 0.5 0  19.5 0.5 0  20.25 0.5 0  21 0.5 0  21.75 0.5 0  22.5 0.5 0  23.25 0.5 0  24 0.5 0  24.75 0.5 0  25.5 0.5 0  26.25 0.5 0  27 0.5 0  27.75 0.5 0  28.5 0.5 0  29.25 0.5 0  30 0.5 0  30.75 0.5 0  31.5 0.5 0  32.25 0.5 0  33 0.5 0  33.75 0.5 0  34.5 0.5 0  35.25 0.5 0  36 0.5 0  36.75 0.5 0  37.5 0.5 0  38.25 0.5 0  39 0.5 0  39.75 0.5 0  40.5 0.5 0  41.25 0.5 0  42 0.5 0  42.75 0.5 0  43.5 0.5 0  44.25 0.5 0  45 0.5 0  45.75 0.5 0  46.5 0.5 0  47.25 0.5 0  48 0.5 0  48.75 0.5 0  49.5 0.5 0  50.25 0.5 0  51 0.5 0  51.75 0.5 0  52.5 0.5 0  53.25 0.5 0  54 0.5 0  54.75 0.5 0  55.5 0.5 0  56.25 0.5 0  57 0.5 0  57.75 0.5 0  58.5 0.5 0  59.25 0.5 0  60 0.5 0  0 1 0  0.75 1 0  1.5 1 0  2.25 1 0  3 1 0  3.75 1 0  4.5 1 0  5.25 1 0  6 1 0  6.75 1 0  7.5 1 0  8.25 1 0  9 1 0  9.75 1 0  10.5 1 0  11.25 1 0  12 1 0  12.75 1 0  13.5 1 0  14.25 1 0  15 1 0  15.75 1 0  16.5 1 0  17.25 1 0  18 1 0  18.75 1 0  19.5 1 0  20.25 1 0  21 1 0  21.75 1 0  22.5 1 0  23.25 1 0  24 1 0  24.75 1 0  25.5 1 0  26.25 1 0  27 1 0  27.75 1 0  28.5 1 0  29.25 1 0  30 1 0  30.75 1 0  31.5 1 0  32.25 1 0  33 1 0  33.75 1 0  34.5 1 0  35.25 1 0  36 1 0  36.75 1 0  37.5 1 0  38.25 1 0  39 1 0  39.75 1 0  40.5 1 0  41.25 1 0  42 1 0  42.75 1 0  43.5 1 0  44.25 1 0  45 1 0  45.75 1 0  46.5 1 0  47.25 1 0  48 1 0  48.75 1 0  49.5 1 0  50.25 1 0  51 1 0  51.75 1 0  52.5 1 0  53.25 1 0  54 1 0  54.75 1 0  55.5 1 0  56.25 1 0  57 1 0  57.75 1 0  58.5 1 0  59.25 1 0  60 1 0  0 1.5 0  0.75 1.5 0  1.5 1.5 0  2.25 1.5 0  3 1.5 0  3.75 1.5 0  4.5 1.5 0  5.25 1.5 0  6 1.5 0  6.75 1.5 0  7.5 1.5 0  8.25 1.5 0  9 1.5 0  9.75 1.5 0  10.5 1.5 0  11.25 1.5 0  12 1.5 0  12.75 1.5 0  13.5 1.5 0  14.25 1.5 0  15 1.5 0  15.75 1.5 0  16.5 1.5 0  17.25 1.5 0  18 1.5 0  18.75 1.5 0  19.5 1.5 0  20.25 1.5 0  21 1.5 0  21.75 1.5 0  22.5 1.5 0  23.25 1.5 0  24 1.5 0  24.75 1.5 0  25.5 1.5 0  26.25 1.5 0  27 1.5 0  27.75 1.5 0  28.5 1.5 0  29.25 1.5 0  30 1.5 0  30.75 1.5 0  31.5 1.5 0  32.25 1.5 0  33 1.5 0  33.75 1.5 0  34.5 1.5 0  35.25 1.5 0  36 1.5 0  36.75 1.5 0  37.5 1.5 0  38.25 1.5 0  39 1.5 0  39.75 1.5 0  40.5 1.5 0  41.25 1.5 0  42 1.5 0  42.75 1.5 0  43.5 1.5 0  44.25 1.5 0  45 1.5 0  45.75 1.5 0  46.5 1.5 0  47.25 1.5 0  48 1.5 0  48.75 1.5 0  49.5 1.5 0  50.25 1.5 0  51 1.5 0  51.75 1.5 0  52.5 1.5 0  53.25 1.5 0  54 1.5 0  54.75 1.5 0  55.5 1.5 0  56.25 1.5 0  57 1.5 0  57.75 1.5 0  58.5 1.5 0  59.25 1.5 0  60 1.5 0  0 2 0  0.75 2 0  1.5 2 0  2.25 2 0  3 2 0  3.75 2 0  4.5 2 0  5.25 2 0  6 2 0  6.75 2 0  7.5 2 0  8.25 2 0  9 2 0  9.75 2 0  10.5 2 0  11.25 2 0  12 2 0  12.75 2 0  13.5 2 0  14.25 2 0  15 2 0  15.75 2 0  16.5 2 0  17.25 2 0  18 2 0  18.75 2 0  19.5 2 0  20.25 2 0  21 2 0  21.75 2 0  22.5 2 0  23.25 2 0  24 2 0  24.75 2 0  25.5 2 0  26.25 2 0  27 2 0  27.75 2 0  28.5 2 0  29.25 2 0  30 2 0  30.75 2 0  31.5 2 0  32.25 2 0  33 2 0  33.75 2 0  34.5 2 0  35.25 2 0  36 2 0  36.75 2 0  37.5 2 0  38.25 2 0  39 2 0  39.75 2 0  40.5 2 0  41.25 2 0  42 2 0  42.75 2 0  43.5 2 0  44.25 2 0  45 2 0  45.75 2 0  46.5 2 0  47.25 2 0  48 2 0  48.75 2 0  49.5 2 0  50.25 2 0  51 2 0  51.75 2 0  52.5 2 0  53.25 2 0  54 2 0  54.75 2 0  55.5 2 0  56.25 2 0  57 2 0  57.75 2 0  58.5 2 0  59.25 2 0  60 2 0  0 2.5 0  0.75 2.5 0  1.5 2.5 0  2.25 2.5 0  3 2.5 0  3.75 2.5 0  4.5 2.5 0  5.25 2.5 0  6 2.5 0  6.75 2.5 0  7.5 2.5 0  8.25 2.5 0  9 2.5 0  9.75 2.5 0  10.5 2.5 0  11.25 2.5 0  12 2.5 0  12.75 2.5 0  13.5 2.5 0  14.25 2.5 0  15 2.5 0  15.75 2.5 0  16.5 2.5 0  17.25 2.5 0  18 2.5 0  18.75 2.5 0  19.5 2.5 0  20.25 2.5 0  21 2.5 0  21.75 2.5 0  22.5 2.5 0  23.25 2.5 0  24 2.5 0  24.75 2.5 0  25.5 2.5 0  26.25 2.5 0  27 2.5 0  27.75 2.5 0  28.5 2.5 0  29.25 2.5 0  30 2.5 0  30.75 2.5 0  31.5 2.5 0  32.25 2.5 0  33 2.5 0  33.75 2.5 0  34.5 2.5 0  35.25 2.5 0  36 2.5 0  36.75 2.5 0  37.5 2.5 0  38.25 2.5 0  39 2.5 0  39.75 2.5 0  40.5 2.5 0  41.25 2.5 0  42 2.5 0  42.75 2.5 0  43.5 2.5 0  44.25 2.5 0  45 2.5 0  45.75 2.5 0  46.5 2.5 0  47.25 2.5 0  48 2.5 0  48.75 2.5 0  49.5 2.5 0  50.25 2.5 0  51 2.5 0  51.75 2.5 0  52.5 2.5 0  53.25 2.5 0  54 2.5 0  54.75 2.5 0  55.5 2.5 0  56.25 2.5 0  57 2.5 0  57.75 2.5 0  58.5 2.5 0  59.25 2.5 0  60 2.5 0  0 3 0  0.75 3 0  1.5 3 0  2.25 3 0  3 3 0  3.75 3 0  4.5 3 0  5.25 3 0  6 3 0  6.75 3 0  7.5 3 0  8.25 3 0  9 3 0  9.75 3 0  10.5 3 0  11.25 3 0  12 3 0  12.75 3 0  13.5 3 0  14.25 3 0  15 3 0  15.75 3 0  16.5 3 0  17.25 3 0  18 3 0  18.75 3 0  19.5 3 0  20.25 3 0  21 3 0  21.75 3 0  22.5 3 0  23.25 3 0  24 3 0  24.75 3 0  25.5 3 0  26.25 3 0  27 3 0  27.75 3 0  28.5 3 0  29.25 3 0  30 3 0  30.75 3 0  31.5 3 0  32.25 3 0  33 3 0  33.75 3 0  34.5 3 0  35.25 3 0  36 3 0  36.75 3 0  37.5 3 0  38.25 3 0  39 3 0  39.75 3 0  40.5 3 0  41.25 3 0  42 3 0  42.75 3 0  43.5 3 0  44.25 3 0  45 3 0  45.75 3 0  46.5 3 0  47.25 3 0  48 3 0  48.75 3 0  49.5 3 0  50.25 3 0  51 3 0  51.75 3 0  52.5 3 0  53.25 3 0  54 3 0  54.75 3 0  55.5 3 0  56.25 3 0  57 3 0  57.75 3 0  58.5 3 0  59.25 3 0  60 3 0  0 3.5 0  0.75 3.5 0  1.5 3.5 0  2.25 3.5 0  3 3.5 0  3.75 3.5 0  4.5 3.5 0  5.25 3.5 0  6 3.5 0  6.75 3.5 0  7.5 3.5 0  8.25 3.5 0  9 3.5 0  9.75 3.5 0  10.5 3.5 0  11.25 3.5 0  12 3.5 0  12.75 3.5 0  13.5 3.5 0  14.25 3.5 0  15 3.5 0  15.75 3.5 0  16.5 3.5 0  17.25 3.5 0  18 3.5 0  18.75 3.5 0  19.5 3.5 0  20.25 3.5 0  21 3.5 0  21.75 3.5 0  22.5 3.5 0  23.25 3.5 0  24 3.5 0  24.75 3.5 0  25.5 3.5 0  26.25 3.5 0  27 3.5 0  27.75 3.5 0  28.5 3.5 0  29.25 3.5 0  30 3.5 0  30.75 3.5 0  31.5 3.5 0  32.25 3.5 0  33 3.5 0  33.75 3.5 0  34.5 3.5 0  35.25 3.5 0  36 3.5 0  36.75 3.5 0  37.5 3.5 0  38.25 3.5 0  39 3.5 0  39.75 3.5 0  40.5 3.5 0  41.25 3.5 0  42 3.5 0  42.75 3.5 0  43.5 3.5 0  44.25 3.5 0  45 3.5 0  45.75 3.5 0  46.5 3.5 0  47.25 3.5 0  48 3.5 0  48.75 3.5 0  49.5 3.5 0  50.25 3.5 0  51 3.5 0  51.75 3.5 0  52.5 3.5 0  53.25 3.5 0  54 3.5 0  54.75 3.5 0  55.5 3.5 0  56.25 3.5 0  57 3.5 0  57.75 3.5 0  58.5 3.5 0  59.25 3.5 0  60 3.5 0  0 4 0  0.75 4 0  1.5 4 0  2.25 4 0  3 4 0  3.75 4 0  4.5 4 0  5.25 4 0  6 4 0  6.75 4 0  7.5 4 0  8.25 4 0  9 4 0  9.75 4 0  10.5 4 0  11.25 4 0  12 4 0  12.75 4 0  13.5 4 0  14.25 4 0  15 4 0  15.75 4 0  16.5 4 0  17.25 4 0  18 4 0  18.75 4 0  19.5 4 0  20.25 4 0  21 4 0  21.75 4 0  22.5 4 0  23.25 4 0  24 4 0  24.75 4 0  25.5 4 0  26.25 4 0  27 4 0  27.75 4 0  28.5 4 0  29.25 4 0  30 4 0  30.75 4 0  31.5 4 0  32.25 4 0  33 4 0  33.75 4 0  34.5 4 0  35.25 4 0  36 4 0  36.75 4 0  37.5 4 0  38.25 4 0  39 4 0  39.75 4 0  40.5 4 0  41.25 4 0  42 4 0  42.75 4 0  43.5 4 0  44.25 4 0  45 4 0  45.75 4 0  46.5 4 0  47.25 4 0  48 4 0  48.75 4 0  49.5 4 0  50.25 4 0  51 4 0  51.75 4 0  52.5 4 0  53.25 4 0  54 4 0  54.75 4 0  55.5 4 0  56.25 4 0  57 4 0  57.75 4 0  58.5 4 0  59.25 4 0  60 4 0  0.375 0.25 0  1.125 0.25 0  1.875 0.25 0  2.625 0.25 0  3.375 0.25 0  4.125 0.25 0  4.875 0.25 0  5.625 0.25 0  6.375 0.25 0  7.125 0.25 0  7.875 0.25 0  8.625 0.25 0  9.375 0.25 0  10.125 0.25 0  10.875 0.25 0  11.625 0.25 0  12.375 0.25 0  13.125 0.25 0  13.875 0.25 0  14.625 0.25 0  15.375 0.25 0  16.125 0.25 0  16.875 0.25 0  17.625 0.25 0  18.375 0.25 0  19.125 0.25 0  19.875 0.25 0  20.625 0.25 0  21.375 0.25 0  22.125 0.25 0  22.875 0.25 0  23.625 0.25 0  24.375 0.25 0  25.125 0.25 0  25.875 0.25 0  26.625 0.25 0  27.375 0.25 0  28.125 0.25 0  28.875 0.25 0  29.625 0.25 0  30.375 0.25 0  31.125 0.25 0  31.875 0.25 0  32.625 0.25 0  33.375 0.25 0  34.125 0.25 0  34.875 0.25 0  35.625 0.25 0  36.375 0.25 0  37.125 0.25 0  37.875 0.25 0  38.625 0.25 0  39.375 0.25 0  40.125 0.25 0  40.875 0.25 0  41.625 0.25 0  42.375 0.25 0  43.125 0.25 0  43.875 0.25 0  44.625 0.25 0  45.375 0.25 0  46.125 0.25 0  46.875 0.25 0  47.625 0.25 0  48.375 0.25 0  49.125 0.25 0  49.875 0.25 0  50.625 0.25 0  51.375 0.25 0  52.125 0.25 0  52.875 0.25 0  53.625 0.25 0  54.375 0.25 0  55.125 0.25 0  55.875 0.25 0  56.625 0.25 0  57.375 0.25 0  58.125 0.25 0  58.875 0.25 0  59.625 0.25 0  0.375 0.75 0  1.125 0.75 0  1.875 0.75 0  2.625 0.75 0  3.375 0.75 0  4.125 0.75 0  4.875 0.75 0  5.625 0.75 0  6.375 0.75 0  7.125 0.75 0  7.875 0.75 0  8.625 0.75 0  9.375 0.75 0  10.125 0.75 0  10.875 0.75 0  11.625 0.75 0  12.375 0.75 0  13.125 0.75 0  13.875 0.75 0  14.625 0.75 0  15.375 0.75 0  16.125 0.75 0  16.875 0.75 0  17.625 0.75 0  18.375 0.75 0  19.125 0.75 0  19.875 0.75 0  20.625 0.75 0  21.375 0.75 0  22.125 0.75 0  22.875 0.75 0  23.625 0.75 0  24.375 0.75 0  25.125 0.75 0  25.875 0.75 0  26.625 0.75 0  27.375 0.75 0  28.125 0.75 0  28.875 0.75 0  29.625 0.75 0  30.375 0.75 0  31.125 0.75 0  31.875 0.75 0  32.625 0.75 0  33.375 0.75 0  34.125 0.75 0  34.875 0.75 0  35.625 0.75 0  36.375 0.75 0  37.125 0.75 0  37.875 0.75 0  38.625 0.75 0  39.375 0.75 0  40.125 0.75 0  40
[...]
<PointData  Vectors="f_8-0"> 
<DataArray  type="Float64"  Name="f_8-0"  NumberOfComponents="3" format="ascii">0.0000000000000000e+00 0.0000000000000000e+00 0.0000000000000000e+00  0.0000000000000000e+00 0.0000000000000000e+00 0.0000000000000000e+00  0.0000000000000000e+00 0.0000000000000000e+00 0.0000000000000000e+00  0.0000000000000000e+00 0.0000000000000000e+00 0.0000000000000000e+00  0.0000000000000000e+00 0.0000000000000000e+00 0.0000000000000000e+00  0.0000000000000000e+00 0.0000000000000000e+00 0.0000000000000000e+00  0.0000000000000000e+00 0.0000000000000000e+00 0.0000000000000000e+00  0.0000000000000000e+00 0.0000000000000000e+00 0.0000000000000000e+00  0.0000000000000000e+00 0.0000000000000000e+00 0.0000000000000000e+00  0.0000000000000000e+00 0.0000000000000000e+00 0.0000000000000000e+00  0.0000000000000000e+00 0.0000000000000000e+00 0.0000000000000000e+00  0.0000000000000000e+00 0.0000000000000000e+00 0.0000000000000000e+00  0.0000000000000000e+00 0.0000000000000000e+00 0.0000000000000000e+00  0.0000000000000000e+00 0.0000000000000000e+00 0.0000000000000000e+00  0.0000000000000000e+00 0.0000000000000000e+00 0.0000000000000000e+00  0.0000000000000000e+00 0.0000000000000000e+00 0.0000000000000000e+00  0.0000000000000000e+00 0.0000000000000000e+00 0.0000000000000000e+00  0.0000000000000000e+00 0.0000000000000000e+00 0.0000000000000000e+00  0.0000000000000000e+00 0.0000000000000000e+00 0.0000000000000000e+00  0.0000000000000000e+00 0.0000000000000000e+00 0.0000000000000000e+00  0.0000000000000000e+00 0.0000000000000000e+00 0.0000000000000000e+00  0.0000000000000000e+00 0.0000000000000000e+00 0.0000000000000000e+00  0.0000000000000000e+00 0.0000000000000000e+00 0.0000000000000000e+00  0.0000000000000000e+00 0.0000000000000000e+00 0.0000000000000000e+00  0.0000000000000000e+00 0.0000000000000000e+00 0.0000000000000000e+00  0.0000000000000000e+00 0.0000000000000000e+00 0.0000000000000000e+00  0.0000000000000000e+00 0.0000000000000000e+00 0.0000000000000000e+00  0.0000000000000000e+00 0.0000000000000000e+00 0.0000000000000000e+00  0.0000000000000000e+00 0.0000000000000000e+00 0.0000000000000000e+00  0.0000000000000000e+00 0.0000000000000000e+00 0.0000000000000000e+00  0.0000000000000000e+00 0.0000000000000000e+00 0.0000000000000000e+00  0.0000000000000000e+00 0.0000000000000000e+00 0.0000000000000000e+00  0.0000000000000000e+00 0.0000000000000000e+00 0.0000000000000000e+00  0.0000000000000000e+00 0.0000000000000000e+00 0.0000000000000000e+00  0.0000000000000000e+00 0.0000000000000000e+00 0.0000000000000000e+00  0.0000000000000000e+00 0.0000000000000000e+00 0.0000000000000000e+00  0.0000000000000000e+00 0.0000000000000000e+00 0.0000000000000000e+00  0.0000000000000000e+00 0.0000000000000000e+00 0.0000000000000000e+00  0.0000000000000000e+00 0.0000000000000000e+00 0.0000000000000000e+00  0.0000000000000000e+00 0.0000000000000000e+00 0.0000000000000000e+00  0.0000000000000000e+00 0.0000000000000000e+00 0.0000000000000000e+00  0.0000000000000000e+00 0.0000000000000000e+00 0.0000000000000000e+00  0.0000000000000000e+00 0.0000000000000000e+00 0.0000000000000000e+00  0.0000000000000000e+00 0.0000000000000000e+00 0.0000000000000000e+00  0.0000000000000000e+00 0.0000000000000000e+00 0.0000000000000000e+00  0.0000000000000000e+00 0.0000000000000000e+00 0.0000000000000000e+00  0.0000000000000000e+00 0.0000000000000000e+00 0.0000000000000000e+00  0.0000000000000000e+00 0.0000000000000000e+00 0.0000000000000000e+00  0.0000000000000000e+00 0.0000000000000000e+00 0.0000000000000000e+00  0.0000000000000000e+00 0.0000000000000000e+00 0.0000000000000000e+00  0.0000000000000000e+00 0.0000000000000000e+00 0.0000000000000000e+00  0.0000000000000000e+00 0.0000000000000000e+00 0.0000000000000000e+00  0.0000000000000000e+00 0.0000000000000000e+00 0.0000000000000000e+00  0.0000000000000000e+00 0.0000000000000000e+00 0.0000000000000000e+00  0.0000000000000000e+00 0.0000000000000000e+00 0.0000000000000000e+00  0.0000000000000000e+00 0.0000000000000000e+00 0.0000000000000000e+00  0.0000000000000000e+00 0.0000000000000000e+00 0.0000000000000000e+00  0.0000000000000000e+00 0.0000000000000000e+00 0.0000000000000000e+00  0.0000000000000000e+00 0.0000000000000000e+00 0.0000000000000000e+00  0.0000000000000000e+00 0.0000000000000000e+00 0.0000000000000000e+00  0.0000000000000000e+00 0.0000000000000000e+00 0.0000000000000000e+00  0.0000000000000000e+00 0.0000000000000000e+00 0.0000000000000000e+00  0.0000000000000000e+00 0.0000000000000000e+00 0.0000000000000000e+00  0.0000000000000000e+00 0.0000000000000000e+00 0.0000000000000000e+00  0.0000000000000000e+00 0.0000000000000000e+00 0.0000000000000000e+00  0.0000000000000000e+00 0.0000000000000000e+00 0.0000000000000000e+00  0.0000000000000000e+00 0.0000000000000000e+00 0.0000000000000000e+00  0.0000000000000000e+00 0.0000000000000000e+00 0.0000000000000000e+00  0.0000000000000000e+00 0.0000000000000000e+00 0.0000000000000000e+00  0.0000000000000000e+00 0.0000000000000000e+00 0.0000000000000000e+00  0.0000000000000000e+00 0.0000000000000000e+00 0.0000000000000000e+00  0.0000000000000000e+00 0.0000000000000000e+00 0.0000000000000000e+00  0.0000000000000000e+00 0.0000000000000000e+00 0.0000000000000000e+00  0.0000000000000000e+00 0.0000000000000000e+00 0.0000000000000000e+00  0.0000000000000000e+00 0.0000000000000000e+00 0.0000000000000000e+00  0.0000000000000000e+00 0.0000000000000000e+00 0.0000000000000000e+00  0.0000000000000000e+00 0.0000000000000000e+00 0.0000000000000000e+00  0.0000000000000000e+00 0.0000000000000000e+00 0.0000000000000000e+00  0.0000000000000000e+00 0.0000000000000000e+00 0.0000000000000000e+00  0.0000000000000000e+00 0.0000000000000000e+00 0.0000000000000000e+00  0.0000000000000000e+00 0.0000000000000000e+00 0.0000000000000000e+00  6.2888825308226401e+00 0.0000000000000000e+00 0.0000000000000000e+00  6.2816282374091248e+00 -6.0868162681044127e-02 0.0000000000000000e+00  6.2673896141871541e+00 -1.5955392848459662e-02 0.0000000000000000e+00  6.2589618481260407e+00 -3.4202489085228805e-03 0.0000000000000000e+00  6.2488670274356615e+00 -2.2413832996072557e-03 0.0000000000000000e+00  6.2386690389067256e+00 -1.9842597024760408e-03 0.0000000000000000e+00  6.2342348069556346e+00 -4.4006859304073160e-03 0.0000000000000000e+00  6.2321870419394516e+00 -5.1902933250899154e-03 0.0000000000000000e+00  6.2334662107335816e+00 -6.3366957263194870e-03 0.0000000000000000e+00  6.2356491761171453e+00 -6.6092757513909533e-03 0.0000000000000000e+00  6.2391719326588726e+00 -6.9452182612505086e-03 0.0000000000000000e+00  6.2424765568647418e+00 -6.6591448371657643e-03 0.0000000000000000e+00  6.2452944021859276e+00 -6.3635284962372876e-03 0.0000000000000000e+00  6.2470551650273443e+00 -5.9624335414117224e-03 0.0000000000000000e+00  6.2481041522157668e+00 -5.7492488626136456e-03 0.0000000000000000e+00  6.2485841613894451e+00 -5.5951728548489345e-03 0.0000000000000000e+00  6.2488232726385018e+00 -5.5465902263618595e-03 0.0000000000000000e+00  6.2489118087634559e+00 -5.5127275127898907e-03 0.0000000000000000e+00  6.2489610618871367e+00 -5.5082741556582351e-03 0.0000000000000000e+00  6.2489790013986424e+00 -5.5006251438815225e-03 0.0000000000000000e+00  6.2489929198531655e+00 -5.5007389161612135e-03 0.0000000000000000e+00  6.2489983912908356e+00 -5.4982247036869328e-03 0.0000000000000000e+00  6.2490032356236664e+00 -5.4983183481204043e-03 0.0000000000000000e+00  6.2490051713678962e+00 -5.4974157552117094e-03 0.0000000000000000e+00  6.2490068266824235e+00 -5.4974147837598981e-03 0.0000000000000000e+00  6.2490075299598091e+00 -5.4971322083825084e-03 0.0000000000000000e+00  6.2490080496516729e+00 -5.4970970403818067e-03 0.0000000000000000e+00  6.2490083269502605e+00 -5.4970350434550824e-03 0.0000000000000000e+00  6.2490084687093139e+00 -5.4969937944536413e-03 0.0000000000000000e+00  6.2490085924580425e+00 -5.4969980141477501e-03 0.0000000000000000e+00  6.2490086192372525e+00 -5.4969639269967369e-03 0.0000000000000000e+00  6.2490086801590490e+00 -5.4969809556759475e-03 0.0000000000000000e+00  6.2490086773920233e+00 -5.4969574490885504e-03 0.0000000000000000e+00  6.2490087086844754e+00 -5.4969718782209975e-03 0.0000000000000000e+00  6.2490087016345504e+00 -5.4969574989758982e-03 0.0000000000000000e+00  6.2490087176889118e+00 -5.4969668079346079e-03 0.0000000000000000e+00  6.2490087123830023e+00 -5.4969587679572105e-03 0.0000000000000000e+00  6.2490087204158833e+00 -5.4969640123553156e-03 0.0000000000000000e+00  6.2490087173357098e+00 -5.4969598351616760e-03 0.0000000000000000e+00  6.2490087212153425e+00 -5.4969625310285208e-03 0.0000000000000000e+00  6.2490087196606225e+00 -5.4969604953081525e-03 0.0000000000000000e+00  6.2490087214680390e+00 -5.4969617849985105e-03 0.0000000000000000e+00  6.2490087207608909e+00 -5.4969608456702495e-03 0.0000000000000000e+00  6.2490087215735937e+00 -5.4969614254716283e-03 0.0000000000000000e+00  6.2490087212799175e+00 -5.4969610139540444e-03 0.0000000000000000e+00  6.2490087216370416e+00 -5.4969612607766302e-03 0.0000000000000000e+00  6.2490087215279129e+00 -5.4969610882285727e-03 0.0000000000000000e+00  6.2490087216835564e+00 -5.4969611880988853e-03 0.0000000000000000e+00  6.2490087216483587e+00 -5.4969611183120024e-03 0.0000000000000000e+00  6.2490087217140884e+00 -5.4969611567569640e-03 0.0000000000000000e+00  6.2490087217077450e+00 -5.4969611298170459e-03 0.0000000000000000e+00  6.2490087217383703e+00 -5.4969611441815251e-03 0.0000000000000000e+00  6.2490087217440671e+00 -5.4969611348311921e-03 0.0000000000000000e+00  6.2490087217613253e+00 -5.4969611410634186e-03 0.0000000000000000e+00  6.2490087217736754e+00 -5.4969611396403486e-03 0.0000000000000000e+00  6.2490087217993544e+00 -5.4969611498146796e-03 0.0000000000000000e+00  6.2490087218465549e+00 -5.4969611605380428e-03 0.0000000000000000e+00  6.2490087219516957e+00 -5.4969612056650768e-03 0.0000000000000000e+00  6.2490087221862840e+00 -5.4969612762309746e-03 0.0000000000000000e+00  6.2490087227026834e+00 -5.4969614835070815e-03 0.0000000000000000e+00  6.2490087238722509e+00 -5.4969618656198734e-03 0.0000000000000000e+00  6.2490087264678982e+00 -5.4969628360340894e-03 0.0000000000000000e+00  6.2490087322500898e+00 -5.4969647749386584e-03 0.0000000000000000e+00  6.2490087449770719e+00 -5.4969693052553973e-03 0.0000000000000000e+00  6.2490087728763948e+00 -5.4969786367300415e-03 0.0000000000000000e+00  6.2490088335045204e+00 -5.4969995264200358e-03 0.0000000000000000e+00  6.2490089644852302e+00 -5.4970432542872103e-03 0.0000000000000000e+00  6.2490092455098676e+00 -5.4971392397393229e-03 0.0000000000000000e+00  6.2490098462641432e+00 -5.4973437457893643e-03 0.0000000000000000e+00  6.2490111291409152e+00 -5.4977930518431174e-03 0.0000000000000000e+00  6.2490138770641899e+00 -5.4987751828892177e-03 0.0000000000000000e+00  6.2490198057536164e+00 -5.5009916819449877e-03 0.0000000000000000e+00  6.2490328009137786e+00 -5.5061263919546277e-03 0.0000000000000000e+00  6.2490620664344316e+00 -5.5185216744338076e-03 0.0000000000000000e+00  6.2491301394561356e+00 -5.5491206789024987e-03 0.0000000000000000e+00  6.2492943173952558e+00 -5.6242395645813839e-03 0.0000000000000000e+00  6.2496987989209716e+00 -5.8071815244089857e-03 0.0000000000000000e+00  6.2507480366822543e+00 -6.0706458055459359e-03 0.0000000000000000e+00  6.2533197250175752e+00 -6.5010393212414433e-03 0.0000000000000000e+00  6.2622660853083163e+00 8.5908461267590070e-03 0.0000000000000000e+00  6.3395964676361833e+00 0.0000000000000000e+00 0.0000000000000000e+00  1.5947713305714526e+01 0.0000000000000000e+00 0.0000000000000000e+00  1.5989282656049129e+01 3.0257911860768420e-02 0.0000000000000000e+00  1.5956819100002255e+01 7.2840280148363107e-03 0.0000000000000000e+00  1.5957474060239260e+01 1.4526472353323288e-02 0.0000000000000000e+00  1.5951197916050711e+01 1.2119532164847588e-02 0.0000000000000000e+00  1.5953094740903927e+01 7.7620054662348057e-03 0.0000000000000000e+00  1.5951307279656465e+01 4.7744481935418420e-03 0.0000000000000000e+00  1.5952070477549768e+01 1.1631665284103571e-03 0.0000000000000000e+00  1.5951697757679030e+01 -5.2651966058590472e-05 0.0000000000000000e+00  1.5952536079419113e+01 -1.5761949135498019e-03 0.0000000000000000e+00  1.5953294432190500e+01 -2.1921789506627737e-03 0.0000000000000000e+00  1.5955553572494702e+01 -2.2650599664866904e-03 0.0000000000000000e+00  1.5957779357551193e+01 -1.3303948600912607e-03 0.0000000000000000e+00  1.5959827728886903e+01 -4.2667918346864182e-04 0.0000000000000000e+00  1.5961069414207312e+01 3.7842750815366235e-04 0.0000000000000000e+00  1.5961863390222096e+01 8.0579634350260798e-04 0.0000000000000000e+00  1.5962219876284060e+01 1.0640277234811185e-03 0.0000000000000000e+00  1.5962422402187043e+01 1.1577996234209949e-03 0.0000000000000000e+00  1.5962493086014486e+01 1.2130836309435860e-03 0.0000000000000000e+00  1.5962540128179484e+01 1.2267472143117138e-03 0.0000000000000000e+00  1.5962553512291286e+01 1.2397073740135194e-03 0.0000000000000000e+00  1.5962567041073655e+01 1.2419348030407050e-03 0.0000000000000000e+00  1.5962570342635944e+01 1.2461496545369090e-03 0.0000000000000000e+00  1.5962575041115143e+01 1.2467523226853149e-03 0.0000000000000000e+00  1.5962576031741378e+01 1.2482568663354696e-03 0.0000000000000000e+00  1.5962577696670204e+01 1.2484727583966255e-03 0.0000000000000000e+00  1.5962578023459612e+01 1.2489698244688571e-03 0.0000000000000000e+00  1.5962578577454185e+01 1.2490710308131114e-03 0.0000000000000000e+00  1.5962578709669874e+01 1.2492081145060057e-03 0.0000000000000000e+00  1.5962578871731081e+01 1.2492702108548024e-03 0.0000000000000000e+00  1.5962578941830932e+01 1.2492916539328023e-03 0.0000000000000000e+00  1.5962578975799985e+01 1.2493331074350958e-03 0.0000000000000000e+00  1.5962579018610192e+01 1.2493245092888607e-03 0.0000000000000000e+00  1.5962579016532585e+01 1.2493511187193424e-03 0.0000000000000000e+00  1.5962579042862247e+01 1.2493392673789167e-03 0.0000000000000000e+00  1.5962579034373668e+01 1.2493551497326967e-03 0.0000000000000000e+00  1.5962579049794790e+01 1.2493465397255780e-03 0.0000000000000000e+00  1.5962579042877113e+01 1.2493553383635925e-03 0.0000000000000000e+00  1.5962579051361502e+01 1.2493502472879466e-03 0.0000000000000000e+00  1.5962579047104022e+01 1.2493547989686157e-03 0.0000000000000000e+00  1.5962579051491279e+01 1.2493521252024975e-03 0.0000000000000000e+00  1.5962579049219608e+01 1.2493543390595446e-03 0.0000000000000000e+00  1.5962579051362335e+01 1.2493530505983687e-03 0.0000000000000000e+00  1.5962579050264559e+01 1.2493540712207164e-03 0.0000000000000000e+00  1.5962579051257039e+01 1.2493534910433257e-03 0.0000000000000000e+00  1.5962579050767687e+01 1.2493539384096036e-03 0.0000000000000000e+00  1.5962579051210396e+01 1.2493536931283554e-03 0.0000000000000000e+00  1.5962579051009113e+01 1.2493538822024128e-03 0.0000000000000000e+00  1.5962579051198441e+01 1.2493537849845187e-03 0.0000000000000000e+00  1.5962579051121596e+01 1.2493538616691171e-03 0.0000000000000000e+00  1.5962579051200054e+01 1.2493538243982826e-03 0.0000000000000000e+00  1.5962579051173659e+01 1.2493538530246432e-03 0.0000000000000000e+00  1.5962579051209284e+01 1.2493538407633538e-03 0.0000000000000000e+00  1.5962579051201216e+01 1.2493538480306029e-03 0.0000000000000000e+00  1.5962579051217705e+01 1.2493538424309522e-03 0.0000000000000000e+00  1.5962579051217146e+01 1.2493538273093969e-03 0.0000000000000000e+00  1.5962579051231355e+01 1.2493538091131824e-03 0.0000000000000000e+00  1.5962579051236824e+01 1.2493537242193532e-03 0.0000000000000000e+00  1.5962579051268825e+01 1.2493536089168392e-03 0.0000000000000000e+00  1.5962579051303402e+01 1.2493532203590536e-03 0.0000000000000000e+00  1.5962579051434931e+01 1.2493525473954140e-03 0.0000000000000000e+00  1.5962579051650703e+01 1.2493507668327204e-03 0.0000000000000000e+00  1.5962579052256892e+01 1.2493472649998396e-03 0.0000000000000000e+00  1.5962579053420393e+01 1.2493390615103336e-03 0.0000000000000000e+00  1.5962579056176535e+01 1.2493221763030798e-03 0.0000000000000000e+00  1.5962579061649905e+01 1.2492845333781709e-03 0.0000000000000000e+00  1.5962579073708881e+01 1.2492052938281027e-03 0.0000000000000000e+00  1.5962579098545465e+01 1.2490311895892263e-03 0.0000000000000000e+00  1.5962579153960792e+01 1.2486571615784856e-03 0.0000000000000000e+00  1.5962579274709254e+01 1.2478392085113396e-03 0.0000000000000000e+00  1.5962579535602432e+01 1.2460806527916453e-03 0.0000000000000000e+00  1.5962580055899181e+01 1.2422276015856687e-03 0.0000000000000000e+00  1.5962581101809524e+01 1.2334464831146032e-03 0.0000000000000000e+00  1.5962583340679252e+01 1.2124354701574559e-03 0.0000000000000000e+00  1.5962588491231269e+01 1.1609913723931522e-03 0.0000000000000000e+00  1.5962600900681622e+01 1.0313851219208351e-03 0.0000000000000000e+00  1.5962638777207767e+01 6.9993864882159128e-04 0.0000000000000000e+00  1.5962755034531039e+01 -1.5781970318594536e-04 0.0000000000000000e+00  1.5963383252914600e+01 -2.0422644504695525e-03 0.0000000000000000e+00  1.5964392497061224e+01 -8.0074961992316982e-03 0.0000000000000000e+00  1.5961442868242774e+01 0.0000000000000000e+00 0.0000000000000000e+00  1.8790751200804934e+01 0.0000000000000000e+00 0.0000000000000000e+00  1.8771447002693748e+01 -8.7922645209048481e-03 0.0000000000000000e+00  1.8785000946469768e+01 4.8066355696108525e-03 0.0000000000000000e+00  1.8796038260107007e+01 2.6299046376498541e-03 0.0000000000000000e+00  1.8815269131953904e+01 5.4130289970880470e-03 0.0000000000000000e+00  1.8822601828654776e+01 4.1524115386838293e-03 0.0000000000000000e+00  1.8830423221148109e+01 2.4567217769909332e-03 0.0000000000000000e+00  1.8830855375578071e+01 1.1429364408366209e-03 0.0000000000000000e+00  1.8831254013396119e+01 -1.8228204148138707e-04 0.0000000000000000e+00  1.8828659899707493e+01 -6.5794470111635338e-04 0.0000000000000000e+00  1.8826107518057341e+01 -1.8584452137559600e-03 0.0000000000000000e+00  1.8822565095487672e+01 -2.1698046334407443e-03 0.0000000000000000e+00  1.8820125215151297e+01 -1.7426581649330809e-03 0.0000000000000000e+00  1.8818247804029145e+01 -7.8593916309455374e-04 0.0000000000000000e+00  1.8817356704988757e+01 -1.5490311149390984e-05 0.0000000000000000e+00  1.8816807093776994e+01 5.4209165652022748e-04 0.0000000000000000e+00  1.8816627852576680e+01 8.2338643101297212e-04 0.0000000000000000e+00  1.8816504715827641e+01 9.7834319503417632e-04 0.0000000000000000e+00  1.8816480971388426e+01 1.0373194287381664e-03 0.0000000000000000e+00  1.8816448350730365e+01 1.0702421553639603e-03 0.0000000000000000e+00  1.8816445258125530e+01 1.0805255896076519e-03 0.0000000000000000e+00  1.8816433644530861e+01 1.0886300635510999e-03 0.0000000000000000e+00  1.8816433219174645e+01 1.0909579830183755e-03 0.0000000000000000e+00  1.8816428757744333e+01 1.0935821392753600e-03 0.0000000000000000e+00  1.8816428834359513e+01 1.0943129859141464e-03 0.0000000000000000e+00  1.8816427162768409e+01 1.0952239202224156e-03 0.0000000000000000e+00  1.8816427261300589e+01 1.0954839107336367e-03 0.0000000000000000e+00  1.8816426668743713e+01 1.0957799178613248e-03 0.0000000000000000e+00  1.8816426702110391e+01 1.0958844347346054e-03 0.0000000000000000e+00  1.8816426514141959e+01 1.0959670625293682e-03 0.0000000000000000e+00  1.8816426504876961e+01 1.0960172152873102e-03 0.0000000000000000e+00  1.8816426459989053e+01 1.0960323961509671e-03 0.0000000000000000e+00  1.8816426437177608e+01 1.0960597770202233e-03 0.0000000000000000e+00  1.8816426436837098e+01 1.0960571977523233e-03 0.0000000000000000e+00  1.8816426415528561e+01 1.0960726806949269e-03 0.0000000000000000e+00  1.8816426424920678e+01 1.0960676190827023e-03 0.0000000000000000e+00  1.8816426409680275e+01 1.0960761689933571e-03 0.0000000000000000e+00  1.8816426418182981e+01 1.0960723646567848e-03 0.0000000000000000e+00  1.8816426408767732e+01 1.0960768713739869e-03 0.0000000000000000e+00  1.8816426414326688e+01 1.0960746203162045e-03 0.0000000