<?xml version="1.0"?>
<VTKFile type="UnstructuredGrid"  version="0.1"  >
<UnstructuredGrid>
<Piece  NumberOfPoints="1369" NumberOfCells="2560">
<Points>
<DataArray  type="Float64"  NumberOfComponents="3"  format="ascii">0 0 0  0.75 0 0  1.5 0 0  2.25 0 0  3 0 0  3.75 0 0  4.5 0 0  5.25 0 0  6 0 0  6.75 0 0  7.5 0 0  8.25 0 0  9 0 0  9.75 0 0  10.5 0 0  11.25 0 0  12 0 0  12.75 0 0  13.5 0 0  14.25 0 0  15 0 0  15.75 0 0  16.5 0 0  17.25 0 0  18 0 0  18.75 0 0  19.5 0 0  20.25 0 0  21 0 0  21.75 0 0  22.5 0 0  23.25 0 0  24 0 0  24.75 0 0  25.5 0 0  26.25 0 0  27 0 0  27.75 0 0  28.5 0 0  29.25 0 0  30 0 0  30.75 0 0  31.5 0 0  32.25 0 0  33 0 0  33.75 0 0  34.5 0 0  35.25 0 0  36 0 0  36.75 0 0  37.5 0 0  38.25 0 0  39 0 0  39.75 0 0  40.5 0 0  41.25 0 0  42 0 0  42.75 0 0  43.5 0 0  44.25 0 0  45 0 0  45.75 0 0  46.5 0 0  47.25 0 0  48 0 0  48.75 0 0  49.5 0 0  50.25 0 0  51 0 0  51.75 0 0  52.5 0 0  53.25 0 0  54 0 0  54.75 0 0  55.5 0 0  56.25 0 0  57 0 0  57.75 0 0  58.5 0 0  59.25 0 0  60 0 0  0 0.5 0  0.75 0.5 0  1.5 0.5 0  2.25 0.5 0  3 0.5 0  3.75 0.5 0  4.5 0.5 0  5.25 0.5 0  6 0.5 0  6.75 0.5 0  7.5 0.5 0  8.25 0.5 0  9 0.5 0  9.75 0.5 0  10.5 0.5 0  11.25 0.5 0  12 0.5 0  12.75 0.5 0  13.5 0.5 0  14.25 0.5 0  15 0.5 0  15.75 0.5 0  16.5 0.5 0  17.25 0.5 0  18 0.5 0  18.75 0.5 0  19.5 0.5 0  20.25 0.5 0  21 0.5 0  21.75 0.5 0  22.5 0.5 0  23.25 0.5 0  24 0.5 0  24.75 0.5 0  25.5 0.5 0  26.25 0.5 0  27 0.5 0  27.75 0.5 0  28.5 0.5 0  29.25 0.5 0  30 0.5 0  30.75 0.5 0  31.5 0.5 0  32.25 0.5 0  33 0.5 0  33.75 0.5 0  34.5 0.5 0  35.25 0.5 0  36 0.5 0  36.75 0.5 0  37.5 0.5 0  38.25 0.5 0  39 0.5 0  39.75 0.5 0  40.5 0.5 0  41.25 0.5 0  42 0.5 0  42.75 0.5 0  43.5 0.5 0  44.25 0.5 0  45 0.5 0  45.75 0.5 0  46.5 0.5 0  47.25 0.5 0  48 0.5 0  48.75 0.5 0  49.5 0.5 0  50.25 0.5 0  51 0.5 0  51.75 0.5 0  52.5 0.5 0  53.25 0.5 0  54 0.5 0  54.75 0.5 0  55.5 0.5 0  56.25 0.5 0  57 0.5 0  57.75 0.5 0  58.5 0.5 0  59.25 0.5 0  60 0.5 0  0 1 0  0.75 1 0  1.5 1 0  2.25 1 0  3 1 0  3.75 1 0  4.5 1 0  5.25 1 0  6 1 0  6.75 1 0  7.5 1 0  8.25 1 0  9 1 0  9.75 1 0  10.5 1 0  11.25 1 0  12 1 0  12.75 1 0  13.5 1 0  14.25 1 0  15 1 0  15.75 1 0  16.5 1 0  17.25 1 0  18 1 0  18.75 1 0  19.5 1 0  20.25 1 0  21 1 0  21.75 1 0  22.5 1 0  23.25 1 0  24 1 0  24.75 1 0  25.5 1 0  26.25 1 0  27 1 0  27.75 1 0  28.5 1 0  29.25 1 0  30 1 0  30.75 1 0  31.5 1 0  32.25 1 0  33 1 0  33.75 1 0  34.5 1 0  35.25 1 0  36 1 0  36.75 1 0  37.5 1 0  38.25 1 0  39 1 0  39.75 1 0  40.5 1 0  41.25 1 0  42 1 0  42.75 1 0  43.5 1 0  44.25 1 0  45 1 0  45.75 1 0  46.5 1 0  47.25 1 0  48 1 0  48.75 1 0  49.5 1 0  50.25 1 0  51 1 0  51.75 1 0  52.5 1 0  53.25 1 0  54 1 0  54.75 1 0  55.5 1 0  56.25 1 0  57 1 0  57.75 1 0  58.5 1 0  59.25 1 0  60 1 0  0 1.5 0  0.75 1.5 0  1.5 1.5 0  2.25 1.5 0  3 1.5 0  3.75 1.5 0  4.5 1.5 0  5.25 1.5 0  6 1.5 0  6.75 1.5 0  7.5 1.5 0  8.25 1.5 0  9 1.5 0  9.75 1.5 0  10.5 1.5 0  11.25 1.5 0  12 1.5 0  12.75 1.5 0  13.5 1.5 0  14.25 1.5 0  15 1.5 0  15.75 1.5 0  16.5 1.5 0  17.25 1.5 0  18 1.5 0  18.75 1.5 0  19.5 1.5 0  20.25 1.5 0  21 1.5 0  21.75 1.5 0  22.5 1.5 0  23.25 1.5 0  24 1.5 0  24.75 1.5 0  25.5 1.5 0  26.25 1.5 0  27 1.5 0  27.75 1.5 0  28.5 1.5 0  29.25 1.5 0  30 1.5 0  30.75 1.5 0  31.5 1.5 0  32.25 1.5 0  33 1.5 0  33.75 1.5 0  34.5 1.5 0  35.25 1.5 0  36 1.5 0  36.75 1.5 0  37.5 1.5 0  38.25 1.5 0  39 1.5 0  39.75 1.5 0  40.5 1.5 0  41.25 1.5 0  42 1.5 0  42.75 1.5 0  43.5 1.5 0  44.25 1.5 0  45 1.5 0  45.75 1.5 0  46.5 1.5 0  47.25 1.5 0  48 1.5 0  48.75 1.5 0  49.5 1.5 0  50.25 1.5 0  51 1.5 0  51.75 1.5 0  52.5 1.5 0  53.25 1.5 0  54 1.5 0  54.75 1.5 0  55.5 1.5 0  56.25 1.5 0  57 1.5 0  57.75 1.5 0  58.5 1.5 0  59.25 1.5 0  60 1.5 0  0 2 0  0.75 2 0  1.5 2 0  2.25 2 0  3 2 0  3.75 2 0  4.5 2 0  5.25 2 0  6 2 0  6.75 2 0  7.5 2 0  8.25 2 0  9 2 0  9.75 2 0  10.5 2 0  11.25 2 0  12 2 0  12.75 2 0  13.5 2 0  14.25 2 0  15 2 0  15.75 2 0  16.5 2 0  17.25 2 0  18 2 0  18.75 2 0  19.5 2 0  20.25 2 0  21 2 0  21.75 2 0  22.5 2 0  23.25 2 0  24 2 0  24.75 2 0  25.5 2 0  26.25 2 0  27 2 0  27.75 2 0  28.5 2 0  29.25 2 0  30 2 0  30.75 2 0  31.5 2 0  32.25 2 0  33 2 0  33.75 2 0  34.5 2 0  35.25 2 0  36 2 0  36.75 2 0  37.5 2 0  38.25 2 0  39 2 0  39.75 2 0  40.5 2 0  41.25 2 0  42 2 0  42.75 2 0  43.5 2 0  44.25 2 0  45 2 0  45.75 2 0  46.5 2 0  47.25 2 0  48 2 0  48.75 2 0  49.5 2 0  50.25 2 0  51 2 0  51.75 2 0  52.5 2 0  53.25 2 0  54 2 0  54.75 2 0  55.5 2 0  56.25 2 0  57 2 0  57.75 2 0  58.5 2 0  59.25 2 0  60 2 0  0 2.5 0  0.75 2.5 0  1.5 2.5 0  2.25 2.5 0  3 2.5 0  3.75 2.5 0  4.5 2.5 0  5.25 2.5 0  6 2.5 0  6.75 2.5 0  7.5 2.5 0  8.25 2.5 0  9 2.5 0  9.75 2.5 0  10.5 2.5 0  11.25 2.5 0  12 2.5 0  12.75 2.5 0  13.5 2.5 0  14.25 2.5 0  15 2.5 0  15.75 2.5 0  16.5 2.5 0  17.25 2.5 0  18 2.5 0  18.75 2.5 0  19.5 2.5 0  20.25 2.5 0  21 2.5 0  21.75 2.5 0  22.5 2.5 0  23.25 2.5 0  24 2.5 0  24.75 2.5 0  25.5 2.5 0  26.25 2.5 0  27 2.5 0  27.75 2.5 0  28.5 2.5 0  29.25 2.5 0  30 2.5 0  30.75 2.5 0  31.5 2.5 0  32.25 2.5 0  33 2.5 0  33.75 2.5 0  34.5 2.5 0  35.25 2.5 0  36 2.5 0  36.75 2.5 0  37.5 2.5 0  38.25 2.5 0  39 2.5 0  39.75 2.5 0  40.5 2.5 0  41.25 2.5 0  42 2.5 0  42.75 2.5 0  43.5 2.5 0  44.25 2.5 0  45 2.5 0  45.75 2.5 0  46.5 2.5 0  47.25 2.5 0  48 2.5 0  48.75 2.5 0  49.5 2.5 0  50.25 2.5 0  51 2.5 0  51.75 2.5 0  52.5 2.5 0  53.25 2.5 0  54 2.5 0  54.75 2.5 0  55.5 2.5 0  56.25 2.5 0  57 2.5 0  57.75 2.5 0  58.5 2.5 0  59.25 2.5 0  60 2.5 0  0 3 0  0.75 3 0  1.5 3 0  2.25 3 0  3 3 0  3.75 3 0  4.5 3 0  5.25 3 0  6 3 0  6.75 3 0  7.5 3 0  8.25 3 0  9 3 0  9.75 3 0  10.5 3 0  11.25 3 0  12 3 0  12.75 3 0  13.5 3 0  14.25 3 0  15 3 0  15.75 3 0  16.5 3 0  17.25 3 0  18 3 0  18.75 3 0  19.5 3 0  20.25 3 0  21 3 0  21.75 3 0  22.5 3 0  23.25 3 0  24 3 0  24.75 3 0  25.5 3 0  26.25 3 0  27 3 0  27.75 3 0  28.5 3 0  29.25 3 0  30 3 0  30.75 3 0  31.5 3 0  32.25 3 0  33 3 0  33.75 3 0  34.5 3 0  35.25 3 0  36 3 0  36.75 3 0  37.5 3 0  38.25 3 0  39 3 0  39.75 3 0  40.5 3 0  41.25 3 0  42 3 0  42.75 3 0  43.5 3 0  44.25 3 0  45 3 0  45.75 3 0  46.5 3 0  47.25 3 0  48 3 0  48.75 3 0  49.5 3 0  50.25 3 0  51 3 0  51.75 3 0  52.5 3 0  53.25 3 0  54 3 0  54.75 3 0  55.5 3 0  56.25 3 0  57 3 0  57.75 3 0  58.5 3 0  59.25 3 0  60 3 0  0 3.5 0  0.75 3.5 0  1.5 3.5 0  2.25 3.5 0  3 3.5 0  3.75 3.5 0  4.5 3.5 0  5.25 3.5 0  6 3.5 0  6.75 3.5 0  7.5 3.5 0  8.25 3.5 0  9 3.5 0  9.75 3.5 0  10.5 3.5 0  11.25 3.5 0  12 3.5 0  12.75 3.5 0  13.5 3.5 0  14.25 3.5 0  15 3.5 0  15.75 3.5 0  16.5 3.5 0  17.25 3.5 0  18 3.5 0  18.75 3.5 0  19.5 3.5 0  20.25 3.5 0  21 3.5 0  21.75 3.5 0  22.5 3.5 0  23.25 3.5 0  24 3.5 0  24.75 3.5 0  25.5 3.5 0  26.25 3.5 0  27 3.5 0  27.75 3.5 0  28.5 3.5 0  29.25 3.5 0  30 3.5 0  30.75 3.5 0  31.5 3.5 0  32.25 3.5 0  33 3.5 0  33.75 3.5 0  34.5 3.5 0  35.25 3.5 0  36 3.5 0  36.75 3.5 0  37.5 3.5 0  38.25 3.5 0  39 3.5 0  39.75 3.5 0  40.5 3.5 0  41.25 3.5 0  42 3.5 0  42.75 3.5 0  43.5 3.5 0  44.25 3.5 0  45 3.5 0  45.75 3.5 0  46.5 3.5 0  47.25 3.5 0  48 3.5 0  48.75 3.5 0  49.5 3.5 0  50.25 3.5 0  51 3.5 0  51.75 3.5 0  52.5 3.5 0  53.25 3.5 0  54 3.5 0  54.75 3.5 0  55.5 3.5 0  56.25 3.5 0  57 3.5 0  57.75 3.5 0  58.5 3.5 0  59.25 3.5 0  60 3.5 0  0 4 0  0.75 4 0  1.5 4 0  2.25 4 0  3 4 0  3.75 4 0  4.5 4 0  5.25 4 0  6 4 0  6.75 4 0  7.5 4 0  8.25 4 0  9 4 0  9.75 4 0  10.5 4 0  11.25 4 0  12 4 0  12.75 4 0  13.5 4 0  14.25 4 0  15 4 0  15.75 4 0  16.5 4 0  17.25 4 0  18 4 0  18.75 4 0  19.5 4 0  20.25 4 0  21 4 0  21.75 4 0  22.5 4 0  23.25 4 0  24 4 0  24.75 4 0  25.5 4 0  26.25 4 0  27 4 0  27.75 4 0  28.5 4 0  29.25 4 0  30 4 0  30.75 4 0  31.5 4 0  32.25 4 0  33 4 0  33.75 4 0  34.5 4 0  35.25 4 0  36 4 0  36.75 4 0  37.5 4 0  38.25 4 0  39 4 0  39.75 4 0  40.5 4 0  41.25 4 0  42 4 0  42.75 4 0  43.5 4 0  44.25 4 0  45 4 0  45.75 4 0  46.5 4 0  47.25 4 0  48 4 0  48.75 4 0  49.5 4 0  50.25 4 0  51 4 0  51.75 4 0  52.5 4 0  53.25 4 0  54 4 0  54.75 4 0  55.5 4 0  56.25 4 0  57 4 0  57.75 4 0  58.5 4 0  59.25 4 0  60 4 0  0.375 0.25 0  1.125 0.25 0  1.875 0.25 0  2.625 0.25 0  3.375 0.25 0  4.125 0.25 0  4.875 0.25 0  5.625 0.25 0  6.375 0.25 0  7.125 0.25 0  7.875 0.25 0  8.625 0.25 0  9.375 0.25 0  10.125 0.25 0  10.875 0.25 0  11.625 0.25 0  12.375 0.25 0  13.125 0.25 0  13.875 0.25 0  14.625 0.25 0  15.375 0.25 0  16.125 0.25 0  16.875 0.25 0  17.625 0.25 0  18.375 0.25 0  19.125 0.25 0  19.875 0.25 0  20.625 0.25 0  21.375 0.25 0  22.125 0.25 0  22.875 0.25 0  23.625 0.25 0  24.375 0.25 0  25.125 0.25 0  25.875 0.25 0  26.625 0.25 0  27.375 0.25 0  28.125 0.25 0  28.875 0.25 0  29.625 0.25 0  30.375 0.25 0  31.125 0.25 0  31.875 0.25 0  32.625 0.25 0  33.375 0.25 0  34.125 0.25 0  34.875 0.25 0  35.625 0.25 0  36.375 0.25 0  37.125 0.25 0  37.875 0.25 0  38.625 0.25 0  39.375 0.25 0  40.125 0.25 0  40.875 0.25 0  41.625 0.25 0  42.375 0.25 0  43.125 0.25 0  43.875 0.25 0  44.625 0.25 0  45.375 0.25 0  46.125 0.25 0  46.875 0.25 0  47.625 0.25 0  48.375 0.25 0  49.125 0.25 0  49.875 0.25 0  50.625 0.25 0  51.375 0.25 0  52.125 0.25 0  52.875 0.25 0  53.625 0.25 0  54.375 0.25 0  55.125 0.25 0  55.875 0.25 0  56.625 0.25 0  57.375 0.25 0  58.125 0.25 0  58.875 0.25 0  59.625 0.25 0  0.375 0.75 0  1.125 0.75 0  1.875 0.75 0  2.625 0.75 0  3.375 0.75 0  4.125 0.75 0  4.875 0.75 0  5.625 0.75 0  6.375 0.75 0  7.125 0.75 0  7.875 0.75 0  8.625 0.75 0  9.375 0.75 0  10.125 0.75 0  10.875 0.75 0  11.625 0.75 0  12.375 0.75 0  13.125 0.75 0  13.875 0.75 0  14.625 0.75 0  15.375 0.75 0  16.125 0.75 0  16.875 0.75 0  17.625 0.75 0  18.375 0.75 0  19.125 0.75 0  19.875 0.75 0  20.625 0.75 0  21.375 0.75 0  22.125 0.75 0  22.875 0.75 0  23.625 0.75 0  24.375 0.75 0  25.125 0.75 0  25.875 0.75 0  26.625 0.75 0  27.375 0.75 0  28.125 0.75 0  28.875 0.75 0  29.625 0.75 0  30.375 0.75 0  31.125 0.75 0  31.875 0.75 0  32.625 0.75 0  33.375 0.75 0  34.125 0.75 0  34.875 0.75 0  35.625 0.75 0  36.375 0.75 0  37.125 0.75 0  37.875 0.75 0  38.625 0.75 0  39.375 0.75 0  40.125 0.75 0  40
[...]
<PointData  Vectors="f_8-0"> 
<DataArray  type="Float64"  Name="f_8-0"  NumberOfComponents="3" format="ascii">0.0000000000000000e+00 0.0000000000000000e+00 0.0000000000000000e+00  0.0000000000000000e+00 0.0000000000000000e+00 0.0000000000000000e+00  0.0000000000000000e+00 0.0000000000000000e+00 0.0000000000000000e+00  0.0000000000000000e+00 0.0000000000000000e+00 0.0000000000000000e+00  0.0000000000000000e+00 0.0000000000000000e+00 0.0000000000000000e+00  0.0000000000000000e+00 0.0000000000000000e+00 0.0000000000000000e+00  0.0000000000000000e+00 0.0000000000000000e+00 0.0000000000000000e+00  0.0000000000000000e+00 0.0000000000000000e+00 0.0000000000000000e+00  0.0000000000000000e+00 0.0000000000000000e+00 0.0000000000000000e+00  0.0000000000000000e+00 0.0000000000000000e+00 0.0000000000000000e+00  0.0000000000000000e+00 0.0000000000000000e+00 0.0000000000000000e+00  0.0000000000000000e+00 0.0000000000000000e+00 0.0000000000000000e+00  0.0000000000000000e+00 0.0000000000000000e+00 0.0000000000000000e+00  0.0000000000000000e+00 0.0000000000000000e+00 0.0000000000000000e+00  0.0000000000000000e+00 0.0000000000000000e+00 0.0000000000000000e+00  0.0000000000000000e+00 0.0000000000000000e+00 0.0000000000000000e+00  0.0000000000000000e+00 0.0000000000000000e+00 0.0000000000000000e+00  0.0000000000000000e+00 0.0000000000000000e+00 0.0000000000000000e+00  0.0000000000000000e+00 0.0000000000000000e+00 0.0000000000000000e+00  0.0000000000000000e+00 0.0000000000000000e+00 0.0000000000000000e+00  0.0000000000000000e+00 0.0000000000000000e+00 0.0000000000000000e+00  0.0000000000000000e+00 0.0000000000000000e+00 0.0000000000000000e+00  0.0000000000000000e+00 0.0000000000000000e+00 0.0000000000000000e+00  0.0000000000000000e+00 0.0000000000000000e+00 0.0000000000000000e+00  0.0000000000000000e+00 0.0000000000000000e+00 0.0000000000000000e+00  0.0000000000000000e+00 0.0000000000000000e+00 0.0000000000000000e+00  0.0000000000000000e+00 0.0000000000000000e+00 0.0000000000000000e+00  0.0000000000000000e+00 0.0000000000000000e+00 0.0000000000000000e+00  0.0000000000000000e+00 0.0000000000000000e+00 0.0000000000000000e+00  0.0000000000000000e+00 0.0000000000000000e+00 0.0000000000000000e+00  0.0000000000000000e+00 0.0000000000000000e+00 0.0000000000000000e+00  0.0000000000000000e+00 0.0000000000000000e+00 0.0000000000000000e+00  0.0000000000000000e+00 0.0000000000000000e+00 0.0000000000000000e+00  0.0000000000000000e+00 0.0000000000000000e+00 0.0000000000000000e+00  0.0000000000000000e+00 0.0000000000000000e+00 0.0000000000000000e+00  0.0000000000000000e+00 0.0000000000000000e+00 0.0000000000000000e+00  0.0000000000000000e+00 0.0000000000000000e+00 0.0000000000000000e+00  0.0000000000000000e+00 0.0000000000000000e+00 0.0000000000000000e+00  0.0000000000000000e+00 0.0000000000000000e+00 0.0000000000000000e+00  0.0000000000000000e+00 0.0000000000000000e+00 0.0000000000000000e+00  0.0000000000000000e+00 0.0000000000000000e+00 0.0000000000000000e+00  0.0000000000000000e+00 0.0000000000000000e+00 0.0000000000000000e+00  0.0000000000000000e+00 0.0000000000000000e+00 0.0000000000000000e+00  0.0000000000000000e+00 0.0000000000000000e+00 0.0000000000000000e+00  0.0000000000000000e+00 0.0000000000000000e+00 0.0000000000000000e+00  0.0000000000000000e+00 0.0000000000000000e+00 0.0000000000000000e+00  0.0000000000000000e+00 0.0000000000000000e+00 0.0000000000000000e+00  0.0000000000000000e+00 0.0000000000000000e+00 0.0000000000000000e+00  0.0000000000000000e+00 0.0000000000000000e+00 0.0000000000000000e+00  0.0000000000000000e+00 0.0000000000000000e+00 0.0000000000000000e+00  0.0000000000000000e+00 0.0000000000000000e+00 0.0000000000000000e+00  0.0000000000000000e+00 0.0000000000000000e+00 0.0000000000000000e+00  0.0000000000000000e+00 0.0000000000000000e+00 0.0000000000000000e+00  0.0000000000000000e+00 0.0000000000000000e+00 0.0000000000000000e+00  0.0000000000000000e+00 0.0000000000000000e+00 0.0000000000000000e+00  0.0000000000000000e+00 0.0000000000000000e+00 0.0000000000000000e+00  0.0000000000000000e+00 0.0000000000000000e+00 0.0000000000000000e+00  0.0000000000000000e+00 0.0000000000000000e+00 0.0000000000000000e+00  0.0000000000000000e+00 0.0000000000000000e+00 0.0000000000000000e+00  0.0000000000000000e+00 0.0000000000000000e+00 0.0000000000000000e+00  0.0000000000000000e+00 0.0000000000000000e+00 0.0000000000000000e+00  0.0000000000000000e+00 0.0000000000000000e+00 0.0000000000000000e+00  0.0000000000000000e+00 0.0000000000000000e+00 0.0000000000000000e+00  0.0000000000000000e+00 0.0000000000000000e+00 0.0000000000000000e+00  0.0000000000000000e+00 0.0000000000000000e+00 0.0000000000000000e+00  0.0000000000000000e+00 0.0000000000000000e+00 0.0000000000000000e+00  0.0000000000000000e+00 0.0000000000000000e+00 0.0000000000000000e+00  0.0000000000000000e+00 0.0000000000000000e+00 0.0000000000000000e+00  0.0000000000000000e+00 0.0000000000000000e+00 0.0000000000000000e+00  0.0000000000000000e+00 0.0000000000000000e+00 0.0000000000000000e+00  0.0000000000000000e+00 0.0000000000000000e+00 0.0000000000000000e+00  0.0000000000000000e+00 0.0000000000000000e+00 0.0000000000000000e+00  0.0000000000000000e+00 0.0000000000000000e+00 0.0000000000000000e+00  0.0000000000000000e+00 0.0000000000000000e+00 0.0000000000000000e+00  0.0000000000000000e+00 0.0000000000000000e+00 0.0000000000000000e+00  0.0000000000000000e+00 0.0000000000000000e+00 0.0000000000000000e+00  0.0000000000000000e+00 0.0000000000000000e+00 0.0000000000000000e+00  0.0000000000000000e+00 0.0000000000000000e+00 0.0000000000000000e+00  0.0000000000000000e+00 0.0000000000000000e+00 0.0000000000000000e+00  0.0000000000000000e+00 0.0000000000000000e+00 0.0000000000000000e+00  0.0000000000000000e+00 0.0000000000000000e+00 0.0000000000000000e+00  -1.5409700546684185e+01 0.0000000000000000e+00 0.0000000000000000e+00  -1.5444145023072556e+01 1.1775307021539420e-03 0.0000000000000000e+00  -1.5467028573901167e+01 8.6057454730238247e-03 0.0000000000000000e+00  -1.5479838339257189e+01 9.0898145264819551e-03 0.0000000000000000e+00  -1.5489230568201670e+01 8.1427739902469494e-03 0.0000000000000000e+00  -1.5495332394037725e+01 6.7916120881164150e-03 0.0000000000000000e+00  -1.5498499970657566e+01 5.6424924070859811e-03 0.0000000000000000e+00  -1.5499476878841344e+01 4.7971196736154324e-03 0.0000000000000000e+00  -1.5498986624952364e+01 4.2913943008411112e-03 0.0000000000000000e+00  -1.5497667022167361e+01 3.9880108669851878e-03 0.0000000000000000e+00  -1.5495815942955151e+01 3.8110612031724304e-03 0.0000000000000000e+00  -1.5493776992276649e+01 3.8103724012103863e-03 0.0000000000000000e+00  -1.5492006385940446e+01 3.9787991483086474e-03 0.0000000000000000e+00  -1.5490778225282343e+01 4.2026405976782035e-03 0.0000000000000000e+00  -1.5490067184042527e+01 4.3864608113717502e-03 0.0000000000000000e+00  -1.5489711996858956e+01 4.5009216473815786e-03 0.0000000000000000e+00  -1.5489552750846176e+01 4.5600884960880434e-03 0.0000000000000000e+00  -1.5489486949538172e+01 4.5866172437977809e-03 0.0000000000000000e+00  -1.5489460399711623e+01 4.5974382699742397e-03 0.0000000000000000e+00  -1.5489449607022019e+01 4.6016375971620962e-03 0.0000000000000000e+00  -1.5489444826226388e+01 4.6032971371096241e-03 0.0000000000000000e+00  -1.5489442617861775e+01 4.6040060471370893e-03 0.0000000000000000e+00  -1.5489441495217347e+01 4.6043337373504276e-03 0.0000000000000000e+00  -1.5489440943855065e+01 4.6044998891809907e-03 0.0000000000000000e+00  -1.5489440650805424e+01 4.6045813050969771e-03 0.0000000000000000e+00  -1.5489440509197729e+01 4.6046259786901664e-03 0.0000000000000000e+00  -1.5489440432612275e+01 4.6046461767038083e-03 0.0000000000000000e+00  -1.5489440396962870e+01 4.6046585589550370e-03 0.0000000000000000e+00  -1.5489440377162197e+01 4.6046631248787603e-03 0.0000000000000000e+00  -1.5489440368370323e+01 4.6046667344827839e-03 0.0000000000000000e+00  -1.5489440363322437e+01 4.6046675634474916e-03 0.0000000000000000e+00  -1.5489440361175134e+01 4.6046686987003364e-03 0.0000000000000000e+00  -1.5489440359925377e+01 4.6046687449678592e-03 0.0000000000000000e+00  -1.5489440359385529e+01 4.6046691339224543e-03 0.0000000000000000e+00  -1.5489440359097012e+01 4.6046690746627010e-03 0.0000000000000000e+00  -1.5489440358946970e+01 4.6046692156711654e-03 0.0000000000000000e+00  -1.5489440358893427e+01 4.6046691721713532e-03 0.0000000000000000e+00  -1.5489440358843151e+01 4.6046692254754053e-03 0.0000000000000000e+00  -1.5489440358841396e+01 4.6046692030019777e-03 0.0000000000000000e+00  -1.5489440358819991e+01 4.6046692224751308e-03 0.0000000000000000e+00  -1.5489440358826799e+01 4.6046692133067894e-03 0.0000000000000000e+00  -1.5489440358816172e+01 4.6046692190173785e-03 0.0000000000000000e+00  -1.5489440358820895e+01 4.6046692169684671e-03 0.0000000000000000e+00  -1.5489440358815569e+01 4.6046692185029627e-03 0.0000000000000000e+00  -1.5489440358819028e+01 4.6046692184454167e-03 0.0000000000000000e+00  -1.5489440358815632e+01 4.6046692189231431e-03 0.0000000000000000e+00  -1.5489440358818461e+01 4.6046692179620707e-03 0.0000000000000000e+00  -1.5489440358816312e+01 4.6046692186651186e-03 0.0000000000000000e+00  -1.5489440358815953e+01 4.6046692183495958e-03 0.0000000000000000e+00  -1.5489440358813649e+01 4.6046692174136735e-03 0.0000000000000000e+00  -1.5489440358810397e+01 4.6046692174362396e-03 0.0000000000000000e+00  -1.5489440358804888e+01 4.6046692156386784e-03 0.0000000000000000e+00  -1.5489440358792217e+01 4.6046692128744928e-03 0.0000000000000000e+00  -1.5489440358764805e+01 4.6046692073505452e-03 0.0000000000000000e+00  -1.5489440358711834e+01 4.6046691948833686e-03 0.0000000000000000e+00  -1.5489440358602408e+01 4.6046691698392274e-03 0.0000000000000000e+00  -1.5489440358380536e+01 4.6046691200426777e-03 0.0000000000000000e+00  -1.5489440357931041e+01 4.6046690162694472e-03 0.0000000000000000e+00  -1.5489440357014475e+01 4.6046688083246764e-03 0.0000000000000000e+00  -1.5489440355155121e+01 4.6046683819326367e-03 0.0000000000000000e+00  -1.5489440351369899e+01 4.6046675221833380e-03 0.0000000000000000e+00  -1.5489440343695632e+01 4.6046657655662102e-03 0.0000000000000000e+00  -1.5489440328095592e+01 4.6046622204681305e-03 0.0000000000000000e+00  -1.5489440296618085e+01 4.6046550321627378e-03 0.0000000000000000e+00  -1.5489440232720048e+01 4.6046405692714582e-03 0.0000000000000000e+00  -1.5489440105670253e+01 4.6046116443100313e-03 0.0000000000000000e+00  -1.5489439845643842e+01 4.6045536132203104e-03 0.0000000000000000e+00  -1.5489439352463114e+01 4.6044412733578181e-03 0.0000000000000000e+00  -1.5489438280271493e+01 4.6042113797981777e-03 0.0000000000000000e+00  -1.5489436571938343e+01 4.6038127727251648e-03 0.0000000000000000e+00  -1.5489431706997959e+01 4.6028629081824078e-03 0.0000000000000000e+00  -1.5489428229578873e+01 4.6019159963979397e-03 0.0000000000000000e+00  -1.5489400024256669e+01 4.5970072286496263e-03 0.0000000000000000e+00  -1.5489423125427532e+01 4.6015550188217534e-03 0.0000000000000000e+00  -1.5489218438160126e+01 4.5657168069561729e-03 0.0000000000000000e+00  -1.5489616946801542e+01 4.6692541510236878e-03 0.0000000000000000e+00  -1.5488340253089071e+01 4.4689293824432211e-03 0.0000000000000000e+00  -1.5491046501812969e+01 5.0701945731507761e-03 0.0000000000000000e+00  -1.5491460936026010e+01 1.0747242078458258e-02 0.0000000000000000e+00  -1.5497082992252952e+01 4.5846500522631124e-02 0.0000000000000000e+00  -1.5524412327249312e+01 0.0000000000000000e+00 0.0000000000000000e+00  -1.1000216310892341e+01 0.0000000000000000e+00 0.0000000000000000e+00  -1.1019169205713178e+01 1.4216416075910090e-02 0.0000000000000000e+00  -1.1021919694396333e+01 9.4433461177031008e-03 0.0000000000000000e+00  -1.1024358515420309e+01 7.5239786856260435e-03 0.0000000000000000e+00  -1.1025583590791724e+01 4.7657754716620114e-03 0.0000000000000000e+00  -1.1026126851333004e+01 1.9639355963207909e-03 0.0000000000000000e+00  -1.1026306539826125e+01 -3.7579060324951537e-04 0.0000000000000000e+00  -1.1026190727334429e+01 -2.0849849501508345e-03 0.0000000000000000e+00  -1.1025799230468570e+01 -3.1640725017252885e-03 0.0000000000000000e+00  -1.1025216764984807e+01 -3.7905295951709390e-03 0.0000000000000000e+00  -1.1024446907811329e+01 -4.2204032042932908e-03 0.0000000000000000e+00  -1.1023382881366985e+01 -4.2870379884744078e-03 0.0000000000000000e+00  -1.1022254687522507e+01 -3.9033893169339346e-03 0.0000000000000000e+00  -1.1021350941257316e+01 -3.3385266230842722e-03 0.0000000000000000e+00  -1.1020773520865646e+01 -2.8622236187196165e-03 0.0000000000000000e+00  -1.1020457511823521e+01 -2.5614446746587490e-03 0.0000000000000000e+00  -1.1020304766757022e+01 -2.4044200208448671e-03 0.0000000000000000e+00  -1.1020236470929222e+01 -2.3330220211207450e-03 0.0000000000000000e+00  -1.1020208006610101e+01 -2.3035932078918292e-03 0.0000000000000000e+00  -1.1020196124648717e+01 -2.2920677311968735e-03 0.0000000000000000e+00  -1.1020191225840959e+01 -2.2875222733174708e-03 0.0000000000000000e+00  -1.1020188981832021e+01 -2.2856012621224552e-03 0.0000000000000000e+00  -1.1020187970955854e+01 -2.2847181479457171e-03 0.0000000000000000e+00  -1.1020187441446941e+01 -2.2842812074887653e-03 0.0000000000000000e+00  -1.1020187194390546e+01 -2.2840605484026034e-03 0.0000000000000000e+00  -1.1020187055342799e+01 -2.2839463541567216e-03 0.0000000000000000e+00  -1.1020186992874766e+01 -2.2838889833843175e-03 0.0000000000000000e+00  -1.1020186955871159e+01 -2.2838590196231747e-03 0.0000000000000000e+00  -1.1020186940426333e+01 -2.2838444301872714e-03 0.0000000000000000e+00  -1.1020186930689725e+01 -2.2838366463015822e-03 0.0000000000000000e+00  -1.1020186926962632e+01 -2.2838330289653452e-03 0.0000000000000000e+00  -1.1020186924463429e+01 -2.2838310256321080e-03 0.0000000000000000e+00  -1.1020186923550863e+01 -2.2838301515131403e-03 0.0000000000000000e+00  -1.1020186922950977e+01 -2.2838296411339665e-03 0.0000000000000000e+00  -1.1020186922699054e+01 -2.2838294343568602e-03 0.0000000000000000e+00  -1.1020186922583981e+01 -2.2838293045827837e-03 0.0000000000000000e+00  -1.1020186922493751e+01 -2.2838292563689072e-03 0.0000000000000000e+00  -1.1020186922490854e+01 -2.2838292239598340e-03 0.0000000000000000e+00  -1.1020186922448110e+01 -2.2838292116516361e-03 0.0000000000000000e+00  -1.1020186922462267e+01 -2.2838292054293313e-03 0.0000000000000000e+00  -1.1020186922440672e+01 -2.2838292017946854e-03 0.0000000000000000e+00  -1.1020186922452829e+01 -2.2838292003527689e-03 0.0000000000000000e+00  -1.1020186922440988e+01 -2.2838291983407174e-03 0.0000000000000000e+00  -1.1020186922448776e+01 -2.2838291998204538e-03 0.0000000000000000e+00  -1.1020186922443560e+01 -2.2838291990774748e-03 0.0000000000000000e+00  -1.1020186922445665e+01 -2.2838291991348274e-03 0.0000000000000000e+00  -1.1020186922442873e+01 -2.2838291988112542e-03 0.0000000000000000e+00  -1.1020186922444585e+01 -2.2838291988580305e-03 0.0000000000000000e+00  -1.1020186922444069e+01 -2.2838291987324413e-03 0.0000000000000000e+00  -1.1020186922443337e+01 -2.2838292016220015e-03 0.0000000000000000e+00  -1.1020186922441191e+01 -2.2838292016774064e-03 0.0000000000000000e+00  -1.1020186922438537e+01 -2.2838292070264162e-03 0.0000000000000000e+00  -1.1020186922432423e+01 -2.2838292156462559e-03 0.0000000000000000e+00  -1.1020186922419922e+01 -2.2838292327815308e-03 0.0000000000000000e+00  -1.1020186922394370e+01 -2.2838292680656927e-03 0.0000000000000000e+00  -1.1020186922343555e+01 -2.2838293405248924e-03 0.0000000000000000e+00  -1.1020186922237039e+01 -2.2838294868147112e-03 0.0000000000000000e+00  -1.1020186922026230e+01 -2.2838297860975705e-03 0.0000000000000000e+00  -1.1020186921588250e+01 -2.2838303936942887e-03 0.0000000000000000e+00  -1.1020186920711048e+01 -2.2838316243425881e-03 0.0000000000000000e+00  -1.1020186918910344e+01 -2.2838341328995440e-03 0.0000000000000000e+00  -1.1020186915283254e+01 -2.2838392052855969e-03 0.0000000000000000e+00  -1.1020186907895937e+01 -2.2838494913444297e-03 0.0000000000000000e+00  -1.1020186893024741e+01 -2.2838702006191432e-03 0.0000000000000000e+00  -1.1020186863064964e+01 -2.2839117979301291e-03 0.0000000000000000e+00  -1.1020186802930231e+01 -2.2839950119067339e-03 0.0000000000000000e+00  -1.1020186684066656e+01 -2.2841591629156684e-03 0.0000000000000000e+00  -1.1020186444253545e+01 -2.2844872378279253e-03 0.0000000000000000e+00  -1.1020185991095024e+01 -2.2851076203819444e-03 0.0000000000000000e+00  -1.1020185026556257e+01 -2.2863988826084753e-03 0.0000000000000000e+00  -1.1020183447564920e+01 -2.2885121914478783e-03 0.0000000000000000e+00  -1.1020179191762010e+01 -2.2940275887479824e-03 0.0000000000000000e+00  -1.1020175231366473e+01 -2.2984145824391090e-03 0.0000000000000000e+00  -1.1020151468116994e+01 -2.3288372855629447e-03 0.0000000000000000e+00  -1.1020159942293887e+01 -2.2969201677683700e-03 0.0000000000000000e+00  -1.1019990584043441e+01 -2.5202741169053186e-03 0.0000000000000000e+00  -1.1020249270179399e+01 -1.8336487552261004e-03 0.0000000000000000e+00  -1.1019035806169171e+01 -3.2861271355162031e-03 0.0000000000000000e+00  -1.1019779623312152e+01 4.6395376159408877e-03 0.0000000000000000e+00  -1.0997231642647867e+01 -6.7066907415075459e-03 0.0000000000000000e+00  -1.1023352006244135e+01 0.0000000000000000e+00 0.0000000000000000e+00  -7.5711220681643470e+00 0.0000000000000000e+00 0.0000000000000000e+00  -7.5627192708441306e+00 8.4206589998222642e-03 0.0000000000000000e+00  -7.5502047738272662e+00 8.0752263547668249e-03 0.0000000000000000e+00  -7.5394482026725154e+00 6.6383633237348172e-03 0.0000000000000000e+00  -7.5311598951287850e+00 4.8430990933517847e-03 0.0000000000000000e+00  -7.5258396244476895e+00 3.0044122434179665e-03 0.0000000000000000e+00  -7.5229991682649420e+00 1.4365041932344015e-03 0.0000000000000000e+00  -7.5221114502776185e+00 2.5973938000407859e-04 0.0000000000000000e+00  -7.5224757910197573e+00 -5.7243081880510051e-04 0.0000000000000000e+00  -7.5235957040691561e+00 -1.0447601671688071e-03 0.0000000000000000e+00  -7.5251563398468102e+00 -1.4400684766828270e-03 0.0000000000000000e+00  -7.5269321830414171e+00 -1.6525240430440900e-03 0.0000000000000000e+00  -7.5285023016188468e+00 -1.4290439247097370e-03 0.0000000000000000e+00  -7.5296024427983701e+00 -9.3171226421216290e-04 0.0000000000000000e+00  -7.5302312807226492e+00 -4.5750681068720914e-04 0.0000000000000000e+00  -7.5305411892341088e+00 -1.3728260395849302e-04 0.0000000000000000e+00  -7.5306751510968972e+00 3.7961661187609557e-05 0.0000000000000000e+00  -7.5307291949045245e+00 1.2127748417530748e-04 0.0000000000000000e+00  -7.5307497173446265e+00 1.5688135940645085e-04 0.0000000000000000e+00  -7.5307581650363433e+00 1.7125253244096810e-04 0.0000000000000000e+00  -7.5307617039756147e+00 1.7692011252433193e-04 0.0000000000000000e+00  -7.5307635259457975e+00 1.7928885912071329e-04 0.0000000000000000e+00  -7.5307643764299437e+00 1.8032910124225906e-04 0.0000000000000000e+00  -7.5307648680813548e+00 1.8083881635417098e-04 0.0000000000000000e+00  -7.5307650875231760e+00 1.8108636381021194e-04 0.0000000000000000e+00  -7.5307652216843195e+00 1.8121742586719522e-04 0.0000000000000000e+00  -7.5307652753470249e+00 1.8128118987515121e-04 0.0000000000000000e+00  -7.5307653117182030e+00 1.8131578081383653e-04 0.0000000000000000e+00  -7.5307653240032346e+00 1.8133203958419313e-04 0.0000000000000000e+00  -7.5307653339486782e+00 1.8134107620419211e-04 0.0000000000000000e+00  -7.5307653365430980e+00 1.8134512861967756e-04 0.0000000000000000e+00  -7.5307653392663427e+00 1.8134745149801058e-04 0.0000000000000000e+00  -7.5307653397801433e+00 1.8134844425982087e-04 0.0000000000000000e+00  -7.5307653404964237e+00 1.8134902629140289e-04 0.0000000000000000e+00  -7.5307653406160817e+00 1.8134927521406538e-04 0.0000000000000000e+00  -7.5307653407761697e+00 1.8134941065257572e-04 0.0000000000000000e+00  -7.5307653408272577e+00 1.8134947985091939e-04 0.0000000000000000e+00  -7.5307653