<?xml version="1.0"?>
<VTKFile type="UnstructuredGrid"  version="0.1"  >
<UnstructuredGrid>
<Piece  NumberOfPoints="1369" NumberOfCells="2560">
<Points>
<DataArray  type="Float64"  NumberOfComponents="3"  format="ascii">0 0 0  0.75 0 0  1.5 0 0  2.25 0 0  3 0 0  3.75 0 0  4.5 0 0  5.25 0 0  6 0 0  6.75 0 0  7.5 0 0  8.25 0 0  9 0 0  9.75 0 0  10.5 0 0  11.25 0 0  12 0 0  12.75 0 0  13.5 0 0  14.25 0 0  15 0 0  15.75 0 0  16.5 0 0  17.25 0 0  18 0 0  18.75 0 0  19.5 0 0  20.25 0 0  21 0 0  21.75 0 0  22.5 0 0  23.25 0 0  24 0 0  24.75 0 0  25.5 0 0  26.25 0 0  27 0 0  27.75 0 0  28.5 0 0  29.25 0 0  30 0 0  30.75 0 0  31.5 0 0  32.25 0 0  33 0 0  33.75 0 0  34.5 0 0  35.25 0 0  36 0 0  36.75 0 0  37.5 0 0  38.25 0 0  39 0 0  39.75 0 0  40.5 0 0  41.25 0 0  42 0 0  42.75 0 0  43.5 0 0  44.25 0 0  45 0 0  45.75 0 0  46.5 0 0  47.25 0 0  48 0 0  48.75 0 0  49.5 0 0  50.25 0 0  51 0 0  51.75 0 0  52.5 0 0  53.25 0 0  54 0 0  54.75 0 0  55.5 0 0  56.25 0 0  57 0 0  57.75 0 0  58.5 0 0  59.25 0 0  60 0 0  0 0.5 0  0.75 0.5 0  1.5 0.5 0  2.25 0.5 0  3 0.5 0  3.75 0.5 0  4.5 0.5 0  5.25 0.5 0  6 0.5 0  6.75 0.5 0  7.5 0.5 0  8.25 0.5 0  9 0.5 0  9.75 0.5 0  10.5 0.5 0  11.25 0.5 0  12 0.5 0  12.75 0.5 0  13.5 0.5 0  14.25 0.5 0  15 0.5 0  15.75 0.5 0  16.5 0.5 0  17.25 0.5 0  18 0.5 0  18.75 0.5 0  19.5 0.5 0  20.25 0.5 0  21 0.5 0  21.75 0.5 0  22.5 0.5 0  23.25 0.5 0  24 0.5 0  24.75 0.5 0  25.5 0.5 0  26.25 0.5 0  27 0.5 0  27.75 0.5 0  28.5 0.5 0  29.25 0.5 0  30 0.5 0  30.75 0.5 0  31.5 0.5 0  32.25 0.5 0  33 0.5 0  33.75 0.5 0  34.5 0.5 0  35.25 0.5 0  36 0.5 0  36.75 0.5 0  37.5 0.5 0  38.25 0.5 0  39 0.5 0  39.75 0.5 0  40.5 0.5 0  41.25 0.5 0  42 0.5 0  42.75 0.5 0  43.5 0.5 0  44.25 0.5 0  45 0.5 0  45.75 0.5 0  46.5 0.5 0  47.25 0.5 0  48 0.5 0  48.75 0.5 0  49.5 0.5 0  50.25 0.5 0  51 0.5 0  51.75 0.5 0  52.5 0.5 0  53.25 0.5 0  54 0.5 0  54.75 0.5 0  55.5 0.5 0  56.25 0.5 0  57 0.5 0  57.75 0.5 0  58.5 0.5 0  59.25 0.5 0  60 0.5 0  0 1 0  0.75 1 0  1.5 1 0  2.25 1 0  3 1 0  3.75 1 0  4.5 1 0  5.25 1 0  6 1 0  6.75 1 0  7.5 1 0  8.25 1 0  9 1 0  9.75 1 0  10.5 1 0  11.25 1 0  12 1 0  12.75 1 0  13.5 1 0  14.25 1 0  15 1 0  15.75 1 0  16.5 1 0  17.25 1 0  18 1 0  18.75 1 0  19.5 1 0  20.25 1 0  21 1 0  21.75 1 0  22.5 1 0  23.25 1 0  24 1 0  24.75 1 0  25.5 1 0  26.25 1 0  27 1 0  27.75 1 0  28.5 1 0  29.25 1 0  30 1 0  30.75 1 0  31.5 1 0  32.25 1 0  33 1 0  33.75 1 0  34.5 1 0  35.25 1 0  36 1 0  36.75 1 0  37.5 1 0  38.25 1 0  39 1 0  39.75 1 0  40.5 1 0  41.25 1 0  42 1 0  42.75 1 0  43.5 1 0  44.25 1 0  45 1 0  45.75 1 0  46.5 1 0  47.25 1 0  48 1 0  48.75 1 0  49.5 1 0  50.25 1 0  51 1 0  51.75 1 0  52.5 1 0  53.25 1 0  54 1 0  54.75 1 0  55.5 1 0  56.25 1 0  57 1 0  57.75 1 0  58.5 1 0  59.25 1 0  60 1 0  0 1.5 0  0.75 1.5 0  1.5 1.5 0  2.25 1.5 0  3 1.5 0  3.75 1.5 0  4.5 1.5 0  5.25 1.5 0  6 1.5 0  6.75 1.5 0  7.5 1.5 0  8.25 1.5 0  9 1.5 0  9.75 1.5 0  10.5 1.5 0  11.25 1.5 0  12 1.5 0  12.75 1.5 0  13.5 1.5 0  14.25 1.5 0  15 1.5 0  15.75 1.5 0  16.5 1.5 0  17.25 1.5 0  18 1.5 0  18.75 1.5 0  19.5 1.5 0  20.25 1.5 0  21 1.5 0  21.75 1.5 0  22.5 1.5 0  23.25 1.5 0  24 1.5 0  24.75 1.5 0  25.5 1.5 0  26.25 1.5 0  27 1.5 0  27.75 1.5 0  28.5 1.5 0  29.25 1.5 0  30 1.5 0  30.75 1.5 0  31.5 1.5 0  32.25 1.5 0  33 1.5 0  33.75 1.5 0  34.5 1.5 0  35.25 1.5 0  36 1.5 0  36.75 1.5 0  37.5 1.5 0  38.25 1.5 0  39 1.5 0  39.75 1.5 0  40.5 1.5 0  41.25 1.5 0  42 1.5 0  42.75 1.5 0  43.5 1.5 0  44.25 1.5 0  45 1.5 0  45.75 1.5 0  46.5 1.5 0  47.25 1.5 0  48 1.5 0  48.75 1.5 0  49.5 1.5 0  50.25 1.5 0  51 1.5 0  51.75 1.5 0  52.5 1.5 0  53.25 1.5 0  54 1.5 0  54.75 1.5 0  55.5 1.5 0  56.25 1.5 0  57 1.5 0  57.75 1.5 0  58.5 1.5 0  59.25 1.5 0  60 1.5 0  0 2 0  0.75 2 0  1.5 2 0  2.25 2 0  3 2 0  3.75 2 0  4.5 2 0  5.25 2 0  6 2 0  6.75 2 0  7.5 2 0  8.25 2 0  9 2 0  9.75 2 0  10.5 2 0  11.25 2 0  12 2 0  12.75 2 0  13.5 2 0  14.25 2 0  15 2 0  15.75 2 0  16.5 2 0  17.25 2 0  18 2 0  18.75 2 0  19.5 2 0  20.25 2 0  21 2 0  21.75 2 0  22.5 2 0  23.25 2 0  24 2 0  24.75 2 0  25.5 2 0  26.25 2 0  27 2 0  27.75 2 0  28.5 2 0  29.25 2 0  30 2 0  30.75 2 0  31.5 2 0  32.25 2 0  33 2 0  33.75 2 0  34.5 2 0  35.25 2 0  36 2 0  36.75 2 0  37.5 2 0  38.25 2 0  39 2 0  39.75 2 0  40.5 2 0  41.25 2 0  42 2 0  42.75 2 0  43.5 2 0  44.25 2 0  45 2 0  45.75 2 0  46.5 2 0  47.25 2 0  48 2 0  48.75 2 0  49.5 2 0  50.25 2 0  51 2 0  51.75 2 0  52.5 2 0  53.25 2 0  54 2 0  54.75 2 0  55.5 2 0  56.25 2 0  57 2 0  57.75 2 0  58.5 2 0  59.25 2 0  60 2 0  0 2.5 0  0.75 2.5 0  1.5 2.5 0  2.25 2.5 0  3 2.5 0  3.75 2.5 0  4.5 2.5 0  5.25 2.5 0  6 2.5 0  6.75 2.5 0  7.5 2.5 0  8.25 2.5 0  9 2.5 0  9.75 2.5 0  10.5 2.5 0  11.25 2.5 0  12 2.5 0  12.75 2.5 0  13.5 2.5 0  14.25 2.5 0  15 2.5 0  15.75 2.5 0  16.5 2.5 0  17.25 2.5 0  18 2.5 0  18.75 2.5 0  19.5 2.5 0  20.25 2.5 0  21 2.5 0  21.75 2.5 0  22.5 2.5 0  23.25 2.5 0  24 2.5 0  24.75 2.5 0  25.5 2.5 0  26.25 2.5 0  27 2.5 0  27.75 2.5 0  28.5 2.5 0  29.25 2.5 0  30 2.5 0  30.75 2.5 0  31.5 2.5 0  32.25 2.5 0  33 2.5 0  33.75 2.5 0  34.5 2.5 0  35.25 2.5 0  36 2.5 0  36.75 2.5 0  37.5 2.5 0  38.25 2.5 0  39 2.5 0  39.75 2.5 0  40.5 2.5 0  41.25 2.5 0  42 2.5 0  42.75 2.5 0  43.5 2.5 0  44.25 2.5 0  45 2.5 0  45.75 2.5 0  46.5 2.5 0  47.25 2.5 0  48 2.5 0  48.75 2.5 0  49.5 2.5 0  50.25 2.5 0  51 2.5 0  51.75 2.5 0  52.5 2.5 0  53.25 2.5 0  54 2.5 0  54.75 2.5 0  55.5 2.5 0  56.25 2.5 0  57 2.5 0  57.75 2.5 0  58.5 2.5 0  59.25 2.5 0  60 2.5 0  0 3 0  0.75 3 0  1.5 3 0  2.25 3 0  3 3 0  3.75 3 0  4.5 3 0  5.25 3 0  6 3 0  6.75 3 0  7.5 3 0  8.25 3 0  9 3 0  9.75 3 0  10.5 3 0  11.25 3 0  12 3 0  12.75 3 0  13.5 3 0  14.25 3 0  15 3 0  15.75 3 0  16.5 3 0  17.25 3 0  18 3 0  18.75 3 0  19.5 3 0  20.25 3 0  21 3 0  21.75 3 0  22.5 3 0  23.25 3 0  24 3 0  24.75 3 0  25.5 3 0  26.25 3 0  27 3 0  27.75 3 0  28.5 3 0  29.25 3 0  30 3 0  30.75 3 0  31.5 3 0  32.25 3 0  33 3 0  33.75 3 0  34.5 3 0  35.25 3 0  36 3 0  36.75 3 0  37.5 3 0  38.25 3 0  39 3 0  39.75 3 0  40.5 3 0  41.25 3 0  42 3 0  42.75 3 0  43.5 3 0  44.25 3 0  45 3 0  45.75 3 0  46.5 3 0  47.25 3 0  48 3 0  48.75 3 0  49.5 3 0  50.25 3 0  51 3 0  51.75 3 0  52.5 3 0  53.25 3 0  54 3 0  54.75 3 0  55.5 3 0  56.25 3 0  57 3 0  57.75 3 0  58.5 3 0  59.25 3 0  60 3 0  0 3.5 0  0.75 3.5 0  1.5 3.5 0  2.25 3.5 0  3 3.5 0  3.75 3.5 0  4.5 3.5 0  5.25 3.5 0  6 3.5 0  6.75 3.5 0  7.5 3.5 0  8.25 3.5 0  9 3.5 0  9.75 3.5 0  10.5 3.5 0  11.25 3.5 0  12 3.5 0  12.75 3.5 0  13.5 3.5 0  14.25 3.5 0  15 3.5 0  15.75 3.5 0  16.5 3.5 0  17.25 3.5 0  18 3.5 0  18.75 3.5 0  19.5 3.5 0  20.25 3.5 0  21 3.5 0  21.75 3.5 0  22.5 3.5 0  23.25 3.5 0  24 3.5 0  24.75 3.5 0  25.5 3.5 0  26.25 3.5 0  27 3.5 0  27.75 3.5 0  28.5 3.5 0  29.25 3.5 0  30 3.5 0  30.75 3.5 0  31.5 3.5 0  32.25 3.5 0  33 3.5 0  33.75 3.5 0  34.5 3.5 0  35.25 3.5 0  36 3.5 0  36.75 3.5 0  37.5 3.5 0  38.25 3.5 0  39 3.5 0  39.75 3.5 0  40.5 3.5 0  41.25 3.5 0  42 3.5 0  42.75 3.5 0  43.5 3.5 0  44.25 3.5 0  45 3.5 0  45.75 3.5 0  46.5 3.5 0  47.25 3.5 0  48 3.5 0  48.75 3.5 0  49.5 3.5 0  50.25 3.5 0  51 3.5 0  51.75 3.5 0  52.5 3.5 0  53.25 3.5 0  54 3.5 0  54.75 3.5 0  55.5 3.5 0  56.25 3.5 0  57 3.5 0  57.75 3.5 0  58.5 3.5 0  59.25 3.5 0  60 3.5 0  0 4 0  0.75 4 0  1.5 4 0  2.25 4 0  3 4 0  3.75 4 0  4.5 4 0  5.25 4 0  6 4 0  6.75 4 0  7.5 4 0  8.25 4 0  9 4 0  9.75 4 0  10.5 4 0  11.25 4 0  12 4 0  12.75 4 0  13.5 4 0  14.25 4 0  15 4 0  15.75 4 0  16.5 4 0  17.25 4 0  18 4 0  18.75 4 0  19.5 4 0  20.25 4 0  21 4 0  21.75 4 0  22.5 4 0  23.25 4 0  24 4 0  24.75 4 0  25.5 4 0  26.25 4 0  27 4 0  27.75 4 0  28.5 4 0  29.25 4 0  30 4 0  30.75 4 0  31.5 4 0  32.25 4 0  33 4 0  33.75 4 0  34.5 4 0  35.25 4 0  36 4 0  36.75 4 0  37.5 4 0  38.25 4 0  39 4 0  39.75 4 0  40.5 4 0  41.25 4 0  42 4 0  42.75 4 0  43.5 4 0  44.25 4 0  45 4 0  45.75 4 0  46.5 4 0  47.25 4 0  48 4 0  48.75 4 0  49.5 4 0  50.25 4 0  51 4 0  51.75 4 0  52.5 4 0  53.25 4 0  54 4 0  54.75 4 0  55.5 4 0  56.25 4 0  57 4 0  57.75 4 0  58.5 4 0  59.25 4 0  60 4 0  0.375 0.25 0  1.125 0.25 0  1.875 0.25 0  2.625 0.25 0  3.375 0.25 0  4.125 0.25 0  4.875 0.25 0  5.625 0.25 0  6.375 0.25 0  7.125 0.25 0  7.875 0.25 0  8.625 0.25 0  9.375 0.25 0  10.125 0.25 0  10.875 0.25 0  11.625 0.25 0  12.375 0.25 0  13.125 0.25 0  13.875 0.25 0  14.625 0.25 0  15.375 0.25 0  16.125 0.25 0  16.875 0.25 0  17.625 0.25 0  18.375 0.25 0  19.125 0.25 0  19.875 0.25 0  20.625 0.25 0  21.375 0.25 0  22.125 0.25 0  22.875 0.25 0  23.625 0.25 0  24.375 0.25 0  25.125 0.25 0  25.875 0.25 0  26.625 0.25 0  27.375 0.25 0  28.125 0.25 0  28.875 0.25 0  29.625 0.25 0  30.375 0.25 0  31.125 0.25 0  31.875 0.25 0  32.625 0.25 0  33.375 0.25 0  34.125 0.25 0  34.875 0.25 0  35.625 0.25 0  36.375 0.25 0  37.125 0.25 0  37.875 0.25 0  38.625 0.25 0  39.375 0.25 0  40.125 0.25 0  40.875 0.25 0  41.625 0.25 0  42.375 0.25 0  43.125 0.25 0  43.875 0.25 0  44.625 0.25 0  45.375 0.25 0  46.125 0.25 0  46.875 0.25 0  47.625 0.25 0  48.375 0.25 0  49.125 0.25 0  49.875 0.25 0  50.625 0.25 0  51.375 0.25 0  52.125 0.25 0  52.875 0.25 0  53.625 0.25 0  54.375 0.25 0  55.125 0.25 0  55.875 0.25 0  56.625 0.25 0  57.375 0.25 0  58.125 0.25 0  58.875 0.25 0  59.625 0.25 0  0.375 0.75 0  1.125 0.75 0  1.875 0.75 0  2.625 0.75 0  3.375 0.75 0  4.125 0.75 0  4.875 0.75 0  5.625 0.75 0  6.375 0.75 0  7.125 0.75 0  7.875 0.75 0  8.625 0.75 0  9.375 0.75 0  10.125 0.75 0  10.875 0.75 0  11.625 0.75 0  12.375 0.75 0  13.125 0.75 0  13.875 0.75 0  14.625 0.75 0  15.375 0.75 0  16.125 0.75 0  16.875 0.75 0  17.625 0.75 0  18.375 0.75 0  19.125 0.75 0  19.875 0.75 0  20.625 0.75 0  21.375 0.75 0  22.125 0.75 0  22.875 0.75 0  23.625 0.75 0  24.375 0.75 0  25.125 0.75 0  25.875 0.75 0  26.625 0.75 0  27.375 0.75 0  28.125 0.75 0  28.875 0.75 0  29.625 0.75 0  30.375 0.75 0  31.125 0.75 0  31.875 0.75 0  32.625 0.75 0  33.375 0.75 0  34.125 0.75 0  34.875 0.75 0  35.625 0.75 0  36.375 0.75 0  37.125 0.75 0  37.875 0.75 0  38.625 0.75 0  39.375 0.75 0  40.125 0.75 0  40
[...]
<PointData  Vectors="f_8-0"> 
<DataArray  type="Float64"  Name="f_8-0"  NumberOfComponents="3" format="ascii">0.0000000000000000e+00 0.0000000000000000e+00 0.0000000000000000e+00  0.0000000000000000e+00 0.0000000000000000e+00 0.0000000000000000e+00  0.0000000000000000e+00 0.0000000000000000e+00 0.0000000000000000e+00  0.0000000000000000e+00 0.0000000000000000e+00 0.0000000000000000e+00  0.0000000000000000e+00 0.0000000000000000e+00 0.0000000000000000e+00  0.0000000000000000e+00 0.0000000000000000e+00 0.0000000000000000e+00  0.0000000000000000e+00 0.0000000000000000e+00 0.0000000000000000e+00  0.0000000000000000e+00 0.0000000000000000e+00 0.0000000000000000e+00  0.0000000000000000e+00 0.0000000000000000e+00 0.0000000000000000e+00  0.0000000000000000e+00 0.0000000000000000e+00 0.0000000000000000e+00  0.0000000000000000e+00 0.0000000000000000e+00 0.0000000000000000e+00  0.0000000000000000e+00 0.0000000000000000e+00 0.0000000000000000e+00  0.0000000000000000e+00 0.0000000000000000e+00 0.0000000000000000e+00  0.0000000000000000e+00 0.0000000000000000e+00 0.0000000000000000e+00  0.0000000000000000e+00 0.0000000000000000e+00 0.0000000000000000e+00  0.0000000000000000e+00 0.0000000000000000e+00 0.0000000000000000e+00  0.0000000000000000e+00 0.0000000000000000e+00 0.0000000000000000e+00  0.0000000000000000e+00 0.0000000000000000e+00 0.0000000000000000e+00  0.0000000000000000e+00 0.0000000000000000e+00 0.0000000000000000e+00  0.0000000000000000e+00 0.0000000000000000e+00 0.0000000000000000e+00  0.0000000000000000e+00 0.0000000000000000e+00 0.0000000000000000e+00  0.0000000000000000e+00 0.0000000000000000e+00 0.0000000000000000e+00  0.0000000000000000e+00 0.0000000000000000e+00 0.0000000000000000e+00  0.0000000000000000e+00 0.0000000000000000e+00 0.0000000000000000e+00  0.0000000000000000e+00 0.0000000000000000e+00 0.0000000000000000e+00  0.0000000000000000e+00 0.0000000000000000e+00 0.0000000000000000e+00  0.0000000000000000e+00 0.0000000000000000e+00 0.0000000000000000e+00  0.0000000000000000e+00 0.0000000000000000e+00 0.0000000000000000e+00  0.0000000000000000e+00 0.0000000000000000e+00 0.0000000000000000e+00  0.0000000000000000e+00 0.0000000000000000e+00 0.0000000000000000e+00  0.0000000000000000e+00 0.0000000000000000e+00 0.0000000000000000e+00  0.0000000000000000e+00 0.0000000000000000e+00 0.0000000000000000e+00  0.0000000000000000e+00 0.0000000000000000e+00 0.0000000000000000e+00  0.0000000000000000e+00 0.0000000000000000e+00 0.0000000000000000e+00  0.0000000000000000e+00 0.0000000000000000e+00 0.0000000000000000e+00  0.0000000000000000e+00 0.0000000000000000e+00 0.0000000000000000e+00  0.0000000000000000e+00 0.0000000000000000e+00 0.0000000000000000e+00  0.0000000000000000e+00 0.0000000000000000e+00 0.0000000000000000e+00  0.0000000000000000e+00 0.0000000000000000e+00 0.0000000000000000e+00  0.0000000000000000e+00 0.0000000000000000e+00 0.0000000000000000e+00  0.0000000000000000e+00 0.0000000000000000e+00 0.0000000000000000e+00  0.0000000000000000e+00 0.0000000000000000e+00 0.0000000000000000e+00  0.0000000000000000e+00 0.0000000000000000e+00 0.0000000000000000e+00  0.0000000000000000e+00 0.0000000000000000e+00 0.0000000000000000e+00  0.0000000000000000e+00 0.0000000000000000e+00 0.0000000000000000e+00  0.0000000000000000e+00 0.0000000000000000e+00 0.0000000000000000e+00  0.0000000000000000e+00 0.0000000000000000e+00 0.0000000000000000e+00  0.0000000000000000e+00 0.0000000000000000e+00 0.0000000000000000e+00  0.0000000000000000e+00 0.0000000000000000e+00 0.0000000000000000e+00  0.0000000000000000e+00 0.0000000000000000e+00 0.0000000000000000e+00  0.0000000000000000e+00 0.0000000000000000e+00 0.0000000000000000e+00  0.0000000000000000e+00 0.0000000000000000e+00 0.0000000000000000e+00  0.0000000000000000e+00 0.0000000000000000e+00 0.0000000000000000e+00  0.0000000000000000e+00 0.0000000000000000e+00 0.0000000000000000e+00  0.0000000000000000e+00 0.0000000000000000e+00 0.0000000000000000e+00  0.0000000000000000e+00 0.0000000000000000e+00 0.0000000000000000e+00  0.0000000000000000e+00 0.0000000000000000e+00 0.0000000000000000e+00  0.0000000000000000e+00 0.0000000000000000e+00 0.0000000000000000e+00  0.0000000000000000e+00 0.0000000000000000e+00 0.0000000000000000e+00  0.0000000000000000e+00 0.0000000000000000e+00 0.0000000000000000e+00  0.0000000000000000e+00 0.0000000000000000e+00 0.0000000000000000e+00  0.0000000000000000e+00 0.0000000000000000e+00 0.0000000000000000e+00  0.0000000000000000e+00 0.0000000000000000e+00 0.0000000000000000e+00  0.0000000000000000e+00 0.0000000000000000e+00 0.0000000000000000e+00  0.0000000000000000e+00 0.0000000000000000e+00 0.0000000000000000e+00  0.0000000000000000e+00 0.0000000000000000e+00 0.0000000000000000e+00  0.0000000000000000e+00 0.0000000000000000e+00 0.0000000000000000e+00  0.0000000000000000e+00 0.0000000000000000e+00 0.0000000000000000e+00  0.0000000000000000e+00 0.0000000000000000e+00 0.0000000000000000e+00  0.0000000000000000e+00 0.0000000000000000e+00 0.0000000000000000e+00  0.0000000000000000e+00 0.0000000000000000e+00 0.0000000000000000e+00  0.0000000000000000e+00 0.0000000000000000e+00 0.0000000000000000e+00  0.0000000000000000e+00 0.0000000000000000e+00 0.0000000000000000e+00  0.0000000000000000e+00 0.0000000000000000e+00 0.0000000000000000e+00  0.0000000000000000e+00 0.0000000000000000e+00 0.0000000000000000e+00  0.0000000000000000e+00 0.0000000000000000e+00 0.0000000000000000e+00  0.0000000000000000e+00 0.0000000000000000e+00 0.0000000000000000e+00  0.0000000000000000e+00 0.0000000000000000e+00 0.0000000000000000e+00  0.0000000000000000e+00 0.0000000000000000e+00 0.0000000000000000e+00  0.0000000000000000e+00 0.0000000000000000e+00 0.0000000000000000e+00  0.0000000000000000e+00 0.0000000000000000e+00 0.0000000000000000e+00  4.3900334612147143e+00 0.0000000000000000e+00 0.0000000000000000e+00  4.3587487668351717e+00 -6.3086343656763216e-02 0.0000000000000000e+00  4.3234654613009607e+00 -1.2763589912906773e-02 0.0000000000000000e+00  4.2996552767865932e+00 2.0049848678524622e-03 0.0000000000000000e+00  4.2721816832817447e+00 3.8589483055851445e-03 0.0000000000000000e+00  4.2498729982336378e+00 2.7206679911178978e-03 0.0000000000000000e+00  4.2391268675748606e+00 -2.6036656955238987e-03 0.0000000000000000e+00  4.2349849917116726e+00 -4.8634693738386792e-03 0.0000000000000000e+00  4.2386455305609276e+00 -7.8629177667645014e-03 0.0000000000000000e+00  4.2438091133198297e+00 -8.1112058758910192e-03 0.0000000000000000e+00  4.2514170084573859e+00 -8.7073032358787831e-03 0.0000000000000000e+00  4.2576311418207906e+00 -8.0617228484269107e-03 0.0000000000000000e+00  4.2640728129052805e+00 -8.0515575272038821e-03 0.0000000000000000e+00  4.2690786542213610e+00 -7.3418669949263287e-03 0.0000000000000000e+00  4.2736344153641683e+00 -7.1352601544942247e-03 0.0000000000000000e+00  4.2772790237149705e+00 -6.8416414554681301e-03 0.0000000000000000e+00  4.2810195513722853e+00 -6.8913938885645431e-03 0.0000000000000000e+00  4.2845515917599526e+00 -6.7652703616621250e-03 0.0000000000000000e+00  4.2880874222972816e+00 -6.7337871925799535e-03 0.0000000000000000e+00  4.2914064524755231e+00 -6.6680424739198260e-03 0.0000000000000000e+00  4.2948036397558980e+00 -6.7393999732267328e-03 0.0000000000000000e+00  4.2983087578210437e+00 -6.7909324239794509e-03 0.0000000000000000e+00  4.3019415816033355e+00 -6.7955286921610051e-03 0.0000000000000000e+00  4.3053760594623540e+00 -6.6318445473807870e-03 0.0000000000000000e+00  4.3082594581323859e+00 -6.3269314613839745e-03 0.0000000000000000e+00  4.3102283096314995e+00 -5.9068788013900480e-03 0.0000000000000000e+00  4.3111167815191020e+00 -5.4644826713219673e-03 0.0000000000000000e+00  4.3109243600069886e+00 -5.0599207364622426e-03 0.0000000000000000e+00  4.3098202760075317e+00 -4.7472519712740864e-03 0.0000000000000000e+00  4.3080501794180837e+00 -4.5402377542188531e-03 0.0000000000000000e+00  4.3058847566702960e+00 -4.4372641835319108e-03 0.0000000000000000e+00  4.3035634558095142e+00 -4.4183950648423809e-03 0.0000000000000000e+00  4.3012735989264703e+00 -4.4610690359227247e-03 0.0000000000000000e+00  4.2991431032864247e+00 -4.5420909572469297e-03 0.0000000000000000e+00  4.2972457749997242e+00 -4.6426348849541235e-03 0.0000000000000000e+00  4.2956140556795592e+00 -4.7488026843227945e-03 0.0000000000000000e+00  4.2942495098893394e+00 -4.8511075778150088e-03 0.0000000000000000e+00  4.2931359053747009e+00 -4.9443665836135069e-03 0.0000000000000000e+00  4.2922457897859223e+00 -5.0257373874068693e-03 0.0000000000000000e+00  4.2915484933450561e+00 -5.0947976765749669e-03 0.0000000000000000e+00  4.2910123381118481e+00 -5.1518018224961989e-03 0.0000000000000000e+00  4.2906084391096400e+00 -5.1980774841151618e-03 0.0000000000000000e+00  4.2903105466951565e+00 -5.2348326272204353e-03 0.0000000000000000e+00  4.2900965662083079e+00 -5.2636661470419031e-03 0.0000000000000000e+00  4.2899475781668350e+00 -5.2858007917078887e-03 0.0000000000000000e+00  4.2898483049592340e+00 -5.3025525830907453e-03 0.0000000000000000e+00  4.2897860552017448e+00 -5.3148609592882637e-03 0.0000000000000000e+00  4.2897508090981651e+00 -5.3236728579370545e-03 0.0000000000000000e+00  4.2897344157620516e+00 -5.3296630921566028e-03 0.0000000000000000e+00  4.2897306156233377e+00 -5.3335098430098010e-03 0.0000000000000000e+00  4.2897345166427145e+00 -5.3357120928010050e-03 0.0000000000000000e+00  4.2897425925222148e+00 -5.3367604622901977e-03 0.0000000000000000e+00  4.2897523107338067e+00 -5.3370100204614889e-03 0.0000000000000000e+00  4.2897620710694131e+00 -5.3367842141872250e-03 0.0000000000000000e+00  4.2897709047960904e+00 -5.3362952433254219e-03 0.0000000000000000e+00  4.2897783778954270e+00 -5.3357161201879298e-03 0.0000000000000000e+00  4.2897843628542711e+00 -5.3351390755696287e-03 0.0000000000000000e+00  4.2897889602327410e+00 -5.3346292930664127e-03 0.0000000000000000e+00  4.2897923566864868e+00 -5.3342049543156026e-03 0.0000000000000000e+00  4.2897947895607782e+00 -5.3338745687929821e-03 0.0000000000000000e+00  4.2897964779726365e+00 -5.3336255794161130e-03 0.0000000000000000e+00  4.2897976213312070e+00 -5.3334472141008428e-03 0.0000000000000000e+00  4.2897983745780310e+00 -5.3333219152106722e-03 0.0000000000000000e+00  4.2897988612982614e+00 -5.3332378967074689e-03 0.0000000000000000e+00  4.2897991684506973e+00 -5.3331823372238605e-03 0.0000000000000000e+00  4.2897993610047198e+00 -5.3331481327233161e-03 0.0000000000000000e+00  4.2897994836337503e+00 -5.3331295557762608e-03 0.0000000000000000e+00  4.2897995750908962e+00 -5.3331278489316706e-03 0.0000000000000000e+00  4.2897996811814849e+00 -5.3331542768841307e-03 0.0000000000000000e+00  4.2897998959540891e+00 -5.3332503164110045e-03 0.0000000000000000e+00  4.2898004631185653e+00 -5.3335390340977116e-03 0.0000000000000000e+00  4.2898020698710537e+00 -5.3343769480758557e-03 0.0000000000000000e+00  4.2898066694625783e+00 -5.3367868903185416e-03 0.0000000000000000e+00  4.2898198070611029e+00 -5.3436196122768004e-03 0.0000000000000000e+00  4.2898568464652911e+00 -5.3629916151680251e-03 0.0000000000000000e+00  4.2899599023875856e+00 -5.4130392976721921e-03 0.0000000000000000e+00  4.2902317565551860e+00 -5.5544518554806084e-03 0.0000000000000000e+00  4.2909135720149534e+00 -5.6271776213219537e-03 0.0000000000000000e+00  4.2924489985580090e+00 -6.4199221784707198e-03 0.0000000000000000e+00  4.2928824448385479e+00 1.4309700876560456e-02 0.0000000000000000e+00  4.3685374614972989e+00 0.0000000000000000e+00 0.0000000000000000e+00  1.8411729437608283e+01 0.0000000000000000e+00 0.0000000000000000e+00  1.8449619929357386e+01 3.6801800244612347e-02 0.0000000000000000e+00  1.8426946272556869e+01 1.8548761446593391e-02 0.0000000000000000e+00  1.8435825915426669e+01 2.7382553511498032e-02 0.0000000000000000e+00  1.8439392142595313e+01 2.3624783561403667e-02 0.0000000000000000e+00  1.8450426300444462e+01 1.3081034661395969e-02 0.0000000000000000e+00  1.8455214192204057e+01 7.2070506157526576e-03 0.0000000000000000e+00  1.8461022104456109e+01 -1.4579437614048937e-03 0.0000000000000000e+00  1.8462196848265293e+01 -3.0894953970388504e-03 0.0000000000000000e+00  1.8463885389750018e+01 -6.4548103312778594e-03 0.0000000000000000e+00  1.8463164652087677e+01 -5.3028880777706445e-03 0.0000000000000000e+00  1.8463285705012147e+01 -5.3863229528556492e-03 0.0000000000000000e+00  1.8461557012943835e+01 -4.3725476845332695e-03 0.0000000000000000e+00  1.8461272710131023e+01 -4.0964913265696479e-03 0.0000000000000000e+00  1.8460494766571003e+01 -2.9331968326119381e-03 0.0000000000000000e+00  1.8460113170150020e+01 -2.8466910304435940e-03 0.0000000000000000e+00  1.8459503797881748e+01 -2.8523895207581041e-03 0.0000000000000000e+00  1.8459916168198554e+01 -3.1516015769788579e-03 0.0000000000000000e+00  1.8460754543448111e+01 -2.9997047177461439e-03 0.0000000000000000e+00  1.8461963296563312e+01 -2.9386820300705248e-03 0.0000000000000000e+00  1.8462950217434628e+01 -2.9374360639039332e-03 0.0000000000000000e+00  1.8464010838563230e+01 -3.1934772513053889e-03 0.0000000000000000e+00  1.8465276529692730e+01 -3.3462621737190847e-03 0.0000000000000000e+00  1.8467036289789011e+01 -3.2396701918719086e-03 0.0000000000000000e+00  1.8469125921075221e+01 -2.6800309224514207e-03 0.0000000000000000e+00  1.8471301666240702e+01 -1.7753416110816477e-03 0.0000000000000000e+00  1.8473160530331082e+01 -6.6653406299917216e-04 0.0000000000000000e+00  1.8474450648718847e+01 4.1708195286966563e-04 0.0000000000000000e+00  1.8475023989812993e+01 1.3339699805971356e-03 0.0000000000000000e+00  1.8474916456849321e+01 1.9867611908645317e-03 0.0000000000000000e+00  1.8474243633251202e+01 2.3686523067807464e-03 0.0000000000000000e+00  1.8473184383475783e+01 2.5067738135546311e-03 0.0000000000000000e+00  1.8471907381813118e+01 2.4613822158637373e-03 0.0000000000000000e+00  1.8470561658171423e+01 2.2909608759887259e-03 0.0000000000000000e+00  1.8469252959617489e+01 2.0509246912916654e-03 0.0000000000000000e+00  1.8468051758673113e+01 1.7821132133838838e-03 0.0000000000000000e+00  1.8466994407949052e+01 1.5140913783211925e-03 0.0000000000000000e+00  1.8466094354786094e+01 1.2645671026160672e-03 0.0000000000000000e+00  1.8465348456390533e+01 1.0430959402262670e-03 0.0000000000000000e+00  1.8464744325719643e+01 8.5323832201717560e-04 0.0000000000000000e+00  1.8464264894976623e+01 6.9473178946836424e-04 0.0000000000000000e+00  1.8463891523285163e+01 5.6535667526466562e-04 0.0000000000000000e+00  1.8463606221271778e+01 4.6163564529207857e-04 0.0000000000000000e+00  1.8463392359733209e+01 3.7997938048027214e-04 0.0000000000000000e+00  1.8463235590166441e+01 3.1666286913109261e-04 0.0000000000000000e+00  1.8463123579341818e+01 2.6850370002451336e-04 0.0000000000000000e+00  1.8463046282558015e+01 2.3257270162982120e-04 0.0000000000000000e+00  1.8462995355846804e+01 2.0654760591533628e-04 0.0000000000000000e+00  1.8462964159577165e+01 1.8835403003698484e-04 0.0000000000000000e+00  1.8462947226635446e+01 1.7634520957118439e-04 0.0000000000000000e+00  1.8462940259778073e+01 1.6902405813074746e-04 0.0000000000000000e+00  1.8462939793941114e+01 1.6518173699308378e-04 0.0000000000000000e+00  1.8462943226966662e+01 1.6373965323074772e-04 0.0000000000000000e+00  1.8462948600585293e+01 1.6386479965616260e-04 0.0000000000000000e+00  1.8462954597903749e+01 1.6487349045748095e-04 0.0000000000000000e+00  1.8462960358242889e+01 1.6629669453081718e-04 0.0000000000000000e+00  1.8462965429003159e+01 1.6779794755579763e-04 0.0000000000000000e+00  1.8462969608020263e+01 1.6919285586174105e-04 0.0000000000000000e+00  1.8462972889702606e+01 1.7037738968247892e-04 0.0000000000000000e+00  1.8462975356223730e+01 1.7132821460844768e-04 0.0000000000000000e+00  1.8462977147945697e+01 1.7205124350302408e-04 0.0000000000000000e+00  1.8462978405408467e+01 1.7258197618997577e-04 0.0000000000000000e+00  1.8462979265035937e+01 1.7295571261373693e-04 0.0000000000000000e+00  1.8462979835566063e+01 1.7321238218010723e-04 0.0000000000000000e+00  1.8462980206599561e+01 1.7338190300536719e-04 0.0000000000000000e+00  1.8462980441636383e+01 1.7349059167188092e-04 0.0000000000000000e+00  1.8462980589021935e+01 1.7355354113977764e-04 0.0000000000000000e+00  1.8462980681101104e+01 1.7357674883053750e-04 0.0000000000000000e+00  1.8462980744432951e+01 1.7354377630649981e-04 0.0000000000000000e+00  1.8462980804552018e+01 1.7338810233346669e-04 0.0000000000000000e+00  1.8462980906436417e+01 1.7290314213316802e-04 0.0000000000000000e+00  1.8462981155242595e+01 1.7148803836336139e-04 0.0000000000000000e+00  1.8462981846006297e+01 1.6742062611421155e-04 0.0000000000000000e+00  1.8462983841579824e+01 1.5582652273318559e-04 0.0000000000000000e+00  1.8462989823837621e+01 1.2315260583727845e-04 0.0000000000000000e+00  1.8463007703277146e+01 3.1601606397010220e-05 0.0000000000000000e+00  1.8463069759171152e+01 -2.1386785165857555e-04 0.0000000000000000e+00  1.8463262892223362e+01 -8.9225129093637042e-04 0.0000000000000000e+00  1.8464197949699837e+01 -2.2148919779998019e-03 0.0000000000000000e+00  1.8466787029131851e+01 -7.3986608565347065e-03 0.0000000000000000e+00  1.8465560799428751e+01 0.0000000000000000e+00 0.0000000000000000e+00  2.5746020480856444e+01 0.0000000000000000e+00 0.0000000000000000e+00  2.5729637732144631e+01 -1.1545593451909753e-02 0.0000000000000000e+00  2.5745625303660169e+01 3.9056470509295574e-03 0.0000000000000000e+00  2.5765443851394114e+01 2.4980298455995935e-03 0.0000000000000000e+00  2.5798580023541298e+01 4.0662863713147946e-03 0.0000000000000000e+00  2.5815086048224114e+01 2.8488188900198030e-03 0.0000000000000000e+00  2.5831577455262583e+01 -1.2513392773550692e-03 0.0000000000000000e+00  2.5833372034859380e+01 -1.7391795321238094e-03 0.0000000000000000e+00  2.5835054112378295e+01 -3.4755870333430458e-03 0.0000000000000000e+00  2.5829722444772479e+01 -2.4676411671541252e-03 0.0000000000000000e+00  2.5825687867794915e+01 -2.8303069766951591e-03 0.0000000000000000e+00  2.5819828925316298e+01 -9.2217979014516042e-04 0.0000000000000000e+00  2.5815665931462767e+01 -1.0237098844900021e-03 0.0000000000000000e+00  2.5810651221875432e+01 -5.1860859809051217e-04 0.0000000000000000e+00  2.5807310697994403e+01 -2.4350959834126625e-04 0.0000000000000000e+00  2.5803943895748546e+01 2.1619598536529243e-04 0.0000000000000000e+00  2.5801046859942527e+01 -2.8488570661701975e-04 0.0000000000000000e+00  2.5797643539097916e+01 -7.8865011624639522e-04 0.0000000000000000e+00  2.5794584910492901e+01 -1.1621538737501794e-03 0.0000000000000000e+00  2.5791594643308844e+01 -1.0964654937078806e-03 0.0000000000000000e+00  2.5788859891457328e+01 -1.1029798435858340e-03 0.0000000000000000e+00  2.5785887848574660e+01 -1.2543186574868817e-03 0.0000000000000000e+00  2.5782773597038151e+01 -1.5862166904577588e-03 0.0000000000000000e+00  2.5779589174953685e+01 -1.7668930518877155e-03 0.0000000000000000e+00  2.5776813137876918e+01 -1.6237841633929048e-03 0.0000000000000000e+00  2.5774757354412831e+01 -1.0504324166542805e-03 0.0000000000000000e+00  2.5773704676241085e+01 -1.7359206137858524e-04 0.0000000000000000e+00  2.5773652618274436e+01 8.4083212875312450e-04 0.0000000000000000e+00  2.5774494520949197e+01 1.7921987280259950e-03 0.0000000000000000e+00  2.5775981488758248e+01 2.5601548268722324e-03 0.0000000000000000e+00  2.5777871570843921e+01 3.0787924267474550e-03 0.0000000000000000e+00  2.5779924174885366e+01 3.3544651719770889e-03 0.0000000000000000e+00  2.5781966546192308e+01 3.4227595594395689e-03 0.0000000000000000e+00  2.5783871287072920e+01 3.3406132118541016e-03 0.0000000000000000e+00  2.5785570891009890e+01 3.1611312682773758e-03 0.0000000000000000e+00  2.5787032183483898e+01 2.9314017832051367e-03 0.0000000000000000e+00  2.5788254236209319e+01 2.6852040697473768e-03 0.0000000000000000e+00  2.5789250868607816e+01 2.4459811529438870e-03 0.0000000000000000e+00  2.5790047225165562e+01 2.2271015624409714e-03 0.0000000000000000e+00  2.5790670868275988e+01 2.03529