<?xml version="1.0"?>
<VTKFile type="UnstructuredGrid"  version="0.1"  >
<UnstructuredGrid>
<Piece  NumberOfPoints="1369" NumberOfCells="2560">
<Points>
<DataArray  type="Float64"  NumberOfComponents="3"  format="ascii">0 0 0  0.75 0 0  1.5 0 0  2.25 0 0  3 0 0  3.75 0 0  4.5 0 0  5.25 0 0  6 0 0  6.75 0 0  7.5 0 0  8.25 0 0  9 0 0  9.75 0 0  10.5 0 0  11.25 0 0  12 0 0  12.75 0 0  13.5 0 0  14.25 0 0  15 0 0  15.75 0 0  16.5 0 0  17.25 0 0  18 0 0  18.75 0 0  19.5 0 0  20.25 0 0  21 0 0  21.75 0 0  22.5 0 0  23.25 0 0  24 0 0  24.75 0 0  25.5 0 0  26.25 0 0  27 0 0  27.75 0 0  28.5 0 0  29.25 0 0  30 0 0  30.75 0 0  31.5 0 0  32.25 0 0  33 0 0  33.75 0 0  34.5 0 0  35.25 0 0  36 0 0  36.75 0 0  37.5 0 0  38.25 0 0  39 0 0  39.75 0 0  40.5 0 0  41.25 0 0  42 0 0  42.75 0 0  43.5 0 0  44.25 0 0  45 0 0  45.75 0 0  46.5 0 0  47.25 0 0  48 0 0  48.75 0 0  49.5 0 0  50.25 0 0  51 0 0  51.75 0 0  52.5 0 0  53.25 0 0  54 0 0  54.75 0 0  55.5 0 0  56.25 0 0  57 0 0  57.75 0 0  58.5 0 0  59.25 0 0  60 0 0  0 0.5 0  0.75 0.5 0  1.5 0.5 0  2.25 0.5 0  3 0.5 0  3.75 0.5 0  4.5 0.5 0  5.25 0.5 0  6 0.5 0  6.75 0.5 0  7.5 0.5 0  8.25 0.5 0  9 0.5 0  9.75 0.5 0  10.5 0.5 0  11.25 0.5 0  12 0.5 0  12.75 0.5 0  13.5 0.5 0  14.25 0.5 0  15 0.5 0  15.75 0.5 0  16.5 0.5 0  17.25 0.5 0  18 0.5 0  18.75 0.5 0  19.5 0.5 0  20.25 0.5 0  21 0.5 0  21.75 0.5 0  22.5 0.5 0  23.25 0.5 0  24 0.5 0  24.75 0.5 0  25.5 0.5 0  26.25 0.5 0  27 0.5 0  27.75 0.5 0  28.5 0.5 0  29.25 0.5 0  30 0.5 0  30.75 0.5 0  31.5 0.5 0  32.25 0.5 0  33 0.5 0  33.75 0.5 0  34.5 0.5 0  35.25 0.5 0  36 0.5 0  36.75 0.5 0  37.5 0.5 0  38.25 0.5 0  39 0.5 0  39.75 0.5 0  40.5 0.5 0  41.25 0.5 0  42 0.5 0  42.75 0.5 0  43.5 0.5 0  44.25 0.5 0  45 0.5 0  45.75 0.5 0  46.5 0.5 0  47.25 0.5 0  48 0.5 0  48.75 0.5 0  49.5 0.5 0  50.25 0.5 0  51 0.5 0  51.75 0.5 0  52.5 0.5 0  53.25 0.5 0  54 0.5 0  54.75 0.5 0  55.5 0.5 0  56.25 0.5 0  57 0.5 0  57.75 0.5 0  58.5 0.5 0  59.25 0.5 0  60 0.5 0  0 1 0  0.75 1 0  1.5 1 0  2.25 1 0  3 1 0  3.75 1 0  4.5 1 0  5.25 1 0  6 1 0  6.75 1 0  7.5 1 0  8.25 1 0  9 1 0  9.75 1 0  10.5 1 0  11.25 1 0  12 1 0  12.75 1 0  13.5 1 0  14.25 1 0  15 1 0  15.75 1 0  16.5 1 0  17.25 1 0  18 1 0  18.75 1 0  19.5 1 0  20.25 1 0  21 1 0  21.75 1 0  22.5 1 0  23.25 1 0  24 1 0  24.75 1 0  25.5 1 0  26.25 1 0  27 1 0  27.75 1 0  28.5 1 0  29.25 1 0  30 1 0  30.75 1 0  31.5 1 0  32.25 1 0  33 1 0  33.75 1 0  34.5 1 0  35.25 1 0  36 1 0  36.75 1 0  37.5 1 0  38.25 1 0  39 1 0  39.75 1 0  40.5 1 0  41.25 1 0  42 1 0  42.75 1 0  43.5 1 0  44.25 1 0  45 1 0  45.75 1 0  46.5 1 0  47.25 1 0  48 1 0  48.75 1 0  49.5 1 0  50.25 1 0  51 1 0  51.75 1 0  52.5 1 0  53.25 1 0  54 1 0  54.75 1 0  55.5 1 0  56.25 1 0  57 1 0  57.75 1 0  58.5 1 0  59.25 1 0  60 1 0  0 1.5 0  0.75 1.5 0  1.5 1.5 0  2.25 1.5 0  3 1.5 0  3.75 1.5 0  4.5 1.5 0  5.25 1.5 0  6 1.5 0  6.75 1.5 0  7.5 1.5 0  8.25 1.5 0  9 1.5 0  9.75 1.5 0  10.5 1.5 0  11.25 1.5 0  12 1.5 0  12.75 1.5 0  13.5 1.5 0  14.25 1.5 0  15 1.5 0  15.75 1.5 0  16.5 1.5 0  17.25 1.5 0  18 1.5 0  18.75 1.5 0  19.5 1.5 0  20.25 1.5 0  21 1.5 0  21.75 1.5 0  22.5 1.5 0  23.25 1.5 0  24 1.5 0  24.75 1.5 0  25.5 1.5 0  26.25 1.5 0  27 1.5 0  27.75 1.5 0  28.5 1.5 0  29.25 1.5 0  30 1.5 0  30.75 1.5 0  31.5 1.5 0  32.25 1.5 0  33 1.5 0  33.75 1.5 0  34.5 1.5 0  35.25 1.5 0  36 1.5 0  36.75 1.5 0  37.5 1.5 0  38.25 1.5 0  39 1.5 0  39.75 1.5 0  40.5 1.5 0  41.25 1.5 0  42 1.5 0  42.75 1.5 0  43.5 1.5 0  44.25 1.5 0  45 1.5 0  45.75 1.5 0  46.5 1.5 0  47.25 1.5 0  48 1.5 0  48.75 1.5 0  49.5 1.5 0  50.25 1.5 0  51 1.5 0  51.75 1.5 0  52.5 1.5 0  53.25 1.5 0  54 1.5 0  54.75 1.5 0  55.5 1.5 0  56.25 1.5 0  57 1.5 0  57.75 1.5 0  58.5 1.5 0  59.25 1.5 0  60 1.5 0  0 2 0  0.75 2 0  1.5 2 0  2.25 2 0  3 2 0  3.75 2 0  4.5 2 0  5.25 2 0  6 2 0  6.75 2 0  7.5 2 0  8.25 2 0  9 2 0  9.75 2 0  10.5 2 0  11.25 2 0  12 2 0  12.75 2 0  13.5 2 0  14.25 2 0  15 2 0  15.75 2 0  16.5 2 0  17.25 2 0  18 2 0  18.75 2 0  19.5 2 0  20.25 2 0  21 2 0  21.75 2 0  22.5 2 0  23.25 2 0  24 2 0  24.75 2 0  25.5 2 0  26.25 2 0  27 2 0  27.75 2 0  28.5 2 0  29.25 2 0  30 2 0  30.75 2 0  31.5 2 0  32.25 2 0  33 2 0  33.75 2 0  34.5 2 0  35.25 2 0  36 2 0  36.75 2 0  37.5 2 0  38.25 2 0  39 2 0  39.75 2 0  40.5 2 0  41.25 2 0  42 2 0  42.75 2 0  43.5 2 0  44.25 2 0  45 2 0  45.75 2 0  46.5 2 0  47.25 2 0  48 2 0  48.75 2 0  49.5 2 0  50.25 2 0  51 2 0  51.75 2 0  52.5 2 0  53.25 2 0  54 2 0  54.75 2 0  55.5 2 0  56.25 2 0  57 2 0  57.75 2 0  58.5 2 0  59.25 2 0  60 2 0  0 2.5 0  0.75 2.5 0  1.5 2.5 0  2.25 2.5 0  3 2.5 0  3.75 2.5 0  4.5 2.5 0  5.25 2.5 0  6 2.5 0  6.75 2.5 0  7.5 2.5 0  8.25 2.5 0  9 2.5 0  9.75 2.5 0  10.5 2.5 0  11.25 2.5 0  12 2.5 0  12.75 2.5 0  13.5 2.5 0  14.25 2.5 0  15 2.5 0  15.75 2.5 0  16.5 2.5 0  17.25 2.5 0  18 2.5 0  18.75 2.5 0  19.5 2.5 0  20.25 2.5 0  21 2.5 0  21.75 2.5 0  22.5 2.5 0  23.25 2.5 0  24 2.5 0  24.75 2.5 0  25.5 2.5 0  26.25 2.5 0  27 2.5 0  27.75 2.5 0  28.5 2.5 0  29.25 2.5 0  30 2.5 0  30.75 2.5 0  31.5 2.5 0  32.25 2.5 0  33 2.5 0  33.75 2.5 0  34.5 2.5 0  35.25 2.5 0  36 2.5 0  36.75 2.5 0  37.5 2.5 0  38.25 2.5 0  39 2.5 0  39.75 2.5 0  40.5 2.5 0  41.25 2.5 0  42 2.5 0  42.75 2.5 0  43.5 2.5 0  44.25 2.5 0  45 2.5 0  45.75 2.5 0  46.5 2.5 0  47.25 2.5 0  48 2.5 0  48.75 2.5 0  49.5 2.5 0  50.25 2.5 0  51 2.5 0  51.75 2.5 0  52.5 2.5 0  53.25 2.5 0  54 2.5 0  54.75 2.5 0  55.5 2.5 0  56.25 2.5 0  57 2.5 0  57.75 2.5 0  58.5 2.5 0  59.25 2.5 0  60 2.5 0  0 3 0  0.75 3 0  1.5 3 0  2.25 3 0  3 3 0  3.75 3 0  4.5 3 0  5.25 3 0  6 3 0  6.75 3 0  7.5 3 0  8.25 3 0  9 3 0  9.75 3 0  10.5 3 0  11.25 3 0  12 3 0  12.75 3 0  13.5 3 0  14.25 3 0  15 3 0  15.75 3 0  16.5 3 0  17.25 3 0  18 3 0  18.75 3 0  19.5 3 0  20.25 3 0  21 3 0  21.75 3 0  22.5 3 0  23.25 3 0  24 3 0  24.75 3 0  25.5 3 0  26.25 3 0  27 3 0  27.75 3 0  28.5 3 0  29.25 3 0  30 3 0  30.75 3 0  31.5 3 0  32.25 3 0  33 3 0  33.75 3 0  34.5 3 0  35.25 3 0  36 3 0  36.75 3 0  37.5 3 0  38.25 3 0  39 3 0  39.75 3 0  40.5 3 0  41.25 3 0  42 3 0  42.75 3 0  43.5 3 0  44.25 3 0  45 3 0  45.75 3 0  46.5 3 0  47.25 3 0  48 3 0  48.75 3 0  49.5 3 0  50.25 3 0  51 3 0  51.75 3 0  52.5 3 0  53.25 3 0  54 3 0  54.75 3 0  55.5 3 0  56.25 3 0  57 3 0  57.75 3 0  58.5 3 0  59.25 3 0  60 3 0  0 3.5 0  0.75 3.5 0  1.5 3.5 0  2.25 3.5 0  3 3.5 0  3.75 3.5 0  4.5 3.5 0  5.25 3.5 0  6 3.5 0  6.75 3.5 0  7.5 3.5 0  8.25 3.5 0  9 3.5 0  9.75 3.5 0  10.5 3.5 0  11.25 3.5 0  12 3.5 0  12.75 3.5 0  13.5 3.5 0  14.25 3.5 0  15 3.5 0  15.75 3.5 0  16.5 3.5 0  17.25 3.5 0  18 3.5 0  18.75 3.5 0  19.5 3.5 0  20.25 3.5 0  21 3.5 0  21.75 3.5 0  22.5 3.5 0  23.25 3.5 0  24 3.5 0  24.75 3.5 0  25.5 3.5 0  26.25 3.5 0  27 3.5 0  27.75 3.5 0  28.5 3.5 0  29.25 3.5 0  30 3.5 0  30.75 3.5 0  31.5 3.5 0  32.25 3.5 0  33 3.5 0  33.75 3.5 0  34.5 3.5 0  35.25 3.5 0  36 3.5 0  36.75 3.5 0  37.5 3.5 0  38.25 3.5 0  39 3.5 0  39.75 3.5 0  40.5 3.5 0  41.25 3.5 0  42 3.5 0  42.75 3.5 0  43.5 3.5 0  44.25 3.5 0  45 3.5 0  45.75 3.5 0  46.5 3.5 0  47.25 3.5 0  48 3.5 0  48.75 3.5 0  49.5 3.5 0  50.25 3.5 0  51 3.5 0  51.75 3.5 0  52.5 3.5 0  53.25 3.5 0  54 3.5 0  54.75 3.5 0  55.5 3.5 0  56.25 3.5 0  57 3.5 0  57.75 3.5 0  58.5 3.5 0  59.25 3.5 0  60 3.5 0  0 4 0  0.75 4 0  1.5 4 0  2.25 4 0  3 4 0  3.75 4 0  4.5 4 0  5.25 4 0  6 4 0  6.75 4 0  7.5 4 0  8.25 4 0  9 4 0  9.75 4 0  10.5 4 0  11.25 4 0  12 4 0  12.75 4 0  13.5 4 0  14.25 4 0  15 4 0  15.75 4 0  16.5 4 0  17.25 4 0  18 4 0  18.75 4 0  19.5 4 0  20.25 4 0  21 4 0  21.75 4 0  22.5 4 0  23.25 4 0  24 4 0  24.75 4 0  25.5 4 0  26.25 4 0  27 4 0  27.75 4 0  28.5 4 0  29.25 4 0  30 4 0  30.75 4 0  31.5 4 0  32.25 4 0  33 4 0  33.75 4 0  34.5 4 0  35.25 4 0  36 4 0  36.75 4 0  37.5 4 0  38.25 4 0  39 4 0  39.75 4 0  40.5 4 0  41.25 4 0  42 4 0  42.75 4 0  43.5 4 0  44.25 4 0  45 4 0  45.75 4 0  46.5 4 0  47.25 4 0  48 4 0  48.75 4 0  49.5 4 0  50.25 4 0  51 4 0  51.75 4 0  52.5 4 0  53.25 4 0  54 4 0  54.75 4 0  55.5 4 0  56.25 4 0  57 4 0  57.75 4 0  58.5 4 0  59.25 4 0  60 4 0  0.375 0.25 0  1.125 0.25 0  1.875 0.25 0  2.625 0.25 0  3.375 0.25 0  4.125 0.25 0  4.875 0.25 0  5.625 0.25 0  6.375 0.25 0  7.125 0.25 0  7.875 0.25 0  8.625 0.25 0  9.375 0.25 0  10.125 0.25 0  10.875 0.25 0  11.625 0.25 0  12.375 0.25 0  13.125 0.25 0  13.875 0.25 0  14.625 0.25 0  15.375 0.25 0  16.125 0.25 0  16.875 0.25 0  17.625 0.25 0  18.375 0.25 0  19.125 0.25 0  19.875 0.25 0  20.625 0.25 0  21.375 0.25 0  22.125 0.25 0  22.875 0.25 0  23.625 0.25 0  24.375 0.25 0  25.125 0.25 0  25.875 0.25 0  26.625 0.25 0  27.375 0.25 0  28.125 0.25 0  28.875 0.25 0  29.625 0.25 0  30.375 0.25 0  31.125 0.25 0  31.875 0.25 0  32.625 0.25 0  33.375 0.25 0  34.125 0.25 0  34.875 0.25 0  35.625 0.25 0  36.375 0.25 0  37.125 0.25 0  37.875 0.25 0  38.625 0.25 0  39.375 0.25 0  40.125 0.25 0  40.875 0.25 0  41.625 0.25 0  42.375 0.25 0  43.125 0.25 0  43.875 0.25 0  44.625 0.25 0  45.375 0.25 0  46.125 0.25 0  46.875 0.25 0  47.625 0.25 0  48.375 0.25 0  49.125 0.25 0  49.875 0.25 0  50.625 0.25 0  51.375 0.25 0  52.125 0.25 0  52.875 0.25 0  53.625 0.25 0  54.375 0.25 0  55.125 0.25 0  55.875 0.25 0  56.625 0.25 0  57.375 0.25 0  58.125 0.25 0  58.875 0.25 0  59.625 0.25 0  0.375 0.75 0  1.125 0.75 0  1.875 0.75 0  2.625 0.75 0  3.375 0.75 0  4.125 0.75 0  4.875 0.75 0  5.625 0.75 0  6.375 0.75 0  7.125 0.75 0  7.875 0.75 0  8.625 0.75 0  9.375 0.75 0  10.125 0.75 0  10.875 0.75 0  11.625 0.75 0  12.375 0.75 0  13.125 0.75 0  13.875 0.75 0  14.625 0.75 0  15.375 0.75 0  16.125 0.75 0  16.875 0.75 0  17.625 0.75 0  18.375 0.75 0  19.125 0.75 0  19.875 0.75 0  20.625 0.75 0  21.375 0.75 0  22.125 0.75 0  22.875 0.75 0  23.625 0.75 0  24.375 0.75 0  25.125 0.75 0  25.875 0.75 0  26.625 0.75 0  27.375 0.75 0  28.125 0.75 0  28.875 0.75 0  29.625 0.75 0  30.375 0.75 0  31.125 0.75 0  31.875 0.75 0  32.625 0.75 0  33.375 0.75 0  34.125 0.75 0  34.875 0.75 0  35.625 0.75 0  36.375 0.75 0  37.125 0.75 0  37.875 0.75 0  38.625 0.75 0  39.375 0.75 0  40.125 0.75 0  40
[...]
<PointData  Vectors="f_8-0"> 
<DataArray  type="Float64"  Name="f_8-0"  NumberOfComponents="3" format="ascii">0.0000000000000000e+00 0.0000000000000000e+00 0.0000000000000000e+00  0.0000000000000000e+00 0.0000000000000000e+00 0.0000000000000000e+00  0.0000000000000000e+00 0.0000000000000000e+00 0.0000000000000000e+00  0.0000000000000000e+00 0.0000000000000000e+00 0.0000000000000000e+00  0.0000000000000000e+00 0.0000000000000000e+00 0.0000000000000000e+00  0.0000000000000000e+00 0.0000000000000000e+00 0.0000000000000000e+00  0.0000000000000000e+00 0.0000000000000000e+00 0.0000000000000000e+00  0.0000000000000000e+00 0.0000000000000000e+00 0.0000000000000000e+00  0.0000000000000000e+00 0.0000000000000000e+00 0.0000000000000000e+00  0.0000000000000000e+00 0.0000000000000000e+00 0.0000000000000000e+00  0.0000000000000000e+00 0.0000000000000000e+00 0.0000000000000000e+00  0.0000000000000000e+00 0.0000000000000000e+00 0.0000000000000000e+00  0.0000000000000000e+00 0.0000000000000000e+00 0.0000000000000000e+00  0.0000000000000000e+00 0.0000000000000000e+00 0.0000000000000000e+00  0.0000000000000000e+00 0.0000000000000000e+00 0.0000000000000000e+00  0.0000000000000000e+00 0.0000000000000000e+00 0.0000000000000000e+00  0.0000000000000000e+00 0.0000000000000000e+00 0.0000000000000000e+00  0.0000000000000000e+00 0.0000000000000000e+00 0.0000000000000000e+00  0.0000000000000000e+00 0.0000000000000000e+00 0.0000000000000000e+00  0.0000000000000000e+00 0.0000000000000000e+00 0.0000000000000000e+00  0.0000000000000000e+00 0.0000000000000000e+00 0.0000000000000000e+00  0.0000000000000000e+00 0.0000000000000000e+00 0.0000000000000000e+00  0.0000000000000000e+00 0.0000000000000000e+00 0.0000000000000000e+00  0.0000000000000000e+00 0.0000000000000000e+00 0.0000000000000000e+00  0.0000000000000000e+00 0.0000000000000000e+00 0.0000000000000000e+00  0.0000000000000000e+00 0.0000000000000000e+00 0.0000000000000000e+00  0.0000000000000000e+00 0.0000000000000000e+00 0.0000000000000000e+00  0.0000000000000000e+00 0.0000000000000000e+00 0.0000000000000000e+00  0.0000000000000000e+00 0.0000000000000000e+00 0.0000000000000000e+00  0.0000000000000000e+00 0.0000000000000000e+00 0.0000000000000000e+00  0.0000000000000000e+00 0.0000000000000000e+00 0.0000000000000000e+00  0.0000000000000000e+00 0.0000000000000000e+00 0.0000000000000000e+00  0.0000000000000000e+00 0.0000000000000000e+00 0.0000000000000000e+00  0.0000000000000000e+00 0.0000000000000000e+00 0.0000000000000000e+00  0.0000000000000000e+00 0.0000000000000000e+00 0.0000000000000000e+00  0.0000000000000000e+00 0.0000000000000000e+00 0.0000000000000000e+00  0.0000000000000000e+00 0.0000000000000000e+00 0.0000000000000000e+00  0.0000000000000000e+00 0.0000000000000000e+00 0.0000000000000000e+00  0.0000000000000000e+00 0.0000000000000000e+00 0.0000000000000000e+00  0.0000000000000000e+00 0.0000000000000000e+00 0.0000000000000000e+00  0.0000000000000000e+00 0.0000000000000000e+00 0.0000000000000000e+00  0.0000000000000000e+00 0.0000000000000000e+00 0.0000000000000000e+00  0.0000000000000000e+00 0.0000000000000000e+00 0.0000000000000000e+00  0.0000000000000000e+00 0.0000000000000000e+00 0.0000000000000000e+00  0.0000000000000000e+00 0.0000000000000000e+00 0.0000000000000000e+00  0.0000000000000000e+00 0.0000000000000000e+00 0.0000000000000000e+00  0.0000000000000000e+00 0.0000000000000000e+00 0.0000000000000000e+00  0.0000000000000000e+00 0.0000000000000000e+00 0.0000000000000000e+00  0.0000000000000000e+00 0.0000000000000000e+00 0.0000000000000000e+00  0.0000000000000000e+00 0.0000000000000000e+00 0.0000000000000000e+00  0.0000000000000000e+00 0.0000000000000000e+00 0.0000000000000000e+00  0.0000000000000000e+00 0.0000000000000000e+00 0.0000000000000000e+00  0.0000000000000000e+00 0.0000000000000000e+00 0.0000000000000000e+00  0.0000000000000000e+00 0.0000000000000000e+00 0.0000000000000000e+00  0.0000000000000000e+00 0.0000000000000000e+00 0.0000000000000000e+00  0.0000000000000000e+00 0.0000000000000000e+00 0.0000000000000000e+00  0.0000000000000000e+00 0.0000000000000000e+00 0.0000000000000000e+00  0.0000000000000000e+00 0.0000000000000000e+00 0.0000000000000000e+00  0.0000000000000000e+00 0.0000000000000000e+00 0.0000000000000000e+00  0.0000000000000000e+00 0.0000000000000000e+00 0.0000000000000000e+00  0.0000000000000000e+00 0.0000000000000000e+00 0.0000000000000000e+00  0.0000000000000000e+00 0.0000000000000000e+00 0.0000000000000000e+00  0.0000000000000000e+00 0.0000000000000000e+00 0.0000000000000000e+00  0.0000000000000000e+00 0.0000000000000000e+00 0.0000000000000000e+00  0.0000000000000000e+00 0.0000000000000000e+00 0.0000000000000000e+00  0.0000000000000000e+00 0.0000000000000000e+00 0.0000000000000000e+00  0.0000000000000000e+00 0.0000000000000000e+00 0.0000000000000000e+00  0.0000000000000000e+00 0.0000000000000000e+00 0.0000000000000000e+00  0.0000000000000000e+00 0.0000000000000000e+00 0.0000000000000000e+00  0.0000000000000000e+00 0.0000000000000000e+00 0.0000000000000000e+00  0.0000000000000000e+00 0.0000000000000000e+00 0.0000000000000000e+00  0.0000000000000000e+00 0.0000000000000000e+00 0.0000000000000000e+00  0.0000000000000000e+00 0.0000000000000000e+00 0.0000000000000000e+00  0.0000000000000000e+00 0.0000000000000000e+00 0.0000000000000000e+00  0.0000000000000000e+00 0.0000000000000000e+00 0.0000000000000000e+00  0.0000000000000000e+00 0.0000000000000000e+00 0.0000000000000000e+00  0.0000000000000000e+00 0.0000000000000000e+00 0.0000000000000000e+00  0.0000000000000000e+00 0.0000000000000000e+00 0.0000000000000000e+00  0.0000000000000000e+00 0.0000000000000000e+00 0.0000000000000000e+00  0.0000000000000000e+00 0.0000000000000000e+00 0.0000000000000000e+00  0.0000000000000000e+00 0.0000000000000000e+00 0.0000000000000000e+00  -1.1430791141029244e+01 0.0000000000000000e+00 0.0000000000000000e+00  -1.1478773110434940e+01 -5.4598256975919787e-03 0.0000000000000000e+00  -1.1500769403947661e+01 6.3543512920706700e-03 0.0000000000000000e+00  -1.1513450320338581e+01 7.2747158070131613e-03 0.0000000000000000e+00  -1.1524243966631524e+01 6.6840788740108736e-03 0.0000000000000000e+00  -1.1531836798355565e+01 5.2590026346498800e-03 0.0000000000000000e+00  -1.1536068463702048e+01 3.9159717254489655e-03 0.0000000000000000e+00  -1.1537695472961705e+01 2.9008977768863009e-03 0.0000000000000000e+00  -1.1537456643551197e+01 2.2624431525879018e-03 0.0000000000000000e+00  -1.1536184279070097e+01 1.8995969556855538e-03 0.0000000000000000e+00  -1.1534230194622427e+01 1.6782831241409499e-03 0.0000000000000000e+00  -1.1531974352378038e+01 1.6484672606358307e-03 0.0000000000000000e+00  -1.1529917913699286e+01 1.8134578470603213e-03 0.0000000000000000e+00  -1.1528431598971578e+01 2.0620998771518836e-03 0.0000000000000000e+00  -1.1527534480446953e+01 2.2756510501288525e-03 0.0000000000000000e+00  -1.1527071398727163e+01 2.4138504022300244e-03 0.0000000000000000e+00  -1.1526856941077405e+01 2.4862561255906456e-03 0.0000000000000000e+00  -1.1526766739221461e+01 2.5194197452506261e-03 0.0000000000000000e+00  -1.1526729544519831e+01 2.5327825927249966e-03 0.0000000000000000e+00  -1.1526714470400988e+01 2.5381009193142716e-03 0.0000000000000000e+00  -1.1526707620048308e+01 2.5401075451230962e-03 0.0000000000000000e+00  -1.1526704485384727e+01 2.5410422813834320e-03 0.0000000000000000e+00  -1.1526702804635951e+01 2.5414405003117350e-03 0.0000000000000000e+00  -1.1526701987975038e+01 2.5416807187607429e-03 0.0000000000000000e+00  -1.1526701521884046e+01 2.5417827126032956e-03 0.0000000000000000e+00  -1.1526701302013905e+01 2.5418538798942548e-03 0.0000000000000000e+00  -1.1526701173018083e+01 2.5418790610651520e-03 0.0000000000000000e+00  -1.1526701115292260e+01 2.5419007024627101e-03 0.0000000000000000e+00  -1.1526701080238976e+01 2.5419059063168125e-03 0.0000000000000000e+00  -1.1526701065317061e+01 2.5419127650976128e-03 0.0000000000000000e+00  -1.1526701056031857e+01 2.5419134092820391e-03 0.0000000000000000e+00  -1.1526701052092516e+01 2.5419156872694398e-03 0.0000000000000000e+00  -1.1526701049777625e+01 2.5419155555358622e-03 0.0000000000000000e+00  -1.1526701048635008e+01 2.5419163318944806e-03 0.0000000000000000e+00  -1.1526701048143391e+01 2.5419161896428461e-03 0.0000000000000000e+00  -1.1526701047749594e+01 2.5419164507564070e-03 0.0000000000000000e+00  -1.1526701047700334e+01 2.5419163851886357e-03 0.0000000000000000e+00  -1.1526701047534296e+01 2.5419164629979494e-03 0.0000000000000000e+00  -1.1526701047569045e+01 2.5419164445637946e-03 0.0000000000000000e+00  -1.1526701047489620e+01 2.5419164640855625e-03 0.0000000000000000e+00  -1.1526701047528155e+01 2.5419164618186783e-03 0.0000000000000000e+00  -1.1526701047488944e+01 2.5419164617358466e-03 0.0000000000000000e+00  -1.1526701047507489e+01 2.5419164668337114e-03 0.0000000000000000e+00  -1.1526701047492375e+01 2.5419164616878554e-03 0.0000000000000000e+00  -1.1526701047500513e+01 2.5419164664706199e-03 0.0000000000000000e+00  -1.1526701047492237e+01 2.5419164641207570e-03 0.0000000000000000e+00  -1.1526701047494297e+01 2.5419164670580164e-03 0.0000000000000000e+00  -1.1526701047492459e+01 2.5419164649632146e-03 0.0000000000000000e+00  -1.1526701047495695e+01 2.5419164649866989e-03 0.0000000000000000e+00  -1.1526701047496145e+01 2.5419164637478574e-03 0.0000000000000000e+00  -1.1526701047494953e+01 2.5419164643664910e-03 0.0000000000000000e+00  -1.1526701047487283e+01 2.5419164628949801e-03 0.0000000000000000e+00  -1.1526701047481239e+01 2.5419164621821862e-03 0.0000000000000000e+00  -1.1526701047465972e+01 2.5419164582377793e-03 0.0000000000000000e+00  -1.1526701047434132e+01 2.5419164496470951e-03 0.0000000000000000e+00  -1.1526701047367661e+01 2.5419164335797116e-03 0.0000000000000000e+00  -1.1526701047228965e+01 2.5419163984949731e-03 0.0000000000000000e+00  -1.1526701046943225e+01 2.5419163259747151e-03 0.0000000000000000e+00  -1.1526701046343893e+01 2.5419161763697278e-03 0.0000000000000000e+00  -1.1526701045102310e+01 2.5419158628143543e-03 0.0000000000000000e+00  -1.1526701042510382e+01 2.5419152141521540e-03 0.0000000000000000e+00  -1.1526701037149786e+01 2.5419138670104064e-03 0.0000000000000000e+00  -1.1526701026018795e+01 2.5419110865202757e-03 0.0000000000000000e+00  -1.1526701003084748e+01 2.5419053658577960e-03 0.0000000000000000e+00  -1.1526700955842861e+01 2.5418936417886109e-03 0.0000000000000000e+00  -1.1526700859298243e+01 2.5418697746156052e-03 0.0000000000000000e+00  -1.1526700662277301e+01 2.5418213933030530e-03 0.0000000000000000e+00  -1.1526700265033107e+01 2.5417244171834956e-03 0.0000000000000000e+00  -1.1526699458948761e+01 2.5415297182794991e-03 0.0000000000000000e+00  -1.1526697879297227e+01 2.5411520599559691e-03 0.0000000000000000e+00  -1.1526694587889448e+01 2.5403805444426763e-03 0.0000000000000000e+00  -1.1526688776267120e+01 2.5390699264635896e-03 0.0000000000000000e+00  -1.1526674163829430e+01 2.5357611329927575e-03 0.0000000000000000e+00  -1.1526659467507299e+01 2.5339965824035713e-03 0.0000000000000000e+00  -1.1526572937813841e+01 2.5125980408710097e-03 0.0000000000000000e+00  -1.1526642013273824e+01 2.5684434330107203e-03 0.0000000000000000e+00  -1.1525935684776533e+01 2.3341146422116194e-03 0.0000000000000000e+00  -1.1527642031983932e+01 3.4508238733519324e-03 0.0000000000000000e+00  -1.1523224495370092e+01 3.0063731697572123e-03 0.0000000000000000e+00  -1.1531211386753261e+01 2.3193269120471021e-02 0.0000000000000000e+00  -1.1538347190376284e+01 0.0000000000000000e+00 0.0000000000000000e+00  -5.6784594203943870e+00 0.0000000000000000e+00 0.0000000000000000e+00  -5.6934177260699599e+00 1.2210893489464442e-02 0.0000000000000000e+00  -5.6967812935646833e+00 9.3887036943657420e-03 0.0000000000000000e+00  -5.6993558986662629e+00 9.4541753448552143e-03 0.0000000000000000e+00  -5.7008939257803180e+00 6.9854392532311465e-03 0.0000000000000000e+00  -5.7014473627336990e+00 3.9537819810243936e-03 0.0000000000000000e+00  -5.7018385175936821e+00 1.1871201638001625e-03 0.0000000000000000e+00  -5.7018635501371104e+00 -9.1280319491404498e-04 0.0000000000000000e+00  -5.7016659400388860e+00 -2.3002885357760244e-03 0.0000000000000000e+00  -5.7011517602136834e+00 -3.0791311151912130e-03 0.0000000000000000e+00  -5.7004662659827439e+00 -3.6137758442869438e-03 0.0000000000000000e+00  -5.6993947677765711e+00 -3.8332828231543896e-03 0.0000000000000000e+00  -5.6981067704231414e+00 -3.5172728116657057e-03 0.0000000000000000e+00  -5.6969357429262191e+00 -2.9047528050602741e-03 0.0000000000000000e+00  -5.6961200289154874e+00 -2.3305108490421877e-03 0.0000000000000000e+00  -5.6956379700653654e+00 -1.9458154360162362e-03 0.0000000000000000e+00  -5.6953936568540762e+00 -1.7356198420826305e-03 0.0000000000000000e+00  -5.6952787297767795e+00 -1.6374241913927083e-03 0.0000000000000000e+00  -5.6952301941481593e+00 -1.5958103421671386e-03 0.0000000000000000e+00  -5.6952091808999334e+00 -1.5794842074137651e-03 0.0000000000000000e+00  -5.6952007861542535e+00 -1.5728936560806079e-03 0.0000000000000000e+00  -5.6951967258277927e+00 -1.5701771726145798e-03 0.0000000000000000e+00  -5.6951950175597021e+00 -1.5688552832950431e-03 0.0000000000000000e+00  -5.6951940136659918e+00 -1.5682274176376291e-03 0.0000000000000000e+00  -5.6951935920384322e+00 -1.5678738593119662e-03 0.0000000000000000e+00  -5.6951933091984559e+00 -1.5677049324648092e-03 0.0000000000000000e+00  -5.6951932013831259e+00 -1.5676048583274766e-03 0.0000000000000000e+00  -5.6951931201922656e+00 -1.5675601385936762e-03 0.0000000000000000e+00  -5.6951930936440425e+00 -1.5675320719978560e-03 0.0000000000000000e+00  -5.6951930706337448e+00 -1.5675207369099577e-03 0.0000000000000000e+00  -5.6951930642602351e+00 -1.5675129005143496e-03 0.0000000000000000e+00  -5.6951930579914087e+00 -1.5675101481318903e-03 0.0000000000000000e+00  -5.6951930563247206e+00 -1.5675079640374147e-03 0.0000000000000000e+00  -5.6951930548097494e+00 -1.5675073142040787e-03 0.0000000000000000e+00  -5.6951930542226501e+00 -1.5675067207497821e-03 0.0000000000000000e+00  -5.6951930539879685e+00 -1.5675065595328428e-03 0.0000000000000000e+00  -5.6951930536877766e+00 -1.5675064094778175e-03 0.0000000000000000e+00  -5.6951930537487687e+00 -1.5675063587153462e-03 0.0000000000000000e+00  -5.6951930535707538e+00 -1.5675063321415287e-03 0.0000000000000000e+00  -5.6951930536610869e+00 -1.5675063057030651e-03 0.0000000000000000e+00  -5.6951930535626616e+00 -1.5675063086561900e-03 0.0000000000000000e+00  -5.6951930536232158e+00 -1.5675062946533588e-03 0.0000000000000000e+00  -5.6951930535689055e+00 -1.5675062989352262e-03 0.0000000000000000e+00  -5.6951930536049584e+00 -1.5675062926817510e-03 0.0000000000000000e+00  -5.6951930535766762e+00 -1.5675062971503694e-03 0.0000000000000000e+00  -5.6951930535946049e+00 -1.5675062933938467e-03 0.0000000000000000e+00  -5.6951930535805566e+00 -1.5675062945477900e-03 0.0000000000000000e+00  -5.6951930535907049e+00 -1.5675062925581613e-03 0.0000000000000000e+00  -5.6951930535858741e+00 -1.5675062960967638e-03 0.0000000000000000e+00  -5.6951930535914270e+00 -1.5675062951996434e-03 0.0000000000000000e+00  -5.6951930535869195e+00 -1.5675062978906533e-03 0.0000000000000000e+00  -5.6951930535856707e+00 -1.5675063020480144e-03 0.0000000000000000e+00  -5.6951930535816606e+00 -1.5675063031018739e-03 0.0000000000000000e+00  -5.6951930535771575e+00 -1.5675063129275862e-03 0.0000000000000000e+00  -5.6951930535656734e+00 -1.5675063351540111e-03 0.0000000000000000e+00  -5.6951930535387421e+00 -1.5675063775038636e-03 0.0000000000000000e+00  -5.6951930534855446e+00 -1.5675064718587413e-03 0.0000000000000000e+00  -5.6951930533771593e+00 -1.5675066563419675e-03 0.0000000000000000e+00  -5.6951930531465038e+00 -1.5675070582546423e-03 0.0000000000000000e+00  -5.6951930526734769e+00 -1.5675078693477126e-03 0.0000000000000000e+00  -5.6951930516798495e+00 -1.5675095907722683e-03 0.0000000000000000e+00  -5.6951930496362833e+00 -1.5675130940642748e-03 0.0000000000000000e+00  -5.6951930453878825e+00 -1.5675204096067187e-03 0.0000000000000000e+00  -5.6951930366641177e+00 -1.5675353045599538e-03 0.0000000000000000e+00  -5.6951930187283848e+00 -1.5675659551716565e-03 0.0000000000000000e+00  -5.6951929821759197e+00 -1.5676279287015317e-03 0.0000000000000000e+00  -5.6951929079484218e+00 -1.5677535047826975e-03 0.0000000000000000e+00  -5.6951927582291750e+00 -1.5680049383996093e-03 0.0000000000000000e+00  -5.6951924583842786e+00 -1.5685058297943730e-03 0.0000000000000000e+00  -5.6951918562790453e+00 -1.5695052680314305e-03 0.0000000000000000e+00  -5.6951906678899400e+00 -1.5714461500334538e-03 0.0000000000000000e+00  -5.6951882101882534e+00 -1.5754535914987130e-03 0.0000000000000000e+00  -5.6951835791877885e+00 -1.5824678698791396e-03 0.0000000000000000e+00  -5.6951723003479904e+00 -1.6002980457627532e-03 0.0000000000000000e+00  -5.6951563334858477e+00 -1.6157224527879430e-03 0.0000000000000000e+00  -5.6950834586052279e+00 -1.7242921298312416e-03 0.0000000000000000e+00  -5.6950884178062307e+00 -1.5571518923988405e-03 0.0000000000000000e+00  -5.6942943557169379e+00 -2.5107958628503351e-03 0.0000000000000000e+00  -5.6950814713999476e+00 1.4248875251129851e-03 0.0000000000000000e+00  -5.6806637051641307e+00 -8.4128357553831471e-03 0.0000000000000000e+00  -5.6956741566339870e+00 0.0000000000000000e+00 0.0000000000000000e+00  -2.2208144879016958e+00 0.0000000000000000e+00 0.0000000000000000e+00  -2.2131122374422181e+00 6.7249297727609422e-03 0.0000000000000000e+00  -2.2012558874634505e+00 7.6491986081100548e-03 0.0000000000000000e+00  -2.1891037378555529e+00 6.9584285109937664e-03 0.0000000000000000e+00  -2.1787318192255363e+00 5.6390723307512087e-03 0.0000000000000000e+00  -2.1718805178365330e+00 3.8190449581594825e-03 0.0000000000000000e+00  -2.1678385687973338e+00 2.0763645796534965e-03 0.0000000000000000e+00  -2.1663454699547975e+00 7.5327271996834973e-04 0.0000000000000000e+00  -2.1663974305432778e+00 -2.8056984913406167e-04 0.0000000000000000e+00  -2.1674916979608496e+00 -8.4955694497643630e-04 0.0000000000000000e+00  -2.1690949801498203e+00 -1.2973104128351585e-03 0.0000000000000000e+00  -2.1710787611996207e+00 -1.6601064259286677e-03 0.0000000000000000e+00  -2.1729350722960765e+00 -1.5711863177456161e-03 0.0000000000000000e+00  -2.1743114010087909e+00 -1.0697109360984253e-03 0.0000000000000000e+00  -2.1751227757041121e+00 -5.0981367981311164e-04 0.0000000000000000e+00  -2.1755382142609960e+00 -9.6099931810975252e-05 0.0000000000000000e+00  -2.1757197765605021e+00 1.4319006436592230e-04 0.0000000000000000e+00  -2.1757955279066055e+00 2.6275707880766300e-04 0.0000000000000000e+00  -2.1758235864594724e+00 3.1536365056488347e-04 0.0000000000000000e+00  -2.1758358013193537e+00 3.3737714036131565e-04 0.0000000000000000e+00  -2.1758405380680648e+00 3.4604425640161023e-04 0.0000000000000000e+00  -2.1758433360220382e+00 3.4978562161065268e-04 0.0000000000000000e+00  -2.1758444837096236e+00 3.5136858919388310e-04 0.0000000000000000e+00  -2.1758453079660600e+00 3.5219831914107790e-04 0.0000000000000000e+00  -2.1758456061101978e+00 3.5257897846729480e-04 0.0000000000000000e+00  -2.1758458531066509e+00 3.5280544407132619e-04 0.0000000000000000e+00  -2.1758459226566598e+00 3.5290601099025027e-04 0.0000000000000000e+00  -2.1758459967384574e+00 3.5297032646326135e-04 0.0000000000000000e+00  -2.1758460101734478e+00 3.5299627219665297e-04 0.0000000000000000e+00  -2.1758460328239213e+00 3.5301447512543885e-04 0.0000000000000000e+00  -2.1758460344632113e+00 3.5302087002165770e-04 0.0000000000000000e+00  -2.1758460414202441e+00 3.5302597521859059e-04 0.0000000000000000e+00  -2.1758460413072438e+00 3.5302750774472838e-04 0.0000000000000000e+00  -2.1758460433356333e+00 3.5302889817146436e-04 0.0000000000000000e+00  -2.1758460432581983e+00 3.5302928958109894e-04 0.0000000000000000e+00  -2.1758460437455152e+00 3.5302963151033403e-04 0.0000000000000000e+00  -2.1758460438052731e+00 3.5302975896568488e-04 0.0000000000000000e+00  -2.1758460