<?xml version="1.0"?>
<VTKFile type="UnstructuredGrid"  version="0.1"  >
<UnstructuredGrid>
<Piece  NumberOfPoints="1369" NumberOfCells="2560">
<Points>
<DataArray  type="Float64"  NumberOfComponents="3"  format="ascii">0 0 0  0.75 0 0  1.5 0 0  2.25 0 0  3 0 0  3.75 0 0  4.5 0 0  5.25 0 0  6 0 0  6.75 0 0  7.5 0 0  8.25 0 0  9 0 0  9.75 0 0  10.5 0 0  11.25 0 0  12 0 0  12.75 0 0  13.5 0 0  14.25 0 0  15 0 0  15.75 0 0  16.5 0 0  17.25 0 0  18 0 0  18.75 0 0  19.5 0 0  20.25 0 0  21 0 0  21.75 0 0  22.5 0 0  23.25 0 0  24 0 0  24.75 0 0  25.5 0 0  26.25 0 0  27 0 0  27.75 0 0  28.5 0 0  29.25 0 0  30 0 0  30.75 0 0  31.5 0 0  32.25 0 0  33 0 0  33.75 0 0  34.5 0 0  35.25 0 0  36 0 0  36.75 0 0  37.5 0 0  38.25 0 0  39 0 0  39.75 0 0  40.5 0 0  41.25 0 0  42 0 0  42.75 0 0  43.5 0 0  44.25 0 0  45 0 0  45.75 0 0  46.5 0 0  47.25 0 0  48 0 0  48.75 0 0  49.5 0 0  50.25 0 0  51 0 0  51.75 0 0  52.5 0 0  53.25 0 0  54 0 0  54.75 0 0  55.5 0 0  56.25 0 0  57 0 0  57.75 0 0  58.5 0 0  59.25 0 0  60 0 0  0 0.5 0  0.75 0.5 0  1.5 0.5 0  2.25 0.5 0  3 0.5 0  3.75 0.5 0  4.5 0.5 0  5.25 0.5 0  6 0.5 0  6.75 0.5 0  7.5 0.5 0  8.25 0.5 0  9 0.5 0  9.75 0.5 0  10.5 0.5 0  11.25 0.5 0  12 0.5 0  12.75 0.5 0  13.5 0.5 0  14.25 0.5 0  15 0.5 0  15.75 0.5 0  16.5 0.5 0  17.25 0.5 0  18 0.5 0  18.75 0.5 0  19.5 0.5 0  20.25 0.5 0  21 0.5 0  21.75 0.5 0  22.5 0.5 0  23.25 0.5 0  24 0.5 0  24.75 0.5 0  25.5 0.5 0  26.25 0.5 0  27 0.5 0  27.75 0.5 0  28.5 0.5 0  29.25 0.5 0  30 0.5 0  30.75 0.5 0  31.5 0.5 0  32.25 0.5 0  33 0.5 0  33.75 0.5 0  34.5 0.5 0  35.25 0.5 0  36 0.5 0  36.75 0.5 0  37.5 0.5 0  38.25 0.5 0  39 0.5 0  39.75 0.5 0  40.5 0.5 0  41.25 0.5 0  42 0.5 0  42.75 0.5 0  43.5 0.5 0  44.25 0.5 0  45 0.5 0  45.75 0.5 0  46.5 0.5 0  47.25 0.5 0  48 0.5 0  48.75 0.5 0  49.5 0.5 0  50.25 0.5 0  51 0.5 0  51.75 0.5 0  52.5 0.5 0  53.25 0.5 0  54 0.5 0  54.75 0.5 0  55.5 0.5 0  56.25 0.5 0  57 0.5 0  57.75 0.5 0  58.5 0.5 0  59.25 0.5 0  60 0.5 0  0 1 0  0.75 1 0  1.5 1 0  2.25 1 0  3 1 0  3.75 1 0  4.5 1 0  5.25 1 0  6 1 0  6.75 1 0  7.5 1 0  8.25 1 0  9 1 0  9.75 1 0  10.5 1 0  11.25 1 0  12 1 0  12.75 1 0  13.5 1 0  14.25 1 0  15 1 0  15.75 1 0  16.5 1 0  17.25 1 0  18 1 0  18.75 1 0  19.5 1 0  20.25 1 0  21 1 0  21.75 1 0  22.5 1 0  23.25 1 0  24 1 0  24.75 1 0  25.5 1 0  26.25 1 0  27 1 0  27.75 1 0  28.5 1 0  29.25 1 0  30 1 0  30.75 1 0  31.5 1 0  32.25 1 0  33 1 0  33.75 1 0  34.5 1 0  35.25 1 0  36 1 0  36.75 1 0  37.5 1 0  38.25 1 0  39 1 0  39.75 1 0  40.5 1 0  41.25 1 0  42 1 0  42.75 1 0  43.5 1 0  44.25 1 0  45 1 0  45.75 1 0  46.5 1 0  47.25 1 0  48 1 0  48.75 1 0  49.5 1 0  50.25 1 0  51 1 0  51.75 1 0  52.5 1 0  53.25 1 0  54 1 0  54.75 1 0  55.5 1 0  56.25 1 0  57 1 0  57.75 1 0  58.5 1 0  59.25 1 0  60 1 0  0 1.5 0  0.75 1.5 0  1.5 1.5 0  2.25 1.5 0  3 1.5 0  3.75 1.5 0  4.5 1.5 0  5.25 1.5 0  6 1.5 0  6.75 1.5 0  7.5 1.5 0  8.25 1.5 0  9 1.5 0  9.75 1.5 0  10.5 1.5 0  11.25 1.5 0  12 1.5 0  12.75 1.5 0  13.5 1.5 0  14.25 1.5 0  15 1.5 0  15.75 1.5 0  16.5 1.5 0  17.25 1.5 0  18 1.5 0  18.75 1.5 0  19.5 1.5 0  20.25 1.5 0  21 1.5 0  21.75 1.5 0  22.5 1.5 0  23.25 1.5 0  24 1.5 0  24.75 1.5 0  25.5 1.5 0  26.25 1.5 0  27 1.5 0  27.75 1.5 0  28.5 1.5 0  29.25 1.5 0  30 1.5 0  30.75 1.5 0  31.5 1.5 0  32.25 1.5 0  33 1.5 0  33.75 1.5 0  34.5 1.5 0  35.25 1.5 0  36 1.5 0  36.75 1.5 0  37.5 1.5 0  38.25 1.5 0  39 1.5 0  39.75 1.5 0  40.5 1.5 0  41.25 1.5 0  42 1.5 0  42.75 1.5 0  43.5 1.5 0  44.25 1.5 0  45 1.5 0  45.75 1.5 0  46.5 1.5 0  47.25 1.5 0  48 1.5 0  48.75 1.5 0  49.5 1.5 0  50.25 1.5 0  51 1.5 0  51.75 1.5 0  52.5 1.5 0  53.25 1.5 0  54 1.5 0  54.75 1.5 0  55.5 1.5 0  56.25 1.5 0  57 1.5 0  57.75 1.5 0  58.5 1.5 0  59.25 1.5 0  60 1.5 0  0 2 0  0.75 2 0  1.5 2 0  2.25 2 0  3 2 0  3.75 2 0  4.5 2 0  5.25 2 0  6 2 0  6.75 2 0  7.5 2 0  8.25 2 0  9 2 0  9.75 2 0  10.5 2 0  11.25 2 0  12 2 0  12.75 2 0  13.5 2 0  14.25 2 0  15 2 0  15.75 2 0  16.5 2 0  17.25 2 0  18 2 0  18.75 2 0  19.5 2 0  20.25 2 0  21 2 0  21.75 2 0  22.5 2 0  23.25 2 0  24 2 0  24.75 2 0  25.5 2 0  26.25 2 0  27 2 0  27.75 2 0  28.5 2 0  29.25 2 0  30 2 0  30.75 2 0  31.5 2 0  32.25 2 0  33 2 0  33.75 2 0  34.5 2 0  35.25 2 0  36 2 0  36.75 2 0  37.5 2 0  38.25 2 0  39 2 0  39.75 2 0  40.5 2 0  41.25 2 0  42 2 0  42.75 2 0  43.5 2 0  44.25 2 0  45 2 0  45.75 2 0  46.5 2 0  47.25 2 0  48 2 0  48.75 2 0  49.5 2 0  50.25 2 0  51 2 0  51.75 2 0  52.5 2 0  53.25 2 0  54 2 0  54.75 2 0  55.5 2 0  56.25 2 0  57 2 0  57.75 2 0  58.5 2 0  59.25 2 0  60 2 0  0 2.5 0  0.75 2.5 0  1.5 2.5 0  2.25 2.5 0  3 2.5 0  3.75 2.5 0  4.5 2.5 0  5.25 2.5 0  6 2.5 0  6.75 2.5 0  7.5 2.5 0  8.25 2.5 0  9 2.5 0  9.75 2.5 0  10.5 2.5 0  11.25 2.5 0  12 2.5 0  12.75 2.5 0  13.5 2.5 0  14.25 2.5 0  15 2.5 0  15.75 2.5 0  16.5 2.5 0  17.25 2.5 0  18 2.5 0  18.75 2.5 0  19.5 2.5 0  20.25 2.5 0  21 2.5 0  21.75 2.5 0  22.5 2.5 0  23.25 2.5 0  24 2.5 0  24.75 2.5 0  25.5 2.5 0  26.25 2.5 0  27 2.5 0  27.75 2.5 0  28.5 2.5 0  29.25 2.5 0  30 2.5 0  30.75 2.5 0  31.5 2.5 0  32.25 2.5 0  33 2.5 0  33.75 2.5 0  34.5 2.5 0  35.25 2.5 0  36 2.5 0  36.75 2.5 0  37.5 2.5 0  38.25 2.5 0  39 2.5 0  39.75 2.5 0  40.5 2.5 0  41.25 2.5 0  42 2.5 0  42.75 2.5 0  43.5 2.5 0  44.25 2.5 0  45 2.5 0  45.75 2.5 0  46.5 2.5 0  47.25 2.5 0  48 2.5 0  48.75 2.5 0  49.5 2.5 0  50.25 2.5 0  51 2.5 0  51.75 2.5 0  52.5 2.5 0  53.25 2.5 0  54 2.5 0  54.75 2.5 0  55.5 2.5 0  56.25 2.5 0  57 2.5 0  57.75 2.5 0  58.5 2.5 0  59.25 2.5 0  60 2.5 0  0 3 0  0.75 3 0  1.5 3 0  2.25 3 0  3 3 0  3.75 3 0  4.5 3 0  5.25 3 0  6 3 0  6.75 3 0  7.5 3 0  8.25 3 0  9 3 0  9.75 3 0  10.5 3 0  11.25 3 0  12 3 0  12.75 3 0  13.5 3 0  14.25 3 0  15 3 0  15.75 3 0  16.5 3 0  17.25 3 0  18 3 0  18.75 3 0  19.5 3 0  20.25 3 0  21 3 0  21.75 3 0  22.5 3 0  23.25 3 0  24 3 0  24.75 3 0  25.5 3 0  26.25 3 0  27 3 0  27.75 3 0  28.5 3 0  29.25 3 0  30 3 0  30.75 3 0  31.5 3 0  32.25 3 0  33 3 0  33.75 3 0  34.5 3 0  35.25 3 0  36 3 0  36.75 3 0  37.5 3 0  38.25 3 0  39 3 0  39.75 3 0  40.5 3 0  41.25 3 0  42 3 0  42.75 3 0  43.5 3 0  44.25 3 0  45 3 0  45.75 3 0  46.5 3 0  47.25 3 0  48 3 0  48.75 3 0  49.5 3 0  50.25 3 0  51 3 0  51.75 3 0  52.5 3 0  53.25 3 0  54 3 0  54.75 3 0  55.5 3 0  56.25 3 0  57 3 0  57.75 3 0  58.5 3 0  59.25 3 0  60 3 0  0 3.5 0  0.75 3.5 0  1.5 3.5 0  2.25 3.5 0  3 3.5 0  3.75 3.5 0  4.5 3.5 0  5.25 3.5 0  6 3.5 0  6.75 3.5 0  7.5 3.5 0  8.25 3.5 0  9 3.5 0  9.75 3.5 0  10.5 3.5 0  11.25 3.5 0  12 3.5 0  12.75 3.5 0  13.5 3.5 0  14.25 3.5 0  15 3.5 0  15.75 3.5 0  16.5 3.5 0  17.25 3.5 0  18 3.5 0  18.75 3.5 0  19.5 3.5 0  20.25 3.5 0  21 3.5 0  21.75 3.5 0  22.5 3.5 0  23.25 3.5 0  24 3.5 0  24.75 3.5 0  25.5 3.5 0  26.25 3.5 0  27 3.5 0  27.75 3.5 0  28.5 3.5 0  29.25 3.5 0  30 3.5 0  30.75 3.5 0  31.5 3.5 0  32.25 3.5 0  33 3.5 0  33.75 3.5 0  34.5 3.5 0  35.25 3.5 0  36 3.5 0  36.75 3.5 0  37.5 3.5 0  38.25 3.5 0  39 3.5 0  39.75 3.5 0  40.5 3.5 0  41.25 3.5 0  42 3.5 0  42.75 3.5 0  43.5 3.5 0  44.25 3.5 0  45 3.5 0  45.75 3.5 0  46.5 3.5 0  47.25 3.5 0  48 3.5 0  48.75 3.5 0  49.5 3.5 0  50.25 3.5 0  51 3.5 0  51.75 3.5 0  52.5 3.5 0  53.25 3.5 0  54 3.5 0  54.75 3.5 0  55.5 3.5 0  56.25 3.5 0  57 3.5 0  57.75 3.5 0  58.5 3.5 0  59.25 3.5 0  60 3.5 0  0 4 0  0.75 4 0  1.5 4 0  2.25 4 0  3 4 0  3.75 4 0  4.5 4 0  5.25 4 0  6 4 0  6.75 4 0  7.5 4 0  8.25 4 0  9 4 0  9.75 4 0  10.5 4 0  11.25 4 0  12 4 0  12.75 4 0  13.5 4 0  14.25 4 0  15 4 0  15.75 4 0  16.5 4 0  17.25 4 0  18 4 0  18.75 4 0  19.5 4 0  20.25 4 0  21 4 0  21.75 4 0  22.5 4 0  23.25 4 0  24 4 0  24.75 4 0  25.5 4 0  26.25 4 0  27 4 0  27.75 4 0  28.5 4 0  29.25 4 0  30 4 0  30.75 4 0  31.5 4 0  32.25 4 0  33 4 0  33.75 4 0  34.5 4 0  35.25 4 0  36 4 0  36.75 4 0  37.5 4 0  38.25 4 0  39 4 0  39.75 4 0  40.5 4 0  41.25 4 0  42 4 0  42.75 4 0  43.5 4 0  44.25 4 0  45 4 0  45.75 4 0  46.5 4 0  47.25 4 0  48 4 0  48.75 4 0  49.5 4 0  50.25 4 0  51 4 0  51.75 4 0  52.5 4 0  53.25 4 0  54 4 0  54.75 4 0  55.5 4 0  56.25 4 0  57 4 0  57.75 4 0  58.5 4 0  59.25 4 0  60 4 0  0.375 0.25 0  1.125 0.25 0  1.875 0.25 0  2.625 0.25 0  3.375 0.25 0  4.125 0.25 0  4.875 0.25 0  5.625 0.25 0  6.375 0.25 0  7.125 0.25 0  7.875 0.25 0  8.625 0.25 0  9.375 0.25 0  10.125 0.25 0  10.875 0.25 0  11.625 0.25 0  12.375 0.25 0  13.125 0.25 0  13.875 0.25 0  14.625 0.25 0  15.375 0.25 0  16.125 0.25 0  16.875 0.25 0  17.625 0.25 0  18.375 0.25 0  19.125 0.25 0  19.875 0.25 0  20.625 0.25 0  21.375 0.25 0  22.125 0.25 0  22.875 0.25 0  23.625 0.25 0  24.375 0.25 0  25.125 0.25 0  25.875 0.25 0  26.625 0.25 0  27.375 0.25 0  28.125 0.25 0  28.875 0.25 0  29.625 0.25 0  30.375 0.25 0  31.125 0.25 0  31.875 0.25 0  32.625 0.25 0  33.375 0.25 0  34.125 0.25 0  34.875 0.25 0  35.625 0.25 0  36.375 0.25 0  37.125 0.25 0  37.875 0.25 0  38.625 0.25 0  39.375 0.25 0  40.125 0.25 0  40.875 0.25 0  41.625 0.25 0  42.375 0.25 0  43.125 0.25 0  43.875 0.25 0  44.625 0.25 0  45.375 0.25 0  46.125 0.25 0  46.875 0.25 0  47.625 0.25 0  48.375 0.25 0  49.125 0.25 0  49.875 0.25 0  50.625 0.25 0  51.375 0.25 0  52.125 0.25 0  52.875 0.25 0  53.625 0.25 0  54.375 0.25 0  55.125 0.25 0  55.875 0.25 0  56.625 0.25 0  57.375 0.25 0  58.125 0.25 0  58.875 0.25 0  59.625 0.25 0  0.375 0.75 0  1.125 0.75 0  1.875 0.75 0  2.625 0.75 0  3.375 0.75 0  4.125 0.75 0  4.875 0.75 0  5.625 0.75 0  6.375 0.75 0  7.125 0.75 0  7.875 0.75 0  8.625 0.75 0  9.375 0.75 0  10.125 0.75 0  10.875 0.75 0  11.625 0.75 0  12.375 0.75 0  13.125 0.75 0  13.875 0.75 0  14.625 0.75 0  15.375 0.75 0  16.125 0.75 0  16.875 0.75 0  17.625 0.75 0  18.375 0.75 0  19.125 0.75 0  19.875 0.75 0  20.625 0.75 0  21.375 0.75 0  22.125 0.75 0  22.875 0.75 0  23.625 0.75 0  24.375 0.75 0  25.125 0.75 0  25.875 0.75 0  26.625 0.75 0  27.375 0.75 0  28.125 0.75 0  28.875 0.75 0  29.625 0.75 0  30.375 0.75 0  31.125 0.75 0  31.875 0.75 0  32.625 0.75 0  33.375 0.75 0  34.125 0.75 0  34.875 0.75 0  35.625 0.75 0  36.375 0.75 0  37.125 0.75 0  37.875 0.75 0  38.625 0.75 0  39.375 0.75 0  40.125 0.75 0  40
[...]
<PointData  Vectors="f_8-0"> 
<DataArray  type="Float64"  Name="f_8-0"  NumberOfComponents="3" format="ascii">0.0000000000000000e+00 0.0000000000000000e+00 0.0000000000000000e+00  0.0000000000000000e+00 0.0000000000000000e+00 0.0000000000000000e+00  0.0000000000000000e+00 0.0000000000000000e+00 0.0000000000000000e+00  0.0000000000000000e+00 0.0000000000000000e+00 0.0000000000000000e+00  0.0000000000000000e+00 0.0000000000000000e+00 0.0000000000000000e+00  0.0000000000000000e+00 0.0000000000000000e+00 0.0000000000000000e+00  0.0000000000000000e+00 0.0000000000000000e+00 0.0000000000000000e+00  0.0000000000000000e+00 0.0000000000000000e+00 0.0000000000000000e+00  0.0000000000000000e+00 0.0000000000000000e+00 0.0000000000000000e+00  0.0000000000000000e+00 0.0000000000000000e+00 0.0000000000000000e+00  0.0000000000000000e+00 0.0000000000000000e+00 0.0000000000000000e+00  0.0000000000000000e+00 0.0000000000000000e+00 0.0000000000000000e+00  0.0000000000000000e+00 0.0000000000000000e+00 0.0000000000000000e+00  0.0000000000000000e+00 0.0000000000000000e+00 0.0000000000000000e+00  0.0000000000000000e+00 0.0000000000000000e+00 0.0000000000000000e+00  0.0000000000000000e+00 0.0000000000000000e+00 0.0000000000000000e+00  0.0000000000000000e+00 0.0000000000000000e+00 0.0000000000000000e+00  0.0000000000000000e+00 0.0000000000000000e+00 0.0000000000000000e+00  0.0000000000000000e+00 0.0000000000000000e+00 0.0000000000000000e+00  0.0000000000000000e+00 0.0000000000000000e+00 0.0000000000000000e+00  0.0000000000000000e+00 0.0000000000000000e+00 0.0000000000000000e+00  0.0000000000000000e+00 0.0000000000000000e+00 0.0000000000000000e+00  0.0000000000000000e+00 0.0000000000000000e+00 0.0000000000000000e+00  0.0000000000000000e+00 0.0000000000000000e+00 0.0000000000000000e+00  0.0000000000000000e+00 0.0000000000000000e+00 0.0000000000000000e+00  0.0000000000000000e+00 0.0000000000000000e+00 0.0000000000000000e+00  0.0000000000000000e+00 0.0000000000000000e+00 0.0000000000000000e+00  0.0000000000000000e+00 0.0000000000000000e+00 0.0000000000000000e+00  0.0000000000000000e+00 0.0000000000000000e+00 0.0000000000000000e+00  0.0000000000000000e+00 0.0000000000000000e+00 0.0000000000000000e+00  0.0000000000000000e+00 0.0000000000000000e+00 0.0000000000000000e+00  0.0000000000000000e+00 0.0000000000000000e+00 0.0000000000000000e+00  0.0000000000000000e+00 0.0000000000000000e+00 0.0000000000000000e+00  0.0000000000000000e+00 0.0000000000000000e+00 0.0000000000000000e+00  0.0000000000000000e+00 0.0000000000000000e+00 0.0000000000000000e+00  0.0000000000000000e+00 0.0000000000000000e+00 0.0000000000000000e+00  0.0000000000000000e+00 0.0000000000000000e+00 0.0000000000000000e+00  0.0000000000000000e+00 0.0000000000000000e+00 0.0000000000000000e+00  0.0000000000000000e+00 0.0000000000000000e+00 0.0000000000000000e+00  0.0000000000000000e+00 0.0000000000000000e+00 0.0000000000000000e+00  0.0000000000000000e+00 0.0000000000000000e+00 0.0000000000000000e+00  0.0000000000000000e+00 0.0000000000000000e+00 0.0000000000000000e+00  0.0000000000000000e+00 0.0000000000000000e+00 0.0000000000000000e+00  0.0000000000000000e+00 0.0000000000000000e+00 0.0000000000000000e+00  0.0000000000000000e+00 0.0000000000000000e+00 0.0000000000000000e+00  0.0000000000000000e+00 0.0000000000000000e+00 0.0000000000000000e+00  0.0000000000000000e+00 0.0000000000000000e+00 0.0000000000000000e+00  0.0000000000000000e+00 0.0000000000000000e+00 0.0000000000000000e+00  0.0000000000000000e+00 0.0000000000000000e+00 0.0000000000000000e+00  0.0000000000000000e+00 0.0000000000000000e+00 0.0000000000000000e+00  0.0000000000000000e+00 0.0000000000000000e+00 0.0000000000000000e+00  0.0000000000000000e+00 0.0000000000000000e+00 0.0000000000000000e+00  0.0000000000000000e+00 0.0000000000000000e+00 0.0000000000000000e+00  0.0000000000000000e+00 0.0000000000000000e+00 0.0000000000000000e+00  0.0000000000000000e+00 0.0000000000000000e+00 0.0000000000000000e+00  0.0000000000000000e+00 0.0000000000000000e+00 0.0000000000000000e+00  0.0000000000000000e+00 0.0000000000000000e+00 0.0000000000000000e+00  0.0000000000000000e+00 0.0000000000000000e+00 0.0000000000000000e+00  0.0000000000000000e+00 0.0000000000000000e+00 0.0000000000000000e+00  0.0000000000000000e+00 0.0000000000000000e+00 0.0000000000000000e+00  0.0000000000000000e+00 0.0000000000000000e+00 0.0000000000000000e+00  0.0000000000000000e+00 0.0000000000000000e+00 0.0000000000000000e+00  0.0000000000000000e+00 0.0000000000000000e+00 0.0000000000000000e+00  0.0000000000000000e+00 0.0000000000000000e+00 0.0000000000000000e+00  0.0000000000000000e+00 0.0000000000000000e+00 0.0000000000000000e+00  0.0000000000000000e+00 0.0000000000000000e+00 0.0000000000000000e+00  0.0000000000000000e+00 0.0000000000000000e+00 0.0000000000000000e+00  0.0000000000000000e+00 0.0000000000000000e+00 0.0000000000000000e+00  0.0000000000000000e+00 0.0000000000000000e+00 0.0000000000000000e+00  0.0000000000000000e+00 0.0000000000000000e+00 0.0000000000000000e+00  0.0000000000000000e+00 0.0000000000000000e+00 0.0000000000000000e+00  0.0000000000000000e+00 0.0000000000000000e+00 0.0000000000000000e+00  0.0000000000000000e+00 0.0000000000000000e+00 0.0000000000000000e+00  0.0000000000000000e+00 0.0000000000000000e+00 0.0000000000000000e+00  0.0000000000000000e+00 0.0000000000000000e+00 0.0000000000000000e+00  0.0000000000000000e+00 0.0000000000000000e+00 0.0000000000000000e+00  0.0000000000000000e+00 0.0000000000000000e+00 0.0000000000000000e+00  0.0000000000000000e+00 0.0000000000000000e+00 0.0000000000000000e+00  0.0000000000000000e+00 0.0000000000000000e+00 0.0000000000000000e+00  0.0000000000000000e+00 0.0000000000000000e+00 0.0000000000000000e+00  0.0000000000000000e+00 0.0000000000000000e+00 0.0000000000000000e+00  1.5443557249943208e+01 0.0000000000000000e+00 0.0000000000000000e+00  1.5419851381537796e+01 4.4892560942218107e-02 0.0000000000000000e+00  1.5413984770361107e+01 8.2442241715568066e-03 0.0000000000000000e+00  1.5415717917244779e+01 5.0296587445262135e-03 0.0000000000000000e+00  1.5413300952911992e+01 3.9812380890459319e-03 0.0000000000000000e+00  1.5414913301591492e+01 4.2659154132271759e-03 0.0000000000000000e+00  1.5414940719936403e+01 4.1617307119722717e-03 0.0000000000000000e+00  1.5415492525307828e+01 4.1967729718082099e-03 0.0000000000000000e+00  1.5415851699469295e+01 4.1955053637453277e-03 0.0000000000000000e+00  1.5416244910298500e+01 4.2028749815181919e-03 0.0000000000000000e+00  1.5416608913199962e+01 4.2096466465661149e-03 0.0000000000000000e+00  1.5416954019006063e+01 4.2210919108077024e-03 0.0000000000000000e+00  1.5417264143900802e+01 4.2372843938572645e-03 0.0000000000000000e+00  1.5417529797064240e+01 4.2567995934184042e-03 0.0000000000000000e+00  1.5417745528847773e+01 4.2769287055320912e-03 0.0000000000000000e+00  1.5417912757599435e+01 4.2952658497899115e-03 0.0000000000000000e+00  1.5418037683427601e+01 4.3104144078333568e-03 0.0000000000000000e+00  1.5418128750392121e+01 4.3220251394508555e-03 0.0000000000000000e+00  1.5418194414762928e+01 4.3304511217296471e-03 0.0000000000000000e+00  1.5418241882744477e+01 4.3363457690773505e-03 0.0000000000000000e+00  1.5418276702839238e+01 4.3403841645906294e-03 0.0000000000000000e+00  1.5418302878554693e+01 4.3431223912075061e-03 0.0000000000000000e+00  1.5418323205962434e+01 4.3449630640905743e-03 0.0000000000000000e+00  1.5418339630989159e+01 4.3461752485314661e-03 0.0000000000000000e+00  1.5418353530761586e+01 4.3469384270278053e-03 0.0000000000000000e+00  1.5418365888406068e+01 4.3473825073245768e-03 0.0000000000000000e+00  1.5418377387223359e+01 4.3476128520634726e-03 0.0000000000000000e+00  1.5418388461532118e+01 4.3477189519114858e-03 0.0000000000000000e+00  1.5418399335495904e+01 4.3477762966021086e-03 0.0000000000000000e+00  1.5418410058067316e+01 4.3478474265139250e-03 0.0000000000000000e+00  1.5418420533093208e+01 4.3479843185981176e-03 0.0000000000000000e+00  1.5418430544467778e+01 4.3482293577705583e-03 0.0000000000000000e+00  1.5418439783418780e+01 4.3486122954938177e-03 0.0000000000000000e+00  1.5418447886557953e+01 4.3491447668517680e-03 0.0000000000000000e+00  1.5418454487725652e+01 4.3498153886905701e-03 0.0000000000000000e+00  1.5418459277242869e+01 4.3505891394785929e-03 0.0000000000000000e+00  1.5418462055817249e+01 4.3514125392491200e-03 0.0000000000000000e+00  1.5418462769991372e+01 4.3522232898829715e-03 0.0000000000000000e+00  1.5418461521146664e+01 4.3529614210091050e-03 0.0000000000000000e+00  1.5418458548286257e+01 4.3535789157133622e-03 0.0000000000000000e+00  1.5418454190757387e+01 4.3540454691872489e-03 0.0000000000000000e+00  1.5418448841439217e+01 4.3543503381065652e-03 0.0000000000000000e+00  1.5418442900188710e+01 4.3544999935835448e-03 0.0000000000000000e+00  1.5418436735225857e+01 4.3545139314585275e-03 0.0000000000000000e+00  1.5418430656852882e+01 4.3544193230709979e-03 0.0000000000000000e+00  1.5418424903814898e+01 4.3542460297074231e-03 0.0000000000000000e+00  1.5418419641037968e+01 4.3540227982636114e-03 0.0000000000000000e+00  1.5418414965573444e+01 4.3537746377829189e-03 0.0000000000000000e+00  1.5418410917485780e+01 4.3535214518914730e-03 0.0000000000000000e+00  1.5418407492849726e+01 4.3532778925146950e-03 0.0000000000000000e+00  1.5418404656752307e+01 4.3530535870438336e-03 0.0000000000000000e+00  1.5418402354665384e+01 4.3528541097393432e-03 0.0000000000000000e+00  1.5418400521969923e+01 4.3526816696684029e-03 0.0000000000000000e+00  1.5418399090780714e+01 4.3525363790811056e-03 0.0000000000000000e+00  1.5418397995130904e+01 4.3524164695312615e-03 0.0000000000000000e+00  1.5418397173771970e+01 4.3523198283513141e-03 0.0000000000000000e+00  1.5418396572274327e+01 4.3522430658872553e-03 0.0000000000000000e+00  1.5418396143310451e+01 4.3521839759150110e-03 0.0000000000000000e+00  1.5418395847086614e+01 4.3521385287629034e-03 0.0000000000000000e+00  1.5418395651042083e+01 4.3521053762831281e-03 0.0000000000000000e+00  1.5418395529685263e+01 4.3520788441509571e-03 0.0000000000000000e+00  1.5418395468985841e+01 4.3520562713822179e-03 0.0000000000000000e+00  1.5418395464931544e+01 4.3520287673742882e-03 0.0000000000000000e+00  1.5418395530414584e+01 4.3520057471679151e-03 0.0000000000000000e+00  1.5418395590785188e+01 4.3520861223129955e-03 0.0000000000000000e+00  1.5418395260854600e+01 4.3525370265972141e-03 0.0000000000000000e+00  1.5418393367754286e+01 4.3537528311654835e-03 0.0000000000000000e+00  1.5418389384568215e+01 4.3543213059747034e-03 0.0000000000000000e+00  1.5418390503472587e+01 4.3479809312474476e-03 0.0000000000000000e+00  1.5418425838031650e+01 4.3230504518799581e-03 0.0000000000000000e+00  1.5418539742796691e+01 4.2807484672472080e-03 0.0000000000000000e+00  1.5418765265716019e+01 4.2244798592034425e-03 0.0000000000000000e+00  1.5419216122100373e+01 4.0987123250135760e-03 0.0000000000000000e+00  1.5420144098398699e+01 3.9370653068731805e-03 0.0000000000000000e+00  1.5421164797127922e+01 4.1730061328333753e-03 0.0000000000000000e+00  1.5421041239606465e+01 4.9238204740300173e-03 0.0000000000000000e+00  1.5418813908315007e+01 5.9920227616142947e-03 0.0000000000000000e+00  1.5413826047568604e+01 6.9580910712188871e-03 0.0000000000000000e+00  1.5405227676312371e+01 7.0818469750908060e-03 0.0000000000000000e+00  1.5385108183764038e+01 -7.6361713022602795e-04 0.0000000000000000e+00  1.5345059279542863e+01 0.0000000000000000e+00 0.0000000000000000e+00  1.2892761360084908e+01 0.0000000000000000e+00 0.0000000000000000e+00  1.2860976652115635e+01 -9.4215515226741750e-03 0.0000000000000000e+00  1.2882639022839300e+01 4.3002554501308564e-03 0.0000000000000000e+00  1.2881826144762423e+01 -3.4542883117499911e-03 0.0000000000000000e+00  1.2883187408175260e+01 -1.9406170524544403e-03 0.0000000000000000e+00  1.2883105192717734e+01 -2.5469094244048389e-03 0.0000000000000000e+00  1.2883459163852971e+01 -2.3519331104843960e-03 0.0000000000000000e+00  1.2883638975757092e+01 -2.3741647617654816e-03 0.0000000000000000e+00  1.2883853030050719e+01 -2.3450629595443999e-03 0.0000000000000000e+00  1.2884045214956194e+01 -2.3334222839408720e-03 0.0000000000000000e+00  1.2884230646168369e+01 -2.3134433514348379e-03 0.0000000000000000e+00  1.2884398245777575e+01 -2.2835569452130762e-03 0.0000000000000000e+00  1.2884542389193202e+01 -2.2418039698269181e-03 0.0000000000000000e+00  1.2884659146765364e+01 -2.1930170373649495e-03 0.0000000000000000e+00  1.2884749248749271e+01 -2.1437756907611220e-03 0.0000000000000000e+00  1.2884816347902587e+01 -2.0996275679164957e-03 0.0000000000000000e+00  1.2884865305835003e+01 -2.0635101173859974e-03 0.0000000000000000e+00  1.2884900788814296e+01 -2.0359533817723928e-03 0.0000000000000000e+00  1.2884926633838194e+01 -2.0159619147354399e-03 0.0000000000000000e+00  1.2884945728678716e+01 -2.0019430102485619e-03 0.0000000000000000e+00  1.2884960148152723e+01 -1.9923066065881774e-03 0.0000000000000000e+00  1.2884971355056447e+01 -1.9857582136617031e-03 0.0000000000000000e+00  1.2884980387065308e+01 -1.9813604695874667e-03 0.0000000000000000e+00  1.2884987994213766e+01 -1.9784801679266053e-03 0.0000000000000000e+00  1.2884994724087317e+01 -1.9766849221394887e-03 0.0000000000000000e+00  1.2885000963084059e+01 -1.9756542943096924e-03 0.0000000000000000e+00  1.2885006958094850e+01 -1.9751261098399494e-03 0.0000000000000000e+00  1.2885012835917307e+01 -1.9748791254417400e-03 0.0000000000000000e+00  1.2885018625362134e+01 -1.9747286334771256e-03 0.0000000000000000e+00  1.2885024276874507e+01 -1.9745224152492046e-03 0.0000000000000000e+00  1.2885029677998926e+01 -1.9741343933724590e-03 0.0000000000000000e+00  1.2885034666597166e+01 -1.9734637703825333e-03 0.0000000000000000e+00  1.2885039049412125e+01 -1.9724434154809959e-03 0.0000000000000000e+00  1.2885042628801154e+01 -1.9710539648109416e-03 0.0000000000000000e+00  1.2885045235181046e+01 -1.9693339680692092e-03 0.0000000000000000e+00  1.2885046757522110e+01 -1.9673788608727850e-03 0.0000000000000000e+00  1.2885047164087291e+01 -1.9653258929496851e-03 0.0000000000000000e+00  1.2885046508149877e+01 -1.9633293591024038e-03 0.0000000000000000e+00  1.2885044918599139e+01 -1.9615335247816306e-03 0.0000000000000000e+00  1.2885042579266205e+01 -1.9600503622960630e-03 0.0000000000000000e+00  1.2885039703111195e+01 -1.9589469979177983e-03 0.0000000000000000e+00  1.2885036506581576e+01 -1.9582432221189800e-03 0.0000000000000000e+00  1.2885033188554544e+01 -1.9579176756411871e-03 0.0000000000000000e+00  1.2885029916341134e+01 -1.9579191079258382e-03 0.0000000000000000e+00  1.2885026818402567e+01 -1.9581791835455295e-03 0.0000000000000000e+00  1.2885023983408361e+01 -1.9586243456462108e-03 0.0000000000000000e+00  1.2885021463553818e+01 -1.9591848471212066e-03 0.0000000000000000e+00  1.2885019280412605e+01 -1.9598006286563039e-03 0.0000000000000000e+00  1.2885017432050951e+01 -1.9604241888560216e-03 0.0000000000000000e+00  1.2885015899932425e+01 -1.9610210376001442e-03 0.0000000000000000e+00  1.2885014654984607e+01 -1.9615685870800590e-03 0.0000000000000000e+00  1.2885013662719498e+01 -1.9620542011966309e-03 0.0000000000000000e+00  1.2885012886805860e+01 -1.9624729013417662e-03 0.0000000000000000e+00  1.2885012291953979e+01 -1.9628251551891472e-03 0.0000000000000000e+00  1.2885011845263817e+01 -1.9631151021771293e-03 0.0000000000000000e+00  1.2885011517545353e+01 -1.9633487812993566e-03 0.0000000000000000e+00  1.2885011283296379e+01 -1.9635335246988091e-03 0.0000000000000000e+00  1.2885011121199318e+01 -1.9636763127474075e-03 0.0000000000000000e+00  1.2885011013509251e+01 -1.9637849780450418e-03 0.0000000000000000e+00  1.2885010946119220e+01 -1.9638654768052077e-03 0.0000000000000000e+00  1.2885010909478179e+01 -1.9639285651780109e-03 0.0000000000000000e+00  1.2885010895781651e+01 -1.9639821977404611e-03 0.0000000000000000e+00  1.2885010909033104e+01 -1.9640473315882239e-03 0.0000000000000000e+00  1.2885010938543587e+01 -1.9640902977354794e-03 0.0000000000000000e+00  1.2885010990791130e+01 -1.9639401451144413e-03 0.0000000000000000e+00  1.2885010998481242e+01 -1.9630326109107924e-03 0.0000000000000000e+00  1.2885011351180276e+01 -1.9612053221531403e-03 0.0000000000000000e+00  1.2885014221989580e+01 -1.9625565828950376e-03 0.0000000000000000e+00  1.2885027916758434e+01 -1.9829790360512472e-03 0.0000000000000000e+00  1.2885066579887901e+01 -2.0427888129726634e-03 0.0000000000000000e+00  1.2885143690069231e+01 -2.1375626384338860e-03 0.0000000000000000e+00  1.2885302317574542e+01 -2.3045300294587318e-03 0.0000000000000000e+00  1.2885773956240891e+01 -2.7649697025531662e-03 0.0000000000000000e+00  1.2886748177235708e+01 -3.2163316806057812e-03 0.0000000000000000e+00  1.2887625063167341e+01 -2.5515990204833241e-03 0.0000000000000000e+00  1.2887719083416233e+01 -8.2792612725362267e-04 0.0000000000000000e+00  1.2887192692153253e+01 1.4366808906777220e-03 0.0000000000000000e+00  1.2885881264484443e+01 4.0969133582520970e-03 0.0000000000000000e+00  1.2883430619813245e+01 6.7098256825445998e-03 0.0000000000000000e+00  1.2879559488638598e+01 1.2395726244347871e-02 0.0000000000000000e+00  1.2862703990193321e+01 0.0000000000000000e+00 0.0000000000000000e+00  1.1576428795713355e+01 0.0000000000000000e+00 0.0000000000000000e+00  1.1576421226058793e+01 1.7099403703845284e-04 0.0000000000000000e+00  1.1577598783246872e+01 -3.7389696484555065e-04 0.0000000000000000e+00  1.1578955480434757e+01 -1.4445618782425859e-04 0.0000000000000000e+00  1.1578534825966049e+01 -5.6324486027039026e-04 0.0000000000000000e+00  1.1578201086249473e+01 -4.5689002484089453e-04 0.0000000000000000e+00  1.1577801493349744e+01 -4.6436432207847385e-04 0.0000000000000000e+00  1.1577448834768333e+01 -4.3374945687069940e-04 0.0000000000000000e+00  1.1577106676025526e+01 -4.2150782598402564e-04 0.0000000000000000e+00  1.1576780149368801e+01 -4.0707431254587975e-04 0.0000000000000000e+00  1.1576466554989292e+01 -3.8772581847239555e-04 0.0000000000000000e+00  1.1576173196565753e+01 -3.5741276903139492e-04 0.0000000000000000e+00  1.1575909991027025e+01 -3.1722157077943757e-04 0.0000000000000000e+00  1.1575685843007276e+01 -2.7232943078148549e-04 0.0000000000000000e+00  1.1575504631133963e+01 -2.2885203128100202e-04 0.0000000000000000e+00  1.1575364687176148e+01 -1.9114800264194120e-04 0.0000000000000000e+00  1.1575260379043396e+01 -1.6106836467859030e-04 0.0000000000000000e+00  1.1575184397641886e+01 -1.3850675011851593e-04 0.0000000000000000e+00  1.1575129574682611e+01 -1.2229594707298565e-04 0.0000000000000000e+00  1.1575089875330413e+01 -1.1097029886949467e-04 0.0000000000000000e+00  1.1575060684388603e+01 -1.0318451863018096e-04 0.0000000000000000e+00  1.1575038679736037e+01 -9.7890353349085532e-05 0.0000000000000000e+00  1.1575021538994497e+01 -9.4344178110928909e-05 0.0000000000000000e+00  1.1575007640101077e+01 -9.2043873054965588e-05 0.0000000000000000e+00  1.1574995831379162e+01 -9.0636529688383979e-05 0.0000000000000000e+00  1.1574985290451060e+01 -8.9849769361967025e-05 0.0000000000000000e+00  1.1574975448971344e+01 -8.9455450458107260e-05 0.0000000000000000e+00  1.1574965950359539e+01 -8.9261764204914178e-05 0.0000000000000000e+00  1.1574956616344595e+01 -8.9110596024865482e-05 0.0000000000000000e+00  1.1574947416872911e+01 -8.8872874131693365e-05 0.0000000000000000e+00  1.1574938444482626e+01 -8.8442406909794831e-05 0.0000000000000000e+00  1.1574929892902585e+01 -8.7737100210284966e-05 0.0000000000000000e+00  1.1574922033075682e+01 -8.6708328488341736e-05 0.0000000000000000e+00  1.1574915179283316e+01 -8.5353847613780888e-05 0.0000000000000000e+00  1.1574909643573319e+01 -8.3724673589648469e-05 0.0000000000000000e+00  1.1574905684682355e+01 -8.1920253808804528e-05 0.0000000000000000e+00  1.1574903462720394e+01 -8.0071499845311828e-05 0.0000000000000000e+00  1.1574903010803817e+01 -7.8316950772354022e-05 0.0000000000000000e+00  1.1574904229564074e+01 -7.6779023647737622e-05 0.0000000000000000e+00  1.1574906904060727e+01 -7.554648777912