<?xml version="1.0"?>
<VTKFile type="UnstructuredGrid"  version="0.1"  >
<UnstructuredGrid>
<Piece  NumberOfPoints="1369" NumberOfCells="2560">
<Points>
<DataArray  type="Float64"  NumberOfComponents="3"  format="ascii">0 0 0  0.75 0 0  1.5 0 0  2.25 0 0  3 0 0  3.75 0 0  4.5 0 0  5.25 0 0  6 0 0  6.75 0 0  7.5 0 0  8.25 0 0  9 0 0  9.75 0 0  10.5 0 0  11.25 0 0  12 0 0  12.75 0 0  13.5 0 0  14.25 0 0  15 0 0  15.75 0 0  16.5 0 0  17.25 0 0  18 0 0  18.75 0 0  19.5 0 0  20.25 0 0  21 0 0  21.75 0 0  22.5 0 0  23.25 0 0  24 0 0  24.75 0 0  25.5 0 0  26.25 0 0  27 0 0  27.75 0 0  28.5 0 0  29.25 0 0  30 0 0  30.75 0 0  31.5 0 0  32.25 0 0  33 0 0  33.75 0 0  34.5 0 0  35.25 0 0  36 0 0  36.75 0 0  37.5 0 0  38.25 0 0  39 0 0  39.75 0 0  40.5 0 0  41.25 0 0  42 0 0  42.75 0 0  43.5 0 0  44.25 0 0  45 0 0  45.75 0 0  46.5 0 0  47.25 0 0  48 0 0  48.75 0 0  49.5 0 0  50.25 0 0  51 0 0  51.75 0 0  52.5 0 0  53.25 0 0  54 0 0  54.75 0 0  55.5 0 0  56.25 0 0  57 0 0  57.75 0 0  58.5 0 0  59.25 0 0  60 0 0  0 0.5 0  0.75 0.5 0  1.5 0.5 0  2.25 0.5 0  3 0.5 0  3.75 0.5 0  4.5 0.5 0  5.25 0.5 0  6 0.5 0  6.75 0.5 0  7.5 0.5 0  8.25 0.5 0  9 0.5 0  9.75 0.5 0  10.5 0.5 0  11.25 0.5 0  12 0.5 0  12.75 0.5 0  13.5 0.5 0  14.25 0.5 0  15 0.5 0  15.75 0.5 0  16.5 0.5 0  17.25 0.5 0  18 0.5 0  18.75 0.5 0  19.5 0.5 0  20.25 0.5 0  21 0.5 0  21.75 0.5 0  22.5 0.5 0  23.25 0.5 0  24 0.5 0  24.75 0.5 0  25.5 0.5 0  26.25 0.5 0  27 0.5 0  27.75 0.5 0  28.5 0.5 0  29.25 0.5 0  30 0.5 0  30.75 0.5 0  31.5 0.5 0  32.25 0.5 0  33 0.5 0  33.75 0.5 0  34.5 0.5 0  35.25 0.5 0  36 0.5 0  36.75 0.5 0  37.5 0.5 0  38.25 0.5 0  39 0.5 0  39.75 0.5 0  40.5 0.5 0  41.25 0.5 0  42 0.5 0  42.75 0.5 0  43.5 0.5 0  44.25 0.5 0  45 0.5 0  45.75 0.5 0  46.5 0.5 0  47.25 0.5 0  48 0.5 0  48.75 0.5 0  49.5 0.5 0  50.25 0.5 0  51 0.5 0  51.75 0.5 0  52.5 0.5 0  53.25 0.5 0  54 0.5 0  54.75 0.5 0  55.5 0.5 0  56.25 0.5 0  57 0.5 0  57.75 0.5 0  58.5 0.5 0  59.25 0.5 0  60 0.5 0  0 1 0  0.75 1 0  1.5 1 0  2.25 1 0  3 1 0  3.75 1 0  4.5 1 0  5.25 1 0  6 1 0  6.75 1 0  7.5 1 0  8.25 1 0  9 1 0  9.75 1 0  10.5 1 0  11.25 1 0  12 1 0  12.75 1 0  13.5 1 0  14.25 1 0  15 1 0  15.75 1 0  16.5 1 0  17.25 1 0  18 1 0  18.75 1 0  19.5 1 0  20.25 1 0  21 1 0  21.75 1 0  22.5 1 0  23.25 1 0  24 1 0  24.75 1 0  25.5 1 0  26.25 1 0  27 1 0  27.75 1 0  28.5 1 0  29.25 1 0  30 1 0  30.75 1 0  31.5 1 0  32.25 1 0  33 1 0  33.75 1 0  34.5 1 0  35.25 1 0  36 1 0  36.75 1 0  37.5 1 0  38.25 1 0  39 1 0  39.75 1 0  40.5 1 0  41.25 1 0  42 1 0  42.75 1 0  43.5 1 0  44.25 1 0  45 1 0  45.75 1 0  46.5 1 0  47.25 1 0  48 1 0  48.75 1 0  49.5 1 0  50.25 1 0  51 1 0  51.75 1 0  52.5 1 0  53.25 1 0  54 1 0  54.75 1 0  55.5 1 0  56.25 1 0  57 1 0  57.75 1 0  58.5 1 0  59.25 1 0  60 1 0  0 1.5 0  0.75 1.5 0  1.5 1.5 0  2.25 1.5 0  3 1.5 0  3.75 1.5 0  4.5 1.5 0  5.25 1.5 0  6 1.5 0  6.75 1.5 0  7.5 1.5 0  8.25 1.5 0  9 1.5 0  9.75 1.5 0  10.5 1.5 0  11.25 1.5 0  12 1.5 0  12.75 1.5 0  13.5 1.5 0  14.25 1.5 0  15 1.5 0  15.75 1.5 0  16.5 1.5 0  17.25 1.5 0  18 1.5 0  18.75 1.5 0  19.5 1.5 0  20.25 1.5 0  21 1.5 0  21.75 1.5 0  22.5 1.5 0  23.25 1.5 0  24 1.5 0  24.75 1.5 0  25.5 1.5 0  26.25 1.5 0  27 1.5 0  27.75 1.5 0  28.5 1.5 0  29.25 1.5 0  30 1.5 0  30.75 1.5 0  31.5 1.5 0  32.25 1.5 0  33 1.5 0  33.75 1.5 0  34.5 1.5 0  35.25 1.5 0  36 1.5 0  36.75 1.5 0  37.5 1.5 0  38.25 1.5 0  39 1.5 0  39.75 1.5 0  40.5 1.5 0  41.25 1.5 0  42 1.5 0  42.75 1.5 0  43.5 1.5 0  44.25 1.5 0  45 1.5 0  45.75 1.5 0  46.5 1.5 0  47.25 1.5 0  48 1.5 0  48.75 1.5 0  49.5 1.5 0  50.25 1.5 0  51 1.5 0  51.75 1.5 0  52.5 1.5 0  53.25 1.5 0  54 1.5 0  54.75 1.5 0  55.5 1.5 0  56.25 1.5 0  57 1.5 0  57.75 1.5 0  58.5 1.5 0  59.25 1.5 0  60 1.5 0  0 2 0  0.75 2 0  1.5 2 0  2.25 2 0  3 2 0  3.75 2 0  4.5 2 0  5.25 2 0  6 2 0  6.75 2 0  7.5 2 0  8.25 2 0  9 2 0  9.75 2 0  10.5 2 0  11.25 2 0  12 2 0  12.75 2 0  13.5 2 0  14.25 2 0  15 2 0  15.75 2 0  16.5 2 0  17.25 2 0  18 2 0  18.75 2 0  19.5 2 0  20.25 2 0  21 2 0  21.75 2 0  22.5 2 0  23.25 2 0  24 2 0  24.75 2 0  25.5 2 0  26.25 2 0  27 2 0  27.75 2 0  28.5 2 0  29.25 2 0  30 2 0  30.75 2 0  31.5 2 0  32.25 2 0  33 2 0  33.75 2 0  34.5 2 0  35.25 2 0  36 2 0  36.75 2 0  37.5 2 0  38.25 2 0  39 2 0  39.75 2 0  40.5 2 0  41.25 2 0  42 2 0  42.75 2 0  43.5 2 0  44.25 2 0  45 2 0  45.75 2 0  46.5 2 0  47.25 2 0  48 2 0  48.75 2 0  49.5 2 0  50.25 2 0  51 2 0  51.75 2 0  52.5 2 0  53.25 2 0  54 2 0  54.75 2 0  55.5 2 0  56.25 2 0  57 2 0  57.75 2 0  58.5 2 0  59.25 2 0  60 2 0  0 2.5 0  0.75 2.5 0  1.5 2.5 0  2.25 2.5 0  3 2.5 0  3.75 2.5 0  4.5 2.5 0  5.25 2.5 0  6 2.5 0  6.75 2.5 0  7.5 2.5 0  8.25 2.5 0  9 2.5 0  9.75 2.5 0  10.5 2.5 0  11.25 2.5 0  12 2.5 0  12.75 2.5 0  13.5 2.5 0  14.25 2.5 0  15 2.5 0  15.75 2.5 0  16.5 2.5 0  17.25 2.5 0  18 2.5 0  18.75 2.5 0  19.5 2.5 0  20.25 2.5 0  21 2.5 0  21.75 2.5 0  22.5 2.5 0  23.25 2.5 0  24 2.5 0  24.75 2.5 0  25.5 2.5 0  26.25 2.5 0  27 2.5 0  27.75 2.5 0  28.5 2.5 0  29.25 2.5 0  30 2.5 0  30.75 2.5 0  31.5 2.5 0  32.25 2.5 0  33 2.5 0  33.75 2.5 0  34.5 2.5 0  35.25 2.5 0  36 2.5 0  36.75 2.5 0  37.5 2.5 0  38.25 2.5 0  39 2.5 0  39.75 2.5 0  40.5 2.5 0  41.25 2.5 0  42 2.5 0  42.75 2.5 0  43.5 2.5 0  44.25 2.5 0  45 2.5 0  45.75 2.5 0  46.5 2.5 0  47.25 2.5 0  48 2.5 0  48.75 2.5 0  49.5 2.5 0  50.25 2.5 0  51 2.5 0  51.75 2.5 0  52.5 2.5 0  53.25 2.5 0  54 2.5 0  54.75 2.5 0  55.5 2.5 0  56.25 2.5 0  57 2.5 0  57.75 2.5 0  58.5 2.5 0  59.25 2.5 0  60 2.5 0  0 3 0  0.75 3 0  1.5 3 0  2.25 3 0  3 3 0  3.75 3 0  4.5 3 0  5.25 3 0  6 3 0  6.75 3 0  7.5 3 0  8.25 3 0  9 3 0  9.75 3 0  10.5 3 0  11.25 3 0  12 3 0  12.75 3 0  13.5 3 0  14.25 3 0  15 3 0  15.75 3 0  16.5 3 0  17.25 3 0  18 3 0  18.75 3 0  19.5 3 0  20.25 3 0  21 3 0  21.75 3 0  22.5 3 0  23.25 3 0  24 3 0  24.75 3 0  25.5 3 0  26.25 3 0  27 3 0  27.75 3 0  28.5 3 0  29.25 3 0  30 3 0  30.75 3 0  31.5 3 0  32.25 3 0  33 3 0  33.75 3 0  34.5 3 0  35.25 3 0  36 3 0  36.75 3 0  37.5 3 0  38.25 3 0  39 3 0  39.75 3 0  40.5 3 0  41.25 3 0  42 3 0  42.75 3 0  43.5 3 0  44.25 3 0  45 3 0  45.75 3 0  46.5 3 0  47.25 3 0  48 3 0  48.75 3 0  49.5 3 0  50.25 3 0  51 3 0  51.75 3 0  52.5 3 0  53.25 3 0  54 3 0  54.75 3 0  55.5 3 0  56.25 3 0  57 3 0  57.75 3 0  58.5 3 0  59.25 3 0  60 3 0  0 3.5 0  0.75 3.5 0  1.5 3.5 0  2.25 3.5 0  3 3.5 0  3.75 3.5 0  4.5 3.5 0  5.25 3.5 0  6 3.5 0  6.75 3.5 0  7.5 3.5 0  8.25 3.5 0  9 3.5 0  9.75 3.5 0  10.5 3.5 0  11.25 3.5 0  12 3.5 0  12.75 3.5 0  13.5 3.5 0  14.25 3.5 0  15 3.5 0  15.75 3.5 0  16.5 3.5 0  17.25 3.5 0  18 3.5 0  18.75 3.5 0  19.5 3.5 0  20.25 3.5 0  21 3.5 0  21.75 3.5 0  22.5 3.5 0  23.25 3.5 0  24 3.5 0  24.75 3.5 0  25.5 3.5 0  26.25 3.5 0  27 3.5 0  27.75 3.5 0  28.5 3.5 0  29.25 3.5 0  30 3.5 0  30.75 3.5 0  31.5 3.5 0  32.25 3.5 0  33 3.5 0  33.75 3.5 0  34.5 3.5 0  35.25 3.5 0  36 3.5 0  36.75 3.5 0  37.5 3.5 0  38.25 3.5 0  39 3.5 0  39.75 3.5 0  40.5 3.5 0  41.25 3.5 0  42 3.5 0  42.75 3.5 0  43.5 3.5 0  44.25 3.5 0  45 3.5 0  45.75 3.5 0  46.5 3.5 0  47.25 3.5 0  48 3.5 0  48.75 3.5 0  49.5 3.5 0  50.25 3.5 0  51 3.5 0  51.75 3.5 0  52.5 3.5 0  53.25 3.5 0  54 3.5 0  54.75 3.5 0  55.5 3.5 0  56.25 3.5 0  57 3.5 0  57.75 3.5 0  58.5 3.5 0  59.25 3.5 0  60 3.5 0  0 4 0  0.75 4 0  1.5 4 0  2.25 4 0  3 4 0  3.75 4 0  4.5 4 0  5.25 4 0  6 4 0  6.75 4 0  7.5 4 0  8.25 4 0  9 4 0  9.75 4 0  10.5 4 0  11.25 4 0  12 4 0  12.75 4 0  13.5 4 0  14.25 4 0  15 4 0  15.75 4 0  16.5 4 0  17.25 4 0  18 4 0  18.75 4 0  19.5 4 0  20.25 4 0  21 4 0  21.75 4 0  22.5 4 0  23.25 4 0  24 4 0  24.75 4 0  25.5 4 0  26.25 4 0  27 4 0  27.75 4 0  28.5 4 0  29.25 4 0  30 4 0  30.75 4 0  31.5 4 0  32.25 4 0  33 4 0  33.75 4 0  34.5 4 0  35.25 4 0  36 4 0  36.75 4 0  37.5 4 0  38.25 4 0  39 4 0  39.75 4 0  40.5 4 0  41.25 4 0  42 4 0  42.75 4 0  43.5 4 0  44.25 4 0  45 4 0  45.75 4 0  46.5 4 0  47.25 4 0  48 4 0  48.75 4 0  49.5 4 0  50.25 4 0  51 4 0  51.75 4 0  52.5 4 0  53.25 4 0  54 4 0  54.75 4 0  55.5 4 0  56.25 4 0  57 4 0  57.75 4 0  58.5 4 0  59.25 4 0  60 4 0  0.375 0.25 0  1.125 0.25 0  1.875 0.25 0  2.625 0.25 0  3.375 0.25 0  4.125 0.25 0  4.875 0.25 0  5.625 0.25 0  6.375 0.25 0  7.125 0.25 0  7.875 0.25 0  8.625 0.25 0  9.375 0.25 0  10.125 0.25 0  10.875 0.25 0  11.625 0.25 0  12.375 0.25 0  13.125 0.25 0  13.875 0.25 0  14.625 0.25 0  15.375 0.25 0  16.125 0.25 0  16.875 0.25 0  17.625 0.25 0  18.375 0.25 0  19.125 0.25 0  19.875 0.25 0  20.625 0.25 0  21.375 0.25 0  22.125 0.25 0  22.875 0.25 0  23.625 0.25 0  24.375 0.25 0  25.125 0.25 0  25.875 0.25 0  26.625 0.25 0  27.375 0.25 0  28.125 0.25 0  28.875 0.25 0  29.625 0.25 0  30.375 0.25 0  31.125 0.25 0  31.875 0.25 0  32.625 0.25 0  33.375 0.25 0  34.125 0.25 0  34.875 0.25 0  35.625 0.25 0  36.375 0.25 0  37.125 0.25 0  37.875 0.25 0  38.625 0.25 0  39.375 0.25 0  40.125 0.25 0  40.875 0.25 0  41.625 0.25 0  42.375 0.25 0  43.125 0.25 0  43.875 0.25 0  44.625 0.25 0  45.375 0.25 0  46.125 0.25 0  46.875 0.25 0  47.625 0.25 0  48.375 0.25 0  49.125 0.25 0  49.875 0.25 0  50.625 0.25 0  51.375 0.25 0  52.125 0.25 0  52.875 0.25 0  53.625 0.25 0  54.375 0.25 0  55.125 0.25 0  55.875 0.25 0  56.625 0.25 0  57.375 0.25 0  58.125 0.25 0  58.875 0.25 0  59.625 0.25 0  0.375 0.75 0  1.125 0.75 0  1.875 0.75 0  2.625 0.75 0  3.375 0.75 0  4.125 0.75 0  4.875 0.75 0  5.625 0.75 0  6.375 0.75 0  7.125 0.75 0  7.875 0.75 0  8.625 0.75 0  9.375 0.75 0  10.125 0.75 0  10.875 0.75 0  11.625 0.75 0  12.375 0.75 0  13.125 0.75 0  13.875 0.75 0  14.625 0.75 0  15.375 0.75 0  16.125 0.75 0  16.875 0.75 0  17.625 0.75 0  18.375 0.75 0  19.125 0.75 0  19.875 0.75 0  20.625 0.75 0  21.375 0.75 0  22.125 0.75 0  22.875 0.75 0  23.625 0.75 0  24.375 0.75 0  25.125 0.75 0  25.875 0.75 0  26.625 0.75 0  27.375 0.75 0  28.125 0.75 0  28.875 0.75 0  29.625 0.75 0  30.375 0.75 0  31.125 0.75 0  31.875 0.75 0  32.625 0.75 0  33.375 0.75 0  34.125 0.75 0  34.875 0.75 0  35.625 0.75 0  36.375 0.75 0  37.125 0.75 0  37.875 0.75 0  38.625 0.75 0  39.375 0.75 0  40.125 0.75 0  40
[...]
<PointData  Vectors="f_8-0"> 
<DataArray  type="Float64"  Name="f_8-0"  NumberOfComponents="3" format="ascii">0.0000000000000000e+00 0.0000000000000000e+00 0.0000000000000000e+00  0.0000000000000000e+00 0.0000000000000000e+00 0.0000000000000000e+00  0.0000000000000000e+00 0.0000000000000000e+00 0.0000000000000000e+00  0.0000000000000000e+00 0.0000000000000000e+00 0.0000000000000000e+00  0.0000000000000000e+00 0.0000000000000000e+00 0.0000000000000000e+00  0.0000000000000000e+00 0.0000000000000000e+00 0.0000000000000000e+00  0.0000000000000000e+00 0.0000000000000000e+00 0.0000000000000000e+00  0.0000000000000000e+00 0.0000000000000000e+00 0.0000000000000000e+00  0.0000000000000000e+00 0.0000000000000000e+00 0.0000000000000000e+00  0.0000000000000000e+00 0.0000000000000000e+00 0.0000000000000000e+00  0.0000000000000000e+00 0.0000000000000000e+00 0.0000000000000000e+00  0.0000000000000000e+00 0.0000000000000000e+00 0.0000000000000000e+00  0.0000000000000000e+00 0.0000000000000000e+00 0.0000000000000000e+00  0.0000000000000000e+00 0.0000000000000000e+00 0.0000000000000000e+00  0.0000000000000000e+00 0.0000000000000000e+00 0.0000000000000000e+00  0.0000000000000000e+00 0.0000000000000000e+00 0.0000000000000000e+00  0.0000000000000000e+00 0.0000000000000000e+00 0.0000000000000000e+00  0.0000000000000000e+00 0.0000000000000000e+00 0.0000000000000000e+00  0.0000000000000000e+00 0.0000000000000000e+00 0.0000000000000000e+00  0.0000000000000000e+00 0.0000000000000000e+00 0.0000000000000000e+00  0.0000000000000000e+00 0.0000000000000000e+00 0.0000000000000000e+00  0.0000000000000000e+00 0.0000000000000000e+00 0.0000000000000000e+00  0.0000000000000000e+00 0.0000000000000000e+00 0.0000000000000000e+00  0.0000000000000000e+00 0.0000000000000000e+00 0.0000000000000000e+00  0.0000000000000000e+00 0.0000000000000000e+00 0.0000000000000000e+00  0.0000000000000000e+00 0.0000000000000000e+00 0.0000000000000000e+00  0.0000000000000000e+00 0.0000000000000000e+00 0.0000000000000000e+00  0.0000000000000000e+00 0.0000000000000000e+00 0.0000000000000000e+00  0.0000000000000000e+00 0.0000000000000000e+00 0.0000000000000000e+00  0.0000000000000000e+00 0.0000000000000000e+00 0.0000000000000000e+00  0.0000000000000000e+00 0.0000000000000000e+00 0.0000000000000000e+00  0.0000000000000000e+00 0.0000000000000000e+00 0.0000000000000000e+00  0.0000000000000000e+00 0.0000000000000000e+00 0.0000000000000000e+00  0.0000000000000000e+00 0.0000000000000000e+00 0.0000000000000000e+00  0.0000000000000000e+00 0.0000000000000000e+00 0.0000000000000000e+00  0.0000000000000000e+00 0.0000000000000000e+00 0.0000000000000000e+00  0.0000000000000000e+00 0.0000000000000000e+00 0.0000000000000000e+00  0.0000000000000000e+00 0.0000000000000000e+00 0.0000000000000000e+00  0.0000000000000000e+00 0.0000000000000000e+00 0.0000000000000000e+00  0.0000000000000000e+00 0.0000000000000000e+00 0.0000000000000000e+00  0.0000000000000000e+00 0.0000000000000000e+00 0.0000000000000000e+00  0.0000000000000000e+00 0.0000000000000000e+00 0.0000000000000000e+00  0.0000000000000000e+00 0.0000000000000000e+00 0.0000000000000000e+00  0.0000000000000000e+00 0.0000000000000000e+00 0.0000000000000000e+00  0.0000000000000000e+00 0.0000000000000000e+00 0.0000000000000000e+00  0.0000000000000000e+00 0.0000000000000000e+00 0.0000000000000000e+00  0.0000000000000000e+00 0.0000000000000000e+00 0.0000000000000000e+00  0.0000000000000000e+00 0.0000000000000000e+00 0.0000000000000000e+00  0.0000000000000000e+00 0.0000000000000000e+00 0.0000000000000000e+00  0.0000000000000000e+00 0.0000000000000000e+00 0.0000000000000000e+00  0.0000000000000000e+00 0.0000000000000000e+00 0.0000000000000000e+00  0.0000000000000000e+00 0.0000000000000000e+00 0.0000000000000000e+00  0.0000000000000000e+00 0.0000000000000000e+00 0.0000000000000000e+00  0.0000000000000000e+00 0.0000000000000000e+00 0.0000000000000000e+00  0.0000000000000000e+00 0.0000000000000000e+00 0.0000000000000000e+00  0.0000000000000000e+00 0.0000000000000000e+00 0.0000000000000000e+00  0.0000000000000000e+00 0.0000000000000000e+00 0.0000000000000000e+00  0.0000000000000000e+00 0.0000000000000000e+00 0.0000000000000000e+00  0.0000000000000000e+00 0.0000000000000000e+00 0.0000000000000000e+00  0.0000000000000000e+00 0.0000000000000000e+00 0.0000000000000000e+00  0.0000000000000000e+00 0.0000000000000000e+00 0.0000000000000000e+00  0.0000000000000000e+00 0.0000000000000000e+00 0.0000000000000000e+00  0.0000000000000000e+00 0.0000000000000000e+00 0.0000000000000000e+00  0.0000000000000000e+00 0.0000000000000000e+00 0.0000000000000000e+00  0.0000000000000000e+00 0.0000000000000000e+00 0.0000000000000000e+00  0.0000000000000000e+00 0.0000000000000000e+00 0.0000000000000000e+00  0.0000000000000000e+00 0.0000000000000000e+00 0.0000000000000000e+00  0.0000000000000000e+00 0.0000000000000000e+00 0.0000000000000000e+00  0.0000000000000000e+00 0.0000000000000000e+00 0.0000000000000000e+00  0.0000000000000000e+00 0.0000000000000000e+00 0.0000000000000000e+00  0.0000000000000000e+00 0.0000000000000000e+00 0.0000000000000000e+00  0.0000000000000000e+00 0.0000000000000000e+00 0.0000000000000000e+00  0.0000000000000000e+00 0.0000000000000000e+00 0.0000000000000000e+00  0.0000000000000000e+00 0.0000000000000000e+00 0.0000000000000000e+00  0.0000000000000000e+00 0.0000000000000000e+00 0.0000000000000000e+00  0.0000000000000000e+00 0.0000000000000000e+00 0.0000000000000000e+00  0.0000000000000000e+00 0.0000000000000000e+00 0.0000000000000000e+00  0.0000000000000000e+00 0.0000000000000000e+00 0.0000000000000000e+00  0.0000000000000000e+00 0.0000000000000000e+00 0.0000000000000000e+00  0.0000000000000000e+00 0.0000000000000000e+00 0.0000000000000000e+00  0.0000000000000000e+00 0.0000000000000000e+00 0.0000000000000000e+00  4.2365815577735574e+01 0.0000000000000000e+00 0.0000000000000000e+00  4.2167106847113430e+01 1.1495356186604164e-01 0.0000000000000000e+00  4.2227448445775046e+01 2.3810634537756170e-02 0.0000000000000000e+00  4.2221593510165796e+01 2.5954412239365163e-02 0.0000000000000000e+00  4.2269134582748087e+01 3.0682174102491717e-03 0.0000000000000000e+00  4.2284263400189623e+01 -1.1866843740285296e-03 0.0000000000000000e+00  4.2311735973803152e+01 -1.3654291432568895e-03 0.0000000000000000e+00  4.2328410691378586e+01 -4.6028820388613560e-03 0.0000000000000000e+00  4.2343984849564407e+01 -3.5854689235935151e-04 0.0000000000000000e+00  4.2355763911119816e+01 -2.0004084902250727e-03 0.0000000000000000e+00  4.2362476551414851e+01 1.9111778988733874e-03 0.0000000000000000e+00  4.2367876583647472e+01 7.7297729987201209e-04 0.0000000000000000e+00  4.2369378257666540e+01 2.9689449047324689e-03 0.0000000000000000e+00  4.2371267753428619e+01 1.9922778042313532e-03 0.0000000000000000e+00  4.2371142074960147e+01 3.0659646201485246e-03 0.0000000000000000e+00  4.2371843971129344e+01 2.4065848618783701e-03 0.0000000000000000e+00  4.2371531329665537e+01 2.9526690627078504e-03 0.0000000000000000e+00  4.2371860002895460e+01 2.5689001444257932e-03 0.0000000000000000e+00  4.2371641513903192e+01 2.8591880982081676e-03 0.0000000000000000e+00  4.2371816878110089e+01 2.6477238898263682e-03 0.0000000000000000e+00  4.2371689468603215e+01 2.8037826224084350e-03 0.0000000000000000e+00  4.2371785224637740e+01 2.6897510607479134e-03 0.0000000000000000e+00  4.2371715028179821e+01 2.7730007177332659e-03 0.0000000000000000e+00  4.2371766571000393e+01 2.7125782474445494e-03 0.0000000000000000e+00  4.2371729117258447e+01 2.7562334399890121e-03 0.0000000000000000e+00  4.2371756192149277e+01 2.7248797514497574e-03 0.0000000000000000e+00  4.2371736772903041e+01 2.7472657854858439e-03 0.0000000000000000e+00  4.2371750607002177e+01 2.7313838153270233e-03 0.0000000000000000e+00  4.2371740823883648e+01 2.7425796031398859e-03 0.0000000000000000e+00  4.2371747693673456e+01 2.7347382685449935e-03 0.0000000000000000e+00  4.2371742903529835e+01 2.7401950540441138e-03 0.0000000000000000e+00  4.2371746220870889e+01 2.7364216450120873e-03 0.0000000000000000e+00  4.2371743938697364e+01 2.7390149066224374e-03 0.0000000000000000e+00  4.2371745498727492e+01 2.7372433668846150e-03 0.0000000000000000e+00  4.2371744438858514e+01 2.7384465629139059e-03 0.0000000000000000e+00  4.2371745154710439e+01 2.7376339250717728e-03 0.0000000000000000e+00  4.2371744673911998e+01 2.7381798474270399e-03 0.0000000000000000e+00  4.2371744995121709e+01 2.7378149766697927e-03 0.0000000000000000e+00  4.2371744781613749e+01 2.7380576490170323e-03 0.0000000000000000e+00  4.2371744922851697e+01 2.7378970025191242e-03 0.0000000000000000e+00  4.2371744829845277e+01 2.7380028758959797e-03 0.0000000000000000e+00  4.2371744890826214e+01 2.7379333956666810e-03 0.0000000000000000e+00  4.2371744851006483e+01 2.7379788092735040e-03 0.0000000000000000e+00  4.2371744876908295e+01 2.7379492395951306e-03 0.0000000000000000e+00  4.2371744860121218e+01 2.7379684230166763e-03 0.0000000000000000e+00  4.2371744870962345e+01 2.7379560208598080e-03 0.0000000000000000e+00  4.2371744863985306e+01 2.7379640136978335e-03 0.0000000000000000e+00  4.2371744868462208e+01 2.7379588788481227e-03 0.0000000000000000e+00  4.2371744865598110e+01 2.7379621675050229e-03 0.0000000000000000e+00  4.2371744867425456e+01 2.7379600668190796e-03 0.0000000000000000e+00  4.2371744866262667e+01 2.7379614049132107e-03 0.0000000000000000e+00  4.2371744867000615e+01 2.7379605554514719e-03 0.0000000000000000e+00  4.2371744866533831e+01 2.7379610934952807e-03 0.0000000000000000e+00  4.2371744866828685e+01 2.7379607533521578e-03 0.0000000000000000e+00  4.2371744866642757e+01 2.7379609685608173e-03 0.0000000000000000e+00  4.2371744866760160e+01 2.7379608333302501e-03 0.0000000000000000e+00  4.2371744866687479e+01 2.7379609185568870e-03 0.0000000000000000e+00  4.2371744866734396e+01 2.7379608655145700e-03 0.0000000000000000e+00  4.2371744866710792e+01 2.7379609005686325e-03 0.0000000000000000e+00  4.2371744866742340e+01 2.7379608832975373e-03 0.0000000000000000e+00  4.2371744866766221e+01 2.7379609069141555e-03 0.0000000000000000e+00  4.2371744866866742e+01 2.7379609277041420e-03 0.0000000000000000e+00  4.2371744867108092e+01 2.7379610111438143e-03 0.0000000000000000e+00  4.2371744867750515e+01 2.7379612220093325e-03 0.0000000000000000e+00  4.2371744869392856e+01 2.7379617991408782e-03 0.0000000000000000e+00  4.2371744873568211e+01 2.7379633325749935e-03 0.0000000000000000e+00  4.2371744884012500e+01 2.7379673860356080e-03 0.0000000000000000e+00  4.2371744909728264e+01 2.7379779649363864e-03 0.0000000000000000e+00  4.2371744971824228e+01 2.7380052039925034e-03 0.0000000000000000e+00  4.2371745118281460e+01 2.7380741394346644e-03 0.0000000000000000e+00  4.2371745453411016e+01 2.7382448087182338e-03 0.0000000000000000e+00  4.2371746188637786e+01 2.7386550311241406e-03 0.0000000000000000e+00  4.2371747698786905e+01 2.7396000298692117e-03 0.0000000000000000e+00  4.2371750438890174e+01 2.7416348132391580e-03 0.0000000000000000e+00  4.2371753999583980e+01 2.7454885206399612e-03 0.0000000000000000e+00  4.2371752219001699e+01 2.7506187614393185e-03 0.0000000000000000e+00  4.2371712138415425e+01 2.7468613192300302e-03 0.0000000000000000e+00  4.2371486511098809e+01 2.6775099297598752e-03 0.0000000000000000e+00  4.2370480786344899e+01 2.2589284839942768e-03 0.0000000000000000e+00  4.2365697317885747e+01 7.6172623342798430e-04 0.0000000000000000e+00  4.2349181190835466e+01 0.0000000000000000e+00 0.0000000000000000e+00  5.5559130546857922e+01 0.0000000000000000e+00 0.0000000000000000e+00  5.5629713494657850e+01 -1.4311277884341900e-01 0.0000000000000000e+00  5.5638849622856831e+01 -2.6156812525462939e-02 0.0000000000000000e+00  5.5641066026999034e+01 -3.8488260479558639e-02 0.0000000000000000e+00  5.5638478244393887e+01 -3.0570546835191715e-02 0.0000000000000000e+00  5.5637093772706748e+01 -1.7463737523622021e-02 0.0000000000000000e+00  5.5640067937853800e+01 -2.2589546070383510e-02 0.0000000000000000e+00  5.5640046237502418e+01 -1.0106853723093973e-02 0.0000000000000000e+00  5.5646782632665882e+01 -1.3959528424965026e-02 0.0000000000000000e+00  5.5649404033341433e+01 -4.3942808908601552e-03 0.0000000000000000e+00  5.5655971576710677e+01 -5.1503565830396548e-03 0.0000000000000000e+00  5.5657613167158040e+01 6.2290031462774607e-04 0.0000000000000000e+00  5.5661248952529249e+01 9.3063522839872959e-05 0.0000000000000000e+00  5.5661399626040549e+01 2.6781152678634341e-03 0.0000000000000000e+00  5.5662985790526513e+01 2.0171057062429586e-03 0.0000000000000000e+00  5.5662617864683703e+01 3.0803605328647461e-03 0.0000000000000000e+00  5.5663313713536972e+01 2.5792014105176920e-03 0.0000000000000000e+00  5.5662961561841811e+01 3.0568205834418469e-03 0.0000000000000000e+00  5.5663307178779135e+01 2.7543177088827941e-03 0.0000000000000000e+00  5.5663074550389460e+01 2.9930578235531657e-03 0.0000000000000000e+00  5.5663262766843715e+01 2.8247189905534721e-03 0.0000000000000000e+00  5.5663124764318106e+01 2.9503107421553088e-03 0.0000000000000000e+00  5.5663230259340274e+01 2.8592838617057343e-03 0.0000000000000000e+00  5.5663151708167760e+01 2.9259521917456371e-03 0.0000000000000000e+00  5.5663210470455873e+01 2.8776033370027806e-03 0.0000000000000000e+00  5.5663166980597317e+01 2.9126067603747166e-03 0.0000000000000000e+00  5.5663199018188529e+01 2.8874320288047191e-03 0.0000000000000000e+00  5.5663175608877410e+01 2.9054446225749830e-03 0.0000000000000000e+00  5.5663192592528738e+01 2.8926391166214939e-03 0.0000000000000000e+00  5.5663180367711966e+01 2.9016863556884862e-03 0.0000000000000000e+00  5.5663189099908820e+01 2.8953358901784849e-03 0.0000000000000000e+00  5.5663182910570981e+01 2.8997648498157802e-03 0.0000000000000000e+00  5.5663187264580010e+01 2.8966957213749415e-03 0.0000000000000000e+00  5.5663184224158925e+01 2.8988092476065186e-03 0.0000000000000000e+00  5.5663186332242979e+01 2.8973626507707998e-03 0.0000000000000000e+00  5.5663184880577433e+01 2.8983469356233683e-03 0.0000000000000000e+00  5.5663185873683211e+01 2.8976810196299639e-03 0.0000000000000000e+00  5.5663185198527813e+01 2.8981290858995927e-03 0.0000000000000000e+00  5.5663185654794809e+01 2.8978291762512794e-03 0.0000000000000000e+00  5.5663185348197693e+01 2.8980289165634735e-03 0.0000000000000000e+00  5.5663185553115540e+01 2.8978965232185120e-03 0.0000000000000000e+00  5.5663185416855093e+01 2.8979838789881416e-03 0.0000000000000000e+00  5.5663185507023741e+01 2.8979264877248526e-03 0.0000000000000000e+00  5.5663185447628315e+01 2.8979640382994680e-03 0.0000000000000000e+00  5.5663185486582009e+01 2.8979395659697099e-03 0.0000000000000000e+00  5.5663185461138220e+01 2.8979554560993491e-03 0.0000000000000000e+00  5.5663185477694732e+01 2.8979451739575184e-03 0.0000000000000000e+00  5.5663185466962730e+01 2.8979518046482427e-03 0.0000000000000000e+00  5.5663185473893748e+01 2.8979475422273556e-03 0.0000000000000000e+00  5.5663185469431426e+01 2.8979502738269948e-03 0.0000000000000000e+00  5.5663185472295460e+01 2.8979485280030410e-03 0.0000000000000000e+00  5.5663185470463063e+01 2.8979496410147408e-03 0.0000000000000000e+00  5.5663185471632161e+01 2.8979489338012989e-03 0.0000000000000000e+00  5.5663185470888315e+01 2.8979493826795022e-03 0.0000000000000000e+00  5.5663185471360840e+01 2.8979490987194210e-03 0.0000000000000000e+00  5.5663185471062988e+01 2.8979492785414576e-03 0.0000000000000000e+00  5.5663185471252682e+01 2.8979491655010512e-03 0.0000000000000000e+00  5.5663185471137744e+01 2.8979492368827963e-03 0.0000000000000000e+00  5.5663185471222803e+01 2.8979491945038223e-03 0.0000000000000000e+00  5.5663185471204649e+01 2.8979492274768190e-03 0.0000000000000000e+00  5.5663185471314399e+01 2.8979492251440960e-03 0.0000000000000000e+00  5.5663185471511802e+01 2.8979492773216213e-03 0.0000000000000000e+00  5.5663185472103756e+01 2.8979493848041785e-03 0.0000000000000000e+00  5.5663185473647296e+01 2.8979497043024414e-03 0.0000000000000000e+00  5.5663185477773091e+01 2.8979505631269841e-03 0.0000000000000000e+00  5.5663185488641595e+01 2.8979529087077029e-03 0.0000000000000000e+00  5.5663185517119040e+01 2.8979592394547055e-03 0.0000000000000000e+00  5.5663185591183215e+01 2.8979762183253487e-03 0.0000000000000000e+00  5.5663185782452310e+01 2.8980213601900407e-03 0.0000000000000000e+00  5.5663186272845628e+01 2.8981402063067200e-03 0.0000000000000000e+00  5.5663187521094798e+01 2.8984494446597201e-03 0.0000000000000000e+00  5.5663190674925673e+01 2.8992428033221291e-03 0.0000000000000000e+00  5.5663198581216484e+01 2.9012429898253251e-03 0.0000000000000000e+00  5.5663218227553287e+01 2.9061752891974403e-03 0.0000000000000000e+00  5.5663266521632814e+01 2.9179882026185849e-03 0.0000000000000000e+00  5.5663383511560141e+01 2.9451619127480542e-03 0.0000000000000000e+00  5.5663660732120633e+01 3.0041018411531987e-03 0.0000000000000000e+00  5.5664296626484834e+01 3.1195296847272456e-03 0.0000000000000000e+00  5.5665686679843283e+01 3.3138405630036773e-03 0.0000000000000000e+00  5.5669088577834927e+01 3.6102437708249837e-03 0.0000000000000000e+00  5.5680719545429469e+01 0.0000000000000000e+00 0.0000000000000000e+00  5.8278876400642545e+01 0.0000000000000000e+00 0.0000000000000000e+00  5.8580084779042075e+01 9.8864857390938962e-02 0.0000000000000000e+00  5.8577832214004630e+01 1.1798073957897717e-02 0.0000000000000000e+00  5.8610924516538695e+01 1.9802921217967652e-02 0.0000000000000000e+00  5.8551043741325984e+01 6.9446001499355887e-03 0.0000000000000000e+00  5.8544109420869397e+01 -5.2949443376816866e-03 0.0000000000000000e+00  5.8498912162243080e+01 3.4594691496435146e-05 0.0000000000000000e+00  5.8488511795200061e+01 -9.8264050066834818e-03 0.0000000000000000e+00  5.8460638345282220e+01 -4.3047067058689546e-03 0.0000000000000000e+00  5.8454088806348054e+01 -8.3490579589277011e-03 0.0000000000000000e+00  5.8440537065093238e+01 -3.1556277092725884e-03 0.0000000000000000e+00  5.8439228454172181e+01 -3.8191965451141547e-03 0.0000000000000000e+00  5.8433927140499769e+01 -7.1935168228886290e-04 0.0000000000000000e+00  5.8434640834766164e+01 -1.0269001960719855e-03 0.0000000000000000e+00  5.8432592037462065e+01 2.9909813433868078e-04 0.0000000000000000e+00  5.8433445282122193e+01 -2.8888171924950105e-05 0.0000000000000000e+00  5.8432530088175398e+01 4.9798934184990115e-04 0.0000000000000000e+00  5.8433104005781573e+01 2.5992893187164114e-04 0.0000000000000000e+00  5.8432634212183082e+01 4.8882706273636770e-04 0.0000000000000000e+00  5.8432970837589217e+01 3.4855885204320341e-04 0.0000000000000000e+00  5.8432714047288329e+01 4.5924335950722669e-04 0.0000000000000000e+00  5.8432904323412053e+01 3.8285089888621791e-04 0.0000000000000000e+00  5.8432761675352054e+01 4.3945685959379015e-04 0.0000000000000000e+00  5.8432867808706227e+01 3.9899630474712650e-04 0.0000000000000000e+00  5.8432788892068942e+01 4.2838044471971165e-04 0.0000000000000000e+00  5.8432847272540748e+01 4.0727716167803435e-04 0.0000000000000000e+00  5.8432804280848970e+01 4.2244064577708692e-04 0.0000000000000000e+00  5.8432835750497070e+01 4.1161293147460746e-04 0.0000000000000000e+00  5.8432812860819340e+01 4.1931354519801324e-04 0.0000000000000000e+00  5.8432829394901994e+01 4.1386858266430771e-04 0.0000000000000000e+00  5.8432817536806844e+01 4.1769749318368326e-04 0.0000000000000000e+00  5.8432825979370179e+01 4.1502105303060433e-04 0.0000000000000000e+00  5.8432820012375245e+01 4.1688082447040130e-04 0.0000000000000000e+00  5.8432824199254796e+01 4.1559627255943759e-04 0.0000000000000000e+00  5.8432821282203086e+01 4.1647827947192089e-04 0.0000000000000000e+00  5.8432823300585682e+01 4.1587618572947095e-04 0.0000000000000000e+00  5.8432821913281174e+01 4.1628487807188083e-04 0.0000000000000000e+00  5.8432822860743322e+01 4.1600898248708690e-04 0.0000000000000000e+00  5.8432822217623922e+01 4.1619424947182297e-04 0.0000000000000000e+00  5.8432822651617506e+01 4.1607047134434072e-04 0.0000000000000000e+00  5.8432822360372363e+01 4.1615276672299026e-04 0.00000000