<?xml version="1.0"?>
<VTKFile type="UnstructuredGrid"  version="0.1"  >
<UnstructuredGrid>
<Piece  NumberOfPoints="1369" NumberOfCells="2560">
<Points>
<DataArray  type="Float64"  NumberOfComponents="3"  format="ascii">0 0 0  0.75 0 0  1.5 0 0  2.25 0 0  3 0 0  3.75 0 0  4.5 0 0  5.25 0 0  6 0 0  6.75 0 0  7.5 0 0  8.25 0 0  9 0 0  9.75 0 0  10.5 0 0  11.25 0 0  12 0 0  12.75 0 0  13.5 0 0  14.25 0 0  15 0 0  15.75 0 0  16.5 0 0  17.25 0 0  18 0 0  18.75 0 0  19.5 0 0  20.25 0 0  21 0 0  21.75 0 0  22.5 0 0  23.25 0 0  24 0 0  24.75 0 0  25.5 0 0  26.25 0 0  27 0 0  27.75 0 0  28.5 0 0  29.25 0 0  30 0 0  30.75 0 0  31.5 0 0  32.25 0 0  33 0 0  33.75 0 0  34.5 0 0  35.25 0 0  36 0 0  36.75 0 0  37.5 0 0  38.25 0 0  39 0 0  39.75 0 0  40.5 0 0  41.25 0 0  42 0 0  42.75 0 0  43.5 0 0  44.25 0 0  45 0 0  45.75 0 0  46.5 0 0  47.25 0 0  48 0 0  48.75 0 0  49.5 0 0  50.25 0 0  51 0 0  51.75 0 0  52.5 0 0  53.25 0 0  54 0 0  54.75 0 0  55.5 0 0  56.25 0 0  57 0 0  57.75 0 0  58.5 0 0  59.25 0 0  60 0 0  0 0.5 0  0.75 0.5 0  1.5 0.5 0  2.25 0.5 0  3 0.5 0  3.75 0.5 0  4.5 0.5 0  5.25 0.5 0  6 0.5 0  6.75 0.5 0  7.5 0.5 0  8.25 0.5 0  9 0.5 0  9.75 0.5 0  10.5 0.5 0  11.25 0.5 0  12 0.5 0  12.75 0.5 0  13.5 0.5 0  14.25 0.5 0  15 0.5 0  15.75 0.5 0  16.5 0.5 0  17.25 0.5 0  18 0.5 0  18.75 0.5 0  19.5 0.5 0  20.25 0.5 0  21 0.5 0  21.75 0.5 0  22.5 0.5 0  23.25 0.5 0  24 0.5 0  24.75 0.5 0  25.5 0.5 0  26.25 0.5 0  27 0.5 0  27.75 0.5 0  28.5 0.5 0  29.25 0.5 0  30 0.5 0  30.75 0.5 0  31.5 0.5 0  32.25 0.5 0  33 0.5 0  33.75 0.5 0  34.5 0.5 0  35.25 0.5 0  36 0.5 0  36.75 0.5 0  37.5 0.5 0  38.25 0.5 0  39 0.5 0  39.75 0.5 0  40.5 0.5 0  41.25 0.5 0  42 0.5 0  42.75 0.5 0  43.5 0.5 0  44.25 0.5 0  45 0.5 0  45.75 0.5 0  46.5 0.5 0  47.25 0.5 0  48 0.5 0  48.75 0.5 0  49.5 0.5 0  50.25 0.5 0  51 0.5 0  51.75 0.5 0  52.5 0.5 0  53.25 0.5 0  54 0.5 0  54.75 0.5 0  55.5 0.5 0  56.25 0.5 0  57 0.5 0  57.75 0.5 0  58.5 0.5 0  59.25 0.5 0  60 0.5 0  0 1 0  0.75 1 0  1.5 1 0  2.25 1 0  3 1 0  3.75 1 0  4.5 1 0  5.25 1 0  6 1 0  6.75 1 0  7.5 1 0  8.25 1 0  9 1 0  9.75 1 0  10.5 1 0  11.25 1 0  12 1 0  12.75 1 0  13.5 1 0  14.25 1 0  15 1 0  15.75 1 0  16.5 1 0  17.25 1 0  18 1 0  18.75 1 0  19.5 1 0  20.25 1 0  21 1 0  21.75 1 0  22.5 1 0  23.25 1 0  24 1 0  24.75 1 0  25.5 1 0  26.25 1 0  27 1 0  27.75 1 0  28.5 1 0  29.25 1 0  30 1 0  30.75 1 0  31.5 1 0  32.25 1 0  33 1 0  33.75 1 0  34.5 1 0  35.25 1 0  36 1 0  36.75 1 0  37.5 1 0  38.25 1 0  39 1 0  39.75 1 0  40.5 1 0  41.25 1 0  42 1 0  42.75 1 0  43.5 1 0  44.25 1 0  45 1 0  45.75 1 0  46.5 1 0  47.25 1 0  48 1 0  48.75 1 0  49.5 1 0  50.25 1 0  51 1 0  51.75 1 0  52.5 1 0  53.25 1 0  54 1 0  54.75 1 0  55.5 1 0  56.25 1 0  57 1 0  57.75 1 0  58.5 1 0  59.25 1 0  60 1 0  0 1.5 0  0.75 1.5 0  1.5 1.5 0  2.25 1.5 0  3 1.5 0  3.75 1.5 0  4.5 1.5 0  5.25 1.5 0  6 1.5 0  6.75 1.5 0  7.5 1.5 0  8.25 1.5 0  9 1.5 0  9.75 1.5 0  10.5 1.5 0  11.25 1.5 0  12 1.5 0  12.75 1.5 0  13.5 1.5 0  14.25 1.5 0  15 1.5 0  15.75 1.5 0  16.5 1.5 0  17.25 1.5 0  18 1.5 0  18.75 1.5 0  19.5 1.5 0  20.25 1.5 0  21 1.5 0  21.75 1.5 0  22.5 1.5 0  23.25 1.5 0  24 1.5 0  24.75 1.5 0  25.5 1.5 0  26.25 1.5 0  27 1.5 0  27.75 1.5 0  28.5 1.5 0  29.25 1.5 0  30 1.5 0  30.75 1.5 0  31.5 1.5 0  32.25 1.5 0  33 1.5 0  33.75 1.5 0  34.5 1.5 0  35.25 1.5 0  36 1.5 0  36.75 1.5 0  37.5 1.5 0  38.25 1.5 0  39 1.5 0  39.75 1.5 0  40.5 1.5 0  41.25 1.5 0  42 1.5 0  42.75 1.5 0  43.5 1.5 0  44.25 1.5 0  45 1.5 0  45.75 1.5 0  46.5 1.5 0  47.25 1.5 0  48 1.5 0  48.75 1.5 0  49.5 1.5 0  50.25 1.5 0  51 1.5 0  51.75 1.5 0  52.5 1.5 0  53.25 1.5 0  54 1.5 0  54.75 1.5 0  55.5 1.5 0  56.25 1.5 0  57 1.5 0  57.75 1.5 0  58.5 1.5 0  59.25 1.5 0  60 1.5 0  0 2 0  0.75 2 0  1.5 2 0  2.25 2 0  3 2 0  3.75 2 0  4.5 2 0  5.25 2 0  6 2 0  6.75 2 0  7.5 2 0  8.25 2 0  9 2 0  9.75 2 0  10.5 2 0  11.25 2 0  12 2 0  12.75 2 0  13.5 2 0  14.25 2 0  15 2 0  15.75 2 0  16.5 2 0  17.25 2 0  18 2 0  18.75 2 0  19.5 2 0  20.25 2 0  21 2 0  21.75 2 0  22.5 2 0  23.25 2 0  24 2 0  24.75 2 0  25.5 2 0  26.25 2 0  27 2 0  27.75 2 0  28.5 2 0  29.25 2 0  30 2 0  30.75 2 0  31.5 2 0  32.25 2 0  33 2 0  33.75 2 0  34.5 2 0  35.25 2 0  36 2 0  36.75 2 0  37.5 2 0  38.25 2 0  39 2 0  39.75 2 0  40.5 2 0  41.25 2 0  42 2 0  42.75 2 0  43.5 2 0  44.25 2 0  45 2 0  45.75 2 0  46.5 2 0  47.25 2 0  48 2 0  48.75 2 0  49.5 2 0  50.25 2 0  51 2 0  51.75 2 0  52.5 2 0  53.25 2 0  54 2 0  54.75 2 0  55.5 2 0  56.25 2 0  57 2 0  57.75 2 0  58.5 2 0  59.25 2 0  60 2 0  0 2.5 0  0.75 2.5 0  1.5 2.5 0  2.25 2.5 0  3 2.5 0  3.75 2.5 0  4.5 2.5 0  5.25 2.5 0  6 2.5 0  6.75 2.5 0  7.5 2.5 0  8.25 2.5 0  9 2.5 0  9.75 2.5 0  10.5 2.5 0  11.25 2.5 0  12 2.5 0  12.75 2.5 0  13.5 2.5 0  14.25 2.5 0  15 2.5 0  15.75 2.5 0  16.5 2.5 0  17.25 2.5 0  18 2.5 0  18.75 2.5 0  19.5 2.5 0  20.25 2.5 0  21 2.5 0  21.75 2.5 0  22.5 2.5 0  23.25 2.5 0  24 2.5 0  24.75 2.5 0  25.5 2.5 0  26.25 2.5 0  27 2.5 0  27.75 2.5 0  28.5 2.5 0  29.25 2.5 0  30 2.5 0  30.75 2.5 0  31.5 2.5 0  32.25 2.5 0  33 2.5 0  33.75 2.5 0  34.5 2.5 0  35.25 2.5 0  36 2.5 0  36.75 2.5 0  37.5 2.5 0  38.25 2.5 0  39 2.5 0  39.75 2.5 0  40.5 2.5 0  41.25 2.5 0  42 2.5 0  42.75 2.5 0  43.5 2.5 0  44.25 2.5 0  45 2.5 0  45.75 2.5 0  46.5 2.5 0  47.25 2.5 0  48 2.5 0  48.75 2.5 0  49.5 2.5 0  50.25 2.5 0  51 2.5 0  51.75 2.5 0  52.5 2.5 0  53.25 2.5 0  54 2.5 0  54.75 2.5 0  55.5 2.5 0  56.25 2.5 0  57 2.5 0  57.75 2.5 0  58.5 2.5 0  59.25 2.5 0  60 2.5 0  0 3 0  0.75 3 0  1.5 3 0  2.25 3 0  3 3 0  3.75 3 0  4.5 3 0  5.25 3 0  6 3 0  6.75 3 0  7.5 3 0  8.25 3 0  9 3 0  9.75 3 0  10.5 3 0  11.25 3 0  12 3 0  12.75 3 0  13.5 3 0  14.25 3 0  15 3 0  15.75 3 0  16.5 3 0  17.25 3 0  18 3 0  18.75 3 0  19.5 3 0  20.25 3 0  21 3 0  21.75 3 0  22.5 3 0  23.25 3 0  24 3 0  24.75 3 0  25.5 3 0  26.25 3 0  27 3 0  27.75 3 0  28.5 3 0  29.25 3 0  30 3 0  30.75 3 0  31.5 3 0  32.25 3 0  33 3 0  33.75 3 0  34.5 3 0  35.25 3 0  36 3 0  36.75 3 0  37.5 3 0  38.25 3 0  39 3 0  39.75 3 0  40.5 3 0  41.25 3 0  42 3 0  42.75 3 0  43.5 3 0  44.25 3 0  45 3 0  45.75 3 0  46.5 3 0  47.25 3 0  48 3 0  48.75 3 0  49.5 3 0  50.25 3 0  51 3 0  51.75 3 0  52.5 3 0  53.25 3 0  54 3 0  54.75 3 0  55.5 3 0  56.25 3 0  57 3 0  57.75 3 0  58.5 3 0  59.25 3 0  60 3 0  0 3.5 0  0.75 3.5 0  1.5 3.5 0  2.25 3.5 0  3 3.5 0  3.75 3.5 0  4.5 3.5 0  5.25 3.5 0  6 3.5 0  6.75 3.5 0  7.5 3.5 0  8.25 3.5 0  9 3.5 0  9.75 3.5 0  10.5 3.5 0  11.25 3.5 0  12 3.5 0  12.75 3.5 0  13.5 3.5 0  14.25 3.5 0  15 3.5 0  15.75 3.5 0  16.5 3.5 0  17.25 3.5 0  18 3.5 0  18.75 3.5 0  19.5 3.5 0  20.25 3.5 0  21 3.5 0  21.75 3.5 0  22.5 3.5 0  23.25 3.5 0  24 3.5 0  24.75 3.5 0  25.5 3.5 0  26.25 3.5 0  27 3.5 0  27.75 3.5 0  28.5 3.5 0  29.25 3.5 0  30 3.5 0  30.75 3.5 0  31.5 3.5 0  32.25 3.5 0  33 3.5 0  33.75 3.5 0  34.5 3.5 0  35.25 3.5 0  36 3.5 0  36.75 3.5 0  37.5 3.5 0  38.25 3.5 0  39 3.5 0  39.75 3.5 0  40.5 3.5 0  41.25 3.5 0  42 3.5 0  42.75 3.5 0  43.5 3.5 0  44.25 3.5 0  45 3.5 0  45.75 3.5 0  46.5 3.5 0  47.25 3.5 0  48 3.5 0  48.75 3.5 0  49.5 3.5 0  50.25 3.5 0  51 3.5 0  51.75 3.5 0  52.5 3.5 0  53.25 3.5 0  54 3.5 0  54.75 3.5 0  55.5 3.5 0  56.25 3.5 0  57 3.5 0  57.75 3.5 0  58.5 3.5 0  59.25 3.5 0  60 3.5 0  0 4 0  0.75 4 0  1.5 4 0  2.25 4 0  3 4 0  3.75 4 0  4.5 4 0  5.25 4 0  6 4 0  6.75 4 0  7.5 4 0  8.25 4 0  9 4 0  9.75 4 0  10.5 4 0  11.25 4 0  12 4 0  12.75 4 0  13.5 4 0  14.25 4 0  15 4 0  15.75 4 0  16.5 4 0  17.25 4 0  18 4 0  18.75 4 0  19.5 4 0  20.25 4 0  21 4 0  21.75 4 0  22.5 4 0  23.25 4 0  24 4 0  24.75 4 0  25.5 4 0  26.25 4 0  27 4 0  27.75 4 0  28.5 4 0  29.25 4 0  30 4 0  30.75 4 0  31.5 4 0  32.25 4 0  33 4 0  33.75 4 0  34.5 4 0  35.25 4 0  36 4 0  36.75 4 0  37.5 4 0  38.25 4 0  39 4 0  39.75 4 0  40.5 4 0  41.25 4 0  42 4 0  42.75 4 0  43.5 4 0  44.25 4 0  45 4 0  45.75 4 0  46.5 4 0  47.25 4 0  48 4 0  48.75 4 0  49.5 4 0  50.25 4 0  51 4 0  51.75 4 0  52.5 4 0  53.25 4 0  54 4 0  54.75 4 0  55.5 4 0  56.25 4 0  57 4 0  57.75 4 0  58.5 4 0  59.25 4 0  60 4 0  0.375 0.25 0  1.125 0.25 0  1.875 0.25 0  2.625 0.25 0  3.375 0.25 0  4.125 0.25 0  4.875 0.25 0  5.625 0.25 0  6.375 0.25 0  7.125 0.25 0  7.875 0.25 0  8.625 0.25 0  9.375 0.25 0  10.125 0.25 0  10.875 0.25 0  11.625 0.25 0  12.375 0.25 0  13.125 0.25 0  13.875 0.25 0  14.625 0.25 0  15.375 0.25 0  16.125 0.25 0  16.875 0.25 0  17.625 0.25 0  18.375 0.25 0  19.125 0.25 0  19.875 0.25 0  20.625 0.25 0  21.375 0.25 0  22.125 0.25 0  22.875 0.25 0  23.625 0.25 0  24.375 0.25 0  25.125 0.25 0  25.875 0.25 0  26.625 0.25 0  27.375 0.25 0  28.125 0.25 0  28.875 0.25 0  29.625 0.25 0  30.375 0.25 0  31.125 0.25 0  31.875 0.25 0  32.625 0.25 0  33.375 0.25 0  34.125 0.25 0  34.875 0.25 0  35.625 0.25 0  36.375 0.25 0  37.125 0.25 0  37.875 0.25 0  38.625 0.25 0  39.375 0.25 0  40.125 0.25 0  40.875 0.25 0  41.625 0.25 0  42.375 0.25 0  43.125 0.25 0  43.875 0.25 0  44.625 0.25 0  45.375 0.25 0  46.125 0.25 0  46.875 0.25 0  47.625 0.25 0  48.375 0.25 0  49.125 0.25 0  49.875 0.25 0  50.625 0.25 0  51.375 0.25 0  52.125 0.25 0  52.875 0.25 0  53.625 0.25 0  54.375 0.25 0  55.125 0.25 0  55.875 0.25 0  56.625 0.25 0  57.375 0.25 0  58.125 0.25 0  58.875 0.25 0  59.625 0.25 0  0.375 0.75 0  1.125 0.75 0  1.875 0.75 0  2.625 0.75 0  3.375 0.75 0  4.125 0.75 0  4.875 0.75 0  5.625 0.75 0  6.375 0.75 0  7.125 0.75 0  7.875 0.75 0  8.625 0.75 0  9.375 0.75 0  10.125 0.75 0  10.875 0.75 0  11.625 0.75 0  12.375 0.75 0  13.125 0.75 0  13.875 0.75 0  14.625 0.75 0  15.375 0.75 0  16.125 0.75 0  16.875 0.75 0  17.625 0.75 0  18.375 0.75 0  19.125 0.75 0  19.875 0.75 0  20.625 0.75 0  21.375 0.75 0  22.125 0.75 0  22.875 0.75 0  23.625 0.75 0  24.375 0.75 0  25.125 0.75 0  25.875 0.75 0  26.625 0.75 0  27.375 0.75 0  28.125 0.75 0  28.875 0.75 0  29.625 0.75 0  30.375 0.75 0  31.125 0.75 0  31.875 0.75 0  32.625 0.75 0  33.375 0.75 0  34.125 0.75 0  34.875 0.75 0  35.625 0.75 0  36.375 0.75 0  37.125 0.75 0  37.875 0.75 0  38.625 0.75 0  39.375 0.75 0  40.125 0.75 0  40
[...]
<PointData  Vectors="f_8-0"> 
<DataArray  type="Float64"  Name="f_8-0"  NumberOfComponents="3" format="ascii">0.0000000000000000e+00 0.0000000000000000e+00 0.0000000000000000e+00  0.0000000000000000e+00 0.0000000000000000e+00 0.0000000000000000e+00  0.0000000000000000e+00 0.0000000000000000e+00 0.0000000000000000e+00  0.0000000000000000e+00 0.0000000000000000e+00 0.0000000000000000e+00  0.0000000000000000e+00 0.0000000000000000e+00 0.0000000000000000e+00  0.0000000000000000e+00 0.0000000000000000e+00 0.0000000000000000e+00  0.0000000000000000e+00 0.0000000000000000e+00 0.0000000000000000e+00  0.0000000000000000e+00 0.0000000000000000e+00 0.0000000000000000e+00  0.0000000000000000e+00 0.0000000000000000e+00 0.0000000000000000e+00  0.0000000000000000e+00 0.0000000000000000e+00 0.0000000000000000e+00  0.0000000000000000e+00 0.0000000000000000e+00 0.0000000000000000e+00  0.0000000000000000e+00 0.0000000000000000e+00 0.0000000000000000e+00  0.0000000000000000e+00 0.0000000000000000e+00 0.0000000000000000e+00  0.0000000000000000e+00 0.0000000000000000e+00 0.0000000000000000e+00  0.0000000000000000e+00 0.0000000000000000e+00 0.0000000000000000e+00  0.0000000000000000e+00 0.0000000000000000e+00 0.0000000000000000e+00  0.0000000000000000e+00 0.0000000000000000e+00 0.0000000000000000e+00  0.0000000000000000e+00 0.0000000000000000e+00 0.0000000000000000e+00  0.0000000000000000e+00 0.0000000000000000e+00 0.0000000000000000e+00  0.0000000000000000e+00 0.0000000000000000e+00 0.0000000000000000e+00  0.0000000000000000e+00 0.0000000000000000e+00 0.0000000000000000e+00  0.0000000000000000e+00 0.0000000000000000e+00 0.0000000000000000e+00  0.0000000000000000e+00 0.0000000000000000e+00 0.0000000000000000e+00  0.0000000000000000e+00 0.0000000000000000e+00 0.0000000000000000e+00  0.0000000000000000e+00 0.0000000000000000e+00 0.0000000000000000e+00  0.0000000000000000e+00 0.0000000000000000e+00 0.0000000000000000e+00  0.0000000000000000e+00 0.0000000000000000e+00 0.0000000000000000e+00  0.0000000000000000e+00 0.0000000000000000e+00 0.0000000000000000e+00  0.0000000000000000e+00 0.0000000000000000e+00 0.0000000000000000e+00  0.0000000000000000e+00 0.0000000000000000e+00 0.0000000000000000e+00  0.0000000000000000e+00 0.0000000000000000e+00 0.0000000000000000e+00  0.0000000000000000e+00 0.0000000000000000e+00 0.0000000000000000e+00  0.0000000000000000e+00 0.0000000000000000e+00 0.0000000000000000e+00  0.0000000000000000e+00 0.0000000000000000e+00 0.0000000000000000e+00  0.0000000000000000e+00 0.0000000000000000e+00 0.0000000000000000e+00  0.0000000000000000e+00 0.0000000000000000e+00 0.0000000000000000e+00  0.0000000000000000e+00 0.0000000000000000e+00 0.0000000000000000e+00  0.0000000000000000e+00 0.0000000000000000e+00 0.0000000000000000e+00  0.0000000000000000e+00 0.0000000000000000e+00 0.0000000000000000e+00  0.0000000000000000e+00 0.0000000000000000e+00 0.0000000000000000e+00  0.0000000000000000e+00 0.0000000000000000e+00 0.0000000000000000e+00  0.0000000000000000e+00 0.0000000000000000e+00 0.0000000000000000e+00  0.0000000000000000e+00 0.0000000000000000e+00 0.0000000000000000e+00  0.0000000000000000e+00 0.0000000000000000e+00 0.0000000000000000e+00  0.0000000000000000e+00 0.0000000000000000e+00 0.0000000000000000e+00  0.0000000000000000e+00 0.0000000000000000e+00 0.0000000000000000e+00  0.0000000000000000e+00 0.0000000000000000e+00 0.0000000000000000e+00  0.0000000000000000e+00 0.0000000000000000e+00 0.0000000000000000e+00  0.0000000000000000e+00 0.0000000000000000e+00 0.0000000000000000e+00  0.0000000000000000e+00 0.0000000000000000e+00 0.0000000000000000e+00  0.0000000000000000e+00 0.0000000000000000e+00 0.0000000000000000e+00  0.0000000000000000e+00 0.0000000000000000e+00 0.0000000000000000e+00  0.0000000000000000e+00 0.0000000000000000e+00 0.0000000000000000e+00  0.0000000000000000e+00 0.0000000000000000e+00 0.0000000000000000e+00  0.0000000000000000e+00 0.0000000000000000e+00 0.0000000000000000e+00  0.0000000000000000e+00 0.0000000000000000e+00 0.0000000000000000e+00  0.0000000000000000e+00 0.0000000000000000e+00 0.0000000000000000e+00  0.0000000000000000e+00 0.0000000000000000e+00 0.0000000000000000e+00  0.0000000000000000e+00 0.0000000000000000e+00 0.0000000000000000e+00  0.0000000000000000e+00 0.0000000000000000e+00 0.0000000000000000e+00  0.0000000000000000e+00 0.0000000000000000e+00 0.0000000000000000e+00  0.0000000000000000e+00 0.0000000000000000e+00 0.0000000000000000e+00  0.0000000000000000e+00 0.0000000000000000e+00 0.0000000000000000e+00  0.0000000000000000e+00 0.0000000000000000e+00 0.0000000000000000e+00  0.0000000000000000e+00 0.0000000000000000e+00 0.0000000000000000e+00  0.0000000000000000e+00 0.0000000000000000e+00 0.0000000000000000e+00  0.0000000000000000e+00 0.0000000000000000e+00 0.0000000000000000e+00  0.0000000000000000e+00 0.0000000000000000e+00 0.0000000000000000e+00  0.0000000000000000e+00 0.0000000000000000e+00 0.0000000000000000e+00  0.0000000000000000e+00 0.0000000000000000e+00 0.0000000000000000e+00  0.0000000000000000e+00 0.0000000000000000e+00 0.0000000000000000e+00  0.0000000000000000e+00 0.0000000000000000e+00 0.0000000000000000e+00  0.0000000000000000e+00 0.0000000000000000e+00 0.0000000000000000e+00  0.0000000000000000e+00 0.0000000000000000e+00 0.0000000000000000e+00  0.0000000000000000e+00 0.0000000000000000e+00 0.0000000000000000e+00  0.0000000000000000e+00 0.0000000000000000e+00 0.0000000000000000e+00  0.0000000000000000e+00 0.0000000000000000e+00 0.0000000000000000e+00  0.0000000000000000e+00 0.0000000000000000e+00 0.0000000000000000e+00  0.0000000000000000e+00 0.0000000000000000e+00 0.0000000000000000e+00  0.0000000000000000e+00 0.0000000000000000e+00 0.0000000000000000e+00  0.0000000000000000e+00 0.0000000000000000e+00 0.0000000000000000e+00  2.9047003088978805e+01 0.0000000000000000e+00 0.0000000000000000e+00  2.9066034995248707e+01 -1.7555902337841583e-02 0.0000000000000000e+00  2.9072580120170560e+01 -4.8722614589181232e-03 0.0000000000000000e+00  2.9079054799091129e+01 1.6423523173195779e-03 0.0000000000000000e+00  2.9089912872035885e+01 -7.3111733833899179e-04 0.0000000000000000e+00  2.9094002044188812e+01 -1.9571079469296940e-03 0.0000000000000000e+00  2.9103106137455949e+01 -3.0578833775827571e-03 0.0000000000000000e+00  2.9110233610742799e+01 -3.6286182142368597e-03 0.0000000000000000e+00  2.9117509103938872e+01 -3.1976390581896171e-03 0.0000000000000000e+00  2.9122892237542640e+01 -2.9159220146659772e-03 0.0000000000000000e+00  2.9126505971111335e+01 -1.9534789106137678e-03 0.0000000000000000e+00  2.9128724623074724e+01 -1.7242440963007475e-03 0.0000000000000000e+00  2.9129715136730141e+01 -1.2676863842236619e-03 0.0000000000000000e+00  2.9130358917627401e+01 -1.3208336279325850e-03 0.0000000000000000e+00  2.9130579710872567e+01 -1.1592509567223237e-03 0.0000000000000000e+00  2.9130855678624627e+01 -1.2383452336132883e-03 0.0000000000000000e+00  2.9130973817720687e+01 -1.1651017310934891e-03 0.0000000000000000e+00  2.9131171649092270e+01 -1.2120160120965464e-03 0.0000000000000000e+00  2.9131286920451771e+01 -1.1714897190083079e-03 0.0000000000000000e+00  2.9131445312908085e+01 -1.1928440978778924e-03 0.0000000000000000e+00  2.9131549267721631e+01 -1.1669726530850802e-03 0.0000000000000000e+00  2.9131665278686690e+01 -1.1734651932723682e-03 0.0000000000000000e+00  2.9131741347182743e+01 -1.1563795974848263e-03 0.0000000000000000e+00  2.9131814539934705e+01 -1.1568847593964916e-03 0.0000000000000000e+00  2.9131860886311475e+01 -1.1466953837243785e-03 0.0000000000000000e+00  2.9131901715069770e+01 -1.1459602525650994e-03 0.0000000000000000e+00  2.9131927161116749e+01 -1.1406327295848269e-03 0.0000000000000000e+00  2.9131948795174591e+01 -1.1400518631723303e-03 0.0000000000000000e+00  2.9131962694256018e+01 -1.1375210930343424e-03 0.0000000000000000e+00  2.9131974568399130e+01 -1.1372008901699138e-03 0.0000000000000000e+00  2.9131982852382308e+01 -1.1360693638737826e-03 0.0000000000000000e+00  2.9131990171835167e+01 -1.1359200622796572e-03 0.0000000000000000e+00  2.9131995937710474e+01 -1.1354540431140227e-03 0.0000000000000000e+00  2.9132001315843560e+01 -1.1354094709236393e-03 0.0000000000000000e+00  2.9132006100890781e+01 -1.1352411820023567e-03 0.0000000000000000e+00  2.9132010770899466e+01 -1.1352329059202352e-03 0.0000000000000000e+00  2.9132015221168963e+01 -1.1351576226198768e-03 0.0000000000000000e+00  2.9132019587299485e+01 -1.1351161248734324e-03 0.0000000000000000e+00  2.9132023755898771e+01 -1.1350143149029316e-03 0.0000000000000000e+00  2.9132027687545293e+01 -1.1348857485320349e-03 0.0000000000000000e+00  2.9132031239712987e+01 -1.1346952172526881e-03 0.0000000000000000e+00  2.9132034298890787e+01 -1.1344602892812549e-03 0.0000000000000000e+00  2.9132036729800518e+01 -1.1341792766086413e-03 0.0000000000000000e+00  2.9132038437658718e+01 -1.1338740228645416e-03 0.0000000000000000e+00  2.9132039360265406e+01 -1.1335613869772679e-03 0.0000000000000000e+00  2.9132039493495586e+01 -1.1332652829485544e-03 0.0000000000000000e+00  2.9132038884299668e+01 -1.1330040010387860e-03 0.0000000000000000e+00  2.9132037629104921e+01 -1.1327928431812094e-03 0.0000000000000000e+00  2.9132035857596328e+01 -1.1326394955218470e-03 0.0000000000000000e+00  2.9132033718111408e+01 -1.1325457497979021e-03 0.0000000000000000e+00  2.9132031360379365e+01 -1.1325074002749267e-03 0.0000000000000000e+00  2.9132028922537970e+01 -1.1325164631277882e-03 0.0000000000000000e+00  2.9132026521339597e+01 -1.1325626171039881e-03 0.0000000000000000e+00  2.9132024247335892e+01 -1.1326350234510875e-03 0.0000000000000000e+00  2.9132022163710431e+01 -1.1327234675625028e-03 0.0000000000000000e+00  2.9132020308302231e+01 -1.1328192155388361e-03 0.0000000000000000e+00  2.9132018697370547e+01 -1.1329153787483985e-03 0.0000000000000000e+00  2.9132017330329898e+01 -1.1330069608758988e-03 0.0000000000000000e+00  2.9132016194474367e+01 -1.1330907285637714e-03 0.0000000000000000e+00  2.9132015269319815e+01 -1.1331648538684628e-03 0.0000000000000000e+00  2.9132014530123755e+01 -1.1332287055791017e-03 0.0000000000000000e+00  2.9132013950721547e+01 -1.1332823350627707e-03 0.0000000000000000e+00  2.9132013505349356e+01 -1.1333265238618027e-03 0.0000000000000000e+00  2.9132013170171444e+01 -1.1333620451668227e-03 0.0000000000000000e+00  2.9132012923638499e+01 -1.1333903650329223e-03 0.0000000000000000e+00  2.9132012747457683e+01 -1.1334121952696747e-03 0.0000000000000000e+00  2.9132012625832051e+01 -1.1334294449964308e-03 0.0000000000000000e+00  2.9132012548247953e+01 -1.1334431884116795e-03 0.0000000000000000e+00  2.9132012509100175e+01 -1.1334563639971095e-03 0.0000000000000000e+00  2.9132012509977109e+01 -1.1334719315247458e-03 0.0000000000000000e+00  2.9132012554074272e+01 -1.1334949878314651e-03 0.0000000000000000e+00  2.9132012683533702e+01 -1.1335947046627038e-03 0.0000000000000000e+00  2.9132013146143255e+01 -1.1339908240208085e-03 0.0000000000000000e+00  2.9132014687865510e+01 -1.1352603934872939e-03 0.0000000000000000e+00  2.9132019629386420e+01 -1.1390309753783266e-03 0.0000000000000000e+00  2.9132036124020594e+01 -1.1508200953846250e-03 0.0000000000000000e+00  2.9132103442389582e+01 -1.1917871988734625e-03 0.0000000000000000e+00  2.9132394747204597e+01 -1.2919752648882451e-03 0.0000000000000000e+00  2.9133583450846665e+01 -1.4518695504870825e-03 0.0000000000000000e+00  2.9140516166755265e+01 -1.1662749744910110e-03 0.0000000000000000e+00  2.9152674195198358e+01 0.0000000000000000e+00 0.0000000000000000e+00  3.9724774974247673e+01 0.0000000000000000e+00 0.0000000000000000e+00  3.9719627636349117e+01 6.5967651497420478e-03 0.0000000000000000e+00  3.9703666749822688e+01 -4.5916752983803820e-03 0.0000000000000000e+00  3.9702066995913015e+01 -2.5065882996469831e-03 0.0000000000000000e+00  3.9702998956346875e+01 -3.6793066594016906e-03 0.0000000000000000e+00  3.9706208263594334e+01 -3.7134047985076407e-03 0.0000000000000000e+00  3.9709403891396093e+01 -5.3306991183421767e-03 0.0000000000000000e+00  3.9714036176318800e+01 -4.8940525533005532e-03 0.0000000000000000e+00  3.9719953735224081e+01 -4.2005642091017641e-03 0.0000000000000000e+00  3.9724857352055935e+01 -1.6886465301664164e-03 0.0000000000000000e+00  3.9728586754215748e+01 -8.9032082170229209e-05 0.0000000000000000e+00  3.9730741007985486e+01 1.6669514525321459e-03 0.0000000000000000e+00  3.9732146770630756e+01 2.3077297377316411e-03 0.0000000000000000e+00  3.9732755779367352e+01 2.9066467105363929e-03 0.0000000000000000e+00  3.9733197192447257e+01 2.9733457593618079e-03 0.0000000000000000e+00  3.9733337908965716e+01 3.1413331571008354e-03 0.0000000000000000e+00  3.9733525242939550e+01 3.1046487339249939e-03 0.0000000000000000e+00  3.9733586460580476e+01 3.1689616943213548e-03 0.0000000000000000e+00  3.9733715075172263e+01 3.1419513685259060e-03 0.0000000000000000e+00  3.9733776240670771e+01 3.1811141555767399e-03 0.0000000000000000e+00  3.9733882028279517e+01 3.1758730398471460e-03 0.0000000000000000e+00  3.9733942804209931e+01 3.2085072966055758e-03 0.0000000000000000e+00  3.9734023311276353e+01 3.2166796892920532e-03 0.0000000000000000e+00  3.9734070385718901e+01 3.2423122770816638e-03 0.0000000000000000e+00  3.9734122542090475e+01 3.2524626901555367e-03 0.0000000000000000e+00  3.9734151961280631e+01 3.2688703047615633e-03 0.0000000000000000e+00  3.9734181444920878e+01 3.2758256777355413e-03 0.0000000000000000e+00  3.9734197670381462e+01 3.2846436342598051e-03 0.0000000000000000e+00  3.9734213221165000e+01 3.2883807663240637e-03 0.0000000000000000e+00  3.9734221959867959e+01 3.2926392691415536e-03 0.0000000000000000e+00  3.9734230220428543e+01 3.2944427262175573e-03 0.0000000000000000e+00  3.9734235242402796e+01 3.2963650904269445e-03 0.0000000000000000e+00  3.9734239993946417e+01 3.2971521970206179e-03 0.0000000000000000e+00  3.9734243303063721e+01 3.2979292508468687e-03 0.0000000000000000e+00  3.9734246508607448e+01 3.2982052796989196e-03 0.0000000000000000e+00  3.9734249149839627e+01 3.2984751077994898e-03 0.0000000000000000e+00  3.9734251802091691e+01 3.2985738143399808e-03 0.0000000000000000e+00  3.9734254279499645e+01 3.2987240747258135e-03 0.0000000000000000e+00  3.9734256796457359e+01 3.2988842987262770e-03 0.0000000000000000e+00  3.9734259249020916e+01 3.2991565730849512e-03 0.0000000000000000e+00  3.9734261672514556e+01 3.2995342736228325e-03 0.0000000000000000e+00  3.9734263965761500e+01 3.3000522751868468e-03 0.0000000000000000e+00  3.9734266071198810e+01 3.3006901671485274e-03 0.0000000000000000e+00  3.9734267881677788e+01 3.3014281991942339e-03 0.0000000000000000e+00  3.9734269319102737e+01 3.3022170097869825e-03 0.0000000000000000e+00  3.9734270311010775e+01 3.3030052489543800e-03 0.0000000000000000e+00  3.9734270824899710e+01 3.3037367170093970e-03 0.0000000000000000e+00  3.9734270860072648e+01 3.3043660168111063e-03 0.0000000000000000e+00  3.9734270454556118e+01 3.3048604074646997e-03 0.0000000000000000e+00  3.9734269673650189e+01 3.3052048465243974e-03 0.0000000000000000e+00  3.9734268602579412e+01 3.3053998954652155e-03 0.0000000000000000e+00  3.9734267333730124e+01 3.3054594732267279e-03 0.0000000000000000e+00  3.9734265957513472e+01 3.3054060667296169e-03 0.0000000000000000e+00  3.9734264554134278e+01 3.3052665529088054e-03 0.0000000000000000e+00  3.9734263189124256e+01 3.3050681885162430e-03 0.0000000000000000e+00  3.9734261911195262e+01 3.3048358936675249e-03 0.0000000000000000e+00  3.9734260752630732e+01 3.3045904887350733e-03 0.0000000000000000e+00  3.9734259731073308e+01 3.3043480610664318e-03 0.0000000000000000e+00  3.9734258852248026e+01 3.3041199140152692e-03 0.0000000000000000e+00  3.9734258112914752e+01 3.3039132441170199e-03 0.0000000000000000e+00  3.9734257503656366e+01 3.3037316492116999e-03 0.0000000000000000e+00  3.9734257011409291e+01 3.3035763997967408e-03 0.0000000000000000e+00  3.9734256621178240e+01 3.3034464251144808e-03 0.0000000000000000e+00  3.9734256317946979e+01 3.3033403604537555e-03 0.0000000000000000e+00  3.9734256086719711e+01 3.3032545174722606e-03 0.0000000000000000e+00  3.9734255914788164e+01 3.3031879776856663e-03 0.0000000000000000e+00  3.9734255789217627e+01 3.3031352234702237e-03 0.0000000000000000e+00  3.9734255704045857e+01 3.3030963574401852e-03 0.0000000000000000e+00  3.9734255653289388e+01 3.3030574124719965e-03 0.0000000000000000e+00  3.9734255651135278e+01 3.3030218454998834e-03 0.0000000000000000e+00  3.9734255713635271e+01 3.3029979524188723e-03 0.0000000000000000e+00  3.9734255974051763e+01 3.3029371546079572e-03 0.0000000000000000e+00  3.9734256755187431e+01 3.3024013354628541e-03 0.0000000000000000e+00  3.9734259369925532e+01 3.3006799950113996e-03 0.0000000000000000e+00  3.9734268394265143e+01 3.2956973977215087e-03 0.0000000000000000e+00  3.9734291162308573e+01 3.2863513714548541e-03 0.0000000000000000e+00  3.9734347686269807e+01 3.2363550821680447e-03 0.0000000000000000e+00  3.9734565488291899e+01 3.0645193317366311e-03 0.0000000000000000e+00  3.9735201815235712e+01 2.7061074874267879e-03 0.0000000000000000e+00  3.9735558164264638e+01 1.2624396732348981e-03 0.0000000000000000e+00  3.9727904425875529e+01 0.0000000000000000e+00 0.0000000000000000e+00  4.1252761011055647e+01 0.0000000000000000e+00 0.0000000000000000e+00  4.1263389613250737e+01 -5.8079644617447497e-03 0.0000000000000000e+00  4.1264616083215046e+01 1.1868329009384776e-04 0.0000000000000000e+00  4.1261614893033872e+01 5.3331296944366009e-04 0.0000000000000000e+00  4.1255212684755044e+01 -1.0412083305472580e-03 0.0000000000000000e+00  4.1246910612264003e+01 -1.9019652608368504e-03 0.0000000000000000e+00  4.1237221959324714e+01 -3.4225126831823440e-03 0.0000000000000000e+00  4.1227674913992729e+01 -5.4898159455352780e-03 0.0000000000000000e+00  4.1218794215228414e+01 -5.3786986635025518e-03 0.0000000000000000e+00  4.1213059688292198e+01 -4.3072992695866114e-03 0.0000000000000000e+00  4.1208971846272355e+01 -2.2497889584941724e-03 0.0000000000000000e+00  4.1207074320275872e+01 -1.0122591801465209e-03 0.0000000000000000e+00  4.1205756092982227e+01 5.6607982867504915e-05 0.0000000000000000e+00  4.1205355821186899e+01 4.2258750726265092e-04 0.0000000000000000e+00  4.1204913887683105e+01 7.3540893235123268e-04 0.0000000000000000e+00  4.1204822542571144e+01 7.7149439987296488e-04 0.0000000000000000e+00  4.1204579614297671e+01 8.5787799451594187e-04 0.0000000000000000e+00  4.1204509192947768e+01 8.4232708458408976e-04 0.0000000000000000e+00  4.1204326526009638e+01 8.7667610445653354e-04 0.0000000000000000e+00  4.1204248050554796e+01 8.6858103911154874e-04 0.0000000000000000e+00  4.1204107518781555e+01 8.9392959363615760e-04 0.0000000000000000e+00  4.1204037431318390e+01 9.0021209913955134e-04 0.0000000000000000e+00  4.1203940714487480e+01 9.2410165306044858e-04 0.0000000000000000e+00  4.1203891889223193e+01 9.3651989097754003e-04 0.0000000000000000e+00  4.1203833913544571e+01 9.5511805376558240e-04 0.0000000000000000e+00  4.1203805388891730e+01 9.6555456536807742e-04 0.0000000000000000e+00  4.1203773863213733e+01 9.7699485025580404e-04 0.0000000000000000e+00  4.1203758353421136e+01 9.8327383427392013e-04 0.0000000000000000e+00  4.1203741656131470e+01 9.8924271420413007e-04 0.0000000000000000e+00  4.1203732880948742e+01 9.9244933606673245e-04 0.0000000000000000e+00  4.1203723567293977e+01 9.9529487502475781e-04 0.0000000000000000e+00  4.1203717925233725e+01 9.9680264936647008e-04 0.0000000000000000e+00  4.1203712023287743e+01 9.9806263871633077e-04 0.0000000000000000e+00  4.1203707702194436e+01 9.9868995109299980e-04 0.0000000000000000e+00  4.1203703216662426e+01 9.9916987387699968e-04 0.0000000000000000e+00  4.1203699345127880e+01 9.9937711591670123e-04 0.0000000000000000e+00  4.1203695374767818e+01 9.9953839805308996e-04 0.0000000000000000e+00  4.1203691662979267e+01 9.9963089962739238e-04 0.0000000000000000e+00  4.1203687981580380e+01 9.9976561787229793e-04 0.0000000000000000e+00  4.1203684545303510e+01 9.9995253858094733e-04 0.000000