<?xml version="1.0"?>
<VTKFile type="UnstructuredGrid"  version="0.1"  >
<UnstructuredGrid>
<Piece  NumberOfPoints="1369" NumberOfCells="2560">
<Points>
<DataArray  type="Float64"  NumberOfComponents="3"  format="ascii">0 0 0  0.75 0 0  1.5 0 0  2.25 0 0  3 0 0  3.75 0 0  4.5 0 0  5.25 0 0  6 0 0  6.75 0 0  7.5 0 0  8.25 0 0  9 0 0  9.75 0 0  10.5 0 0  11.25 0 0  12 0 0  12.75 0 0  13.5 0 0  14.25 0 0  15 0 0  15.75 0 0  16.5 0 0  17.25 0 0  18 0 0  18.75 0 0  19.5 0 0  20.25 0 0  21 0 0  21.75 0 0  22.5 0 0  23.25 0 0  24 0 0  24.75 0 0  25.5 0 0  26.25 0 0  27 0 0  27.75 0 0  28.5 0 0  29.25 0 0  30 0 0  30.75 0 0  31.5 0 0  32.25 0 0  33 0 0  33.75 0 0  34.5 0 0  35.25 0 0  36 0 0  36.75 0 0  37.5 0 0  38.25 0 0  39 0 0  39.75 0 0  40.5 0 0  41.25 0 0  42 0 0  42.75 0 0  43.5 0 0  44.25 0 0  45 0 0  45.75 0 0  46.5 0 0  47.25 0 0  48 0 0  48.75 0 0  49.5 0 0  50.25 0 0  51 0 0  51.75 0 0  52.5 0 0  53.25 0 0  54 0 0  54.75 0 0  55.5 0 0  56.25 0 0  57 0 0  57.75 0 0  58.5 0 0  59.25 0 0  60 0 0  0 0.5 0  0.75 0.5 0  1.5 0.5 0  2.25 0.5 0  3 0.5 0  3.75 0.5 0  4.5 0.5 0  5.25 0.5 0  6 0.5 0  6.75 0.5 0  7.5 0.5 0  8.25 0.5 0  9 0.5 0  9.75 0.5 0  10.5 0.5 0  11.25 0.5 0  12 0.5 0  12.75 0.5 0  13.5 0.5 0  14.25 0.5 0  15 0.5 0  15.75 0.5 0  16.5 0.5 0  17.25 0.5 0  18 0.5 0  18.75 0.5 0  19.5 0.5 0  20.25 0.5 0  21 0.5 0  21.75 0.5 0  22.5 0.5 0  23.25 0.5 0  24 0.5 0  24.75 0.5 0  25.5 0.5 0  26.25 0.5 0  27 0.5 0  27.75 0.5 0  28.5 0.5 0  29.25 0.5 0  30 0.5 0  30.75 0.5 0  31.5 0.5 0  32.25 0.5 0  33 0.5 0  33.75 0.5 0  34.5 0.5 0  35.25 0.5 0  36 0.5 0  36.75 0.5 0  37.5 0.5 0  38.25 0.5 0  39 0.5 0  39.75 0.5 0  40.5 0.5 0  41.25 0.5 0  42 0.5 0  42.75 0.5 0  43.5 0.5 0  44.25 0.5 0  45 0.5 0  45.75 0.5 0  46.5 0.5 0  47.25 0.5 0  48 0.5 0  48.75 0.5 0  49.5 0.5 0  50.25 0.5 0  51 0.5 0  51.75 0.5 0  52.5 0.5 0  53.25 0.5 0  54 0.5 0  54.75 0.5 0  55.5 0.5 0  56.25 0.5 0  57 0.5 0  57.75 0.5 0  58.5 0.5 0  59.25 0.5 0  60 0.5 0  0 1 0  0.75 1 0  1.5 1 0  2.25 1 0  3 1 0  3.75 1 0  4.5 1 0  5.25 1 0  6 1 0  6.75 1 0  7.5 1 0  8.25 1 0  9 1 0  9.75 1 0  10.5 1 0  11.25 1 0  12 1 0  12.75 1 0  13.5 1 0  14.25 1 0  15 1 0  15.75 1 0  16.5 1 0  17.25 1 0  18 1 0  18.75 1 0  19.5 1 0  20.25 1 0  21 1 0  21.75 1 0  22.5 1 0  23.25 1 0  24 1 0  24.75 1 0  25.5 1 0  26.25 1 0  27 1 0  27.75 1 0  28.5 1 0  29.25 1 0  30 1 0  30.75 1 0  31.5 1 0  32.25 1 0  33 1 0  33.75 1 0  34.5 1 0  35.25 1 0  36 1 0  36.75 1 0  37.5 1 0  38.25 1 0  39 1 0  39.75 1 0  40.5 1 0  41.25 1 0  42 1 0  42.75 1 0  43.5 1 0  44.25 1 0  45 1 0  45.75 1 0  46.5 1 0  47.25 1 0  48 1 0  48.75 1 0  49.5 1 0  50.25 1 0  51 1 0  51.75 1 0  52.5 1 0  53.25 1 0  54 1 0  54.75 1 0  55.5 1 0  56.25 1 0  57 1 0  57.75 1 0  58.5 1 0  59.25 1 0  60 1 0  0 1.5 0  0.75 1.5 0  1.5 1.5 0  2.25 1.5 0  3 1.5 0  3.75 1.5 0  4.5 1.5 0  5.25 1.5 0  6 1.5 0  6.75 1.5 0  7.5 1.5 0  8.25 1.5 0  9 1.5 0  9.75 1.5 0  10.5 1.5 0  11.25 1.5 0  12 1.5 0  12.75 1.5 0  13.5 1.5 0  14.25 1.5 0  15 1.5 0  15.75 1.5 0  16.5 1.5 0  17.25 1.5 0  18 1.5 0  18.75 1.5 0  19.5 1.5 0  20.25 1.5 0  21 1.5 0  21.75 1.5 0  22.5 1.5 0  23.25 1.5 0  24 1.5 0  24.75 1.5 0  25.5 1.5 0  26.25 1.5 0  27 1.5 0  27.75 1.5 0  28.5 1.5 0  29.25 1.5 0  30 1.5 0  30.75 1.5 0  31.5 1.5 0  32.25 1.5 0  33 1.5 0  33.75 1.5 0  34.5 1.5 0  35.25 1.5 0  36 1.5 0  36.75 1.5 0  37.5 1.5 0  38.25 1.5 0  39 1.5 0  39.75 1.5 0  40.5 1.5 0  41.25 1.5 0  42 1.5 0  42.75 1.5 0  43.5 1.5 0  44.25 1.5 0  45 1.5 0  45.75 1.5 0  46.5 1.5 0  47.25 1.5 0  48 1.5 0  48.75 1.5 0  49.5 1.5 0  50.25 1.5 0  51 1.5 0  51.75 1.5 0  52.5 1.5 0  53.25 1.5 0  54 1.5 0  54.75 1.5 0  55.5 1.5 0  56.25 1.5 0  57 1.5 0  57.75 1.5 0  58.5 1.5 0  59.25 1.5 0  60 1.5 0  0 2 0  0.75 2 0  1.5 2 0  2.25 2 0  3 2 0  3.75 2 0  4.5 2 0  5.25 2 0  6 2 0  6.75 2 0  7.5 2 0  8.25 2 0  9 2 0  9.75 2 0  10.5 2 0  11.25 2 0  12 2 0  12.75 2 0  13.5 2 0  14.25 2 0  15 2 0  15.75 2 0  16.5 2 0  17.25 2 0  18 2 0  18.75 2 0  19.5 2 0  20.25 2 0  21 2 0  21.75 2 0  22.5 2 0  23.25 2 0  24 2 0  24.75 2 0  25.5 2 0  26.25 2 0  27 2 0  27.75 2 0  28.5 2 0  29.25 2 0  30 2 0  30.75 2 0  31.5 2 0  32.25 2 0  33 2 0  33.75 2 0  34.5 2 0  35.25 2 0  36 2 0  36.75 2 0  37.5 2 0  38.25 2 0  39 2 0  39.75 2 0  40.5 2 0  41.25 2 0  42 2 0  42.75 2 0  43.5 2 0  44.25 2 0  45 2 0  45.75 2 0  46.5 2 0  47.25 2 0  48 2 0  48.75 2 0  49.5 2 0  50.25 2 0  51 2 0  51.75 2 0  52.5 2 0  53.25 2 0  54 2 0  54.75 2 0  55.5 2 0  56.25 2 0  57 2 0  57.75 2 0  58.5 2 0  59.25 2 0  60 2 0  0 2.5 0  0.75 2.5 0  1.5 2.5 0  2.25 2.5 0  3 2.5 0  3.75 2.5 0  4.5 2.5 0  5.25 2.5 0  6 2.5 0  6.75 2.5 0  7.5 2.5 0  8.25 2.5 0  9 2.5 0  9.75 2.5 0  10.5 2.5 0  11.25 2.5 0  12 2.5 0  12.75 2.5 0  13.5 2.5 0  14.25 2.5 0  15 2.5 0  15.75 2.5 0  16.5 2.5 0  17.25 2.5 0  18 2.5 0  18.75 2.5 0  19.5 2.5 0  20.25 2.5 0  21 2.5 0  21.75 2.5 0  22.5 2.5 0  23.25 2.5 0  24 2.5 0  24.75 2.5 0  25.5 2.5 0  26.25 2.5 0  27 2.5 0  27.75 2.5 0  28.5 2.5 0  29.25 2.5 0  30 2.5 0  30.75 2.5 0  31.5 2.5 0  32.25 2.5 0  33 2.5 0  33.75 2.5 0  34.5 2.5 0  35.25 2.5 0  36 2.5 0  36.75 2.5 0  37.5 2.5 0  38.25 2.5 0  39 2.5 0  39.75 2.5 0  40.5 2.5 0  41.25 2.5 0  42 2.5 0  42.75 2.5 0  43.5 2.5 0  44.25 2.5 0  45 2.5 0  45.75 2.5 0  46.5 2.5 0  47.25 2.5 0  48 2.5 0  48.75 2.5 0  49.5 2.5 0  50.25 2.5 0  51 2.5 0  51.75 2.5 0  52.5 2.5 0  53.25 2.5 0  54 2.5 0  54.75 2.5 0  55.5 2.5 0  56.25 2.5 0  57 2.5 0  57.75 2.5 0  58.5 2.5 0  59.25 2.5 0  60 2.5 0  0 3 0  0.75 3 0  1.5 3 0  2.25 3 0  3 3 0  3.75 3 0  4.5 3 0  5.25 3 0  6 3 0  6.75 3 0  7.5 3 0  8.25 3 0  9 3 0  9.75 3 0  10.5 3 0  11.25 3 0  12 3 0  12.75 3 0  13.5 3 0  14.25 3 0  15 3 0  15.75 3 0  16.5 3 0  17.25 3 0  18 3 0  18.75 3 0  19.5 3 0  20.25 3 0  21 3 0  21.75 3 0  22.5 3 0  23.25 3 0  24 3 0  24.75 3 0  25.5 3 0  26.25 3 0  27 3 0  27.75 3 0  28.5 3 0  29.25 3 0  30 3 0  30.75 3 0  31.5 3 0  32.25 3 0  33 3 0  33.75 3 0  34.5 3 0  35.25 3 0  36 3 0  36.75 3 0  37.5 3 0  38.25 3 0  39 3 0  39.75 3 0  40.5 3 0  41.25 3 0  42 3 0  42.75 3 0  43.5 3 0  44.25 3 0  45 3 0  45.75 3 0  46.5 3 0  47.25 3 0  48 3 0  48.75 3 0  49.5 3 0  50.25 3 0  51 3 0  51.75 3 0  52.5 3 0  53.25 3 0  54 3 0  54.75 3 0  55.5 3 0  56.25 3 0  57 3 0  57.75 3 0  58.5 3 0  59.25 3 0  60 3 0  0 3.5 0  0.75 3.5 0  1.5 3.5 0  2.25 3.5 0  3 3.5 0  3.75 3.5 0  4.5 3.5 0  5.25 3.5 0  6 3.5 0  6.75 3.5 0  7.5 3.5 0  8.25 3.5 0  9 3.5 0  9.75 3.5 0  10.5 3.5 0  11.25 3.5 0  12 3.5 0  12.75 3.5 0  13.5 3.5 0  14.25 3.5 0  15 3.5 0  15.75 3.5 0  16.5 3.5 0  17.25 3.5 0  18 3.5 0  18.75 3.5 0  19.5 3.5 0  20.25 3.5 0  21 3.5 0  21.75 3.5 0  22.5 3.5 0  23.25 3.5 0  24 3.5 0  24.75 3.5 0  25.5 3.5 0  26.25 3.5 0  27 3.5 0  27.75 3.5 0  28.5 3.5 0  29.25 3.5 0  30 3.5 0  30.75 3.5 0  31.5 3.5 0  32.25 3.5 0  33 3.5 0  33.75 3.5 0  34.5 3.5 0  35.25 3.5 0  36 3.5 0  36.75 3.5 0  37.5 3.5 0  38.25 3.5 0  39 3.5 0  39.75 3.5 0  40.5 3.5 0  41.25 3.5 0  42 3.5 0  42.75 3.5 0  43.5 3.5 0  44.25 3.5 0  45 3.5 0  45.75 3.5 0  46.5 3.5 0  47.25 3.5 0  48 3.5 0  48.75 3.5 0  49.5 3.5 0  50.25 3.5 0  51 3.5 0  51.75 3.5 0  52.5 3.5 0  53.25 3.5 0  54 3.5 0  54.75 3.5 0  55.5 3.5 0  56.25 3.5 0  57 3.5 0  57.75 3.5 0  58.5 3.5 0  59.25 3.5 0  60 3.5 0  0 4 0  0.75 4 0  1.5 4 0  2.25 4 0  3 4 0  3.75 4 0  4.5 4 0  5.25 4 0  6 4 0  6.75 4 0  7.5 4 0  8.25 4 0  9 4 0  9.75 4 0  10.5 4 0  11.25 4 0  12 4 0  12.75 4 0  13.5 4 0  14.25 4 0  15 4 0  15.75 4 0  16.5 4 0  17.25 4 0  18 4 0  18.75 4 0  19.5 4 0  20.25 4 0  21 4 0  21.75 4 0  22.5 4 0  23.25 4 0  24 4 0  24.75 4 0  25.5 4 0  26.25 4 0  27 4 0  27.75 4 0  28.5 4 0  29.25 4 0  30 4 0  30.75 4 0  31.5 4 0  32.25 4 0  33 4 0  33.75 4 0  34.5 4 0  35.25 4 0  36 4 0  36.75 4 0  37.5 4 0  38.25 4 0  39 4 0  39.75 4 0  40.5 4 0  41.25 4 0  42 4 0  42.75 4 0  43.5 4 0  44.25 4 0  45 4 0  45.75 4 0  46.5 4 0  47.25 4 0  48 4 0  48.75 4 0  49.5 4 0  50.25 4 0  51 4 0  51.75 4 0  52.5 4 0  53.25 4 0  54 4 0  54.75 4 0  55.5 4 0  56.25 4 0  57 4 0  57.75 4 0  58.5 4 0  59.25 4 0  60 4 0  0.375 0.25 0  1.125 0.25 0  1.875 0.25 0  2.625 0.25 0  3.375 0.25 0  4.125 0.25 0  4.875 0.25 0  5.625 0.25 0  6.375 0.25 0  7.125 0.25 0  7.875 0.25 0  8.625 0.25 0  9.375 0.25 0  10.125 0.25 0  10.875 0.25 0  11.625 0.25 0  12.375 0.25 0  13.125 0.25 0  13.875 0.25 0  14.625 0.25 0  15.375 0.25 0  16.125 0.25 0  16.875 0.25 0  17.625 0.25 0  18.375 0.25 0  19.125 0.25 0  19.875 0.25 0  20.625 0.25 0  21.375 0.25 0  22.125 0.25 0  22.875 0.25 0  23.625 0.25 0  24.375 0.25 0  25.125 0.25 0  25.875 0.25 0  26.625 0.25 0  27.375 0.25 0  28.125 0.25 0  28.875 0.25 0  29.625 0.25 0  30.375 0.25 0  31.125 0.25 0  31.875 0.25 0  32.625 0.25 0  33.375 0.25 0  34.125 0.25 0  34.875 0.25 0  35.625 0.25 0  36.375 0.25 0  37.125 0.25 0  37.875 0.25 0  38.625 0.25 0  39.375 0.25 0  40.125 0.25 0  40.875 0.25 0  41.625 0.25 0  42.375 0.25 0  43.125 0.25 0  43.875 0.25 0  44.625 0.25 0  45.375 0.25 0  46.125 0.25 0  46.875 0.25 0  47.625 0.25 0  48.375 0.25 0  49.125 0.25 0  49.875 0.25 0  50.625 0.25 0  51.375 0.25 0  52.125 0.25 0  52.875 0.25 0  53.625 0.25 0  54.375 0.25 0  55.125 0.25 0  55.875 0.25 0  56.625 0.25 0  57.375 0.25 0  58.125 0.25 0  58.875 0.25 0  59.625 0.25 0  0.375 0.75 0  1.125 0.75 0  1.875 0.75 0  2.625 0.75 0  3.375 0.75 0  4.125 0.75 0  4.875 0.75 0  5.625 0.75 0  6.375 0.75 0  7.125 0.75 0  7.875 0.75 0  8.625 0.75 0  9.375 0.75 0  10.125 0.75 0  10.875 0.75 0  11.625 0.75 0  12.375 0.75 0  13.125 0.75 0  13.875 0.75 0  14.625 0.75 0  15.375 0.75 0  16.125 0.75 0  16.875 0.75 0  17.625 0.75 0  18.375 0.75 0  19.125 0.75 0  19.875 0.75 0  20.625 0.75 0  21.375 0.75 0  22.125 0.75 0  22.875 0.75 0  23.625 0.75 0  24.375 0.75 0  25.125 0.75 0  25.875 0.75 0  26.625 0.75 0  27.375 0.75 0  28.125 0.75 0  28.875 0.75 0  29.625 0.75 0  30.375 0.75 0  31.125 0.75 0  31.875 0.75 0  32.625 0.75 0  33.375 0.75 0  34.125 0.75 0  34.875 0.75 0  35.625 0.75 0  36.375 0.75 0  37.125 0.75 0  37.875 0.75 0  38.625 0.75 0  39.375 0.75 0  40.125 0.75 0  40
[...]
<PointData  Vectors="f_8-0"> 
<DataArray  type="Float64"  Name="f_8-0"  NumberOfComponents="3" format="ascii">0.0000000000000000e+00 0.0000000000000000e+00 0.0000000000000000e+00  0.0000000000000000e+00 0.0000000000000000e+00 0.0000000000000000e+00  0.0000000000000000e+00 0.0000000000000000e+00 0.0000000000000000e+00  0.0000000000000000e+00 0.0000000000000000e+00 0.0000000000000000e+00  0.0000000000000000e+00 0.0000000000000000e+00 0.0000000000000000e+00  0.0000000000000000e+00 0.0000000000000000e+00 0.0000000000000000e+00  0.0000000000000000e+00 0.0000000000000000e+00 0.0000000000000000e+00  0.0000000000000000e+00 0.0000000000000000e+00 0.0000000000000000e+00  0.0000000000000000e+00 0.0000000000000000e+00 0.0000000000000000e+00  0.0000000000000000e+00 0.0000000000000000e+00 0.0000000000000000e+00  0.0000000000000000e+00 0.0000000000000000e+00 0.0000000000000000e+00  0.0000000000000000e+00 0.0000000000000000e+00 0.0000000000000000e+00  0.0000000000000000e+00 0.0000000000000000e+00 0.0000000000000000e+00  0.0000000000000000e+00 0.0000000000000000e+00 0.0000000000000000e+00  0.0000000000000000e+00 0.0000000000000000e+00 0.0000000000000000e+00  0.0000000000000000e+00 0.0000000000000000e+00 0.0000000000000000e+00  0.0000000000000000e+00 0.0000000000000000e+00 0.0000000000000000e+00  0.0000000000000000e+00 0.0000000000000000e+00 0.0000000000000000e+00  0.0000000000000000e+00 0.0000000000000000e+00 0.0000000000000000e+00  0.0000000000000000e+00 0.0000000000000000e+00 0.0000000000000000e+00  0.0000000000000000e+00 0.0000000000000000e+00 0.0000000000000000e+00  0.0000000000000000e+00 0.0000000000000000e+00 0.0000000000000000e+00  0.0000000000000000e+00 0.0000000000000000e+00 0.0000000000000000e+00  0.0000000000000000e+00 0.0000000000000000e+00 0.0000000000000000e+00  0.0000000000000000e+00 0.0000000000000000e+00 0.0000000000000000e+00  0.0000000000000000e+00 0.0000000000000000e+00 0.0000000000000000e+00  0.0000000000000000e+00 0.0000000000000000e+00 0.0000000000000000e+00  0.0000000000000000e+00 0.0000000000000000e+00 0.0000000000000000e+00  0.0000000000000000e+00 0.0000000000000000e+00 0.0000000000000000e+00  0.0000000000000000e+00 0.0000000000000000e+00 0.0000000000000000e+00  0.0000000000000000e+00 0.0000000000000000e+00 0.0000000000000000e+00  0.0000000000000000e+00 0.0000000000000000e+00 0.0000000000000000e+00  0.0000000000000000e+00 0.0000000000000000e+00 0.0000000000000000e+00  0.0000000000000000e+00 0.0000000000000000e+00 0.0000000000000000e+00  0.0000000000000000e+00 0.0000000000000000e+00 0.0000000000000000e+00  0.0000000000000000e+00 0.0000000000000000e+00 0.0000000000000000e+00  0.0000000000000000e+00 0.0000000000000000e+00 0.0000000000000000e+00  0.0000000000000000e+00 0.0000000000000000e+00 0.0000000000000000e+00  0.0000000000000000e+00 0.0000000000000000e+00 0.0000000000000000e+00  0.0000000000000000e+00 0.0000000000000000e+00 0.0000000000000000e+00  0.0000000000000000e+00 0.0000000000000000e+00 0.0000000000000000e+00  0.0000000000000000e+00 0.0000000000000000e+00 0.0000000000000000e+00  0.0000000000000000e+00 0.0000000000000000e+00 0.0000000000000000e+00  0.0000000000000000e+00 0.0000000000000000e+00 0.0000000000000000e+00  0.0000000000000000e+00 0.0000000000000000e+00 0.0000000000000000e+00  0.0000000000000000e+00 0.0000000000000000e+00 0.0000000000000000e+00  0.0000000000000000e+00 0.0000000000000000e+00 0.0000000000000000e+00  0.0000000000000000e+00 0.0000000000000000e+00 0.0000000000000000e+00  0.0000000000000000e+00 0.0000000000000000e+00 0.0000000000000000e+00  0.0000000000000000e+00 0.0000000000000000e+00 0.0000000000000000e+00  0.0000000000000000e+00 0.0000000000000000e+00 0.0000000000000000e+00  0.0000000000000000e+00 0.0000000000000000e+00 0.0000000000000000e+00  0.0000000000000000e+00 0.0000000000000000e+00 0.0000000000000000e+00  0.0000000000000000e+00 0.0000000000000000e+00 0.0000000000000000e+00  0.0000000000000000e+00 0.0000000000000000e+00 0.0000000000000000e+00  0.0000000000000000e+00 0.0000000000000000e+00 0.0000000000000000e+00  0.0000000000000000e+00 0.0000000000000000e+00 0.0000000000000000e+00  0.0000000000000000e+00 0.0000000000000000e+00 0.0000000000000000e+00  0.0000000000000000e+00 0.0000000000000000e+00 0.0000000000000000e+00  0.0000000000000000e+00 0.0000000000000000e+00 0.0000000000000000e+00  0.0000000000000000e+00 0.0000000000000000e+00 0.0000000000000000e+00  0.0000000000000000e+00 0.0000000000000000e+00 0.0000000000000000e+00  0.0000000000000000e+00 0.0000000000000000e+00 0.0000000000000000e+00  0.0000000000000000e+00 0.0000000000000000e+00 0.0000000000000000e+00  0.0000000000000000e+00 0.0000000000000000e+00 0.0000000000000000e+00  0.0000000000000000e+00 0.0000000000000000e+00 0.0000000000000000e+00  0.0000000000000000e+00 0.0000000000000000e+00 0.0000000000000000e+00  0.0000000000000000e+00 0.0000000000000000e+00 0.0000000000000000e+00  0.0000000000000000e+00 0.0000000000000000e+00 0.0000000000000000e+00  0.0000000000000000e+00 0.0000000000000000e+00 0.0000000000000000e+00  0.0000000000000000e+00 0.0000000000000000e+00 0.0000000000000000e+00  0.0000000000000000e+00 0.0000000000000000e+00 0.0000000000000000e+00  0.0000000000000000e+00 0.0000000000000000e+00 0.0000000000000000e+00  0.0000000000000000e+00 0.0000000000000000e+00 0.0000000000000000e+00  0.0000000000000000e+00 0.0000000000000000e+00 0.0000000000000000e+00  0.0000000000000000e+00 0.0000000000000000e+00 0.0000000000000000e+00  0.0000000000000000e+00 0.0000000000000000e+00 0.0000000000000000e+00  0.0000000000000000e+00 0.0000000000000000e+00 0.0000000000000000e+00  0.0000000000000000e+00 0.0000000000000000e+00 0.0000000000000000e+00  0.0000000000000000e+00 0.0000000000000000e+00 0.0000000000000000e+00  0.0000000000000000e+00 0.0000000000000000e+00 0.0000000000000000e+00  2.6486828543595514e+01 0.0000000000000000e+00 0.0000000000000000e+00  2.6479999588208134e+01 5.9118103669714601e-02 0.0000000000000000e+00  2.6499949465878775e+01 3.6785608848723866e-02 0.0000000000000000e+00  2.6475173499845475e+01 9.6409950199743376e-03 0.0000000000000000e+00  2.6468069824586426e+01 5.3018039949726736e-03 0.0000000000000000e+00  2.6468612011644588e+01 2.1367651942500094e-03 0.0000000000000000e+00  2.6468766438746588e+01 3.8643160418932771e-03 0.0000000000000000e+00  2.6469876509365069e+01 3.5626661488467981e-03 0.0000000000000000e+00  2.6469518987260155e+01 3.8464169265821301e-03 0.0000000000000000e+00  2.6469919468968417e+01 3.7784453503741256e-03 0.0000000000000000e+00  2.6469730701088487e+01 3.8183870551078713e-03 0.0000000000000000e+00  2.6469863131343761e+01 3.8069504216087869e-03 0.0000000000000000e+00  2.6469803912240923e+01 3.8137761766498706e-03 0.0000000000000000e+00  2.6469839159010800e+01 3.8116822340523086e-03 0.0000000000000000e+00  2.6469825059021531e+01 3.8131374031857993e-03 0.0000000000000000e+00  2.6469832919876350e+01 3.8127090212693670e-03 0.0000000000000000e+00  2.6469830132698448e+01 3.8130378691689551e-03 0.0000000000000000e+00  2.6469831688735013e+01 3.8129534412461672e-03 0.0000000000000000e+00  2.6469831210815386e+01 3.8130246774968016e-03 0.0000000000000000e+00  2.6469831497362186e+01 3.8130101058888996e-03 0.0000000000000000e+00  2.6469831425587920e+01 3.8130247453872610e-03 0.0000000000000000e+00  2.6469831476643069e+01 3.8130227187074903e-03 0.0000000000000000e+00  2.6469831467608351e+01 3.8130256318256138e-03 0.0000000000000000e+00  2.6469831476738328e+01 3.8130254726117872e-03 0.0000000000000000e+00  2.6469831475999296e+01 3.8130260543722040e-03 0.0000000000000000e+00  2.6469831477692452e+01 3.8130260822717920e-03 0.0000000000000000e+00  2.6469831477748940e+01 3.8130262028948400e-03 0.0000000000000000e+00  2.6469831478079655e+01 3.8130262208198066e-03 0.0000000000000000e+00  2.6469831478128270e+01 3.8130262449827274e-03 0.0000000000000000e+00  2.6469831478200778e+01 3.8130262478034082e-03 0.0000000000000000e+00  2.6469831478221298e+01 3.8130262582277670e-03 0.0000000000000000e+00  2.6469831478237246e+01 3.8130262589784313e-03 0.0000000000000000e+00  2.6469831478246647e+01 3.8130262603771549e-03 0.0000000000000000e+00  2.6469831478251713e+01 3.8130262606483703e-03 0.0000000000000000e+00  2.6469831478254747e+01 3.8130262633009407e-03 0.0000000000000000e+00  2.6469831478253877e+01 3.8130262609592639e-03 0.0000000000000000e+00  2.6469831478254292e+01 3.8130262607410782e-03 0.0000000000000000e+00  2.6469831478254576e+01 3.8130262607719654e-03 0.0000000000000000e+00  2.6469831478256278e+01 3.8130262615188011e-03 0.0000000000000000e+00  2.6469831478255884e+01 3.8130262624251261e-03 0.0000000000000000e+00  2.6469831478257380e+01 3.8130262585304715e-03 0.0000000000000000e+00  2.6469831478259902e+01 3.8130262611374937e-03 0.0000000000000000e+00  2.6469831478260662e+01 3.8130262598518073e-03 0.0000000000000000e+00  2.6469831478262478e+01 3.8130262608914657e-03 0.0000000000000000e+00  2.6469831478268159e+01 3.8130262560055264e-03 0.0000000000000000e+00  2.6469831478277385e+01 3.8130262570879696e-03 0.0000000000000000e+00  2.6469831478302154e+01 3.8130262387835062e-03 0.0000000000000000e+00  2.6469831478348212e+01 3.8130262353391806e-03 0.0000000000000000e+00  2.6469831478447457e+01 3.8130261732860406e-03 0.0000000000000000e+00  2.6469831478651340e+01 3.8130261253091578e-03 0.0000000000000000e+00  2.6469831479067611e+01 3.8130259142644483e-03 0.0000000000000000e+00  2.6469831479939586e+01 3.8130256433209779e-03 0.0000000000000000e+00  2.6469831481699334e+01 3.8130248634359646e-03 0.0000000000000000e+00  2.6469831485357293e+01 3.8130235852237011e-03 0.0000000000000000e+00  2.6469831492701424e+01 3.8130205807113660e-03 0.0000000000000000e+00  2.6469831507809118e+01 3.8130149876084425e-03 0.0000000000000000e+00  2.6469831538187300e+01 3.8130029083409444e-03 0.0000000000000000e+00  2.6469831600361648e+01 3.8129788922132164e-03 0.0000000000000000e+00  2.6469831726235412e+01 3.8129281424508486e-03 0.0000000000000000e+00  2.6469831985367680e+01 3.8128223497936875e-03 0.0000000000000000e+00  2.6469832520390835e+01 3.8125935894990329e-03 0.0000000000000000e+00  2.6469833653529438e+01 3.8120883773317348e-03 0.0000000000000000e+00  2.6469836112818324e+01 3.8109348957031442e-03 0.0000000000000000e+00  2.6469841662733611e+01 3.8082506456518120e-03 0.0000000000000000e+00  2.6469854557833269e+01 3.8020154075389524e-03 0.0000000000000000e+00  2.6469884938626734e+01 3.7879771684451963e-03 0.0000000000000000e+00  2.6469955257046440e+01 3.7583380690890881e-03 0.0000000000000000e+00  2.6470110449719282e+01 3.7014883061272852e-03 0.0000000000000000e+00  2.6470427115358163e+01 3.6063957691123815e-03 0.0000000000000000e+00  2.6471007783280466e+01 3.4755099421937643e-03 0.0000000000000000e+00  2.6471934010445786e+01 3.3436902158997792e-03 0.0000000000000000e+00  2.6473174692396100e+01 3.2774268609439159e-03 0.0000000000000000e+00  2.6474524205531061e+01 3.3281777930534661e-03 0.0000000000000000e+00  2.6475696636036876e+01 3.4859023375212956e-03 0.0000000000000000e+00  2.6476464249825625e+01 3.7433074399970141e-03 0.0000000000000000e+00  2.6476569427590793e+01 4.1685595385652788e-03 0.0000000000000000e+00  2.6475546808065378e+01 4.8484228687612676e-03 0.0000000000000000e+00  2.6472630448604995e+01 5.7885078033768963e-03 0.0000000000000000e+00  2.6466279310239475e+01 6.5931932142740792e-03 0.0000000000000000e+00  2.6451440673154906e+01 4.9121279018453897e-03 0.0000000000000000e+00  2.6433629956755919e+01 0.0000000000000000e+00 0.0000000000000000e+00  2.7898338893199824e+01 0.0000000000000000e+00 0.0000000000000000e+00  2.7835978334978194e+01 -1.4509754144200346e-02 0.0000000000000000e+00  2.7879819608966432e+01 8.2186862805992463e-03 0.0000000000000000e+00  2.7898501680810533e+01 4.9511189988202314e-03 0.0000000000000000e+00  2.7908981410127002e+01 1.3387972364605637e-03 0.0000000000000000e+00  2.7907218927183784e+01 -4.9331132947339710e-04 0.0000000000000000e+00  2.7907854994343268e+01 2.1259160669508229e-04 0.0000000000000000e+00  2.7907486760760374e+01 2.4380917109807380e-04 0.0000000000000000e+00  2.7907839639463571e+01 6.0271042025533412e-04 0.0000000000000000e+00  2.7907689051844425e+01 5.1192749931123637e-04 0.0000000000000000e+00  2.7907829904288668e+01 6.1140062214665050e-04 0.0000000000000000e+00  2.7907766791888463e+01 5.7849686594225482e-04 0.0000000000000000e+00  2.7907812841617229e+01 6.0251849299065017e-04 0.0000000000000000e+00  2.7907793582580638e+01 5.9535509125811955e-04 0.0000000000000000e+00  2.7907805913527817e+01 6.0038351730051440e-04 0.0000000000000000e+00  2.7907801282880030e+01 5.9922826248108617e-04 0.0000000000000000e+00  2.7907804107232678e+01 6.0018957969675468e-04 0.0000000000000000e+00  2.7907803174663492e+01 6.0005754173864361e-04 0.0000000000000000e+00  2.7907803755066709e+01 6.0023561357025804e-04 0.0000000000000000e+00  2.7907803592836835e+01 6.0023187693739825e-04 0.0000000000000000e+00  2.7907803704350677e+01 6.0026555758090452e-04 0.0000000000000000e+00  2.7907803680048715e+01 6.0026931619677987e-04 0.0000000000000000e+00  2.7907803700811940e+01 6.0027605045905204e-04 0.0000000000000000e+00  2.7907803697920020e+01 6.0027768617120251e-04 0.0000000000000000e+00  2.7907803701802067e+01 6.0027913973822631e-04 0.0000000000000000e+00  2.7907803701645808e+01 6.0027964995143241e-04 0.0000000000000000e+00  2.7907803702392240e+01 6.0027998650834355e-04 0.0000000000000000e+00  2.7907803702446305e+01 6.0028012681921530e-04 0.0000000000000000e+00  2.7907803702589639e+01 6.0028020325461335e-04 0.0000000000000000e+00  2.7907803702614707e+01 6.0028023437997855e-04 0.0000000000000000e+00  2.7907803702651730e+01 6.0028026143498468e-04 0.0000000000000000e+00  2.7907803702659567e+01 6.0028026708632465e-04 0.0000000000000000e+00  2.7907803702666914e+01 6.0028027022530634e-04 0.0000000000000000e+00  2.7907803702674737e+01 6.0028027452207317e-04 0.0000000000000000e+00  2.7907803702682468e+01 6.0028027956095828e-04 0.0000000000000000e+00  2.7907803702681058e+01 6.0028027970498890e-04 0.0000000000000000e+00  2.7907803702680937e+01 6.0028027727247551e-04 0.0000000000000000e+00  2.7907803702679047e+01 6.0028027760353631e-04 0.0000000000000000e+00  2.7907803702679509e+01 6.0028027932863836e-04 0.0000000000000000e+00  2.7907803702679338e+01 6.0028027626473875e-04 0.0000000000000000e+00  2.7907803702679953e+01 6.0028027451778537e-04 0.0000000000000000e+00  2.7907803702686969e+01 6.0028027768354144e-04 0.0000000000000000e+00  2.7907803702687403e+01 6.0028027878737168e-04 0.0000000000000000e+00  2.7907803702686977e+01 6.0028027636432619e-04 0.0000000000000000e+00  2.7907803702685278e+01 6.0028027298790053e-04 0.0000000000000000e+00  2.7907803702685381e+01 6.0028026521064665e-04 0.0000000000000000e+00  2.7907803702689474e+01 6.0028024381107107e-04 0.0000000000000000e+00  2.7907803702696036e+01 6.0028022395783092e-04 0.0000000000000000e+00  2.7907803702709867e+01 6.0028013019305926e-04 0.0000000000000000e+00  2.7907803702735624e+01 6.0028002716600406e-04 0.0000000000000000e+00  2.7907803702803037e+01 6.0027966623349015e-04 0.0000000000000000e+00  2.7907803702916294e+01 6.0027916750072694e-04 0.0000000000000000e+00  2.7907803703204682e+01 6.0027775925883167e-04 0.0000000000000000e+00  2.7907803703724344e+01 6.0027549791332097e-04 0.0000000000000000e+00  2.7907803704941120e+01 6.0026998785822020e-04 0.0000000000000000e+00  2.7907803707183639e+01 6.0026012987282325e-04 0.0000000000000000e+00  2.7907803712082938e+01 6.0023807279457983e-04 0.0000000000000000e+00  2.7907803721277809e+01 6.0019582872992223e-04 0.0000000000000000e+00  2.7907803740117757e+01 6.0010464663235157e-04 0.0000000000000000e+00  2.7907803774842517e+01 5.9992089253905296e-04 0.0000000000000000e+00  2.7907803839481744e+01 5.9952325045062684e-04 0.0000000000000000e+00  2.7907803943525320e+01 5.9867541227521257e-04 0.0000000000000000e+00  2.7907804092106701e+01 5.9676185070085624e-04 0.0000000000000000e+00  2.7907804253703652e+01 5.9238191275816159e-04 0.0000000000000000e+00  2.7907804490596774e+01 5.8206271795596914e-04 0.0000000000000000e+00  2.7907805563307090e+01 5.5813770912604044e-04 0.0000000000000000e+00  2.7907811363368744e+01 5.0478965453532531e-04 0.0000000000000000e+00  2.7907835102911029e+01 3.9502296496506063e-04 0.0000000000000000e+00  2.7907911726996812e+01 1.9342832615454149e-04 0.0000000000000000e+00  2.7908110896049269e+01 -1.1841130906607297e-04 0.0000000000000000e+00  2.7908523318437449e+01 -4.8576783036180461e-04 0.0000000000000000e+00  2.7909177675422736e+01 -7.3694134381925786e-04 0.0000000000000000e+00  2.7909951294535009e+01 -6.9989403680661034e-04 0.0000000000000000e+00  2.7910685146354417e+01 -4.0806853591164940e-04 0.0000000000000000e+00  2.7911366063032499e+01 5.7138958735350089e-05 0.0000000000000000e+00  2.7911980697936453e+01 8.4834668184212067e-04 0.0000000000000000e+00  2.7912450200418547e+01 2.1590473504051952e-03 0.0000000000000000e+00  2.7912655161090647e+01 4.2257060475366743e-03 0.0000000000000000e+00  2.7912331648709110e+01 7.2774196616349675e-03 0.0000000000000000e+00  2.7912100111574187e+01 1.0950691632248398e-02 0.0000000000000000e+00  2.7915752493775411e+01 0.0000000000000000e+00 0.0000000000000000e+00  2.5212730316621602e+01 0.0000000000000000e+00 0.0000000000000000e+00  2.5207463191526728e+01 1.4400121103705921e-03 0.0000000000000000e+00  2.5204704143163372e+01 -6.5692236067977474e-03 0.0000000000000000e+00  2.5206414220203868e+01 -9.0145881968285778e-04 0.0000000000000000e+00  2.5205101071229638e+01 -2.2435530205324270e-03 0.0000000000000000e+00  2.5206211615059498e+01 -1.9617945822592410e-03 0.0000000000000000e+00  2.5204729905462948e+01 -2.0222790417015425e-03 0.0000000000000000e+00  2.5204872384066654e+01 -1.6691042274834969e-03 0.0000000000000000e+00  2.5204496392869633e+01 -1.6761138335597611e-03 0.0000000000000000e+00  2.5204581045107254e+01 -1.5628041998065536e-03 0.0000000000000000e+00  2.5204484002899235e+01 -1.5871155058505319e-03 0.0000000000000000e+00  2.5204512944370162e+01 -1.5553812000642959e-03 0.0000000000000000e+00  2.5204486782998430e+01 -1.5638493640627357e-03 0.0000000000000000e+00  2.5204494565222614e+01 -1.5557983929535637e-03 0.0000000000000000e+00  2.5204487938979607e+01 -1.5576785855756020e-03 0.0000000000000000e+00  2.5204489698328395e+01 -1.5558558707216067e-03 0.0000000000000000e+00  2.5204488157359574e+01 -1.5561603995278713e-03 0.0000000000000000e+00  2.5204488494561144e+01 -1.5557785975378493e-03 0.0000000000000000e+00  2.5204488160982102e+01 -1.5558094114015849e-03 0.0000000000000000e+00  2.5204488214233951e+01 -1.5557320665794767e-03 0.0000000000000000e+00  2.5204488145277526e+01 -1.5557303935587333e-03 0.0000000000000000e+00  2.5204488151219500e+01 -1.5557146384286773e-03 0.0000000000000000e+00  2.5204488137208521e+01 -1.5557125626343290e-03 0.0000000000000000e+00  2.5204488137168624e+01 -1.5557092444929367e-03 0.0000000000000000e+00  2.5204488134293339e+01 -1.5557084493172703e-03 0.0000000000000000e+00  2.5204488133997057e+01 -1.5557077092952086e-03 0.0000000000000000e+00  2.5204488133387791e+01 -1.5557074665084292e-03 0.0000000000000000e+00  2.5204488133261538e+01 -1.5557072905829194e-03 0.0000000000000000e+00  2.5204488133127228e+01 -1.5557072245439133e-03 0.0000000000000000e+00  2.5204488133085043e+01 -1.5557071949201310e-03 0.0000000000000000e+00  2.5204488133050837e+01 -1.5557071701110281e-03 0.0000000000000000e+00  2.5204488133039732e+01 -1.5557071624728853e-03 0.0000000000000000e+00  2.5204488133031138e+01 -1.5557071600377464e-03 0.0000000000000000e+00  2.5204488133027837e+01 -1.5557071600456102e-03 0.0000000000000000e+00  2.5204488133026036e+01 -1.5557071522824312e-03 0.0000000000000000e+00  2.5204488133027500e+01 -1.5557071515061498e-03 0.0000000000000000e+00  2.5204488133026974e+01 -1.5557071491649657e-03 0.0000000000000000e+00  2.5204488133026334e+01 -1.5557071534678371e-03 0.0000000000000000e+00  2.5204488133025031e+01 -1.5557071523047631e-03 0.0000000000000000e+00  2.5204488133025997e+01 -1.5557071520723514e-03 0.0000000000000000e+00  2.5204488133024867e+01 -1.555707157