<?xml version="1.0"?>
<VTKFile type="UnstructuredGrid"  version="0.1"  >
<UnstructuredGrid>
<Piece  NumberOfPoints="1369" NumberOfCells="2560">
<Points>
<DataArray  type="Float64"  NumberOfComponents="3"  format="ascii">0 0 0  0.75 0 0  1.5 0 0  2.25 0 0  3 0 0  3.75 0 0  4.5 0 0  5.25 0 0  6 0 0  6.75 0 0  7.5 0 0  8.25 0 0  9 0 0  9.75 0 0  10.5 0 0  11.25 0 0  12 0 0  12.75 0 0  13.5 0 0  14.25 0 0  15 0 0  15.75 0 0  16.5 0 0  17.25 0 0  18 0 0  18.75 0 0  19.5 0 0  20.25 0 0  21 0 0  21.75 0 0  22.5 0 0  23.25 0 0  24 0 0  24.75 0 0  25.5 0 0  26.25 0 0  27 0 0  27.75 0 0  28.5 0 0  29.25 0 0  30 0 0  30.75 0 0  31.5 0 0  32.25 0 0  33 0 0  33.75 0 0  34.5 0 0  35.25 0 0  36 0 0  36.75 0 0  37.5 0 0  38.25 0 0  39 0 0  39.75 0 0  40.5 0 0  41.25 0 0  42 0 0  42.75 0 0  43.5 0 0  44.25 0 0  45 0 0  45.75 0 0  46.5 0 0  47.25 0 0  48 0 0  48.75 0 0  49.5 0 0  50.25 0 0  51 0 0  51.75 0 0  52.5 0 0  53.25 0 0  54 0 0  54.75 0 0  55.5 0 0  56.25 0 0  57 0 0  57.75 0 0  58.5 0 0  59.25 0 0  60 0 0  0 0.5 0  0.75 0.5 0  1.5 0.5 0  2.25 0.5 0  3 0.5 0  3.75 0.5 0  4.5 0.5 0  5.25 0.5 0  6 0.5 0  6.75 0.5 0  7.5 0.5 0  8.25 0.5 0  9 0.5 0  9.75 0.5 0  10.5 0.5 0  11.25 0.5 0  12 0.5 0  12.75 0.5 0  13.5 0.5 0  14.25 0.5 0  15 0.5 0  15.75 0.5 0  16.5 0.5 0  17.25 0.5 0  18 0.5 0  18.75 0.5 0  19.5 0.5 0  20.25 0.5 0  21 0.5 0  21.75 0.5 0  22.5 0.5 0  23.25 0.5 0  24 0.5 0  24.75 0.5 0  25.5 0.5 0  26.25 0.5 0  27 0.5 0  27.75 0.5 0  28.5 0.5 0  29.25 0.5 0  30 0.5 0  30.75 0.5 0  31.5 0.5 0  32.25 0.5 0  33 0.5 0  33.75 0.5 0  34.5 0.5 0  35.25 0.5 0  36 0.5 0  36.75 0.5 0  37.5 0.5 0  38.25 0.5 0  39 0.5 0  39.75 0.5 0  40.5 0.5 0  41.25 0.5 0  42 0.5 0  42.75 0.5 0  43.5 0.5 0  44.25 0.5 0  45 0.5 0  45.75 0.5 0  46.5 0.5 0  47.25 0.5 0  48 0.5 0  48.75 0.5 0  49.5 0.5 0  50.25 0.5 0  51 0.5 0  51.75 0.5 0  52.5 0.5 0  53.25 0.5 0  54 0.5 0  54.75 0.5 0  55.5 0.5 0  56.25 0.5 0  57 0.5 0  57.75 0.5 0  58.5 0.5 0  59.25 0.5 0  60 0.5 0  0 1 0  0.75 1 0  1.5 1 0  2.25 1 0  3 1 0  3.75 1 0  4.5 1 0  5.25 1 0  6 1 0  6.75 1 0  7.5 1 0  8.25 1 0  9 1 0  9.75 1 0  10.5 1 0  11.25 1 0  12 1 0  12.75 1 0  13.5 1 0  14.25 1 0  15 1 0  15.75 1 0  16.5 1 0  17.25 1 0  18 1 0  18.75 1 0  19.5 1 0  20.25 1 0  21 1 0  21.75 1 0  22.5 1 0  23.25 1 0  24 1 0  24.75 1 0  25.5 1 0  26.25 1 0  27 1 0  27.75 1 0  28.5 1 0  29.25 1 0  30 1 0  30.75 1 0  31.5 1 0  32.25 1 0  33 1 0  33.75 1 0  34.5 1 0  35.25 1 0  36 1 0  36.75 1 0  37.5 1 0  38.25 1 0  39 1 0  39.75 1 0  40.5 1 0  41.25 1 0  42 1 0  42.75 1 0  43.5 1 0  44.25 1 0  45 1 0  45.75 1 0  46.5 1 0  47.25 1 0  48 1 0  48.75 1 0  49.5 1 0  50.25 1 0  51 1 0  51.75 1 0  52.5 1 0  53.25 1 0  54 1 0  54.75 1 0  55.5 1 0  56.25 1 0  57 1 0  57.75 1 0  58.5 1 0  59.25 1 0  60 1 0  0 1.5 0  0.75 1.5 0  1.5 1.5 0  2.25 1.5 0  3 1.5 0  3.75 1.5 0  4.5 1.5 0  5.25 1.5 0  6 1.5 0  6.75 1.5 0  7.5 1.5 0  8.25 1.5 0  9 1.5 0  9.75 1.5 0  10.5 1.5 0  11.25 1.5 0  12 1.5 0  12.75 1.5 0  13.5 1.5 0  14.25 1.5 0  15 1.5 0  15.75 1.5 0  16.5 1.5 0  17.25 1.5 0  18 1.5 0  18.75 1.5 0  19.5 1.5 0  20.25 1.5 0  21 1.5 0  21.75 1.5 0  22.5 1.5 0  23.25 1.5 0  24 1.5 0  24.75 1.5 0  25.5 1.5 0  26.25 1.5 0  27 1.5 0  27.75 1.5 0  28.5 1.5 0  29.25 1.5 0  30 1.5 0  30.75 1.5 0  31.5 1.5 0  32.25 1.5 0  33 1.5 0  33.75 1.5 0  34.5 1.5 0  35.25 1.5 0  36 1.5 0  36.75 1.5 0  37.5 1.5 0  38.25 1.5 0  39 1.5 0  39.75 1.5 0  40.5 1.5 0  41.25 1.5 0  42 1.5 0  42.75 1.5 0  43.5 1.5 0  44.25 1.5 0  45 1.5 0  45.75 1.5 0  46.5 1.5 0  47.25 1.5 0  48 1.5 0  48.75 1.5 0  49.5 1.5 0  50.25 1.5 0  51 1.5 0  51.75 1.5 0  52.5 1.5 0  53.25 1.5 0  54 1.5 0  54.75 1.5 0  55.5 1.5 0  56.25 1.5 0  57 1.5 0  57.75 1.5 0  58.5 1.5 0  59.25 1.5 0  60 1.5 0  0 2 0  0.75 2 0  1.5 2 0  2.25 2 0  3 2 0  3.75 2 0  4.5 2 0  5.25 2 0  6 2 0  6.75 2 0  7.5 2 0  8.25 2 0  9 2 0  9.75 2 0  10.5 2 0  11.25 2 0  12 2 0  12.75 2 0  13.5 2 0  14.25 2 0  15 2 0  15.75 2 0  16.5 2 0  17.25 2 0  18 2 0  18.75 2 0  19.5 2 0  20.25 2 0  21 2 0  21.75 2 0  22.5 2 0  23.25 2 0  24 2 0  24.75 2 0  25.5 2 0  26.25 2 0  27 2 0  27.75 2 0  28.5 2 0  29.25 2 0  30 2 0  30.75 2 0  31.5 2 0  32.25 2 0  33 2 0  33.75 2 0  34.5 2 0  35.25 2 0  36 2 0  36.75 2 0  37.5 2 0  38.25 2 0  39 2 0  39.75 2 0  40.5 2 0  41.25 2 0  42 2 0  42.75 2 0  43.5 2 0  44.25 2 0  45 2 0  45.75 2 0  46.5 2 0  47.25 2 0  48 2 0  48.75 2 0  49.5 2 0  50.25 2 0  51 2 0  51.75 2 0  52.5 2 0  53.25 2 0  54 2 0  54.75 2 0  55.5 2 0  56.25 2 0  57 2 0  57.75 2 0  58.5 2 0  59.25 2 0  60 2 0  0 2.5 0  0.75 2.5 0  1.5 2.5 0  2.25 2.5 0  3 2.5 0  3.75 2.5 0  4.5 2.5 0  5.25 2.5 0  6 2.5 0  6.75 2.5 0  7.5 2.5 0  8.25 2.5 0  9 2.5 0  9.75 2.5 0  10.5 2.5 0  11.25 2.5 0  12 2.5 0  12.75 2.5 0  13.5 2.5 0  14.25 2.5 0  15 2.5 0  15.75 2.5 0  16.5 2.5 0  17.25 2.5 0  18 2.5 0  18.75 2.5 0  19.5 2.5 0  20.25 2.5 0  21 2.5 0  21.75 2.5 0  22.5 2.5 0  23.25 2.5 0  24 2.5 0  24.75 2.5 0  25.5 2.5 0  26.25 2.5 0  27 2.5 0  27.75 2.5 0  28.5 2.5 0  29.25 2.5 0  30 2.5 0  30.75 2.5 0  31.5 2.5 0  32.25 2.5 0  33 2.5 0  33.75 2.5 0  34.5 2.5 0  35.25 2.5 0  36 2.5 0  36.75 2.5 0  37.5 2.5 0  38.25 2.5 0  39 2.5 0  39.75 2.5 0  40.5 2.5 0  41.25 2.5 0  42 2.5 0  42.75 2.5 0  43.5 2.5 0  44.25 2.5 0  45 2.5 0  45.75 2.5 0  46.5 2.5 0  47.25 2.5 0  48 2.5 0  48.75 2.5 0  49.5 2.5 0  50.25 2.5 0  51 2.5 0  51.75 2.5 0  52.5 2.5 0  53.25 2.5 0  54 2.5 0  54.75 2.5 0  55.5 2.5 0  56.25 2.5 0  57 2.5 0  57.75 2.5 0  58.5 2.5 0  59.25 2.5 0  60 2.5 0  0 3 0  0.75 3 0  1.5 3 0  2.25 3 0  3 3 0  3.75 3 0  4.5 3 0  5.25 3 0  6 3 0  6.75 3 0  7.5 3 0  8.25 3 0  9 3 0  9.75 3 0  10.5 3 0  11.25 3 0  12 3 0  12.75 3 0  13.5 3 0  14.25 3 0  15 3 0  15.75 3 0  16.5 3 0  17.25 3 0  18 3 0  18.75 3 0  19.5 3 0  20.25 3 0  21 3 0  21.75 3 0  22.5 3 0  23.25 3 0  24 3 0  24.75 3 0  25.5 3 0  26.25 3 0  27 3 0  27.75 3 0  28.5 3 0  29.25 3 0  30 3 0  30.75 3 0  31.5 3 0  32.25 3 0  33 3 0  33.75 3 0  34.5 3 0  35.25 3 0  36 3 0  36.75 3 0  37.5 3 0  38.25 3 0  39 3 0  39.75 3 0  40.5 3 0  41.25 3 0  42 3 0  42.75 3 0  43.5 3 0  44.25 3 0  45 3 0  45.75 3 0  46.5 3 0  47.25 3 0  48 3 0  48.75 3 0  49.5 3 0  50.25 3 0  51 3 0  51.75 3 0  52.5 3 0  53.25 3 0  54 3 0  54.75 3 0  55.5 3 0  56.25 3 0  57 3 0  57.75 3 0  58.5 3 0  59.25 3 0  60 3 0  0 3.5 0  0.75 3.5 0  1.5 3.5 0  2.25 3.5 0  3 3.5 0  3.75 3.5 0  4.5 3.5 0  5.25 3.5 0  6 3.5 0  6.75 3.5 0  7.5 3.5 0  8.25 3.5 0  9 3.5 0  9.75 3.5 0  10.5 3.5 0  11.25 3.5 0  12 3.5 0  12.75 3.5 0  13.5 3.5 0  14.25 3.5 0  15 3.5 0  15.75 3.5 0  16.5 3.5 0  17.25 3.5 0  18 3.5 0  18.75 3.5 0  19.5 3.5 0  20.25 3.5 0  21 3.5 0  21.75 3.5 0  22.5 3.5 0  23.25 3.5 0  24 3.5 0  24.75 3.5 0  25.5 3.5 0  26.25 3.5 0  27 3.5 0  27.75 3.5 0  28.5 3.5 0  29.25 3.5 0  30 3.5 0  30.75 3.5 0  31.5 3.5 0  32.25 3.5 0  33 3.5 0  33.75 3.5 0  34.5 3.5 0  35.25 3.5 0  36 3.5 0  36.75 3.5 0  37.5 3.5 0  38.25 3.5 0  39 3.5 0  39.75 3.5 0  40.5 3.5 0  41.25 3.5 0  42 3.5 0  42.75 3.5 0  43.5 3.5 0  44.25 3.5 0  45 3.5 0  45.75 3.5 0  46.5 3.5 0  47.25 3.5 0  48 3.5 0  48.75 3.5 0  49.5 3.5 0  50.25 3.5 0  51 3.5 0  51.75 3.5 0  52.5 3.5 0  53.25 3.5 0  54 3.5 0  54.75 3.5 0  55.5 3.5 0  56.25 3.5 0  57 3.5 0  57.75 3.5 0  58.5 3.5 0  59.25 3.5 0  60 3.5 0  0 4 0  0.75 4 0  1.5 4 0  2.25 4 0  3 4 0  3.75 4 0  4.5 4 0  5.25 4 0  6 4 0  6.75 4 0  7.5 4 0  8.25 4 0  9 4 0  9.75 4 0  10.5 4 0  11.25 4 0  12 4 0  12.75 4 0  13.5 4 0  14.25 4 0  15 4 0  15.75 4 0  16.5 4 0  17.25 4 0  18 4 0  18.75 4 0  19.5 4 0  20.25 4 0  21 4 0  21.75 4 0  22.5 4 0  23.25 4 0  24 4 0  24.75 4 0  25.5 4 0  26.25 4 0  27 4 0  27.75 4 0  28.5 4 0  29.25 4 0  30 4 0  30.75 4 0  31.5 4 0  32.25 4 0  33 4 0  33.75 4 0  34.5 4 0  35.25 4 0  36 4 0  36.75 4 0  37.5 4 0  38.25 4 0  39 4 0  39.75 4 0  40.5 4 0  41.25 4 0  42 4 0  42.75 4 0  43.5 4 0  44.25 4 0  45 4 0  45.75 4 0  46.5 4 0  47.25 4 0  48 4 0  48.75 4 0  49.5 4 0  50.25 4 0  51 4 0  51.75 4 0  52.5 4 0  53.25 4 0  54 4 0  54.75 4 0  55.5 4 0  56.25 4 0  57 4 0  57.75 4 0  58.5 4 0  59.25 4 0  60 4 0  0.375 0.25 0  1.125 0.25 0  1.875 0.25 0  2.625 0.25 0  3.375 0.25 0  4.125 0.25 0  4.875 0.25 0  5.625 0.25 0  6.375 0.25 0  7.125 0.25 0  7.875 0.25 0  8.625 0.25 0  9.375 0.25 0  10.125 0.25 0  10.875 0.25 0  11.625 0.25 0  12.375 0.25 0  13.125 0.25 0  13.875 0.25 0  14.625 0.25 0  15.375 0.25 0  16.125 0.25 0  16.875 0.25 0  17.625 0.25 0  18.375 0.25 0  19.125 0.25 0  19.875 0.25 0  20.625 0.25 0  21.375 0.25 0  22.125 0.25 0  22.875 0.25 0  23.625 0.25 0  24.375 0.25 0  25.125 0.25 0  25.875 0.25 0  26.625 0.25 0  27.375 0.25 0  28.125 0.25 0  28.875 0.25 0  29.625 0.25 0  30.375 0.25 0  31.125 0.25 0  31.875 0.25 0  32.625 0.25 0  33.375 0.25 0  34.125 0.25 0  34.875 0.25 0  35.625 0.25 0  36.375 0.25 0  37.125 0.25 0  37.875 0.25 0  38.625 0.25 0  39.375 0.25 0  40.125 0.25 0  40.875 0.25 0  41.625 0.25 0  42.375 0.25 0  43.125 0.25 0  43.875 0.25 0  44.625 0.25 0  45.375 0.25 0  46.125 0.25 0  46.875 0.25 0  47.625 0.25 0  48.375 0.25 0  49.125 0.25 0  49.875 0.25 0  50.625 0.25 0  51.375 0.25 0  52.125 0.25 0  52.875 0.25 0  53.625 0.25 0  54.375 0.25 0  55.125 0.25 0  55.875 0.25 0  56.625 0.25 0  57.375 0.25 0  58.125 0.25 0  58.875 0.25 0  59.625 0.25 0  0.375 0.75 0  1.125 0.75 0  1.875 0.75 0  2.625 0.75 0  3.375 0.75 0  4.125 0.75 0  4.875 0.75 0  5.625 0.75 0  6.375 0.75 0  7.125 0.75 0  7.875 0.75 0  8.625 0.75 0  9.375 0.75 0  10.125 0.75 0  10.875 0.75 0  11.625 0.75 0  12.375 0.75 0  13.125 0.75 0  13.875 0.75 0  14.625 0.75 0  15.375 0.75 0  16.125 0.75 0  16.875 0.75 0  17.625 0.75 0  18.375 0.75 0  19.125 0.75 0  19.875 0.75 0  20.625 0.75 0  21.375 0.75 0  22.125 0.75 0  22.875 0.75 0  23.625 0.75 0  24.375 0.75 0  25.125 0.75 0  25.875 0.75 0  26.625 0.75 0  27.375 0.75 0  28.125 0.75 0  28.875 0.75 0  29.625 0.75 0  30.375 0.75 0  31.125 0.75 0  31.875 0.75 0  32.625 0.75 0  33.375 0.75 0  34.125 0.75 0  34.875 0.75 0  35.625 0.75 0  36.375 0.75 0  37.125 0.75 0  37.875 0.75 0  38.625 0.75 0  39.375 0.75 0  40.125 0.75 0  40
[...]
<PointData  Vectors="f_8-0"> 
<DataArray  type="Float64"  Name="f_8-0"  NumberOfComponents="3" format="ascii">0.0000000000000000e+00 0.0000000000000000e+00 0.0000000000000000e+00  0.0000000000000000e+00 0.0000000000000000e+00 0.0000000000000000e+00  0.0000000000000000e+00 0.0000000000000000e+00 0.0000000000000000e+00  0.0000000000000000e+00 0.0000000000000000e+00 0.0000000000000000e+00  0.0000000000000000e+00 0.0000000000000000e+00 0.0000000000000000e+00  0.0000000000000000e+00 0.0000000000000000e+00 0.0000000000000000e+00  0.0000000000000000e+00 0.0000000000000000e+00 0.0000000000000000e+00  0.0000000000000000e+00 0.0000000000000000e+00 0.0000000000000000e+00  0.0000000000000000e+00 0.0000000000000000e+00 0.0000000000000000e+00  0.0000000000000000e+00 0.0000000000000000e+00 0.0000000000000000e+00  0.0000000000000000e+00 0.0000000000000000e+00 0.0000000000000000e+00  0.0000000000000000e+00 0.0000000000000000e+00 0.0000000000000000e+00  0.0000000000000000e+00 0.0000000000000000e+00 0.0000000000000000e+00  0.0000000000000000e+00 0.0000000000000000e+00 0.0000000000000000e+00  0.0000000000000000e+00 0.0000000000000000e+00 0.0000000000000000e+00  0.0000000000000000e+00 0.0000000000000000e+00 0.0000000000000000e+00  0.0000000000000000e+00 0.0000000000000000e+00 0.0000000000000000e+00  0.0000000000000000e+00 0.0000000000000000e+00 0.0000000000000000e+00  0.0000000000000000e+00 0.0000000000000000e+00 0.0000000000000000e+00  0.0000000000000000e+00 0.0000000000000000e+00 0.0000000000000000e+00  0.0000000000000000e+00 0.0000000000000000e+00 0.0000000000000000e+00  0.0000000000000000e+00 0.0000000000000000e+00 0.0000000000000000e+00  0.0000000000000000e+00 0.0000000000000000e+00 0.0000000000000000e+00  0.0000000000000000e+00 0.0000000000000000e+00 0.0000000000000000e+00  0.0000000000000000e+00 0.0000000000000000e+00 0.0000000000000000e+00  0.0000000000000000e+00 0.0000000000000000e+00 0.0000000000000000e+00  0.0000000000000000e+00 0.0000000000000000e+00 0.0000000000000000e+00  0.0000000000000000e+00 0.0000000000000000e+00 0.0000000000000000e+00  0.0000000000000000e+00 0.0000000000000000e+00 0.0000000000000000e+00  0.0000000000000000e+00 0.0000000000000000e+00 0.0000000000000000e+00  0.0000000000000000e+00 0.0000000000000000e+00 0.0000000000000000e+00  0.0000000000000000e+00 0.0000000000000000e+00 0.0000000000000000e+00  0.0000000000000000e+00 0.0000000000000000e+00 0.0000000000000000e+00  0.0000000000000000e+00 0.0000000000000000e+00 0.0000000000000000e+00  0.0000000000000000e+00 0.0000000000000000e+00 0.0000000000000000e+00  0.0000000000000000e+00 0.0000000000000000e+00 0.0000000000000000e+00  0.0000000000000000e+00 0.0000000000000000e+00 0.0000000000000000e+00  0.0000000000000000e+00 0.0000000000000000e+00 0.0000000000000000e+00  0.0000000000000000e+00 0.0000000000000000e+00 0.0000000000000000e+00  0.0000000000000000e+00 0.0000000000000000e+00 0.0000000000000000e+00  0.0000000000000000e+00 0.0000000000000000e+00 0.0000000000000000e+00  0.0000000000000000e+00 0.0000000000000000e+00 0.0000000000000000e+00  0.0000000000000000e+00 0.0000000000000000e+00 0.0000000000000000e+00  0.0000000000000000e+00 0.0000000000000000e+00 0.0000000000000000e+00  0.0000000000000000e+00 0.0000000000000000e+00 0.0000000000000000e+00  0.0000000000000000e+00 0.0000000000000000e+00 0.0000000000000000e+00  0.0000000000000000e+00 0.0000000000000000e+00 0.0000000000000000e+00  0.0000000000000000e+00 0.0000000000000000e+00 0.0000000000000000e+00  0.0000000000000000e+00 0.0000000000000000e+00 0.0000000000000000e+00  0.0000000000000000e+00 0.0000000000000000e+00 0.0000000000000000e+00  0.0000000000000000e+00 0.0000000000000000e+00 0.0000000000000000e+00  0.0000000000000000e+00 0.0000000000000000e+00 0.0000000000000000e+00  0.0000000000000000e+00 0.0000000000000000e+00 0.0000000000000000e+00  0.0000000000000000e+00 0.0000000000000000e+00 0.0000000000000000e+00  0.0000000000000000e+00 0.0000000000000000e+00 0.0000000000000000e+00  0.0000000000000000e+00 0.0000000000000000e+00 0.0000000000000000e+00  0.0000000000000000e+00 0.0000000000000000e+00 0.0000000000000000e+00  0.0000000000000000e+00 0.0000000000000000e+00 0.0000000000000000e+00  0.0000000000000000e+00 0.0000000000000000e+00 0.0000000000000000e+00  0.0000000000000000e+00 0.0000000000000000e+00 0.0000000000000000e+00  0.0000000000000000e+00 0.0000000000000000e+00 0.0000000000000000e+00  0.0000000000000000e+00 0.0000000000000000e+00 0.0000000000000000e+00  0.0000000000000000e+00 0.0000000000000000e+00 0.0000000000000000e+00  0.0000000000000000e+00 0.0000000000000000e+00 0.0000000000000000e+00  0.0000000000000000e+00 0.0000000000000000e+00 0.0000000000000000e+00  0.0000000000000000e+00 0.0000000000000000e+00 0.0000000000000000e+00  0.0000000000000000e+00 0.0000000000000000e+00 0.0000000000000000e+00  0.0000000000000000e+00 0.0000000000000000e+00 0.0000000000000000e+00  0.0000000000000000e+00 0.0000000000000000e+00 0.0000000000000000e+00  0.0000000000000000e+00 0.0000000000000000e+00 0.0000000000000000e+00  0.0000000000000000e+00 0.0000000000000000e+00 0.0000000000000000e+00  0.0000000000000000e+00 0.0000000000000000e+00 0.0000000000000000e+00  0.0000000000000000e+00 0.0000000000000000e+00 0.0000000000000000e+00  0.0000000000000000e+00 0.0000000000000000e+00 0.0000000000000000e+00  0.0000000000000000e+00 0.0000000000000000e+00 0.0000000000000000e+00  0.0000000000000000e+00 0.0000000000000000e+00 0.0000000000000000e+00  0.0000000000000000e+00 0.0000000000000000e+00 0.0000000000000000e+00  0.0000000000000000e+00 0.0000000000000000e+00 0.0000000000000000e+00  0.0000000000000000e+00 0.0000000000000000e+00 0.0000000000000000e+00  0.0000000000000000e+00 0.0000000000000000e+00 0.0000000000000000e+00  0.0000000000000000e+00 0.0000000000000000e+00 0.0000000000000000e+00  2.6460932029596890e+01 0.0000000000000000e+00 0.0000000000000000e+00  2.6454174588563152e+01 5.9083472335000942e-02 0.0000000000000000e+00  2.6474045149013406e+01 3.6776956786016148e-02 0.0000000000000000e+00  2.6449215312454992e+01 9.6067492680808938e-03 0.0000000000000000e+00  2.6442130051681001e+01 5.2872456645452794e-03 0.0000000000000000e+00  2.6442676912405719e+01 2.1463134923657180e-03 0.0000000000000000e+00  2.6442824087665930e+01 3.8651680857512416e-03 0.0000000000000000e+00  2.6443927089731151e+01 3.5657465151968239e-03 0.0000000000000000e+00  2.6443567892928904e+01 3.8464658266043061e-03 0.0000000000000000e+00  2.6443965872050814e+01 3.7792835011120386e-03 0.0000000000000000e+00  2.6443777109691702e+01 3.8185414084219967e-03 0.0000000000000000e+00  2.6443908448433067e+01 3.8072753966772736e-03 0.0000000000000000e+00  2.6443849346931088e+01 3.8139317575669909e-03 0.0000000000000000e+00  2.6443884195311057e+01 3.8118675525989536e-03 0.0000000000000000e+00  2.6443870136410688e+01 3.8132788142337592e-03 0.0000000000000000e+00  2.6443877878420832e+01 3.8128547922857809e-03 0.0000000000000000e+00  2.6443875097825817e+01 3.8131723826584489e-03 0.0000000000000000e+00  2.6443876622672775e+01 3.8130882345653303e-03 0.0000000000000000e+00  2.6443876144197031e+01 3.8131566712772858e-03 0.0000000000000000e+00  2.6443876423044923e+01 3.8131419421181681e-03 0.0000000000000000e+00  2.6443876350421149e+01 3.8131558932716502e-03 0.0000000000000000e+00  2.6443876399604779e+01 3.8131537572453681e-03 0.0000000000000000e+00  2.6443876390181142e+01 3.8131565070959124e-03 0.0000000000000000e+00  2.6443876398842438e+01 3.8131563097919827e-03 0.0000000000000000e+00  2.6443876397955666e+01 3.8131568464473023e-03 0.0000000000000000e+00  2.6443876399525298e+01 3.8131568577747031e-03 0.0000000000000000e+00  2.6443876399539775e+01 3.8131569646737973e-03 0.0000000000000000e+00  2.6443876399842502e+01 3.8131569782174110e-03 0.0000000000000000e+00  2.6443876399883983e+01 3.8131570023154822e-03 0.0000000000000000e+00  2.6443876399946031e+01 3.8131570099478162e-03 0.0000000000000000e+00  2.6443876399959699e+01 3.8131570113026855e-03 0.0000000000000000e+00  2.6443876399975263e+01 3.8131570150155237e-03 0.0000000000000000e+00  2.6443876399978134e+01 3.8131570167312112e-03 0.0000000000000000e+00  2.6443876399979210e+01 3.8131570143469643e-03 0.0000000000000000e+00  2.6443876399981860e+01 3.8131570160504537e-03 0.0000000000000000e+00  2.6443876399983168e+01 3.8131570161217677e-03 0.0000000000000000e+00  2.6443876399981331e+01 3.8131570172573082e-03 0.0000000000000000e+00  2.6443876399985935e+01 3.8131570134691648e-03 0.0000000000000000e+00  2.6443876399988504e+01 3.8131570160718133e-03 0.0000000000000000e+00  2.6443876399988543e+01 3.8131570172084094e-03 0.0000000000000000e+00  2.6443876399989289e+01 3.8131570147331541e-03 0.0000000000000000e+00  2.6443876399990533e+01 3.8131570172166905e-03 0.0000000000000000e+00  2.6443876399989513e+01 3.8131570145667829e-03 0.0000000000000000e+00  2.6443876399991119e+01 3.8131570176733942e-03 0.0000000000000000e+00  2.6443876399995805e+01 3.8131570093519890e-03 0.0000000000000000e+00  2.6443876400009373e+01 3.8131570088713916e-03 0.0000000000000000e+00  2.6443876400039318e+01 3.8131569914169163e-03 0.0000000000000000e+00  2.6443876400091337e+01 3.8131569814823488e-03 0.0000000000000000e+00  2.6443876400209259e+01 3.8131569153621388e-03 0.0000000000000000e+00  2.6443876400450677e+01 3.8131568534828879e-03 0.0000000000000000e+00  2.6443876400936055e+01 3.8131566199184471e-03 0.0000000000000000e+00  2.6443876401940152e+01 3.8131563050231537e-03 0.0000000000000000e+00  2.6443876403951972e+01 3.8131554371204838e-03 0.0000000000000000e+00  2.6443876408101243e+01 3.8131539909091921e-03 0.0000000000000000e+00  2.6443876416397639e+01 3.8131506613228649e-03 0.0000000000000000e+00  2.6443876433332079e+01 3.8131444612041401e-03 0.0000000000000000e+00  2.6443876467189547e+01 3.8131312219343619e-03 0.0000000000000000e+00  2.6443876535965220e+01 3.8131050339081916e-03 0.0000000000000000e+00  2.6443876674289875e+01 3.8130501438607398e-03 0.0000000000000000e+00  2.6443876956913769e+01 3.8129364473466205e-03 0.0000000000000000e+00  2.6443877536529847e+01 3.8126920463552373e-03 0.0000000000000000e+00  2.6443878755964384e+01 3.8121550273245508e-03 0.0000000000000000e+00  2.6443881387485824e+01 3.8109341981667146e-03 0.0000000000000000e+00  2.6443887294429167e+01 3.8081058009414455e-03 0.0000000000000000e+00  2.6443900950166253e+01 3.8015666997592177e-03 0.0000000000000000e+00  2.6443932953206509e+01 3.7869255234041104e-03 0.0000000000000000e+00  2.6444006610125985e+01 3.7562070597539315e-03 0.0000000000000000e+00  2.6444168177785809e+01 3.6977232339924426e-03 0.0000000000000000e+00  2.6444495657988572e+01 3.6007741379177689e-03 0.0000000000000000e+00  2.6445091728655566e+01 3.4689030400045133e-03 0.0000000000000000e+00  2.6446034765174634e+01 3.3384409262406738e-03 0.0000000000000000e+00  2.6447287017374986e+01 3.2759520062240343e-03 0.0000000000000000e+00  2.6448638116707219e+01 3.3302609885047570e-03 0.0000000000000000e+00  2.6449805143585554e+01 3.4893292080515285e-03 0.0000000000000000e+00  2.6450564948753691e+01 3.7480112478989916e-03 0.0000000000000000e+00  2.6450658079614790e+01 4.1761731121501737e-03 0.0000000000000000e+00  2.6449616706586571e+01 4.8592840789555246e-03 0.0000000000000000e+00  2.6446674413366161e+01 5.8026240583061691e-03 0.0000000000000000e+00  2.6440290988242626e+01 6.6091648689920795e-03 0.0000000000000000e+00  2.6425419826061315e+01 4.9243235636877367e-03 0.0000000000000000e+00  2.6407598521827140e+01 0.0000000000000000e+00 0.0000000000000000e+00  2.7850600269233098e+01 0.0000000000000000e+00 0.0000000000000000e+00  2.7788207133089507e+01 -1.4478622680907237e-02 0.0000000000000000e+00  2.7832109227521499e+01 8.2773705522091352e-03 0.0000000000000000e+00  2.7850743101598574e+01 4.9797955925903557e-03 0.0000000000000000e+00  2.7861128430951364e+01 1.3414880428555022e-03 0.0000000000000000e+00  2.7859357817484234e+01 -4.9008173530962922e-04 0.0000000000000000e+00  2.7859986465857645e+01 2.1762775523015800e-04 0.0000000000000000e+00  2.7859618626119726e+01 2.4396951605491448e-04 0.0000000000000000e+00  2.7859968725023059e+01 6.0154420818109408e-04 0.0000000000000000e+00  2.7859818083277922e+01 5.0992951579205339e-04 0.0000000000000000e+00  2.7859957623520600e+01 6.0878605712734598e-04 0.0000000000000000e+00  2.7859894664494405e+01 5.7575672099979434e-04 0.0000000000000000e+00  2.7859940146752869e+01 5.9952652691691924e-04 0.0000000000000000e+00  2.7859920973830000e+01 5.9232045110237141e-04 0.0000000000000000e+00  2.7859933107079421e+01 5.9726702722962140e-04 0.0000000000000000e+00  2.7859928501072218e+01 5.9609277889421063e-04 0.0000000000000000e+00  2.7859931267748316e+01 5.9703076277423995e-04 0.0000000000000000e+00  2.7859930339172269e+01 5.9689137851924882e-04 0.0000000000000000e+00  2.7859930904545216e+01 5.9706313026423061e-04 0.0000000000000000e+00  2.7859930742213599e+01 5.9705690775945094e-04 0.0000000000000000e+00  2.7859930850004229e+01 5.9708886858051628e-04 0.0000000000000000e+00  2.7859930825329357e+01 5.9709183947985955e-04 0.0000000000000000e+00  2.7859930845206851e+01 5.9709811928929167e-04 0.0000000000000000e+00  2.7859930842139160e+01 5.9709952939010545e-04 0.0000000000000000e+00  2.7859930845791038e+01 5.9710085077391793e-04 0.0000000000000000e+00  2.7859930845563333e+01 5.9710128808826814e-04 0.0000000000000000e+00  2.7859930846250887e+01 5.9710158052773228e-04 0.0000000000000000e+00  2.7859930846282289e+01 5.9710170020741999e-04 0.0000000000000000e+00  2.7859930846422593e+01 5.9710177236485485e-04 0.0000000000000000e+00  2.7859930846450197e+01 5.9710180443788420e-04 0.0000000000000000e+00  2.7859930846477937e+01 5.9710181910231739e-04 0.0000000000000000e+00  2.7859930846490851e+01 5.9710183430364543e-04 0.0000000000000000e+00  2.7859930846494777e+01 5.9710183816307112e-04 0.0000000000000000e+00  2.7859930846491515e+01 5.9710183622858741e-04 0.0000000000000000e+00  2.7859930846495971e+01 5.9710183819415476e-04 0.0000000000000000e+00  2.7859930846497711e+01 5.9710183991051034e-04 0.0000000000000000e+00  2.7859930846492627e+01 5.9710183846913673e-04 0.0000000000000000e+00  2.7859930846493711e+01 5.9710182987331661e-04 0.0000000000000000e+00  2.7859930846501197e+01 5.9710183823992197e-04 0.0000000000000000e+00  2.7859930846502166e+01 5.9710183805905797e-04 0.0000000000000000e+00  2.7859930846501083e+01 5.9710183824842591e-04 0.0000000000000000e+00  2.7859930846504053e+01 5.9710184027218012e-04 0.0000000000000000e+00  2.7859930846500824e+01 5.9710184078122107e-04 0.0000000000000000e+00  2.7859930846500021e+01 5.9710183822294413e-04 0.0000000000000000e+00  2.7859930846495654e+01 5.9710182814597047e-04 0.0000000000000000e+00  2.7859930846500458e+01 5.9710182086021861e-04 0.0000000000000000e+00  2.7859930846505112e+01 5.9710180039495122e-04 0.0000000000000000e+00  2.7859930846511116e+01 5.9710177028874907e-04 0.0000000000000000e+00  2.7859930846530034e+01 5.9710166375571191e-04 0.0000000000000000e+00  2.7859930846562634e+01 5.9710153706577299e-04 0.0000000000000000e+00  2.7859930846645835e+01 5.9710113354146202e-04 0.0000000000000000e+00  2.7859930846788266e+01 5.9710055847012197e-04 0.0000000000000000e+00  2.7859930847129817e+01 5.9709898394228313e-04 0.0000000000000000e+00  2.7859930847741069e+01 5.9709641218075110e-04 0.0000000000000000e+00  2.7859930849155084e+01 5.9709028802138722e-04 0.0000000000000000e+00  2.7859930851778291e+01 5.9707929538764732e-04 0.0000000000000000e+00  2.7859930857436535e+01 5.9705504359453530e-04 0.0000000000000000e+00  2.7859930868067249e+01 5.9700872307009078e-04 0.0000000000000000e+00  2.7859930889658944e+01 5.9690975380213081e-04 0.0000000000000000e+00  2.7859930929384564e+01 5.9671139316635851e-04 0.0000000000000000e+00  2.7859931002918735e+01 5.9628530690831680e-04 0.0000000000000000e+00  2.7859931121724014e+01 5.9538126519165723e-04 0.0000000000000000e+00  2.7859931294432542e+01 5.9335063145939928e-04 0.0000000000000000e+00  2.7859931497324109e+01 5.8872053459461601e-04 0.0000000000000000e+00  2.7859931824242196e+01 5.7785926078984611e-04 0.0000000000000000e+00  2.7859933145553885e+01 5.5280141204015320e-04 0.0000000000000000e+00  2.7859939683393552e+01 4.9725634813692831e-04 0.0000000000000000e+00  2.7859965436345870e+01 3.8376353103941867e-04 0.0000000000000000e+00  2.7860046762437157e+01 1.7711199654547183e-04 0.0000000000000000e+00  2.7860254676738673e+01 -1.3890915904682098e-04 0.0000000000000000e+00  2.7860678686631235e+01 -5.0496931603318819e-04 0.0000000000000000e+00  2.7861341522917993e+01 -7.4682915620950514e-04 0.0000000000000000e+00  2.7862115638492480e+01 -6.9952227275113738e-04 0.0000000000000000e+00  2.7862847051260719e+01 -4.0476889920434712e-04 0.0000000000000000e+00  2.7863527312791277e+01 6.2343647645996412e-05 0.0000000000000000e+00  2.7864140370225112e+01 8.5924463816785732e-04 0.0000000000000000e+00  2.7864608414086860e+01 2.1759692393433488e-03 0.0000000000000000e+00  2.7864810812786764e+01 4.2502719186626962e-03 0.0000000000000000e+00  2.7864481031431669e+01 7.3086373991627842e-03 0.0000000000000000e+00  2.7864233792850030e+01 1.0982015192055586e-02 0.0000000000000000e+00  2.7867835175957293e+01 0.0000000000000000e+00 0.0000000000000000e+00  2.5150139725326110e+01 0.0000000000000000e+00 0.0000000000000000e+00  2.5144783650155141e+01 1.4067640819319823e-03 0.0000000000000000e+00  2.5142045869312952e+01 -6.5581907830785085e-03 0.0000000000000000e+00  2.5143806973344269e+01 -8.7142634199752439e-04 0.0000000000000000e+00  2.5142532354243865e+01 -2.2212356012832344e-03 0.0000000000000000e+00  2.5143639869515710e+01 -1.9542045817031706e-03 0.0000000000000000e+00  2.5142172775397842e+01 -2.0165199930325265e-03 0.0000000000000000e+00  2.5142315103984284e+01 -1.6658285666205674e-03 0.0000000000000000e+00  2.5141944295967900e+01 -1.6740624440706087e-03 0.0000000000000000e+00  2.5142028688177550e+01 -1.5617017257968098e-03 0.0000000000000000e+00  2.5141933337663982e+01 -1.5862395423181573e-03 0.0000000000000000e+00  2.5141962206573822e+01 -1.5548930465817780e-03 0.0000000000000000e+00  2.5141936607055598e+01 -1.5634172971492641e-03 0.0000000000000000e+00  2.5141944381904413e+01 -1.5555089493619694e-03 0.0000000000000000e+00  2.5141937928439706e+01 -1.5574121907603821e-03 0.0000000000000000e+00  2.5141939692492997e+01 -1.5556341332260346e-03 0.0000000000000000e+00  2.5141938200267926e+01 -1.5559484275517496e-03 0.0000000000000000e+00  2.5141938541424523e+01 -1.5555792597825562e-03 0.0000000000000000e+00  2.5141938220782514e+01 -1.5556137163220975e-03 0.0000000000000000e+00  2.5141938275965472e+01 -1.5555397843339575e-03 0.0000000000000000e+00  2.5141938210346819e+01 -1.5555393408431741e-03 0.0000000000000000e+00  2.5141938217045151e+01 -1.5555245270906311e-03 0.0000000000000000e+00  2.5141938203888230e+01 -1.5555228313795539e-03 0.0000000000000000e+00  2.5141938204116496e+01 -1.5555197525185236e-03 0.0000000000000000e+00  2.5141938201469380e+01 -1.5555190700594869e-03 0.0000000000000000e+00  2.5141938201256053e+01 -1.5555184056595833e-03 0.0000000000000000e+00  2.5141938200705557e+01 -1.5555181997354553e-03 0.0000000000000000e+00  2.5141938200605559e+01 -1.5555180498490241e-03 0.0000000000000000e+00  2.5141938200485935e+01 -1.5555179952793251e-03 0.0000000000000000e+00  2.5141938200453477e+01 -1.5555179560608665e-03 0.0000000000000000e+00  2.5141938200428417e+01 -1.5555179436008207e-03 0.0000000000000000e+00  2.5141938200418767e+01 -1.5555179313688689e-03 0.0000000000000000e+00  2.5141938200415773e+01 -1.5555179221411362e-03 0.0000000000000000e+00  2.5141938200412039e+01 -1.5555179260768003e-03 0.0000000000000000e+00  2.5141938200408642e+01 -1.5555179260321871e-03 0.0000000000000000e+00  2.5141938200407946e+01 -1.5555179216727836e-03 0.0000000000000000e+00  2.5141938200408255e+01 -1.5555179220071557e-03 0.0000000000000000e+00  2.5141938200406436e+01 -1.5555179315441504e-03 0.0000000000000000e+00  2.5141938200405903e+01 -1.5555179264435260e-03 0.0000000000000000e+00  2.5141938200406170e+01 -1.5555179238739998e-03 0.0000000000000000e+00  2.5141938200406020e+01 -1.555517924