<?xml version="1.0"?>
<VTKFile type="UnstructuredGrid"  version="0.1"  >
<UnstructuredGrid>
<Piece  NumberOfPoints="1369" NumberOfCells="2560">
<Points>
<DataArray  type="Float64"  NumberOfComponents="3"  format="ascii">0 0 0  0.75 0 0  1.5 0 0  2.25 0 0  3 0 0  3.75 0 0  4.5 0 0  5.25 0 0  6 0 0  6.75 0 0  7.5 0 0  8.25 0 0  9 0 0  9.75 0 0  10.5 0 0  11.25 0 0  12 0 0  12.75 0 0  13.5 0 0  14.25 0 0  15 0 0  15.75 0 0  16.5 0 0  17.25 0 0  18 0 0  18.75 0 0  19.5 0 0  20.25 0 0  21 0 0  21.75 0 0  22.5 0 0  23.25 0 0  24 0 0  24.75 0 0  25.5 0 0  26.25 0 0  27 0 0  27.75 0 0  28.5 0 0  29.25 0 0  30 0 0  30.75 0 0  31.5 0 0  32.25 0 0  33 0 0  33.75 0 0  34.5 0 0  35.25 0 0  36 0 0  36.75 0 0  37.5 0 0  38.25 0 0  39 0 0  39.75 0 0  40.5 0 0  41.25 0 0  42 0 0  42.75 0 0  43.5 0 0  44.25 0 0  45 0 0  45.75 0 0  46.5 0 0  47.25 0 0  48 0 0  48.75 0 0  49.5 0 0  50.25 0 0  51 0 0  51.75 0 0  52.5 0 0  53.25 0 0  54 0 0  54.75 0 0  55.5 0 0  56.25 0 0  57 0 0  57.75 0 0  58.5 0 0  59.25 0 0  60 0 0  0 0.5 0  0.75 0.5 0  1.5 0.5 0  2.25 0.5 0  3 0.5 0  3.75 0.5 0  4.5 0.5 0  5.25 0.5 0  6 0.5 0  6.75 0.5 0  7.5 0.5 0  8.25 0.5 0  9 0.5 0  9.75 0.5 0  10.5 0.5 0  11.25 0.5 0  12 0.5 0  12.75 0.5 0  13.5 0.5 0  14.25 0.5 0  15 0.5 0  15.75 0.5 0  16.5 0.5 0  17.25 0.5 0  18 0.5 0  18.75 0.5 0  19.5 0.5 0  20.25 0.5 0  21 0.5 0  21.75 0.5 0  22.5 0.5 0  23.25 0.5 0  24 0.5 0  24.75 0.5 0  25.5 0.5 0  26.25 0.5 0  27 0.5 0  27.75 0.5 0  28.5 0.5 0  29.25 0.5 0  30 0.5 0  30.75 0.5 0  31.5 0.5 0  32.25 0.5 0  33 0.5 0  33.75 0.5 0  34.5 0.5 0  35.25 0.5 0  36 0.5 0  36.75 0.5 0  37.5 0.5 0  38.25 0.5 0  39 0.5 0  39.75 0.5 0  40.5 0.5 0  41.25 0.5 0  42 0.5 0  42.75 0.5 0  43.5 0.5 0  44.25 0.5 0  45 0.5 0  45.75 0.5 0  46.5 0.5 0  47.25 0.5 0  48 0.5 0  48.75 0.5 0  49.5 0.5 0  50.25 0.5 0  51 0.5 0  51.75 0.5 0  52.5 0.5 0  53.25 0.5 0  54 0.5 0  54.75 0.5 0  55.5 0.5 0  56.25 0.5 0  57 0.5 0  57.75 0.5 0  58.5 0.5 0  59.25 0.5 0  60 0.5 0  0 1 0  0.75 1 0  1.5 1 0  2.25 1 0  3 1 0  3.75 1 0  4.5 1 0  5.25 1 0  6 1 0  6.75 1 0  7.5 1 0  8.25 1 0  9 1 0  9.75 1 0  10.5 1 0  11.25 1 0  12 1 0  12.75 1 0  13.5 1 0  14.25 1 0  15 1 0  15.75 1 0  16.5 1 0  17.25 1 0  18 1 0  18.75 1 0  19.5 1 0  20.25 1 0  21 1 0  21.75 1 0  22.5 1 0  23.25 1 0  24 1 0  24.75 1 0  25.5 1 0  26.25 1 0  27 1 0  27.75 1 0  28.5 1 0  29.25 1 0  30 1 0  30.75 1 0  31.5 1 0  32.25 1 0  33 1 0  33.75 1 0  34.5 1 0  35.25 1 0  36 1 0  36.75 1 0  37.5 1 0  38.25 1 0  39 1 0  39.75 1 0  40.5 1 0  41.25 1 0  42 1 0  42.75 1 0  43.5 1 0  44.25 1 0  45 1 0  45.75 1 0  46.5 1 0  47.25 1 0  48 1 0  48.75 1 0  49.5 1 0  50.25 1 0  51 1 0  51.75 1 0  52.5 1 0  53.25 1 0  54 1 0  54.75 1 0  55.5 1 0  56.25 1 0  57 1 0  57.75 1 0  58.5 1 0  59.25 1 0  60 1 0  0 1.5 0  0.75 1.5 0  1.5 1.5 0  2.25 1.5 0  3 1.5 0  3.75 1.5 0  4.5 1.5 0  5.25 1.5 0  6 1.5 0  6.75 1.5 0  7.5 1.5 0  8.25 1.5 0  9 1.5 0  9.75 1.5 0  10.5 1.5 0  11.25 1.5 0  12 1.5 0  12.75 1.5 0  13.5 1.5 0  14.25 1.5 0  15 1.5 0  15.75 1.5 0  16.5 1.5 0  17.25 1.5 0  18 1.5 0  18.75 1.5 0  19.5 1.5 0  20.25 1.5 0  21 1.5 0  21.75 1.5 0  22.5 1.5 0  23.25 1.5 0  24 1.5 0  24.75 1.5 0  25.5 1.5 0  26.25 1.5 0  27 1.5 0  27.75 1.5 0  28.5 1.5 0  29.25 1.5 0  30 1.5 0  30.75 1.5 0  31.5 1.5 0  32.25 1.5 0  33 1.5 0  33.75 1.5 0  34.5 1.5 0  35.25 1.5 0  36 1.5 0  36.75 1.5 0  37.5 1.5 0  38.25 1.5 0  39 1.5 0  39.75 1.5 0  40.5 1.5 0  41.25 1.5 0  42 1.5 0  42.75 1.5 0  43.5 1.5 0  44.25 1.5 0  45 1.5 0  45.75 1.5 0  46.5 1.5 0  47.25 1.5 0  48 1.5 0  48.75 1.5 0  49.5 1.5 0  50.25 1.5 0  51 1.5 0  51.75 1.5 0  52.5 1.5 0  53.25 1.5 0  54 1.5 0  54.75 1.5 0  55.5 1.5 0  56.25 1.5 0  57 1.5 0  57.75 1.5 0  58.5 1.5 0  59.25 1.5 0  60 1.5 0  0 2 0  0.75 2 0  1.5 2 0  2.25 2 0  3 2 0  3.75 2 0  4.5 2 0  5.25 2 0  6 2 0  6.75 2 0  7.5 2 0  8.25 2 0  9 2 0  9.75 2 0  10.5 2 0  11.25 2 0  12 2 0  12.75 2 0  13.5 2 0  14.25 2 0  15 2 0  15.75 2 0  16.5 2 0  17.25 2 0  18 2 0  18.75 2 0  19.5 2 0  20.25 2 0  21 2 0  21.75 2 0  22.5 2 0  23.25 2 0  24 2 0  24.75 2 0  25.5 2 0  26.25 2 0  27 2 0  27.75 2 0  28.5 2 0  29.25 2 0  30 2 0  30.75 2 0  31.5 2 0  32.25 2 0  33 2 0  33.75 2 0  34.5 2 0  35.25 2 0  36 2 0  36.75 2 0  37.5 2 0  38.25 2 0  39 2 0  39.75 2 0  40.5 2 0  41.25 2 0  42 2 0  42.75 2 0  43.5 2 0  44.25 2 0  45 2 0  45.75 2 0  46.5 2 0  47.25 2 0  48 2 0  48.75 2 0  49.5 2 0  50.25 2 0  51 2 0  51.75 2 0  52.5 2 0  53.25 2 0  54 2 0  54.75 2 0  55.5 2 0  56.25 2 0  57 2 0  57.75 2 0  58.5 2 0  59.25 2 0  60 2 0  0 2.5 0  0.75 2.5 0  1.5 2.5 0  2.25 2.5 0  3 2.5 0  3.75 2.5 0  4.5 2.5 0  5.25 2.5 0  6 2.5 0  6.75 2.5 0  7.5 2.5 0  8.25 2.5 0  9 2.5 0  9.75 2.5 0  10.5 2.5 0  11.25 2.5 0  12 2.5 0  12.75 2.5 0  13.5 2.5 0  14.25 2.5 0  15 2.5 0  15.75 2.5 0  16.5 2.5 0  17.25 2.5 0  18 2.5 0  18.75 2.5 0  19.5 2.5 0  20.25 2.5 0  21 2.5 0  21.75 2.5 0  22.5 2.5 0  23.25 2.5 0  24 2.5 0  24.75 2.5 0  25.5 2.5 0  26.25 2.5 0  27 2.5 0  27.75 2.5 0  28.5 2.5 0  29.25 2.5 0  30 2.5 0  30.75 2.5 0  31.5 2.5 0  32.25 2.5 0  33 2.5 0  33.75 2.5 0  34.5 2.5 0  35.25 2.5 0  36 2.5 0  36.75 2.5 0  37.5 2.5 0  38.25 2.5 0  39 2.5 0  39.75 2.5 0  40.5 2.5 0  41.25 2.5 0  42 2.5 0  42.75 2.5 0  43.5 2.5 0  44.25 2.5 0  45 2.5 0  45.75 2.5 0  46.5 2.5 0  47.25 2.5 0  48 2.5 0  48.75 2.5 0  49.5 2.5 0  50.25 2.5 0  51 2.5 0  51.75 2.5 0  52.5 2.5 0  53.25 2.5 0  54 2.5 0  54.75 2.5 0  55.5 2.5 0  56.25 2.5 0  57 2.5 0  57.75 2.5 0  58.5 2.5 0  59.25 2.5 0  60 2.5 0  0 3 0  0.75 3 0  1.5 3 0  2.25 3 0  3 3 0  3.75 3 0  4.5 3 0  5.25 3 0  6 3 0  6.75 3 0  7.5 3 0  8.25 3 0  9 3 0  9.75 3 0  10.5 3 0  11.25 3 0  12 3 0  12.75 3 0  13.5 3 0  14.25 3 0  15 3 0  15.75 3 0  16.5 3 0  17.25 3 0  18 3 0  18.75 3 0  19.5 3 0  20.25 3 0  21 3 0  21.75 3 0  22.5 3 0  23.25 3 0  24 3 0  24.75 3 0  25.5 3 0  26.25 3 0  27 3 0  27.75 3 0  28.5 3 0  29.25 3 0  30 3 0  30.75 3 0  31.5 3 0  32.25 3 0  33 3 0  33.75 3 0  34.5 3 0  35.25 3 0  36 3 0  36.75 3 0  37.5 3 0  38.25 3 0  39 3 0  39.75 3 0  40.5 3 0  41.25 3 0  42 3 0  42.75 3 0  43.5 3 0  44.25 3 0  45 3 0  45.75 3 0  46.5 3 0  47.25 3 0  48 3 0  48.75 3 0  49.5 3 0  50.25 3 0  51 3 0  51.75 3 0  52.5 3 0  53.25 3 0  54 3 0  54.75 3 0  55.5 3 0  56.25 3 0  57 3 0  57.75 3 0  58.5 3 0  59.25 3 0  60 3 0  0 3.5 0  0.75 3.5 0  1.5 3.5 0  2.25 3.5 0  3 3.5 0  3.75 3.5 0  4.5 3.5 0  5.25 3.5 0  6 3.5 0  6.75 3.5 0  7.5 3.5 0  8.25 3.5 0  9 3.5 0  9.75 3.5 0  10.5 3.5 0  11.25 3.5 0  12 3.5 0  12.75 3.5 0  13.5 3.5 0  14.25 3.5 0  15 3.5 0  15.75 3.5 0  16.5 3.5 0  17.25 3.5 0  18 3.5 0  18.75 3.5 0  19.5 3.5 0  20.25 3.5 0  21 3.5 0  21.75 3.5 0  22.5 3.5 0  23.25 3.5 0  24 3.5 0  24.75 3.5 0  25.5 3.5 0  26.25 3.5 0  27 3.5 0  27.75 3.5 0  28.5 3.5 0  29.25 3.5 0  30 3.5 0  30.75 3.5 0  31.5 3.5 0  32.25 3.5 0  33 3.5 0  33.75 3.5 0  34.5 3.5 0  35.25 3.5 0  36 3.5 0  36.75 3.5 0  37.5 3.5 0  38.25 3.5 0  39 3.5 0  39.75 3.5 0  40.5 3.5 0  41.25 3.5 0  42 3.5 0  42.75 3.5 0  43.5 3.5 0  44.25 3.5 0  45 3.5 0  45.75 3.5 0  46.5 3.5 0  47.25 3.5 0  48 3.5 0  48.75 3.5 0  49.5 3.5 0  50.25 3.5 0  51 3.5 0  51.75 3.5 0  52.5 3.5 0  53.25 3.5 0  54 3.5 0  54.75 3.5 0  55.5 3.5 0  56.25 3.5 0  57 3.5 0  57.75 3.5 0  58.5 3.5 0  59.25 3.5 0  60 3.5 0  0 4 0  0.75 4 0  1.5 4 0  2.25 4 0  3 4 0  3.75 4 0  4.5 4 0  5.25 4 0  6 4 0  6.75 4 0  7.5 4 0  8.25 4 0  9 4 0  9.75 4 0  10.5 4 0  11.25 4 0  12 4 0  12.75 4 0  13.5 4 0  14.25 4 0  15 4 0  15.75 4 0  16.5 4 0  17.25 4 0  18 4 0  18.75 4 0  19.5 4 0  20.25 4 0  21 4 0  21.75 4 0  22.5 4 0  23.25 4 0  24 4 0  24.75 4 0  25.5 4 0  26.25 4 0  27 4 0  27.75 4 0  28.5 4 0  29.25 4 0  30 4 0  30.75 4 0  31.5 4 0  32.25 4 0  33 4 0  33.75 4 0  34.5 4 0  35.25 4 0  36 4 0  36.75 4 0  37.5 4 0  38.25 4 0  39 4 0  39.75 4 0  40.5 4 0  41.25 4 0  42 4 0  42.75 4 0  43.5 4 0  44.25 4 0  45 4 0  45.75 4 0  46.5 4 0  47.25 4 0  48 4 0  48.75 4 0  49.5 4 0  50.25 4 0  51 4 0  51.75 4 0  52.5 4 0  53.25 4 0  54 4 0  54.75 4 0  55.5 4 0  56.25 4 0  57 4 0  57.75 4 0  58.5 4 0  59.25 4 0  60 4 0  0.375 0.25 0  1.125 0.25 0  1.875 0.25 0  2.625 0.25 0  3.375 0.25 0  4.125 0.25 0  4.875 0.25 0  5.625 0.25 0  6.375 0.25 0  7.125 0.25 0  7.875 0.25 0  8.625 0.25 0  9.375 0.25 0  10.125 0.25 0  10.875 0.25 0  11.625 0.25 0  12.375 0.25 0  13.125 0.25 0  13.875 0.25 0  14.625 0.25 0  15.375 0.25 0  16.125 0.25 0  16.875 0.25 0  17.625 0.25 0  18.375 0.25 0  19.125 0.25 0  19.875 0.25 0  20.625 0.25 0  21.375 0.25 0  22.125 0.25 0  22.875 0.25 0  23.625 0.25 0  24.375 0.25 0  25.125 0.25 0  25.875 0.25 0  26.625 0.25 0  27.375 0.25 0  28.125 0.25 0  28.875 0.25 0  29.625 0.25 0  30.375 0.25 0  31.125 0.25 0  31.875 0.25 0  32.625 0.25 0  33.375 0.25 0  34.125 0.25 0  34.875 0.25 0  35.625 0.25 0  36.375 0.25 0  37.125 0.25 0  37.875 0.25 0  38.625 0.25 0  39.375 0.25 0  40.125 0.25 0  40.875 0.25 0  41.625 0.25 0  42.375 0.25 0  43.125 0.25 0  43.875 0.25 0  44.625 0.25 0  45.375 0.25 0  46.125 0.25 0  46.875 0.25 0  47.625 0.25 0  48.375 0.25 0  49.125 0.25 0  49.875 0.25 0  50.625 0.25 0  51.375 0.25 0  52.125 0.25 0  52.875 0.25 0  53.625 0.25 0  54.375 0.25 0  55.125 0.25 0  55.875 0.25 0  56.625 0.25 0  57.375 0.25 0  58.125 0.25 0  58.875 0.25 0  59.625 0.25 0  0.375 0.75 0  1.125 0.75 0  1.875 0.75 0  2.625 0.75 0  3.375 0.75 0  4.125 0.75 0  4.875 0.75 0  5.625 0.75 0  6.375 0.75 0  7.125 0.75 0  7.875 0.75 0  8.625 0.75 0  9.375 0.75 0  10.125 0.75 0  10.875 0.75 0  11.625 0.75 0  12.375 0.75 0  13.125 0.75 0  13.875 0.75 0  14.625 0.75 0  15.375 0.75 0  16.125 0.75 0  16.875 0.75 0  17.625 0.75 0  18.375 0.75 0  19.125 0.75 0  19.875 0.75 0  20.625 0.75 0  21.375 0.75 0  22.125 0.75 0  22.875 0.75 0  23.625 0.75 0  24.375 0.75 0  25.125 0.75 0  25.875 0.75 0  26.625 0.75 0  27.375 0.75 0  28.125 0.75 0  28.875 0.75 0  29.625 0.75 0  30.375 0.75 0  31.125 0.75 0  31.875 0.75 0  32.625 0.75 0  33.375 0.75 0  34.125 0.75 0  34.875 0.75 0  35.625 0.75 0  36.375 0.75 0  37.125 0.75 0  37.875 0.75 0  38.625 0.75 0  39.375 0.75 0  40.125 0.75 0  40
[...]
<PointData  Vectors="f_8-0"> 
<DataArray  type="Float64"  Name="f_8-0"  NumberOfComponents="3" format="ascii">0.0000000000000000e+00 0.0000000000000000e+00 0.0000000000000000e+00  0.0000000000000000e+00 0.0000000000000000e+00 0.0000000000000000e+00  0.0000000000000000e+00 0.0000000000000000e+00 0.0000000000000000e+00  0.0000000000000000e+00 0.0000000000000000e+00 0.0000000000000000e+00  0.0000000000000000e+00 0.0000000000000000e+00 0.0000000000000000e+00  0.0000000000000000e+00 0.0000000000000000e+00 0.0000000000000000e+00  0.0000000000000000e+00 0.0000000000000000e+00 0.0000000000000000e+00  0.0000000000000000e+00 0.0000000000000000e+00 0.0000000000000000e+00  0.0000000000000000e+00 0.0000000000000000e+00 0.0000000000000000e+00  0.0000000000000000e+00 0.0000000000000000e+00 0.0000000000000000e+00  0.0000000000000000e+00 0.0000000000000000e+00 0.0000000000000000e+00  0.0000000000000000e+00 0.0000000000000000e+00 0.0000000000000000e+00  0.0000000000000000e+00 0.0000000000000000e+00 0.0000000000000000e+00  0.0000000000000000e+00 0.0000000000000000e+00 0.0000000000000000e+00  0.0000000000000000e+00 0.0000000000000000e+00 0.0000000000000000e+00  0.0000000000000000e+00 0.0000000000000000e+00 0.0000000000000000e+00  0.0000000000000000e+00 0.0000000000000000e+00 0.0000000000000000e+00  0.0000000000000000e+00 0.0000000000000000e+00 0.0000000000000000e+00  0.0000000000000000e+00 0.0000000000000000e+00 0.0000000000000000e+00  0.0000000000000000e+00 0.0000000000000000e+00 0.0000000000000000e+00  0.0000000000000000e+00 0.0000000000000000e+00 0.0000000000000000e+00  0.0000000000000000e+00 0.0000000000000000e+00 0.0000000000000000e+00  0.0000000000000000e+00 0.0000000000000000e+00 0.0000000000000000e+00  0.0000000000000000e+00 0.0000000000000000e+00 0.0000000000000000e+00  0.0000000000000000e+00 0.0000000000000000e+00 0.0000000000000000e+00  0.0000000000000000e+00 0.0000000000000000e+00 0.0000000000000000e+00  0.0000000000000000e+00 0.0000000000000000e+00 0.0000000000000000e+00  0.0000000000000000e+00 0.0000000000000000e+00 0.0000000000000000e+00  0.0000000000000000e+00 0.0000000000000000e+00 0.0000000000000000e+00  0.0000000000000000e+00 0.0000000000000000e+00 0.0000000000000000e+00  0.0000000000000000e+00 0.0000000000000000e+00 0.0000000000000000e+00  0.0000000000000000e+00 0.0000000000000000e+00 0.0000000000000000e+00  0.0000000000000000e+00 0.0000000000000000e+00 0.0000000000000000e+00  0.0000000000000000e+00 0.0000000000000000e+00 0.0000000000000000e+00  0.0000000000000000e+00 0.0000000000000000e+00 0.0000000000000000e+00  0.0000000000000000e+00 0.0000000000000000e+00 0.0000000000000000e+00  0.0000000000000000e+00 0.0000000000000000e+00 0.0000000000000000e+00  0.0000000000000000e+00 0.0000000000000000e+00 0.0000000000000000e+00  0.0000000000000000e+00 0.0000000000000000e+00 0.0000000000000000e+00  0.0000000000000000e+00 0.0000000000000000e+00 0.0000000000000000e+00  0.0000000000000000e+00 0.0000000000000000e+00 0.0000000000000000e+00  0.0000000000000000e+00 0.0000000000000000e+00 0.0000000000000000e+00  0.0000000000000000e+00 0.0000000000000000e+00 0.0000000000000000e+00  0.0000000000000000e+00 0.0000000000000000e+00 0.0000000000000000e+00  0.0000000000000000e+00 0.0000000000000000e+00 0.0000000000000000e+00  0.0000000000000000e+00 0.0000000000000000e+00 0.0000000000000000e+00  0.0000000000000000e+00 0.0000000000000000e+00 0.0000000000000000e+00  0.0000000000000000e+00 0.0000000000000000e+00 0.0000000000000000e+00  0.0000000000000000e+00 0.0000000000000000e+00 0.0000000000000000e+00  0.0000000000000000e+00 0.0000000000000000e+00 0.0000000000000000e+00  0.0000000000000000e+00 0.0000000000000000e+00 0.0000000000000000e+00  0.0000000000000000e+00 0.0000000000000000e+00 0.0000000000000000e+00  0.0000000000000000e+00 0.0000000000000000e+00 0.0000000000000000e+00  0.0000000000000000e+00 0.0000000000000000e+00 0.0000000000000000e+00  0.0000000000000000e+00 0.0000000000000000e+00 0.0000000000000000e+00  0.0000000000000000e+00 0.0000000000000000e+00 0.0000000000000000e+00  0.0000000000000000e+00 0.0000000000000000e+00 0.0000000000000000e+00  0.0000000000000000e+00 0.0000000000000000e+00 0.0000000000000000e+00  0.0000000000000000e+00 0.0000000000000000e+00 0.0000000000000000e+00  0.0000000000000000e+00 0.0000000000000000e+00 0.0000000000000000e+00  0.0000000000000000e+00 0.0000000000000000e+00 0.0000000000000000e+00  0.0000000000000000e+00 0.0000000000000000e+00 0.0000000000000000e+00  0.0000000000000000e+00 0.0000000000000000e+00 0.0000000000000000e+00  0.0000000000000000e+00 0.0000000000000000e+00 0.0000000000000000e+00  0.0000000000000000e+00 0.0000000000000000e+00 0.0000000000000000e+00  0.0000000000000000e+00 0.0000000000000000e+00 0.0000000000000000e+00  0.0000000000000000e+00 0.0000000000000000e+00 0.0000000000000000e+00  0.0000000000000000e+00 0.0000000000000000e+00 0.0000000000000000e+00  0.0000000000000000e+00 0.0000000000000000e+00 0.0000000000000000e+00  0.0000000000000000e+00 0.0000000000000000e+00 0.0000000000000000e+00  0.0000000000000000e+00 0.0000000000000000e+00 0.0000000000000000e+00  0.0000000000000000e+00 0.0000000000000000e+00 0.0000000000000000e+00  0.0000000000000000e+00 0.0000000000000000e+00 0.0000000000000000e+00  0.0000000000000000e+00 0.0000000000000000e+00 0.0000000000000000e+00  0.0000000000000000e+00 0.0000000000000000e+00 0.0000000000000000e+00  0.0000000000000000e+00 0.0000000000000000e+00 0.0000000000000000e+00  0.0000000000000000e+00 0.0000000000000000e+00 0.0000000000000000e+00  0.0000000000000000e+00 0.0000000000000000e+00 0.0000000000000000e+00  0.0000000000000000e+00 0.0000000000000000e+00 0.0000000000000000e+00  0.0000000000000000e+00 0.0000000000000000e+00 0.0000000000000000e+00  0.0000000000000000e+00 0.0000000000000000e+00 0.0000000000000000e+00  2.2134871982200835e+01 0.0000000000000000e+00 0.0000000000000000e+00  2.2116603706275697e+01 7.8518313389301847e-02 0.0000000000000000e+00  2.2112709174856338e+01 2.4184372631490047e-02 0.0000000000000000e+00  2.2095219994478668e+01 5.0099639312727569e-03 0.0000000000000000e+00  2.2092838087178794e+01 4.9214717542638642e-03 0.0000000000000000e+00  2.2094738804730984e+01 4.8176261657183594e-03 0.0000000000000000e+00  2.2093679653161320e+01 4.9001982888221881e-03 0.0000000000000000e+00  2.2094495539450381e+01 4.9711660250092689e-03 0.0000000000000000e+00  2.2094174312283442e+01 4.9563296871925544e-03 0.0000000000000000e+00  2.2094363684853800e+01 4.9743384551035425e-03 0.0000000000000000e+00  2.2094305975561994e+01 4.9720143981056460e-03 0.0000000000000000e+00  2.2094339197235385e+01 4.9750072401931267e-03 0.0000000000000000e+00  2.2094332195837708e+01 4.9750785591671735e-03 0.0000000000000000e+00  2.2094337413370557e+01 4.9755777561456601e-03 0.0000000000000000e+00  2.2094336986410244e+01 4.9756912340399497e-03 0.0000000000000000e+00  2.2094337827648872e+01 4.9757903688309969e-03 0.0000000000000000e+00  2.2094337902670667e+01 4.9758290733481819e-03 0.0000000000000000e+00  2.2094338055742060e+01 4.9758518213960318e-03 0.0000000000000000e+00  2.2094338096054276e+01 4.9758624471373560e-03 0.0000000000000000e+00  2.2094338128056407e+01 4.9758680115653863e-03 0.0000000000000000e+00  2.2094338140485270e+01 4.9758707464164775e-03 0.0000000000000000e+00  2.2094338147881651e+01 4.9758721331211947e-03 0.0000000000000000e+00  2.2094338151253137e+01 4.9758728267548106e-03 0.0000000000000000e+00  2.2094338153058374e+01 4.9758731790132014e-03 0.0000000000000000e+00  2.2094338153934402e+01 4.9758733532647530e-03 0.0000000000000000e+00  2.2094338154384666e+01 4.9758734435811219e-03 0.0000000000000000e+00  2.2094338154605985e+01 4.9758734917831060e-03 0.0000000000000000e+00  2.2094338154719033e+01 4.9758735055448200e-03 0.0000000000000000e+00  2.2094338154780861e+01 4.9758735180439554e-03 0.0000000000000000e+00  2.2094338154807296e+01 4.9758735297659685e-03 0.0000000000000000e+00  2.2094338154825969e+01 4.9758735259617217e-03 0.0000000000000000e+00  2.2094338154835555e+01 4.9758735313006055e-03 0.0000000000000000e+00  2.2094338154840759e+01 4.9758735346297723e-03 0.0000000000000000e+00  2.2094338154841278e+01 4.9758735345683544e-03 0.0000000000000000e+00  2.2094338154841434e+01 4.9758735316935516e-03 0.0000000000000000e+00  2.2094338154843001e+01 4.9758735327312042e-03 0.0000000000000000e+00  2.2094338154841605e+01 4.9758735324663302e-03 0.0000000000000000e+00  2.2094338154846735e+01 4.9758735345414246e-03 0.0000000000000000e+00  2.2094338154846636e+01 4.9758735325801115e-03 0.0000000000000000e+00  2.2094338154847673e+01 4.9758735333063787e-03 0.0000000000000000e+00  2.2094338154847136e+01 4.9758735340386861e-03 0.0000000000000000e+00  2.2094338154849808e+01 4.9758735293745906e-03 0.0000000000000000e+00  2.2094338154849424e+01 4.9758735331980799e-03 0.0000000000000000e+00  2.2094338154858608e+01 4.9758735258070477e-03 0.0000000000000000e+00  2.2094338154866712e+01 4.9758735311897818e-03 0.0000000000000000e+00  2.2094338154895652e+01 4.9758735071337044e-03 0.0000000000000000e+00  2.2094338154936239e+01 4.9758735171055463e-03 0.0000000000000000e+00  2.2094338155047442e+01 4.9758734362682824e-03 0.0000000000000000e+00  2.2094338155253254e+01 4.9758734187802991e-03 0.0000000000000000e+00  2.2094338155694921e+01 4.9758731776123385e-03 0.0000000000000000e+00  2.2094338156596823e+01 4.9758729641821622e-03 0.0000000000000000e+00  2.2094338158451205e+01 4.9758721442384390e-03 0.0000000000000000e+00  2.2094338162280977e+01 4.9758709974622476e-03 0.0000000000000000e+00  2.2094338169978421e+01 4.9758679987651506e-03 0.0000000000000000e+00  2.2094338185839646e+01 4.9758627767045559e-03 0.0000000000000000e+00  2.2094338217530172e+01 4.9758512024681732e-03 0.0000000000000000e+00  2.2094338282315313e+01 4.9758289658039974e-03 0.0000000000000000e+00  2.2094338411587440e+01 4.9757826197840294e-03 0.0000000000000000e+00  2.2094338674181387e+01 4.9756891395602186e-03 0.0000000000000000e+00  2.2094339200865068e+01 4.9754930080214820e-03 0.0000000000000000e+00  2.2094340286358104e+01 4.9750669772237856e-03 0.0000000000000000e+00  2.2094342580374548e+01 4.9740844449948892e-03 0.0000000000000000e+00  2.2094347755668149e+01 4.9716879933752707e-03 0.0000000000000000e+00  2.2094360117565589e+01 4.9657289175292548e-03 0.0000000000000000e+00  2.2094390847615340e+01 4.9512506003187287e-03 0.0000000000000000e+00  2.2094466396941112e+01 4.9185051585053149e-03 0.0000000000000000e+00  2.2094642716294224e+01 4.8519520913527722e-03 0.0000000000000000e+00  2.2095018552352634e+01 4.7356595576568692e-03 0.0000000000000000e+00  2.2095728707822758e+01 4.5705607220594682e-03 0.0000000000000000e+00  2.2096878576971147e+01 4.4011383538686564e-03 0.0000000000000000e+00  2.2098419576343641e+01 4.3139267919952594e-03 0.0000000000000000e+00  2.2100075540100821e+01 4.3729163526488252e-03 0.0000000000000000e+00  2.2101494456640257e+01 4.5570135872269870e-03 0.0000000000000000e+00  2.2102423156345466e+01 4.8543068886783237e-03 0.0000000000000000e+00  2.2102556962252944e+01 5.3461742326885841e-03 0.0000000000000000e+00  2.2101364587076450e+01 6.1132962449844033e-03 0.0000000000000000e+00  2.2098193961839158e+01 7.1471117827226890e-03 0.0000000000000000e+00  2.2092223555823175e+01 8.3176673822925075e-03 0.0000000000000000e+00  2.2082088967161450e+01 8.8317263759677932e-03 0.0000000000000000e+00  2.2061316032776823e+01 5.3344185735924223e-03 0.0000000000000000e+00  2.2037090577473979e+01 0.0000000000000000e+00 0.0000000000000000e+00  2.0542973162677054e+01 0.0000000000000000e+00 0.0000000000000000e+00  2.0478216642031963e+01 -1.0752029604171782e-02 0.0000000000000000e+00  2.0529854134239130e+01 1.2948163418384617e-02 0.0000000000000000e+00  2.0532921307690486e+01 8.5688080909359070e-04 0.0000000000000000e+00  2.0534580860129861e+01 -7.0743497447153271e-04 0.0000000000000000e+00  2.0533485721131765e+01 -1.8956265250437397e-03 0.0000000000000000e+00  2.0534080955749818e+01 -1.1583608040975041e-03 0.0000000000000000e+00  2.0533827635235049e+01 -1.4180659405319395e-03 0.0000000000000000e+00  2.0533998390660877e+01 -1.2488366508923545e-03 0.0000000000000000e+00  2.0533946617381659e+01 -1.2888598953770401e-03 0.0000000000000000e+00  2.0533981957031560e+01 -1.2601666898096628e-03 0.0000000000000000e+00  2.0533974632265963e+01 -1.2636581581720568e-03 0.0000000000000000e+00  2.0533980970079050e+01 -1.2590165665074800e-03 0.0000000000000000e+00  2.0533980449681685e+01 -1.2588138559105962e-03 0.0000000000000000e+00  2.0533981565198225e+01 -1.2579801458707065e-03 0.0000000000000000e+00  2.0533981654061179e+01 -1.2577861083863178e-03 0.0000000000000000e+00  2.0533981865771601e+01 -1.2576119810070847e-03 0.0000000000000000e+00  2.0533981918084844e+01 -1.2575465537088902e-03 0.0000000000000000e+00  2.0533981962863347e+01 -1.2575061397404460e-03 0.0000000000000000e+00  2.0533981979603119e+01 -1.2574879229760075e-03 0.0000000000000000e+00  2.0533981989902024e+01 -1.2574780753110781e-03 0.0000000000000000e+00  2.0533981994491114e+01 -1.2574733490514375e-03 0.0000000000000000e+00  2.0533981996999124e+01 -1.2574708895589793e-03 0.0000000000000000e+00  2.0533981998201771e+01 -1.2574696764086069e-03 0.0000000000000000e+00  2.0533981998829546e+01 -1.2574690488510718e-03 0.0000000000000000e+00  2.0533981999128766e+01 -1.2574687441712087e-03 0.0000000000000000e+00  2.0533981999292799e+01 -1.2574685778275303e-03 0.0000000000000000e+00  2.0533981999356751e+01 -1.2574685133741664e-03 0.0000000000000000e+00  2.0533981999391230e+01 -1.2574684862293858e-03 0.0000000000000000e+00  2.0533981999423311e+01 -1.2574684456757425e-03 0.0000000000000000e+00  2.0533981999424466e+01 -1.2574684474698109e-03 0.0000000000000000e+00  2.0533981999434257e+01 -1.2574684430635423e-03 0.0000000000000000e+00  2.0533981999441043e+01 -1.2574684408429703e-03 0.0000000000000000e+00  2.0533981999453058e+01 -1.2574684269580651e-03 0.0000000000000000e+00  2.0533981999446496e+01 -1.2574684345292484e-03 0.0000000000000000e+00  2.0533981999446208e+01 -1.2574684297142894e-03 0.0000000000000000e+00  2.0533981999444958e+01 -1.2574684400833331e-03 0.0000000000000000e+00  2.0533981999446450e+01 -1.2574684306905556e-03 0.0000000000000000e+00  2.0533981999446958e+01 -1.2574684342606017e-03 0.0000000000000000e+00  2.0533981999445700e+01 -1.2574684403255530e-03 0.0000000000000000e+00  2.0533981999456500e+01 -1.2574684343798711e-03 0.0000000000000000e+00  2.0533981999455435e+01 -1.2574684304040313e-03 0.0000000000000000e+00  2.0533981999455342e+01 -1.2574684398911193e-03 0.0000000000000000e+00  2.0533981999453555e+01 -1.2574684342698485e-03 0.0000000000000000e+00  2.0533981999460984e+01 -1.2574684540931640e-03 0.0000000000000000e+00  2.0533981999468775e+01 -1.2574684680305090e-03 0.0000000000000000e+00  2.0533981999500920e+01 -1.2574684999292851e-03 0.0000000000000000e+00  2.0533981999543304e+01 -1.2574686002365483e-03 0.0000000000000000e+00  2.0533981999654920e+01 -1.2574687241734034e-03 0.0000000000000000e+00  2.0533981999878403e+01 -1.2574691416200954e-03 0.0000000000000000e+00  2.0533982000318922e+01 -1.2574697071288028e-03 0.0000000000000000e+00  2.0533982001296710e+01 -1.2574713713257187e-03 0.0000000000000000e+00  2.0533982003144043e+01 -1.2574739077906439e-03 0.0000000000000000e+00  2.0533982007239278e+01 -1.2574803771944008e-03 0.0000000000000000e+00  2.0533982014940467e+01 -1.2574914099244671e-03 0.0000000000000000e+00  2.0533982031516462e+01 -1.2575167994458055e-03 0.0000000000000000e+00  2.0533982063218566e+01 -1.2575632919896312e-03 0.0000000000000000e+00  2.0533982129499805e+01 -1.2576644232105431e-03 0.0000000000000000e+00  2.0533982258353284e+01 -1.2578592616259397e-03 0.0000000000000000e+00  2.0533982523478944e+01 -1.2582787191700445e-03 0.0000000000000000e+00  2.0533983050311118e+01 -1.2591523406561495e-03 0.0000000000000000e+00  2.0533984158728984e+01 -1.2611750296928842e-03 0.0000000000000000e+00  2.0533986556748125e+01 -1.2659940832551290e-03 0.0000000000000000e+00  2.0533992231780193e+01 -1.2781328069084786e-03 0.0000000000000000e+00  2.0534006339329512e+01 -1.3079873751343800e-03 0.0000000000000000e+00  2.0534042230002964e+01 -1.3777677248967659e-03 0.0000000000000000e+00  2.0534130018998869e+01 -1.5249214086243213e-03 0.0000000000000000e+00  2.0534328962898478e+01 -1.7959568325515232e-03 0.0000000000000000e+00  2.0534727385387757e+01 -2.2044806341219260e-03 0.0000000000000000e+00  2.0535397544190662e+01 -2.6555710819037392e-03 0.0000000000000000e+00  2.0536283011131108e+01 -2.9133392986006187e-03 0.0000000000000000e+00  2.0537167613615647e+01 -2.8020262158970763e-03 0.0000000000000000e+00  2.0537904434569516e+01 -2.4228018450847193e-03 0.0000000000000000e+00  2.0538543624680486e+01 -1.8540967191208379e-03 0.0000000000000000e+00  2.0539040354191808e+01 -8.8223722110735282e-04 0.0000000000000000e+00  2.0539312444538336e+01 6.2399799635422433e-04 0.0000000000000000e+00  2.0539262679797567e+01 2.8000011579750023e-03 0.0000000000000000e+00  2.0538618729433505e+01 5.7565045579626110e-03 0.0000000000000000e+00  2.0536720333549077e+01 9.7727303899800833e-03 0.0000000000000000e+00  2.0533478637613619e+01 1.4940947247729101e-02 0.0000000000000000e+00  2.0528083866990794e+01 0.0000000000000000e+00 0.0000000000000000e+00  1.7301811895250779e+01 0.0000000000000000e+00 0.0000000000000000e+00  1.7298222781283446e+01 1.2742389102119184e-03 0.0000000000000000e+00  1.7301628131741445e+01 -8.7588583313797340e-04 0.0000000000000000e+00  1.7307649192582875e+01 6.5309161004203128e-04 0.0000000000000000e+00  1.7307470415223026e+01 -1.3011377853721646e-03 0.0000000000000000e+00  1.7307665012307279e+01 -1.1019946918888503e-03 0.0000000000000000e+00  1.7307339724226718e+01 -1.2732138287053344e-03 0.0000000000000000e+00  1.7307336608282089e+01 -1.1281530120891968e-03 0.0000000000000000e+00  1.7307259147111328e+01 -1.1488692479447961e-03 0.0000000000000000e+00  1.7307253221751594e+01 -1.1162371289457048e-03 0.0000000000000000e+00  1.7307236058905367e+01 -1.1171881065708213e-03 0.0000000000000000e+00  1.7307233028787476e+01 -1.1107527394536481e-03 0.0000000000000000e+00  1.7307229172528839e+01 -1.1100101678218647e-03 0.0000000000000000e+00  1.7307228058399538e+01 -1.1086920064247044e-03 0.0000000000000000e+00  1.7307227161641276e+01 -1.1083322920729080e-03 0.0000000000000000e+00  1.7307226819284288e+01 -1.1080371384167066e-03 0.0000000000000000e+00  1.7307226603998021e+01 -1.1079215904443052e-03 0.0000000000000000e+00  1.7307226508905064e+01 -1.1078509484724352e-03 0.0000000000000000e+00  1.7307226456103653e+01 -1.1078187313086334e-03 0.0000000000000000e+00  1.7307226431070699e+01 -1.1078012865617277e-03 0.0000000000000000e+00  1.7307226417953508e+01 -1.1077928383398032e-03 0.0000000000000000e+00  1.7307226411523679e+01 -1.1077884944248135e-03 0.0000000000000000e+00  1.7307226408226420e+01 -1.1077863296842711e-03 0.0000000000000000e+00  1.7307226406589876e+01 -1.1077852354992330e-03 0.0000000000000000e+00  1.7307226405755827e+01 -1.1077846791511965e-03 0.0000000000000000e+00  1.7307226405342512e+01 -1.1077844035014873e-03 0.0000000000000000e+00  1.7307226405128940e+01 -1.1077842583800293e-03 0.0000000000000000e+00  1.7307226405026853e+01 -1.1077841948657135e-03 0.0000000000000000e+00  1.7307226404970667e+01 -1.1077841661551598e-03 0.0000000000000000e+00  1.7307226404944700e+01 -1.1077841409340098e-03 0.0000000000000000e+00  1.7307226404925437e+01 -1.1077841366465037e-03 0.0000000000000000e+00  1.7307226404921291e+01 -1.1077841384258718e-03 0.0000000000000000e+00  1.7307226404913102e+01 -1.1077841314019602e-03 0.0000000000000000e+00  1.7307226404910082e+01 -1.1077841249856224e-03 0.0000000000000000e+00  1.7307226404913536e+01 -1.1077841251417202e-03 0.0000000000000000e+00  1.7307226404911972e+01 -1.1077841244572799e-03 0.0000000000000000e+00  1.7307226404914079e+01 -1.1077841283171435e-03 0.0000000000000000e+00  1.7307226404910026e+01 -1.1077841254267071e-03 0.0000000000000000e+00  1.7307226404910363e+01 -1.1077841279193553e-03 0.0000000000000000e+00  1.7307226404910743e+01 -1.1077841307192114