<?xml version="1.0"?>
<VTKFile type="UnstructuredGrid"  version="0.1"  >
<UnstructuredGrid>
<Piece  NumberOfPoints="289" NumberOfCells="512">
<Points>
<DataArray  type="Float64"  NumberOfComponents="3"  format="ascii">0 0 0  0.0625 0 0  0.125 0 0  0.1875 0 0  0.25 0 0  0.3125 0 0  0.375 0 0  0.4375 0 0  0.5 0 0  0.5625 0 0  0.625 0 0  0.6875 0 0  0.75 0 0  0.8125 0 0  0.875 0 0  0.9375 0 0  1 0 0  0 0.0625 0  0.06261723799094387 0.06247148690558922 0  0.1252383884862761 0.06244237390321969 0  0.1878675131668079 0.06241208461062318 0  0.2505088454158442 0.06238012101945635 0  0.3131668813417179 0.06234611657817341 0  0.3758464800220678 0.06230990526857334 0  0.4385529944905498 0.06227160825745385 0  0.5012924881675626 0.06223173318294591 0  0.5640721722405129 0.06219126738097939 0  0.6269014034601685 0.06215171814557885 0  0.6897941237416888 0.06211499366939214 0  0.7527751495901234 0.0620828803435961 0  0.8158972718287891 0.06205549726633416 0  0.8792903920990781 0.062026907241318 0  0.9433107515470409 0.06197176027455235 0  1.00902344575163 0.06180182502009765 0  0 0.125 0  0.06273066227686148 0.1249435431842794 0  0.1254691142092741 0.1248858448656878 0  0.1882234485683592 0.124825705604072 0  0.2510021253878852 0.1247620708394393 0  0.3138141666987701 0.124694132733896 0  0.3766693671158338 0.1246214673917765 0  0.4395785522041136 0.124544214611694 0  0.5025539607927821 0.1244632979673727 0  0.5656099251451273 0.1243806627409112 0  0.6287642351769557 0.1242994697494956 0  0.6920410198295152 0.1242241144857826 0  0.7554768454089807 0.1241598458113603 0  0.8191330247089151 0.1241117295686096 0  0.8831170240141788 0.1240832970634204 0  0.9476025372412447 0.1240791348043104 0  1.012755985951402 0.1241343269542326 0  0 0.1875 0  0.06283636636313064 0.1874168235139426 0  0.1256842696649331 0.1873316915548075 0  0.1885557012579374 0.1872426991257156 0  0.2514632367398942 0.187148127866461 0  0.3144203421097755 0.1870465860001908 0  0.3774416930938991 0.1869372074609105 0  0.4405435311619995 0.1868199291154882 0  0.5037441069039921 0.1866958584822371 0  0.5670643104809477 0.1865677264317354 0  0.6305286622340781 0.1864403794511598 0  0.6941668932723736 0.1863211867593662 0  0.7580161626852905 0.1862200881968273 0  0.8221226967323028 0.186148710569546 0  0.8865367793121188 0.1861171971763682 0  0.9512811077787505 0.1861243968126222 0  1.016247584250732 0.1861232279454657 0  0 0.25 0  0.06293059717372426 0.2498920527889748 0  0.1258762428537765 0.2497813457022788 0  0.1888525823250612 0.2496651620628773 0  0.2518760834524197 0.249540974454577 0  0.3149644640594023 0.2494066029609844 0  0.3781371261220629 0.2492604585790018 0  0.4414156027219824 0.2491019085184056 0  0.504824023341488 0.2489318032093658 0  0.5683895893565691 0.2487532006572217 0  0.6321429869729736 0.2485723013571783 0  0.696118440863622 0.2483995451457187 0  0.7603524503247535 0.2482506796142672 0  0.824878549317928 0.2481473106384718 0  0.8897118015979053 0.2481158614358492 0  0.9548115067935129 0.2481830225458927 0  1.020011885918337 0.2483668382395487 0  0 0.3125 0  0.06300985345432747 0.3123700424107503 0  0.1260379140295076 0.3122364315120573 0  0.1891031138075138 0.3120955289364518 0  0.2522254674347839 0.3119438347867424 0  0.315426636400573 0.3117781329823036 0  0.3787305024500664 0.3115957440077088 0  0.4421637455240944 0.3113949424897882 0  0.505756403433553 0.3111756159917651 0  0.5695423420742092 0.3109402627669182 0  0.6335594414538595 0.3106954422651212 0  0.6978490080415611 0.3104537829654941 0  0.762453285349397 0.3102365729465268 0  0.8274087529626765 0.3100767251338998 0  0.8927313604789198 0.3100214090483036 0  0.9583899446608741 0.3101328776040971 0  1.024272607265378 0.310485473785875 0  0 0.375 0  0.06307099424836345 0.3748516871869428 0  0.1261628727682594 0.3746987658416957 0  0.1892973535061591 0.3745365895510527 0  0.2524975140953862 0.3743605354998742 0  0.3157885112871227 0.3741660945745057 0  0.379198330611649 0.3739490783637902 0  0.4427585698512531 0.3737060179383974 0  0.5065052446496959 0.3734348674546574 0  0.5704795657937344 0.373136181295525 0  0.6347285443641989 0.3728150075234153 0  0.6993050758975455 0.372483821409606 0  0.7642667624613135 0.3721668647720967 0  0.8296721486715959 0.3719061406892693 0  0.8955726755258531 0.3717688196093246 0  0.9620000786377699 0.3718547356475169 0  1.028955713478598 0.3723012389873888 0  0 0.4375 0  0.06311136047613063 0.4373379368216924 0  0.1262456633098433 0.4371703054868364 0  0.1894267676444115 0.4369914225569863 0  0.252680172661538 0.4367954470608476 0  0.3160339039039398 0.4365763660745021 0  0.3795194712892802 0.4363280841385718 0  0.4431729312102757 0.4360446972145143 0  0.5070360946323663 0.4357210870047419 0  0.5711579374431389 0.435354062558505 0  0.6355962851064733 0.4349444202600543 0  0.7004198490885581 0.4345005034642727 0  0.7657106690015155 0.4340440960477403 0  0.831566978652338 0.4336196346378146 0  0.8981066969991039 0.4333073544064966 0  0.9654731055557001 0.4332393953404841 0  1.033849620012847 0.4336150555466727 0  0 0.5 0  0.06312890963000352 0.49982973814828 0  0.1262820600295227 0.4996530317280385 0  0.1894846596682108 0.4994632242486983 0  0.2527638162449481 0.4992532655089711 0  0.316149584728332 0.4990155454522244 0  0.3796761405932031 0.4987417890652291 0  0.443383151454791 0.4984230787795163 0  0.5073174689042097 0.4980501326300232 0  0.5715353620563026 0.4976140803581078 0  0.6361057075047203 0.4971081862356936 0  0.7011148966236472 0.4965313289321775 0  0.7666747770652091 0.4958946290500439 0  0.8329357097211266 0.4952333503130491 0  0.9001077114966105 0.4946264508468851 0  0.9684939608934369 0.4942237779341738 0  1.038546117916034 0.494271910728233 0  0 0.5625 0  0.06312235806003939 0.5623279484496793 0  0.1262693627105183 0.5621487708006062 0  0.1894666414570131 0.5619550247626641 0  0.2527419273174398 0.5617386106859885 0  0.3161262398213048 0.561490421538505 0  0.3796552419804616 0.5611999810669612 0  0.4433708827833984 0.5608550974082647 0  0.507323520557318 0.5604416092328336 0  0.5715749135546596 0.5599434072418786 0  0.6362028743474893 0.5593431377138343 0  0.7013092152307371 0.55862446678652 0  0.7670341441110927 0.5577777550786395 0  0.833582698154236 0.5568128185722275 0  0.9012717586192684 0.555784977629013 0  0.9706086002808386 0.5548402201728697 0  1.042415922352592 0.554270254426419 0  0 0.625 0  0.06309131872166274 0.6248332262546474 0  0.1262066866363938 0.6246589620035612 0  0.1893711066655721 0.6244693058657464 0  0.2526118072625797 0.6242554509054203 0  0.3159595042577378 0.6240071476989847 0  0.3794498727368025 0.6237120625361557 0  0.4431253528642829 0.6233549968926425 0  0.5070375115944512 0.6229169496898608 0  0.571250421803546 0.6223740559122402 0  0.6358461009790499 0.6216965857279357 0  0.7009344109419696 0.6208486045971963 0  0.7666728001707162 0.6197900364885073 0  0.833307068365739 0.6184859447765395 0  0.9012531610496106 0.6169352759447786 0  0.9712473308022588 0.6152417699562559 0  1.044592911669755 0.6137271139880733 0  0 0.6875 0  0.06303641656896636 0.6873459129112934 0  0.1260952100925439 0.6871844008074356 0  0.1891996442447087 0.6870075628637539 0  0.2523752124063506 0.6868064118940176 0  0.3156509113746766 0.6865701870517092 0  0.3790607372633243 0.6862854687833045 0  0.4426455123109985 0.6859349926885677 0  0.506455217556331 0.685496024313257 0  0.5705521918569461 0.6849381162589976 0  0.6350160989410581 0.6842200445953575 0  0.6999531284439346 0.6832858107567649 0  0.7655162392965844 0.6820602053819083 0  0.831954435559479 0.6804472737869314 0  0.8997334982733397 0.6783472833441936 0  0.9697996254097627 0.675756176148853 0  1.044062017777166 0.6730728029160647 0  0 0.75 0  0.06295936080442478 0.7498659243009539 0  0.1259383356302955 0.7497249987260162 0  0.1889573207145423 0.7495698811305301 0  0.2520388070084092 0.749392079240621 0  0.3152085875809212 0.7491811907623808 0  0.3784971838718996 0.7489238792051131 0  0.4419415672051028 0.7486024258099485 0  0.5055872490844305 0.7481926164944381 0  0.5694908244544749 0.7476605889540061 0  0.6337231987194308 0.746958041397655 0  0.6983745648739013 0.7460148198993284 0  0.7635658767984003 0.7447272566119005 0  0.829485795367044 0.7429399108112925 0  0.896522265604814 0.7404208409000219 0  0.9657080066263587 0.7368660676515119 0  1.039534198791965 0.7323920380572989 0  0 0.8125 0  0.06286295400053253 0.8123926751649947 0  0.1257417232938355 0.8122796099526753 0  0.1886527647360193 0.8121546159240418 0  0.2516143386079149 0.81201044152007 0  0.3146475646119172 0.8118380482577002 0  0.3777776872323297 0.8116256056128061 0  0.4410356053889576 0.8113570225464312 0  0.5044596585501514 0.8110097287083352 0  0.5680974733261444 0.8105512399922756 0  0.6320072096446914 0.8099337312829071 0  0.6962566192176153 0.8090852496976609 0  0.760917352288928 0.8078949240632763 0  0.8260558267783753 0.8061863523048187 0  0.8917607293987115 0.8036654236416449 0  0.9584933115589086 0.7998169949114027 0  1.029905311374695 0.7937990048966721 0  0 0.875 0  0.06275102277801739 0.8749250568760419 0  0.1255131632842534 0.8748459723482878 0  0.1882980030032574 0.8747582632194745 0  0.2511184701007929 0.8746566270683118 0  0.3139896477550911 0.8745343729146289 0  0.376929770793118 0.8743826145447351 0  0.4399614694245385 0.8741890660895687 0  0.5031132586784698 0.8739361813919551 0  0.5664210366027954 0.8735982140267365 0  0.6299285871874264 0.8731365039541722 0  0.6936837814990837 0.8724918432206865 0  0.7577206857547154 0.8715718388922093 0  0.822001239193615 0.8702280132330962 0  0.8862572151446726 0.8682020898010674 0  0.9496613983693725 0.8649486914875804 0  1.010598098973085 0.8589264753332831 0  0 0.9375 0  0.06262826263897468 0.9374614823508355 0  0.1252622701923423 0.9374207952088912 0  0.1879080155904044 0.9373755842594217 0  0.2505722240548585 0.9373230495627057 0  0.3132628063305433 0.9372596318668367 0  0.3759894395798948 0.9371805622792978 0  0.4387643342719977 0.937079179378
[...]
<PointData  Vectors="f_54"> 
<DataArray  type="Float64"  Name="f_54"  NumberOfComponents="3" format="ascii">0.0000000000000000e+00 0.0000000000000000e+00 0.0000000000000000e+00  0.0000000000000000e+00 0.0000000000000000e+00 0.0000000000000000e+00  0.0000000000000000e+00 0.0000000000000000e+00 0.0000000000000000e+00  0.0000000000000000e+00 0.0000000000000000e+00 0.0000000000000000e+00  0.0000000000000000e+00 0.0000000000000000e+00 0.0000000000000000e+00  0.0000000000000000e+00 0.0000000000000000e+00 0.0000000000000000e+00  0.0000000000000000e+00 0.0000000000000000e+00 0.0000000000000000e+00  0.0000000000000000e+00 0.0000000000000000e+00 0.0000000000000000e+00  0.0000000000000000e+00 0.0000000000000000e+00 0.0000000000000000e+00  0.0000000000000000e+00 0.0000000000000000e+00 0.0000000000000000e+00  0.0000000000000000e+00 0.0000000000000000e+00 0.0000000000000000e+00  0.0000000000000000e+00 0.0000000000000000e+00 0.0000000000000000e+00  0.0000000000000000e+00 0.0000000000000000e+00 0.0000000000000000e+00  0.0000000000000000e+00 0.0000000000000000e+00 0.0000000000000000e+00  0.0000000000000000e+00 0.0000000000000000e+00 0.0000000000000000e+00  0.0000000000000000e+00 0.0000000000000000e+00 0.0000000000000000e+00  0.0000000000000000e+00 0.0000000000000000e+00 0.0000000000000000e+00  0.0000000000000000e+00 0.0000000000000000e+00 0.0000000000000000e+00  1.8980994931395636e-06 -1.1317301610808331e-07 0.0000000000000000e+00  3.8783416107611249e-06 -2.3152525272002556e-07 0.0000000000000000e+00  6.0290794247942445e-06 -3.6066998357969808e-07 0.0000000000000000e+00  8.4480912600545342e-06 -5.0692015328494380e-07 0.0000000000000000e+00  1.1248383723793324e-05 -6.7772780537351882e-07 0.0000000000000000e+00  1.4565413982618602e-05 -8.8223685640318871e-07 0.0000000000000000e+00  1.8566794246315934e-05 -1.1320215028944151e-06 0.0000000000000000e+00  2.3466572363418998e-05 -1.4421501155125271e-06 0.0000000000000000e+00  2.9548749827063313e-05 -1.8329123285300187e-06 0.0000000000000000e+00  3.7211449143914721e-05 -2.3331661318927753e-06 0.0000000000000000e+00  4.7061969489797730e-05 -2.9882888952068059e-06 0.0000000000000000e+00  6.0148911304045092e-05 -3.8826225406670672e-06 0.0000000000000000e+00  7.8595262918435696e-05 -5.2108394556606449e-06 0.0000000000000000e+00  1.0750305798944146e-04 -7.5243178020029605e-06 0.0000000000000000e+00  1.6127993385324250e-04 -1.2649555637599467e-05 0.0000000000000000e+00  2.8790596891940085e-04 -2.7582992894041089e-05 0.0000000000000000e+00  0.0000000000000000e+00 0.0000000000000000e+00 0.0000000000000000e+00  3.7196936145732754e-06 -2.2150413028354393e-07 0.0000000000000000e+00  7.6005157122549998e-06 -4.5311842389514836e-07 0.0000000000000000e+00  1.1815629586011923e-05 -7.0578957420445391e-07 0.0000000000000000e+00  1.6556733390286409e-05 -9.9182963332656678e-07 0.0000000000000000e+00  2.2045383484084670e-05 -1.3257725848713222e-06 0.0000000000000000e+00  2.8546884196116522e-05 -1.7254442099851760e-06 0.0000000000000000e+00  3.6388394233918552e-05 -2.2133560056394064e-06 0.0000000000000000e+00  4.5984128114000588e-05 -2.8185863136531113e-06 0.0000000000000000e+00  5.7873256783232237e-05 -3.5794262070983976e-06 0.0000000000000000e+00  7.2782248697264546e-05 -4.5473294817210234e-06 0.0000000000000000e+00  9.1737050045862615e-05 -5.7932464190894566e-06 0.0000000000000000e+00  1.1627902425424396e-04 -7.4180252220556740e-06 0.0000000000000000e+00  1.4888675014333047e-04 -9.5657368219597106e-06 0.0000000000000000e+00  1.9372088717236848e-04 -1.2408603483152470e-05 0.0000000000000000e+00  2.5733762695605858e-04 -1.5876691970910925e-05 0.0000000000000000e+00  3.4515449231375879e-04 -1.7768423774387143e-05 0.0000000000000000e+00  0.0000000000000000e+00 0.0000000000000000e+00 0.0000000000000000e+00  5.3843842034490579e-06 -3.1998015376188513e-07 0.0000000000000000e+00  1.1001475848556791e-05 -6.5444378333429779e-07 0.0000000000000000e+00  1.7100905186314114e-05 -1.0190381714227211e-06 0.0000000000000000e+00  2.3958960226319773e-05 -1.4313463589833565e-06 0.0000000000000000e+00  3.1894705148347946e-05 -1.9121022776322656e-06 0.0000000000000000e+00  4.1289407291436570e-05 -2.4867049132430546e-06 0.0000000000000000e+00  5.2610945835489817e-05 -3.1871620278316116e-06 0.0000000000000000e+00  6.6445501938232641e-05 -4.0545952577398987e-06 0.0000000000000000e+00  8.3539809845521523e-05 -5.1423745364829350e-06 0.0000000000000000e+00  1.0485846162929718e-04 -6.5196711460392707e-06 0.0000000000000000e+00  1.3166073740607473e-04 -8.2742710598413890e-06 0.0000000000000000e+00  1.6559293107841364e-04 -1.0510505911590689e-05 0.0000000000000000e+00  2.0874688348154855e-04 -1.3329302690036041e-05 0.0000000000000000e+00  2.6345897700760904e-04 -1.6754211247007048e-05 0.0000000000000000e+00  3.3105791484594840e-04 -2.0528598337461765e-05 0.0000000000000000e+00  4.0742642484096553e-04 -2.3811255350148479e-05 0.0000000000000000e+00  0.0000000000000000e+00 0.0000000000000000e+00 0.0000000000000000e+00  6.8197263683605235e-06 -4.0417924490572012e-07 0.0000000000000000e+00  1.3932512728834785e-05 -8.2639207389799837e-07 0.0000000000000000e+00  2.1651870367159292e-05 -1.2860518415018615e-06 0.0000000000000000e+00  3.0324598144800139e-05 -1.8049281794277460e-06 0.0000000000000000e+00  4.0350765777324674e-05 -2.4086329970117109e-06 0.0000000000000000e+00  5.2207534959683461e-05 -3.1284880281494009e-06 0.0000000000000000e+00  6.6478338088736514e-05 -4.0039465267548210e-06 0.0000000000000000e+00  8.3888844667931919e-05 -5.0857410481765684e-06 0.0000000000000000e+00  1.0535035882914255e-04 -6.4398232763127355e-06 0.0000000000000000e+00  1.3200846344258403e-04 -8.1517367780776590e-06 0.0000000000000000e+00  1.6528629577006380e-04 -1.0329788804941894e-05 0.0000000000000000e+00  2.0688875735583220e-04 -1.3102063705408207e-05 0.0000000000000000e+00  2.5867539759881909e-04 -1.6594660421111967e-05 0.0000000000000000e+00  3.2217837402538646e-04 -2.0863790837438498e-05 0.0000000000000000e+00  3.9732156044360370e-04 -2.5735164011641586e-05 0.0000000000000000e+00  4.7984989819991789e-04 -3.0499249948308453e-05 0.0000000000000000e+00  0.0000000000000000e+00 0.0000000000000000e+00 0.0000000000000000e+00  7.9651798652093532e-06 -4.7054309896358488e-07 0.0000000000000000e+00  1.6269403820953072e-05 -9.6165059281918204e-07 0.0000000000000000e+00  2.5274053985128988e-05 -1.4953457978928722e-06 0.0000000000000000e+00  3.5378541255370634e-05 -2.0962313257582774e-06 0.0000000000000000e+00  4.7043123127090409e-05 -2.7931252479666833e-06 0.0000000000000000e+00  6.0816148007546501e-05 -3.6211513058619119e-06 0.0000000000000000e+00  7.7367361197977147e-05 -4.6245322842760372e-06 0.0000000000000000e+00  9.7528570622293901e-05 -5.8604156553906096e-06 0.0000000000000000e+00  1.2234158751092512e-04 -7.4041233180694441e-06 0.0000000000000000e+00  1.5310944607515721e-04 -9.3561506625505675e-06 0.0000000000000000e+00  1.9143742100422072e-04 -1.1850748236502642e-05 0.0000000000000000e+00  2.3922974480195832e-04 -1.5064347062478056e-05 0.0000000000000000e+00  2.9856866118773166e-04 -1.9218299574764959e-05 0.0000000000000000e+00  3.7134485112055133e-04 -2.4563330559110197e-05 0.0000000000000000e+00  4.5848328740028693e-04 -3.1324559137920202e-05 0.0000000000000000e+00  5.5882746983995212e-04 -3.9587181961431219e-05 0.0000000000000000e+00  0.0000000000000000e+00 0.0000000000000000e+00 0.0000000000000000e+00  8.7752818185319794e-06 -5.1657310986200831e-07 0.0000000000000000e+00  1.7918960525641982e-05 -1.0551168265335229e-06 0.0000000000000000e+00  2.7821865120445134e-05 -1.6389926447751308e-06 0.0000000000000000e+00  3.8915329776023691e-05 -2.2941331113676611e-06 0.0000000000000000e+00  5.1695644074146073e-05 -3.0506702984215923e-06 0.0000000000000000e+00  6.6753668764254630e-05 -3.9450441374898661e-06 0.0000000000000000e+00  8.4811826078631008e-05 -5.0229121144860245e-06 0.0000000000000000e+00  1.0677075584450151e-04 -6.3433859897940112e-06 0.0000000000000000e+00  1.3376732962164345e-04 -7.9854819270177142e-06 0.0000000000000000e+00  1.6724341250701940e-04 -1.0058292151116048e-05 0.0000000000000000e+00  2.0901895068848171e-04 -1.2717412965941009e-05 0.0000000000000000e+00  2.6135132023445684e-04 -1.6191735926640988e-05 0.0000000000000000e+00  3.2694532063588951e-04 -2.0826819345143273e-05 0.0000000000000000e+00  4.0886753954125736e-04 -2.7153312320550294e-05 0.0000000000000000e+00  5.1036850713802274e-04 -3.5990630304906514e-05 0.0000000000000000e+00  6.3486044639037161e-04 -4.8598599174150689e-05 0.0000000000000000e+00  0.0000000000000000e+00 0.0000000000000000e+00 0.0000000000000000e+00  9.2218347910184264e-06 -5.4092965929134142e-07 0.0000000000000000e+00  1.8823588217839446e-05 -1.1041103104395320e-06 0.0000000000000000e+00  2.9205895739373647e-05 -1.7129796784010522e-06 0.0000000000000000e+00  4.0809735742934528e-05 -2.3933040132897916e-06 0.0000000000000000e+00  5.4140994316188650e-05 -3.1746188483283174e-06 0.0000000000000000e+00  6.9800880810807445e-05 -4.0920807691757790e-06 0.0000000000000000e+00  8.8525288588039571e-05 -5.1890496657824067e-06 0.0000000000000000e+00  1.1123723917714500e-04 -6.5210016143197109e-06 0.0000000000000000e+00  1.3911779741211091e-04 -8.1619678202832899e-06 0.0000000000000000e+00  1.7370198995646666e-04 -1.0215961320003765e-05 0.0000000000000000e+00  2.1700663458749063e-04 -1.2838518759894834e-05 0.0000000000000000e+00  2.7169585921867312e-04 -1.6278933721224368e-05 0.0000000000000000e+00  3.4128900254964403e-04 -2.0964314061506549e-05 0.0000000000000000e+00  4.3042750026373706e-04 -2.7665476885143547e-05 0.0000000000000000e+00  5.4529145483627123e-04 -3.7816025776547270e-05 0.0000000000000000e+00  6.9452264147727510e-04 -5.4113018498515215e-05 0.0000000000000000e+00  0.0000000000000000e+00 0.0000000000000000e+00 0.0000000000000000e+00  9.2949357447877464e-06 -5.4342266668856305e-07 0.0000000000000000e+00  1.8963509437968340e-05 -1.1083524861902706e-06 0.0000000000000000e+00  2.9396701108179648e-05 -1.7171800359369577e-06 0.0000000000000000e+00  4.1022772479626287e-05 -2.3941932628594104e-06 0.0000000000000000e+00  5.4330057846093770e-05 -3.1666720103511523e-06 0.0000000000000000e+00  6.9895793417546962e-05 -4.0662103905560711e-06 0.0000000000000000e+00  8.8424858849605359e-05 -5.1304567169131485e-06 0.0000000000000000e+00  1.1080452175445392e-04 -6.4056757155598969e-06 0.0000000000000000e+00  1.3818491665618015e-04 -7.9510742580187342e-06 0.0000000000000000e+00  1.7210072749215238e-04 -9.8471767566043067e-06 0.0000000000000000e+00  2.1465804818659941e-04 -1.2213885262560621e-05 0.0000000000000000e+00  2.6882191981222073e-04 -1.5252037085478310e-05 0.0000000000000000e+00  3.3885445597743791e-04 -1.9341518832637829e-05 0.0000000000000000e+00  4.3097590024493079e-04 -2.5271654284925971e-05 0.0000000000000000e+00  5.5439266676094064e-04 -3.4767284548743083e-05 0.0000000000000000e+00  7.2313243338280959e-04 -5.1652384645816926e-05 0.0000000000000000e+00  0.0000000000000000e+00 0.0000000000000000e+00 0.0000000000000000e+00  9.0027045298243960e-06 -5.2489662711660424e-07 0.0000000000000000e+00  1.8356318392822969e-05 -1.0697152218539853e-06 0.0000000000000000e+00  2.8424424758821216e-05 -1.6549184338193937e-06 0.0000000000000000e+00  3.9601991726331911e-05 -2.3023432296645375e-06 0.0000000000000000e+00  5.2334296214460286e-05 -3.0358714967711155e-06 0.0000000000000000e+00  6.7141077966198222e-05 -3.8820745766164669e-06 0.0000000000000000e+00  8.4649918285857750e-05 -4.8707824813580183e-06 0.0000000000000000e+00  1.0564595224390938e-04 -6.0355111281213423e-06 0.0000000000000000e+00  1.3115085306736443e-04 -7.4137467124205433e-06 0.0000000000000000e+00  1.6255468431255221e-04 -9.0475229816053520e-06 0.0000000000000000e+00  2.0184287548025804e-04 -1.0986514073505218e-05 0.0000000000000000e+00  2.5199073375423874e-04 -1.3302133220457346e-05 0.0000000000000000e+00  3.1763968524327948e-04 -1.6141287639212098e-05 0.0000000000000000e+00  4.0621248352196165e-04 -1.9908146286804020e-05 0.0000000000000000e+00  5.2966575314842754e-04 -2.5818961733800134e-05 0.0000000000000000e+00  7.0730909715019461e-04 -3.7418774067493093e-05 0.0000000000000000e+00  0.0000000000000000e+00 0.0000000000000000e+00 0.0000000000000000e+00  8.3696510576889947e-06 -4.8703368576575533e-07 0.0000000000000000e+00  1.7053660109263404e-05 -9.9178588600316898e-07 0.0000000000000000e+00  2.6373708896859643e-05 -1.5322019574852306e-06 0.0000000000000000e+00  3.6674731332263508e-05 -2.1271090938139057e-06 0.0000000000000000e+00  4.8338102167464041e-05 -2.7965066356702456e-06 0.0000000000000000e+00  6.1797962019430620e-05 -3.5616107374822038e-06 0.0000000000000000e+00  7.7563648672731810e-05 -4.4443674937190072e-06 0.0000000000000000e+00  9.6254340478033100e-05 -5.4658391028463867e-06 0.0000000000000000e+00  1.1865871101448602e-04 -6.6422299303747922e-06 0.0000000000000000e+00  1.4584650622239813e-04 -7.9760542280034349e-06 0.0000000000000000e+00  1.7938799991312667e-04 -9.4376622257534425e-06 0.0000000000000000e+00  2.2179423666693549e-04 -1.0929263926282211e-05 0.0000000000000000e+00  2.7739139121329552e-04 -1.2224736279556240e-05 0.0000000000000000e+00  3.5397545009133987e-04 -1.2912865430663411e-05 0.0000000000000000e+00  4.6562942386441721e-04 -1.2558986580845315e-05 0.0000000000000000e+00  6.3695884776072942e-04 -1.1942554906609234e-05 0.0000000000000000e+00  0.0000000000000000e+00 0.0000000000000000e+00 0.0000000000000000e+00  7.4337800529436556e-06 -4.3211734828507349e-07 0.0000000000000000e+00  1.5135151937165635e-05 -8.7934522076412591e-07 0.0000000000000000e+00  2.3373821568112408e-05 -1.3567912708734794e-06 0.0000000000000000e+00  3.2433596143068970e-05 -1.8800831614118679e-06 0.0000000000000000e+00  4.2618803468089347e-05 -2.4654289940652525e-06 0.0000000000000000e+00  5.4260658017096966e-05 -3.1293588501043600e-06 0.0000000000000000e+00  6.7724232790091136e-05 -3.8877794855967409e-06 0.0000000000000000e+00  8.3418466441811004e-05 -4.7535251745088664e-06 0.0000000000000000e+00  1.0181650815459714e-04 -5.7305202379584009e-06 0.0000000000000000e+00  1.2350656448888861e-04 -6.8000708910432934e-06 0.0000000000000000e+00  1.4932635543473424e-04 -7.8883570333897589e-06 0.0000000000000000e+00  1.8071613207574946e-04 -8.7880331173543818e-06 0.0000000000000000e+00  2.2061857589009089e-04 -8.9669694867897053e-06 0.0000000000000000e+00  2.7565246532856256e-04 -7.1099065862378107e-06 0.0000000000000000e+00  3.6067578308687049e-04 -1.6692418958209130e-07 0.0000000000000000e+00  5.0549614351110624e-04 1.7697889287670849e-05 0.0000000000000000e+00  0.0000000000000000e+00 0.0000000000000000e+00 0.0000000000000000e+00  6.2427628179990066e-06 -3.6280736125061663e-07 0.0000000000000000e+00  1.2700184892817877e-05 -7.3787755739263192e-07 0.0000000000000000e+00  1.9584871540018127e-05 -1.1373481992060445e-06 0.0000000000000000e+00  2.7115031856885484e-05 -1.5736780552341146e-06 0.0000000000000000e+00  3.5514493570575252e-05 -2.0596581063969381e-06 0.0000000000000000e+00  4.5009194555624807e-05 -2.6082127814176520e-06 0.0000000000000000e+00  5.5817717137398548e-05 -3.2317712193722773e-06 0.0000000000000000e+00  6.8132466484916644e-05 -3.9407100950270806e-06 0.0000000000000000e+00  8.2087781600548865e-05 -4.7396318959770827e-06 0.0000000000000000e+00  9.7714947005175958e-05 -5.6181757090839644e-06 0.0000000000000000e+00  1.1490346881971589e-04 -6.5269468582528060e-06 0.0000000000000000e+00  1.3346157353231940e-04 -7.3100175580983573e-06 0.0000000000000000e+00  1.5361818916135751e-04 -7.5011922293638455e-06 0.0000000000000000e+00  1.7810813483334835e-04 -5.6552583484333607e-06 0.0000000000000000e+00  2.1935579264476408e-04 3.0370881469991259e-06 0.0000000000000000e+00  3.1395307655898437e-04 3.2894907649994606e-05 0.0000000000000000e+00  0.0000000000000000e+00 0.0000000000000000e+00 0.0000000000000000e+00  4.8497480050873307e-06 -2.8196616194430618e-07 0.0000000000000000e+00  9.8588300323868180e-06 -5.7321034621396044e-07 0.0000000000000000e+00  1.5182157093384526e-05 -8.8285733333837777e-07 0.0000000000000000e+00  2.0974079052775603e-05 -1.2202715853500338e-06 0.0000000000000000e+00  2.7383958552001318e-05 -1.5951314186950539e-06 0.0000000000000000e+00  3.4545760502843841e-05 -2.0174997756723251e-06 0.0000000000000000e+00  4.2556579588100723e-05 -2.4979535788183668e-06 0.0000000000000000e+00  5.1434988504037532e-05 -3.0479470947073060e-06 0.0000000000000000e+00  6.1042767432069935e-05 -3.6808167094049067e-06 0.0000000000000000e+00  7.0941237122330611e-05 -4.4142238849517870e-06 0.0000000000000000e+00  8.0136953347824925e-05 -5.2750996031296943e-06 0.0000000000000000e+00  8.6670314156191508e-05 -6.3059473666827773e-06 0.0000000000000000e+00  8.7122085637471815e-05 -7.5522766421153696e-06 0.0000000000000000e+00  7.6831867410557007e-05 -8.8837520014691481e-06 0.0000000000000000e+00  5.5049642396306093e-05 -8.5353565747156555e-06 0.0000000000000000e+00  6.3489645569463814e-05 1.2991528985416495e-05 0.0000000000000000e+00  0.0000000000000000e+00 0.0000000000000000e+00 0.0000000000000000e+00  3.3095400717377191e-06 -1.9255147187713152e-07 0.0000000000000000e+00  6.7234973445443641e-06 -3.9131490439324286e-07 0.0000000000000000e+00  1.0341655540409610e-05 -6.0238023867746991e-07 0.0000000000000000e+00  1.4260477912650962e-05 -8.3202765192046580e-07 0.0000000000000000e+00  1.8567362587963743e-05 -1.0868587363618821e-06 0.0000000000000000e+00  2.3328668752980108e-05 -1.3740729353389414e-06 0.0000000000000000e+00  2.8565745099076969e-05 -1.7021488967332833e-06 0.0000000000000000e+00  3.4207671434926836e-05 -2.0825918148522455e-06 0.0000000000000000e+00  3.9997717091716312e-05 -2.5344046910142335e-06 0.0000000000000000e+00  4.5305108499117799e-05 -3.0954598208397609e-06 0.0000000000000000e+00  4.8738064303146649e-05 -3.8514910603145165e-06 0.0000000000000000e+00  4.7336981115177635e-05 -5.0111748181387909e-06 0.0000000000000000e+00  3.4924294013927977e-05 -7.1071698070981717e-06 0.0000000000000000e+00  -8.8088161844568579e-07 -1.1569180326680873e-05 0.0000000000000000e+00  -8.1775761249216369e-05 -2.2572402403969907e-05 0.0000000000000000e+00  -2.3365753415249162e-04 -5.4536485738643380e-05 0.0000000000000000e+00  0.0000000000000000e+00 0.0000000000000000e+00 0.0000000000000000e+00  1.6758433359493432e-06 -9.7560989395099824e-08 0.0000000000000000e+00  3.4029892558223978e-06 -1.9822604480080003e-07 0.0000000000000000e+00  5.2298406260756681e-06 -3.0503388638477598e-07 0.0000000000000000e+00  7.2020827118565084e-06 -4.2113359862470161e-07 0.0000000000000000e+00  9.3588195023654065e-06 -5.4988614122960939e-07 0.0000000000000000e+00  1.1724797032744208e-05 -6.9510004181012355e-07 0.0000000000000000e+00  1.4294945458179446e-05 -8.6162087757063875e-07 0.0000000000000000e+00  1.7003565067164311e-05 -1.0568259363847044e-06 0.0000000000000000e+00  1.9661598864771799e-05 -1.2944022082307458e-06 0.0000000000000000e+00  2.1824030148456217e-05 -1.6038683962491064e-06 0.0000000000000000e+00  2.2494401080958496e-05 -2.0545756508804397e-06 0.0000000000000000e+00  1.9423354259256875e-05 -2.8159853195033366e-06 0.0000000000000000e+00  7.3432075625315822e-06 -4.3043287337258610e-06 0.0000000000000000e+00  -2.6466914029544740e-05 -7.4879007498482806e-06 0.0000000000000000e+00  -1.1036040550598703e-04 -1.4093756992631406e-05 0.0000000000000000e+00  -2.7715122621691928e-04 -2.4286569262850018e-05 0.0000000000000000e+00  0.0000000000000000e+00 0.0000000000000000e+00 0.0000000000000000e+00  0.0000000000000000e+00 0.0000000000000000e+00 0.0000000000000000e+00  0.0000000000000000e+00 0.0000000000000000e+00 0.0000000000000000e+00  0.0000000000000000e+00 0.0000000000000000e+00 0.0000000000000000e+00  0.0000000000000000e+00 0.0000000000000000e+00 0.0000000000000000e+00  0.0000000000000000e+00 0.0000000000000000e+00 0.0000000000000000e+00  0.0000000000000000e+00 0.0000000000000000e+00 0.0000000000000000e+00  0.0000000000000000e+00 0.0000000000000000e+00 0.0000000000000000e+00  0.0000000000000000e+00 0.0000000000000000e+00 0.00