<?xml version="1.0"?>
<VTKFile type="UnstructuredGrid"  version="0.1"  >
<UnstructuredGrid>
<Piece  NumberOfPoints="289" NumberOfCells="512">
<Points>
<DataArray  type="Float64"  NumberOfComponents="3"  format="ascii">0 0 0  0.0625 0 0  0.125 0 0  0.1875 0 0  0.25 0 0  0.3125 0 0  0.375 0 0  0.4375 0 0  0.5 0 0  0.5625 0 0  0.625 0 0  0.6875 0 0  0.75 0 0  0.8125 0 0  0.875 0 0  0.9375 0 0  1 0 0  0 0.0625 0  0.06260707486664933 0.0624783046335237 0  0.1252176497441484 0.06245615098913981 0  0.1878353357949779 0.06243310097560905 0  0.250463865870124 0.06240877612085596 0  0.3131071512699616 0.06238289817162767 0  0.3757693347383401 0.06235534207932168 0  0.4384548505739443 0.06232620285695846 0  0.5011685264112721 0.06229587318601038 0  0.5639158210348981 0.06226511903133006 0  0.6267034469600693 0.06223512116537955 0  0.6895410421169854 0.0622074108496523 0  0.7524457355984349 0.06218353855574583 0  0.8154549962404419 0.06216407504374659 0  0.8786643288774116 0.06214576704589015 0  0.9423432453538293 0.06211282396507158 0  1.007312010612481 0.06200848737231573 0  0 0.125 0  0.06271073957058128 0.1249570500992325 0  0.1254284567564751 0.1249131528375996 0  0.1881603580276639 0.1248673971971344 0  0.2509139177570931 0.1248189822586677 0  0.3136970053413356 0.1247672949114432 0  0.376518003618619 0.1247120146634108 0  0.4393859318538797 0.1246532513173176 0  0.5023106164102906 0.1245917146014916 0  0.5653030214589049 0.1245289004055121 0  0.6283760067490179 0.1244672503584536 0  0.6915461096594511 0.1244101936635858 0  0.7548375900414753 0.1243619159627871 0  0.8182909105891056 0.124326690392525 0  0.8819775487766135 0.1243080611754008 0  0.9460120207753283 0.1243110519960121 0  1.010485774191593 0.1243640993830781 0  0 0.1875 0  0.06280749366046537 0.1874367329741228 0  0.1256253482808871 0.1873719755183965 0  0.1884642749612988 0.1873042815463478 0  0.2513354275314209 0.1872323466217824 0  0.3142506139006945 0.1871551144344648 0  0.3772224889208969 0.1870719281136741 0  0.4402647307985812 0.1869827407797819 0  0.5033922175185569 0.1868883949565596 0  0.5666212481029304 0.1867909672598324 0  0.6299698963864696 0.1866941451977656 0  0.6934586083197344 0.1866035434369217 0  0.7571109810073959 0.1865267521337264 0  0.8209536401641622 0.1864726724720402 0  0.8850103253856966 0.1864490587609166 0  0.9492745768743633 0.1864548014707089 0  1.013626825899055 0.1864528338261862 0  0 0.25 0  0.06289394910132227 0.2499179025362807 0  0.1258014620217219 0.2498337040246464 0  0.1887365747608579 0.249745343217188 0  0.2517139739335355 0.2496509023607195 0  0.3147493111602236 0.2495487272506396 0  0.3778594901553515 0.2494376112604249 0  0.4410629119512696 0.2493170706778163 0  0.5043796551204894 0.249187740708058 0  0.5678315454229644 0.2490519178945528 0  0.6314420033167697 0.2489142571697769 0  0.695235364584054 0.2487825842581029 0  0.7592348379927023 0.2486686761658377 0  0.8234569459521033 0.2485886372830074 0  0.8878975518796696 0.2485620721190711 0  0.9525007779738716 0.2486087034613534 0  1.017103645312573 0.2487422176364225 0  0 0.3125 0  0.06296691102964513 0.312401173343094 0  0.1259503055572424 0.312299568638807 0  0.1889672589216744 0.3121924264460827 0  0.2520357404131929 0.3120770923657694 0  0.3151750559971481 0.3119511270904576 0  0.3784062666247127 0.3118124966460132 0  0.4417525587304621 0.3116598851495176 0  0.5052395199513698 0.3114931857952705 0  0.5688952221074806 0.3113142404834702 0  0.6327498999854295 0.3111279088632047 0  0.6968347658245202 0.3109435395730994 0  0.7611789896927595 0.3107768600987365 0  0.825802972141259 0.3106521430150468 0  0.8907049196720016 0.3106041809083671 0  0.9558379951186143 0.3106791365952215 0  1.021082065125712 0.310933049170204 0  0 0.375 0  0.06302347397347342 0.3748872231289464 0  0.1260659479518313 0.3747709454623743 0  0.1891471264737039 0.3746476442129605 0  0.2522878824494019 0.3745138150468895 0  0.3155108555742809 0.3743660403541744 0  0.3788410495176945 0.3742011444795546 0  0.4423064129775305 0.3740164907992887 0  0.5059383677769499 0.373810502655425 0  0.569772202113295 0.3735835293441547 0  0.6338471538445846 0.3733392302031899 0  0.6982058236664277 0.3730867072547844 0  0.7628922278267006 0.3728436516856594 0  0.827947334813007 0.372640708921364 0  0.8934006546111845 0.3725269733753981 0  0.9592575430191655 0.3725758392402813 0  1.025486772827402 0.3728893744755114 0  0 0.4375 0  0.06306113668530335 0.4373767714881205 0  0.1261432516533866 0.4372493169464833 0  0.1892681266079102 0.43711332836193 0  0.2524590020340508 0.43696437992365 0  0.3157413514739781 0.4367979176810807 0  0.3791436995310625 0.4366093263225486 0  0.4426984964326424 0.4363941320067772 0  0.5064430596149925 0.4361484393257609 0  0.5704205881168123 0.4358697644824612 0  0.6346812433750164 0.4355585272104558 0  0.6992832587137796 0.4352206103511116 0  0.7642939742715512 0.4348715770477112 0  0.829790608179066 0.4345432681046003 0  0.8958606338838889 0.4342933363555024 0  0.9626024621094263 0.4342173515585207 0  1.030130343122787 0.4344612133379592 0  0 0.5 0  0.06307793495061206 0.4998705364261837 0  0.1261781450008834 0.4997361850243007 0  0.1893237849760861 0.4995919007198463 0  0.2525397481975046 0.4994323431044992 0  0.3158536191590858 0.4992517522173303 0  0.3792967296452913 0.4990438697429578 0  0.4429053717339181 0.498801954013788 0  0.5067222510928848 0.498518980960066 0  0.5707983267605981 0.4981882026167631 0  0.6351953073944334 0.4978043766280316 0  0.699989298856554 0.4973662249892271 0  0.7652764618707926 0.4968810711679946 0  0.8311820359431663 0.4963731144087913 0  0.8978746316078796 0.4958970736900234 0  0.9655883588695519 0.4955577076980371 0  1.034658003316022 0.495530337118227 0  0 0.5625 0  0.06307258586205039 0.5623691689810649 0  0.1261679228500894 0.5622329357552731 0  0.1893096862788514 0.56208565928472 0  0.2525235236457704 0.5619212048762036 0  0.3158381631248992 0.5617326819313563 0  0.3792866868358131 0.5615121732173202 0  0.4429080628976444 0.5612504753802592 0  0.5067490936083715 0.5609369055901532 0  0.5708670757001276 0.5605593023380868 0  0.6353337640818676 0.5601044996637113 0  0.7002418283274755 0.5595598649751891 0  0.7657160996430002 0.5589171145218181 0  0.8319336826607188 0.5581807754435862 0  0.8991592007662246 0.5573853016035974 0  0.967803084492581 0.556625037702383 0  1.038512364282943 0.556092685850601 0  0 0.625 0  0.06304463041907482 0.6248731706272828 0  0.1261115481649213 0.6247406641102979 0  0.1892239695262251 0.6245964898752996 0  0.2524072323272594 0.6244339765434835 0  0.3156900109138562 0.624245369019831 0  0.3791057449267876 0.6240213480511108 0  0.44269440168831 0.6237504472188685 0  0.5065047724275679 0.6234183530233272 0  0.5705976893510134 0.6230071091131852 0  0.6350509896940532 0.6224943455139336 0  0.6999680660909484 0.6218529215005341 0  0.765494059437548 0.6210520813203124 0  0.8318481230712677 0.6200630727195073 0  0.8993871859648537 0.6188765577291 0  0.968723394693816 0.617545786569364 0  1.040917680457042 0.6162595881182235 0  0 0.6875 0  0.06299455570873412 0.6873828033858985 0  0.1260099150668847 0.6872599792596581 0  0.1890677706121738 0.6871255347552832 0  0.2521919663111877 0.6869726590869731 0  0.3154097473684012 0.6867932067772436 0  0.3787532520040339 0.686577033871596 0  0.442261367723806 0.6863111107569276 0  0.5059821406594535 0.6859783099625494 0  0.5699760886039437 0.6855557374320984 0  0.6343212019570952 0.6850124554820206 0  0.6991216125750275 0.6843064958047044 0  0.7645251597855046 0.6833814287191471 0  0.8307634248240067 0.6821644460592293 0  0.8982465572113901 0.6805749711917762 0  0.9677733444018807 0.6785795019335275 0  1.040925296821707 0.6763716936145776 0  0 0.75 0  0.0629238750272222 0.7498980072019282 0  0.1258660274988244 0.7497908216812388 0  0.188845536342852 0.7496728708450543 0  0.2518835149084843 0.7495377146167846 0  0.3150043088165491 0.7493774726366823 0  0.3782369429224682 0.7491820538470838 0  0.4416169250798405 0.7489380696085729 0  0.5051885375839925 0.7486272515219216 0  0.5690077958081494 0.7482240974085921 0  0.6331464245407231 0.7476923076175477 0  0.6976979063820125 0.7469793019677774 0  0.7627894613133797 0.746007662219959 0  0.8286142910088388 0.744661852578114 0  0.8955347677789561 0.7427701348390686 0  0.9644154991678756 0.7401036401357519 0  1.037358094698102 0.7366470104004145 0  0 0.8125 0  0.06283514521269487 0.8124183416424052 0  0.1256850494695407 0.8123323299105083 0  0.1885651378254875 0.8122372642736105 0  0.2514925886865756 0.812127640703304 0  0.3144873832610925 0.811996604500133 0  0.37757359328152 0.8118351914871714 0  0.4407809992866691 0.8116312206877891 0  0.5041471146167816 0.8113676227984848 0  0.5677196025198039 0.8110198548215685 0  0.6315588197483202 0.8105518181681229 0  0.6957396852775697 0.8099092643476135 0  0.7603515676786469 0.8090087645059197 0  0.8254979581212477 0.8077181417909278 0  0.8913264150329591 0.8058188334369046 0  0.958300234631806 0.8029309115230703 0  1.029171807455591 0.7984165102279226 0  0 0.875 0  0.06273190542444868 0.8749429679073386 0  0.1254741927952847 0.8748827933542312 0  0.1882377272778144 0.8748160681584949 0  0.251034678552473 0.8747387636368786 0  0.3138793183243778 0.8746457989371536 0  0.3767890222048998 0.8745304298257883 0  0.4397855609974724 0.8743833362920045 0  0.5028967473754252 0.8741912123717571 0  0.5661583775630451 0.8739345342404223 0  0.6296159339746856 0.8735839690164566 0  0.6933239986879365 0.8730945217537447 0  0.7573368686795938 0.8723957872193582 0  0.8216719126455281 0.8713744562200169 0  0.8862010839799809 0.8698354163221806 0  0.9504073164860288 0.8673813128565114 0  1.013239591360178 0.8629322688124156 0  0 0.9375 0  0.06261853010574975 0.9374706818794848 0  0.1252424247928126 0.9374397164925189 0  0.1878773059903154 0.9374053124731486 0  0.2505295002193021 0.9373653401980057 0  0.3132064798361807 0.9373170932912628 0  0.3759174339135428 0.9372569463244038 0  0.4386740344537529 0.9371798356856
[...]
<PointData  Vectors="f_54"> 
<DataArray  type="Float64"  Name="f_54"  NumberOfComponents="3" format="ascii">0.0000000000000000e+00 0.0000000000000000e+00 0.0000000000000000e+00  0.0000000000000000e+00 0.0000000000000000e+00 0.0000000000000000e+00  0.0000000000000000e+00 0.0000000000000000e+00 0.0000000000000000e+00  0.0000000000000000e+00 0.0000000000000000e+00 0.0000000000000000e+00  0.0000000000000000e+00 0.0000000000000000e+00 0.0000000000000000e+00  0.0000000000000000e+00 0.0000000000000000e+00 0.0000000000000000e+00  0.0000000000000000e+00 0.0000000000000000e+00 0.0000000000000000e+00  0.0000000000000000e+00 0.0000000000000000e+00 0.0000000000000000e+00  0.0000000000000000e+00 0.0000000000000000e+00 0.0000000000000000e+00  0.0000000000000000e+00 0.0000000000000000e+00 0.0000000000000000e+00  0.0000000000000000e+00 0.0000000000000000e+00 0.0000000000000000e+00  0.0000000000000000e+00 0.0000000000000000e+00 0.0000000000000000e+00  0.0000000000000000e+00 0.0000000000000000e+00 0.0000000000000000e+00  0.0000000000000000e+00 0.0000000000000000e+00 0.0000000000000000e+00  0.0000000000000000e+00 0.0000000000000000e+00 0.0000000000000000e+00  0.0000000000000000e+00 0.0000000000000000e+00 0.0000000000000000e+00  0.0000000000000000e+00 0.0000000000000000e+00 0.0000000000000000e+00  0.0000000000000000e+00 0.0000000000000000e+00 0.0000000000000000e+00  1.4275243038189458e-06 -1.1166222883003853e-07 0.0000000000000000e+00  2.9237016150067365e-06 -2.2768765815483341e-07 0.0000000000000000e+00  4.5627031743479089e-06 -3.5272867768240360e-07 0.0000000000000000e+00  6.4282180851493234e-06 -4.9188399384196702e-07 0.0000000000000000e+00  8.6194128072803853e-06 -6.5098231855673148e-07 0.0000000000000000e+00  1.1258504594517350e-05 -8.3694634276566130e-07 0.0000000000000000e+00  1.4501091314786626e-05 -1.0582946432015348e-06 0.0000000000000000e+00  1.8551412923443321e-05 -1.3258940216829302e-06 0.0000000000000000e+00  2.3687256261159159e-05 -1.6542257929528421e-06 0.0000000000000000e+00  3.0305819898485000e-05 -2.0638878080576767e-06 0.0000000000000000e+00  3.9020141583149002e-05 -2.5875424104712236e-06 0.0000000000000000e+00  5.0889689289759141e-05 -3.2866119842934002e-06 0.0000000000000000e+00  6.8039350064224750e-05 -4.3042803298973947e-06 0.0000000000000000e+00  9.5500603064620489e-05 -6.0492329407764921e-06 0.0000000000000000e+00  1.4726463896885984e-04 -9.8841963827890018e-06 0.0000000000000000e+00  2.6903025879690997e-04 -2.1025240970911596e-05 0.0000000000000000e+00  0.0000000000000000e+00 0.0000000000000000e+00 0.0000000000000000e+00  2.7904871175791350e-06 -2.1927737015908367e-07 0.0000000000000000e+00  5.7147383490145755e-06 -4.4713461047541138e-07 0.0000000000000000e+00  8.9171573085526056e-06 -6.9270903535535150e-07 0.0000000000000000e+00  1.2560655148146949e-05 -9.6600664223359231e-07 0.0000000000000000e+00  1.6838159505034293e-05 -1.2784497124019220e-06 0.0000000000000000e+00  2.1987049971934839e-05 -1.6435694843528289e-06 0.0000000000000000e+00  2.8308319775311429e-05 -2.0779317617045853e-06 0.0000000000000000e+00  3.6193500917681104e-05 -2.6024324424245685e-06 0.0000000000000000e+00  4.6165085301369154e-05 -3.2441960115087774e-06 0.0000000000000000e+00  5.8942175427275048e-05 -4.0395057942332742e-06 0.0000000000000000e+00  7.5556383171434909e-05 -5.0385521835742708e-06 0.0000000000000000e+00  9.7570736643067592e-05 -6.3130311570838289e-06 0.0000000000000000e+00  1.2750168434204237e-04 -7.9647637236298056e-06 0.0000000000000000e+00  1.6956301820293755e-04 -1.0108167827152632e-05 0.0000000000000000e+00  2.3041845602093960e-04 -1.2642203915429964e-05 0.0000000000000000e+00  3.1607360965694753e-04 -1.3736504251066321e-05 0.0000000000000000e+00  0.0000000000000000e+00 0.0000000000000000e+00 0.0000000000000000e+00  4.0230137776050718e-06 -3.1856253913812748e-07 0.0000000000000000e+00  8.2371391026248376e-06 -6.4957883877761107e-07 0.0000000000000000e+00  1.2848336217494202e-05 -1.0062797606385738e-06 0.0000000000000000e+00  1.8088747911689910e-05 -1.4031250672691696e-06 0.0000000000000000e+00  2.4232839321365486e-05 -1.8565696578666251e-06 0.0000000000000000e+00  3.1617328810599956e-05 -2.3860198452480269e-06 0.0000000000000000e+00  4.0666797285036541e-05 -3.0150793531081937e-06 0.0000000000000000e+00  5.1927525459081255e-05 -3.7732034699678071e-06 0.0000000000000000e+00  6.6113107608817699e-05 -4.6978616801953820e-06 0.0000000000000000e+00  8.4166602855310655e-05 -5.8371463335982439e-06 0.0000000000000000e+00  1.0734403626391132e-04 -7.2521273811202377e-06 0.0000000000000000e+00  1.3731624249649772e-04 -9.0161724908898370e-06 0.0000000000000000e+00  1.7624430254919207e-04 -1.1202369066461188e-05 0.0000000000000000e+00  2.2662149868456094e-04 -1.3835358035244655e-05 0.0000000000000000e+00  2.9015645008945065e-04 -1.6766574306214335e-05 0.0000000000000000e+00  3.6375162414837485e-04 -1.9560161744641503e-05 0.0000000000000000e+00  0.0000000000000000e+00 0.0000000000000000e+00 0.0000000000000000e+00  5.0673438692386934e-06 -4.0560009657645035e-07 0.0000000000000000e+00  1.0371756780965796e-05 -8.2701631156108041e-07 0.0000000000000000e+00  1.6168060717089226e-05 -1.2809924500424910e-06 0.0000000000000000e+00  2.2743028977964226e-05 -1.7857714580110732e-06 0.0000000000000000e+00  3.0434978626374467e-05 -2.3620187002378897e-06 0.0000000000000000e+00  3.9657742313955377e-05 -3.0339653503679672e-06 0.0000000000000000e+00  5.0930805740159694e-05 -3.8308904281965375e-06 0.0000000000000000e+00  6.4917381153968741e-05 -4.7890814118843372e-06 0.0000000000000000e+00  8.2471485161876457e-05 -5.9543809314024784e-06 0.0000000000000000e+00  1.0469238107497588e-04 -7.3852014002443411e-06 0.0000000000000000e+00  1.3297661745077598e-04 -9.1551099076310610e-06 0.0000000000000000e+00  1.6903584785175928e-04 -1.1351926128367591e-05 0.0000000000000000e+00  2.1479343105478419e-04 -1.4065165975889772e-05 0.0000000000000000e+00  2.7195052173930391e-04 -1.7343681578852405e-05 0.0000000000000000e+00  3.4080771345823226e-04 -2.1091199014613873e-05 0.0000000000000000e+00  4.1786855797082070e-04 -2.4850757804127711e-05 0.0000000000000000e+00  0.0000000000000000e+00 0.0000000000000000e+00 0.0000000000000000e+00  5.8775103421165641e-06 -4.7701260972076939e-07 0.0000000000000000e+00  1.2023917244244397e-05 -9.7256359202489396e-07 0.0000000000000000e+00  1.8727209687124142e-05 -1.5061895988385366e-06 0.0000000000000000e+00  2.6310753340960692e-05 -2.0990904649292731e-06 0.0000000000000000e+00  3.5155020251138966e-05 -2.7751347289453964e-06 0.0000000000000000e+00  4.5724254549055707e-05 -3.5620954017384225e-06 0.0000000000000000e+00  5.8600000265023898e-05 -4.4932640911729600e-06 0.0000000000000000e+00  7.4523196197957015e-05 -5.6096649587147061e-06 0.0000000000000000e+00  9.4445307837128721e-05 -6.9631821246637101e-06 0.0000000000000000e+00  1.1958524892560158e-04 -8.6209765255524294e-06 0.0000000000000000e+00  1.5147966744492392e-04 -1.0671438650642195e-05 0.0000000000000000e+00  1.9199419186449092e-04 -1.3231191581878734e-05 0.0000000000000000e+00  2.4322535868864889e-04 -1.6450507271192486e-05 0.0000000000000000e+00  3.0716731607228570e-04 -2.0509799215303600e-05 0.0000000000000000e+00  3.8498916750502517e-04 -2.5592244709855893e-05 0.0000000000000000e+00  4.7595213452282146e-04 -3.1810484490436196e-05 0.0000000000000000e+00  0.0000000000000000e+00 0.0000000000000000e+00 0.0000000000000000e+00  6.4220634878673136e-06 -5.3009411604559457e-07 0.0000000000000000e+00  1.3129089706589681e-05 -1.0807271121791883e-06 0.0000000000000000e+00  2.0424771689288411e-05 -1.6734278992812694e-06 0.0000000000000000e+00  2.8648903422703049e-05 -2.3314455995873870e-06 0.0000000000000000e+00  3.8199750377688904e-05 -3.0807535582291242e-06 0.0000000000000000e+00  4.9561940589527247e-05 -3.9512537637371515e-06 0.0000000000000000e+00  6.3342351558378184e-05 -4.9783401426814409e-06 0.0000000000000000e+00  8.0316704900817805e-05 -6.2051165742044029e-06 0.0000000000000000e+00  1.0148919231555353e-04 -7.6858423900202983e-06 0.0000000000000000e+00  1.2816541668352182e-04 -9.4917182161253322e-06 0.0000000000000000e+00  1.6203339609223742e-04 -1.1721128452357067e-05 0.0000000000000000e+00  2.0523585808903538e-04 -1.4518185503909850e-05 0.0000000000000000e+00  2.6039879950582923e-04 -1.8106048932772804e-05 0.0000000000000000e+00  3.3056651351224620e-04 -2.2844643650166989e-05 0.0000000000000000e+00  4.1902656430850994e-04 -2.9324352971033951e-05 0.0000000000000000e+00  5.2919962578221993e-04 -3.8505076423000759e-05 0.0000000000000000e+00  0.0000000000000000e+00 0.0000000000000000e+00 0.0000000000000000e+00  6.6856235721854032e-06 -5.6289081248874496e-07 0.0000000000000000e+00  1.3656164852904127e-05 -1.1475636358137549e-06 0.0000000000000000e+00  2.1213199891308097e-05 -1.7767190622123871e-06 0.0000000000000000e+00  2.9692150882886961e-05 -2.4747496922198784e-06 0.0000000000000000e+00  3.9483517514885920e-05 -3.2686666517427856e-06 0.0000000000000000e+00  5.1060008480685144e-05 -4.1891384810124171e-06 0.0000000000000000e+00  6.5012832459131366e-05 -5.2717476876469211e-06 0.0000000000000000e+00  8.2101625435317203e-05 -6.5587124639181214e-06 0.0000000000000000e+00  1.0332400409963384e-04 -8.1016832355946630e-06 0.0000000000000000e+00  1.3001223819216661e-04 -9.9671055764417113e-06 0.0000000000000000e+00  1.6396528238190447e-04 -1.2247691021990265e-05 0.0000000000000000e+00  2.0762327823785072e-04 -1.5088045108553317e-05 0.0000000000000000e+00  2.6428874826284150e-04 -1.8741703326127714e-05 0.0000000000000000e+00  3.3840235003043564e-04 -2.3693744226279133e-05 0.0000000000000000e+00  4.3592692333097532e-04 -3.0910298453358897e-05 0.0000000000000000e+00  5.6507791346175555e-04 -4.2316417171742259e-05 0.0000000000000000e+00  0.0000000000000000e+00 0.0000000000000000e+00 0.0000000000000000e+00  6.6691050364512706e-06 -5.7423218076280600e-07 0.0000000000000000e+00  1.3608017469110459e-05 -1.1707318692987851e-06 0.0000000000000000e+00  2.1099579841000138e-05 -1.8125800857158486e-06 0.0000000000000000e+00  2.9455173131148119e-05 -2.5244839815181308e-06 0.0000000000000000e+00  3.9032746815717315e-05 -3.3335887862329323e-06 0.0000000000000000e+00  5.0260466287725950e-05 -4.2702681809546271e-06 0.0000000000000000e+00  6.3669807537570480e-05 -5.3688634523523576e-06 0.0000000000000000e+00  7.9944288145103703e-05 -6.6683693138141074e-06 0.0000000000000000e+00  9.9993922909460460e-05 -8.2132443232106964e-06 0.0000000000000000e+00  1.2507165392096919e-04 -1.0055190451096162e-05 0.0000000000000000e+00  1.5695709049335385e-04 -1.2258808162029548e-05 0.0000000000000000e+00  1.9824485798879677e-04 -1.4919798513907820e-05 0.0000000000000000e+00  2.5278812333026716e-04 -1.8219232299157408e-05 0.0000000000000000e+00  3.2636183514635350e-04 -2.2572345291217432e-05 0.0000000000000000e+00  4.2764617018072688e-04 -2.9003822549771141e-05 0.0000000000000000e+00  5.6980716932087197e-04 -4.0021194422308062e-05 0.0000000000000000e+00  0.0000000000000000e+00 0.0000000000000000e+00 0.0000000000000000e+00  6.3885216582708256e-06 -5.6372337840474008e-07 0.0000000000000000e+00  1.3019117891961332e-05 -1.1494572102264991e-06 0.0000000000000000e+00  2.0142105954973891e-05 -1.7799232272128587e-06 0.0000000000000000e+00  2.8028323326347290e-05 -2.4794274281465425e-06 0.0000000000000000e+00  3.6981847032517297e-05 -3.2745893526724081e-06 0.0000000000000000e+00  4.7356906773594435e-05 -4.1949306951876639e-06 0.0000000000000000e+00  5.9582606521574806e-05 -5.2731241193206370e-06 0.0000000000000000e+00  7.4202198687624139e-05 -6.5445099623928650e-06 0.0000000000000000e+00  9.1939589092943333e-05 -8.0451815967027953e-06 0.0000000000000000e+00  1.1381668635215208e-04 -9.8075791733140761e-06 0.0000000000000000e+00  1.4136442921650177e-04 -1.1852592379103262e-05 0.0000000000000000e+00  1.7700137703462692e-04 -1.4179673645693370e-05 0.0000000000000000e+00  2.2469639497777239e-04 -1.6768426207935050e-05 0.0000000000000000e+00  2.9107267645074440e-04 -1.9647648852370013e-05 0.0000000000000000e+00  3.8712426265907464e-04 -2.3212236406085484e-05 0.0000000000000000e+00  5.3079293028093766e-04 -2.9257384438646147e-05 0.0000000000000000e+00  0.0000000000000000e+00 0.0000000000000000e+00 0.0000000000000000e+00  5.8723992284197845e-06 -5.3171918248096516e-07 0.0000000000000000e+00  1.1950161655612984e-05 -1.0844563520238533e-06 0.0000000000000000e+00  1.8441571209420806e-05 -1.6798705969131573e-06 0.0000000000000000e+00  2.5565654752409425e-05 -2.3412326676812298e-06 0.0000000000000000e+00  3.3557933252868977e-05 -3.0941730012116513e-06 0.0000000000000000e+00  4.2677587967593617e-05 -3.9672762902758832e-06 0.0000000000000000e+00  5.3218183936685813e-05 -4.9922341491335232e-06 0.0000000000000000e+00  6.5526989709104854e-05 -6.2028765431560214e-06 0.0000000000000000e+00  8.0044329161777175e-05 -7.6315474350448901e-06 0.0000000000000000e+00  9.7388185478501912e-05 -9.2994591143752324e-06 0.0000000000000000e+00  1.1853801750809294e-04 -1.1193904164237006e-05 0.0000000000000000e+00  1.4522855470698926e-04 -1.3218246187071183e-05 0.0000000000000000e+00  1.8076555182760311e-04 -1.5091269403611276e-05 0.0000000000000000e+00  2.3161523205739043e-04 -1.6178108003472451e-05 0.0000000000000000e+00  3.1017912598447275e-04 -1.5349583467782568e-05 0.0000000000000000e+00  4.3894167692191575e-04 -1.1488335035383303e-05 0.0000000000000000e+00  0.0000000000000000e+00 0.0000000000000000e+00 0.0000000000000000e+00  5.1580167173804194e-06 -4.7930329401201939e-07 0.0000000000000000e+00  1.0480091279423666e-05 -9.7788176173158871e-07 0.0000000000000000e+00  1.6128211459757831e-05 -1.5156198065772494e-06 0.0000000000000000e+00  2.2265164816830442e-05 -2.1141011801496706e-06 0.0000000000000000e+00  2.9052773073444570e-05 -2.7974961490312392e-06 0.0000000000000000e+00  3.6647736430628925e-05 -3.5934503876010564e-06 0.0000000000000000e+00  4.5194438878163393e-05 -4.5337946728816620e-06 0.0000000000000000e+00  5.4815233161085006e-05 -5.6545236493327225e-06 0.0000000000000000e+00  6.5602638907053822e-05 -6.9935224735188082e-06 0.0000000000000000e+00  7.7629211174185734e-05 -8.5819881910367081e-06 0.0000000000000000e+00  9.1021235087222050e-05 -1.0418842229720679e-05 0.0000000000000000e+00  1.0621982441681393e-04 -1.2399844961933613e-05 0.0000000000000000e+00  1.2473854011939325e-04 -1.4126861413923998e-05 0.0000000000000000e+00  1.5111800172168451e-04 -1.4408505550521998e-05 0.0000000000000000e+00  1.9726813092214344e-04 -1.0070864706196784e-05 0.0000000000000000e+00  2.8954307676535933e-04 5.9865223986705277e-06 0.0000000000000000e+00  0.0000000000000000e+00 0.0000000000000000e+00 0.0000000000000000e+00  4.2869517256375048e-06 -4.0828839847350928e-07 0.0000000000000000e+00  8.6964663065800169e-06 -8.3333017403639320e-07 0.0000000000000000e+00  1.3345315038322049e-05 -1.2924704561515692e-06 0.0000000000000000e+00  1.8342950058531481e-05 -1.8048201719353760e-06 0.0000000000000000e+00  2.3783338960703570e-05 -2.3923315237928746e-06 0.0000000000000000e+00  2.9730578087666886e-05 -3.0811600602830104e-06 0.0000000000000000e+00  3.6194177315918539e-05 -3.9034427054116902e-06 0.0000000000000000e+00  4.3087976450910941e-05 -4.8995800586543041e-06 0.0000000000000000e+00  5.0164630511957948e-05 -6.1208169622803876e-06 0.0000000000000000e+00  5.6918152215567366e-05 -7.6307037889161629e-06 0.0000000000000000e+00  6.2460375462367978e-05 -9.4996176913265104e-06 0.0000000000000000e+00  6.5438528565541371e-05 -1.1770854862131323e-05 0.0000000000000000e+00  6.4283830322232067e-05 -1.4319311608670675e-05 0.0000000000000000e+00  5.8815835525188260e-05 -1.6298230365866281e-05 0.0000000000000000e+00  5.6397781608823449e-05 -1.3927891792872623e-05 0.0000000000000000e+00  8.5895821874892487e-05 6.9638874199203586e-06 0.0000000000000000e+00  0.0000000000000000e+00 0.0000000000000000e+00 0.0000000000000000e+00  3.3006515048175836e-06 -3.2123105050695099e-07 0.0000000000000000e+00  6.6857439537964243e-06 -6.5590772028866448e-07 0.0000000000000000e+00  1.0232247721710542e-05 -1.0180200934309282e-06 0.0000000000000000e+00  1.4005363448402805e-05 -1.4232413508370634e-06 0.0000000000000000e+00  1.8046846933701315e-05 -1.8900936014153863e-06 0.0000000000000000e+00  2.2354714704782925e-05 -2.4416625238759718e-06 0.0000000000000000e+00  2.6847503429636624e-05 -3.1083358109229572e-06 0.0000000000000000e+00  3.1301067088533124e-05 -3.9324636098176914e-06 0.0000000000000000e+00  3.5236416049502256e-05 -4.9766806305301753e-06 0.0000000000000000e+00  3.7720489867679378e-05 -6.3392919507879552e-06 0.0000000000000000e+00  3.7016115777515436e-05 -8.1832931467525841e-06 0.0000000000000000e+00  2.9994559114363268e-05 -1.0790790807255417e-05 0.0000000000000000e+00  1.1291147746849510e-05 -1.4656895021861810e-05 0.0000000000000000e+00  -2.7224833295785336e-05 -2.0580298206399230e-05 0.0000000000000000e+00  -9.2842072246833668e-05 -2.9023455571151936e-05 0.0000000000000000e+00  -1.5663307378612127e-04 -2.8303649261209638e-05 0.0000000000000000e+00  0.0000000000000000e+00 0.0000000000000000e+00 0.0000000000000000e+00  2.2368786534870474e-06 -2.2142949689120099e-07 0.0000000000000000e+00  4.5254022260453266e-06 -4.5227561654943099e-07 0.0000000000000000e+00  6.9104431745490561e-06 -7.0238321335731940e-07 0.0000000000000000e+00  9.4253251607468679e-06 -9.8294344370021597e-07 0.0000000000000000e+00  1.2080682899692135e-05 -1.3075098445251938e-06 0.0000000000000000e+00  1.4845014493536006e-05 -1.6936218040257473e-06 0.0000000000000000e+00  1.7609725634513204e-05 -2.1656430816782222e-06 0.0000000000000000e+00  2.0124950290663125e-05 -2.7600803149723782e-06 0.0000000000000000e+00  2.1878832030662940e-05 -3.5361245671831130e-06 0.0000000000000000e+00  2.1863728699446122e-05 -4.5976119004557158e-06 0.0000000000000000e+00  1.8108648860807993e-05 -6.1410913163094472e-06 0.0000000000000000e+00  6.7172643743291974e-06 -8.5671802250908151e-06 0.0000000000000000e+00  -2.0129518496044026e-05 -1.2759109344408964e-05 0.0000000000000000e+00  -7.8132938404713666e-05 -2.0867451030686271e-05 0.0000000000000000e+00  -1.9733035095578669e-04 -3.8989835910827017e-05 0.0000000000000000e+00  -4.2873596886182439e-04 -8.9283233644821364e-05 0.0000000000000000e+00  0.0000000000000000e+00 0.0000000000000000e+00 0.0000000000000000e+00  1.1277845894546811e-06 -1.1285779255467427e-07 0.0000000000000000e+00  2.2796920662287812e-06 -2.3055619466715762e-07 0.0000000000000000e+00  3.4758596310741135e-06 -3.5817139500294277e-07 0.0000000000000000e+00  4.7293939797019136e-06 -5.0152690979433667e-07 0.0000000000000000e+00  6.0396635635062462e-06 -6.6778380086276953e-07 0.0000000000000000e+00  7.3805563639952225e-06 -8.6642092102703671e-07 0.0000000000000000e+00  8.6791544216505217e-06 -1.1110131892599260e-06 0.0000000000000000e+00  9.7758305596380861e-06 -1.4226736621427347e-06 0.0000000000000000e+00  1.0346906415961992e-05 -1.8370555110201880e-06 0.0000000000000000e+00  9.7478435932021191e-06 -2.4191582449173157e-06 0.0000000000000000e+00  6.6769341299787627e-06 -3.2954976254404425e-06 0.0000000000000000e+00  -1.5949588332640321e-06 -4.7244231496300181e-06 0.0000000000000000e+00  -2.1106305941516493e-05 -7.2421157826534253e-06 0.0000000000000000e+00  -6.5910567785053793e-05 -1.1890949078944596e-05 0.0000000000000000e+00  -1.6781005459524841e-04 -2.0027874259981277e-05 0.0000000000000000e+00  -3.7332324019928131e-04 -2.9802220656830315e-05 0.0000000000000000e+00  0.0000000000000000e+00 0.0000000000000000e+00 0.0000000000000000e+00  0.0000000000000000e+00 0.0000000000000000e+00 0.0000000000000000e+00  0.0000000000000000e+00 0.0000000000000000e+00 0.0000000000000000e+00  0.0000000000000000e+00 0.0000000000000000e+00 0.0000000000000000e+00  0.0000000000000000e+00 0.0000000000000000e+00 0.0000000000000000e+00  0.0000000000000000e+00 0.0000000000000000e+00 0.0000000000000000e+00  0.0000000000000000e+00 0.0000000000000000e+00 0.0000000000000000e+00  0.0000000000000000e+00 0.0000000000000000e+00 0.0000000000000000e+00  0.0000000000000000e+00 0.0000000000000000e