<?xml version="1.0"?>
<VTKFile type="UnstructuredGrid"  version="0.1"  >
<UnstructuredGrid>
<Piece  NumberOfPoints="289" NumberOfCells="512">
<Points>
<DataArray  type="Float64"  NumberOfComponents="3"  format="ascii">0 0 0  0.0625 0 0  0.125 0 0  0.1875 0 0  0.25 0 0  0.3125 0 0  0.375 0 0  0.4375 0 0  0.5 0 0  0.5625 0 0  0.625 0 0  0.6875 0 0  0.75 0 0  0.8125 0 0  0.875 0 0  0.9375 0 0  1 0 0  0 0.0625 0  0.06247029210065005 0.06247847163030356 0  0.1249404806567617 0.06245657284901836 0  0.1874105485317202 0.06243396521527936 0  0.249880745908228 0.06241039378375424 0  0.3123517709867828 0.062385740687952 0  0.3748250161761557 0.06236009151323341 0  0.4373029169167573 0.06233381460879107 0  0.49978946360514 0.06230764748486042 0  0.5622909902166494 0.06228277360259888 0  0.624817482972516 0.06226085491968261 0  0.6873849893649505 0.06224395848809708 0  0.7500206326668943 0.06223427877979614 0  0.8127744051993132 0.06223351333404059 0  0.8757499362158774 0.06224169934551864 0  0.9391912083792475 0.06225533660594584 0  1.003738497068963 0.06226738337535675 0  0 0.125 0  0.06244070345502616 0.1249573006681357 0  0.124881085709086 0.1249138190131945 0  0.1873209886882506 0.124868832151237 0  0.2497607616095749 0.1248217746869368 0  0.3122016069097309 0.1247723429623167 0  0.3746460534293657 0.1247206282814464 0  0.4370986245298324 0.1246672826023442 0  0.4995668025617461 0.1246137101145828 0  0.5620624590589997 0.1245622587202125 0  0.6246040633014074 0.1245163515727304 0  0.6872202875505929 0.1244804461112495 0  0.7499562523980612 0.124459641026101 0  0.8128847535300714 0.1244587153024469 0  0.8761258315766243 0.1244805820488577 0  0.9398742492648898 0.1245253408920073 0  1.004404772141208 0.124595202234943 0  0 0.1875 0  0.0624115089375958 0.1874369067062612 0  0.1248222517562243 0.187372543232865 0  0.1872316780960703 0.187305716804973 0  0.2496399192726139 0.187235445512346 0  0.3120482597547758 0.1871611053804082 0  0.3744597866519132 0.1870826277517993 0  0.436880303692378 0.1870007595236445 0  0.4993196237759776 0.1869173887564387 0  0.561793395448706 0.1868359154705686 0  0.6243256771951791 0.1867616018537172 0  0.6869525366816016 0.1867017512565196 0  0.7497269241697432 0.1866654123356302 0  0.8127245449137811 0.1866620127632689 0  0.8760481216597777 0.1866976436368603 0  0.9398201605531095 0.1867655914495255 0  1.004139013900136 0.1868199714366621 0  0 0.25 0  0.06238320986220806 0.2499177843617456 0  0.1247649001207298 0.249833710972145 0  0.1871437833231524 0.2497460022841482 0  0.2495193298386225 0.2496531111289248 0  0.3118923065972978 0.2495538948905751 0  0.3742655328863267 0.2494478655441395 0  0.4366449525952255 0.2493355440301606 0  0.4990411397050138 0.2492189439844649 0  0.5614713607727309 0.2491021942592749 0  0.6239622869299637 0.2489922681735096 0  0.6865533093212987 0.2488996956179686 0  0.7492999999223108 0.2488389510659 0  0.8122762121899845 0.2488278733094724 0  0.8755710144678046 0.2488849171017116 0  0.9392727303100735 0.2490224266191285 0  1.003429374723424 0.2492352854031858 0  0 0.3125 0  0.06235660193305181 0.3124005260402757 0  0.1247105885445888 0.3122985003029111 0  0.1870595477763932 0.3121914330547664 0  0.2494017781420454 0.3120770361998838 0  0.3117368224529354 0.3119533979626853 0  0.3740662473828969 0.3118192584882448 0  0.4363947846575477 0.3116744361396768 0  0.4987319681764673 0.3115204651796885 0  0.5610943990460905 0.311361511157229 0  0.6235087067412971 0.3112056166920577 0  0.6860150687170357 0.3110662681458835 0  0.7486706638018592 0.310964108444701 0  0.8115514908549106 0.3109282695339135 0  0.8747495729126458 0.3109961825905935 0  0.9383615688447947 0.3112099341548678 0  1.002467604956624 0.3116068219536238 0  0 0.375 0  0.06233279606118831 0.3748858275809887 0  0.1246615648835527 0.3747683196984059 0  0.1869824028888085 0.3746441592210762 0  0.2492919299802525 0.3745101411370585 0  0.3115877340228026 0.3743633089716767 0  0.3738690765948051 0.3742012079935709 0  0.4361379999786205 0.3740223265062678 0  0.4984010156074206 0.3738268283620274 0  0.5606715848486432 0.3736177212861025 0  0.6229735865935327 0.3734026488707742 0  0.6853458276431904 0.3731965119394407 0  0.7478472723065319 0.3730250472462299 0  0.8105619350135799 0.3729291722621296 0  0.8736014170483585 0.3729691139774164 0  0.9371027939585558 0.3732258865680163 0  1.001222357797055 0.3737957836591477 0  0 0.4375 0  0.06231318340897232 0.4373744704925889 0  0.1246207044030068 0.4372447777040525 0  0.1869168931749417 0.4371067060327592 0  0.2491962719193812 0.4369559959563603 0  0.3114538156355053 0.4367883936752877 0  0.3736854645330888 0.4365998130212869 0  0.4358890539138915 0.4363866936870584 0  0.4980659100770025 0.4361466940918057 0  0.560223470080165 0.4358799436130924 0  0.622379401681363 0.4355912072151533 0  0.6845677694564944 0.4352934812295415 0  0.7468476822985273 0.4350136838657754 0  0.8093143535710337 0.4348010261633162 0  0.8721114664395085 0.4347378716432171 0  0.9354427016760988 0.434950691419856 0  0.9995817273838393 0.4356149412665983 0  0 0.5 0  0.06229934048524129 0.4998672758920836 0  0.1245913204707093 0.4997295925090421 0  0.1868683958164872 0.4995818446618866 0  0.2491227524525379 0.4994186674474774 0  0.3113462852456273 0.499234348691793 0  0.3735307743075402 0.4990228185442599 0  0.4356684344036959 0.4987777931049998 0  0.4977531478006096 0.4984932172173277 0  0.5597829127565525 0.4981642763043032 0  0.6217643799157101 0.4977894690473263 0  0.6837208076581633 0.4973746074247099 0  0.7457052291693803 0.4969401752772201 0  0.8078206871570254 0.4965341054561554 0  0.8702482262849283 0.4962520325225298 0  0.9332802929118043 0.4962645279913569 0  0.9973552731095831 0.4968431041491937 0  0 0.5625 0  0.06229287561816393 0.5623650287903745 0  0.124576848373894 0.5622244362976184 0  0.1868426266471949 0.5620723496801264 0  0.2490800977364681 0.5619023846016411 0  0.3112779386328656 0.5617073814865224 0  0.373423305940437 0.5614791494895031 0  0.4355017477860244 0.5612082589070518 0  0.4974976519543877 0.5608839834740492 0  0.5593958761285528 0.5604946230116662 0  0.6211858184080014 0.5600287091188815 0  0.6828702374880213 0.5594781620816355 0  0.7444827125813505 0.558845595244769 0  0.8061193686289015 0.5581599940555195 0  0.8679905656960607 0.5575077277171647 0  0.9304924270374956 0.557086108895773 0  0.9942834117632555 0.5572750844845245 0  0 0.625 0  0.06229522577570634 0.6248683771884458 0  0.1245804169023405 0.6247307216270532 0  0.186844944632515 0.6245806488684307 0  0.2490767940250997 0.6244110164500247 0  0.3112617599895772 0.6242134728069183 0  0.3733825336268521 0.6239779185567864 0  0.4354177212165563 0.623691855776151 0  0.4973409938176525 0.6233396231419708 0  0.5591209315020076 0.622901585275318 0  0.6207229410163235 0.6223535456050894 0  0.6821163377592016 0.6216672012973865 0  0.7432930048553561 0.6208139209545298 0  0.8043096058605584 0.619777860503293 0  0.8653715981728516 0.6185929537190737 0  0.926974352687768 0.617431283934493 0  0.9900887757259393 0.6167626734921861 0  0 0.6875 0  0.06230742310241332 0.6873777177968229 0  0.1246043446297466 0.6872493536401554 0  0.1868795032372053 0.6871084007603261 0  0.2491197796199858 0.6869474059579915 0  0.3113090051100575 0.6867573616056953 0  0.3734264239922335 0.6865269116540135 0  0.4354446786243718 0.6862412686984615 0  0.4973272386966571 0.6858806979065225 0  0.559025425403242 0.6854183703403507 0  0.6204758996969845 0.6848173494841944 0  0.6816014550844502 0.6840265847016785 0  0.7423229355610206 0.6829766033858339 0  0.8026016310031059 0.6815792877070223 0  0.8625540133456867 0.6797506109097787 0  0.922701661716389 0.6775238658034215 0  0.9843529709004291 0.6753669762896073 0  0 0.75 0  0.06232986283528644 0.7498930872446474 0  0.1246496264885719 0.7497804887423409 0  0.1869483504595697 0.7496560682081617 0  0.2492129801011922 0.749512664516005 0  0.311426896995417 0.7493414023564088 0  0.3735679003463461 0.7491307475663325 0  0.4356052792667994 0.7488651421832234 0  0.4974954971508729 0.748522953286565 0  0.5591758788700164 0.7480732833325268 0  0.6205557783901903 0.7474708347069383 0  0.681505756838263 0.7466473391278579 0  0.7418497523992704 0.7454968544014635 0  0.8013805768686989 0.7438509394905833 0  0.8599671445050935 0.7414445941581895 0  0.917950296574698 0.7379360869867457 0  0.9769093655514016 0.7336344843915844 0  0 0.8125 0  0.06236211538189309 0.8124140818119688 0  0.1247155047029058 0.8123233513476638 0  0.1870506395518367 0.8122225806023843 0  0.2493559399978431 0.8121055832772373 0  0.3116162991460114 0.811964552648602 0  0.3738109197053402 0.8117891312187253 0  0.4359099635364989 0.8115650318780205 0  0.4978691703422869 0.8112719129338927 0  0.5596209954747151 0.8108799833423691 0  0.621059807403349 0.8103443386160046 0  0.6820172564368472 0.8095949049708903 0  0.7422230793496721 0.8085169242719714 0  0.8012525385389236 0.8069086522764088 0  0.8585053325852171 0.8043791078738753 0  0.9135063802246318 0.8000760402540862 0  0.9686159008994271 0.7917983035307864 0  0 0.875 0  0.06240283008374403 0.8749398275340645 0  0.1247992338222096 0.8748761591185763 0  0.1871821551284211 0.8748051795695673 0  0.2495429095250224 0.8747223319170676 0  0.311869975137967 0.8746217978718943 0  0.3741471589044027 0.8744957609318263 0  0.4363506335355303 0.8743333106416444 0  0.4984439122959755 0.8741187687116276 0  0.5603689530118326 0.8738290950674572 0  0.6220297410250312 0.8734298360625545 0  0.6832607189934615 0.8728686983008915 0  0.743763663164427 0.8720646691265895 0  0.8029774247163468 0.8708854640817886 0  0.8598063725946947 0.8690818993980929 0  0.9120831458322994 0.8660418576313433 0  0.9557434780489781 0.8597757821543019 0  0 0.9375 0  0.06244977072923244 0.9374690149350027 0  0.1248961370393436 0.9374361905849513 0  0.1873353501183282 0.9373995145421812 0  0.2497627646436683 0.9373565704426862 0  0.3121721622264989 0.9373042535877285 0  0.3745547072280853 0.937238367369583 0  0.4368972223858825 0.93
[...]
<PointData  Vectors="f_54"> 
<DataArray  type="Float64"  Name="f_54"  NumberOfComponents="3" format="ascii">0.0000000000000000e+00 0.0000000000000000e+00 0.0000000000000000e+00  0.0000000000000000e+00 0.0000000000000000e+00 0.0000000000000000e+00  0.0000000000000000e+00 0.0000000000000000e+00 0.0000000000000000e+00  0.0000000000000000e+00 0.0000000000000000e+00 0.0000000000000000e+00  0.0000000000000000e+00 0.0000000000000000e+00 0.0000000000000000e+00  0.0000000000000000e+00 0.0000000000000000e+00 0.0000000000000000e+00  0.0000000000000000e+00 0.0000000000000000e+00 0.0000000000000000e+00  0.0000000000000000e+00 0.0000000000000000e+00 0.0000000000000000e+00  0.0000000000000000e+00 0.0000000000000000e+00 0.0000000000000000e+00  0.0000000000000000e+00 0.0000000000000000e+00 0.0000000000000000e+00  0.0000000000000000e+00 0.0000000000000000e+00 0.0000000000000000e+00  0.0000000000000000e+00 0.0000000000000000e+00 0.0000000000000000e+00  0.0000000000000000e+00 0.0000000000000000e+00 0.0000000000000000e+00  0.0000000000000000e+00 0.0000000000000000e+00 0.0000000000000000e+00  0.0000000000000000e+00 0.0000000000000000e+00 0.0000000000000000e+00  0.0000000000000000e+00 0.0000000000000000e+00 0.0000000000000000e+00  0.0000000000000000e+00 0.0000000000000000e+00 0.0000000000000000e+00  0.0000000000000000e+00 0.0000000000000000e+00 0.0000000000000000e+00  -2.6877599531072138e-06 -1.4077324254393935e-07 0.0000000000000000e+00  -5.4674844820633394e-06 -2.8433682825388177e-07 0.0000000000000000e+00  -8.4349816157162210e-06 -4.3331693075791015e-07 0.0000000000000000e+00  -1.1690344640230581e-05 -5.8977810375239145e-07 0.0000000000000000e+00  -1.5340087519884330e-05 -7.5480943150080163e-07 0.0000000000000000e+00  -1.9499272213388499e-05 -9.2793456410106888e-07 0.0000000000000000e+00  -2.4293946440902496e-05 -1.1062671105660302e-06 0.0000000000000000e+00  -2.9864904140715788e-05 -1.2833093118509272e-06 0.0000000000000000e+00  -3.6375647027015906e-05 -1.4472306667213817e-06 0.0000000000000000e+00  -4.4032499623567834e-05 -1.5782591533978265e-06 0.0000000000000000e+00  -5.3139155004263426e-05 -1.6440840625519202e-06 0.0000000000000000e+00  -6.4250793079706186e-05 -1.5894735471013897e-06 0.0000000000000000e+00  -7.8630700672136099e-05 -1.3061411841040296e-06 0.0000000000000000e+00  -9.9691802909596670e-05 -5.2885978875197326e-07 0.0000000000000000e+00  -1.3793135416957799e-04 1.5642237185443608e-06 0.0000000000000000e+00  -2.2979425204194538e-04 8.0596709977746436e-06 0.0000000000000000e+00  0.0000000000000000e+00 0.0000000000000000e+00 0.0000000000000000e+00  -5.2791113277778999e-06 -2.7852347152008111e-07 0.0000000000000000e+00  -1.0739827355203914e-05 -5.6287675930342734e-07 0.0000000000000000e+00  -1.6571275510246379e-05 -8.5860753580139919e-07 0.0000000000000000e+00  -2.2971246638879300e-05 -1.1702541208640357e-06 0.0000000000000000e+00  -3.0150440684607381e-05 -1.5005866100189670e-06 0.0000000000000000e+00  -3.8336497977753550e-05 -1.8495098882291410e-06 0.0000000000000000e+00  -4.7778054036657218e-05 -2.2124808864462368e-06 0.0000000000000000e+00  -5.8749745606222457e-05 -2.5782688993038183e-06 0.0000000000000000e+00  -7.1560868493454277e-05 -2.9258615043528362e-06 0.0000000000000000e+00  -8.6574703770223388e-05 -3.2202751513406975e-06 0.0000000000000000e+00  -1.0425557673648486e-04 -3.4069357623208589e-06 0.0000000000000000e+00  -1.2528256853094362e-04 -3.4042379215381613e-06 0.0000000000000000e+00  -1.5080866649192908e-04 -3.0952804675842399e-06 0.0000000000000000e+00  -1.8297167343194344e-04 -2.3329767519752530e-06 0.0000000000000000e+00  -2.2545700452041920e-04 -1.0617981233568823e-06 0.0000000000000000e+00  -2.8106043891858146e-04 -2.0631866751218067e-07 0.0000000000000000e+00  0.0000000000000000e+00 0.0000000000000000e+00 0.0000000000000000e+00  -7.6827777130374908e-06 -4.1012103371144231e-07 0.0000000000000000e+00  -1.5632357505217997e-05 -8.2956236132438197e-07 0.0000000000000000e+00  -2.4126447324773586e-05 -1.2673295642077063e-06 0.0000000000000000e+00  -3.3456024281938899e-05 -1.7311846280954083e-06 0.0000000000000000e+00  -4.3931741463407941e-05 -2.2266704763699347e-06 0.0000000000000000e+00  -5.5889727164600750e-05 -2.7556573337693857e-06 0.0000000000000000e+00  -6.9696536694146730e-05 -3.3141947537463143e-06 0.0000000000000000e+00  -8.5753098800421881e-05 -3.8894262653139683e-06 0.0000000000000000e+00  -1.0449778234252087e-04 -4.4553374844213857e-06 0.0000000000000000e+00  -1.2640920546185235e-04 -4.9672393781123453e-06 0.0000000000000000e+00  -1.5200936540073285e-04 -5.3553167196301955e-06 0.0000000000000000e+00  -1.8186280026156502e-04 -5.5187505017888794e-06 0.0000000000000000e+00  -2.1654004421933833e-04 -5.3249698448765581e-06 0.0000000000000000e+00  -2.5640082155319223e-04 -4.6254290273756974e-06 0.0000000000000000e+00  -3.0066788861977191e-04 -3.3049143108876490e-06 0.0000000000000000e+00  -3.4425495778412605e-04 -1.2918060837385592e-06 0.0000000000000000e+00  0.0000000000000000e+00 0.0000000000000000e+00 0.0000000000000000e+00  -9.8123079335886302e-06 -5.3199902556746253e-07 0.0000000000000000e+00  -1.9969907546373594e-05 -1.0773583810994558e-06 0.0000000000000000e+00  -3.0831992121005667e-05 -1.6492062909617563e-06 0.0000000000000000e+00  -4.2776030441262587e-05 -2.2594887009721069e-06 0.0000000000000000e+00  -5.6206599135708578e-05 -2.9179595850103314e-06 0.0000000000000000e+00  -7.1563288106252281e-05 -3.6305870422716598e-06 0.0000000000000000e+00  -8.9326910109823975e-05 -4.3970812650584748e-06 0.0000000000000000e+00  -1.1002264023690322e-04 -5.2071832629105786e-06 0.0000000000000000e+00  -1.3421751683579558e-04 -6.0353234047034069e-06 0.0000000000000000e+00  -1.6250713309339662e-04 -6.8333708650868329e-06 0.0000000000000000e+00  -1.9548018064960025e-04 -7.5216870557693114e-06 0.0000000000000000e+00  -2.3363423956338915e-04 -7.9800635909568714e-06 0.0000000000000000e+00  -2.7717872100376266e-04 -8.0432801323101886e-06 0.0000000000000000e+00  -3.2557558614718384e-04 -7.5122946737240248e-06 0.0000000000000000e+00  -3.7651251201792634e-04 -6.2028742438259878e-06 0.0000000000000000e+00  -4.2389804621131421e-04 -4.0768609604566377e-06 0.0000000000000000e+00  0.0000000000000000e+00 0.0000000000000000e+00 0.0000000000000000e+00  -1.1588533376657116e-05 -6.4006346469408987e-07 0.0000000000000000e+00  -2.3591653804852520e-05 -1.2980335240892899e-06 0.0000000000000000e+00  -3.6440383870215932e-05 -1.9917979649636355e-06 0.0000000000000000e+00  -5.0589525416395186e-05 -2.7384732102815234e-06 0.0000000000000000e+00  -6.6529386180379422e-05 -3.5535893589278415e-06 0.0000000000000000e+00  -8.4796645004595815e-05 -4.4496465096099126e-06 0.0000000000000000e+00  -1.0598337192704079e-04 -5.4336726249858311e-06 0.0000000000000000e+00  -1.3074225358672420e-04 -6.5032612530051847e-06 0.0000000000000000e+00  -1.5978420319603387e-04 -7.6403841634556139e-06 0.0000000000000000e+00  -1.9386083603940366e-04 -8.8021232481478831e-06 0.0000000000000000e+00  -2.3371692531866064e-04 -9.9075350313682918e-06 0.0000000000000000e+00  -2.7998353895466744e-04 -1.0820590206911745e-05 0.0000000000000000e+00  -3.3295612125817123e-04 -1.1331378781733867e-05 0.0000000000000000e+00  -3.9216099135794161e-04 -1.1142828516178564e-05 0.0000000000000000e+00  -4.5557993634358731e-04 -9.8790139432121445e-06 0.0000000000000000e+00  -5.1848270709123280e-04 -7.1411140513943459e-06 0.0000000000000000e+00  0.0000000000000000e+00 0.0000000000000000e+00 0.0000000000000000e+00  -1.2942185953210106e-05 -7.2974521182958033e-07 0.0000000000000000e+00  -2.6356320944447413e-05 -1.4822405014470647e-06 0.0000000000000000e+00  -4.0732770703937663e-05 -2.2805563429580786e-06 0.0000000000000000e+00  -5.6591562908359588e-05 -3.1477617761161511e-06 0.0000000000000000e+00  -7.4497500829752252e-05 -4.1065613848269721e-06 0.0000000000000000e+00  -9.5075034837257787e-05 -5.1783629538017057e-06 0.0000000000000000e+00  -1.1902218480884736e-04 -6.3813713984364094e-06 0.0000000000000000e+00  -1.4712193144666944e-04 -7.7270519685077534e-06 0.0000000000000000e+00  -1.8024783349147419e-04 -9.2139015485789819e-06 0.0000000000000000e+00  -2.1935749981357924e-04 -1.0816865094527527e-05 0.0000000000000000e+00  -2.6546180390972756e-04 -1.2469954162355740e-05 0.0000000000000000e+00  -3.1954780203636673e-04 -1.4038920716576561e-05 0.0000000000000000e+00  -3.8241825738074729e-04 -1.5281056231297167e-05 0.0000000000000000e+00  -4.5439443732982497e-04 -1.5792222602845188e-05 0.0000000000000000e+00  -5.3483156867162264e-04 -1.4949839626991423e-05 0.0000000000000000e+00  -6.2147010734175511e-04 -1.1875492560532633e-05 0.0000000000000000e+00  0.0000000000000000e+00 0.0000000000000000e+00 0.0000000000000000e+00  -1.3816679797208117e-05 -7.9621590310520497e-07 0.0000000000000000e+00  -2.8147812303902829e-05 -1.6199465311509085e-06 0.0000000000000000e+00  -4.3527574116219461e-05 -2.4994609552512714e-06 0.0000000000000000e+00  -6.0525654639513497e-05 -3.4641000397891965e-06 0.0000000000000000e+00  -7.9766001942171394e-05 -4.5446107426759110e-06 0.0000000000000000e+00  -1.0194644343366642e-04 -5.7731138580044968e-06 0.0000000000000000e+00  -1.2785919547465583e-04 -7.1823628521866619e-06 0.0000000000000000e+00  -1.5841186866963824e-04 -8.8036427312761098e-06 0.0000000000000000e+00  -1.9464778585484278e-04 -1.0662073235998741e-05 0.0000000000000000e+00  -2.3776291204961669e-04 -1.2767006535382983e-05 0.0000000000000000e+00  -2.8911385738048851e-04 -1.5093341720014520e-05 0.0000000000000000e+00  -3.5020645315846788e-04 -1.7546650417532686e-05 0.0000000000000000e+00  -4.2264703548125444e-04 -1.9901327165240064e-05 0.0000000000000000e+00  -5.0803203283002240e-04 -2.1698768661805479e-05 0.0000000000000000e+00  -6.0775976811348702e-04 -2.2097619127192655e-05 0.0000000000000000e+00  -7.2280271715021533e-04 -1.9686368071786921e-05 0.0000000000000000e+00  0.0000000000000000e+00 0.0000000000000000e+00 0.0000000000000000e+00  -1.4170967105720513e-05 -8.3476690745638300e-07 0.0000000000000000e+00  -2.8881118086658372e-05 -1.7012207024236326e-06 0.0000000000000000e+00  -4.4689862389144436e-05 -2.6322712809931078e-06 0.0000000000000000e+00  -6.2197268812979987e-05 -3.6631412544120659e-06 0.0000000000000000e+00  -8.2066195016907676e-05 -4.8325667353167821e-06 0.0000000000000000e+00  -1.0504664897269355e-04 -6.1839833705393491e-06 0.0000000000000000e+00  -1.3200334446684917e-04 -7.7665561850845941e-06 0.0000000000000000e+00  -1.6394767742192233e-04 -9.6356645086291578e-06 0.0000000000000000e+00  -2.0207579884041560e-04 -1.1851886326773809e-05 0.0000000000000000e+00  -2.4781516698771974e-04 -1.4476265374662795e-05 0.0000000000000000e+00  -3.0288291231839149e-04 -1.7556952482816515e-05 0.0000000000000000e+00  -3.6936020954515483e-04 -2.1096914250760160e-05 0.0000000000000000e+00  -4.4978677905736488e-04 -2.4982675289070836e-05 0.0000000000000000e+00  -5.4727897917089747e-04 -2.8839951190568811e-05 0.0000000000000000e+00  -6.6568545040018748e-04 -3.1771343510861775e-05 0.0000000000000000e+00  -8.0985949366210079e-04 -3.1950232584909696e-05 0.0000000000000000e+00  0.0000000000000000e+00 0.0000000000000000e+00 0.0000000000000000e+00  -1.3982261689515400e-05 -8.4131923835049165e-07 0.0000000000000000e+00  -2.8508076511894709e-05 -1.7173189521283147e-06 0.0000000000000000e+00  -4.4140823297440782e-05 -2.6643229619040910e-06 0.0000000000000000e+00  -6.1488179761158736e-05 -3.7221664379500612e-06 0.0000000000000000e+00  -8.1226769964609131e-05 -4.9362809928076825e-06 0.0000000000000000e+00  -1.0413027405028726e-04 -6.3602071836105278e-06 0.0000000000000000e+00  -1.3110282935820033e-04 -8.0587202913094089e-06 0.0000000000000000e+00  -1.6322046530967968e-04 -1.0111729857732191e-05 0.0000000000000000e+00  -2.0178502288863728e-04 -1.2618903107180710e-05 0.0000000000000000e+00  -2.4839816605622253e-04 -1.5704183291917411e-05 0.0000000000000000e+00  -3.0506872586184700e-04 -1.9517032866879079e-05 0.0000000000000000e+00  -3.7437592504932510e-04 -2.4220939477120792e-05 0.0000000000000000e+00  -4.5972407537934519e-04 -2.9944324697604720e-05 0.0000000000000000e+00  -5.6573734566609175e-04 -3.6635638392344288e-05 0.0000000000000000e+00  -6.9885910707668435e-04 -4.3705553560314275e-05 0.0000000000000000e+00  -8.6836669779642814e-04 -4.9264554040057472e-05 0.0000000000000000e+00  0.0000000000000000e+00 0.0000000000000000e+00 0.0000000000000000e+00  -1.3248327086991511e-05 -8.1299737168997460e-07 0.0000000000000000e+00  -2.7022326869893433e-05 -1.6619282233794311e-06 0.0000000000000000e+00  -4.1866184897521815e-05 -2.5846525885095614e-06 0.0000000000000000e+00  -5.8369772494581110e-05 -3.6234514978407537e-06 0.0000000000000000e+00  -7.7194378907002135e-05 -4.8278088501143303e-06 0.0000000000000000e+00  -9.9102658963636019e-05 -6.2580221951238229e-06 0.0000000000000000e+00  -1.2499510495229987e-04 -7.9901819779514521e-06 0.0000000000000000e+00  -1.5595662874081154e-04 -1.0123368492160299e-05 0.0000000000000000e+00  -1.9331936233698652e-04 -1.2790386468896439e-05 0.0000000000000000e+00  -2.3875287903882191e-04 -1.6173909721946759e-05 0.0000000000000000e+00  -2.9440344373883864e-04 -2.0529973198757749e-05 0.0000000000000000e+00  -3.6312490455331977e-04 -2.6218082698795296e-05 0.0000000000000000e+00  -4.4888345207077531e-04 -3.3724507256251236e-05 0.0000000000000000e+00  -5.5747695120405801e-04 -4.3622297240781810e-05 0.0000000000000000e+00  -6.9772462314148843e-04 -5.6299596201048340e-05 0.0000000000000000e+00  -8.8315254193577610e-04 -7.1021110805180308e-05 0.0000000000000000e+00  0.0000000000000000e+00 0.0000000000000000e+00 0.0000000000000000e+00  -1.1988990134150435e-05 -7.4867052376807437e-07 0.0000000000000000e+00  -2.4462696367272582e-05 -1.5323592735894779e-06 0.0000000000000000e+00  -3.7922220805844028e-05 -2.3880888313482515e-06 0.0000000000000000e+00  -5.2912975663612433e-05 -3.3577087640539480e-06 0.0000000000000000e+00  -7.0049712363813438e-05 -4.4909892660231940e-06 0.0000000000000000e+00  -9.0045837135681585e-05 -5.8497388677368642e-06 0.0000000000000000e+00  -1.1374921972143313e-04 -7.5136881903604713e-06 0.0000000000000000e+00  -1.4218783241139228e-04 -9.5894633432261738e-06 0.0000000000000000e+00  -1.7663091539595069e-04 -1.2225133036110075e-05 0.0000000000000000e+00  -2.1867665001267349e-04 -1.5635079525041946e-05 0.0000000000000000e+00  -2.7038989620616321e-04 -2.0144115108769995e-05 0.0000000000000000e+00  -3.3454479535586069e-04 -2.6266411074391583e-05 0.0000000000000000e+00  -4.1510616927084023e-04 -3.4841111179076159e-05 0.0000000000000000e+00  -5.1827473428666163e-04 -4.7231242215694119e-05 0.0000000000000000e+00  -6.5473718633810561e-04 -6.5466618755030611e-05 0.0000000000000000e+00  -8.4301312239482950e-04 -9.2481935929745134e-05 0.0000000000000000e+00  0.0000000000000000e+00 0.0000000000000000e+00 0.0000000000000000e+00  -1.0246584547271174e-05 -6.4935414771376077e-07 0.0000000000000000e+00  -2.0914351287085880e-05 -1.3304443067268369e-06 0.0000000000000000e+00  -3.2438120584356949e-05 -2.0768610645436382e-06 0.0000000000000000e+00  -4.5292718322742311e-05 -2.9268192377698457e-06 0.0000000000000000e+00  -6.0015466579569469e-05 -3.9260766611432302e-06 0.0000000000000000e+00  -7.7232377201522291e-05 -5.1317541439716450e-06 0.0000000000000000e+00  -9.7689598971300136e-05 -6.6176795029286197e-06 0.0000000000000000e+00  -1.2229209169041654e-04 -8.4824132137263746e-06 0.0000000000000000e+00  -1.5215243332151784e-04 -1.0862367790653139e-05 0.0000000000000000e+00  -1.8865527645127962e-04 -1.3955460101216513e-05 0.0000000000000000e+00  -2.3355119574669500e-04 -1.8068058048959018e-05 0.0000000000000000e+00  -2.8912076050672701e-04 -2.3715337245162158e-05 0.0000000000000000e+00  -3.5854163451561619e-04 -3.1844551052914815e-05 0.0000000000000000e+00  -4.4691775969475412e-04 -4.4329704254234311e-05 0.0000000000000000e+00  -5.6464398911482095e-04 -6.4897245117918542e-05 0.0000000000000000e+00  -7.3810218262959388e-04 -9.7025170028091934e-05 0.0000000000000000e+00  0.0000000000000000e+00 0.0000000000000000e+00 0.0000000000000000e+00  -8.0851413815164012e-06 -5.1838293363906085e-07 0.0000000000000000e+00  -1.6507294520506836e-05 -1.0629308618870132e-06 0.0000000000000000e+00  -2.5613968344239216e-05 -1.6613198488945135e-06 0.0000000000000000e+00  -3.5785621309918929e-05 -2.3450882258813380e-06 0.0000000000000000e+00  -4.7454017362148859e-05 -3.1519563323360553e-06 0.0000000000000000e+00  -6.1123301405278100e-05 -4.1286524053617356e-06 0.0000000000000000e+00  -7.7394428609960103e-05 -5.3344163292887853e-06 0.0000000000000000e+00  -9.6993001609555152e-05 -6.8453755442622236e-06 0.0000000000000000e+00  -1.2079922899548737e-04 -8.7601948261780422e-06 0.0000000000000000e+00  -1.4987621736298765e-04 -1.1208506709114814e-05 0.0000000000000000e+00  -1.8548965255960742e-04 -1.4368267323269725e-05 0.0000000000000000e+00  -2.2911374728018050e-04 -1.8515322133840624e-05 0.0000000000000000e+00  -2.8245346728780481e-04 -2.4188096954696976e-05 0.0000000000000000e+00  -3.4771177322456522e-04 -3.2765180778495020e-05 0.0000000000000000e+00  -4.2936577757088297e-04 -4.8730724032779494e-05 0.0000000000000000e+00  -5.4593892611564385e-04 -9.3040407165721675e-05 0.0000000000000000e+00  0.0000000000000000e+00 0.0000000000000000e+00 0.0000000000000000e+00  -5.5882876236180656e-06 -3.6131481663557106e-07 0.0000000000000000e+00  -1.1412122019660916e-05 -7.4127425272107627e-07 0.0000000000000000e+00  -1.7714195256758373e-05 -1.1595693525934259e-06 0.0000000000000000e+00  -2.4760765320018950e-05 -1.6386087996864483e-06 0.0000000000000000e+00  -3.2854672248653724e-05 -2.2050267452689664e-06 0.0000000000000000e+00  -4.2350039848988814e-05 -2.8912650771499159e-06 0.0000000000000000e+00  -5.3668575302168733e-05 -3.7368943048658001e-06 0.0000000000000000e+00  -6.7316062193636936e-05 -4.7886416636073432e-06 0.0000000000000000e+00  -8.3894390251147593e-05 -6.0964336195674662e-06 0.0000000000000000e+00  -1.0409699281244573e-04 -7.6990026483215089e-06 0.0000000000000000e+00  -1.2865989868184345e-04 -9.5847897772118419e-06 0.0000000000000000e+00  -1.5821315924837351e-04 -1.1600010299306706e-05 0.0000000000000000e+00  -1.9295081760759220e-04 -1.3259714762629844e-05 0.0000000000000000e+00  -2.3210697316821348e-04 -1.3432577922990088e-05 0.0000000000000000e+00  -2.7380543118930508e-04 -1.0089926407021846e-05 0.0000000000000000e+00  -3.1879589799752326e-04 -1.8001646783972296e-06 0.0000000000000000e+00  0.0000000000000000e+00 0.0000000000000000e+00 0.0000000000000000e+00  -2.8559444861874741e-06 -1.8558784100456634e-07 0.0000000000000000e+00  -5.8332492852492363e-06 -3.8088370846936447e-07 0.0000000000000000e+00  -9.0569323400049311e-06 -5.9612735195575672e-07 0.0000000000000000e+00  -1.2664403108349624e-05 -8.4295020035606925e-07 0.0000000000000000e+00  -1.6812291220798854e-05 -1.1350870962096114e-06 0.0000000000000000e+00  -2.1684093065873151e-05 -1.4889789677289569e-06 0.0000000000000000e+00  -2.7498370756368833e-05 -1.9238252690392873e-06 0.0000000000000000e+00  -3.4516050445113784e-05 -2.4597905414504043e-06 0.0000000000000000e+00  -4.3042084041530766e-05 -3.1107551401887391e-06 0.0000000000000000e+00  -5.3407730166868698e-05 -3.8617213964341280e-06 0.0000000000000000e+00  -6.5894953318308886e-05 -4.6041298114197916e-06 0.0000000000000000e+00  -8.0497537020977815e-05 -4.9594022948511160e-06 0.0000000000000000e+00  -9.6248969154911682e-05 -3.8301705754432912e-06 0.0000000000000000e+00  -1.0958005062459282e-04 1.5482835570868836e-06 0.0000000000000000e+00  -1.1168150466441971e-04 1.6521428654506628e-05 0.0000000000000000e+00  -9.1036319438183072e-05 4.4920937290112735e-05 0.0000000000000000e+00  0.0000000000000000e+00 0.0000000000000000e+00 0.0000000000000000e+00  0.0000000000000000e+00 0.0000000000000000e+00 0.0000000000000000e+00  0.0000000000000000e+00 0.0000000000000000e+00 0.0000000000000000e+00  0.0000000000000000e+00 0.0000000000000000e+00 0.0000000000000000e+00  0.0000000000000000e+00 0.0000000000000000e+00 0.0000000000000000e+00  0.0000000000000000e+00 0.00