<?xml version="1.0"?>
<VTKFile type="UnstructuredGrid"  version="0.1"  >
<UnstructuredGrid>
<Piece  NumberOfPoints="289" NumberOfCells="512">
<Points>
<DataArray  type="Float64"  NumberOfComponents="3"  format="ascii">0 0 0  0.0625 0 0  0.125 0 0  0.1875 0 0  0.25 0 0  0.3125 0 0  0.375 0 0  0.4375 0 0  0.5 0 0  0.5625 0 0  0.625 0 0  0.6875 0 0  0.75 0 0  0.8125 0 0  0.875 0 0  0.9375 0 0  1 0 0  0 0.0625 0  0.06247322140719264 0.06247862624743371 0  0.1249464366142137 0.06245688499194637 0  0.1874197295667236 0.06243444049903514 0  0.2498934552654561 0.06241103986903512 0  0.3123684222093963 0.06238656614331837 0  0.3748461401712462 0.06236110400858483 0  0.4373291707072096 0.06233501816800029 0  0.4998216418162579 0.06230903842558991 0  0.5623300431403119 0.06228433463573745 0  0.6248645528692727 0.06226254652246281 0  0.687441498668927 0.0622457055463852 0  0.7500885222626017 0.06223594653980643 0  0.8128568222755665 0.06223485200885905 0  0.8758533495275878 0.06224217977063052 0  0.9393324281923769 0.0622535651803218 0  1.00397054185442 0.06225871323976319 0  0 0.125 0  0.06244646017357936 0.1249576067534853 0  0.1248927917887732 0.1249144372980925 0  0.1873390367668532 0.1248697745110913 0  0.2497857519966112 0.1248230575623429 0  0.3122343587899706 0.1247739852820607 0  0.3746876190833178 0.12472264813275 0  0.4371503061877344 0.1246696921225957 0  0.4996301723134589 0.1246165079097275 0  0.5621393848005232 0.1245654189352671 0  0.6246967505168418 0.1245198085412019 0  0.6873313634295767 0.1244840732491216 0  0.7500889568821909 0.1244632223520799 0  0.8130433785837875 0.1244619091502211 0  0.8763166508281435 0.1244828914783276 0  0.9401069654257352 0.1245262132053204 0  1.004691410607448 0.1245950596182818 0  0 0.1875 0  0.06241989409330178 0.1874373578062578 0  0.1248393060440726 0.1873734552920776 0  0.1872579802125608 0.1873071091344783 0  0.2496763546832334 0.1872373453808888 0  0.3120960382153597 0.187163545373985 0  0.374520464165513 0.1870856414528304 0  0.4369558074609349 0.1870043747436185 0  0.4994122783743452 0.1869216173066139 0  0.5619059483937434 0.186840738243174 0  0.6244613225099848 0.1867669479536759 0  0.6871149353730027 0.1867074704141633 0  0.7499202157606294 0.1866712416789353 0  0.8129533113273441 0.1866675442805881 0  0.8763171177881468 0.186702311541463 0  0.9401330927734227 0.1867687188337354 0  1.004494111711232 0.1868208475476754 0  0 0.25 0  0.0623939317702177 0.2499183701931756 0  0.1247867131164094 0.2498348969059615 0  0.187177439612539 0.2497478165323176 0  0.2495659817633782 0.2496555943849698 0  0.3119535315853 0.2495570976595282 0  0.3743433647673932 0.2494518435961146 0  0.4367419168159411 0.2493403509854852 0  0.4991602883658687 0.2492246196478226 0  0.5616163006109567 0.2491087469182621 0  0.624137188009859 0.2489996488398818 0  0.6867628707483667 0.2489077625672117 0  0.7495493223056907 0.2488474250249952 0  0.8125704626686311 0.2488362892468385 0  0.8759146214384529 0.2488925911677543 0  0.939667542889392 0.2490284808979185 0  1.003870825728734 0.2492388196974009 0  0 0.3125 0  0.06236928294205657 0.3124012318476612 0  0.1247363962849481 0.3122999312338486 0  0.1870993903015143 0.3121936276416348 0  0.249457048861084 0.312080051167466 0  0.3118094340382586 0.3119573061879495 0  0.3741586750529339 0.3118241452098434 0  0.4365101160567835 0.3116803922586835 0  0.4988739547973347 0.3115275759026412 0  0.5612674999794915 0.3113698374521531 0  0.6237181077495825 0.3112151661188527 0  0.6862666446639436 0.3110769508789699 0  0.7489708235210921 0.3109756745499591 0  0.8119067889172709 0.3109402266038458 0  0.8751658787486538 0.3110077018913072 0  0.9388424588510463 0.311219772537999 0  1.003011605210737 0.3116133166139229 0  0 0.375 0  0.06234698197185535 0.3748866335368534 0  0.1246904473508011 0.3747699563812372 0  0.1870270221559531 0.3746466764542957 0  0.2493538856137439 0.3745136136294536 0  0.3116692293000903 0.3743678356269483 0  0.3739729766140328 0.374206910010329 0  0.4362679014828444 0.3740293431012048 0  0.4985613244793295 0.3738353081755519 0  0.5608675934586191 0.3736278062985825 0  0.6232115362927164 0.3734144457689054 0  0.6856329292776199 0.3732100431905125 0  0.7481916359015031 0.3730401709013251 0  0.810972324239509 0.3729454570452107 0  0.8740866943468114 0.372985658108984 0  0.937670877884244 0.3732410815350756 0  1.001878546277222 0.3738070542726548 0  0 0.4375 0  0.06232835590344988 0.4373753513294673 0  0.1246516100000128 0.4372465695936018 0  0.1869646738443334 0.4371094701883903 0  0.2492626878071132 0.436959825646823 0  0.3115413008413731 0.4367934155469598 0  0.3737972020571581 0.4366061882149413 0  0.4360290695678495 0.4363946178506193 0  0.4982391841582909 0.4361563945875656 0  0.5604360636095803 0.4358916707173801 0  0.6226385903258729 0.435605213355661 0  0.6848821717992448 0.4353099774453911 0  0.7472273583244068 0.4350327546858377 0  0.8097708327952959 0.4348224726211102 0  0.8726576452899566 0.4347609398622597 0  0.9360925418287516 0.4349736405760492 0  1.00034973309278 0.4356344245429125 0  0 0.5 0  0.06231493283306083 0.499868200958184 0  0.1246230972430562 0.4997314777046498 0  0.1869175630305189 0.4995847614490628 0  0.2491911736380938 0.4994227261892664 0  0.3114365483175754 0.4992397024240322 0  0.3736462834585572 0.4990296679466089 0  0.4358135292585039 0.4987863923917139 0  0.4979332525671065 0.4985038801355101 0  0.5600047186413855 0.4981773801717188 0  0.6220360648138035 0.4978054519384257 0  0.6840522984191807 0.4973939475355059 0  0.7461085141199989 0.4969633291245528 0  0.8083101908209236 0.4965613584529717 0  0.8708412671017531 0.4962831784076766 0  0.9339976723265205 0.4962982503403949 0  0.9982221389815787 0.496875919483198 0  0 0.5625 0  0.06230829171663008 0.5623659626884316 0  0.1246082822423173 0.5622263427257262 0  0.1868913037647069 0.5620753077473231 0  0.2491479164568658 0.5619065178203825 0  0.3113675462661062 0.5617128640202139 0  0.3735382051352428 0.5614862151749599 0  0.4356464379672189 0.5612172136788887 0  0.4976778125631511 0.5608952219155672 0  0.5596186014725339 0.5605086495092884 0  0.6214599191592033 0.5600461627290347 0  0.6832066334514366 0.5594998396930505 0  0.7448949591882142 0.5588724549991267 0  0.8066243914348533 0.5581930895244873 0  0.8686097293362171 0.5575479539071541 0  0.9312531528538753 0.5571335135587712 0  0.9952218202989167 0.5573273169749533 0  0 0.625 0  0.06230986225001437 0.6248692810833002 0  0.124610276460111 0.6247325696721759 0  0.1868912219657066 0.6245835237786179 0  0.2491413442262887 0.6244150484364864 0  0.3113471802924028 0.6242188477916265 0  0.3734922791462512 0.6239848905155245 0  0.4355562614485843 0.6237007647721822 0  0.4975140197195804 0.6233509215540803 0  0.5593356277543564 0.6229158761309159 0  0.6209883464443529 0.6223716387463278 0  0.6824438331252923 0.621690194361171 0  0.7436970007981493 0.6208433086076119 0  0.8048085736579131 0.619815652942403 0  0.865989718832804 0.6186417049489253 0  0.9277442402733383 0.6174937162405778 0  0.9910558354892927 0.6168401232894253 0  0 0.6875 0  0.06232069378308003 0.6873785513662763 0  0.1246314311722438 0.6872510601932705 0  0.1869215158556298 0.6871110614505713 0  0.249178446033813 0.686951149247402 0  0.3113867529715791 0.6867623724276656 0  0.3735264986157546 0.686533445388545 0  0.4355713038723352 0.6862496720683192 0  0.4974858322750418 0.6858914404886817 0  0.5592228848771454 0.6854320933448149 0  0.6207209841805895 0.6848349440205327 0  0.6819053050608126 0.684049321873156 0  0.7426998147225622 0.6830063549285652 0  0.8030700823181924 0.6816188937183022 0  0.863138908843022 0.6798044297784857 0  0.9234382659056799 0.6775983044120144 0  0.9852942747724669 0.6754708342931085 0  0 0.75 0  0.06234122452106749 0.749893811120532 0  0.1246728270423236 0.749781972346076 0  0.1869843615614585 0.7496583854177475 0  0.2492633168815165 0.749515932617473 0  0.311493695237905 0.7493457908561976 0  0.3736540274232865 0.7491364915385325 0  0.4357144867154587 0.7488725620414552 0  0.4976326258020895 0.7485324843483423 0  0.5593471312580299 0.7480855216432263 0  0.620769078568949 0.7474866125698716 0  0.6817712277811233 0.746667860010055 0  0.7421803684664567 0.7455239544237281 0  0.8017931441661239 0.7438876261236972 0  0.8604841314786944 0.7414961764045713 0  0.9186045403962011 0.7380122926549124 0  0.9777590917482644 0.7337479508118511 0  0 0.8125 0  0.06237109345676468 0.8124146602486224 0  0.1247338450696663 0.8123245378595527 0  0.1870791245991258 0.8122244362515232 0  0.2493957918282904 0.8121082050688017 0  0.3116692453098202 0.8119680807961842 0  0.3738792881021209 0.8117937597973685 0  0.43599681351693 0.8115710237605269 0  0.4979784692260572 0.8112796202515737 0  0.5597578515169276 0.8108898754773374 0  0.621230770512408 0.8103570422954378 0  0.6822306947029545 0.8096112704747349 0  0.7424896318482673 0.8085381652983037 0  0.8015856466376924 0.8069367206993073 0  0.8589219667156772 0.8044178541416019 0  0.9140289505476317 0.8001353135680244 0  0.9692829848568586 0.7919149108883844 0  0 0.875 0  0.06240904233840163 0.8749402309865336 0  0.1248119281635235 0.8748769871808384 0  0.1872018810917876 0.8748064757980502 0  0.2495705267844526 0.8747241654554523 0  0.3119067018229166 0.8746242684267992 0  0.3741946416761063 0.8744990056465836 0  0.436411044815656 0.8743375125926903 0  0.4985200813637545 0.8741241655384574 0  0.560464537766358 0.8738359830509578 0  0.6221494433004178 0.8734385573244371 0  0.6834105323894351 0.8728795822029781 0  0.7439511087046121 0.8720778680469784 0  0.80321167382075 0.8709005834445984 0  0.860098136321915 0.8690973287102396 0  0.9124445061090645 0.8660540130567534 0  0.9561900753373903 0.8597804580005989 0  0 0.9375 0  0.06245294766758492 0.9374692222494276 0  0.1249026303529257 0.937436616240281 0  0.1873454438554511 0.9374001812235212 0  0.2497769037082042 0.9373575141266675 0  0.3121909782608195 0.9373055260164037 0  0.3745790563474569 0.9372400392371688 0  0.4369282378297035 0.93715519
[...]
<PointData  Vectors="f_54"> 
<DataArray  type="Float64"  Name="f_54"  NumberOfComponents="3" format="ascii">0.0000000000000000e+00 0.0000000000000000e+00 0.0000000000000000e+00  0.0000000000000000e+00 0.0000000000000000e+00 0.0000000000000000e+00  0.0000000000000000e+00 0.0000000000000000e+00 0.0000000000000000e+00  0.0000000000000000e+00 0.0000000000000000e+00 0.0000000000000000e+00  0.0000000000000000e+00 0.0000000000000000e+00 0.0000000000000000e+00  0.0000000000000000e+00 0.0000000000000000e+00 0.0000000000000000e+00  0.0000000000000000e+00 0.0000000000000000e+00 0.0000000000000000e+00  0.0000000000000000e+00 0.0000000000000000e+00 0.0000000000000000e+00  0.0000000000000000e+00 0.0000000000000000e+00 0.0000000000000000e+00  0.0000000000000000e+00 0.0000000000000000e+00 0.0000000000000000e+00  0.0000000000000000e+00 0.0000000000000000e+00 0.0000000000000000e+00  0.0000000000000000e+00 0.0000000000000000e+00 0.0000000000000000e+00  0.0000000000000000e+00 0.0000000000000000e+00 0.0000000000000000e+00  0.0000000000000000e+00 0.0000000000000000e+00 0.0000000000000000e+00  0.0000000000000000e+00 0.0000000000000000e+00 0.0000000000000000e+00  0.0000000000000000e+00 0.0000000000000000e+00 0.0000000000000000e+00  0.0000000000000000e+00 0.0000000000000000e+00 0.0000000000000000e+00  0.0000000000000000e+00 0.0000000000000000e+00 0.0000000000000000e+00  -2.9293065425862229e-06 -1.5461713014458602e-07 0.0000000000000000e+00  -5.9559574520325350e-06 -3.1214292801360454e-07 0.0000000000000000e+00  -9.1810350034604089e-06 -4.7528375577485761e-07 0.0000000000000000e+00  -1.2709357228133276e-05 -6.4608528088979426e-07 0.0000000000000000e+00  -1.6651222613470433e-05 -8.2545536637246660e-07 0.0000000000000000e+00  -2.1123995090527496e-05 -1.0124953514306227e-06 0.0000000000000000e+00  -2.6253790452245136e-05 -1.2035592092130607e-06 0.0000000000000000e+00  -3.2178211117913315e-05 -1.3909407294940296e-06 0.0000000000000000e+00  -3.9052923662456563e-05 -1.5610331385711629e-06 0.0000000000000000e+00  -4.7069896756653675e-05 -1.6916027802018515e-06 0.0000000000000000e+00  -5.6509303976451063e-05 -1.7470582881215800e-06 0.0000000000000000e+00  -6.7889595707310967e-05 -1.6677600102863729e-06 0.0000000000000000e+00  -8.2417076253341485e-05 -1.3386748184599884e-06 0.0000000000000000e+00  -1.0341331171036021e-04 -4.8042511187831697e-07 0.0000000000000000e+00  -1.4121981312947577e-04 1.7714256240302559e-06 0.0000000000000000e+00  -2.3204478545698235e-04 8.6701355935570631e-06 0.0000000000000000e+00  0.0000000000000000e+00 0.0000000000000000e+00 0.0000000000000000e+00  -5.7567185532027265e-06 -3.0608534955852799e-07 0.0000000000000000e+00  -1.1706079687214361e-05 -6.1828489804288510e-07 0.0000000000000000e+00  -1.8048078602627940e-05 -9.4235985428312566e-07 0.0000000000000000e+00  -2.4990387036292233e-05 -1.2828754060651097e-06 0.0000000000000000e+00  -3.2751880239665302e-05 -1.6423197440682583e-06 0.0000000000000000e+00  -4.1565653952042108e-05 -2.0198513035561042e-06 0.0000000000000000e+00  -5.1681657901969335e-05 -2.4095202514393004e-06 0.0000000000000000e+00  -6.3369751712721010e-05 -2.7977951446844249e-06 0.0000000000000000e+00  -7.6925741523549296e-05 -3.1602150545542056e-06 0.0000000000000000e+00  -9.2687215434427393e-05 -3.4569684715397999e-06 0.0000000000000000e+00  -1.1107587898369056e-04 -3.6271378720917999e-06 0.0000000000000000e+00  -1.3270448412975810e-04 -3.5813259788718755e-06 0.0000000000000000e+00  -1.5862505371609431e-04 -3.1938477741786677e-06 0.0000000000000000e+00  -1.9081925151923388e-04 -2.3094294699143813e-06 0.0000000000000000e+00  -2.3271616084545710e-04 -8.7231331309591643e-07 0.0000000000000000e+00  -2.8663846624048180e-04 1.4261666119485313e-07 0.0000000000000000e+00  0.0000000000000000e+00 0.0000000000000000e+00 0.0000000000000000e+00  -8.3851557059800768e-06 -4.5109999655396282e-07 0.0000000000000000e+00  -1.7054287848326449e-05 -9.1205921266244168e-07 0.0000000000000000e+00  -2.6302116490427242e-05 -1.3923295052959992e-06 0.0000000000000000e+00  -3.6435410619417150e-05 -1.8998685427768163e-06 0.0000000000000000e+00  -4.7778460583923169e-05 -2.4399935768299774e-06 0.0000000000000000e+00  -6.0677513599768734e-05 -3.0137010311652668e-06 0.0000000000000000e+00  -7.5503768556950556e-05 -3.6152199740188651e-06 0.0000000000000000e+00  -9.2654598367670040e-05 -4.2285501752438716e-06 0.0000000000000000e+00  -1.1255294503744887e-04 -4.8227726054532307e-06 0.0000000000000000e+00  -1.3564531480570493e-04 -5.3460999587288647e-06 0.0000000000000000e+00  -1.6239869140115864e-04 -5.7191576436917074e-06 0.0000000000000000e+00  -1.9329159088625470e-04 -5.8293433050369824e-06 0.0000000000000000e+00  -2.2876641356299999e-04 -5.5315173191319475e-06 0.0000000000000000e+00  -2.6899612836910953e-04 -4.6679046027782634e-06 0.0000000000000000e+00  -3.1293222031330149e-04 -3.1273842099104843e-06 0.0000000000000000e+00  -3.5509781109573020e-04 -8.7611101327212458e-07 0.0000000000000000e+00  0.0000000000000000e+00 0.0000000000000000e+00 0.0000000000000000e+00  -1.0721908009641939e-05 -5.8583142999233334e-07 0.0000000000000000e+00  -2.1812995679620015e-05 -1.1859338164419005e-06 0.0000000000000000e+00  -3.3656289386582573e-05 -1.8142481693492961e-06 0.0000000000000000e+00  -4.6651924755758376e-05 -2.4832560450838001e-06 0.0000000000000000e+00  -6.1224988002168152e-05 -3.2027689531900581e-06 0.0000000000000000e+00  -7.7831881066518240e-05 -3.9780519751298934e-06 0.0000000000000000e+00  -9.6964220715642989e-05 -4.8069553246031358e-06 0.0000000000000000e+00  -1.1914866085487644e-04 -5.6756633577739879e-06 0.0000000000000000e+00  -1.4493983822582254e-04 -6.5526589872510991e-06 0.0000000000000000e+00  -1.7490107989524131e-04 -7.3806663721999302e-06 0.0000000000000000e+00  -2.0956142706801703e-04 -8.0669492431070411e-06 0.0000000000000000e+00  -2.4932238337990964e-04 -8.4739590951847345e-06 0.0000000000000000e+00  -2.9425047864659330e-04 -8.4159373660594858e-06 0.0000000000000000e+00  -3.4360697064823046e-04 -7.6740660426594746e-06 0.0000000000000000e+00  -3.9481257931849186e-04 -6.0542787900159125e-06 0.0000000000000000e+00  -4.4145100530948385e-04 -3.5342942150826578e-06 0.0000000000000000e+00  0.0000000000000000e+00 0.0000000000000000e+00 0.0000000000000000e+00  -1.2681009004765947e-05 -7.0580738550763371e-07 0.0000000000000000e+00  -2.5807740359319318e-05 -1.4309309374903838e-06 0.0000000000000000e+00  -3.9842525121131375e-05 -2.1945868683340469e-06 0.0000000000000000e+00  -5.5270719038567841e-05 -3.0149675821945426e-06 0.0000000000000000e+00  -7.2611585323170059e-05 -3.9082252641255755e-06 0.0000000000000000e+00  -9.2427670037031326e-05 -4.8867215986762346e-06 0.0000000000000000e+00  -1.1533139923572732e-04 -5.9561190067052212e-06 0.0000000000000000e+00  -1.4198662086741036e-04 -7.1107229527717019e-06 0.0000000000000000e+00  -1.7310093340104613e-04 -8.3262949240473398e-06 0.0000000000000000e+00  -2.0940100828537711e-04 -9.5494267950437047e-06 0.0000000000000000e+00  -2.5157594690791664e-04 -1.0682733086420949e-05 0.0000000000000000e+00  -3.0015971923287945e-04 -1.1566105258083829e-05 0.0000000000000000e+00  -3.5529806236023594e-04 -1.1957069932344847e-05 0.0000000000000000e+00  -4.1630583600803234e-04 -1.1519300713721567e-05 0.0000000000000000e+00  -4.8089000625157075e-04 -9.8383831312231970e-06 0.0000000000000000e+00  -5.4400025411274235e-04 -6.4946602991414375e-06 0.0000000000000000e+00  0.0000000000000000e+00 0.0000000000000000e+00 0.0000000000000000e+00  -1.4185910667041429e-05 -8.0595586473047230e-07 0.0000000000000000e+00  -2.8882467248395444e-05 -1.6366828313299867e-06 0.0000000000000000e+00  -4.4619267144643132e-05 -2.5172332194462518e-06 0.0000000000000000e+00  -6.1955633491340791e-05 -3.4724923950974129e-06 0.0000000000000000e+00  -8.1495277287719903e-05 -4.5266552715967189e-06 0.0000000000000000e+00  -1.0390001922768049e-04 -5.7020167580830353e-06 0.0000000000000000e+00  -1.2990150422393501e-04 -7.0165949370222757e-06 0.0000000000000000e+00  -1.6030887190894856e-04 -8.4798135245795950e-06 0.0000000000000000e+00  -1.9600860997593479e-04 -1.0085012479968071e-05 0.0000000000000000e+00  -2.3794969918368447e-04 -1.1796898131166301e-05 0.0000000000000000e+00  -2.8710163442941807e-04 -1.3531251071838898e-05 0.0000000000000000e+00  -3.4436359497113094e-04 -1.5123655095169011e-05 0.0000000000000000e+00  -4.1038922592913748e-04 -1.6284783081077910e-05 0.0000000000000000e+00  -4.8527729845292199e-04 -1.6544131567535735e-05 0.0000000000000000e+00  -5.6808392568822392e-04 -1.5194967059320288e-05 0.0000000000000000e+00  -6.5618848016669215e-04 -1.1270613507111857e-05 0.0000000000000000e+00  0.0000000000000000e+00 0.0000000000000000e+00 0.0000000000000000e+00  -1.5172494477556384e-05 -8.8083687835425527e-07 0.0000000000000000e+00  -3.0905597005981384e-05 -1.7918895492999982e-06 0.0000000000000000e+00  -4.7780669391754639e-05 -2.7641556310814602e-06 0.0000000000000000e+00  -6.6415887732052683e-05 -3.8296904626844876e-06 0.0000000000000000e+00  -8.7485205867750236e-05 -5.0218716721919570e-06 0.0000000000000000e+00  -1.1173752406931438e-04 -6.3751936544332849e-06 0.0000000000000000e+00  -1.4001565395799134e-04 -7.9241635609311131e-06 0.0000000000000000e+00  -1.7327408128849268e-04 -9.7004957598122412e-06 0.0000000000000000e+00  -2.1259352941528767e-04 -1.1727104287730178e-05 0.0000000000000000e+00  -2.5918864450990073e-04 -1.4006140507716103e-05 0.0000000000000000e+00  -3.1440234275032490e-04 -1.6496215849636473e-05 0.0000000000000000e+00  -3.7967602587946270e-04 -1.9070820062250842e-05 0.0000000000000000e+00  -4.5647922426225859e-04 -2.1446457794060429e-05 0.0000000000000000e+00  -5.4617885044804307e-04 -2.3068219042512783e-05 0.0000000000000000e+00  -6.4984015265278554e-04 -2.2949156193217773e-05 0.0000000000000000e+00  -7.6800570894019864e-04 -1.9483276314254077e-05 0.0000000000000000e+00  0.0000000000000000e+00 0.0000000000000000e+00 0.0000000000000000e+00  -1.5592347819528712e-05 -9.2506610045121720e-07 0.0000000000000000e+00  -3.1776772346912583e-05 -1.8851956076454743e-06 0.0000000000000000e+00  -4.9167214031713805e-05 -2.9167871761958830e-06 0.0000000000000000e+00  -6.8421185555903394e-05 -4.0587417890741379e-06 0.0000000000000000e+00  -9.0263071948151402e-05 -5.3537322392113701e-06 0.0000000000000000e+00  -1.1550915101693708e-04 -6.8494023489676916e-06 0.0000000000000000e+00  -1.4509485480799957e-04 -8.5992867141397671e-06 0.0000000000000000e+00  -1.8010476649679794e-04 -1.0662918182368045e-05 0.0000000000000000e+00  -2.2180588483296611e-04 -1.3103867415643477e-05 0.0000000000000000e+00  -2.7168489809332265e-04 -1.5982891099374781e-05 0.0000000000000000e+00  -3.3149076101737551e-04 -1.9340110796009568e-05 0.0000000000000000e+00  -4.0328495061863270e-04 -2.3153847332695674e-05 0.0000000000000000e+00  -4.8950366389819680e-04 -2.7252996816253153e-05 0.0000000000000000e+00  -5.9304081682486304e-04 -3.1145885146878605e-05 0.0000000000000000e+00  -7.1737941471633287e-04 -3.3722349038027939e-05 0.0000000000000000e+00  -8.6686587199566055e-04 -3.2815334004268528e-05 0.0000000000000000e+00  0.0000000000000000e+00 0.0000000000000000e+00 0.0000000000000000e+00  -1.5416098466150902e-05 -9.3389805710867243e-07 0.0000000000000000e+00  -3.1433868423272091e-05 -1.9064281077914615e-06 0.0000000000000000e+00  -4.8677117512030707e-05 -2.9580671966563287e-06 0.0000000000000000e+00  -6.7818720397700417e-05 -4.1332187413643154e-06 0.0000000000000000e+00  -8.9607633240656049e-05 -5.4825336915163936e-06 0.0000000000000000e+00  -1.1489919480576174e-04 -7.0656854568113641e-06 0.0000000000000000e+00  -1.4469018119449978e-04 -8.9547718368077367e-06 0.0000000000000000e+00  -1.8016060876348294e-04 -1.1238441517991968e-05 0.0000000000000000e+00  -2.2272534398114796e-04 -1.4026497622159647e-05 0.0000000000000000e+00  -2.7410075120193767e-04 -1.7453610153293152e-05 0.0000000000000000e+00  -3.3639596341533380e-04 -2.1677611415002177e-05 0.0000000000000000e+00  -4.1224660686383616e-04 -2.6859754357790177e-05 0.0000000000000000e+00  -5.0502280595177769e-04 -3.3095468967835154e-05 0.0000000000000000e+00  -6.1916364015631678e-04 -4.0226189989385007e-05 0.0000000000000000e+00  -7.6072581637972041e-04 -4.7404662998085356e-05 0.0000000000000000e+00  -9.3840853566121824e-04 -5.2232490428808178e-05 0.0000000000000000e+00  0.0000000000000000e+00 0.0000000000000000e+00 0.0000000000000000e+00  -1.4636474308025712e-05 -9.0389485445081773e-07 0.0000000000000000e+00  -2.9859557770480383e-05 -1.8480451226645100e-06 0.0000000000000000e+00  -4.6277333191564160e-05 -2.8749101872764724e-06 0.0000000000000000e+00  -6.4550201188988846e-05 -4.0319864617391798e-06 0.0000000000000000e+00  -8.5420302825619661e-05 -5.3749847081643924e-06 0.0000000000000000e+00  -1.0974551939901345e-04 -6.9719587380680188e-06 0.0000000000000000e+00  -1.3854023202809895e-04 -8.9089960311114673e-06 0.0000000000000000e+00  -1.7302590192793473e-04 -1.1298412109558256e-05 0.0000000000000000e+00  -2.1469625234877697e-04 -1.4290855597916704e-05 0.0000000000000000e+00  -2.6540542802937743e-04 -1.8093141238466219e-05 0.0000000000000000e+00  -3.2749536609082283e-04 -2.2993063784504877e-05 0.0000000000000000e+00  -4.0399594279321252e-04 -2.9387653082113733e-05 0.0000000000000000e+00  -4.9896779735470311e-04 -3.7792439110109839e-05 0.0000000000000000e+00  -6.1812065995237909e-04 -4.8751229851646662e-05 0.0000000000000000e+00  -7.6988758557034593e-04 -6.2432306084878852e-05 0.0000000000000000e+00  -9.6705976335335984e-04 -7.7449797239230914e-05 0.0000000000000000e+00  0.0000000000000000e+00 0.0000000000000000e+00 0.0000000000000000e+00  -1.3270680666715969e-05 -8.3356945351526168e-07 0.0000000000000000e+00  -2.7086542497276374e-05 -1.7065531151084632e-06 0.0000000000000000e+00  -4.2012618424520215e-05 -2.6606902451981908e-06 0.0000000000000000e+00  -5.8666413827175283e-05 -3.7432894104270187e-06 0.0000000000000000e+00  -7.7747861521581613e-05 -5.0108219702213189e-06 0.0000000000000000e+00  -1.0007462352105557e-04 -6.5337345315103617e-06 0.0000000000000000e+00  -1.2662524796341513e-04 -8.4033698577265265e-06 0.0000000000000000e+00  -1.5859357838479641e-04 -1.0742582159117616e-05 0.0000000000000000e+00  -1.9745947390346520e-04 -1.3723004464184001e-05 0.0000000000000000e+00  -2.4508448360500897e-04 -1.7594536338327972e-05 0.0000000000000000e+00  -3.0384997636236761e-04 -2.2737171477510396e-05 0.0000000000000000e+00  -3.7687916154159238e-04 -2.9751542731315053e-05 0.0000000000000000e+00  -4.6845131508659434e-04 -3.9606011279996400e-05 0.0000000000000000e+00  -5.8489549733525977e-04 -5.3818868706902899e-05 0.0000000000000000e+00  -7.3660418929088003e-04 -7.4438608592952246e-05 0.0000000000000000e+00  -9.4130387203778150e-04 -1.0385800350116200e-04 0.0000000000000000e+00  0.0000000000000000e+00 0.0000000000000000e+00 0.0000000000000000e+00  -1.1361685781044319e-05 -7.2387588455200644e-07 0.0000000000000000e+00  -2.3200553751698600e-05 -1.4836037350369109e-06 0.0000000000000000e+00  -3.6011101888795711e-05 -2.3172095858403485e-06 0.0000000000000000e+00  -5.0336780324326585e-05 -3.2681014680249933e-06 0.0000000000000000e+00  -6.6798242488026735e-05 -4.3884997888253295e-06 0.0000000000000000e+00  -8.6127076940387286e-05 -5.7439722000086130e-06 0.0000000000000000e+00  -1.0920744865925240e-04 -7.4198582318353503e-06 0.0000000000000000e+00  -1.3712865121655112e-04 -9.5310617772645181e-06 0.0000000000000000e+00  -1.7125238801351671e-04 -1.2238310699533877e-05 0.0000000000000000e+00  -2.1330017875877572e-04 -1.5777862933264431e-05 0.0000000000000000e+00  -2.6547094286038630e-04 -2.0520882197133189e-05 0.0000000000000000e+00  -3.3061606718634632e-04 -2.7100022264587646e-05 0.0000000000000000e+00  -4.1256729742499904e-04 -3.6686633113870074e-05 0.0000000000000000e+00  -5.1698697360086593e-04 -5.1582246381754911e-05 0.0000000000000000e+00  -6.5424382150314024e-04 -7.6205668166662088e-05 0.0000000000000000e+00  -8.4972619686279807e-04 -1.1346642026663286e-04 0.0000000000000000e+00  0.0000000000000000e+00 0.0000000000000000e+00 0.0000000000000000e+00  -8.9780748715872434e-06 -5.7843665361177084e-07 0.0000000000000000e+00  -1.8340366760503695e-05 -1.1865118889469194e-06 0.0000000000000000e+00  -2.8485047289126248e-05 -1.8556491388605512e-06 0.0000000000000000e+00  -3.9851830447218413e-05 -2.6217915643819804e-06 0.0000000000000000e+00  -5.2946163808808820e-05 -3.5281475822328838e-06 0.0000000000000000e+00  -6.8368396780636199e-05 -4.6285786431923016e-06 0.0000000000000000e+00  -8.6849980431069536e-05 -5.9918825063858938e-06 0.0000000000000000e+00  -1.0929888377022445e-04 -7.7073176810776204e-06 0.0000000000000000e+00  -1.3685604221248392e-04 -9.8921349682286704e-06 0.0000000000000000e+00  -1.7096310905907787e-04 -1.2703679433177832e-05 0.0000000000000000e+00  -2.1343826610729371e-04 -1.6365503844645967e-05 0.0000000000000000e+00  -2.6655249859522444e-04 -2.1241026332253136e-05 0.0000000000000000e+00  -3.3310809876874864e-04 -2.8068422898440655e-05 0.0000000000000000e+00  -4.1663413046009968e-04 -3.8746267726556952e-05 0.0000000000000000e+00  -5.2257032299980527e-04 -5.9273313938199465e-05 0.0000000000000000e+00  -6.6708395743157788e-04 -1.1660735759796166e-04 0.0000000000000000e+00  0.0000000000000000e+00 0.0000000000000000e+00 0.0000000000000000e+00  -6.2122546576084957e-06 -4.0345246909645385e-07 0.0000000000000000e+00  -1.2694341313841323e-05 -8.2806226213687827e-07 0.0000000000000000e+00  -1.9725963366502153e-05 -1.2962284828387972e-06 0.0000000000000000e+00  -2.7617259430226725e-05 -1.8335383846519234e-06 0.0000000000000000e+00  -3.6726684949574049e-05 -2.4705549048508747e-06 0.0000000000000000e+00  -4.7482771703583309e-05 -3.2447147572215018e-06 0.0000000000000000e+00  -6.0411280125718921e-05 -4.2019510459211288e-06 0.0000000000000000e+00  -7.6169067779025213e-05 -5.3968268298105372e-06 0.0000000000000000e+00  -9.5584754525315300e-05 -6.8879835005910204e-06 0.0000000000000000e+00  -1.1970227538665115e-04 -8.7212618826027345e-06 0.0000000000000000e+00  -1.4981339597352217e-04 -1.0883902086545464e-05 0.0000000000000000e+00  -1.8744554018516597e-04 -1.3198920388882207e-05 0.0000000000000000e+00  -2.3424910440316191e-04 -1.5119362809803925e-05 0.0000000000000000e+00  -2.9176372722033333e-04 -1.5429312146718539e-05 0.0000000000000000e+00  -3.6136027676507014e-04 -1.2155425410153989e-05 0.0000000000000000e+00  -4.4659728841228187e-04 -4.6758462969018389e-06 0.0000000000000000e+00  0.0000000000000000e+00 0.0000000000000000e+00 0.0000000000000000e+00  -3.1769383524795196e-06 -2.0731442499941513e-07 0.0000000000000000e+00  -6.4933135820934977e-06 -4.2565532960833632e-07 0.0000000000000000e+00  -1.0093737122881739e-05 -6.6668134000928197e-07 0.0000000000000000e+00  -1.4139064535987800e-05 -9.4368398134014988e-07 0.0000000000000000e+00  -1.8816034320673728e-05 -1.2724286751619443e-06 0.0000000000000000e+00  -2.4349119371583917e-05 -1.6718675857727868e-06 0.0000000000000000e+00  -3.1015443820995180e-05 -2.1641803605558805e-06 0.0000000000000000e+00  -3.9163350072870937e-05 -2.7725156424429236e-06 0.0000000000000000e+00  -4.9233695503000577e-05 -3.5118114487810275e-06 0.0000000000000000e+00  -6.1777236146687574e-05 -4.3597552920436038e-06 0.0000000000000000e+00  -7.7441813366516222e-05 -5.1719885276438045e-06 0.0000000000000000e+00  -9.6838815972204013e-05 -5.4450716515162466e-06 0.0000000000000000e+00  -1.2000388177842058e-04 -3.6949647722347284e-06 0.0000000000000000e+00  -1.4470345987421866e-04 3.9149925858567055e-06 0.0000000000000000e+00  -1.6265257367236000e-04 2.5081720286131777e-05 0.0000000000000000e+00  -1.5838303400944425e-04 6.5944635491855838e-05 0.0000000000000000e+00  0.0000000000000000e+00 0.0000000000000000e+00 0.0000000000000000e+00  0.0000000000000000e+00 0.0000000000000000e+00 0.0000000000000000e+00  0.0000000000000000e+00 0.0000000000000000e+00 0.0000000000000000e+00  0.0000000000000000e+00 0.0000000000000000e+00 0.0000000000000000e+00  0.0000000000000000e+00 0.0000000000000000e+00 0.0000000000000000e+00  0.0000000000000000e+00 0.000