<?xml version="1.0"?>
<VTKFile type="UnstructuredGrid"  version="0.1"  >
<UnstructuredGrid>
<Piece  NumberOfPoints="289" NumberOfCells="512">
<Points>
<DataArray  type="Float64"  NumberOfComponents="3"  format="ascii">0 0 0  0.0625 0 0  0.125 0 0  0.1875 0 0  0.25 0 0  0.3125 0 0  0.375 0 0  0.4375 0 0  0.5 0 0  0.5625 0 0  0.625 0 0  0.6875 0 0  0.75 0 0  0.8125 0 0  0.875 0 0  0.9375 0 0  1 0 0  0 0.0625 0  0.06258528712816377 0.06248564387948753 0  0.1251731631028581 0.06247099199490344 0  0.1877662577051416 0.0624557650986767 0  0.2503672181756811 0.06243972661625915 0  0.3129786992485603 0.062422711740467 0  0.3756033293040252 0.0624046654414653 0  0.4382436476261951 0.06238569078469587 0  0.5009020166160207 0.06236610619429076 0  0.5635805381317437 0.0623465047376757 0  0.6262810719242475 0.0623277981192392 0  0.6890056425423748 0.06231120953407154 0  0.7517580559828937 0.06229814587397134 0  0.8145491324012514 0.06228980861432565 0  0.8774128192308601 0.06228620063806523 0  0.9404555138042593 0.06228349062746558 0  1.004005717094013 0.06226741806697626 0  0 0.125 0  0.0626680417731115 0.1249715764336536 0  0.1253412724549918 0.1249425402088788 0  0.1880249730811163 0.1249123087053898 0  0.2507244870985436 0.1248803782355501 0  0.3134452169003644 0.1248463796483352 0  0.3761925746281006 0.1248101531486821 0  0.4389718742948276 0.1247718467837421 0  0.5017881621858504 0.1247320388908185 0  0.5646460104588669 0.1246918757926739 0  0.6275493664865259 0.1246531987779041 0  0.6905016976186082 0.124618605365504 0  0.7535069484842201 0.1245913514162926 0  0.8165721758664501 0.1245749904017247 0  0.8797122700765413 0.1245728655116981 0  0.9429511208248769 0.1245889064744451 0  1.006282972894563 0.1246368095372351 0  0 0.1875 0  0.06274565239579254 0.1874581178217996 0  0.12549908042189 0.1874152683674876 0  0.188268217172202 0.18737052185199 0  0.2510611445123502 0.1873230504274634 0  0.3138861200843924 0.1872722042732972 0  0.3767515384745452 0.1872176190015396 0  0.4396658002895743 0.1871593646019201 0  0.5026370631145861 0.1870981430193266 0  0.5656728542287842 0.1870355325287495 0  0.6287795370674913 0.1869742565677951 0  0.6919616242914824 0.1869184120226535 0  0.7552208297638314 0.1868735054325807 0  0.8185542258857147 0.1868459571104772 0  0.8819490152493034 0.1868412324165737 0  0.9453666002254801 0.1868580529425248 0  1.00870221344405 0.1868694265539171 0  0 0.25 0  0.06281553156916207 0.2499456253719226 0  0.1256413676297279 0.2498898812280966 0  0.1884880521403046 0.2498314337398401 0  0.2513664169955953 0.2497690533725231 0  0.3142876719616906 0.24970170076238 0  0.3772634149643339 0.2496286567633675 0  0.4403055221193625 0.2495497154671643 0  0.5034258629436421 0.2494654602445307 0  0.566635763515808 0.2493776399518319 0  0.6299450954372093 0.2492896491964519 0  0.6933607624064387 0.249207080664004 0  0.7568840913006014 0.2491382351759744 0  0.820506011546827 0.2490943029901582 0  0.8841976906566353 0.2490886096898832 0  0.9478928987404128 0.2491339273178409 0  1.01146024454844 0.2492376540788897 0  0 0.3125 0  0.0628751565759163 0.3124345030569413 0  0.1257630187849825 0.3123671870343909 0  0.1886766307682638 0.3122962545607398 0  0.2516295231000734 0.3122199871107417 0  0.3146359055595295 0.3121368243164526 0  0.3777107801583668 0.3120454981984162 0  0.4408699258340928 0.3119452510734286 0  0.5041296813119692 0.3118361747279688 0  0.5675064104504484 0.3117197179422856 0  0.6310154585024343 0.3115994156260136 0  0.6946692656453536 0.3114818860758249 0  0.7584740438129922 0.3113781030655649 0  0.822424007335306 0.3113048416050478 0  0.8864917398808733 0.3112859807050329 0  0.9506138042587868 0.311353044669753 0  1.014674784373032 0.3115441646645811 0  0 0.375 0  0.06292213497747291 0.3749252007953572 0  0.1258591509655813 0.3748480993149633 0  0.1888263806812825 0.3747663869278133 0  0.251839899135778 0.3746777753822745 0  0.314916861797173 0.3745800477181315 0  0.3780757832965592 0.374471168360455 0  0.441336712928352 0.3743494893939504 0  0.5047212357548654 0.3742141080323801 0  0.5682521827910749 0.3740654564065926 0  0.631952857618774 0.3739062398533389 0  0.6958454598342398 0.3737428807102409 0  0.759948188870047 0.3735876566342538 0  0.8242702697943978 0.3734617058449898 0  0.8888040532285864 0.3733989241963418 0  0.9535140107836932 0.3734503756672103 0  1.018324911193453 0.3736880499622777 0  0 0.4375 0  0.06295429951674138 0.4374182004670953 0  0.1259253046121112 0.4373336110153675 0  0.1889302929597426 0.4372433932989797 0  0.251987583985939 0.4371446369752146 0  0.3151170593238432 0.4370343570654599 0  0.3783406672889313 0.4369095434605802 0  0.4416828883722788 0.4367673019080239 0  0.5051711195307489 0.4366051515923515 0  0.5688359057609891 0.4364215866950865 0  0.6327109028385389 0.4362170764667258 0  0.6968323874143261 0.4359957794084934 0  0.7612380327716016 0.4357683833792197 0  0.8259645511230007 0.4355566227496775 0  0.8910437445136273 0.435400046622598 0  0.9564967381805309 0.4353652574633864 0  1.022327120189195 0.4355568530172026 0  0 0.5 0  0.06296983215295984 0.4999139866515828 0  0.1259576982047204 0.4998247359343796 0  0.1889823206118483 0.4997289089549161 0  0.252063779650927 0.4996229743741716 0  0.3152242373451236 0.4995031282825451 0  0.3784887093038932 0.4993652444405853 0  0.4418858967467497 0.4992048865905708 0  0.5054490902829837 0.4990174427134713 0  0.5692171630579905 0.4987984920969427 0  0.6332356935453495 0.4985446072042751 0  0.6975583128058259 0.4982549514482524 0  0.7622484713915088 0.4979342975014177 0  0.8273819566552868 0.4975984752116812 0  0.8930505887165373 0.4972836452894805 0  0.9593674782468525 0.4970606362843052 0  1.02647443450642 0.497053523153698 0  0 0.5625 0  0.06296741076815685 0.5624130022257405 0  0.125953534381009 0.562322416748083 0  0.1889778704396408 0.5622244965808026 0  0.2520615701972143 0.5621151677822568 0  0.3152283600834592 0.5619898556082075 0  0.3785055890669116 0.5618433044953044 0  0.4419254559518061 0.5616694038534202 0  0.505526496640844 0.5614610532324626 0  0.5693554661207442 0.5612101448200874 0  0.6334698728403294 0.5609078320088206 0  0.6979416841148021 0.5605454377556659 0  0.7628632237982504 0.560116727739654 0  0.8283571080750176 0.5596229785911774 0  0.8945930701246683 0.5590834008863338 0  0.9618150678781472 0.558554383049136 0  1.030381647369454 0.558158409673378 0  0 0.625 0  0.0629463650238027 0.6249155920401694 0  0.125911329998477 0.624827405541275 0  0.1889143457588085 0.6247314496513663 0  0.2519767399225361 0.624623279655654 0  0.3151228049206248 0.6244977278502361 0  0.3783810855976543 0.6243485819056502 0  0.4417859657011689 0.6241681926174112 0  0.5053796990228319 0.623946997805052 0  0.5692151310210825 0.6236729668444169 0  0.6333595843238532 0.6233310213588474 0  0.6979009040996773 0.6229026245219383 0  0.7629578148716114 0.6223660922120698 0  0.8286990673917863 0.6216991146552484 0  0.8953797294549793 0.6208872281424613 0  0.9634071075520799 0.6199459719919701 0  1.033448985571498 0.6189635024752164 0  0 0.6875 0  0.06290682136970646 0.68742194144817 0  0.1258312284096755 0.6873401307687913 0  0.1887916726215451 0.6872505662267981 0  0.2518085910403272 0.6871486991074227 0  0.3149055910282398 0.6870290876098677 0  0.3781108970542718 0.6868849520242006 0  0.4414591925780251 0.6867075792248374 0  0.5049940479614683 0.6864855059836935 0  0.5687712427654337 0.6862033858845886 0  0.6328635635221596 0.6858404172701625 0  0.6973683535243012 0.6853682012149558 0  0.7624209203576437 0.6847480084186366 0  0.8282215773163242 0.6839280890901922 0  0.8950948138665801 0.6828445963034873 0  0.9636174288251348 0.6814410065541643 0  1.034863288801196 0.6797446951697544 0  0 0.75 0  0.06284981294474377 0.749932019625465 0  0.1257152425162162 0.7498605720168019 0  0.1886127247186637 0.7497819290747653 0  0.2515606320970814 0.7496917815579008 0  0.314580458321964 0.7495848550472125 0  0.3776983021691271 0.7494543938599975 0  0.4409468038031386 0.7492914334253834 0  0.5043677421656337 0.7490837412372716 0  0.5680155958633629 0.7488142398657794 0  0.6319625651092686 0.748458613142057 0  0.6963060890683883 0.7479815994984029 0  0.7611816561859729 0.7473311226038274 0  0.8267898093730872 0.7464288472944961 0  0.8934668087735669 0.7451556649984753 0  0.96188925524891 0.7433386060421713 0  1.033569281243701 0.7408381929768955 0  0 0.8125 0  0.06277732958681111 0.8124455393095735 0  0.1255673752253435 0.8123881683135443 0  0.1883835572931252 0.8123247374881173 0  0.2512409988376053 0.8122515583555997 0  0.3141575912539603 0.8121640363951715 0  0.3771553612005979 0.8120561629441905 0  0.4402622966192141 0.8119197753157082 0  0.5035148400884816 0.8117434425672591 0  0.5669613105040896 0.8115107465101959 0  0.6306665441099544 0.8111975753170746 0  0.6947180339280238 0.8107677667924494 0  0.7592340297302462 0.8101658601437742 0  0.8243765300535841 0.8093043364359386 0  0.8903896859404977 0.8080391001565764 0  0.9577895817107299 0.8061178804431399 0  1.028475799231429 0.8030732075059238 0  0 0.875 0  0.06269228741748573 0.8749619438551142 0  0.1253935718782531 0.8749217847281393 0  0.1881133712546214 0.8748772360625179 0  0.250862482593959 0.8748255945853534 0  0.3136538003049119 0.8747634504791657 0  0.3765033904440314 0.8746862780869511 0  0.4394319642973216 0.8745878268662449 0  0.5024669452527497 0.8744591836295813 0  0.5656453639918342 0.8742872948926902 0  0.6290177581282186 0.8740526013762095 0  0.6926527869004468 0.8737252078603858 0  0.7566404639313663 0.8732585835509559 0  0.8210862627019885 0.8725786430199137 0  0.8860743734848485 0.8715614033089918 0  0.9515676396381585 0.869970723153543 0  1.017464330733659 0.867225030975204 0  0 0.9375 0  0.06259840669243592 0.9374804289154801 0  0.1252014775823649 0.9374597544312619 0  0.187814155763229 0.937436773376637 0  0.2504420758870939 0.9374100550813319 0  0.3130920151064844 0.9373777810404422 0  0.3757724983140778 0.9373375155026988 0  0.4384946519225869 0.9372858589348404 0 
[...]
<PointData  Vectors="f_54"> 
<DataArray  type="Float64"  Name="f_54"  NumberOfComponents="3" format="ascii">0.0000000000000000e+00 0.0000000000000000e+00 0.0000000000000000e+00  0.0000000000000000e+00 0.0000000000000000e+00 0.0000000000000000e+00  0.0000000000000000e+00 0.0000000000000000e+00 0.0000000000000000e+00  0.0000000000000000e+00 0.0000000000000000e+00 0.0000000000000000e+00  0.0000000000000000e+00 0.0000000000000000e+00 0.0000000000000000e+00  0.0000000000000000e+00 0.0000000000000000e+00 0.0000000000000000e+00  0.0000000000000000e+00 0.0000000000000000e+00 0.0000000000000000e+00  0.0000000000000000e+00 0.0000000000000000e+00 0.0000000000000000e+00  0.0000000000000000e+00 0.0000000000000000e+00 0.0000000000000000e+00  0.0000000000000000e+00 0.0000000000000000e+00 0.0000000000000000e+00  0.0000000000000000e+00 0.0000000000000000e+00 0.0000000000000000e+00  0.0000000000000000e+00 0.0000000000000000e+00 0.0000000000000000e+00  0.0000000000000000e+00 0.0000000000000000e+00 0.0000000000000000e+00  0.0000000000000000e+00 0.0000000000000000e+00 0.0000000000000000e+00  0.0000000000000000e+00 0.0000000000000000e+00 0.0000000000000000e+00  0.0000000000000000e+00 0.0000000000000000e+00 0.0000000000000000e+00  0.0000000000000000e+00 0.0000000000000000e+00 0.0000000000000000e+00  0.0000000000000000e+00 0.0000000000000000e+00 0.0000000000000000e+00  2.4930005043633045e-06 -1.1056867882186655e-07 0.0000000000000000e+00  5.0844456727127829e-06 -2.2609042662153233e-07 0.0000000000000000e+00  7.8781159992404880e-06 -3.5182024627485894e-07 0.0000000000000000e+00  1.0986404889851821e-05 -4.9351906819753216e-07 0.0000000000000000e+00  1.4535320053264553e-05 -6.5771368831332963e-07 0.0000000000000000e+00  1.8670418926510343e-05 -8.5194724065724558e-07 0.0000000000000000e+00  2.3564469766280055e-05 -1.0849932185335524e-06 0.0000000000000000e+00  2.9428538691514620e-05 -1.3669891334234814e-06 0.0000000000000000e+00  3.6530547521587961e-05 -1.7094546024185935e-06 0.0000000000000000e+00  4.5231632791585124e-05 -2.1252998541526090e-06 0.0000000000000000e+00  5.6068315042792627e-05 -2.6295996550591796e-06 0.0000000000000000e+00  6.9961138746594566e-05 -3.2445668926416258e-06 0.0000000000000000e+00  8.8797639890780022e-05 -4.0224017985021006e-06 0.0000000000000000e+00  1.1720616072846179e-04 -5.1399495101444589e-06 0.0000000000000000e+00  1.6842537106806464e-04 -7.2853334708731902e-06 0.0000000000000000e+00  2.8573074694140200e-04 -1.3310353191705152e-05 0.0000000000000000e+00  0.0000000000000000e+00 0.0000000000000000e+00 0.0000000000000000e+00  4.8934151482359731e-06 -2.1644592670771720e-07 0.0000000000000000e+00  9.9806774416124817e-06 -4.4260330521890733e-07 0.0000000000000000e+00  1.5466078630076717e-05 -6.8878511695872873e-07 0.0000000000000000e+00  2.1570955833365994e-05 -9.6633211047727594e-07 0.0000000000000000e+00  2.8543476165635670e-05 -1.2881547006324054e-06 0.0000000000000000e+00  3.6669993727573391e-05 -1.6692737873623547e-06 0.0000000000000000e+00  4.6289055624089614e-05 -2.1273067668564500e-06 0.0000000000000000e+00  5.7810092537498826e-05 -2.6827819685193292e-06 0.0000000000000000e+00  7.1741087226866900e-05 -3.3590698893250418e-06 0.0000000000000000e+00  8.8734785248712701e-05 -4.1815927368500203e-06 0.0000000000000000e+00  1.0967495965388039e-04 -5.1757971355784116e-06 0.0000000000000000e+00  1.3584929012661805e-04 -6.3628471155303589e-06 0.0000000000000000e+00  1.6929690149487285e-04 -7.7488096208802688e-06 0.0000000000000000e+00  2.1342388092331730e-04 -9.2833838189273760e-06 0.0000000000000000e+00  2.7351864372976599e-04 -1.0652134727268552e-05 0.0000000000000000e+00  3.5327458333336755e-04 -1.0160842465977271e-05 0.0000000000000000e+00  0.0000000000000000e+00 0.0000000000000000e+00 0.0000000000000000e+00  7.1048864925277829e-06 -3.1283387247678023e-07 0.0000000000000000e+00  1.4491953774555051e-05 -6.3969076373110934e-07 0.0000000000000000e+00  2.2458375191641316e-05 -9.9547732652483491e-07 0.0000000000000000e+00  3.1326238387875627e-05 -1.3966537359217225e-06 0.0000000000000000e+00  4.1456663558518338e-05 -1.8620857926770390e-06 0.0000000000000000e+00  5.3265789812640663e-05 -2.4139450088470656e-06 0.0000000000000000e+00  6.7243461198868016e-05 -3.0786011582034050e-06 0.0000000000000000e+00  8.3975690310855266e-05 -3.8873456666004450e-06 0.0000000000000000e+00  1.0417236255667991e-04 -4.8765765206833214e-06 0.0000000000000000e+00  1.2870195322237763e-04 -6.0866720006734189e-06 0.0000000000000000e+00  1.5863377631524205e-04 -7.5579865766603451e-06 0.0000000000000000e+00  1.9527882556503816e-04 -9.3208061715467575e-06 0.0000000000000000e+00  2.4017784735300775e-04 -1.1373021833623039e-05 0.0000000000000000e+00  2.9483028021796249e-04 -1.3635531665845935e-05 0.0000000000000000e+00  3.5948451684261507e-04 -1.5890113609325183e-05 0.0000000000000000e+00  4.2927151332387885e-04 -1.7891418495482563e-05 0.0000000000000000e+00  0.0000000000000000e+00 0.0000000000000000e+00 0.0000000000000000e+00  9.0384841874445808e-06 -3.9539957497601489e-07 0.0000000000000000e+00  1.8436634233194356e-05 -8.0843691559704497e-07 0.0000000000000000e+00  2.8572841353975686e-05 -1.2578752392501336e-06 0.0000000000000000e+00  3.9857463729392540e-05 -1.7645267558198804e-06 0.0000000000000000e+00  5.2750813919195498e-05 -2.3524316994164747e-06 0.0000000000000000e+00  6.7783238896835404e-05 -3.0501918293334167e-06 0.0000000000000000e+00  8.5577778139964109e-05 -3.8924555365835829e-06 0.0000000000000000e+00  1.0687534435008929e-04 -4.9214482050246447e-06 0.0000000000000000e+00  1.3256094727281343e-04 -6.1882066642549670e-06 0.0000000000000000e+00  1.6368585771927947e-04 -7.7526672813805665e-06 0.0000000000000000e+00  2.0147152686123365e-04 -9.6806948951972216e-06 0.0000000000000000e+00  2.4725873975282620e-04 -1.2034024501642758e-05 0.0000000000000000e+00  3.0231306795224221e-04 -1.4845170537508024e-05 0.0000000000000000e+00  3.6728779541337687e-04 -1.8062899664979594e-05 0.0000000000000000e+00  4.4097418632503999e-04 -2.1443750605336479e-05 0.0000000000000000e+00  5.1794869658211464e-04 -2.4331462830513808e-05 0.0000000000000000e+00  0.0000000000000000e+00 0.0000000000000000e+00 0.0000000000000000e+00  1.0616574012797870e-05 -4.6052804984426074e-07 0.0000000000000000e+00  2.1656053430693434e-05 -9.4138131250372750e-07 0.0000000000000000e+00  3.3562793454963816e-05 -1.4641809871384010e-06 0.0000000000000000e+00  4.6819128750510118e-05 -2.0530006179216024e-06 0.0000000000000000e+00  6.1966801276184654e-05 -2.7358480764319377e-06 0.0000000000000000e+00  7.9630967794439499e-05 -3.5464584423860442e-06 0.0000000000000000e+00  1.0054728798968207e-04 -4.5265118882904041e-06 0.0000000000000000e+00  1.2559174905348895e-04 -5.7283609764815636e-06 0.0000000000000000e+00  1.5581081635841811e-04 -7.2182311906334142e-06 0.0000000000000000e+00  1.9244480983890617e-04 -9.0795126116480016e-06 0.0000000000000000e+00  2.3692740240922232e-04 -1.1414902255882699e-05 0.0000000000000000e+00  2.9082430458128784e-04 -1.4344214514844659e-05 0.0000000000000000e+00  3.5563930703993047e-04 -1.7990615656804853e-05 0.0000000000000000e+00  4.3236882620001132e-04 -2.2440189802878525e-05 0.0000000000000000e+00  5.2067041100817323e-04 -2.7645799647679914e-05 0.0000000000000000e+00  6.1768072886754218e-04 -3.3224668208413364e-05 0.0000000000000000e+00  0.0000000000000000e+00 0.0000000000000000e+00 0.0000000000000000e+00  1.1776248866895113e-05 -5.0555228275701112e-07 0.0000000000000000e+00  2.4021511088016143e-05 -1.0330074633570095e-06 0.0000000000000000e+00  3.7227801988064840e-05 -1.6056291294622860e-06 0.0000000000000000e+00  5.1929762457225764e-05 -2.2493622897807661e-06 0.0000000000000000e+00  6.8728984978992991e-05 -2.9945243988655055e-06 0.0000000000000000e+00  8.8321806316663567e-05 -3.8779717994685717e-06 0.0000000000000000e+00  1.1153164660880852e-04 -4.9460114622448315e-06 0.0000000000000000e+00  1.3934648519390574e-04 -6.2584365083652236e-06 0.0000000000000000e+00  1.7296067644877067e-04 -7.8942014837652876e-06 0.0000000000000000e+00  2.1381705400395202e-04 -9.9593758697600591e-06 0.0000000000000000e+00  2.6363858625735062e-04 -1.2597968805514219e-05 0.0000000000000000e+00  3.2442694299630241e-04 -1.6005579148534590e-05 0.0000000000000000e+00  3.9838851926075100e-04 -2.0443566458765461e-05 0.0000000000000000e+00  4.8773662602926907e-04 -2.6245408203346322e-05 0.0000000000000000e+00  5.9434710746958028e-04 -3.3793438744172483e-05 0.0000000000000000e+00  7.1938638009777750e-04 -4.3419361747186919e-05 0.0000000000000000e+00  0.0000000000000000e+00 0.0000000000000000e+00 0.0000000000000000e+00  1.2472187882647195e-05 -5.2893178273873313e-07 0.0000000000000000e+00  2.5440155977668397e-05 -1.0801354655929536e-06 0.0000000000000000e+00  3.9422925739897076e-05 -1.6771748964693945e-06 0.0000000000000000e+00  5.4984948762088344e-05 -2.3462710316480394e-06 0.0000000000000000e+00  7.2762436736538799e-05 -3.1180269949631183e-06 0.0000000000000000e+00  9.3494274644169382e-05 -4.0297318843971456e-06 0.0000000000000000e+00  1.1805961307875846e-04 -5.1286459012446526e-06 0.0000000000000000e+00  1.4752463814699519e-04 -6.4769326768701198e-06 0.0000000000000000e+00  1.8320130477322735e-04 -8.1593675217789921e-06 0.0000000000000000e+00  2.2672064052635323e-04 -1.0295747626652339e-05 0.0000000000000000e+00  2.8012200646766988e-04 -1.3061251621149019e-05 0.0000000000000000e+00  3.4595695165612556e-04 -1.6720018213700949e-05 0.0000000000000000e+00  4.2740320039656623e-04 -2.1679813810884367e-05 0.0000000000000000e+00  5.2838855862058238e-04 -2.8577644687053780e-05 0.0000000000000000e+00  6.5376056588773508e-04 -3.8403980063822657e-05 0.0000000000000000e+00  8.0965766883716944e-04 -5.2660872308623210e-05 0.0000000000000000e+00  0.0000000000000000e+00 0.0000000000000000e+00 0.0000000000000000e+00  1.2678777087112839e-05 -5.3034490431121502e-07 0.0000000000000000e+00  2.5859443464594298e-05 -1.0821388529195196e-06 0.0000000000000000e+00  4.0065977311842528e-05 -1.6779135784038375e-06 0.0000000000000000e+00  5.5868219931448549e-05 -2.3425384867767996e-06 0.0000000000000000e+00  7.3908799592836046e-05 -3.1047465966542836e-06 0.0000000000000000e+00  9.4935556020193143e-05 -3.9992115479468425e-06 0.0000000000000000e+00  1.1984263143701808e-04 -5.0696098620790410e-06 0.0000000000000000e+00  1.4972492375920043e-04 -6.3734543555391676e-06 0.0000000000000000e+00  1.8595306137800271e-04 -7.9901763723569012e-06 0.0000000000000000e+00  2.3027989774259137e-04 -1.0035308758534715e-05 0.0000000000000000e+00  2.8499524336893369e-04 -1.2686363886925880e-05 0.0000000000000000e+00  3.5315358633059425e-04 -1.6231428693667541e-05 0.0000000000000000e+00  4.3891036096836938e-04 -2.1161945630209448e-05 0.0000000000000000e+00  5.4801870319225578e-04 -2.8350225651951299e-05 0.0000000000000000e+00  6.8857734220105883e-04 -3.9384893484254141e-05 0.0000000000000000e+00  8.7224986748407596e-04 -5.7194759293933000e-05 0.0000000000000000e+00  0.0000000000000000e+00 0.0000000000000000e+00 0.0000000000000000e+00  1.2391281517363757e-05 -5.1066412004757933e-07 0.0000000000000000e+00  2.5269704698585894e-05 -1.0409099352617217e-06 0.0000000000000000e+00  3.9142011002040152e-05 -1.6110763454953040e-06 0.0000000000000000e+00  5.4558493062537957e-05 -2.2432522750781701e-06 0.0000000000000000e+00  7.2138633524364756e-05 -2.9623723297489140e-06 0.0000000000000000e+00  9.2602442299165384e-05 -3.7976737267692506e-06 0.0000000000000000e+00  1.1681126961899772e-04 -4.7848266529836729e-06 0.0000000000000000e+00  1.4582434366595265e-04 -5.9693444010618175e-06 0.0000000000000000e+00  1.8098177586128392e-04 -7.4125106058249686e-06 0.0000000000000000e+00  2.2403280591771783e-04 -9.2024569261659230e-06 0.0000000000000000e+00  2.7734194339261204e-04 -1.1476206683564352e-05 0.0000000000000000e+00  3.4422828868691338e-04 -1.4465914595200218e-05 0.0000000000000000e+00  4.2952658382904279e-04 -1.8599932950028913e-05 0.0000000000000000e+00  5.4050026470046626e-04 -2.4729516189335999e-05 0.0000000000000000e+00  6.8828566145856182e-04 -3.4640518751057261e-05 0.0000000000000000e+00  8.9016890272100807e-04 -5.2192606781907771e-05 0.0000000000000000e+00  0.0000000000000000e+00 0.0000000000000000e+00 0.0000000000000000e+00  1.1625858747299905e-05 -4.7180109161504297e-07 0.0000000000000000e+00  2.3704320173113339e-05 -9.6053535894331083e-07 0.0000000000000000e+00  3.6704017602128976e-05 -1.4835083905116604e-06 0.0000000000000000e+00  5.1132104459024646e-05 -2.0590256941128239e-06 0.0000000000000000e+00  6.7556572623198195e-05 -2.7069083104385477e-06 0.0000000000000000e+00  8.6633369120607651e-05 -3.4490563769085715e-06 0.0000000000000000e+00  1.0914177501635387e-04 -4.3101153890779324e-06 0.0000000000000000e+00  1.3603424536112019e-04 -5.3183774807571647e-06 0.0000000000000000e+00  1.6851238954409802e-04 -6.5072525450500093e-06 0.0000000000000000e+00  2.0815173929596560e-04 -7.9182006194971275e-06 0.0000000000000000e+00  2.5711963230598789e-04 -9.6076286757179460e-06 0.0000000000000000e+00  3.1857200470702257e-04 -1.1665126668914531e-05 0.0000000000000000e+00  3.9738868928104412e-04 -1.4265535732977532e-05 0.0000000000000000e+00  5.0151916033920683e-04 -1.7824350855670571e-05 0.0000000000000000e+00  6.4432748537881417e-04 -2.3466809779982912e-05 0.0000000000000000e+00  8.4837748411976889e-04 -3.4403828679426012e-05 0.0000000000000000e+00  0.0000000000000000e+00 0.0000000000000000e+00 0.0000000000000000e+00  1.0418290792403985e-05 -4.1643745381120574e-07 0.0000000000000000e+00  2.1237155114766758e-05 -8.4671076760288181e-07 0.0000000000000000e+00  3.2869024839670963e-05 -1.3046616408667321e-06 0.0000000000000000e+00  4.5757680089861193e-05 -1.8043809811870752e-06 0.0000000000000000e+00  6.0395574432870195e-05 -2.3601387190398385e-06 0.0000000000000000e+00  7.7343962199050045e-05 -2.9860297162637683e-06 0.0000000000000000e+00  9.7257863052098613e-05 -3.6950994752240367e-06 0.0000000000000000e+00  1.2091980830364992e-04 -4.4975129800315806e-06 0.0000000000000000e+00  1.4929070985801742e-04 -5.3969213625686328e-06 0.0000000000000000e+00  1.8359648474394790e-04 -6.3833344897765179e-06 0.0000000000000000e+00  2.2549336951675766e-04 -7.4190764692949605e-06 0.0000000000000000e+00  2.7741197651899742e-04 -8.4111608002469187e-06 0.0000000000000000e+00  3.4331055313051854e-04 -9.1592221697601568e-06 0.0000000000000000e+00  4.3034098160765673e-04 -9.2738357978089556e-06 0.0000000000000000e+00  5.5236293079551383e-04 -8.1432919735839852e-06 0.0000000000000000e+00  7.3634006120741656e-04 -5.4580782147905132e-06 0.0000000000000000e+00  0.0000000000000000e+00 0.0000000000000000e+00 0.0000000000000000e+00  8.8214919112924315e-06 -3.4768876849241465e-07 0.0000000000000000e+00  1.7977315288924384e-05 -7.0599958427281636e-07 0.0000000000000000e+00  2.7809514357615776e-05 -1.0852876402087319e-06 0.0000000000000000e+00  3.8683254787328038e-05 -1.4955726540334165e-06 0.0000000000000000e+00  5.0998391946133103e-05 -1.9460308611938495e-06 0.0000000000000000e+00  6.5201268803956918e-05 -2.4439759078931257e-06 0.0000000000000000e+00  8.1796554054700164e-05 -2.9929031805674687e-06 0.0000000000000000e+00  1.0135892100988507e-04 -3.5888001481578327e-06 0.0000000000000000e+00  1.2454511504255263e-04 -4.2131302568826803e-06 0.0000000000000000e+00  1.5211070169118219e-04 -4.8190878472950536e-06 0.0000000000000000e+00  1.8494999067882530e-04 -5.3033115829327387e-06 0.0000000000000000e+00  2.2422630947462269e-04 -5.4438048526777328e-06 0.0000000000000000e+00  2.7181781520495610e-04 -4.7536619770083953e-06 0.0000000000000000e+00  3.3179216387387120e-04 -2.1138547126894486e-06 0.0000000000000000e+00  4.1497520512818082e-04 5.1678402319876174e-06 0.0000000000000000e+00  5.5027211719548322e-04 2.3232661802962645e-05 0.0000000000000000e+00  0.0000000000000000e+00 0.0000000000000000e+00 0.0000000000000000e+00  6.9020819479650799e-06 -2.6877048120508991e-07 0.0000000000000000e+00  1.4061828654786914e-05 -5.4509443050741000e-07 0.0000000000000000e+00  2.1741125103271036e-05 -8.3612972554175006e-07 0.0000000000000000e+00  3.0217001984736566e-05 -1.1483942337061405e-06 0.0000000000000000e+00  3.9787900161846745e-05 -1.4870682696593987e-06 0.0000000000000000e+00  5.0777957984130064e-05 -1.8547366418012379e-06 0.0000000000000000e+00  6.3537004852143669e-05 -2.2491341859445603e-06 0.0000000000000000e+00  7.8431666628234447e-05 -2.6591238139585524e-06 0.0000000000000000e+00  9.5818659013568159e-05 -3.0574707070361396e-06 0.0000000000000000e+00  1.1598357911402169e-04 -3.3875430718229999e-06 0.0000000000000000e+00  1.3901673710738752e-04 -3.5375938383389937e-06 0.0000000000000000e+00  1.6459041992886069e-04 -3.2865090609007654e-06 0.0000000000000000e+00  1.9165913592514319e-04 -2.1727420817752283e-06 0.0000000000000000e+00  2.1852754392906321e-04 8.8634660593237402e-07 0.0000000000000000e+00  2.4592611141607807e-04 8.9825081488764804e-06 0.0000000000000000e+00  2.9692546981365030e-04 3.4216943980712241e-05 0.0000000000000000e+00  0.0000000000000000e+00 0.0000000000000000e+00 0.0000000000000000e+00  4.7365158015996421e-06 -1.8273568273141725e-07 0.0000000000000000e+00  9.6473556717014373e-06 -3.7024363669307176e-07 0.0000000000000000e+00  1.4908645202543980e-05 -5.6692603074747757e-07 0.0000000000000000e+00  2.0705002124953177e-05 -7.7654747692751670e-07 0.0000000000000000e+00  2.7232001416341765e-05 -1.0016079077619884e-06 0.0000000000000000e+00  3.4695779947352578e-05 -1.2422707189422374e-06 0.0000000000000000e+00  4.3306565608790383e-05 -1.4945399176059734e-06 0.0000000000000000e+00  5.3259420014374097e-05 -1.7472179242480606e-06 0.0000000000000000e+00  6.4687851545177483e-05 -1.9769693017344523e-06 0.0000000000000000e+00  7.7558824013196725e-05 -2.1406748244106592e-06 0.0000000000000000e+00  9.1438280457569021e-05 -2.1646392833884221e-06 0.0000000000000000e+00  1.0496534608712742e-04 -1.9326347356380659e-06 0.0000000000000000e+00  1.1467662856647441e-04 -1.2835143506110352e-06 0.0000000000000000e+00  1.1252303794361083e-04 -5.2005370997159545e-08 0.0000000000000000e+00  8.1965603699338152e-05 1.7998727964054274e-06 0.0000000000000000e+00  1.6074797820437893e-06 4.2856286821918553e-06 0.0000000000000000e+00  0.0000000000000000e+00 0.0000000000000000e+00 0.0000000000000000e+00  2.4073352409780234e-06 -9.2333273977132756e-08 0.0000000000000000e+00  4.9022432292264960e-06 -1.8695440291938168e-07 0.0000000000000000e+00  7.5728067893933330e-06 -2.8593181426725952e-07 0.0000000000000000e+00  1.0510682776292296e-05 -3.9094762502329219e-07 0.0000000000000000e+00  1.3811650729820706e-05 -5.0293627579209711e-07 0.0000000000000000e+00  1.7574134473906848e-05 -6.2148802272405346e-07 0.0000000000000000e+00  2.1893431880056408e-05 -7.4387731951704572e-07 0.0000000000000000e+00  2.6846815604084666e-05 -8.6354801549797625e-07 0.0000000000000000e+00  3.2458731927559082e-05 -9.6795975964492614e-07 0.0000000000000000e+00  3.8620824069943793e-05 -1.0362041290032829e-06 0.0000000000000000e+00  4.4903476575199308e-05 -1.0389048357106358e-06 0.0000000000000000e+00  5.0087456361203632e-05 -9.5079755121560618e-07 0.0000000000000000e+00  5.0911659148467065e-05 -8.1533616251503663e-07 0.0000000000000000e+00  3.8469529475591572e-05 -1.0064695937655860e-06 0.0000000000000000e+00  -1.2214725359081783e-05 -3.1743143000583919e-06 0.0000000000000000e+00  -1.6231478943011824e-04 -1.2597918879512232e-05 0.0000000000000000e+00  0.0000000000000000e+00 0.0000000000000000e+00 0.0000000000000000e+00  0.0000000000000000e+00 0.0000000000000000e+00 0.0000000000000000e+00  0.0000000000000000e+00 0.0000000000000000e+00 0.0000000000000000e+00  0.0000000000000000e+00 0.0000000000000000e+00 0.0000000000000000e+00  0.0000000000000000e+00 0.0000000000000000e+00 0.0000000000000000e+00  0.0000000000000000e+00 0.0000000000000000e+00 0.0000000000000000e+00  0.0000000000000000e+00 0.0000000000000000e+00 0.0000000000000000e+00  0.0000000000000000e+00 0.0000000000000000e+00 0.0000000000000000e+00  0.0000000000000000e+00 0.0000000000000000e+00 0.000000000