<?xml version="1.0"?>
<VTKFile type="UnstructuredGrid"  version="0.1"  >
<UnstructuredGrid>
<Piece  NumberOfPoints="289" NumberOfCells="512">
<Points>
<DataArray  type="Float64"  NumberOfComponents="3"  format="ascii">0 0 0  0.0625 0 0  0.125 0 0  0.1875 0 0  0.25 0 0  0.3125 0 0  0.375 0 0  0.4375 0 0  0.5 0 0  0.5625 0 0  0.625 0 0  0.6875 0 0  0.75 0 0  0.8125 0 0  0.875 0 0  0.9375 0 0  1 0 0  0 0.0625 0  0.06258612433598405 0.06249152501291479 0  0.1251749406985742 0.06248285697806298 0  0.1877691818753529 0.06247381075550431 0  0.2503716185138306 0.06246422104707271 0  0.3129850597598139 0.06245395663118928 0  0.3756123306697457 0.06244293968499463 0  0.4382562209413072 0.06243117132727163 0  0.5009194081725015 0.06241876334067118 0  0.5636043853664651 0.06240597341307872 0  0.6263134979091159 0.06239323573303689 0  0.6890494103523231 0.06238116693456823 0  0.751816958369379 0.06237049844733436 0  0.8146293150669794 0.06236179863413949 0  0.8775278822384794 0.06235452281373658 0  0.9406477914641794 0.06234358515648796 0  1.004444051401136 0.06230631430247623 0  0 0.125 0  0.06266964077627868 0.124983238933612 0  0.125344663600608 0.1249660819191046 0  0.1880305412807943 0.1249481471005153 0  0.2507328456400733 0.1249290886608676 0  0.3134572621398123 0.1249086236437948 0  0.3762095583883728 0.1248865694627161 0  0.438995490961515 0.1248628951453294 0  0.5018206422140675 0.1248377877987641 0  0.5646902031136124 0.1248117320861118 0  0.6276087822050217 0.1247855931765197 0  0.6905804688514484 0.1247606816189678 0  0.7536096751522292 0.1247387669540461 0  0.8167036943787528 0.124722035562316 0  0.8798775419791043 0.1247132698259685 0  0.9431546967376263 0.1247180784671293 0  1.006514807974536 0.1247583237054584 0  0 0.1875 0  0.06274785095969447 0.1874753457445169 0  0.1255037390947789 0.1874500755191601 0  0.1882758564045775 0.1874235902309689 0  0.2510725926133079 0.1873953357136154 0  0.3139025856697654 0.1873648385346137 0  0.3767747047825141 0.1873317586309749 0  0.4396979347634987 0.1872959648777193 0  0.5026811254073336 0.1872576388727136 0  0.5657325668882262 0.1872174090619895 0  0.6288593508902535 0.1871765093610456 0  0.6920664587359651 0.1871369390793353 0  0.7553553905107299 0.1871015642753769 0  0.8187215774775227 0.1870740137017147 0  0.8821478034684346 0.1870579504594804 0  0.9455852437817606 0.1870541732064559 0  1.008904100110807 0.1870487003056778 0  0 0.25 0  0.06281809837421852 0.2499680663038722 0  0.1256468032501729 0.2499352758658601 0  0.1884969576330892 0.2499007865582359 0  0.2513797503868839 0.2498637990196184 0  0.3143068341122681 0.2498235954199184 0  0.377290361741364 0.2497796010866224 0  0.4403428952298734 0.24973147919489 0  0.5034771192602474 0.2496792700794901 0  0.5667052596211121 0.2496235866744259 0  0.6300380452409483 0.2495658736225072 0  0.6934829260342782 0.2495087245991993 0  0.7570409711013052 0.2494562199341014 0  0.8207012277369321 0.249414174301888 0  0.8844300656136947 0.2493900432204451 0  0.9481514581252294 0.2493920814805288 0  1.011715617434156 0.249428059691346 0  0 0.3125 0  0.06287781744419388 0.3124616418455791 0  0.1257686505954182 0.3124221671977646 0  0.1886858520784559 0.3123804654638617 0  0.2516433243536745 0.3123354522477456 0  0.3146557443304924 0.3122861023442549 0  0.3777387084425745 0.3122315100965916 0  0.4409087442614666 0.3121709916866693 0  0.5041831033781474 0.312104248719216 0  0.5675791978254509 0.3120316180946471 0  0.6311134519670105 0.311954438347345 0  0.6947991830134477 0.3118755641076109 0  0.758642850529328 0.3118000513669269 0  0.8226376004472682 0.3117360058989589 0  0.8867526254896482 0.3116955284395894 0  0.9509173068967335 0.3116956372115591 0  1.015002798881894 0.3117591262264317 0  0 0.375 0  0.06292460566146867 0.3749563321041226 0  0.1258643757986917 0.3749112776482074 0  0.1888349282590989 0.3748634400182251 0  0.2518526875647076 0.3748114156698566 0  0.3149352576762917 0.3747538102365375 0  0.3781017388720445 0.3746892829615373 0  0.4413729415586577 0.3746166372109979 0  0.5047714164105196 0.3745349834808238 0  0.5683211647202541 0.3744440139549348 0  0.6320468013652925 0.3743444451274699 0  0.6959717962438537 0.3742387070629176 0  0.7601152041085601 0.3741319811658653 0  0.8244860402717165 0.3740337020917125 0  0.8890743668815245 0.3739596185151443 0  0.9538387815371251 0.3739344003896813 0  1.0186922645978 0.3739944667627808 0  0 0.4375 0  0.06295632211657393 0.437452406595506 0  0.1259295725991247 0.4374031626507845 0  0.1889372581941278 0.437350584651746 0  0.2519979865399486 0.4372929326240053 0  0.3151320214604276 0.4372283970846132 0  0.3783618298430187 0.4371551096743981 0  0.4417125961100687 0.4370711954129701 0  0.505212655185882 0.4369748961259833 0  0.5688937534373865 0.4368648134103635 0  0.6327909799901688 0.4367403491382751 0  0.6969421057340459 0.436602466218643 0  0.7613859143964553 0.4364549545994877 0  0.8261589232615977 0.4363064601546662 0  0.8912897604550511 0.4361735822273493 0  0.9567906279228537 0.4360852807612661 0  1.022646058023371 0.4360885333988164 0  0 0.5 0  0.06297121106787246 0.4999501282353181 0  0.1259605885388814 0.4998983718947332 0  0.1889869984574352 0.4998427852907998 0  0.2520707105579714 0.4997813038269333 0  0.315234153040409 0.4997116906326097 0  0.3785027263725444 0.4996314953012974 0  0.4419056900893696 0.4995380382229969 0  0.5054771298575779 0.4994284460757416 0  0.5692570020970775 0.4992997854185134 0  0.6332922395024764 0.4991493785301077 0  0.6976378809217427 0.4989754487250959 0  0.7623581549734066 0.4987783440319536 0  0.8275273723674982 0.498562734243145 0  0.8932303122016024 0.4983413296561456 0  0.9595614837263706 0.4981406511464252 0  1.026622476856739 0.498008694295163 0  0 0.5625 0  0.06296804305255062 0.5624497295914052 0  0.1259548208196558 0.5623974000022165 0  0.1889798692001552 0.5623408609815325 0  0.2520643992864417 0.5622777753606669 0  0.315232241994119 0.5622055183673247 0  0.3785109296125017 0.5621210707763405 0  0.441932975100831 0.5620209095786476 0  0.5055374288899415 0.5619009085796295 0  0.569371828800429 0.5617562789086094 0  0.633494728465019 0.5615816141346515 0  0.6979791225988264 0.5613711721172927 0  0.7629173189684476 0.5611196531042638 0  0.82842813484598 0.5608239583669999 0  0.8946675554732488 0.5604867399416166 0  0.9618437066213995 0.5601227326107726 0  1.030235847081492 0.5597677154108146 0  0 0.625 0  0.06294625954076559 0.624951383599422 0  0.1259110243002663 0.6249006243973259 0  0.1889136650826284 0.6248454615721684 0  0.2519754223829583 0.6247833846876643 0  0.3151204992303393 0.6247114860052188 0  0.3783773656699563 0.6246262840967823 0  0.4417803821245812 0.6245235081530822 0  0.5053718943224441 0.6243978335910368 0  0.5692050375801625 0.6242425654440347 0  0.6333476570531458 0.6240492836270213 0  0.6978880970274359 0.6238075101589883 0  0.7629443152335258 0.6235045723408883 0  0.8286790987859203 0.6231261065666539 0  0.8953262026896875 0.6226582278156965 0  0.9632340445442462 0.6220932292500531 0  1.03293214677887 0.62143953165108 0  0 0.6875 0  0.06290610168282719 0.6874551722810499 0  0.125829590412939 0.6874082376710046 0  0.1887887300641634 0.6873569528825542 0  0.2518037275799631 0.6872987804882037 0  0.3148979004785318 0.6872307041742218 0  0.3780991127438817 0.6871489930777543 0  0.4414416219430196 0.687048888684383 0  0.5049685446587742 0.6869241785639716 0  0.5687352656860476 0.686766609000332 0  0.6328143560158019 0.686565074663703 0  0.6973030972672994 0.6863045153759363 0  0.7623359664353972 0.6859644792483354 0  0.8281074058039853 0.6855175004593415 0  0.8949167022058179 0.6849282269597127 0  0.9632578883381501 0.6841568819590116 0  1.03398401958113 0.6831754199836388 0  0 0.75 0  0.0628487007957161 0.749961058491293 0  0.1257127489117751 0.7499201852252196 0  0.1886083149144911 0.7498753074144539 0  0.251553430422835 0.7498240440178334 0  0.314569130969406 0.749763503870721 0  0.3776808933998895 0.7496900169011451 0  0.4409205276401912 0.7495987587723711 0  0.5043287520988698 0.7494832099063381 0  0.5679588006208752 0.749334358704098 0  0.6318816365158717 0.7491395086335394 0  0.6961938694682434 0.7488804674010179 0  0.761030882784587 0.7485307676102253 0  0.8265919345034461 0.7480514123726985 0  0.8931970964455727 0.7473848242622161 0  0.9614326530439513 0.7464499129083045 0  1.032501124141834 0.7451651138935919 0  0 0.8125 0  0.06277610910743144 0.8124688664849649 0  0.1255646455920969 0.8124361209603038 0  0.1883787369090969 0.8124000229312222 0  0.2512331172377926 0.8123585483819531 0  0.3141451319325441 0.8123091984137255 0  0.3771360237209218 0.8122487367467994 0  0.4402326557448015 0.812172810732636 0  0.5034698894687016 0.8120753850447432 0  0.566893925938032 0.8119478742813714 0  0.6305670475250168 0.8117777875044712 0  0.6945744114737427 0.8115465682451847 0  0.7590341311108452 0.8112260679622701 0  0.8241144515596105 0.8107725834285295 0  0.8900749578371938 0.810116333757294 0  0.9574162915098594 0.8091431077633555 0  1.027563563102682 0.8076789389018186 0  0 0.875 0  0.06269125452139664 0.8749782766867371 0  0.1253912597615592 0.8749553931790278 0  0.1881092777119022 0.8749300910420171 0  0.2508557565565495 0.8749008936348378 0  0.3136430833949873 0.8748659556397356 0  0.3764865631229307 0.8748228522846119 0  0.4394057514230166 0.8747682678385369 0  0.5024263211659633 0.874697518243874 0  0.565582702013705 0.8746038001364946 0  0.6289217623022592 0.8744769849998227 0  0.6925076486015128 0.8743016476648543 0  0.75642708524438 0.8740537695845038 0  0.8207917380409501 0.8736949603639048 0  0.8857282745826294 0.8731610901629064 0  0.9513542166739645 0.8723345293011604 0  1.018018645222706 0.8709553261216523 0  0 0.9375 0  0.06259781246880419 0.9374888382547579 0  0.1252001446953791 0.9374770691335452 0  0.1878117868102738 0.9374640319488409 0  0.2504381605100593 0.9374489471275845 0  0.3130857246667396 0.9374308330915186 0  0.3757625098763999 0.9374083882079767 0  0.4384788582605606 0.9373798135054
[...]
<PointData  Vectors="f_54"> 
<DataArray  type="Float64"  Name="f_54"  NumberOfComponents="3" format="ascii">0.0000000000000000e+00 0.0000000000000000e+00 0.0000000000000000e+00  0.0000000000000000e+00 0.0000000000000000e+00 0.0000000000000000e+00  0.0000000000000000e+00 0.0000000000000000e+00 0.0000000000000000e+00  0.0000000000000000e+00 0.0000000000000000e+00 0.0000000000000000e+00  0.0000000000000000e+00 0.0000000000000000e+00 0.0000000000000000e+00  0.0000000000000000e+00 0.0000000000000000e+00 0.0000000000000000e+00  0.0000000000000000e+00 0.0000000000000000e+00 0.0000000000000000e+00  0.0000000000000000e+00 0.0000000000000000e+00 0.0000000000000000e+00  0.0000000000000000e+00 0.0000000000000000e+00 0.0000000000000000e+00  0.0000000000000000e+00 0.0000000000000000e+00 0.0000000000000000e+00  0.0000000000000000e+00 0.0000000000000000e+00 0.0000000000000000e+00  0.0000000000000000e+00 0.0000000000000000e+00 0.0000000000000000e+00  0.0000000000000000e+00 0.0000000000000000e+00 0.0000000000000000e+00  0.0000000000000000e+00 0.0000000000000000e+00 0.0000000000000000e+00  0.0000000000000000e+00 0.0000000000000000e+00 0.0000000000000000e+00  0.0000000000000000e+00 0.0000000000000000e+00 0.0000000000000000e+00  0.0000000000000000e+00 0.0000000000000000e+00 0.0000000000000000e+00  0.0000000000000000e+00 0.0000000000000000e+00 0.0000000000000000e+00  9.4019473265786337e-08 -6.8130502010549329e-08 0.0000000000000000e+00  2.1585504395891975e-07 -1.3811509259245664e-07 0.0000000000000000e+00  3.9762893135785949e-07 -2.1185312168156678e-07 0.0000000000000000e+00  6.8057279362169389e-07 -2.9130658367205709e-07 0.0000000000000000e+00  1.1210585231835408e-06 -3.7856560825632311e-07 0.0000000000000000e+00  1.7986592074051674e-06 -4.7596961732698784e-07 0.0000000000000000e+00  2.8275170872458753e-06 -5.8633401691734933e-07 0.0000000000000000e+00  4.3732493435196368e-06 -7.1337240486839710e-07 0.0000000000000000e+00  6.6798697197701810e-06 -8.6248681154660816e-07 0.0000000000000000e+00  1.0116899794403474e-05 -1.0423023491284448e-06 0.0000000000000000e+00  1.5272325903915846e-05 -1.2679289666519354e-06 0.0000000000000000e+00  2.3162132756952068e-05 -1.5689945519500192e-06 0.0000000000000000e+00  3.5767881275910501e-05 -2.0131146809914069e-06 0.0000000000000000e+00  5.7586406997173614e-05 -2.7853600286356380e-06 0.0000000000000000e+00  1.0060195434295897e-04 -4.4891154013107986e-06 0.0000000000000000e+00  2.0230200069068678e-04 -9.4188435957318307e-06 0.0000000000000000e+00  0.0000000000000000e+00 0.0000000000000000e+00 0.0000000000000000e+00  1.6053017577505216e-07 -1.3457885765828655e-07 0.0000000000000000e+00  3.7268162117895930e-07 -2.7286317698410554e-07 0.0000000000000000e+00  6.9620386785538771e-07 -4.1863795029985297e-07 0.0000000000000000e+00  1.2080849524062535e-06 -5.7579044469522084e-07 0.0000000000000000e+00  2.0139454115384957e-06 -7.4841637933019072e-07 0.0000000000000000e+00  3.2631642927614199e-06 -9.4101768334448423e-07 0.0000000000000000e+00  5.1698446449374349e-06 -1.1588753686305168e-06 0.0000000000000000e+00  8.0429101339485853e-06 -1.4087391094877295e-06 0.0000000000000000e+00  1.2331056391564628e-05 -1.7000637599828682e-06 0.0000000000000000e+00  1.8693503887400357e-05 -2.0471489512755852e-06 0.0000000000000000e+00  2.8118873199416386e-05 -2.4726704567573546e-06 0.0000000000000000e+00  4.2138267353010257e-05 -3.0129303683906317e-06 0.0000000000000000e+00  6.3220407014868513e-05 -3.7227804129879278e-06 0.0000000000000000e+00  9.5462745949747652e-05 -4.6627907628163270e-06 0.0000000000000000e+00  1.4538450504075632e-04 -5.7650649512020340e-06 0.0000000000000000e+00  2.1998032955826763e-04 -6.0127477199437320e-06 0.0000000000000000e+00  0.0000000000000000e+00 0.0000000000000000e+00 0.0000000000000000e+00  1.7579549494023488e-07 -1.9747444746594556e-07 0.0000000000000000e+00  4.1918742548223879e-07 -4.0048768278712698e-07 0.0000000000000000e+00  8.0872506098580769e-07 -6.1467287806813046e-07 0.0000000000000000e+00  1.4462954233638240e-06 -8.4576522129185225e-07 0.0000000000000000e+00  2.4725473831613400e-06 -1.0997042577873321e-06 0.0000000000000000e+00  4.0872409249504068e-06 -1.3828290946801575e-06 0.0000000000000000e+00  6.5769367726842329e-06 -1.7022633234246621e-06 0.0000000000000000e+00  1.0353196455542549e-05 -2.0666550152418610e-06 0.0000000000000000e+00  1.6005507606840425e-05 -2.4875255366216754e-06 0.0000000000000000e+00  2.4374346962392049e-05 -2.9815539652164565e-06 0.0000000000000000e+00  3.6650023052597954e-05 -3.5740545932397253e-06 0.0000000000000000e+00  5.4496982467124258e-05 -4.3033419560953718e-06 0.0000000000000000e+00  8.0171142707085192e-05 -5.2239109139245790e-06 0.0000000000000000e+00  1.1647336210050984e-04 -6.4034387143006577e-06 0.0000000000000000e+00  1.6598529433700649e-04 -7.9174897878129521e-06 0.0000000000000000e+00  2.2808914473570484e-04 -9.9781146116601266e-06 0.0000000000000000e+00  0.0000000000000000e+00 0.0000000000000000e+00 0.0000000000000000e+00  1.2396851302242543e-07 -2.5496864619434189e-07 0.0000000000000000e+00  3.2080862699391102e-07 -5.1729141768055392e-07 0.0000000000000000e+00  6.7577790805744245e-07 -7.9441312013480013e-07 0.0000000000000000e+00  1.3007414246347654e-06 -1.0938433362071515e-06 0.0000000000000000e+00  2.3518774684538177e-06 -1.4232051336226951e-06 0.0000000000000000e+00  4.0530803953729058e-06 -1.7903338046564279e-06 0.0000000000000000e+00  6.7275778473225344e-06 -2.2035131551285577e-06 0.0000000000000000e+00  1.0840545390778542e-05 -2.6720205914486965e-06 0.0000000000000000e+00  1.7055201102392516e-05 -3.2072766142459147e-06 0.0000000000000000e+00  2.6302816395592666e-05 -3.8250399209101401e-06 0.0000000000000000e+00  3.9860363931572718e-05 -4.5491582527326820e-06 0.0000000000000000e+00  5.9411160541909930e-05 -5.4170978748407961e-06 0.0000000000000000e+00  8.7018579289412852e-05 -6.4862286634513366e-06 0.0000000000000000e+00  1.2484402531444153e-04 -7.8366003607999456e-06 0.0000000000000000e+00  1.7427249584648694e-04 -9.5582770932437230e-06 0.0000000000000000e+00  2.3401898101614783e-04 -1.1680529031190306e-05 0.0000000000000000e+00  0.0000000000000000e+00 0.0000000000000000e+00 0.0000000000000000e+00  -8.6450679901703440e-11 -3.0523730347904293e-07 0.0000000000000000e+00  6.5743327413266227e-08 -6.1963878573862305e-07 0.0000000000000000e+00  2.7557823205073968e-07 -9.5244968293014710e-07 0.0000000000000000e+00  7.3401179771589933e-07 -1.3129340345807791e-06 0.0000000000000000e+00  1.5901244144742642e-06 -1.7103331418564562e-06 0.0000000000000000e+00  3.0616477635844080e-06 -2.1537813442621073e-06 0.0000000000000000e+00  5.4680660690077409e-06 -2.6522233757762549e-06 0.0000000000000000e+00  9.2756283939590892e-06 -3.2144711888796805e-06 0.0000000000000000e+00  1.5156681235514238e-05 -3.8497206984777207e-06 0.0000000000000000e+00  2.4063059928171990e-05 -4.5691714315961482e-06 0.0000000000000000e+00  3.7305836482343545e-05 -5.3898926390598216e-06 0.0000000000000000e+00  5.6616787768436829e-05 -6.3426992917326008e-06 0.0000000000000000e+00  8.4134185431930490e-05 -7.4861687663099082e-06 0.0000000000000000e+00  1.2220554748113691e-04 -8.9278695080065226e-06 0.0000000000000000e+00  1.7286280327236705e-04 -1.0848420990165389e-05 0.0000000000000000e+00  2.3692600305317706e-04 -1.3508727900426456e-05 0.0000000000000000e+00  0.0000000000000000e+00 0.0000000000000000e+00 0.0000000000000000e+00  -1.8932927179357550e-07 -3.4647067432828389e-07 0.0000000000000000e+00  -3.3185200762034710e-07 -7.0392158492966259e-07 0.0000000000000000e+00  -3.7055918615111186e-07 -1.0834228337209303e-06 0.0000000000000000e+00  -2.2571572377481890e-07 -1.4960632234628432e-06 0.0000000000000000e+00  2.2117899674110905e-07 -1.9528182757858857e-06 0.0000000000000000e+00  1.1497697584404622e-06 -2.4642373265895673e-06 0.0000000000000000e+00  2.8327768074050444e-06 -3.0398999150062224e-06 0.0000000000000000e+00  5.6814563826607756e-06 -3.6876568659357863e-06 0.0000000000000000e+00  1.0309001835673534e-05 -4.4128651398648600e-06 0.0000000000000000e+00  1.7615500608050605e-05 -5.2183003656407025e-06 0.0000000000000000e+00  2.8894294995184674e-05 -6.1064609364389601e-06 0.0000000000000000e+00  4.5950207975784190e-05 -7.0879789034402640e-06 0.0000000000000000e+00  7.1202940298921923e-05 -8.2032594637997049e-06 0.0000000000000000e+00  1.0772831479691920e-04 -9.5691815842058975e-06 0.0000000000000000e+00  1.5919152202172976e-04 -1.1466773237992590e-05 0.0000000000000000e+00  2.2971509710121234e-04 -1.4484227546945239e-05 0.0000000000000000e+00  0.0000000000000000e+00 0.0000000000000000e+00 0.0000000000000000e+00  -4.2468568469554744e-07 -3.7686460297136200e-07 0.0000000000000000e+00  -8.3200956462333727e-07 -7.6651631892173574e-07 0.0000000000000000e+00  -1.1980764733415712e-06 -1.1818913021682769e-06 0.0000000000000000e+00  -1.4837310771802169e-06 -1.6360641280603157e-06 0.0000000000000000e+00  -1.6228627130656740e-06 -2.1420875559198880e-06 0.0000000000000000e+00  -1.5048350134343740e-06 -2.7124960956878558e-06 0.0000000000000000e+00  -9.4738730981090069e-07 -3.3582747801719927e-06 0.0000000000000000e+00  3.4535969397108978e-07 -4.0870537760093676e-06 0.0000000000000000e+00  2.8475068165338383e-06 -4.9003436564664080e-06 0.0000000000000000e+00  7.3091256846262017e-06 -5.7899926832241100e-06 0.0000000000000000e+00  1.4900344438484146e-05 -6.7352391578492606e-06 0.0000000000000000e+00  2.7415956317908571e-05 -7.7048306471666887e-06 0.0000000000000000e+00  4.7551990153933419e-05 -8.6756606036995918e-06 0.0000000000000000e+00  7.9259146748710874e-05 -9.6930358250467562e-06 0.0000000000000000e+00  1.2817820868031354e-04 -1.1020029802569087e-05 0.0000000000000000e+00  2.0220516225508508e-04 -1.3450870708502696e-05 0.0000000000000000e+00  0.0000000000000000e+00 0.0000000000000000e+00 0.0000000000000000e+00  -6.7691154232326470e-07 -3.9463735974468786e-07 0.0000000000000000e+00  -1.3727042628783562e-06 -8.0378624427268786e-07 0.0000000000000000e+00  -2.1048150942873475e-06 -1.2422464421657545e-06 0.0000000000000000e+00  -2.8861448652008851e-06 -1.7252686717960159e-06 0.0000000000000000e+00  -3.7201207232644586e-06 -2.2685086446107497e-06 0.0000000000000000e+00  -4.5914139542577913e-06 -2.8875370582162516e-06 0.0000000000000000e+00  -5.4487293708361465e-06 -3.5965389490010604e-06 0.0000000000000000e+00  -6.1734324398649728e-06 -4.4056025671152408e-06 0.0000000000000000e+00  -6.5232905387195529e-06 -5.3156903826753282e-06 0.0000000000000000e+00  -6.0333301727987115e-06 -6.3101306871328461e-06 0.0000000000000000e+00  -3.8447994534100991e-06 -7.3417657093211354e-06 0.0000000000000000e+00  1.5816100008192783e-06 -8.3172288009297779e-06 0.0000000000000000e+00  1.2927981031214899e-05 -9.0879822376005166e-06 0.0000000000000000e+00  3.4725060689427778e-05 -9.4799006320712764e-06 0.0000000000000000e+00  7.4360022670892493e-05 -9.4432327530500446e-06 0.0000000000000000e+00  1.4342906425272056e-04 -9.4974877666776840e-06 0.0000000000000000e+00  0.0000000000000000e+00 0.0000000000000000e+00 0.0000000000000000e+00  -9.1013668458817868e-07 -3.9810272498132058e-07 0.0000000000000000e+00  -1.8771916105912879e-06 -8.1219945198419305e-07 0.0000000000000000e+00  -2.9625882130728395e-06 -1.2588037015656377e-06 0.0000000000000000e+00  -4.2361336392472283e-06 -1.7554214887982855e-06 0.0000000000000000e+00  -5.7798504279747699e-06 -2.3208326620046472e-06 0.0000000000000000e+00  -7.6904228334170708e-06 -2.9749606705499909e-06 0.0000000000000000e+00  -1.0077810425177230e-05 -3.7378680485648151e-06 0.0000000000000000e+00  -1.3054608717770240e-05 -4.6269684946407408e-06 0.0000000000000000e+00  -1.6704878237532904e-05 -5.6507288594850989e-06 0.0000000000000000e+00  -2.1010033009548993e-05 -6.7957283900538313e-06 0.0000000000000000e+00  -2.5689282624974989e-05 -8.0018125004251337e-06 0.0000000000000000e+00  -2.9878659643876998e-05 -9.1178189280248607e-06 0.0000000000000000e+00  -3.1524565267108944e-05 -9.8315113987558853e-06 0.0000000000000000e+00  -2.6318403543009228e-05 -9.5845822053131703e-06 0.0000000000000000e+00  -5.9957835158734865e-06 -7.5510283138011694e-06 0.0000000000000000e+00  4.4063823273705354e-05 -2.9378305225066583e-06 0.0000000000000000e+00  0.0000000000000000e+00 0.0000000000000000e+00 0.0000000000000000e+00  -1.0868287155210267e-06 -3.8582631473517645e-07 0.0000000000000000e+00  -2.2644798598597261e-06 -7.8863252033626676e-07 0.0000000000000000e+00  -3.6342310112835204e-06 -1.2262188535004659e-06 0.0000000000000000e+00  -5.3190501782858414e-06 -1.7181052802002151e-06 0.0000000000000000e+00  -7.4771608040621094e-06 -2.2863653816251200e-06 0.0000000000000000e+00  -1.0318579942555501e-05 -2.9563019086735107e-06 0.0000000000000000e+00  -1.4124742621842693e-05 -3.7565992936701496e-06 0.0000000000000000e+00  -1.9269279461623623e-05 -4.7180631286280206e-06 0.0000000000000000e+00  -2.6232893932660238e-05 -5.8688940695176000e-06 0.0000000000000000e+00  -3.5593371901330779e-05 -7.2219126081302748e-06 0.0000000000000000e+00  -4.7945628851114976e-05 -8.7437804545543048e-06 0.0000000000000000e+00  -6.3652983876988053e-05 -1.0285432444074255e-05 0.0000000000000000e+00  -8.2230501669160075e-05 -1.1433500073288953e-05 0.0000000000000000e+00  -1.0100583974749326e-04 -1.1218107091266866e-05 0.0000000000000000e+00  -1.1256496637616315e-04 -7.6282026270847486e-06 0.0000000000000000e+00  -1.0066325184047605e-04 2.8677390611907237e-06 0.0000000000000000e+00  0.0000000000000000e+00 0.0000000000000000e+00 0.0000000000000000e+00  -1.1736356919548275e-06 -3.5687362152826115e-07 0.0000000000000000e+00  -2.4618805917987526e-06 -7.3089322526631981e-07 0.0000000000000000e+00  -3.9946644446663645e-06 -1.1403296676616349e-06 0.0000000000000000e+00  -5.9348581733215578e-06 -1.6059352246070266e-06 0.0000000000000000e+00  -8.5007762827029037e-06 -2.1524602289710422e-06 0.0000000000000000e+00  -1.1996725128181692e-05 -2.8104841364994509e-06 0.0000000000000000e+00  -1.6855510692369202e-05 -3.6185610961709307e-06 0.0000000000000000e+00  -2.3697307769420572e-05 -4.6253804495159654e-06 0.0000000000000000e+00  -3.3408220493643102e-05 -5.8907620667208266e-06 0.0000000000000000e+00  -4.7235557605839822e-05 -7.4818591385090703e-06 0.0000000000000000e+00  -6.6875602144704391e-05 -9.4543063860425214e-06 0.0000000000000000e+00  -9.4469321519653071e-05 -1.1790284644099162e-05 0.0000000000000000e+00  -1.3226696582358853e-04 -1.4218628482761058e-05 0.0000000000000000e+00  -1.8137148864576431e-04 -1.5724336467748561e-05 0.0000000000000000e+00  -2.3835691427656549e-04 -1.3305698762707597e-05 0.0000000000000000e+00  -2.8826921834348117e-04 6.6676308743697302e-07 0.0000000000000000e+00  0.0000000000000000e+00 0.0000000000000000e+00 0.0000000000000000e+00  -1.1472621854043233e-06 -3.1112389017895691e-07 0.0000000000000000e+00  -2.4178719565754484e-06 -6.3841888453870226e-07 0.0000000000000000e+00  -3.9531687499551827e-06 -9.9938925797411500e-07 0.0000000000000000e+00  -5.9339903800619119e-06 -1.4145735956666615e-06 0.0000000000000000e+00  -8.6090966879061370e-06 -1.9096601706887863e-06 0.0000000000000000e+00  -1.2336039287351945e-05 -2.5184711461411062e-06 0.0000000000000000e+00  -1.7642442806191909e-05 -3.2873657495887326e-06 0.0000000000000000e+00  -2.5319864918985038e-05 -4.2818590824843623e-06 0.0000000000000000e+00  -3.6568601236256310e-05 -5.5964877138523620e-06 0.0000000000000000e+00  -5.3219354763979647e-05 -7.3687461167182757e-06 0.0000000000000000e+00  -7.8061145830655518e-05 -9.7955385268533669e-06 0.0000000000000000e+00  -1.1528095075447705e-04 -1.3139464759474276e-05 0.0000000000000000e+00  -1.7088616101923937e-04 -1.7667278671482759e-05 0.0000000000000000e+00  -2.5246723393836752e-04 -2.3284988903349768e-05 0.0000000000000000e+00  -3.6604339549382208e-04 -2.7928306376119771e-05 0.0000000000000000e+00  -5.0517924275183081e-04 -2.1381256626495398e-05 0.0000000000000000e+00  0.0000000000000000e+00 0.0000000000000000e+00 0.0000000000000000e+00  -9.9930050553758019e-07 -2.4958157769740409e-07 0.0000000000000000e+00  -2.1129097782328640e-06 -5.1300350274782760e-07 0.0000000000000000e+00  -3.4727769377853064e-06 -8.0544938847826557e-07 0.0000000000000000e+00  -5.2501199882607159e-06 -1.1452221273113041e-06 0.0000000000000000e+00  -7.6847047953523827e-06 -1.5561023628082754e-06 0.0000000000000000e+00  -1.1128566660215600e-05 -2.0709603097453395e-06 0.0000000000000000e+00  -1.6114749074669103e-05 -2.7376424103618204e-06 0.0000000000000000e+00  -2.3469171148124920e-05 -3.6289959217909096e-06 0.0000000000000000e+00  -3.4497650663963090e-05 -4.8605440913124089e-06 0.0000000000000000e+00  -5.1305721829794780e-05 -6.6226022575432640e-06 0.0000000000000000e+00  -7.7354761692014751e-05 -9.2401914927524102e-06 0.0000000000000000e+00  -1.1843196450212720e-04 -1.3286998561768898e-05 0.0000000000000000e+00  -1.8428725017031412e-04 -1.9801613872328142e-05 0.0000000000000000e+00  -2.9101283957493990e-04 -3.0661146646132422e-05 0.0000000000000000e+00  -4.6222199164363344e-04 -4.8826208099224406e-05 0.0000000000000000e+00  -7.1162476298662039e-04 -7.3257000659487229e-05 0.0000000000000000e+00  0.0000000000000000e+00 0.0000000000000000e+00 0.0000000000000000e+00  -7.3890425350231076e-07 -1.7458454417774426e-07 0.0000000000000000e+00  -1.5656422165653260e-06 -3.5931889499205920e-07 0.0000000000000000e+00  -2.5820830454780404e-06 -5.6544941908289470e-07 0.0000000000000000e+00  -3.9216230375324215e-06 -8.0680080589301805e-07 0.0000000000000000e+00  -5.7732382642466941e-06 -1.1018226941691996e-06 0.0000000000000000e+00  -8.4182813172271897e-06 -1.4768686606605182e-06 0.0000000000000000e+00  -1.2290103639789370e-05 -1.9718145741303796e-06 0.0000000000000000e+00  -1.8074886127881586e-05 -2.6501790514521208e-06 0.0000000000000000e+00  -2.6888932763641775e-05 -3.6181687215570333e-06 0.0000000000000000e+00  -4.0603276956529241e-05 -5.0621119699273612e-06 0.0000000000000000e+00  -6.2464710630205251e-05 -7.3256237818049604e-06 0.0000000000000000e+00  -9.8341131172644658e-05 -1.1078036146347041e-05 0.0000000000000000e+00  -1.5933807787506745e-04 -1.7711401636313580e-05 0.0000000000000000e+00  -2.6751337409601104e-04 -3.0392097098815370e-05 0.0000000000000000e+00  -4.6867546151433185e-04 -5.7445234947566295e-05 0.0000000000000000e+00  -8.6402112459860094e-04 -1.2773535484968959e-04 0.0000000000000000e+00  0.0000000000000000e+00 0.0000000000000000e+00 0.0000000000000000e+00  -3.9245994210825257e-07 -8.9807143444489890e-08 0.0000000000000000e+00  -8.3250702990383832e-07 -1.8497982033803281e-07 0.0000000000000000e+00  -1.3754600122533973e-06 -2.9149761317353371e-07 0.0000000000000000e+00  -2.0940867480650422e-06 -4.1679332453467992e-07 0.0000000000000000e+00  -3.0920659637833000e-06 -5.7093469447713660e-07 0.0000000000000000e+00  -4.5248261937105826e-06 -7.6855765281405780e-07 0.0000000000000000e+00  -6.6338149768005190e-06 -1.0322502042103882e-06 0.0000000000000000e+00  -9.8055706262803210e-06 -1.3987782673524761e-06 0.0000000000000000e+00  -1.4678275420064839e-05 -1.9310375267822228e-06 0.0000000000000000e+00  -2.2343845170815575e-05 -2.7419158348105885e-06 0.0000000000000000e+00  -3.4754414944094872e-05 -4.0436800005316074e-06 0.0000000000000000e+00  -5.5598639659399747e-05 -6.2530747438414415e-06 0.0000000000000000e+00  -9.2344898954130979e-05 -1.0215758717106319e-05 0.0000000000000000e+00  -1.6137825548016065e-04 -1.7648595709868669e-05 0.0000000000000000e+00  -3.0117781434067613e-04 -3.1640037692266736e-05 0.0000000000000000e+00  -5.9679607919668363e-04 -5.4196609888606849e-05 0.0000000000000000e+00  0.0000000000000000e+00 0.0000000000000000e+00 0.0000000000000000e+00  0.0000000000000000e+00 0.0000000000000000e+00 0.0000000000000000e+00  0.0000000000000000e+00 0.0000000000000000e+00 0.0000000000000000e+00  0.0000000000000000e+00 0.0000000000000000e+00 0.0000000000000000e+00  0.0000000000000000e+00 0.0000000000000000e+00 0.0000000000000000e+00  0.0000000000000000e+00 0.0000000000000000e+00 0.0000000000000000e+00  0.0000000000000000e+00 0.0000000000000000e+00 0.000000000000