<?xml version="1.0"?>
<VTKFile type="UnstructuredGrid"  version="0.1"  >
<UnstructuredGrid>
<Piece  NumberOfPoints="289" NumberOfCells="512">
<Points>
<DataArray  type="Float64"  NumberOfComponents="3"  format="ascii">0 0 0  0.0625 0 0  0.125 0 0  0.1875 0 0  0.25 0 0  0.3125 0 0  0.375 0 0  0.4375 0 0  0.5 0 0  0.5625 0 0  0.625 0 0  0.6875 0 0  0.75 0 0  0.8125 0 0  0.875 0 0  0.9375 0 0  1 0 0  0 0.0625 0  0.06257720506814227 0.06249828449948729 0  0.1251568618365276 0.06249651380590265 0  0.1877414533481769 0.06249463222623046 0  0.2503335159544169 0.06249258346841168 0  0.3129356555174664 0.06249031097771053 0  0.3755505531871107 0.06248775913322761 0  0.4381809643073916 0.06248487570131688 0  0.5008297288519697 0.06248161589279348 0  0.5634998501519611 0.06247794787957674 0  0.6261947989378672 0.06247385757058136 0  0.6889194732422167 0.06246934280275133 0  0.7516830411170661 0.06246435841844986 0  0.81450739664975 0.06245856083650661 0  0.8774534855300387 0.06245023177262454 0  0.9407093294285698 0.06243169795494716 0  1.004914528197679 0.06236866664574611 0  0 0.125 0  0.06265205003905182 0.1249966214229194 0  0.1253089872948336 0.1249931324968064 0  0.187975767223794 0.1249894216009331 0  0.2506574630696988 0.1249853753213724 0  0.3133593018038238 0.1249808787509872 0  0.3760866738027263 0.1249758174627714 0  0.4388451141938047 0.1249700820707056 0  0.501640269429638 0.1249635765376176 0  0.5644779015761106 0.1249562315509396 0  0.627364073109638 0.124948024270817 0  0.690305853309007 0.1249390062970657 0  0.7533132879592729 0.1249293495382015 0  0.816404015247403 0.1249194758699496 0  0.8796119632957983 0.124910664616828 0  0.9429943931630145 0.1249083035919542 0  1.006577050323397 0.1249392560547641 0  0 0.1875 0  0.06272209792089359 0.1874950659772924 0  0.1254514679888511 0.1874899671765314 0  0.1881954977600025 0.1874845363022775 0  0.250961778569084 0.1874786020063023 0  0.3137581703762859 0.1874719884228113 0  0.3765928190239854 0.1874645169742623 0  0.4394741079496411 0.1874560118748924 0  0.5024105293012906 0.1874463114233716 0  0.5654104699561129 0.1874352881247931 0  0.6284819291288365 0.1874228820633473 0  0.6916322045449351 0.18740915415655 0  0.7548675245597478 0.1873943695504056 0  0.8181921396562176 0.1873791223918813 0  0.8816044422895499 0.187364457505562 0  0.9450814560038526 0.1873514087209336 0  1.008529342569121 0.1873355582009847 0  0 0.25 0  0.06278496344195801 0.2499936726060114 0  0.1255794882155091 0.2499871279109063 0  0.1883933135160255 0.2499801442508993 0  0.2512365016890908 0.2499724922671218 0  0.3141195508963335 0.2499639326473655 0  0.3770534395604485 0.249954216292338 0  0.4400495647957109 0.2499430886436504 0  0.503119522508497 0.2499303009483944 0  0.5662746545168179 0.2499156328683804 0  0.6295252478482732 0.2498989333144992 0  0.6928791836609555 0.2498801898196184 0  0.7563396189949118 0.2498596403244378 0  0.819900764838942 0.2498379402003146 0  0.8835397130665282 0.2498163770566957 0  0.9472006191708733 0.2497970845919669 0  1.010768217674382 0.249783557832742 0  0 0.3125 0  0.06283835837695577 0.3124924938017796 0  0.1256884103507634 0.3124847214871836 0  0.1885621090979028 0.3124764101325057 0  0.2514718939631475 0.3124672740470149 0  0.3144308807021159 0.3124570095573488 0  0.3774529728175919 0.3124452917287673 0  0.4405528405849445 0.3124317746762223 0  0.5037456848853405 0.3124160983528275 0  0.5670466561793189 0.3123979068154378 0  0.6304697237286728 0.3123768864871208 0  0.6940256675114669 0.3123528385636662 0  0.7577186688819041 0.3123258081376143 0  0.8215406973307335 0.3122963043893721 0  0.8854626590872554 0.312265664298252 0  0.9494217405748462 0.3122366599351987 0  1.013307509434676 0.3122146238325067 0  0 0.375 0  0.06288015279220953 0.3749915783017075 0  0.1257738932076899 0.3749828478094367 0  0.1886951703953401 0.3749734900399834 0  0.2516586302848144 0.3749631675590567 0  0.3146799206195833 0.3749515147786471 0  0.3777759250077009 0.3749381294802873 0  0.4409648678042694 0.3749225660965103 0  0.5042661928243289 0.3749043328743974 0  0.5677000575516299 0.3748828971228549 0  0.6312861910835542 0.3748577066562455 0  0.6950417301281313 0.3748282427704667 0  0.7589774788015138 0.3747941330109369 0  0.8230918929873206 0.3747553739070519 0  0.8873621673355069 0.3747127471637796 0  0.9517325813847261 0.3746685477030492 0  1.016102501425435 0.3746276967190352 0  0 0.4375 0  0.06290845632236074 0.437490968661296 0  0.1258320535790103 0.4374815948863243 0  0.1887864124739982 0.4374715235577786 0  0.2517881018021829 0.4374603740166141 0  0.3148550954462945 0.437447726304969 0  0.3780071905337425 0.4374331063194198 0  0.4412663389554406 0.4374159697379554 0  0.5046568033590372 0.4373956850589846 0  0.5682049818418031 0.4373715172661851 0  0.6319386415804644 0.4373426164221591 0  0.6958851506524889 0.4373080218795362 0  0.7600681031014943 0.4372667068876336 0  0.8245015412501845 0.4372177180670653 0  0.8891809301288855 0.4371605229319711 0  0.9540704002029962 0.4370957844374697 0  1.019086815239235 0.4370269512445497 0  0 0.5 0  0.06292172046661861 0.4999906983677295 0  0.125859674854021 0.4999810327281725 0  0.1888307014213481 0.499970623739317 0  0.2518528579527857 0.4999590605272834 0  0.3149460575999616 0.4999458825663517 0  0.3781327232209922 0.4999305584130074 0  0.441438440171091 0.4999124596489012 0  0.5048925531420906 0.4998908278015887 0  0.5685285917868378 0.499864731295336 0  0.632384306073419 0.4998330090098458 0  0.6965009232412347 0.4997941981391218 0  0.7609209796283334 0.4997464507566788 0  0.8256837214795814 0.4996874664309389 0  0.890816647389344 0.4996145327550646 0  0.9563214268707391 0.499524925446604 0  1.022152457413046 0.4994172714787954 0  0 0.5625 0  0.06291885786740342 0.5624907888202195 0  0.1258544557833949 0.5624812068528602 0  0.1888242531375978 0.5624708661356639 0  0.2518471860967009 0.562459342886101 0  0.3149444877156903 0.5624461561116625 0  0.3781406041450105 0.5624307413335682 0  0.4414642313873567 0.5624124163857477 0  0.5049494808968263 0.562390334480419 0  0.5686371452872561 0.5623634166043231 0  0.6325759571865915 0.5623302498972649 0  0.6968235780346264 0.56228892973996 0  0.7614467558344268 0.5622368102189732 0  0.8265195517754337 0.5621701143159171 0  0.8921176322782312 0.5620833623437033 0  0.9583053157614081 0.561968672998661 0  1.02511074031939 0.5618153336595991 0  0 0.625 0  0.06289936837396141 0.624991246628868 0  0.1258152788596213 0.6249821323968036 0  0.1887650782409829 0.6249722786237493 0  0.2517677885513904 0.6249612691299522 0  0.3148450857193422 0.624948627449959 0  0.37802246047592 0.6249337882976304 0  0.4413306422059112 0.6249160595379141 0  0.5048073807628366 0.62489456843942 0  0.5684996912898543 0.6248681811516098 0  0.6324666572958593 0.6248353747102107 0  0.6967828204158343 0.6247940212587192 0  0.7615419760379351 0.6247410041525423 0  0.8268606558833038 0.6246715062418459 0  0.8928793430860258 0.6245776669930524 0  0.9597569803975226 0.6244461085860493 0  1.027650535847824 0.6242538532389701 0  0 0.6875 0  0.06286345567494403 0.6874920617153158 0  0.1257424641394683 0.6874837899199926 0  0.1886534175065714 0.6874748340156073 0  0.2516144751091144 0.6874648072771639 0  0.314646638532365 0.6874532649177066 0  0.3777750857010033 0.6874396767104345 0  0.4410309018850771 0.6874233907835968 0  0.5044533987298264 0.6874035830483387 0  0.5680932899674317 0.6873791823628427 0  0.6320170990701813 0.6873487521523357 0  0.6963133056989871 0.6873102875960964 0  0.7611008562632844 0.6872608346788789 0  0.8265406162657212 0.6871957023987993 0  0.8928496103298054 0.6871066848718039 0  0.960314936975486 0.6869777675330327 0  1.029295662549848 0.6867742815457585 0  0 0.75 0  0.06281211400261995 0.7499932066093467 0  0.125637964130594 0.7499861238032409 0  0.1884920924242147 0.7499784471185669 0  0.2513907529817681 0.7499698402454785 0  0.3143529871145634 0.749959915999422 0  0.3774020038643551 0.7499482131343757 0  0.440567046055846 0.7499341668865728 0  0.5038860120493402 0.7499170703386723 0  0.5674092516366428 0.7498960223388269 0  0.6312051996526439 0.7498698550735277 0  0.6953689212370439 0.7498370279914551 0  0.7600353415974266 0.7497954552157652 0  0.8254001322818807 0.7497421643316722 0  0.8917531444846842 0.7496724261721309 0  0.9595309979162376 0.749577042817326 0  1.029388329962292 0.7494330161991786 0  0 0.8125 0  0.06274716350652867 0.8124946371373946 0  0.1255054523090059 0.8124890436784505 0  0.1882866872271866 0.8124829770562012 0  0.2511041765925761 0.8124761694055267 0  0.3139736730224426 0.8124683128450997 0  0.3769146330711892 0.8124590422473503 0  0.439951970725184 0.8124479148578331 0  0.5031186051510391 0.8124343868377918 0  0.5664592947710683 0.8124177889902142 0  0.6300365927794028 0.8123973101842095 0  0.6939403977585981 0.8123720146489999 0  0.7583038384067825 0.8123409693647915 0  0.8233309897410955 0.8123036980494959 0  0.8893487146256704 0.8122615414037405 0  0.9569130063734067 0.8122211911893777 0  1.027032714590414 0.8122014376572844 0  0 0.875 0  0.06267121661498308 0.8749962944508328 0  0.1253502649756295 0.8749924287488403 0  0.1880454882517956 0.8749882345184512 0  0.2507663284576594 0.8749835260513918 0  0.3135240448987739 0.8749780905159203 0  0.3763326761270401 0.8749716770065837 0  0.4392104054688295 0.8749639846745595 0  0.5021815892846523 0.874954651444917 0  0.565279886030768 0.8749432480408807 0  0.6285532550312941 0.8749292903770989 0  0.6920722295465888 0.8749123066680295 0  0.7559441697188647 0.8748920691344678 0  0.8203392125918548 0.874869372180996 0  0.8855425847979748 0.8748489234873584 0  0.9520877452594615 0.8748519490192053 0  1.02130642364389 0.8749830597623601 0  0 0.9375 0  0.06258756634889248 0.9374981081306412 0  0.1251791745643662 0.9374961343645283 0  0.1877791368078176 0.9374939926580751 0  0.2503923474658918 0.9374915882481332 0  0.3130246672188408 0.9374888128412125 0  0.3756834419512646 0.9374855394238789 0  0.4383782470475182 0.937481617011
[...]
<PointData  Vectors="f_54"> 
<DataArray  type="Float64"  Name="f_54"  NumberOfComponents="3" format="ascii">0.0000000000000000e+00 0.0000000000000000e+00 0.0000000000000000e+00  0.0000000000000000e+00 0.0000000000000000e+00 0.0000000000000000e+00  0.0000000000000000e+00 0.0000000000000000e+00 0.0000000000000000e+00  0.0000000000000000e+00 0.0000000000000000e+00 0.0000000000000000e+00  0.0000000000000000e+00 0.0000000000000000e+00 0.0000000000000000e+00  0.0000000000000000e+00 0.0000000000000000e+00 0.0000000000000000e+00  0.0000000000000000e+00 0.0000000000000000e+00 0.0000000000000000e+00  0.0000000000000000e+00 0.0000000000000000e+00 0.0000000000000000e+00  0.0000000000000000e+00 0.0000000000000000e+00 0.0000000000000000e+00  0.0000000000000000e+00 0.0000000000000000e+00 0.0000000000000000e+00  0.0000000000000000e+00 0.0000000000000000e+00 0.0000000000000000e+00  0.0000000000000000e+00 0.0000000000000000e+00 0.0000000000000000e+00  0.0000000000000000e+00 0.0000000000000000e+00 0.0000000000000000e+00  0.0000000000000000e+00 0.0000000000000000e+00 0.0000000000000000e+00  0.0000000000000000e+00 0.0000000000000000e+00 0.0000000000000000e+00  0.0000000000000000e+00 0.0000000000000000e+00 0.0000000000000000e+00  0.0000000000000000e+00 0.0000000000000000e+00 0.0000000000000000e+00  0.0000000000000000e+00 0.0000000000000000e+00 0.0000000000000000e+00  9.5777630410263902e-09 -3.4724680608456753e-08 0.0000000000000000e+00  3.8044712813507034e-08 -7.0417727575704807e-08 0.0000000000000000e+00  1.0741023180776034e-07 -1.0807132850609679e-07 0.0000000000000000e+00  2.4630114993468335e-07 -1.4872763372612627e-07 0.0000000000000000e+00  4.9430429925582778e-07 -1.9352729374728835e-07 0.0000000000000000e+00  9.0772862234452575e-07 -2.4379636412112830e-07 0.0000000000000000e+00  1.5676778297609373e-06 -3.0120545165209519e-07 0.0000000000000000e+00  2.5920199886480810e-06 -3.6806444082134740e-07 0.0000000000000000e+00  4.1545272996815971e-06 -4.4788171943287645e-07 0.0000000000000000e+00  6.5188195777042761e-06 -5.4648754339028610e-07 0.0000000000000000e+00  1.0106717421143408e-05 -6.7453541455175948e-07 0.0000000000000000e+00  1.5655586936789083e-05 -8.5392448379289279e-07 0.0000000000000000e+00  2.4628485456408212e-05 -1.1369834427225944e-06 0.0000000000000000e+00  4.0408043890478176e-05 -1.6717488751418054e-06 0.0000000000000000e+00  7.2156682831912885e-05 -2.9493138197584872e-06 0.0000000000000000e+00  1.4907196386302531e-04 -6.8667581957598751e-06 0.0000000000000000e+00  0.0000000000000000e+00 0.0000000000000000e+00 0.0000000000000000e+00  3.3221904710712076e-10 -6.8566010998570520e-08 0.0000000000000000e+00  3.5480719841472029e-08 -1.3905813762881232e-07 0.0000000000000000e+00  1.4616459443975698e-07 -2.1344291635395837e-07 0.0000000000000000e+00  3.8563404195767349e-07 -2.9376980140988240e-07 0.0000000000000000e+00  8.2788134484124764e-07 -3.8225107706565142e-07 0.0000000000000000e+00  1.5784523645477709e-06 -4.8140486072915223e-07 0.0000000000000000e+00  2.7892974425086305e-06 -5.9431564335003559e-07 0.0000000000000000e+00  4.6799219209490722e-06 -7.2510535910339415e-07 0.0000000000000000e+00  7.5688519759867862e-06 -8.7977164416590694e-07 0.0000000000000000e+00  1.1923338164942423e-05 -1.0676526500907549e-06 0.0000000000000000e+00  1.8443973695430036e-05 -1.3039170779162581e-06 0.0000000000000000e+00  2.8219678874333300e-05 -1.6134642888017103e-06 0.0000000000000000e+00  4.3022881924249046e-05 -2.0350305937214704e-06 0.0000000000000000e+00  6.5843357498597660e-05 -2.6127147931212127e-06 0.0000000000000000e+00  1.0155256311633297e-04 -3.2943441796233076e-06 0.0000000000000000e+00  1.5562954298564113e-04 -3.2824447271311845e-06 0.0000000000000000e+00  0.0000000000000000e+00 0.0000000000000000e+00 0.0000000000000000e+00  -4.3616552017814098e-08 -1.0056314710581584e-07 0.0000000000000000e+00  -4.2241887774023143e-08 -2.0398574361996960e-07 0.0000000000000000e+00  5.7106071530806294e-08 -3.1317171025695295e-07 0.0000000000000000e+00  3.2441070832969286e-07 -4.3111136181102570e-07 0.0000000000000000e+00  8.5780773129581594e-07 -5.6096269203515185e-07 0.0000000000000000e+00  1.7981720026378248e-06 -7.0619835748373436e-07 0.0000000000000000e+00  3.3487432746699398e-06 -8.7087859207431417e-07 0.0000000000000000e+00  5.8018260128557515e-06 -1.0601488289398753e-06 0.0000000000000000e+00  9.5751814296013304e-06 -1.2811083233888198e-06 0.0000000000000000e+00  1.5261358357138670e-05 -1.5442288334022026e-06 0.0000000000000000e+00  2.3693090380327844e-05 -1.8654376562096508e-06 0.0000000000000000e+00  3.6023295356635000e-05 -2.2685866315600731e-06 0.0000000000000000e+00  5.3794665183908843e-05 -2.7868432497173973e-06 0.0000000000000000e+00  7.8882339576164369e-05 -3.4597203413841160e-06 0.0000000000000000e+00  1.1289538437792533e-04 -4.3301364159553015e-06 0.0000000000000000e+00  1.5487870620324373e-04 -5.5510367554863946e-06 0.0000000000000000e+00  0.0000000000000000e+00 0.0000000000000000e+00 0.0000000000000000e+00  -1.3237641828083925e-07 -1.2978016643983468e-07 0.0000000000000000e+00  -2.1744777302260003e-07 -2.6332686814466156e-07 0.0000000000000000e+00  -1.9880896934839525e-07 -4.0444290642707941e-07 0.0000000000000000e+00  -6.0102536389879593e-10 -5.5699135202069915e-07 0.0000000000000000e+00  4.8537299927423775e-07 -7.2494492302344836e-07 0.0000000000000000e+00  1.4165572852496675e-06 -9.1247809535993691e-07 0.0000000000000000e+00  3.0222338137019635e-06 -1.1241557464125581e-06 0.0000000000000000e+00  5.6334606066825281e-06 -1.3653145940233331e-06 0.0000000000000000e+00  9.7214706067457205e-06 -1.6427885156385141e-06 0.0000000000000000e+00  1.5943560152274885e-05 -1.9661716244876469e-06 0.0000000000000000e+00  2.5189581556509579e-05 -2.3497642315574052e-06 0.0000000000000000e+00  3.8607069201092385e-05 -2.8150159464348131e-06 0.0000000000000000e+00  5.7547254312663216e-05 -3.3923234724826179e-06 0.0000000000000000e+00  8.3297542685884348e-05 -4.1190590908988897e-06 0.0000000000000000e+00  1.1633488957674992e-04 -5.0270376360248257e-06 0.0000000000000000e+00  1.5475083470612119e-04 -6.0964174888930545e-06 0.0000000000000000e+00  0.0000000000000000e+00 0.0000000000000000e+00 0.0000000000000000e+00  -2.6820831271664669e-07 -1.5530846316309478e-07 0.0000000000000000e+00  -4.9580272393950503e-07 -3.1527386104692602e-07 0.0000000000000000e+00  -6.3314405459354368e-07 -4.8457610809875338e-07 0.0000000000000000e+00  -6.1112424797106010e-07 -6.6791452258625357e-07 0.0000000000000000e+00  -3.2794615365820018e-07 -8.6999919836219413e-07 0.0000000000000000e+00  3.6858935472288378e-07 -1.0955346863623954e-06 0.0000000000000000e+00  1.7051770881940698e-06 -1.3492281363945388e-06 0.0000000000000000e+00  4.0153446102014288e-06 -1.6359036912343770e-06 0.0000000000000000e+00  7.7811014000225327e-06 -1.9608922716350034e-06 0.0000000000000000e+00  1.3682265354623889e-05 -2.3309996453217803e-06 0.0000000000000000e+00  2.2644963634679063e-05 -2.7565152589546708e-06 0.0000000000000000e+00  3.5865810497363990e-05 -3.2547997082444681e-06 0.0000000000000000e+00  5.4759706829311981e-05 -3.8556545257885549e-06 0.0000000000000000e+00  8.0734782050058897e-05 -4.6071453500317424e-06 0.0000000000000000e+00  1.1465727461644712e-04 -5.5760527703489829e-06 0.0000000000000000e+00  1.5591992466363315e-04 -6.8263796923290037e-06 0.0000000000000000e+00  0.0000000000000000e+00 0.0000000000000000e+00 0.0000000000000000e+00  -4.4442085619655112e-07 -1.7625793539378368e-07 0.0000000000000000e+00  -8.6389507651365733e-07 -3.5806011711137622e-07 0.0000000000000000e+00  -1.2258325077495647e-06 -5.5096935877379066e-07 0.0000000000000000e+00  -1.4808835624744002e-06 -7.6054245241388466e-07 0.0000000000000000e+00  -1.5509834492280918e-06 -9.9225665911476685e-07 0.0000000000000000e+00  -1.3125975907685131e-06 -1.2513517124061332e-06 0.0000000000000000e+00  -5.7279120029255236e-07 -1.5425730985724048e-06 0.0000000000000000e+00  9.6471890912288811e-07 -1.8698461489438263e-06 0.0000000000000000e+00  3.7464398986068563e-06 -2.2360236443705465e-06 0.0000000000000000e+00  8.4306337542305069e-06 -2.6431011978307946e-06 0.0000000000000000e+00  1.5961141685290374e-05 -3.0937888347956615e-06 0.0000000000000000e+00  2.7641453210326650e-05 -3.5961696618749562e-06 0.0000000000000000e+00  4.5178650329156480e-05 -4.1743161666953696e-06 0.0000000000000000e+00  7.0640104659319203e-05 -4.8885045242851077e-06 0.0000000000000000e+00  1.0624320851463532e-04 -5.8668376003624246e-06 0.0000000000000000e+00  1.5391535952628100e-04 -7.3409001389467149e-06 0.0000000000000000e+00  0.0000000000000000e+00 0.0000000000000000e+00 0.0000000000000000e+00  -6.4543124467708959e-07 -1.9174427919084476e-07 0.0000000000000000e+00  -1.2892292019671986e-06 -3.8992067893085206e-07 0.0000000000000000e+00  -1.9248207555687405e-06 -6.0100305079517388e-07 0.0000000000000000e+00  -2.5344137664944923e-06 -8.3149166248341201e-07 0.0000000000000000e+00  -3.0801327056310170e-06 -1.0878012337200999e-06 0.0000000000000000e+00  -3.4904833768902466e-06 -1.3759727786541908e-06 0.0000000000000000e+00  -3.6392325648720494e-06 -1.7011164839519326e-06 0.0000000000000000e+00  -3.3124417371275610e-06 -2.0664920824364900e-06 0.0000000000000000e+00  -2.1576035947339185e-06 -2.4722052312308172e-06 0.0000000000000000e+00  3.9317575115152209e-07 -2.9137726324254250e-06 0.0000000000000000e+00  5.2354357527313198e-06 -3.3815597907572381e-06 0.0000000000000000e+00  1.3748534625336417e-05 -3.8638299204273301e-06 0.0000000000000000e+00  2.7997340454662176e-05 -4.3595934130288003e-06 0.0000000000000000e+00  5.0963732716350206e-05 -4.9131029728543486e-06 0.0000000000000000e+00  8.6761138307491129e-05 -5.6881143297069553e-06 0.0000000000000000e+00  1.4074139814706837e-04 -7.0986057763078498e-06 0.0000000000000000e+00  0.0000000000000000e+00 0.0000000000000000e+00 0.0000000000000000e+00  -8.4811016712274239e-07 -2.0088615032811571e-07 0.0000000000000000e+00  -1.7228945906038647e-06 -4.0906803421670879e-07 0.0000000000000000e+00  -2.6499615918070951e-06 -6.3195232429284989e-07 0.0000000000000000e+00  -3.6518554269637837e-06 -8.7710755467849257e-07 0.0000000000000000e+00  -4.7442328996281802e-06 -1.1521856555314974e-06 0.0000000000000000e+00  -5.9283585745769698e-06 -1.4645917189851063e-06 0.0000000000000000e+00  -7.1768615688572102e-06 -1.8207093335217281e-06 0.0000000000000000e+00  -8.4074421359386779e-06 -2.2243877375962876e-06 0.0000000000000000e+00  -9.4354123058347514e-06 -2.6742984307195490e-06 0.0000000000000000e+00  -9.8898385584116191e-06 -3.1597974113960669e-06 0.0000000000000000e+00  -9.0689314040390581e-06 -3.6554594005916695e-06 0.0000000000000000e+00  -5.6984591724085548e-06 -4.1164373846316979e-06 0.0000000000000000e+00  2.4542472764706387e-06 -4.4823452085328624e-06 0.0000000000000000e+00  1.9158209070520430e-05 -4.7102490244610453e-06 0.0000000000000000e+00  5.0503608642919370e-05 -4.8821598385165019e-06 0.0000000000000000e+00  1.0581504059973071e-04 -5.4684816392876704e-06 0.0000000000000000e+00  0.0000000000000000e+00 0.0000000000000000e+00 0.0000000000000000e+00  -1.0244240686301391e-06 -2.0283031857192391e-07 0.0000000000000000e+00  -2.1049976614255147e-06 -4.1372436974629187e-07 0.0000000000000000e+00  -3.3014595778897296e-06 -6.4098189683580336e-07 0.0000000000000000e+00  -4.6805223429625211e-06 -8.9333229029341223e-07 0.0000000000000000e+00  -6.3188305410845391e-06 -1.1800071392695537e-06 0.0000000000000000e+00  -8.3044635979188840e-06 -1.5105536497096932e-06 0.0000000000000000e+00  -1.0734703222600376e-05 -1.8941193011939617e-06 0.0000000000000000e+00  -1.3705142685008874e-05 -2.3377016297515952e-06 0.0000000000000000e+00  -1.7280042039813051e-05 -2.8424567571710295e-06 0.0000000000000000e+00  -2.1424051140744505e-05 -3.3965631382971622e-06 0.0000000000000000e+00  -2.5857797800664941e-05 -3.9624980629211531e-06 0.0000000000000000e+00  -2.9770444869275771e-05 -4.4567804965204329e-06 0.0000000000000000e+00  -3.1279650340060663e-05 -4.7243228143973692e-06 0.0000000000000000e+00  -2.6483951678679903e-05 -4.5260058268063907e-06 0.0000000000000000e+00  -7.9460605011742031e-06 -3.6056705856309150e-06 0.0000000000000000e+00  3.7435750394298731e-05 -2.0088813140388154e-06 0.0000000000000000e+00  0.0000000000000000e+00 0.0000000000000000e+00 0.0000000000000000e+00  -1.1452258083217040e-06 -1.9682241527520694e-07 0.0000000000000000e+00  -2.3726303026301006e-06 -4.0225386863567646e-07 0.0000000000000000e+00  -3.7727543686236553e-06 -6.2531130558862215e-07 0.0000000000000000e+00  -5.4536531623714935e-06 -8.7582962889057558e-07 0.0000000000000000e+00  -7.5516064520840705e-06 -1.1648224567583141e-06 0.0000000000000000e+00  -1.0243874783957987e-05 -1.5046999839165809e-06 0.0000000000000000e+00  -1.3763277395256572e-05 -1.9090951309475995e-06 0.0000000000000000e+00  -1.8412452192434379e-05 -2.3917245624068200e-06 0.0000000000000000e+00  -2.4571015201935890e-05 -2.9630228361541855e-06 0.0000000000000000e+00  -3.2678231057624186e-05 -3.6218755136558665e-06 0.0000000000000000e+00  -4.3150782985224649e-05 -4.3370387590436449e-06 0.0000000000000000e+00  -5.6148081509528041e-05 -5.0081107502290273e-06 0.0000000000000000e+00  -7.1009027870045028e-05 -5.3899967514294269e-06 0.0000000000000000e+00  -8.5042467812172860e-05 -4.9662818229630406e-06 0.0000000000000000e+00  -9.1199797158735783e-05 -2.8025421678505969e-06 0.0000000000000000e+00  -7.4195175795996565e-05 2.3883670649306481e-06 0.0000000000000000e+00  0.0000000000000000e+00 0.0000000000000000e+00 0.0000000000000000e+00  -1.1848127986866631e-06 -1.8233221387859562e-07 0.0000000000000000e+00  -2.4696510309199026e-06 -3.7342301451986477e-07 0.0000000000000000e+00  -3.9669028318724345e-06 -5.8262255193948077e-07 0.0000000000000000e+00  -5.8155469248971138e-06 -8.2053350264962101e-07 0.0000000000000000e+00  -8.1991649293833666e-06 -1.0997583630805802e-06 0.0000000000000000e+00  -1.1370228836242906e-05 -1.4357620122026962e-06 0.0000000000000000e+00  -1.5683644622770441e-05 -1.8477845518285609e-06 0.0000000000000000e+00  -2.1642791754152601e-05 -2.3594963036423778e-06 0.0000000000000000e+00  -2.9960180869922820e-05 -2.9984266393485847e-06 0.0000000000000000e+00  -4.1629289115724495e-05 -3.7914723557931907e-06 0.0000000000000000e+00  -5.7986090298083948e-05 -4.7494004730583827e-06 0.0000000000000000e+00  -8.0688399823244700e-05 -5.8224297988585486e-06 0.0000000000000000e+00  -1.1141332428888668e-04 -6.7836892130021393e-06 0.0000000000000000e+00  -1.5078299875625163e-04 -6.9452886398132958e-06 0.0000000000000000e+00  -1.9549114824769732e-04 -4.5384995433664412e-06 0.0000000000000000e+00  -2.3202472948512357e-04 4.3568140806594878e-06 0.0000000000000000e+00  0.0000000000000000e+00 0.0000000000000000e+00 0.0000000000000000e+00  -1.1256023181370900e-06 -1.5922391864865496e-07 0.0000000000000000e+00  -2.3569289210588671e-06 -3.2677681594194194e-07 0.0000000000000000e+00  -3.8143451451654385e-06 -5.1171632318710114e-07 0.0000000000000000e+00  -5.6502195345688331e-06 -7.2469768326099857e-07 0.0000000000000000e+00  -8.0719165579213004e-06 -9.7909087222240798e-07 0.0000000000000000e+00  -1.1374835846938934e-05 -1.2925499371209297e-06 0.0000000000000000e+00  -1.5991972990585640e-05 -1.6892993856397672e-06 0.0000000000000000e+00  -2.2569960413840657e-05 -2.2034722098351546e-06 0.0000000000000000e+00  -3.2086794540836489e-05 -2.8837748444349845e-06 0.0000000000000000e+00  -4.6033215998098020e-05 -3.7991001329474159e-06 0.0000000000000000e+00  -6.6684330515972786e-05 -5.0418562572520956e-06 0.0000000000000000e+00  -9.7473876210802163e-05 -6.7153566465905071e-06 0.0000000000000000e+00  -1.4338961774618434e-04 -8.8558881997906589e-06 0.0000000000000000e+00  -2.1093964363794610e-04 -1.1122330096179137e-05 0.0000000000000000e+00  -3.0609560517415665e-04 -1.1726873626437865e-05 0.0000000000000000e+00  -4.2627583787413313e-04 -4.2588893288315359e-06 0.0000000000000000e+00  0.0000000000000000e+00 0.0000000000000000e+00 0.0000000000000000e+00  -9.6205030464824089e-07 -1.2793663414514713e-07 0.0000000000000000e+00  -2.0211343054980675e-06 -2.6305832484832005e-07 0.0000000000000000e+00  -3.2887423351110413e-06 -4.1330505329522252e-07 0.0000000000000000e+00  -4.9083148879492541e-06 -5.8831125134912400e-07 0.0000000000000000e+00  -7.0791156839908227e-06 -8.0071005997108090e-07 0.0000000000000000e+00  -1.0091956484089069e-05 -1.0681554171917047e-06 0.0000000000000000e+00  -1.4385545902362638e-05 -1.4166545438523979e-06 0.0000000000000000e+00  -2.0638600024145094e-05 -1.8862899917458323e-06 0.0000000000000000e+00  -2.9924749009975560e-05 -2.5413387620312080e-06 0.0000000000000000e+00  -4.3979621059500194e-05 -3.4885311616815104e-06 0.0000000000000000e+00  -6.5671064480820723e-05 -4.9102139931637614e-06 0.0000000000000000e+00  -9.9836429841392661e-05 -7.1231830377759263e-06 0.0000000000000000e+00  -1.5475155598836148e-04 -1.0671637317727353e-05 0.0000000000000000e+00  -2.4447309903031958e-04 -1.6402002228487875e-05 0.0000000000000000e+00  -3.9109510540732929e-04 -2.5012650551055802e-05 0.0000000000000000e+00  -6.1783641612560183e-04 -3.2491155046147834e-05 0.0000000000000000e+00  0.0000000000000000e+00 0.0000000000000000e+00 0.0000000000000000e+00  -7.0287814604660788e-07 -8.9617622156916871e-08 0.0000000000000000e+00  -1.4799350901855265e-06 -1.8453925059450335e-07 0.0000000000000000e+00  -2.4169148751640296e-06 -2.9069754374545650e-07 0.0000000000000000e+00  -3.6253055409476253e-06 -4.1545761560671908e-07 0.0000000000000000e+00  -5.2620639409541852e-06 -5.6878560454014279e-07 0.0000000000000000e+00  -7.5598943018036570e-06 -7.6516219888532687e-07 0.0000000000000000e+00  -1.0876513085469360e-05 -1.0269395398269975e-06 0.0000000000000000e+00  -1.5778352650987263e-05 -1.3905434431444854e-06 0.0000000000000000e+00  -2.3188492541770521e-05 -1.9184716764042940e-06 0.0000000000000000e+00  -3.4659088368827048e-05 -2.7235945606974908e-06 0.0000000000000000e+00  -5.2896555570593473e-05 -4.0208570158606519e-06 0.0000000000000000e+00  -8.2827414766190426e-05 -6.2435943480918447e-06 0.0000000000000000e+00  -1.3388664743378776e-04 -1.0323333423286184e-05 0.0000000000000000e+00  -2.2521777621801556e-04 -1.8423803385238763e-05 0.0000000000000000e+00  -3.9802347647136844e-04 -3.6124570278398426e-05 0.0000000000000000e+00  -7.4464838291695009e-04 -8.0552309394127475e-05 0.0000000000000000e+00  0.0000000000000000e+00 0.0000000000000000e+00 0.0000000000000000e+00  -3.7087179831361675e-07 -4.6145191974989555e-08 0.0000000000000000e+00  -7.8183920353987158e-07 -9.5107008713775707e-08 0.0000000000000000e+00  -1.2793930990799477e-06 -1.5005863601933735e-07 0.0000000000000000e+00  -1.9243121175611121e-06 -2.1499228479583332e-07 0.0000000000000000e+00  -2.8027465852708610e-06 -2.9540760362759044e-07 0.0000000000000000e+00  -4.0434461611483038e-06 -3.9946932885957328e-07 0.0000000000000000e+00  -5.8462165649905241e-06 -5.4009744936814560e-07 0.0000000000000000e+00  -8.5311858959988966e-06 -7.3895275388313695e-07 0.0000000000000000e+00  -1.2628015286729539e-05 -1.0344231926379819e-06 0.0000000000000000e+00  -1.9045653985980280e-05 -1.4984512850415509e-06 0.0000000000000000e+00  -2.9414982704332232e-05 -2.2739423928642277e-06 0.0000000000000000e+00  -4.6832559839473406e-05 -3.6629560977920374e-06 0.0000000000000000e+00  -7.7628674300769771e-05 -6.3486062496185439e-06 0.0000000000000000e+00  -1.3607335697269479e-04 -1.1994855483079755e-05 0.0000000000000000e+00  -2.5868561952733892e-04 -2.4988675815673052e-05 0.0000000000000000e+00  -5.5323049519270882e-04 -5.7617950433552113e-05 0.0000000000000000e+00  0.0000000000000000e+00 0.0000000000000000e+00 0.0000000000000000e+00  0.0000000000000000e+00 0.0000000000000000e+00 0.0000000000000000e+00  0.0000000000000000e+00 0.0000000000000000e+00 0.0000000000000000e+00  0.0000000000000000e+00 0.0000000000000000e+00 0.0000000000000000e+00  0.0000000000000000e+00 0.0000000000000000e+00 0.0000000000000000e+00  0.0000000000000000e+00 0.0000000000000000e+00 0.0000000000000000e+00  0.0000000000000000e+00 0.0000000000000000e+0