<?xml version="1.0"?>
<VTKFile type="UnstructuredGrid"  version="0.1"  >
<UnstructuredGrid>
<Piece  NumberOfPoints="289" NumberOfCells="512">
<Points>
<DataArray  type="Float64"  NumberOfComponents="3"  format="ascii">0 0 0  0.0625 0 0  0.125 0 0  0.1875 0 0  0.25 0 0  0.3125 0 0  0.375 0 0  0.4375 0 0  0.5 0 0  0.5625 0 0  0.625 0 0  0.6875 0 0  0.75 0 0  0.8125 0 0  0.875 0 0  0.9375 0 0  1 0 0  0 0.0625 0  0.06250654781969733 0.06247945719027465 0  0.1250133546425363 0.06245855111286269 0  0.1875206790046562 0.06243694779804486 0  0.2500288110186394 0.06241438985373116 0  0.312538095772096 0.06239074592334957 0  0.3750489701284062 0.06236607235806084 0  0.4375620245635705 0.06234068760619876 0  0.5000781116001206 0.06231525456936315 0  0.5625985420379465 0.06229085673450906 0  0.6251254503764927 0.06226903871908058 0  0.687662495802919 0.06225176134429136 0  0.750216242964196 0.06224120438259397 0  0.8127988774794852 0.06223937741679217 0  0.8754329287547576 0.06224773789164748 0  0.9381539669711106 0.06226828463147153 0  1.000964162784917 0.06231629031316671 0  0 0.125 0  0.06251281168543973 0.1249592633957417 0  0.1250261380439996 0.124917762053027 0  0.1875404977445641 0.1248747856049502 0  0.2500564787155248 0.1248297678931674 0  0.3125747899056789 0.1247823830258511 0  0.3750963421235022 0.124732668873984 0  0.4376223818044506 0.1246811818454876 0  0.5001547202830379 0.1246291779022703 0  0.5626961361225624 0.1245787974554332 0  0.6252510933248069 0.1245332011057824 0  0.6878270370540905 0.1244965545346756 0  0.7504367244644974 0.1244736958811239 0  0.8131022774005268 0.1244692658777282 0  0.8758615655180664 0.1244861493184957 0  0.9387766392438496 0.1245234929315389 0  1.001952233811733 0.1245740496461067 0  0 0.1875 0  0.06251857086711796 0.1874398271556842 0  0.1250378897775108 0.1873784184506645 0  0.1875587162541751 0.1873146085750921 0  0.2500819137244371 0.1872474247104573 0  0.3126085266647343 0.1871762216444491 0  0.3751398990784742 0.1871008640793874 0  0.4376778654449313 0.1870219684551762 0  0.5002250657890343 0.1869412079185205 0  0.5627854698490251 0.1868616638593191 0  0.6253652453970583 0.1867881657441645 0  0.6879741675849073 0.1867274806824083 0  0.7506277960029342 0.1866880623945464 0  0.8133504859244393 0.1866787643366165 0  0.8761785937774726 0.1867051961211552 0  0.9391619063435369 0.1867602788125619 0  1.002362966909097 0.1867988315876493 0  0 0.25 0  0.06252362898697517 0.249921625810391 0  0.1250481996146127 0.2498414535238554 0  0.1875746734702795 0.2497577576408233 0  0.2501041398197023 0.249669021841166 0  0.3126379093501825 0.2495740983023781 0  0.3751776556060831 0.2494724375763468 0  0.4377256370321621 0.2493644159943014 0  0.5002850495143456 0.2492517851623892 0  0.562860580735724 0.2491382551609239 0  0.6254592557330709 0.249030186914218 0  0.6880916512963519 0.248937286361092 0  0.7507734468240193 0.2488730213314146 0  0.8135269357689494 0.2488541504316924 0  0.8763814075160897 0.2488981731546518 0  0.9393705406872552 0.24901677990662 0  1.002525844420383 0.2492040508462307 0  0 0.3125 0  0.06252781967658491 0.3124052259991609 0  0.1250567223887273 0.3123079949465178 0  0.1875878189336703 0.3122059049932152 0  0.2501223558451544 0.3120967354044026 0  0.3126618142773563 0.3119786052781269 0  0.3752080577577174 0.3118502254247506 0  0.4377635613303061 0.3117112896539773 0  0.5003317686672327 0.3115630625657753 0  0.5629176368052154 0.3114092282147147 0  0.6255284269543238 0.3112570562504902 0  0.6881747531817977 0.3111188944834475 0  0.750871752901157 0.311013860955614 0  0.8136399383620941 0.3109693048321336 0  0.8765049214586099 0.3110210459373892 0  0.9394954711052756 0.3112106282026351 0  1.002642277899437 0.311577298461217 0  0 0.375 0  0.06253100814646442 0.3748912882281878 0  0.1250631832740383 0.3747793799298648 0  0.1875977261280591 0.3746610927805181 0  0.2501359639069474 0.3745333414414639 0  0.3126794423556299 0.3743932598927397 0  0.3752300642409195 0.3742384308920365 0  0.4377903078157369 0.3740672878392347 0  0.5003635760777464 0.3738797838081231 0  0.5629547467992688 0.3736784621133292 0  0.6255710033635803 0.3734701079808169 0  0.6882230010939969 0.3732681926909388 0  0.7509263189377361 0.3730962870835709 0  0.8137029286202281 0.3729924027461943 0  0.8765821828420559 0.373013612158559 0  0.9396011061114189 0.3732390837436184 0  1.002805816468021 0.3737678837989383 0  0 0.4375 0  0.06253308972101258 0.4373805497724919 0  0.1250673752793958 0.4372571257204978 0  0.1876040897094911 0.43712570239327 0  0.2501445670854567 0.4369822060925354 0  0.3126903162290032 0.4368225564327247 0  0.3752431344276755 0.4366428104416475 0  0.4378052979743303 0.4364394852740026 0  0.5003798947840903 0.436210184241123 0  0.5629714092000332 0.4359547287939943 0  0.6255867313201476 0.4356771173593962 0  0.6882368309537105 0.4353887940610517 0  0.7509393690510471 0.4351138841245865 0  0.8137224341543884 0.4348971003093568 0  0.8766292952823617 0.4348145830952617 0  0.9397236526613818 0.4349863798166186 0  1.003095215566782 0.4355862774105038 0  0 0.5 0  0.06253398735025203 0.4998737815104836 0  0.1250691530224559 0.4997428447381836 0  0.187606713183946 0.4996023327812941 0  0.2501479474742058 0.4994471404491712 0  0.3126942435513773 0.4992718291896832 0  0.3752471685217752 0.4990706126551396 0  0.4378086052539706 0.4988374821136331 0  0.5003810360273999 0.4985666008531876 0  0.5629681430476112 0.4982532052054867 0  0.6255760540312723 0.4978954422356331 0  0.6882158211723359 0.4974979028423451 0  0.7509080765621103 0.4970781258827909 0  0.8136911138624102 0.4966780102236158 0  0.8766334602549403 0.496382432615701 0  0.9398505794302874 0.4963459910166476 0  1.003522942417785 0.4968232054476852 0  0 0.5625 0  0.06253365029315704 0.5623717175319045 0  0.1250684273438127 0.5622380999018813 0  0.1876054943463181 0.5620935750396362 0  0.2501460354180544 0.5619320892694305 0  0.3126912628801583 0.5617468600938476 0  0.3752424277725433 0.5615301373168223 0  0.437800862597677 0.5612730100141361 0  0.5003681402055593 0.5609653502089874 0  0.5629465615069655 0.5605960943258036 0  0.6255404653615553 0.5601542904306975 0  0.6881594153204686 0.5596318036113006 0  0.750825310144853 0.5590294997807342 0  0.813586867077048 0.5583704527513093 0  0.8765459600100863 0.5577263093399956 0  0.9398984445237022 0.5572644482489931 0  1.003983488526971 0.5573169571930306 0  0 0.625 0  0.06253205562375881 0.6248749616188627 0  0.1250651643403871 0.624744206871076 0  0.1876004141322573 0.6246016888068295 0  0.2501388767901093 0.6244406494754495 0  0.312681576596921 0.6242531996842222 0  0.3752294277787127 0.624029821411771 0  0.4377831427375984 0.6237587741206101 0  0.5003431571657762 0.623425408549134 0  0.5629097524460928 0.6230114550747815 0  0.6254839166635799 0.6224945218157595 0  0.6880703686264702 0.6218484729291288 0  0.7506861263644664 0.6210464813496213 0  0.8133817571077643 0.620071408363544 0  0.8762878259679124 0.6189448656896955 0  0.9397013358701033 0.6177975679652599 0  1.004214318123026 0.617001163979655 0  0 0.6875 0  0.06252921323451983 0.6873838812947473 0  0.1250593908008999 0.6872620047281803 0  0.1875915327607712 0.6871282124817194 0  0.2501266029758338 0.6869754582053165 0  0.3126654694889979 0.6867952395904937 0  0.3752087764014198 0.6865768632750355 0  0.4377567052410722 0.6863064544376554 0  0.5003085836891036 0.6859655949230391 0  0.5628623603809393 0.6855294426839131 0  0.6254142418431 0.6849641765530043 0  0.6879597273781566 0.6842237239873868 0  0.7505000468051192 0.6832463549465169 0  0.8130652625710436 0.6819543707712316 0  0.8757812395860708 0.6802705020691313 0  0.9390285196088483 0.6782012338000888 0  1.003731177027866 0.6760900748624011 0  0 0.75 0  0.06252517394397998 0.7498985065006307 0  0.1250512065969362 0.749791631659225 0  0.1875789969669075 0.7496735682413659 0  0.2501094127602122 0.7495375429971336 0  0.3126432254800893 0.7493751686108421 0  0.3751809537857646 0.749175559684053 0  0.437722529150138 0.7489240661194655 0  0.5002666292443892 0.7486003974377311 0  0.5628094255684203 0.7481757757587386 0  0.6253424242303057 0.7476085189631492 0  0.6878493819586246 0.7468370358974226 0  0.750304339534303 0.74576850326489 0  0.8126816103293476 0.7442607237282725 0  0.8750201496655802 0.7420975047070564 0  0.937677268227916 0.7389955549440008 0  1.001859545946389 0.735041182378298 0  0 0.8125 0  0.06252003932456196 0.8124184539088301 0  0.125040803319685 0.8123323523614969 0  0.1875630630515375 0.8122367447215367 0  0.2500875851061869 0.8121257715407607 0  0.3126150891879568 0.8119920346971566 0  0.37514612141052 0.8118257103699341 0  0.4376807423264389 0.8116132329884769 0  0.500217808545906 0.8113352720675814 0  0.5627533655885163 0.8109635341585566 0  0.6252771206452148 0.8104555668208895 0  0.6877649120567919 0.8097460121886882 0  0.7501636096626337 0.8087310531891891 0  0.8123657961834778 0.8072382717697408 0  0.8741945032493759 0.8049613115890181 0  0.9355843182995754 0.8013038769936551 0  0.9984582775444978 0.7950057789684485 0  0 0.875 0  0.06251397086800747 0.8749428973030983 0  0.1250284863566294 0.8748824839650872 0  0.1875441383173383 0.8748151441126417 0  0.25006154527201 0.8747365536174571 0  0.3125813476864939 0.8746411788091346 0  0.3751041565136997 0.8745215565765415 0  0.4376303841912474 0.8743672048424058 0  0.5001597789786604 0.8741629166832212 0  0.5626902034448672 0.8738860267207615 0  0.6252144587951382 0.8735019559691444 0  0.6877119745677428 0.8729568360035389 0  0.7501268276848249 0.8721649185947686 0  0.8123092021767251 0.8709849320462318 0  0.8738604167108107 0.8691634906769315 0  0.9337379347288107 0.8661447894093219 0  0.9893900324903078 0.8602639542244742 0  0 0.9375 0  0.0625071950299812 0.9374705982379163 0  0.1250146936813611 0.937439454141183 0  0.187522833290707 0.9374046591039421 0  0.2500319864057493 0.9373639167306264 0  0.3125425796914028 0.9373142650188577 0  0.3750551066218779 0.9372516728923248 0  0.4375701141107458 0.9371704226
[...]
<PointData  Vectors="f_54"> 
<DataArray  type="Float64"  Name="f_54"  NumberOfComponents="3" format="ascii">0.0000000000000000e+00 0.0000000000000000e+00 0.0000000000000000e+00  0.0000000000000000e+00 0.0000000000000000e+00 0.0000000000000000e+00  0.0000000000000000e+00 0.0000000000000000e+00 0.0000000000000000e+00  0.0000000000000000e+00 0.0000000000000000e+00 0.0000000000000000e+00  0.0000000000000000e+00 0.0000000000000000e+00 0.0000000000000000e+00  0.0000000000000000e+00 0.0000000000000000e+00 0.0000000000000000e+00  0.0000000000000000e+00 0.0000000000000000e+00 0.0000000000000000e+00  0.0000000000000000e+00 0.0000000000000000e+00 0.0000000000000000e+00  0.0000000000000000e+00 0.0000000000000000e+00 0.0000000000000000e+00  0.0000000000000000e+00 0.0000000000000000e+00 0.0000000000000000e+00  0.0000000000000000e+00 0.0000000000000000e+00 0.0000000000000000e+00  0.0000000000000000e+00 0.0000000000000000e+00 0.0000000000000000e+00  0.0000000000000000e+00 0.0000000000000000e+00 0.0000000000000000e+00  0.0000000000000000e+00 0.0000000000000000e+00 0.0000000000000000e+00  0.0000000000000000e+00 0.0000000000000000e+00 0.0000000000000000e+00  0.0000000000000000e+00 0.0000000000000000e+00 0.0000000000000000e+00  0.0000000000000000e+00 0.0000000000000000e+00 0.0000000000000000e+00  0.0000000000000000e+00 0.0000000000000000e+00 0.0000000000000000e+00  4.6032772659237018e-06 6.8753660901537273e-08 0.0000000000000000e+00  9.3282833442377239e-06 1.3780953925512332e-07 0.0000000000000000e+00  1.4297394391030990e-05 2.0728316769228610e-07 0.0000000000000000e+00  1.9627828666579959e-05 2.7681387503842256e-07 0.0000000000000000e+00  2.5427171044761355e-05 3.4529404820217963e-07 0.0000000000000000e+00  3.1786328481245172e-05 4.1057168615587717e-07 0.0000000000000000e+00  3.8768890200046678e-05 4.6914272649107065e-07 0.0000000000000000e+00  4.6395838761684591e-05 5.1587090294167322e-07 0.0000000000000000e+00  5.4624771107946793e-05 5.4378483305976508e-07 0.0000000000000000e+00  6.3323692910048258e-05 5.4395701638339817e-07 0.0000000000000000e+00  7.2242388210088293e-05 5.0521974977072334e-07 0.0000000000000000e+00  8.0993824254831030e-05 4.1254908018835897e-07 0.0000000000000000e+00  8.9090332439977269e-05 2.3970313911269155e-07 0.0000000000000000e+00  9.6197591035563861e-05 -8.0330444050065591e-08 0.0000000000000000e+00  1.0323090933960809e-04 -7.7199347918090605e-07 0.0000000000000000e+00  1.1678712650006737e-04 -2.6923948271589498e-06 0.0000000000000000e+00  0.0000000000000000e+00 0.0000000000000000e+00 0.0000000000000000e+00  9.0828172353603647e-06 1.3717372721044292e-07 0.0000000000000000e+00  1.8411551239684955e-05 2.7518344269701732e-07 0.0000000000000000e+00  2.8233918508016132e-05 4.1450473024642493e-07 0.0000000000000000e+00  3.8788978716704186e-05 5.5468603263121436e-07 0.0000000000000000e+00  5.0299126130027105e-05 6.9380709501647568e-07 0.0000000000000000e+00  6.2957037595683918e-05 8.2786665389081237e-07 0.0000000000000000e+00  7.6905454742263888e-05 9.5012780006040929e-07 0.0000000000000000e+00  9.2207445534832463e-05 1.0505053658936283e-06 0.0000000000000000e+00  1.0880475430500807e-04 1.1151504492495051e-06 0.0000000000000000e+00  1.2646228629221965e-04 1.1264428847117400e-06 0.0000000000000000e+00  1.4469809216417887e-04 1.0635678082874933e-06 0.0000000000000000e+00  1.6270064165650703e-04 9.0364153941138424e-07 0.0000000000000000e+00  1.7923608202644558e-04 6.2333115458820293e-07 0.0000000000000000e+00  1.9252578206741723e-04 2.0481591871630947e-07 0.0000000000000000e+00  1.9989585926721704e-04 -3.1900662700432282e-07 0.0000000000000000e+00  1.9591384578094716e-04 -5.5689010575119849e-07 0.0000000000000000e+00  0.0000000000000000e+00 0.0000000000000000e+00 0.0000000000000000e+00  1.3311755633124076e-05 2.0468185224404454e-07 0.0000000000000000e+00  2.6997604738489681e-05 4.1118092244926454e-07 0.0000000000000000e+00  4.1435551417764760e-05 6.2081067679543353e-07 0.0000000000000000e+00  5.6994653150546360e-05 8.3356816957382839e-07 0.0000000000000000e+00  7.4025347887340270e-05 1.0473285745567922e-06 0.0000000000000000e+00  9.2842530267584457e-05 1.2568884182576716e-06 0.0000000000000000e+00  1.1369812010229633e-04 1.4528777754265813e-06 0.0000000000000000e+00  1.3673925561142404e-04 1.6206569971568605e-06 0.0000000000000000e+00  1.6194765016263056e-04 1.7394725557952455e-06 0.0000000000000000e+00  1.8905512353286616e-04 1.7823780974316299e-06 0.0000000000000000e+00  2.1742956791069172e-04 1.7176958999621413e-06 0.0000000000000000e+00  2.4592305062924645e-04 1.5129467312249931e-06 0.0000000000000000e+00  2.7266372761606346e-04 1.1417201068613265e-06 0.0000000000000000e+00  2.9473919035872512e-04 5.9098658528564299e-07 0.0000000000000000e+00  3.0762454585279964e-04 -1.4927272972212983e-07 0.0000000000000000e+00  3.0404974695025087e-04 -1.2230061444579370e-06 0.0000000000000000e+00  0.0000000000000000e+00 0.0000000000000000e+00 0.0000000000000000e+00  1.7159831885008246e-05 2.7025599918117223e-07 0.0000000000000000e+00  3.4825885014826086e-05 5.4393886188468953e-07 0.0000000000000000e+00  5.3511723434135361e-05 8.2388376676698118e-07 0.0000000000000000e+00  7.3726220973872764e-05 1.1113384409870892e-06 0.0000000000000000e+00  9.5964962430714258e-05 1.4049237536953452e-06 0.0000000000000000e+00  1.2069271847227354e-04 1.6993106710674400e-06 0.0000000000000000e+00  1.4831267541251582e-04 1.9835813188706674e-06 0.0000000000000000e+00  1.7911699855795334e-04 2.2393567762599316e-06 0.0000000000000000e+00  2.1321205529635452e-04 2.4390126310780486e-06 0.0000000000000000e+00  2.5041028583494416e-04 2.5447470174931745e-06 0.0000000000000000e+00  2.9007916141557817e-04 2.5100007051362720e-06 0.0000000000000000e+00  3.3093519683837880e-04 2.2857620235465363e-06 0.0000000000000000e+00  3.7076584800006102e-04 1.8353278430147900e-06 0.0000000000000000e+00  4.0605311170209047e-04 1.1611320200189421e-06 0.0000000000000000e+00  4.3147162811855099e-04 3.4477618318375423e-07 0.0000000000000000e+00  4.3931700034150357e-04 -3.9627775376650807e-07 0.0000000000000000e+00  0.0000000000000000e+00 0.0000000000000000e+00 0.0000000000000000e+00  2.0493710591871391e-05 3.3225351120719459e-07 0.0000000000000000e+00  4.1627475596806349e-05 6.7028909558867106e-07 0.0000000000000000e+00  6.4053660959923598e-05 1.0192982744116239e-06 0.0000000000000000e+00  8.8429697335722196e-05 1.3828137121930654e-06 0.0000000000000000e+00  1.1541401311083501e-04 1.7615154383742205e-06 0.0000000000000000e+00  1.4565223959430611e-04 2.1515714751393181e-06 0.0000000000000000e+00  1.7974853060609341e-04 2.5423617196505685e-06 0.0000000000000000e+00  2.1821514756060052e-04 2.9135108791323463e-06 0.0000000000000000e+00  2.6139143219298868e-04 3.2313926542842680e-06 0.0000000000000000e+00  3.0932113121856893e-04 3.4458402479345853e-06 0.0000000000000000e+00  3.6157513513915892e-04 3.4890046480514343e-06 0.0000000000000000e+00  4.1700567872217430e-04 3.2805504727278367e-06 0.0000000000000000e+00  4.7341918894781940e-04 2.7470038930431489e-06 0.0000000000000000e+00  5.2716211915340564e-04 1.8677081357476375e-06 0.0000000000000000e+00  5.7264036860194358e-04 7.6307199114402110e-07 0.0000000000000000e+00  6.0187294649247482e-04 -1.6456793597823615e-07 0.0000000000000000e+00  0.0000000000000000e+00 0.0000000000000000e+00 0.0000000000000000e+00  2.3179465094649381e-05 3.8829945432897223e-07 0.0000000000000000e+00  4.7129626419632931e-05 7.8549640916350641e-07 0.0000000000000000e+00  7.2640003063042993e-05 1.2000262484382918e-06 0.0000000000000000e+00  1.0052078605761459e-04 1.6388929567916615e-06 0.0000000000000000e+00  1.3160720191182645e-04 2.1064812287392787e-06 0.0000000000000000e+00  1.6675461644556131e-04 2.6027082053822347e-06 0.0000000000000000e+00  2.0681880284259308e-04 3.1201787750367904e-06 0.0000000000000000e+00  2.5261342591224032e-04 3.6399535739947067e-06 0.0000000000000000e+00  3.0483375327802282e-04 4.1255968714963436e-06 0.0000000000000000e+00  3.6393217363591421e-04 4.5155796880551338e-06 0.0000000000000000e+00  4.2992809090372600e-04 4.7153946901101869e-06 0.0000000000000000e+00  5.0213386773219880e-04 4.5939067659982199e-06 0.0000000000000000e+00  5.7878255088398417e-04 3.9951345793428894e-06 0.0000000000000000e+00  6.5655556517443174e-04 2.7885188085713835e-06 0.0000000000000000e+00  7.3003023058648556e-04 9.9710531686641027e-07 0.0000000000000000e+00  7.9108514606751363e-04 -9.4466691811373068e-07 0.0000000000000000e+00  0.0000000000000000e+00 0.0000000000000000e+00 0.0000000000000000e+00  2.5087622409559817e-05 4.3527828415907299e-07 0.0000000000000000e+00  5.1065702189713608e-05 8.8319803144257135e-07 0.0000000000000000e+00  7.8851309047507767e-05 1.3562259143705483e-06 0.0000000000000000e+00  1.0940316259041350e-04 1.8660149430260368e-06 0.0000000000000000e+00  1.4373832852493469e-04 2.4224831201393215e-06 0.0000000000000000e+00  1.8294180263874499e-04 3.0321060396348437e-06 0.0000000000000000e+00  2.2816368539069280e-04 3.6948842575209548e-06 0.0000000000000000e+00  2.8059558579540358e-04 4.3991637045094723e-06 0.0000000000000000e+00  3.4141358698487812e-04 5.1131305686922751e-06 0.0000000000000000e+00  4.1166966152460504e-04 5.7715249229235168e-06 0.0000000000000000e+00  4.9210777463207223e-04 6.2564627193124062e-06 0.0000000000000000e+00  5.8287770068611729e-04 6.3737149127673123e-06 0.0000000000000000e+00  6.8312395121666500e-04 5.8337741136752525e-06 0.0000000000000000e+00  7.9044514462895646e-04 4.2667596534668757e-06 0.0000000000000000e+00  9.0024638965762404e-04 1.3392498032517047e-06 0.0000000000000000e+00  1.0049994455014844e-03 -2.8982618743172632e-06 0.0000000000000000e+00  0.0000000000000000e+00 0.0000000000000000e+00 0.0000000000000000e+00  2.6100856582595796e-05 4.6947115383300617e-07 0.0000000000000000e+00  5.3190842573638319e-05 9.5564194813741746e-07 0.0000000000000000e+00  8.2294180363873788e-05 1.4754902889785941e-06 0.0000000000000000e+00  1.1450155129238897e-04 2.0462263046430150e-06 0.0000000000000000e+00  1.5100240665470605e-04 2.6849821360286125e-06 0.0000000000000000e+00  1.9311432395028246e-04 3.4077740197479958e-06 0.0000000000000000e+00  2.4230544830741439e-04 4.2270845443585842e-06 0.0000000000000000e+00  3.0020252828227362e-04 5.1468814758348455e-06 0.0000000000000000e+00  3.6857147830135766e-04 6.1529622497044137e-06 0.0000000000000000e+00  4.4924928257959187e-04 7.1950072471013622e-06 0.0000000000000000e+00  5.4399580609907022e-04 8.1546343288772024e-06 0.0000000000000000e+00  6.5422487059696520e-04 8.7919993720413230e-06 0.0000000000000000e+00  7.8057511685902250e-04 8.6660758585749365e-06 0.0000000000000000e+00  9.2231103255394130e-04 7.0420967630661983e-06 0.0000000000000000e+00  1.0766193704084088e-03 2.8563104364487663e-06 0.0000000000000000e+00  1.2379385841883551e-03 -5.0763812023758882e-06 0.0000000000000000e+00  0.0000000000000000e+00 0.0000000000000000e+00 0.0000000000000000e+00  2.6124003926689651e-05 4.8687280721723672e-07 0.0000000000000000e+00  5.3302782854332818e-05 9.9431217729601914e-07 0.0000000000000000e+00  8.2634440092791035e-05 1.5437440277051497e-06 0.0000000000000000e+00  1.1530944029917536e-04 2.1582298760106979e-06 0.0000000000000000e+00  1.5266038568499346e-04 2.8631204254858509e-06 0.0000000000000000e+00  1.9621508276107861e-04 3.6863229992443960e-06 0.0000000000000000e+00  2.4775170959484869e-04 4.6576498757414866e-06 0.0000000000000000e+00  3.0935155822420278e-04 5.8060825077224305e-06 0.0000000000000000e+00  3.8343863211291583e-04 7.1524585662860299e-06 0.0000000000000000e+00  4.7278468006636267e-04 8.6923386970349273e-06 0.0000000000000000e+00  5.8044165467513876e-04 1.0358316608145830e-05 0.0000000000000000e+00  7.0954265891618330e-04 1.1940928499092449e-05 0.0000000000000000e+00  8.6289957684774652e-04 1.2932062327274066e-05 0.0000000000000000e+00  1.0423620864439787e-03 1.2243758478200129e-05 0.0000000000000000e+00  1.2480837608949626e-03 7.7894106575421946e-06 0.0000000000000000e+00  1.4782947407865914e-03 -3.9328708548587284e-06 0.0000000000000000e+00  0.0000000000000000e+00 0.0000000000000000e+00 0.0000000000000000e+00  2.5095578631082491e-05 4.8369391270249944e-07 0.0000000000000000e+00  5.1266245739543569e-05 9.9097479414711328e-07 0.0000000000000000e+00  7.9637148217470290e-05 1.5469048948630373e-06 0.0000000000000000e+00  1.1144890225789622e-04 2.1797262408832889e-06 0.0000000000000000e+00  1.4812431887009850e-04 2.9227024759036022e-06 0.0000000000000000e+00  1.9134632713309840e-04 3.8162026192924638e-06 0.0000000000000000e+00  2.4315030681376596e-04 4.9099324539912421e-06 0.0000000000000000e+00  3.0603215097199128e-04 6.2648304797459564e-06 0.0000000000000000e+00  3.8306837665364949e-04 7.9530994236003781e-06 0.0000000000000000e+00  4.7803334403898821e-04 1.0052072405985373e-05 0.0000000000000000e+00  5.9547628266878438e-04 1.2620374195588804e-05 0.0000000000000000e+00  7.4068248539765414e-04 1.5626462054685355e-05 0.0000000000000000e+00  9.1939352107400340e-04 1.8755834199463930e-05 0.0000000000000000e+00  1.1371509357973666e-03 2.0933557352842201e-05 0.0000000000000000e+00  1.3983476445039043e-03 1.9282843481457666e-05 0.0000000000000000e+00  1.7058559949607378e-03 7.2566597262648868e-06 0.0000000000000000e+00  0.0000000000000000e+00 0.0000000000000000e+00 0.0000000000000000e+00  2.2999443422873541e-05 4.5700564012706193e-07 0.0000000000000000e+00  4.7038168012106851e-05 9.3907071002334083e-07 0.0000000000000000e+00  7.3209272431030368e-05 1.4732420591064281e-06 0.0000000000000000e+00  1.0273696485147657e-04 2.0910838637138991e-06 0.0000000000000000e+00  1.3705648463420436e-04 2.8316505471227768e-06 0.0000000000000000e+00  1.7791359994450543e-04 3.7454559303267811e-06 0.0000000000000000e+00  2.2749262064279555e-04 4.9000117583737086e-06 0.0000000000000000e+00  2.8858315120990861e-04 6.3877412660363862e-06 0.0000000000000000e+00  3.6479522582187461e-04 8.3372915512550621e-06 0.0000000000000000e+00  4.6082601236152165e-04 1.0928962122909774e-05 0.0000000000000000e+00  5.8276022341651238e-04 1.4411908655462347e-05 0.0000000000000000e+00  7.3833450674951930e-04 1.9106386432501225e-05 0.0000000000000000e+00  9.3699265113933526e-04 2.5318153551964960e-05 0.0000000000000000e+00  1.1894205411043140e-03 3.2898430452600053e-05 0.0000000000000000e+00  1.5063907976939756e-03 3.9665030452953954e-05 0.0000000000000000e+00  1.8986332551573790e-03 3.8143236580214597e-05 0.0000000000000000e+00  0.0000000000000000e+00 0.0000000000000000e+00 0.0000000000000000e+00  1.9874832085539258e-05 4.0542324755198518e-07 0.0000000000000000e+00  4.0689954884019243e-05 8.3523812706894646e-07 0.0000000000000000e+00  6.3438836328931969e-05 1.3160845197704574e-06 0.0000000000000000e+00  8.9249550363340986e-05 1.8798623424710030e-06 0.0000000000000000e+00  1.1947044187334010e-04 2.5674142863151603e-06 0.0000000000000000e+00  1.5578215788256564e-04 3.4337830478873005e-06 0.0000000000000000e+00  2.0035084300963835e-04 4.5561928036860085e-06 0.0000000000000000e+00  2.5604330281855535e-04 6.0468080136305860e-06 0.0000000000000000e+00  3.2673265276652686e-04 8.0742043035796769e-06 0.0000000000000000e+00  4.1773007373242246e-04 1.0901492560423803e-05 0.0000000000000000e+00  5.3637597895599273e-04 1.4957312799980128e-05 0.0000000000000000e+00  6.9278615332638688e-04 2.0970218679785472e-05 0.0000000000000000e+00  9.0061040558503218e-04 3.0203326467756107e-05 0.0000000000000000e+00  1.1772952200565622e-03 4.4689419592199770e-05 0.0000000000000000e+00  1.5427225017773175e-03 6.6091804134781943e-05 0.0000000000000000e+00  2.0192781714070741e-03 8.1832598766242939e-05 0.0000000000000000e+00  0.0000000000000000e+00 0.0000000000000000e+00 0.0000000000000000e+00  1.5822666035979148e-05 3.2967699627795617e-07 0.0000000000000000e+00  3.2422256775041777e-05 6.8062152081853476e-07 0.0000000000000000e+00  5.0622811837610847e-05 1.0762551465409702e-06 0.0000000000000000e+00  7.1370835797744629e-05 1.5451218597602496e-06 0.0000000000000000e+00  9.5815966694492660e-05 2.1245709253794795e-06 0.0000000000000000e+00  1.2542061040528800e-04 2.8661329721536206e-06 0.0000000000000000e+00  1.6211710775825466e-04 3.8438440809135108e-06 0.0000000000000000e+00  2.0854167902565858e-04 5.1677961650515092e-06 0.0000000000000000e+00  2.6839213275345629e-04 7.0075043684740047e-06 0.0000000000000000e+00  3.4698462029447930e-04 9.6355443936496225e-06 0.0000000000000000e+00  4.5212546468504652e-04 1.3518417609710051e-05 0.0000000000000000e+00  5.9545563681837911e-04 1.9531476733916829e-05 0.0000000000000000e+00  7.9439569748458727e-04 2.9530286450546300e-05 0.0000000000000000e+00  1.0744098314609070e-03 4.8000260803770454e-05 0.0000000000000000e+00  1.4690721979893310e-03 8.7148112561213402e-05 0.0000000000000000e+00  1.9961151146690591e-03 1.8625672458404626e-04 0.0000000000000000e+00  0.0000000000000000e+00 0.0000000000000000e+00 0.0000000000000000e+00  1.1006215564128956e-05 2.3290966190190792e-07 0.0000000000000000e+00  2.2567819339468887e-05 4.8158741493565097e-07 0.0000000000000000e+00  3.5275630169148746e-05 7.6348871803793090e-07 0.0000000000000000e+00  4.9814182381580583e-05 1.1001149731660933e-06 0.0000000000000000e+00  6.7025053787760232e-05 1.5199320209895430e-06 0.0000000000000000e+00  8.7995394559755663e-05 2.0625969970801869e-06 0.0000000000000000e+00  1.1418931531890337e-04 2.7853148380253556e-06 0.0000000000000000e+00  1.4765203544178871e-04 3.7725133982534572e-06 0.0000000000000000e+00  1.9133959467057949e-04 5.1504697881622654e-06 0.0000000000000000e+00  2.4967057535507143e-04 7.1090284521719878e-06 0.0000000000000000e+00  3.2948115245262508e-04 9.9341163666206055e-06 0.0000000000000000e+00  4.4173344270470203e-04 1.4066208948748859e-05 0.0000000000000000e+00  6.0467523386201736e-04 2.0275621050806236e-05 0.0000000000000000e+00  8.4994084523056239e-04 3.0463414179211611e-05 0.0000000000000000e+00  1.2352701835408434e-03 5.1547589328211326e-05 0.0000000000000000e+00  1.8751895096695977e-03 1.1208312798362109e-04 0.0000000000000000e+00  0.0000000000000000e+00 0.0000000000000000e+00 0.0000000000000000e+00  5.6447581970960828e-06 1.2058698013886581e-07 0.0000000000000000e+00  1.1579129168676982e-05 2.4957088361589418e-07 0.0000000000000000e+00  1.8111773393240251e-05 3.9627210135154111e-07 0.0000000000000000e+00  2.5602238883133343e-05 5.7223250314236301e-07 0.0000000000000000e+00  3.4495891283655645e-05 7.9280505276090374e-07 0.0000000000000000e+00  4.5373587506597985e-05 1.0794037452940355e-06 0.0000000000000000e+00  5.9026952464957247e-05 1.4626883937233294e-06 0.0000000000000000e+00  7.6578338256169098e-05 1.9867009267039908e-06 0.0000000000000000e+00  9.9680561106945013e-05 2.7125682231755841e-06 0.0000000000000000e+00  1.3086307012613859e-04 3.7146566143459123e-06 0.0000000000000000e+00  1.7415202104160214e-04 5.0404290234498651e-06 0.0000000000000000e+00  2.3619297346967898e-04 6.5255577287583348e-06 0.0000000000000000e+00  3.2815891090433037e-04 7.0681589534898044e-06 0.0000000000000000e+00  4.6790773237783952e-04 2.0096809251373970e-06 0.0000000000000000e+00  6.7549556810359013e-04 -2.4800506308187511e-05 0.0000000000000000e+00  9.3180299949620305e-04 -1.1106970018644557e-04 0.0000000000000000e+00  0.0000000000000000e+00 0.0000000000000000e+00 0.0000000000000000e+00  0.0000000000000000e+00 0.0000000000000000e+00 0.0000000000000000e+00  0.0000000000000000e+00 0.0000000000000000e+00 0.0000000000000000e+00  0.0000000000000000e+00 0.0000000000000000e+00 0.0000000000000000e+00  0.0000000000000000e+00 0.0000000000000000e+00 0.0000000000000000e+00  0.0000000000000000e+00 0.0000000000000000e+00 0.0000000000000000e+00  0.0000000000000000e+00 0.0000000000000000e+00 0.0000000000000000e+00  0.0000000000000000e+00 0.0000000000000000e+00 0.0000000000000000e+00  0.0000000000000000e+00 0.0000000000000000e+00 0.0000000000000000e+00  0.0000000000000000e+00 0.0000000000000000e+00 0.0000000000000000e+00  0.0000000000000000e+00 0.0000000000000000e+00 0.0000000000000000e+00  0.0000000000000000e+00 0.0000000000000000e+00 0.0000000000000000e+0