<?xml version="1.0"?>
<VTKFile type="UnstructuredGrid"  version="0.1"  >
<UnstructuredGrid>
<Piece  NumberOfPoints="289" NumberOfCells="512">
<Points>
<DataArray  type="Float64"  NumberOfComponents="3"  format="ascii">0 0 0  0.0625 0 0  0.125 0 0  0.1875 0 0  0.25 0 0  0.3125 0 0  0.375 0 0  0.4375 0 0  0.5 0 0  0.5625 0 0  0.625 0 0  0.6875 0 0  0.75 0 0  0.8125 0 0  0.875 0 0  0.9375 0 0  1 0 0  0 0.0625 0  0.06247031113228146 0.06248692527626266 0  0.1249397421322411 0.06247362062088232 0  0.1874073960286164 0.06245987643082819 0  0.249872382800848 0.06244553205409573 0  0.3123338339787025 0.06243050727197189 0  0.3747909331238819 0.06241484128910695 0  0.437242969670265 0.06239873935693138 0  0.4996894242275378 0.06238262374033662 0  0.5621300905515296 0.06236717970682246 0  0.6245652237020773 0.06235337774750191 0  0.6869956439262448 0.06234244104176388 0  0.749422504642016 0.0623357194885791 0  0.8118455757232375 0.06233446061454673 0  0.8742553088002034 0.06233966770889074 0  0.9365978303740353 0.06235325771394689 0  0.9986150941256874 0.06238818365013646 0  0 0.125 0  0.06244150997012422 0.1249740758253276 0  0.1248812666313324 0.1249476679538375 0  0.1873174844430948 0.1249203305879399 0  0.24974839048495 0.1248917102359945 0  0.3121722547677098 0.1248616069088502 0  0.3745874555445251 0.1248300522275533 0  0.4369925985153897 0.1247974064587208 0  0.4993867151902088 0.1247644706480426 0  0.5617695729827655 0.1247325988155067 0  0.624142134846366 0.124703775616865 0  0.6865071993940101 0.1246805939934682 0  0.7488702040516807 0.1246660247864476 0  0.8112400213282249 0.1246628243703178 0  0.8736293888248006 0.124672394604168 0  0.936056641437379 0.1246927727716277 0  0.9985768597900606 0.1247130892914876 0  0 0.1875 0  0.06241449994398628 0.1874617082695985 0  0.1248263784088258 0.1874226351126798 0  0.1872329645764367 0.1873820487603676 0  0.2496315929898694 0.1873393410201381 0  0.312019642267565 0.1872941135610912 0  0.3743946271773433 0.1872462934445681 0  0.4367543749218207 0.1871962850496026 0  0.499097329433819 0.1871451595977168 0  0.5614230457283333 0.1870948701392005 0  0.6237329609385801 0.187048453044014 0  0.6860315600690704 0.1870101266699647 0  0.7483280939918499 0.1869851057045857 0  0.8106390794292457 0.1869787738198622 0  0.8729921206561451 0.18699447258098 0  0.9354332738430109 0.1870281699416963 0  0.9980471551262264 0.187055753537607 0  0 0.25 0  0.06239017898492373 0.2499501228638825 0  0.1247768778604447 0.2498991087305301 0  0.1871565451707284 0.2498458727583923 0  0.2495256037222175 0.2497894651631162 0  0.311880482073423 0.2497291734222702 0  0.3742177126803585 0.2496646685036861 0  0.4365341369113005 0.2495962113427254 0  0.4988272747592868 0.2495249335155679 0  0.5610959408865485 0.2494531967268874 0  0.6233412177295322 0.2493850114401552 0  0.6855679261673732 0.2493264415930799 0  0.7477867543728671 0.2492858157969317 0  0.8100172083084874 0.2492733684021848 0  0.8722915853375923 0.2492996070088263 0  0.9346605074948616 0.249371314733837 0  0.9972013559924002 0.2494843765589326 0  0 0.3125 0  0.06236942673625497 0.3124396769878104 0  0.1247345402515067 0.3123777996443691 0  0.1870909267290286 0.3123128554931128 0  0.2494340839632792 0.3122434504219513 0  0.3117594237594353 0.3121684113567008 0  0.3740623460100234 0.3120869475229068 0  0.4363384302923554 0.3119988986843936 0  0.4985838120508279 0.3119051045459652 0  0.560795837745638 0.3118079322395446 0  0.6229741227305697 0.3117119909160292 0  0.6851221557188494 0.3116250282798149 0  0.7472495834840738 0.3115589142707979 0  0.8093752496092115 0.3115304260755279 0  0.8715309920248485 0.3115612081531929 0  0.9337663649533382 0.3116758134924608 0  0.996155361452748 0.3118963730455561 0  0 0.375 0  0.06235308108018002 0.374930788656662 0  0.1247010720999783 0.3748595537095527 0  0.1870387451534551 0.3747842874561465 0  0.2493606872614268 0.3747030483298999 0  0.3116612488490724 0.3746140415261066 0  0.3739345584941154 0.374515767646889 0  0.4361746517024884 0.3744072800590884 0  0.4983757876509722 0.3742886091189553 0  0.5605330632032337 0.3741614340662024 0  0.6226434741008847 0.3740301074845247 0  0.6847076055481796 0.3739031497833069 0  0.746732130940823 0.3737952985565671 0  0.8087332254290639 0.3737300476993236 0  0.8707408743870569 0.3737422186810028 0  0.9328040651973364 0.3738793246348241 0  0.9949974876864862 0.3741992983423795 0  0 0.4375 0  0.06234190275853844 0.4374239263410591 0  0.1246780411174734 0.4373453345055509 0  0.187002468938738 0.4372616796269617 0  0.2493089284636328 0.4371703916581952 0  0.3115907209215673 0.437068905701007 0  0.3738406257079124 0.4369547582962146 0  0.436050913327287 0.4368257978092913 0  0.4982135310391138 0.4366805868567157 0  0.5603205926133024 0.4365191216746468 0  0.6223653778817024 0.4363440629378342 0  0.6843441373311191 0.4361627647240173 0  0.7462590716017492 0.4359904803100529 0  0.8081228447764683 0.4358551284898389 0  0.8699647901555408 0.4358036971307767 0  0.9318385551161807 0.4359093226389663 0  0.9938307542258739 0.4362759122773686 0  0 0.5 0  0.06233652905245203 0.4999195821446733 0  0.1246667809390401 0.4998361707806392 0  0.1869842500324138 0.4997466886727502 0  0.2492819743664193 0.4996479065448117 0  0.311552309769346 0.4995363934922037 0  0.3737867207668921 0.4994085139707377 0  0.4359756234834545 0.4992605159535106 0  0.4981083574572361 0.4990887924402032 0  0.5601734404008414 0.4988904656594973 0  0.6221593941520529 0.4986645605372074 0  0.6840566427156652 0.4984142304745522 0  0.7458612676857012 0.4981508007073329 0  0.8075816549802597 0.4979007715527277 0  0.8692489438647246 0.4977171160976153 0  0.9309310859949204 0.4976953648008614 0  0.9927481169416618 0.4979913898375342 0  0 0.5625 0  0.06233741989030865 0.5624182273721743 0  0.12466827708328 0.5623330653123587 0  0.1869857372052487 0.5622409754977077 0  0.2492823660133684 0.5621381184449772 0  0.311549799222612 0.5620202004993815 0  0.3737783827866395 0.5618823282875707 0  0.4359567967260225 0.5617188957436676 0  0.4980717186221238 0.5615235629772641 0  0.5601076803120437 0.5612894558846007 0  0.6220474776349871 0.5610098565380062 0  0.6838738966734723 0.5606799378263086 0  0.7455742228262626 0.5603006505202472 0  0.8071499862429798 0.5598868833689632 0  0.868635123085657 0.5594835451558321 0  0.930124307378757 0.5591943082804228 0  0.9918060374350046 0.5592244359523205 0  0 0.625 0  0.06234480205607091 0.6249202528448291 0  0.1246830457396426 0.6248368688886243 0  0.1870078696785142 0.6247459995834 0  0.2493116959955752 0.6246433473758561 0  0.3115858050181333 0.6245239011831193 0  0.3738198235404596 0.6243816245394942 0  0.4360011019679813 0.6242090857505892 0  0.4981139828859214 0.6239970341736235 0  0.5601390524530816 0.6237339675978675 0  0.6220527088578135 0.6234058414804283 0  0.6838279768676051 0.6229963386116244 0  0.7454388134802393 0.622488791013962 0  0.8068726869892296 0.6218725081866728 0  0.8681599595785084 0.6211600890221036 0  0.9294305712128316 0.6204291491367867 0  0.99099900759467 0.6199046848393341 0  0 0.6875 0  0.06235861904418743 0.6874259006028663 0  0.1247110215354168 0.6873481326789391 0  0.1870506774895859 0.6872627685417113 0  0.2493702788326017 0.6871653157688561 0  0.3116612504436309 0.6870503566659278 0  0.3739131186560407 0.6869110817966034 0  0.4361126627948445 0.6867386621961039 0  0.4982427622031131 0.6865213866833438 0  0.5602808744504502 0.6862434703399741 0  0.6221972418331019 0.6858834322855 0  0.6839535126594861 0.6854120042771873 0  0.7455042344005621 0.6847898912965964 0  0.8068083474119587 0.6839671988647531 0  0.8678682787486408 0.6828919665878165 0  0.928830144891664 0.6815541455261527 0  0.9901746915221302 0.6801265376856087 0  0 0.75 0  0.06237849518427905 0.7499351978875174 0  0.1247514736536073 0.7498669622643133 0  0.1871131228141801 0.7497915814659887 0  0.2494568689689438 0.7497047269237594 0  0.3117748787975952 0.749601038790695 0  0.3740573816443216 0.7494735606959446 0  0.436291692316964 0.749312929364335 0  0.4984607440944204 0.7491061726029618 0  0.5605408401179595 0.7488348789127568 0  0.6224982333452331 0.7484723418939077 0  0.684284259102356 0.7479789919272984 0  0.7458299266524063 0.7472949204327813 0  0.8070461815942355 0.7463276892054518 0  0.8678551760613122 0.7449350302256309 0  0.9283343567762595 0.742922808872125 0  0.9890998129423368 0.740257814071245 0  0 0.8125 0  0.06240372246694196 0.8124479070761944 0  0.1248029702951693 0.8123929036826342 0  0.1871930206534899 0.8123318197750635 0  0.2495684950978939 0.8122609028087645 0  0.3119229194452995 0.8121754132141952 0  0.3742481058505039 0.8120690545366618 0  0.4365332195929676 0.8119331272226478 0  0.4987632805140873 0.8117552254175839 0  0.5609166249047914 0.8115171697911667 0  0.6229604112403185 0.8111916269558014 0  0.6848424291195608 0.8107363536982419 0  0.7464762437062081 0.8100837743851746 0  0.8077166690957179 0.8091202620987966 0  0.868335395765069 0.8076397011439409 0  0.9281032774975633 0.8052265854189172 0  0.9877774799231527 0.8009376128899744 0  0 0.875 0  0.06243327652746215 0.8749635050853805 0  0.1248634077691674 0.8749248924011206 0  0.1872870732473889 0.8748818428307585 0  0.2497004804518962 0.8748315819858653 0  0.3120990462986437 0.874770557267569 0  0.3744769452934222 0.8746939741438682 0  0.4368264145336803 0.8745950944854035 0  0.4991366007547479 0.8744641384540474 0  0.5613914960330108 0.8742865257875553 0  0.6235659371737617 0.8740400099644191 0  0.685617205440787 0.8736899282306768 0  0.7474659861341296 0.8731810709896377 0  0.8089501917728554 0.8724224220806722 0  0.8697069000417949 0.8712512937002423 0  0.928863885727187 0.8693160793182046 0  0.9842986765235088 0.8655712318078299 0  0 0.9375 0  0.06246586425087115 0.937481201828031 0  0.1249301112001765 0.9374612878800757 0  0.1873910355848152 0.9374390323414822 0  0.2498466917618579 0.9374129595116854 0  0.3122947340237568 0.937381164401341 0  0.3747321934658902 0.9373410524065522 0  0.4371551402201843 0.93
[...]
<PointData  Vectors="f_54"> 
<DataArray  type="Float64"  Name="f_54"  NumberOfComponents="3" format="ascii">0.0000000000000000e+00 0.0000000000000000e+00 0.0000000000000000e+00  0.0000000000000000e+00 0.0000000000000000e+00 0.0000000000000000e+00  0.0000000000000000e+00 0.0000000000000000e+00 0.0000000000000000e+00  0.0000000000000000e+00 0.0000000000000000e+00 0.0000000000000000e+00  0.0000000000000000e+00 0.0000000000000000e+00 0.0000000000000000e+00  0.0000000000000000e+00 0.0000000000000000e+00 0.0000000000000000e+00  0.0000000000000000e+00 0.0000000000000000e+00 0.0000000000000000e+00  0.0000000000000000e+00 0.0000000000000000e+00 0.0000000000000000e+00  0.0000000000000000e+00 0.0000000000000000e+00 0.0000000000000000e+00  0.0000000000000000e+00 0.0000000000000000e+00 0.0000000000000000e+00  0.0000000000000000e+00 0.0000000000000000e+00 0.0000000000000000e+00  0.0000000000000000e+00 0.0000000000000000e+00 0.0000000000000000e+00  0.0000000000000000e+00 0.0000000000000000e+00 0.0000000000000000e+00  0.0000000000000000e+00 0.0000000000000000e+00 0.0000000000000000e+00  0.0000000000000000e+00 0.0000000000000000e+00 0.0000000000000000e+00  0.0000000000000000e+00 0.0000000000000000e+00 0.0000000000000000e+00  0.0000000000000000e+00 0.0000000000000000e+00 0.0000000000000000e+00  0.0000000000000000e+00 0.0000000000000000e+00 0.0000000000000000e+00  3.9639950838052079e-06 5.3661401864534804e-08 0.0000000000000000e+00  8.0216323617313430e-06 1.0900649997029969e-07 0.0000000000000000e+00  1.2264291318540383e-05 1.6772041969725834e-07 0.0000000000000000e+00  1.6774940408685950e-05 2.3143256884979070e-07 0.0000000000000000e+00  2.1621734181078889e-05 3.0163959399589999e-07 0.0000000000000000e+00  2.6848738663836492e-05 3.7955727098443222e-07 0.0000000000000000e+00  3.2462581818690735e-05 4.6585796532982261e-07 0.0000000000000000e+00  3.8413616674844523e-05 5.6022922740427896e-07 0.0000000000000000e+00  4.4569855935410107e-05 6.6065394646339764e-07 0.0000000000000000e+00  5.0681236935335512e-05 7.6224612159846107e-07 0.0000000000000000e+00  5.6329911565791908e-05 8.5532586058441005e-07 0.0000000000000000e+00  6.0856877647733061e-05 9.2200065826559150e-07 0.0000000000000000e+00  6.3239427668416342e-05 9.2913736270673076e-07 0.0000000000000000e+00  6.1846378398835422e-05 8.1031828504407424e-07 0.0000000000000000e+00  5.3851963817956797e-05 4.0720533656568685e-07 0.0000000000000000e+00  3.3646369236368236e-05 -7.5299371672087988e-07 0.0000000000000000e+00  0.0000000000000000e+00 0.0000000000000000e+00 0.0000000000000000e+00  7.8289079128349793e-06 1.0556526953712132e-07 0.0000000000000000e+00  1.5848546388275883e-05 2.1451125296961402e-07 0.0000000000000000e+00  2.4245845051233642e-05 3.3023727449655510e-07 0.0000000000000000e+00  3.3192726385054282e-05 4.5607145246834877e-07 0.0000000000000000e+00  4.2834375411289203e-05 5.9514688106579195e-07 0.0000000000000000e+00  5.3271965748316711e-05 7.5014968877857485e-07 0.0000000000000000e+00  6.4537517761999801e-05 9.2286082117063940e-07 0.0000000000000000e+00  7.6558218144908287e-05 1.1133778697107348e-06 0.0000000000000000e+00  8.9107122199964421e-05 1.3188505267883650e-06 0.0000000000000000e+00  1.0173652848469787e-04 1.5314831597364232e-06 0.0000000000000000e+00  1.1368886296278427e-04 1.7354360324437730e-06 0.0000000000000000e+00  1.2377595334161001e-04 1.9021085326134079e-06 0.0000000000000000e+00  1.3020700984960198e-04 1.9834103940953286e-06 0.0000000000000000e+00  1.3031977859276876e-04 1.9050423307303827e-06 0.0000000000000000e+00  1.2011422806406005e-04 1.5779946789412397e-06 0.0000000000000000e+00  9.3394622551461263e-05 1.0377793454521212e-06 0.0000000000000000e+00  0.0000000000000000e+00 0.0000000000000000e+00 0.0000000000000000e+00  1.1496249682304103e-05 1.5399591908714050e-07 0.0000000000000000e+00  2.3286711849403571e-05 3.1308433411685316e-07 0.0000000000000000e+00  3.5661648697267916e-05 4.8242163609540763e-07 0.0000000000000000e+00  4.8893211118981225e-05 6.6715011947758137e-07 0.0000000000000000e+00  6.3220429017819894e-05 8.7228177604510404e-07 0.0000000000000000e+00  7.8826323123491540e-05 1.1024210899263497e-06 0.0000000000000000e+00  9.5803769891431332e-05 1.3612263717185211e-06 0.0000000000000000e+00  1.1410628126486064e-04 1.6504647260240907e-06 0.0000000000000000e+00  1.3347952261875059e-04 1.9684555967627423e-06 0.0000000000000000e+00  1.5336937023714974e-04 2.3076178948970812e-06 0.0000000000000000e+00  1.7280280101017418e-04 2.6507243747596797e-06 0.0000000000000000e+00  1.9023914693582438e-04 2.9652877153895384e-06 0.0000000000000000e+00  2.0339203705981070e-04 3.1951251247535347e-06 0.0000000000000000e+00  2.0903087820375976e-04 3.2469298590704725e-06 0.0000000000000000e+00  2.0280367998216673e-04 2.9635907461503661e-06 0.0000000000000000e+00  1.7925097475423305e-04 2.0384230411646313e-06 0.0000000000000000e+00  0.0000000000000000e+00 0.0000000000000000e+00 0.0000000000000000e+00  1.4861422521361579e-05 1.9722739448856272e-07 0.0000000000000000e+00  3.0128179237973147e-05 4.0124213501913217e-07 0.0000000000000000e+00  4.6203437798162202e-05 6.1897450312619168e-07 0.0000000000000000e+00  6.3474073678779260e-05 8.5748793877860689e-07 0.0000000000000000e+00  8.2295299427508189e-05 1.1239393818782158e-06 0.0000000000000000e+00  1.0296557358839522e-04 1.4253770244924904e-06 0.0000000000000000e+00  1.2568741442644157e-04 1.7682665458362910e-06 0.0000000000000000e+00  1.5050900663937813e-04 2.1575858956728674e-06 0.0000000000000000e+00  1.7724101526906560e-04 2.5952649844995525e-06 0.0000000000000000e+00  2.0534333705549701e-04 3.0776770577173677e-06 0.0000000000000000e+00  2.3377853093272530e-04 3.5918202448473445e-06 0.0000000000000000e+00  2.6083393573196698e-04 4.1097396638044714e-06 0.0000000000000000e+00  2.8392589908057901e-04 4.5804892644959154e-06 0.0000000000000000e+00  2.9942312147064663e-04 4.9180371724896256e-06 0.0000000000000000e+00  3.0257471082166423e-04 4.9810066787212317e-06 0.0000000000000000e+00  2.8772394741935503e-04 4.5373085682705952e-06 0.0000000000000000e+00  0.0000000000000000e+00 0.0000000000000000e+00 0.0000000000000000e+00  1.7812587976116043e-05 2.3355711076599414e-07 0.0000000000000000e+00  3.6148128200051032e-05 4.7550690936528842e-07 0.0000000000000000e+00  5.5531491724081287e-05 7.3449472925137689e-07 0.0000000000000000e+00  7.6479059059387058e-05 1.0195344716605001e-06 0.0000000000000000e+00  9.9486643774181820e-05 1.3401170683113271e-06 0.0000000000000000e+00  1.2500659070531714e-04 1.7061910816821997e-06 0.0000000000000000e+00  1.5340872034360703e-04 2.1279129287514358e-06 0.0000000000000000e+00  1.8491849705790111e-04 2.6150047514071022e-06 0.0000000000000000e+00  2.1952464561293434e-04 3.1754835787217033e-06 0.0000000000000000e+00  2.5684811987032423e-04 3.8134573282237673e-06 0.0000000000000000e+00  2.9596612813496991e-04 4.5256736466578321e-06 0.0000000000000000e+00  3.3519102271463436e-04 5.2966408327799582e-06 0.0000000000000000e+00  3.7181763401217190e-04 6.0924701032420983e-06 0.0000000000000000e+00  4.0187875666699403e-04 6.8539285698783625e-06 0.0000000000000000e+00  4.1999248005485351e-04 7.4887886082822944e-06 0.0000000000000000e+00  4.1945055151675488e-04 7.8613930210239353e-06 0.0000000000000000e+00  0.0000000000000000e+00 0.0000000000000000e+00 0.0000000000000000e+00  2.0231910181340002e-05 2.6137996265822718e-07 0.0000000000000000e+00  4.1106858007724970e-05 5.3255654836760163e-07 0.0000000000000000e+00  6.3276312426153886e-05 8.2370652724737619e-07 0.0000000000000000e+00  8.7397548104165153e-05 1.1456741803257312e-06 0.0000000000000000e+00  1.1412905255260112e-04 1.5102882798245045e-06 0.0000000000000000e+00  1.4411512386887089e-04 1.9306260849835136e-06 0.0000000000000000e+00  1.7795359125474420e-04 2.4211472007182277e-06 0.0000000000000000e+00  2.1613841641338814e-04 2.9975484229644052e-06 0.0000000000000000e+00  2.5896641015285798e-04 3.6760846413942650e-06 0.0000000000000000e+00  3.0639502142843850e-04 4.4719813896447596e-06 0.0000000000000000e+00  3.5783746376086110e-04 5.3965258510971977e-06 0.0000000000000000e+00  4.1188482598453153e-04 6.4527119135140986e-06 0.0000000000000000e+00  4.6595606379029104e-04 7.6303872073834879e-06 0.0000000000000000e+00  5.1589995578090874e-04 8.9041437135789263e-06 0.0000000000000000e+00  5.5560874393478527e-04 1.0239897047009028e-05 0.0000000000000000e+00  5.7674135313245467e-04 1.1613590971677362e-05 0.0000000000000000e+00  0.0000000000000000e+00 0.0000000000000000e+00 0.0000000000000000e+00  2.1999656335524352e-05 2.7930104167931342e-07 0.0000000000000000e+00  4.4757774992301153e-05 5.6946230572192657e-07 0.0000000000000000e+00  6.9049988100009538e-05 8.8184694347786973e-07 0.0000000000000000e+00  9.5678251088916424e-05 1.2287996334704908e-06 0.0000000000000000e+00  1.2547810470445419e-04 1.6242048923853519e-06 0.0000000000000000e+00  1.5931677339931134e-04 2.0841085730429549e-06 0.0000000000000000e+00  1.9807585962799826e-04 2.6273801133616752e-06 0.0000000000000000e+00  2.4260916060481414e-04 3.2763142798758885e-06 0.0000000000000000e+00  2.9366167457727324e-04 4.0569137761724128e-06 0.0000000000000000e+00  3.5173033572400656e-04 4.9983317876735219e-06 0.0000000000000000e+00  4.1684138999897462e-04 6.1306423820013561e-06 0.0000000000000000e+00  4.8821619590719355e-04 7.4800944629893609e-06 0.0000000000000000e+00  5.6380164415577891e-04 9.0623597559356492e-06 0.0000000000000000e+00  6.3965990029156016e-04 1.0879281598211961e-05 0.0000000000000000e+00  7.0924520654376598e-04 1.2936049627383171e-05 0.0000000000000000e+00  7.6261612195485358e-04 1.5311471445157503e-05 0.0000000000000000e+00  0.0000000000000000e+00 0.0000000000000000e+00 0.0000000000000000e+00  2.3001344698788842e-05 2.8627426722732475e-07 0.0000000000000000e+00  4.6861872025576508e-05 5.8398931876754011e-07 0.0000000000000000e+00  7.2468279974509571e-05 9.0517690386024486e-07 0.0000000000000000e+00  1.0075899279463624e-04 1.2631093850134865e-06 0.0000000000000000e+00  1.3274724543700138e-04 1.6730848027899233e-06 0.0000000000000000e+00  1.6953879055777135e-04 2.1534240174054080e-06 0.0000000000000000e+00  2.1233889707661393e-04 2.7267562070989008e-06 0.0000000000000000e+00  2.6243919869854942e-04 3.4216174193825321e-06 0.0000000000000000e+00  3.2116846429976371e-04 4.2742069462549333e-06 0.0000000000000000e+00  3.8978176654259829e-04 5.3296929567542543e-06 0.0000000000000000e+00  4.6924968439404315e-04 6.6415476468522965e-06 0.0000000000000000e+00  5.5989501169721192e-04 8.2660479293261761e-06 0.0000000000000000e+00  6.6081568819187939e-04 1.0248460852859832e-05 0.0000000000000000e+00  7.6904365670353906e-04 1.2602208610685559e-05 0.0000000000000000e+00  8.7843538602943531e-04 1.5304226615451916e-05 0.0000000000000000e+00  9.7833833719284877e-04 1.8385780990586998e-05 0.0000000000000000e+00  0.0000000000000000e+00 0.0000000000000000e+00 0.0000000000000000e+00  2.3137727209275296e-05 2.8174329519653210e-07 0.0000000000000000e+00  4.7208398371080297e-05 5.7491079218866914e-07 0.0000000000000000e+00  7.3183319199249003e-05 8.9153889680945732e-07 0.0000000000000000e+00  1.0211317715723893e-04 1.2450269122191831e-06 0.0000000000000000e+00  1.3516964562489410e-04 1.6510660558845988e-06 0.0000000000000000e+00  1.7368780982677989e-04 2.1289302684819636e-06 0.0000000000000000e+00  2.1920662522484092e-04 2.7033509765866087e-06 0.0000000000000000e+00  2.7350038895326617e-04 3.4072532505471371e-06 0.0000000000000000e+00  3.3858651270128923e-04 4.2855756075927768e-06 0.0000000000000000e+00  4.1668161947679291e-04 5.3999470686916124e-06 0.0000000000000000e+00  5.1005670775227405e-04 6.8324999478654857e-06 0.0000000000000000e+00  6.2071180322049145e-04 8.6833766983436554e-06 0.0000000000000000e+00  7.4975688024107162e-04 1.1049451534306576e-05 0.0000000000000000e+00  8.9637401421426813e-04 1.3964495575509685e-05 0.0000000000000000e+00  1.0563090464407372e-03 1.7294326824668929e-05 0.0000000000000000e+00  1.2200869656001073e-03 2.0676448446846751e-05 0.0000000000000000e+00  0.0000000000000000e+00 0.0000000000000000e+00 0.0000000000000000e+00  2.2336876291007728e-05 2.6575219592823951e-07 0.0000000000000000e+00  4.5640351648547185e-05 5.4226526468068973e-07 0.0000000000000000e+00  7.0925142668103178e-05 8.4084294371622595e-07 0.0000000000000000e+00  9.9311274021749680e-05 1.1740658517079491e-06 0.0000000000000000e+00  1.3208453720588880e-04 1.5567023975565696e-06 0.0000000000000000e+00  1.7076608652331893e-04 2.0070639344012286e-06 0.0000000000000000e+00  2.1719288712393879e-04 2.5491786027687368e-06 0.0000000000000000e+00  2.7360783709654056e-04 3.2164203406611714e-06 0.0000000000000000e+00  3.4275166950019505e-04 4.0575811485345114e-06 0.0000000000000000e+00  4.2793453625296623e-04 5.1465894247024315e-06 0.0000000000000000e+00  5.3303749638421659e-04 6.5962146654418469e-06 0.0000000000000000e+00  6.6234503237537685e-04 8.5712679900247551e-06 0.0000000000000000e+00  8.2003446893671691e-04 1.1280899452431220e-05 0.0000000000000000e+00  1.0090664732003308e-03 1.4890475666425934e-05 0.0000000000000000e+00  1.2292385030177740e-03 1.9231968923939298e-05 0.0000000000000000e+00  1.4745201391547721e-03 2.3192282045109884e-05 0.0000000000000000e+00  0.0000000000000000e+00 0.0000000000000000e+00 0.0000000000000000e+00  2.0567049909088518e-05 2.3899030393332759e-07 0.0000000000000000e+00  4.2082136216766831e-05 4.8747493002221047e-07 0.0000000000000000e+00  6.5548135335196585e-05 7.5533010216742234e-07 0.0000000000000000e+00  9.2092399942281196e-05 1.0533899759328580e-06 0.0000000000000000e+00  1.2304294247970714e-04 1.3941190071829345e-06 0.0000000000000000e+00  1.6002299128631332e-04 1.7926485877449133e-06 0.0000000000000000e+00  2.0507182794143140e-04 2.2685970863082391e-06 0.0000000000000000e+00  2.6080024005922738e-04 2.8495709630284773e-06 0.0000000000000000e+00  3.3058683828889745e-04 3.5782220968465192e-06 0.0000000000000000e+00  4.1881250759492130e-04 4.5265421118904635e-06 0.0000000000000000e+00  5.3110505413659389e-04 5.8237121807306527e-06 0.0000000000000000e+00  6.7450680121320403e-04 7.7049648163464612e-06 0.0000000000000000e+00  8.5735648620054281e-04 1.0576547039493407e-05 0.0000000000000000e+00  1.0884733284227028e-03 1.5023082521598634e-05 0.0000000000000000e+00  1.3750648499061453e-03 2.1458831879571332e-05 0.0000000000000000e+00  1.7195588964337681e-03 2.9009776879686585e-05 0.0000000000000000e+00  0.0000000000000000e+00 0.0000000000000000e+00 0.0000000000000000e+00  1.7848432380019313e-05 2.0274349112100447e-07 0.0000000000000000e+00  3.6565409033197659e-05 4.1325406172667183e-07 0.0000000000000000e+00  5.7076023148226846e-05 6.3946277062144142e-07 0.0000000000000000e+00  8.0436973641220342e-05 8.8976887156372286e-07 0.0000000000000000e+00  1.0792117645549063e-04 1.1732716235641815e-06 0.0000000000000000e+00  1.4112866975531969e-04 1.5000606024799548e-06 0.0000000000000000e+00  1.8213831798761238e-04 1.8817653961949416e-06 0.0000000000000000e+00  2.3372031704239793e-04 2.3330104140044383e-06 0.0000000000000000e+00  2.9963623080458973e-04 2.8756759758259542e-06 0.0000000000000000e+00  3.8505871328445686e-04 3.5512180701202614e-06 0.0000000000000000e+00  4.9713853980550688e-04 4.4546567247256642e-06 0.0000000000000000e+00  6.4570774958487380e-04 5.8224501918278654e-06 0.0000000000000000e+00  8.4397495883262511e-04 8.2378797809408929e-06 0.0000000000000000e+00  1.1087190261402648e-03 1.3015150427692805e-05 0.0000000000000000e+00  1.4587606224735808e-03 2.2359488713262351e-05 0.0000000000000000e+00  1.9104847222075742e-03 3.4459045331124674e-05 0.0000000000000000e+00  0.0000000000000000e+00 0.0000000000000000e+00 0.0000000000000000e+00  1.4261453894387953e-05 1.5874727935953877e-07 0.0000000000000000e+00  2.9248123980733996e-05 3.2328421960327145e-07 0.0000000000000000e+00  4.5736940569956790e-05 4.9935970781199616e-07 0.0000000000000000e+00  6.4627292458349493e-05 6.9269236499359452e-07 0.0000000000000000e+00  8.7022852206298214e-05 9.0870616640572932e-07 0.0000000000000000e+00  1.1434336632725357e-04 1.1518676094761615e-06 0.0000000000000000e+00  1.4848548243425152e-04 1.4243042136446255e-06 0.0000000000000000e+00  1.9206232520965064e-04 1.7232681428156175e-06 0.0000000000000000e+00  2.4876894138372950e-04 2.0372169839668746e-06 0.0000000000000000e+00  3.2394807467654675e-04 2.3421583845460733e-06 0.0000000000000000e+00  4.2546984325067907e-04 2.6084640574214870e-06 0.0000000000000000e+00  5.6508061596157908e-04 2.8611695152117611e-06 0.0000000000000000e+00  7.6036448549042545e-04 3.4528704630868646e-06 0.0000000000000000e+00  1.0371739739775702e-03 6.1056075873429951e-06 0.0000000000000000e+00  1.4310428219022036e-03 1.7727586133666527e-05 0.0000000000000000e+00  1.9790524291920441e-03 6.6773157288619296e-05 0.0000000000000000e+00  0.0000000000000000e+00 0.0000000000000000e+00 0.0000000000000000e+00  9.9493845519600343e-06 1.0897409846265987e-07 0.0000000000000000e+00  2.0421568911126931e-05 2.2172014908783119e-07 0.0000000000000000e+00  3.1979169986571714e-05 3.4185804677499785e-07 0.0000000000000000e+00  4.5280183208669278e-05 4.7267950313456502e-07 0.0000000000000000e+00  6.1143573773268624e-05 6.1658488449913382e-07 0.0000000000000000e+00  8.0641652887148061e-05 7.7378988467151867e-07 0.0000000000000000e+00  1.0523794650532466e-04 9.3945427093408855e-07 0.0000000000000000e+00  1.3700191775302948e-04 1.0973841672637008e-06 0.0000000000000000e+00  1.7895516861515554e-04 1.2062348778439713e-06 0.0000000000000000e+00  2.3564719993956861e-04 1.1693036542489412e-06 0.0000000000000000e+00  3.1414169993555145e-04 7.6920385824731858e-07 0.0000000000000000e+00  4.2575673321592884e-04 -4.6722886040529539e-07 0.0000000000000000e+00  5.8923201676480653e-04 -3.5143649172474644e-06 0.0000000000000000e+00  8.3668799930659398e-04 -1.0129529356987683e-05 0.0000000000000000e+00  1.2250898478529289e-03 -2.2385421780260379e-05 0.0000000000000000e+00  1.8579267562855955e-03 -3.7707650894641797e-05 0.0000000000000000e+00  0.0000000000000000e+00 0.0000000000000000e+00 0.0000000000000000e+00  5.1134617955803301e-06 5.5424022598798971e-08 0.0000000000000000e+00  1.0501245463947242e-05 1.1269001865262695e-07 0.0000000000000000e+00  1.6459450899781565e-05 1.7351299708312508e-07 0.0000000000000000e+00  2.3336690521474003e-05 2.3931341145625644e-07 0.0000000000000000e+00  3.1570881393650161e-05 3.1075986060757952e-07 0.0000000000000000e+00  4.1742076897629060e-05 3.8670876841288688e-07 0.0000000000000000e+00  5.4653161735432969e-05 4.6173838184311606e-07 0.0000000000000000e+00  7.1458994982898230e-05 5.2029575625469379e-07 0.0000000000000000e+00  9.3881290299807824e-05 5.2230899439733688e-07 0.0000000000000000e+00  1.2457841537940654e-04 3.6618576630021110e-07 0.0000000000000000e+00  1.6779811669507733e-04 -2.1125594171198278e-07 0.0000000000000000e+00  2.3053335865979286e-04 -1.9190760884695553e-06 0.0000000000000000e+00  3.2444459297025749e-04 -6.7511415940919602e-06 0.0000000000000000e+00  4.6814705965823330e-04 -2.0473204093878190e-05 0.0000000000000000e+00  6.8457661312447751e-04 -5.9299923274189533e-05 0.0000000000000000e+00  9.6780085349559603e-04 -1.5972824956288052e-04 0.0000000000000000e+00  0.0000000000000000e+00 0.0000000000000000e+00 0.0000000000000000e+00  0.0000000000000000e+00 0.0000000000000000e+00 0.0000000000000000e+00  0.0000000000000000e+00 0.0000000000000000e+00 0.0000000000000000e+00  0.0000000000000000e+00 0.0000000000000000e+00 0.0000000000000000e+00  0.0000000000000000e+00 0.0000000000000000e+00 0.0000000000000000e+00  0.0000000000000000e+00 0.0000000000000000e+00 0.0000000000000000e+00  0.0000000000000000e+00 0.0000000000000000e+00 0.0000000000000000e+00  0.0000000000000000e+00 0.0000000000000000e+00 0.0000000000000000e+00  0.0000000000000000e+00 0.0000000000000000e+00 0.0000000000000000e+00  0.0000000000000000e+00 0.0000000000000000e+00 0.0000000000000000e+00  0.0000000000000000e+00 0.0000000000000000e+00 0.0000000000000000e+00  0.0000000000000000e+00 0.0000000000000000e+00 0.0000000000000000e+00  