<?xml version="1.0"?>
<VTKFile type="UnstructuredGrid"  version="0.1"  >
<UnstructuredGrid>
<Piece  NumberOfPoints="289" NumberOfCells="512">
<Points>
<DataArray  type="Float64"  NumberOfComponents="3"  format="ascii">0 0 0  0.0625 0 0  0.125 0 0  0.1875 0 0  0.25 0 0  0.3125 0 0  0.375 0 0  0.4375 0 0  0.5 0 0  0.5625 0 0  0.625 0 0  0.6875 0 0  0.75 0 0  0.8125 0 0  0.875 0 0  0.9375 0 0  1 0 0  0 0.0625 0  0.06251283630626082 0.06249992507702085 0  0.1250260106268477 0.06249984921723341 0  0.1875398554761412 0.06249977163819775 0  0.2500546906710935 0.06249969187658795 0  0.312570812925292 0.06249960996987276 0  0.3750884807303335 0.06249952665576355 0  0.4376078934058137 0.06249944357905892 0  0.5001291639969245 0.06249936347736183 0  0.5626522873069133 0.0624992902828015 0  0.6251771074708112 0.06249922898532197 0  0.6877032958448454 0.06249918476430408 0  0.7502303651406407 0.06249915943849407 0  0.8127577900545476 0.06249913671457143 0  0.8752854586986953 0.06249901748509763 0  0.937815276439567 0.06249832497855697 0  1.00035722051693 0.06249482623936692 0  0 0.125 0  0.06252533637205261 0.1249998510793725 0  0.1250513544957043 0.1249997001297624 0  0.1875787267654942 0.1249995454209819 0  0.2501081034334445 0.1249993858441564 0  0.3126400932674839 0.1249992212746199 0  0.375175234418835 0.1249990529814821 0  0.4377139528117901 0.1249988840702676 0  0.5002565065983853 0.1249987199177652 0  0.5628029177403925 0.1249985685305811 0  0.6253528962892532 0.1249984407660929 0  0.6879057701392584 0.1249983505499016 0  0.7504604429235154 0.124998316317315 0  0.8130154105114932 0.1249983703785093 0  0.8755688396589076 0.1249986103375208 0  0.9381184641503745 0.1249994660354082 0  1.000659570394024 0.1250030701500521 0  0 0.1875 0  0.06253715643700915 0.1874997790995247 0  0.125075347978281 0.187499554777863 0  0.1876155998313995 0.1874993240340985 0  0.2501589122490289 0.187499084750286 0  0.3127062354248207 0.1874988362298052 0  0.3752584290203408 0.1874985798309611 0  0.4378162013202149 0.1874983196867434 0  0.5003800241232806 0.187498063457899 0  0.56295002221308 0.1874978230102458 0  0.6255258414440769 0.1874976148596467 0  0.6881065075302222 0.1874974602474307 0  0.7506902970310733 0.1874973848690532 0  0.8132746457995758 0.1874974181888049 0  0.8758560988308276 0.1874975872431504 0  0.9384302271537984 0.1874978554319488 0  1.000991383187933 0.1874976522727062 0  0 0.25 0  0.06254794313967181 0.2499997105299519 0  0.1250972849254645 0.2499994158247542 0  0.1876494185728087 0.2499991111496464 0  0.2502057196821572 0.2499987928384945 0  0.3127675206120815 0.2499984589887048 0  0.3753360636581242 0.249998110328287 0  0.4379124248345044 0.2499977512660867 0  0.5004974002964169 0.249997391072829 0  0.563091349558825 0.2499970450344373 0  0.6256939951495786 0.2499967352583582 0  0.6883041887400205 0.2499964905822099 0  0.7509196697402062 0.2499963446482899 0  0.8135368616106261 0.2499963302375789 0  0.8761507675180117 0.2499964648932943 0  0.9387550383503869 0.2499967156443907 0  1.001342333796018 0.2499969420989954 0  0 0.3125 0  0.06255733295350024 0.3124996471847095 0  0.1251164338483651 0.3124992868181722 0  0.1876790762310364 0.3124989118631101 0  0.2502470369465751 0.3124985164093234 0  0.3128220776452066 0.3124980964805192 0  0.375405899810798 0.3124976511241762 0  0.4380000611045097 0.3124971838452027 0  0.5006058390999818 0.3124967043743355 0  0.5632240284977458 0.3124962306177186 0  0.6258546621199976 0.3124957903758823 0  0.6884966581492242 0.3124954220212232 0  0.7511474208224331 0.3124951728208201 0  0.8138024628817011 0.3124950932553306 0  0.8764551744773952 0.3124952266805294 0  0.9390969232159693 0.3124956009377022 0  1.001717702423258 0.3124962612320263 0  0 0.375 0  0.06256495663323816 0.3749995913796235 0  0.1251320452441619 0.3749991723759532 0  0.1877034221748288 0.3749987330355246 0  0.2502812843138478 0.3749982643960105 0  0.3128678679337087 0.3749977593165454 0  0.3754654177794342 0.3749972137300036 0  0.4380761098805905 0.3749966284698311 0  0.5007019064560325 0.3749960117804849 0  0.5633443167035057 0.3749953824766364 0  0.6260040364599521 0.3749947733874872 0  0.688680449012817 0.3749942341174262 0  0.7513709991977082 0.3749938312657352 0  0.814070517010349 0.3749936433814151 0  0.8767706753216751 0.3749937480565453 0  0.9394599062180572 0.3749942010846219 0  1.002124202174691 0.3749950090151334 0  0 0.4375 0  0.06257045023596845 0.4374995459459303 0  0.1251433724824081 0.4374990782445059 0  0.1877212898932444 0.4374985834639405 0  0.2503068209144799 0.4374980487578624 0  0.3129027077815985 0.4374974625670586 0  0.3755118162143409 0.4374968158819313 0  0.4381370863285335 0.4374961043542439 0  0.5007814048821342 0.4374953315858919 0  0.5634473565467191 0.4374945138638163 0  0.6261367997212911 0.4374936863019803 0  0.6888502083590062 0.4374929095467549 0  0.7515857425892445 0.4374922746203638 0  0.8143380881294056 0.4374919011045791 0  0.8770972778728467 0.4374919217188423 0  0.9398479992367771 0.4374924476430802 0  1.002570213995776 0.4374935196125869 0  0 0.5 0  0.06257347386962055 0.4999995141462185 0  0.1251497090051263 0.4999990111631064 0  0.1877315514869937 0.4999984737694065 0  0.2503220132303855 0.4999978845308737 0  0.3129243432595603 0.4999972262053056 0  0.3755420780282064 0.4999964827269216 0  0.4381790503448799 0.4999956412761197 0  0.5008393212731099 0.4999946960792491 0  0.5635269763053983 0.4999936547617211 0  0.6262456956534794 0.4999925480372863 0  0.6889979738171115 0.4999914427927603 0  0.7517838457441781 0.49999045636398 0  0.814599026967086 0.4999897648969482 0  0.8774325933896794 0.4999895910266661 0  0.9402648523399249 0.499990150227089 0  1.003066939813278 0.4999915473228001 0  0 0.5625 0  0.06257373846292129 0.5624994994603248 0  0.1251504429959543 0.562498978458786 0  0.18773320194057 0.5624984158636678 0  0.2503253498892075 0.5624977893050529 0  0.3129305929732958 0.5624970748701841 0  0.3755531303197013 0.5624962473639475 0  0.4381977566981325 0.5624952816927967 0  0.5008699128507448 0.5624941563542172 0  0.5635756167649033 0.5624928606296099 0  0.6263211531972661 0.5624914077704667 0  0.6891123132681225 0.5624898566834132 0  0.7519528675661691 0.5624883427726348 0  0.8148418783653756 0.5624871112778882 0  0.8777695801830945 0.5624865286814598 0  0.940712272743183 0.5624870183408709 0  1.003628577830739 0.5624888410770832 0  0 0.625 0  0.06257103942566122 0.6249995052181287 0  0.1251451278112595 0.6249989873090813 0  0.1877254722498847 0.6249984218559178 0  0.2503156052980199 0.6249977818539484 0  0.3129195695300926 0.6249970364546987 0  0.3755421252229853 0.6249961499441435 0  0.4381889803842959 0.6249950814592845 0  0.5008670264410919 0.6249937865715003 0  0.5635845275277135 0.6249922230345938 0  0.6263511376423647 0.6249903649742239 0  0.6891774768778702 0.6249882325406568 0  0.752073745147498 0.6249859460349864 0  0.8150464736816877 0.6249838087602574 0  0.8780921504364713 0.6249823961497344 0  0.941186756492874 0.6249825599737453 0  1.004273053350698 0.6249851954444771 0  0 0.6875 0  0.06256529408896651 0.6874995340821005 0  0.125133562247827 0.6874990436586282 0  0.1877079635938854 0.6874985023209124 0  0.2502920447815734 0.6874978796804163 0  0.312889978133797 0.6874971389677864 0  0.3755068565226278 0.6874962342241777 0  0.4381490677267625 0.6874951072220147 0  0.5008247679249125 0.6874936848459814 0  0.5635444552764468 0.6874918791255354 0  0.6263215842787029 0.6874895954212067 0  0.6891730013112203 0.6874867610709422 0  0.7521186001165376 0.6874833986346703 0  0.8151787764458904 0.6874797809350139 0  0.8783667482970784 0.6874766896366232 0  0.9416708268564299 0.6874756401198074 0  1.005022030861263 0.6874783344943528 0  0 0.75 0  0.0625565775417621 0.7499995874280553 0  0.125115869575962 0.7499991508720519 0  0.1876807854922127 0.7499986640022627 0  0.2502546487333601 0.7499980954403207 0  0.3128414677251468 0.7499974052944467 0  0.3754462955096587 0.7499965404249589 0  0.4380757292273554 0.7499954278366 0  0.5007386211934656 0.749993965665396 0  0.5634470972420287 0.7499920119985733 0  0.6262179897076694 0.7499893747724505 0  0.6890747365614648 0.7499858153296602 0  0.7520495052418764 0.7499811037045604 0  0.8151842971901094 0.7499752244212338 0  0.8785269000871764 0.7499689432036333 0  0.9421104493421082 0.7499649972753311 0  1.005892523177675 0.7499693008452293 0  0 0.8125 0  0.0625451495096995 0.8124996647326134 0  0.1250925594207759 0.8124993083446669 0  0.1876446710934742 0.8124989072806604 0  0.2502043147943392 0.8124984326280171 0  0.3127749769328448 0.8124978460924064 0  0.3753611737311138 0.8124970939368921 0  0.4379690048379016 0.8124960973718961 0  0.5006070076628627 0.8124947369011608 0  0.5632875155338158 0.812492826678513 0  0.6260288620864571 0.8124900735531403 0  0.6888589930076974 0.8124860175699593 0  0.7518213162935204 0.8124799708200559 0  0.8149836252254156 0.8124710641907141 0  0.8784490561253497 0.8124588609054915 0  0.9423574657463921 0.812446140191548 0  1.006820096228818 0.8124484540188942 0  0 0.875 0  0.06253146416128623 0.874999763131421 0  0.1250645541009821 0.8749995104364 0  0.1876010361321397 0.8749992240468502 0  0.2501429812063967 0.874998881529212 0  0.3126929818364225 0.874998452227852 0  0.3752544668918893 0.8749978913833304 0  0.4378321897213969 0.8749971300003241 0  0.5004330249384321 0.8749960564702087 0  0.5630673287090912 0.8749944817374212 0  0.6257513633900129 0.8749920706563318 0  0.6885118118974067 0.8749882025433096 0  0.7513945645153883 0.8749816846390223 0  0.8144825897772364 0.8749701838741063 0  0.8779337790521827 0.8749492886958582 0  0.9420636052610992 0.8749122243071425 0  1.007527131664471 0.8748592982923068 0  0 0.9375 0  0.06251615612160429 0.9374998773305131 0  0.1250331633520861 0.937499746165316 0  0.1875519497994181 0.9374995968379963 0  0.2500736113737564 0.9374994170373215 0  0.3125995338956301 0.9374991896041526 0  0.3751315743217425 0.9374988888426249 0  0.4376723495785571 0.93749847
[...]
<PointData  Vectors="f_54"> 
<DataArray  type="Float64"  Name="f_54"  NumberOfComponents="3" format="ascii">0.0000000000000000e+00 0.0000000000000000e+00 0.0000000000000000e+00  0.0000000000000000e+00 0.0000000000000000e+00 0.0000000000000000e+00  0.0000000000000000e+00 0.0000000000000000e+00 0.0000000000000000e+00  0.0000000000000000e+00 0.0000000000000000e+00 0.0000000000000000e+00  0.0000000000000000e+00 0.0000000000000000e+00 0.0000000000000000e+00  0.0000000000000000e+00 0.0000000000000000e+00 0.0000000000000000e+00  0.0000000000000000e+00 0.0000000000000000e+00 0.0000000000000000e+00  0.0000000000000000e+00 0.0000000000000000e+00 0.0000000000000000e+00  0.0000000000000000e+00 0.0000000000000000e+00 0.0000000000000000e+00  0.0000000000000000e+00 0.0000000000000000e+00 0.0000000000000000e+00  0.0000000000000000e+00 0.0000000000000000e+00 0.0000000000000000e+00  0.0000000000000000e+00 0.0000000000000000e+00 0.0000000000000000e+00  0.0000000000000000e+00 0.0000000000000000e+00 0.0000000000000000e+00  0.0000000000000000e+00 0.0000000000000000e+00 0.0000000000000000e+00  0.0000000000000000e+00 0.0000000000000000e+00 0.0000000000000000e+00  0.0000000000000000e+00 0.0000000000000000e+00 0.0000000000000000e+00  0.0000000000000000e+00 0.0000000000000000e+00 0.0000000000000000e+00  0.0000000000000000e+00 0.0000000000000000e+00 0.0000000000000000e+00  4.3734962941246375e-06 -4.0113928412254623e-08 0.0000000000000000e+00  8.8667407548922514e-06 -8.1021548926818234e-08 0.0000000000000000e+00  1.3598190034358598e-05 -1.2346003000319180e-07 0.0000000000000000e+00  1.8683109326432568e-05 -1.6804466297169935e-07 0.0000000000000000e+00  2.4230624791643895e-05 -2.1518755118483283e-07 0.0000000000000000e+00  3.0339196440066466e-05 -2.6499300122628662e-07 0.0000000000000000e+00  3.7090146212276640e-05 -3.1712462242278623e-07 0.0000000000000000e+00  4.4539225580352224e-05 -3.7064343764421029e-07 0.0000000000000000e+00  5.2707033877926982e-05 -4.2382562908073164e-07 0.0000000000000000e+00  6.1571027494040828e-05 -4.7399399473980022e-07 0.0000000000000000e+00  7.1066648998761633e-05 -5.1749114559221270e-07 0.0000000000000000e+00  8.1118445092070342e-05 -5.5033769285634479e-07 0.0000000000000000e+00  9.1764316861963870e-05 -5.7206959727954145e-07 0.0000000000000000e+00  1.0358567079884990e-04 -6.0456723006212481e-07 0.0000000000000000e+00  1.1923198406500136e-04 -7.8255920244173399e-07 0.0000000000000000e+00  1.4919003625635884e-04 -1.7908482839459295e-06 0.0000000000000000e+00  0.0000000000000000e+00 0.0000000000000000e+00 0.0000000000000000e+00  8.6290575535992358e-06 -7.9450680700567562e-08 0.0000000000000000e+00  1.7499137150043885e-05 -1.6054700043136030e-07 0.0000000000000000e+00  2.6849228706029870e-05 -2.4482976738361016e-07 0.0000000000000000e+00  3.6913036388360943e-05 -3.3361212895728834e-07 0.0000000000000000e+00  4.7913581072930007e-05 -4.2782379560842607e-07 0.0000000000000000e+00  6.0054499375565088e-05 -5.2780642142992221e-07 0.0000000000000000e+00  7.3507086209289774e-05 -6.3304785399007539e-07 0.0000000000000000e+00  8.8392566837921344e-05 -7.4184877569374459e-07 0.0000000000000000e+00  1.0476011705806872e-04 -8.5092278185157678e-07 0.0000000000000000e+00  1.2256325769280897e-04 -9.5492916370543378e-07 0.0000000000000000e+00  1.4164113876822496e-04 -1.0458706198241438e-06 0.0000000000000000e+00  1.6171745548460736e-04 -1.1118916718327270e-06 0.0000000000000000e+00  1.8243539718227239e-04 -1.1330177288208725e-06 0.0000000000000000e+00  2.0342520148670086e-04 -1.0615013047575380e-06 0.0000000000000000e+00  2.2418576937156806e-04 -7.2502813567289551e-07 0.0000000000000000e+00  2.4223485943679961e-04 6.5959406658861566e-07 0.0000000000000000e+00  0.0000000000000000e+00 0.0000000000000000e+00 0.0000000000000000e+00  1.2645385734723466e-05 -1.1715796393669224e-07 0.0000000000000000e+00  2.5655371004200920e-05 -2.3692043163661353e-07 0.0000000000000000e+00  3.9392886379027852e-05 -3.6175563214561334e-07 0.0000000000000000e+00  5.4215710742250822e-05 -4.9383174000665671e-07 0.0000000000000000e+00  7.0469719111662110e-05 -6.3480177922908645e-07 0.0000000000000000e+00  8.8476949879935787e-05 -7.8551089013679280e-07 0.0000000000000000e+00  1.0851664547324735e-04 -9.4560354969335889e-07 0.0000000000000000e+00  1.3079765147208346e-04 -1.1130167185231517e-06 0.0000000000000000e+00  1.5542131589069388e-04 -1.2833617099303896e-06 0.0000000000000000e+00  1.8233560893381355e-04 -1.4492247616111469e-06 0.0000000000000000e+00  2.1128360544799303e-04 -1.5994531552825582e-06 0.0000000000000000e+00  2.4175143088527818e-04 -1.7185599148233785e-06 0.0000000000000000e+00  2.7291654529132593e-04 -1.7867444305222767e-06 0.0000000000000000e+00  3.0356949759984328e-04 -1.7838114119968508e-06 0.0000000000000000e+00  3.3189678206809554e-04 -1.7194851284488399e-06 0.0000000000000000e+00  3.5491040987721025e-04 -1.8336924476361460e-06 0.0000000000000000e+00  0.0000000000000000e+00 0.0000000000000000e+00 0.0000000000000000e+00  1.6298894366016592e-05 -1.5227665684679276e-07 0.0000000000000000e+00  3.3087941728902145e-05 -3.0825540951469989e-07 0.0000000000000000e+00  5.0857637516039943e-05 -4.7149656409077110e-07 0.0000000000000000e+00  7.0096845011344020e-05 -6.4524003931083373e-07 0.0000000000000000e+00  9.1286512577980935e-05 -8.3215630741359894e-07 0.0000000000000000e+00  1.1488634702419403e-04 -1.0339875832895734e-06 0.0000000000000000e+00  1.4131143798623235e-04 -1.2510413747784014e-06 0.0000000000000000e+00  1.7089557937564572e-04 -1.4815063069635471e-06 0.0000000000000000e+00  2.0383821504130637e-04 -1.7205844608004676e-06 0.0000000000000000e+00  2.4013296251857694e-04 -1.9594917234816092e-06 0.0000000000000000e+00  2.7947793124205095e-04 -2.1845000373548014e-06 0.0000000000000000e+00  3.2117147550450283e-04 -2.3764590663079418e-06 0.0000000000000000e+00  3.6400032017058981e-04 -2.5118453837103081e-06 0.0000000000000000e+00  4.0612801904566322e-04 -2.5678221054502478e-06 0.0000000000000000e+00  4.4499634389106343e-04 -2.5359634237528339e-06 0.0000000000000000e+00  4.7731342746093892e-04 -2.4392116849210580e-06 0.0000000000000000e+00  0.0000000000000000e+00 0.0000000000000000e+00 0.0000000000000000e+00  1.9464045790783673e-05 -1.8370917703720460e-07 0.0000000000000000e+00  3.9543793259991511e-05 -3.7236263376774881e-07 0.0000000000000000e+00  6.0859420515809858e-05 -5.7079227355221353e-07 0.0000000000000000e+00  8.4037442688093982e-05 -7.8356075828205038e-07 0.0000000000000000e+00  1.0970753492162576e-04 -1.0147166757669183e-06 0.0000000000000000e+00  1.3849081476366451e-04 -1.2674072037289605e-06 0.0000000000000000e+00  1.7097528011355656e-04 -1.5432874094353886e-06 0.0000000000000000e+00  2.0767306406547879e-04 -1.8416633738418579e-06 0.0000000000000000e+00  2.4895335193229033e-04 -2.1583218315375824e-06 0.0000000000000000e+00  2.9494488803464061e-04 -2.4840544302454521e-06 0.0000000000000000e+00  3.4540418977156229e-04 -2.8030171846468716e-06 0.0000000000000000e+00  3.9955182056480648e-04 -3.0913217152054542e-06 0.0000000000000000e+00  4.5589221869339565e-04 -3.3166305098401832e-06 0.0000000000000000e+00  5.1205688729196949e-04 -3.4396683620509720e-06 0.0000000000000000e+00  5.6475315968059078e-04 -3.4165494772343698e-06 0.0000000000000000e+00  6.0997092358727994e-04 -3.1895130055136621e-06 0.0000000000000000e+00  0.0000000000000000e+00 0.0000000000000000e+00 0.0000000000000000e+00  2.2015341999908301e-05 -2.1021381284460700e-07 0.0000000000000000e+00  4.4767818501071723e-05 -4.2672957348458585e-07 0.0000000000000000e+00  6.9005592673338393e-05 -6.5580877997779918e-07 0.0000000000000000e+00  9.5496329046826253e-05 -9.0358403453691821e-07 0.0000000000000000e+00  1.2503052857087846e-04 -1.1758718560906497e-06 0.0000000000000000e+00  1.5841573163844072e-04 -1.4778174227809141e-06 0.0000000000000000e+00  1.9645609585511707e-04 -1.8132818050269162e-06 0.0000000000000000e+00  2.3990968784940228e-04 -2.1838584644600033e-06 0.0000000000000000e+00  2.8941332552629518e-04 -2.5873899509192270e-06 0.0000000000000000e+00  3.4536272717760079e-04 -3.0158721665453781e-06 0.0000000000000000e+00  4.0773591192403910e-04 -3.4527298219969146e-06 0.0000000000000000e+00  4.7585403264119248e-04 -3.8696992890200559e-06 0.0000000000000000e+00  5.4809274256134783e-04 -4.2240507513697745e-06 0.0000000000000000e+00  6.2159818631115358e-04 -4.4576441545313668e-06 0.0000000000000000e+00  6.9213242050371316e-04 -4.5002999988014331e-06 0.0000000000000000e+00  7.5426255533621637e-04 -4.2824792962873614e-06 0.0000000000000000e+00  0.0000000000000000e+00 0.0000000000000000e+00 0.0000000000000000e+00  2.3831443751395966e-05 -2.3043399846069802e-07 0.0000000000000000e+00  4.8510799854408667e-05 -4.6857140956299024e-07 0.0000000000000000e+00  7.4905948476604753e-05 -7.2219333250640553e-07 0.0000000000000000e+00  1.0392273497034591e-04 -9.9919241507995823e-07 0.0000000000000000e+00  1.3651873593748003e-04 -1.3075116778564408e-06 0.0000000000000000e+00  1.7370889942514245e-04 -1.6549106564539213e-06 0.0000000000000000e+00  2.1655693179843235e-04 -2.0484432998494790e-06 0.0000000000000000e+00  2.6614276460064671e-04 -2.4934757031725914e-06 0.0000000000000000e+00  3.2349147097232025e-04 -2.9919999833871486e-06 0.0000000000000000e+00  3.8944289184044057e-04 -3.5399301720882510e-06 0.0000000000000000e+00  4.6443561673140620e-04 -4.1230491496883765e-06 0.0000000000000000e+00  5.4817857884217110e-04 -4.7114381322622331e-06 0.0000000000000000e+00  6.3919895211126776e-04 -5.2528151122013089e-06 0.0000000000000000e+00  7.3430540216723916e-04 -5.6666492831071601e-06 0.0000000000000000e+00  8.2811627469587135e-04 -5.8436319776298534e-06 0.0000000000000000e+00  9.1298267931615488e-04 -5.6585954834107764e-06 0.0000000000000000e+00  0.0000000000000000e+00 0.0000000000000000e+00 0.0000000000000000e+00  2.4801712745770111e-05 -2.4297008461343534e-07 0.0000000000000000e+00  5.0542524342187736e-05 -4.9497086963002556e-07 0.0000000000000000e+00  7.8192306018762278e-05 -7.6527145972972356e-07 0.0000000000000000e+00  1.0878174234357309e-04 -1.0635893602334016e-06 0.0000000000000000e+00  1.4343039036143757e-04 -1.4002323744828410e-06 0.0000000000000000e+00  1.8336993040784131e-04 -1.7861018202365725e-06 0.0000000000000000e+00  2.2995707106873901e-04 -2.2324328150930954e-06 0.0000000000000000e+00  2.8466584414119480e-04 -2.7500560247536377e-06 0.0000000000000000e+00  3.4904130246677859e-04 -3.3478204047998162e-06 0.0000000000000000e+00  4.2458481753779157e-04 -4.0296060868046836e-06 0.0000000000000000e+00  5.1252494928593468e-04 -4.7890993658972736e-06 0.0000000000000000e+00  6.1341015896439850e-04 -5.6013192078179822e-06 0.0000000000000000e+00  7.2645235041889533e-04 -6.4101665951466478e-06 0.0000000000000000e+00  8.4858495427331650e-04 -7.1129766696065597e-06 0.0000000000000000e+00  9.7334136086894222e-04 -7.5480252936192147e-06 0.0000000000000000e+00  1.0900079505989477e-03 -7.5010134123253570e-06 0.0000000000000000e+00  0.0000000000000000e+00 0.0000000000000000e+00 0.0000000000000000e+00  2.4835143371860942e-05 -2.4649726031552491e-07 0.0000000000000000e+00  5.0670170292645200e-05 -5.0311771192821648e-07 0.0000000000000000e+00  7.8547266560502382e-05 -7.8041176581843286e-07 0.0000000000000000e+00  1.0959439398080411e-04 -1.0897844598591171e-06 0.0000000000000000e+00  1.4507050250728358e-04 -1.4439110769510289e-06 0.0000000000000000e+00  1.8641200745216885e-04 -1.8571021618273281e-06 0.0000000000000000e+00  2.3527757001438068e-04 -2.3455221343548084e-06 0.0000000000000000e+00  2.9358331024364928e-04 -2.9270553613012884e-06 0.0000000000000000e+00  3.6351117951815128e-04 -3.6204071067748740e-06 0.0000000000000000e+00  4.4745597145972482e-04 -4.4426565796052372e-06 0.0000000000000000e+00  5.4784657578615871e-04 -5.4038574155942455e-06 0.0000000000000000e+00  6.6672988087849441e-04 -6.4963569109603811e-06 0.0000000000000000e+00  8.0494348250869123e-04 -7.6755002177219193e-06 0.0000000000000000e+00  9.6065621398489106e-04 -8.8285259012829108e-06 0.0000000000000000e+00  1.1271312152629259e-03 -9.7339726001573567e-06 0.0000000000000000e+00  1.2900383582522990e-03 -1.0037124366286974e-05 0.0000000000000000e+00  0.0000000000000000e+00 0.0000000000000000e+00 0.0000000000000000e+00  2.3871159251652835e-05 -2.3992595661957077e-07 0.0000000000000000e+00  4.8761044926726262e-05 -4.9064405568834709e-07 0.0000000000000000e+00  7.5741164502799612e-05 -7.6356326611490693e-07 0.0000000000000000e+00  1.0599213233181997e-04 -1.0713663291242660e-06 0.0000000000000000e+00  1.4086662897647061e-04 -1.4287389154608717e-06 0.0000000000000000e+00  1.8196219104970023e-04 -1.8531932959514372e-06 0.0000000000000000e+00  2.3120590810960930e-04 -2.3659726709473026e-06 0.0000000000000000e+00  2.9095005628651798e-04 -2.9929354310774998e-06 0.0000000000000000e+00  3.6406996822459361e-04 -3.7651178739200121e-06 0.0000000000000000e+00  4.5403752555537804e-04 -4.7182308171338535e-06 0.0000000000000000e+00  5.6490476625536403e-04 -5.8894064313572557e-06 0.0000000000000000e+00  7.0105279982278479e-04 -7.3076142068413978e-06 0.0000000000000000e+00  8.6641250546565728e-04 -8.9706075640789630e-06 0.0000000000000000e+00  1.0626225571482464e-03 -1.0795488617733940e-05 0.0000000000000000e+00  1.2853188465640987e-03 -1.2523455222688382e-05 0.0000000000000000e+00  1.5178475406664080e-03 -1.3559989729280433e-05 0.0000000000000000e+00  0.0000000000000000e+00 0.0000000000000000e+00 0.0000000000000000e+00  2.1891130658507943e-05 -2.2259022297235692e-07 0.0000000000000000e+00  4.4767402337015395e-05 -4.5602850255644734e-07 0.0000000000000000e+00  6.9673930432774821e-05 -7.1193170257208428e-07 0.0000000000000000e+00  9.7781719300900612e-05 -1.0035384417760234e-06 0.0000000000000000e+00  1.3046539672663691e-04 -1.3467317188814960e-06 0.0000000000000000e+00  1.6940043208486029e-04 -1.7613370714847848e-06 0.0000000000000000e+00  2.1668900831366689e-04 -2.2728161959337832e-06 0.0000000000000000e+00  2.7502521220265749e-04 -2.9144748695120916e-06 0.0000000000000000e+00  3.4790967404127704e-04 -3.7302373543113325e-06 0.0000000000000000e+00  4.3991605650146176e-04 -4.7777770796858974e-06 0.0000000000000000e+00  5.5698342354822453e-04 -6.1309992388476829e-06 0.0000000000000000e+00  7.0662632451844317e-04 -7.8786992130466758e-06 0.0000000000000000e+00  8.9774147628554873e-04 -1.0110634738197981e-05 0.0000000000000000e+00  1.1391864806998536e-03 -1.2868878959957973e-05 0.0000000000000000e+00  1.4352522196138002e-03 -1.6015056773327923e-05 0.0000000000000000e+00  1.7743885110683953e-03 -1.8935779822271696e-05 0.0000000000000000e+00  0.0000000000000000e+00 0.0000000000000000e+00 0.0000000000000000e+00  1.8928833103805749e-05 -1.9443677617830411e-07 0.0000000000000000e+00  3.8749602925669065e-05 -3.9901272267263580e-07 0.0000000000000000e+00  6.0415861042338859e-05 -6.2470765011992561e-07 0.0000000000000000e+00  8.5012089705424504e-05 -8.8430260669330248e-07 0.0000000000000000e+00  1.1383888371963521e-04 -1.1935937877747858e-06 0.0000000000000000e+00  1.4852571754028296e-04 -1.5730487133292985e-06 0.0000000000000000e+00  1.9118780279502598e-04 -2.0501759497198029e-06 0.0000000000000000e+00  2.4465149098318447e-04 -2.6630137973981310e-06 0.0000000000000000e+00  3.1278459196008683e-04 -3.4653417257727881e-06 0.0000000000000000e+00  4.0098402341140374e-04 -4.5344742134409890e-06 0.0000000000000000e+00  5.1688893815142369e-04 -5.9826982917781549e-06 0.0000000000000000e+00  6.7138064804650758e-04 -7.9730303021503184e-06 0.0000000000000000e+00  8.7981780552125676e-04 -1.0736816893360917e-05 0.0000000000000000e+00  1.1629586122134231e-03 -1.4575969978882957e-05 0.0000000000000000e+00  1.5453154792260382e-03 -1.9769189733273343e-05 0.0000000000000000e+00  2.0437393160536114e-03 -2.6027030840383073e-05 0.0000000000000000e+00  0.0000000000000000e+00 0.0000000000000000e+00 0.0000000000000000e+00  1.5077611011065633e-05 -1.5617635198264939e-07 0.0000000000000000e+00  3.0892714888643686e-05 -3.2094673550349935e-07 0.0000000000000000e+00  4.8238836190962712e-05 -5.0370285262699709e-07 0.0000000000000000e+00  6.8029707088634316e-05 -7.1556544473544111e-07 0.0000000000000000e+00  9.1380616236956574e-05 -9.7060569399440956e-07 0.0000000000000000e+00  1.1972064250467145e-04 -1.2875937210737949e-06 0.0000000000000000e+00  1.5495679425548797e-04 -1.6926491480549342e-06 0.0000000000000000e+00  1.9972462341789042e-04 -2.2234257573536188e-06 0.0000000000000000e+00  2.5778434670753789e-04 -2.9359363982401527e-06 0.0000000000000000e+00  3.3466625976529186e-04 -3.9160182257793218e-06 0.0000000000000000e+00  4.3875226837407111e-04 -5.2991859415290735e-06 0.0000000000000000e+00  5.8313481378729441e-04 -7.3062442131196551e-06 0.0000000000000000e+00  7.8887030374555237e-04 -1.0310356228938659e-05 0.0000000000000000e+00  1.0906428166343712e-03 -1.4974018498981412e-05 0.0000000000000000e+00  1.5458166586500080e-03 -2.2573138928643989e-05 0.0000000000000000e+00  2.2436314914851146e-03 -3.5960780911372060e-05 0.0000000000000000e+00  0.0000000000000000e+00 0.0000000000000000e+00 0.0000000000000000e+00  1.0491979845408937e-05 -1.0935491557862033e-07 0.0000000000000000e+00  2.1511392652288170e-05 -2.2496600530175530e-07 0.0000000000000000e+00  3.3628479873049064e-05 -3.5371609386902672e-07 0.0000000000000000e+00  4.7505947763330605e-05 -5.0385723650457185e-07 0.0000000000000000e+00  6.3963282610451789e-05 -6.8600893427430673e-07 0.0000000000000000e+00  8.4068002484374179e-05 -9.1463205954641707e-07 0.0000000000000000e+00  1.0927360192966973e-04 -1.2103442397491400e-06 0.0000000000000000e+00  1.4163852651653344e-04 -1.6037275549233328e-06 0.0000000000000000e+00  1.8418884263854247e-04 -2.1418389477696543e-06 0.0000000000000000e+00  2.4154437059664271e-04 -2.8997639729846046e-06 0.0000000000000000e+00  3.2104916866336063e-04 -4.0019163043625399e-06 0.0000000000000000e+00  4.3492221209181494e-04 -5.6628852173184053e-06 0.0000000000000000e+00  6.0462833723760650e-04 -8.2688629999356816e-06 0.0000000000000000e+00  8.7059492795492778e-04 -1.2544690716102731e-05 0.0000000000000000e+00  1.3167184065839164e-03 -1.9891679714056009e-05 0.0000000000000000e+00  2.1436342871764104e-03 -3.2937560754458370e-05 0.0000000000000000e+00  0.0000000000000000e+00 0.0000000000000000e+00 0.0000000000000000e+00  5.3819986532521011e-06 -5.6310149748542190e-08 0.0000000000000000e+00  1.1039036706862685e-05 -1.1591763539791376e-07 0.0000000000000000e+00  1.7269345424043512e-05 -1.8246475601612505e-07 0.0000000000000000e+00  2.4421448153938319e-05 -2.6035102645328268e-07 0.0000000000000000e+00  3.2929695321557434e-05 -3.5529509101682826e-07 0.0000000000000000e+00  4.3365475522086275e-05 -4.7517855042536992e-07 0.0000000000000000e+00  5.6516029777237993e-05 -6.3139667280810967e-07 0.0000000000000000e+00  7.3512101518317865e-05 -8.4112598564245703e-07 0.0000000000000000e+00  9.6044121133566344e-05 -1.1312904873273443e-06 0.0000000000000000e+00  1.2674447356660919e-04 -1.5457795590483499e-06 0.0000000000000000e+00  1.6989394808024049e-04 -2.1591407387913164e-06 0.0000000000000000e+00  2.3278879765327147e-04 -3.1038029866564385e-06 0.0000000000000000e+00  3.2851628082418037e-04 -4.6274996511956636e-06 0.0000000000000000e+00  4.8188453478379339e-04 -7.2254559774528547e-06 0.0000000000000000e+00  7.4288823985808590e-04 -1.1993269672700491e-05 0.0000000000000000e+00  1.2204685618204788e-03 -2.1844477086216981e-05 0.0000000000000000e+00  0.0000000000000000e+00 0.0000000000000000e+00 0.0000000000000000e+00  0.0000000000000000e+00 0.0000000000000000e+00 0.0000000000000000e+00  0.0000000000000000e+00 0.0000000000000000e+00 0.0000000000000000e+00  0.0000000000000000e+00 0.0000000000000000e+00 0.0000000000000000e+00  0.0000000000000000e+00 0.0000000000000000e+00 0.0000000000000000e+00  0.0000000000000000e+00 0.0000000000000000e+00 0.0000000000000000e+00  0.0000000000000000e+00 0.0000000000000000e+00 0.0000000000000000e+00  0.0000000000000000e+00 0.0000000000000000e+00 0.0000000000000000e+00  0.0000000000000000e+00 0.0000000000000000e+00 0.00000