<?xml version="1.0"?>
<VTKFile type="UnstructuredGrid"  version="0.1"  >
<UnstructuredGrid>
<Piece  NumberOfPoints="289" NumberOfCells="512">
<Points>
<DataArray  type="Float64"  NumberOfComponents="3"  format="ascii">0 0 0  0.0625 0 0  0.125 0 0  0.1875 0 0  0.25 0 0  0.3125 0 0  0.375 0 0  0.4375 0 0  0.5 0 0  0.5625 0 0  0.625 0 0  0.6875 0 0  0.75 0 0  0.8125 0 0  0.875 0 0  0.9375 0 0  1 0 0  0 0.0625 0  0.06260633503621946 0.06247686126064524 0  0.1252164565163386 0.06245323313555676 0  0.1878343134889429 0.06242864613893768 0  0.2504640881445374 0.06240269176352309 0  0.3131103268093993 0.06237506325752228 0  0.3757780925722721 0.06234560780661233 0  0.4384731663981601 0.06231439036647633 0  0.5012023591567744 0.06228176349834448 0  0.5639740848246503 0.06224842519537505 0  0.6267995704129732 0.06221542070824915 0  0.6896956863930436 0.06218398631858121 0  0.7526921228723784 0.06215498572668002 0  0.815850933673677 0.06212724997846137 0  0.8793235551616347 0.06209260931873552 0  0.9435292367647808 0.06201952737962897 0  1.009766874440385 0.06179254378330982 0  0 0.125 0  0.06270897264301105 0.1249541903737731 0  0.1254254469866484 0.1249073698616473 0  0.1881572505097487 0.1248585635328443 0  0.250912689943294 0.1248069096066719 0  0.3137008192083631 0.1247517380649268 0  0.376531746023161 0.1246926750169911 0  0.4394170174680088 0.1246297766737997 0  0.5023701701510288 0.124563688265062 0  0.5654076318683607 0.1244958055420319 0  0.6285503853661899 0.1244283829536754 0  0.6918272860029108 0.1243644755800199 0  0.7552818846102545 0.1243075273412486 0  0.8189861156217575 0.1242604272844088 0  0.8830643975648593 0.1242245606336071 0  0.9477171770021416 0.1242038964491406 0  1.013133480163692 0.1242421667774421 0  0 0.1875 0  0.0628041773719533 0.1874325173948059 0  0.125619381982044 0.1873634462093092 0  0.1884571210055558 0.1872912419960003 0  0.2513296306584655 0.1872145071153826 0  0.3142502786858746 0.187132099698171 0  0.3772340117581598 0.1870432867427999 0  0.4402978815955895 0.1869479539541858 0  0.5034617090122719 0.1868468782888661 0  0.5667489897275104 0.1867420531281869 0  0.6301882104552601 0.1866370229767317 0  0.6938147838086307 0.1865371236504161 0  0.7576735883471589 0.1864494194102387 0  0.821820709932213 0.186381941564611 0  0.8863176021921033 0.1863413485105702 0  0.9511948482053941 0.1863259750807036 0  1.016330512528114 0.1862995181581752 0  0 0.25 0  0.06288842289530955 0.2499124271221833 0  0.1257910875509584 0.2498226172230565 0  0.188722852944369 0.2497283731852885 0  0.2516995544988411 0.2496276486159971 0  0.3147385380077654 0.2495186726720435 0  0.3778592404512669 0.2494001399157033 0  0.441083836943058 0.2492714916228079 0  0.5044379696653409 0.2491333152994044 0  0.5679515520754912 0.2489878827585729 0  0.6316595569015813 0.248839825803864 0  0.6956024309958955 0.2486968981229107 0  0.7598250347372593 0.2485706680022141 0  0.8243711229585027 0.2484767864329625 0  0.8892663343629643 0.2484341155312702 0  0.9544764763922496 0.2484615565827836 0  1.019827915960763 0.2485726689331124 0  0 0.3125 0  0.06295850692285303 0.3123945725230592 0  0.1259340380426101 0.3122861891643696 0  0.1889443489095053 0.3121719128033827 0  0.2520084115474889 0.3120489195921838 0  0.3151470795362317 0.3119146160926252 0  0.3783838098975563 0.3117668403861865 0  0.4417454555928755 0.3116041902829977 0  0.5052631233754022 0.3114265339328192 0  0.5689730365138351 0.3112357699480636 0  0.6329171992991415 0.3110369085353207 0  0.697143323989468 0.310839526248112 0  0.761702762458681 0.3106595730716391 0  0.8266438596594117 0.3105213275362954 0  0.8919963548744382 0.3104589416330484 0  0.9577421794107704 0.3105165229201038 0  1.023776241069108 0.3107453815634736 0  0 0.375 0  0.06301166439718427 0.3748796733233445 0  0.1260425852855572 0.3747556219141278 0  0.1891128357729493 0.3746240983854662 0  0.2522439293948321 0.3744813804629796 0  0.3154596151603111 0.3743238475246559 0  0.3787867552783436 0.3741481511186155 0  0.4422563139577079 0.3739515377548613 0  0.505904474884284 0.3737324095720762 0  0.5697738671532646 0.3734912460402774 0  0.6339147773931049 0.3732320551391412 0  0.6983859917145461 0.3729645617332339 0  0.7632544535759724 0.3727073335917705 0  0.8285922213948023 0.3724918995631441 0  0.8944686596951901 0.3723674720182337 0  0.96093703404169 0.3724049938879655 0  1.028021419008053 0.3726979782261293 0  0 0.4375 0  0.06304567884733502 0.4373684947622382 0  0.1261121855087275 0.4372324903127467 0  0.1892212150290875 0.4370874024522204 0  0.252396095119553 0.4369285300673454 0  0.3156627003026139 0.436751051568211 0  0.3790504883803613 0.4365501082463748 0  0.4425937214915353 0.4363210401117072 0  0.5063329551074615 0.4360598819202673 0  0.5703169049415088 0.4357642939459559 0  0.6346048248684917 0.435435201727547 0  0.6992695237392299 0.4350795512844263 0  0.7644010718850617 0.4347147161019873 0  0.8301110778563892 0.4343750873135404 0  0.8965373513420972 0.4341209098411307 0  0.9638497935384058 0.4340479622179734 0  1.032263284864233 0.4342940332849701 0  0 0.5 0  0.0630589897344849 0.4998618029663729 0  0.1261396208277117 0.499718395610552 0  0.1892644128481539 0.4995644030391932 0  0.252457657048038 0.4993941447612511 0  0.3157464207550621 0.4992015115351395 0  0.3791617147051961 0.4989798982266109 0  0.4427399263832033 0.498722250411014 0  0.5065246891558629 0.4984213331834217 0  0.5705694808156558 0.4980704210996406 0  0.634941464441007 0.4976647649657495 0  0.6997274444674179 0.4972044490916252 0  0.7650433315611239 0.4966996296947304 0  0.8310491125831753 0.496179537038812 0  0.8979717916990115 0.4957064898538641 0  0.9661392622129436 0.495393931092651 0  1.036031867325668 0.4954202954557361 0  0 0.5625 0  0.06305078983899234 0.56236029652112 0  0.1261232030714469 0.5622148244159916 0  0.1892397105440637 0.5620575626655981 0  0.2524246187177249 0.5618819698998532 0  0.3157051151463032 0.5616807124227688 0  0.3791125002240179 0.56144539142491 0  0.4426837356188934 0.5611662987119607 0  0.5064635466635073 0.5608322756981398 0  0.5705075392007739 0.5604308435527112 0  0.6348872443892783 0.5599489614214199 0  0.6996988775709934 0.559375147428557 0  0.7650791326165709 0.558704422867246 0  0.8312336242955884 0.557948785665757 0  0.8984860020698349 0.5571573778259142 0  0.9673564942427657 0.5564494254741885 0  1.038678746981119 0.5560508787006984 0  0 0.625 0  0.06302110291199081 0.6248645185923817 0  0.1260629385516269 0.6247229627172647 0  0.1891470175227752 0.624568923608254 0  0.2522966600189721 0.6243952653633301 0  0.3155380196275413 0.6241936972190975 0  0.3789012850035277 0.623954268350875 0  0.4424221833202115 0.6236647655457572 0  0.5061440243276802 0.6233100145370674 0  0.5701207941984842 0.6228711440739594 0  0.634422437214763 0.6223250248319174 0  0.6991448823813552 0.6216444856653437 0  0.7644303929801434 0.6208008958607953 0  0.8305095775362976 0.6197731289349526 0  0.897785037718526 0.6185722449938865 0  0.9669826230614387 0.6172980090966153 0  1.039388911973852 0.6162271729837154 0  0 0.6875 0  0.06297082983127694 0.6873747597325586 0  0.1259606277852006 0.6872434854936377 0  0.1889890398443908 0.6870997503800395 0  0.2520774027599918 0.6869362446858028 0  0.3152496838560768 0.6867442180140717 0  0.3785335581324644 0.6865127631767693 0  0.4419616985651201 0.686227861780807 0  0.5055734242437342 0.685871089238968 0  0.5694170501250833 0.6854178590628196 0  0.6335538553135738 0.6848351048825313 0  0.6980661968719618 0.6840784673360266 0  0.7630766456515834 0.6830897785181497 0  0.8287960270112212 0.6817984114363482 0  0.8956424774623528 0.6801403226071167 0  0.9645067741433951 0.6781429456144198 0  1.037224385909097 0.6761673156661231 0  0 0.75 0  0.06290175255710548 0.749890966957485 0  0.1258198770443739 0.7497763552683487 0  0.1887713042549106 0.7496501748833293 0  0.2517744523316313 0.7495054916164455 0  0.3148500348560408 0.7493338008143032 0  0.3780219514528417 0.7491241809111644 0  0.4413182647449643 0.7488620931279196 0  0.5047722414715627 0.7485276252908719 0  0.5684234225128914 0.7480928677260074 0  0.6323188190256753 0.7475179339366956 0  0.6965151694937721 0.7467448703217318 0  0.7610868238095232 0.7456883735993859 0  0.826157499351897 0.7442224665579713 0  0.8920213491517007 0.7421676847204932 0  0.9595596642084777 0.7393259598208181 0  1.031139021436562 0.7359239811668684 0  0 0.8125 0  0.06281648920559985 0.812412677994627 0  0.1256460084668298 0.8123206715132224 0  0.1885020185453543 0.8122189181139331 0  0.2513991914998217 0.8121014754636217 0  0.3143540582976009 0.8119609175212897 0  0.3773856974323492 0.8117874902860894 0  0.4405164126660809 0.8115678676233514 0  0.5037722298854338 0.8112832508608926 0  0.5671827746715622 0.8109063863164025 0  0.6307795268052205 0.8103967687339066 0  0.6945904319398543 0.8096927067941392 0  0.758627856771018 0.8086976542665584 0  0.8228706992418898 0.8072551747671117 0  0.887278404453675 0.8050998103348674 0  0.9521046934458642 0.8017643020245546 0  1.020476115512361 0.7965991100205104 0  0 0.875 0  0.0627183991579848 0.8749389989948071 0  0.1254458683287543 0.8748746127193902 0  0.1881917746796417 0.8748031656256995 0  0.2509663552386217 0.8747203000438853 0  0.3137811835786679 0.8746204972045289 0  0.3766496641733564 0.8744963923300367 0  0.43958749776162 0.8743377401144339 0  0.5026129233540696 0.8741297928938031 0  0.5657461752379735 0.8738506876485995 0  0.629006617732354 0.8734671420949018 0  0.6924034389503656 0.8729272083652571 0  0.7559090805286145 0.8721476238225692 0  0.8193882127425814 0.8709895946893973 0  0.8824219496350622 0.8692011351520473 0  0.9439409146598911 0.8662287336248011 0  1.001812936004488 0.8604282706309708 0  0 0.9375 0  0.06261144230776973 0.9374686384516107 0  0.1252275434145308 0.9374355014122716 0  0.187853117390724 0.9373986557618207 0  0.250493442590087 0.9373557959515545 0  0.3131545175334103 0.937303978854899 0  0.3758433432256205 0.9372392394020601 0  0.4385682108962379 0.937156000964068
[...]
<PointData  Vectors="f_54"> 
<DataArray  type="Float64"  Name="f_54"  NumberOfComponents="3" format="ascii">0.0000000000000000e+00 0.0000000000000000e+00 0.0000000000000000e+00  0.0000000000000000e+00 0.0000000000000000e+00 0.0000000000000000e+00  0.0000000000000000e+00 0.0000000000000000e+00 0.0000000000000000e+00  0.0000000000000000e+00 0.0000000000000000e+00 0.0000000000000000e+00  0.0000000000000000e+00 0.0000000000000000e+00 0.0000000000000000e+00  0.0000000000000000e+00 0.0000000000000000e+00 0.0000000000000000e+00  0.0000000000000000e+00 0.0000000000000000e+00 0.0000000000000000e+00  0.0000000000000000e+00 0.0000000000000000e+00 0.0000000000000000e+00  0.0000000000000000e+00 0.0000000000000000e+00 0.0000000000000000e+00  0.0000000000000000e+00 0.0000000000000000e+00 0.0000000000000000e+00  0.0000000000000000e+00 0.0000000000000000e+00 0.0000000000000000e+00  0.0000000000000000e+00 0.0000000000000000e+00 0.0000000000000000e+00  0.0000000000000000e+00 0.0000000000000000e+00 0.0000000000000000e+00  0.0000000000000000e+00 0.0000000000000000e+00 0.0000000000000000e+00  0.0000000000000000e+00 0.0000000000000000e+00 0.0000000000000000e+00  0.0000000000000000e+00 0.0000000000000000e+00 0.0000000000000000e+00  0.0000000000000000e+00 0.0000000000000000e+00 0.0000000000000000e+00  0.0000000000000000e+00 0.0000000000000000e+00 0.0000000000000000e+00  -1.7919431054383124e-06 -1.3970099512834920e-07 0.0000000000000000e+00  -3.6136640321826840e-06 -2.7998235897978712e-07 0.0000000000000000e+00  -5.4924565218046733e-06 -4.2109404936751319e-07 0.0000000000000000e+00  -7.4472974170346107e-06 -5.6240367700283386e-07 0.0000000000000000e+00  -9.4829087994981923e-06 -7.0194342008888622e-07 0.0000000000000000e+00  -1.1581345243253495e-05 -8.3599507652620212e-07 0.0000000000000000e+00  -1.3689715933008209e-05 -9.5884154397667289e-07 0.0000000000000000e+00  -1.5701829506362512e-05 -1.0629640741927156e-06 0.0000000000000000e+00  -1.7429718624874470e-05 -1.1402462557230638e-06 0.0000000000000000e+00  -1.8556547134213224e-05 -1.1853092683996332e-06 0.0000000000000000e+00  -1.8550656751746943e-05 -1.2033987934087452e-06 0.0000000000000000e+00  -1.6487118239401102e-05 -1.2288042427931093e-06 0.0000000000000000e+00  -1.0620864135720652e-05 -1.3712802745513114e-06 0.0000000000000000e+00  2.7839021838639030e-06 -1.9497271284694709e-06 0.0000000000000000e+00  3.3116038810195894e-05 -3.9426437586251813e-06 0.0000000000000000e+00  1.0905582471817299e-04 -1.0847582987613066e-05 0.0000000000000000e+00  0.0000000000000000e+00 0.0000000000000000e+00 0.0000000000000000e+00  -3.5588930112305430e-06 -2.7918756822381625e-07 0.0000000000000000e+00  -7.1817362686710585e-06 -5.5999459684040843e-07 0.0000000000000000e+00  -1.0928082562186679e-05 -8.4338120315514377e-07 0.0000000000000000e+00  -1.4842241594229576e-05 -1.1285338725201207e-06 0.0000000000000000e+00  -1.8942249917215953e-05 -1.4118989354492900e-06 0.0000000000000000e+00  -2.3204128647342182e-05 -1.6862048880985195e-06 0.0000000000000000e+00  -2.7538931004954509e-05 -1.9396639702418298e-06 0.0000000000000000e+00  -3.1758905311161069e-05 -2.1557941839190311e-06 0.0000000000000000e+00  -3.5526805329703279e-05 -2.3147380013989518e-06 0.0000000000000000e+00  -3.8277598708233015e-05 -2.3976783954803511e-06 0.0000000000000000e+00  -3.9091454702877072e-05 -2.3970904173905819e-06 0.0000000000000000e+00  -3.6474561133038035e-05 -2.3370699241504045e-06 0.0000000000000000e+00  -2.7960371605110747e-05 -2.3083484288973873e-06 0.0000000000000000e+00  -9.3840173394735378e-06 -2.5113793645518762e-06 0.0000000000000000e+00  2.6228533614202027e-05 -3.2163076490608167e-06 0.0000000000000000e+00  8.8704456453698538e-05 -4.0304664632502853e-06 0.0000000000000000e+00  0.0000000000000000e+00 0.0000000000000000e+00 0.0000000000000000e+00  -5.2652637568737700e-06 -4.1729800775843233e-07 0.0000000000000000e+00  -1.0636261782525989e-05 -8.3814600963202115e-07 0.0000000000000000e+00  -1.6213520754138049e-05 -1.2651329069187840e-06 0.0000000000000000e+00  -2.2078169305427013e-05 -1.6982267752030299e-06 0.0000000000000000e+00  -2.8277537139056938e-05 -2.1332254867096079e-06 0.0000000000000000e+00  -3.4804287457689231e-05 -2.5599994709934168e-06 0.0000000000000000e+00  -4.1565882918625594e-05 -2.9606653105698978e-06 0.0000000000000000e+00  -4.8340143831073653e-05 -3.3081140150385991e-06 0.0000000000000000e+00  -5.4711124754450739e-05 -3.5658169287348822e-06 0.0000000000000000e+00  -5.9977338554853536e-05 -3.6906254737537427e-06 0.0000000000000000e+00  -6.3021678555081405e-05 -3.6413583140732863e-06 0.0000000000000000e+00  -6.2131724157430261e-05 -3.3969506229744026e-06 0.0000000000000000e+00  -5.4773045933208882e-05 -2.9873745409827259e-06 0.0000000000000000e+00  -3.7395750792640376e-05 -2.5349042156767558e-06 0.0000000000000000e+00  -5.6546576596556874e-06 -2.2913779438168328e-06 0.0000000000000000e+00  4.3684166019772444e-05 -2.7030774927556873e-06 0.0000000000000000e+00  0.0000000000000000e+00 0.0000000000000000e+00 0.0000000000000000e+00  -6.8680550824482293e-06 -5.5198345746644536e-07 0.0000000000000000e+00  -1.3893142891744234e-05 -1.1107346019019874e-06 0.0000000000000000e+00  -2.1227789588101017e-05 -1.6818410818398812e-06 0.0000000000000000e+00  -2.9004862608982947e-05 -2.2675960819647512e-06 0.0000000000000000e+00  -3.7322184990908916e-05 -2.8648566410508085e-06 0.0000000000000000e+00  -4.6219471991961349e-05 -3.4623317385655254e-06 0.0000000000000000e+00  -5.5643917499558102e-05 -4.0372455525476137e-06 0.0000000000000000e+00  -6.5399926346125365e-05 -4.5515629439427762e-06 0.0000000000000000e+00  -7.5077823172080575e-05 -4.9484567621172232e-06 0.0000000000000000e+00  -8.3956623350714098e-05 -5.1505990833607171e-06 0.0000000000000000e+00  -9.0879102279661190e-05 -5.0633345258929481e-06 0.0000000000000000e+00  -9.4108577774147537e-05 -4.5878757699091563e-06 0.0000000000000000e+00  -9.1208825412725797e-05 -3.6519849278938027e-06 0.0000000000000000e+00  -7.9069372485488998e-05 -2.2671971848681567e-06 0.0000000000000000e+00  -5.4367513148635593e-05 -6.2139995403023594e-07 0.0000000000000000e+00  -1.4958772116972290e-05 7.8997447955735543e-07 0.0000000000000000e+00  0.0000000000000000e+00 0.0000000000000000e+00 0.0000000000000000e+00  -8.3151747277879879e-06 -6.7993195763530301e-07 0.0000000000000000e+00  -1.6848243486515793e-05 -1.3714301117808943e-06 0.0000000000000000e+00  -2.5815048582735931e-05 -2.0848303233376857e-06 0.0000000000000000e+00  -3.5416189507119803e-05 -2.8268847876296339e-06 0.0000000000000000e+00  -4.5823512887269396e-05 -3.5981612366656295e-06 0.0000000000000000e+00  -5.7158285751786251e-05 -4.3893818863136982e-06 0.0000000000000000e+00  -6.9456915217142951e-05 -5.1763029932393834e-06 0.0000000000000000e+00  -8.2619119859894745e-05 -5.9128147267398179e-06 0.0000000000000000e+00  -9.6332881443722765e-05 -6.5222690607418215e-06 0.0000000000000000e+00  -1.0997139810697068e-04 -6.8879184046209641e-06 0.0000000000000000e+00  -1.2246194029590037e-04 -6.8452955579032329e-06 0.0000000000000000e+00  -1.3213945818572932e-04 -6.1832117614346382e-06 0.0000000000000000e+00  -1.3662636377639000e-04 -4.6668614323430526e-06 0.0000000000000000e+00  -1.3283146512730411e-04 -2.1071310812413901e-06 0.0000000000000000e+00  -1.1722297562484023e-04 1.4862856728658049e-06 0.0000000000000000e+00  -8.6499996007949212e-05 5.6195782390912465e-06 0.0000000000000000e+00  0.0000000000000000e+00 0.0000000000000000e+00 0.0000000000000000e+00  -9.5456189527245442e-06 -7.9629992019590806e-07 0.0000000000000000e+00  -1.9377376130766660e-05 -1.6106392050064975e-06 0.0000000000000000e+00  -2.9783619902433692e-05 -2.4600470362435132e-06 0.0000000000000000e+00  -4.1046916686017397e-05 -3.3583266293431687e-06 0.0000000000000000e+00  -5.3435604793541371e-05 -4.3133460177905259e-06 0.0000000000000000e+00  -6.7187134905534801e-05 -5.3227627690556408e-06 0.0000000000000000e+00  -8.2478571849388567e-05 -6.3673194651943312e-06 0.0000000000000000e+00  -9.9378035008090403e-05 -7.4005939523225171e-06 0.0000000000000000e+00  -1.1776926076486221e-04 -8.3339396796389877e-06 0.0000000000000000e+00  -1.3724083234210397e-04 -9.0156787136767278e-06 0.0000000000000000e+00  -1.5693402692438157e-04 -9.2052902145925521e-06 0.0000000000000000e+00  -1.7535239508545378e-04 -8.5481799770620234e-06 0.0000000000000000e+00  -1.9015671501712784e-04 -6.5677461614603148e-06 0.0000000000000000e+00  -1.9800042049382578e-04 -2.7126766616373307e-06 0.0000000000000000e+00  -1.9447782605125699e-04 3.4707566914350039e-06 0.0000000000000000e+00  -1.7417076239117045e-04 1.1940744724492873e-05 0.0000000000000000e+00  0.0000000000000000e+00 0.0000000000000000e+00 0.0000000000000000e+00  -1.0491831730210280e-05 -8.9464435238364942e-07 0.0000000000000000e+00  -2.1340861871767757e-05 -1.8152555466994784e-06 0.0000000000000000e+00  -3.2912398847631625e-05 -2.7873683296450736e-06 0.0000000000000000e+00  -4.5580299786792783e-05 -3.8345393972249736e-06 0.0000000000000000e+00  -5.9726919034235260e-05 -4.9761326796742587e-06 0.0000000000000000e+00  -7.5736069370186957e-05 -6.2232110803922512e-06 0.0000000000000000e+00  -9.3974115252943316e-05 -7.5712008372903341e-06 0.0000000000000000e+00  -1.1475166966679981e-04 -8.9872454722129880e-06 0.0000000000000000e+00  -1.3825475472575732e-04 -1.0389127355049412e-05 0.0000000000000000e+00  -1.6443010020258329e-04 -1.1611491722115873e-05 0.0000000000000000e+00  -1.9280606714615358e-04 -1.2354696703631782e-05 0.0000000000000000e+00  -2.2223235081173212e-04 -1.2114408827790338e-05 0.0000000000000000e+00  -2.5053464398845925e-04 -1.0101850780577960e-05 0.0000000000000000e+00  -2.7410872584979402e-04 -5.1955529501002367e-06 0.0000000000000000e+00  -2.8750033697767254e-04 3.9751163524818469e-06 0.0000000000000000e+00  -2.8293608907085921e-04 1.8638639606183447e-05 0.0000000000000000e+00  0.0000000000000000e+00 0.0000000000000000e+00 0.0000000000000000e+00  -1.1084340395947194e-05 -9.6716271353842685e-07 0.0000000000000000e+00  -2.2592927098948680e-05 -1.9690423140186496e-06 0.0000000000000000e+00  -3.4965211056434152e-05 -3.0408898596865487e-06 0.0000000000000000e+00  -4.8667469685792890e-05 -4.2182327767115839e-06 0.0000000000000000e+00  -6.4204269884065207e-05 -5.5359610521286920e-06 0.0000000000000000e+00  -8.2125796531856183e-05 -7.0256188168198336e-06 0.0000000000000000e+00  -1.0302667001102711e-04 -8.7093065583117124e-06 0.0000000000000000e+00  -1.2752815340205979e-04 -1.0587324118657884e-05 0.0000000000000000e+00  -1.5622951490016967e-04 -1.2614479009557595e-05 0.0000000000000000e+00  -1.8960494521228578e-04 -1.4656389845243156e-05 0.0000000000000000e+00  -2.2780996231247893e-04 -1.6411918432321385e-05 0.0000000000000000e+00  -2.7034925934990773e-04 -1.7282430788304271e-05 0.0000000000000000e+00  -3.1555825456198820e-04 -1.6169665149447372e-05 0.0000000000000000e+00  -3.5988557015934107e-04 -1.1211124470311028e-05 0.0000000000000000e+00  -3.9704005911844596e-04 4.5044881594372547e-07 0.0000000000000000e+00  -4.1706035778102640e-04 2.2617575426202974e-05 0.0000000000000000e+00  0.0000000000000000e+00 0.0000000000000000e+00 0.0000000000000000e+00  -1.1258488610435875e-05 -1.0053283299268335e-06 0.0000000000000000e+00  -2.2995669411315224e-05 -2.0538706554603132e-06 0.0000000000000000e+00  -3.5712956561829766e-05 -3.1906584008391268e-06 0.0000000000000000e+00  -4.9958927361847611e-05 -4.4641289495574451e-06 0.0000000000000000e+00  -6.6354586977048613e-05 -5.9273524809472537e-06 0.0000000000000000e+00  -8.5619360835183003e-05 -7.6382015389303999e-06 0.0000000000000000e+00  -1.0859536072726747e-04 -9.6570936321552019e-06 0.0000000000000000e+00  -1.3626333390650021e-04 -1.2039408240202842e-05 0.0000000000000000e+00  -1.6973560081606580e-04 -1.4816583413723184e-05 0.0000000000000000e+00  -2.1019630196243385e-04 -1.7953716004167054e-05 0.0000000000000000e+00  -2.5873382472464310e-04 -2.1259516744687531e-05 0.0000000000000000e+00  -3.1597332469672057e-04 -2.4202870658127964e-05 0.0000000000000000e+00  -3.8138192372900353e-04 -2.5557858436592707e-05 0.0000000000000000e+00  -4.5214074244431503e-04 -2.2775805597514900e-05 0.0000000000000000e+00  -5.2167081068505122e-04 -1.1056593296495465e-05 0.0000000000000000e+00  -5.7823715506453901e-04 1.7604415476073961e-05 0.0000000000000000e+00  0.0000000000000000e+00 0.0000000000000000e+00 0.0000000000000000e+00  -1.0962739482979558e-05 -1.0009457517533637e-06 0.0000000000000000e+00  -2.2436619184506198e-05 -2.0519116453857769e-06 0.0000000000000000e+00  -3.4962327841270199e-05 -3.2061375330011284e-06 0.0000000000000000e+00  -4.9147163864121249e-05 -4.5238126540757063e-06 0.0000000000000000e+00  -6.5704672795912725e-05 -6.0760257705272382e-06 0.0000000000000000e+00  -8.5501777451210418e-05 -7.9490649991558376e-06 0.0000000000000000e+00  -1.0961478579113207e-04 -1.0248599883314666e-05 0.0000000000000000e+00  -1.3939267671802524e-04 -1.3102135244645602e-05 0.0000000000000000e+00  -1.7651835680731199e-04 -1.6655320596943353e-05 0.0000000000000000e+00  -2.2304062909341701e-04 -2.1050872785594089e-05 0.0000000000000000e+00  -2.8131116340662370e-04 -2.6362316328108929e-05 0.0000000000000000e+00  -3.5368619705844489e-04 -3.2415005268731632e-05 0.0000000000000000e+00  -4.4173232936103000e-04 -3.8335563513539459e-05 0.0000000000000000e+00  -5.4457258596053498e-04 -4.1491688488689901e-05 0.0000000000000000e+00  -6.5627000278086530e-04 -3.5312520487061054e-05 0.0000000000000000e+00  -7.6324166131742726e-04 -5.9990652058111770e-06 0.0000000000000000e+00  0.0000000000000000e+00 0.0000000000000000e+00 0.0000000000000000e+00  -1.0167612649921404e-05 -9.4754244503498855e-07 0.0000000000000000e+00  -2.0848035490534225e-05 -1.9486422386047620e-06 0.0000000000000000e+00  -3.2588397925952220e-05 -3.0612895617389807e-06 0.0000000000000000e+00  -4.6017192349485613e-05 -4.3536115326304450e-06 0.0000000000000000e+00  -6.1896178951642911e-05 -5.9105372230844429e-06 0.0000000000000000e+00  -8.1187473788955138e-05 -7.8426077722555616e-06 0.0000000000000000e+00  -1.0514282993039965e-04 -1.0297940012217992e-05 0.0000000000000000e+00  -1.3542259140039898e-04 -1.3478380142557249e-05 0.0000000000000000e+00  -1.7424901775176590e-04 -1.7660210275227789e-05 0.0000000000000000e+00  -2.2458579475009358e-04 -2.3216585430385277e-05 0.0000000000000000e+00  -2.9029547613487516e-04 -3.0627324675767977e-05 0.0000000000000000e+00  -3.7611973747165407e-04 -4.0422436154767542e-05 0.0000000000000000e+00  -4.8707363914516266e-04 -5.2874220878429976e-05 0.0000000000000000e+00  -6.2635739392500321e-04 -6.6822756339181299e-05 0.0000000000000000e+00  -7.9071834730565433e-04 -7.5857034288332619e-05 0.0000000000000000e+00  -9.6566714879178122e-04 -5.9797088182192272e-05 0.0000000000000000e+00  0.0000000000000000e+00 0.0000000000000000e+00 0.0000000000000000e+00  -8.8739113529929678e-06 -8.4188127589519406e-07 0.0000000000000000e+00  -1.8225117292602191e-05 -1.7362156259697780e-06 0.0000000000000000e+00  -2.8566570291255457e-05 -2.7405656337850676e-06 0.0000000000000000e+00  -4.0498645377511711e-05 -3.9245552590003160e-06 0.0000000000000000e+00  -5.4767895957316252e-05 -5.3784289259163404e-06 0.0000000000000000e+00  -7.2347599558402441e-05 -7.2253476259830389e-06 0.0000000000000000e+00  -9.4553251064186667e-05 -9.6399632595943849e-06 0.0000000000000000e+00  -1.2321215454006717e-04 -1.2877391817797399e-05 0.0000000000000000e+00  -1.6091380848013337e-04 -1.7319409190010012e-05 0.0000000000000000e+00  -2.1137301304285103e-04 -2.3549141337177220e-05 0.0000000000000000e+00  -2.7992479548253263e-04 -3.2471767020977584e-05 0.0000000000000000e+00  -3.7408595852174469e-04 -4.5500905954002668e-05 0.0000000000000000e+00  -5.0379416129918181e-04 -6.4783913470443133e-05 0.0000000000000000e+00  -6.7985325067943870e-04 -9.3063723827228610e-05 0.0000000000000000e+00  -9.0590933811874371e-04 -1.3030192495233002e-04 0.0000000000000000e+00  -1.1670739335635256e-03 -1.5148326637644732e-04 0.0000000000000000e+00  0.0000000000000000e+00 0.0000000000000000e+00 0.0000000000000000e+00  -7.1186129542996211e-06 -6.8526541395798307e-07 0.0000000000000000e+00  -1.4639554655325538e-05 -1.4164607540350407e-06 0.0000000000000000e+00  -2.2997716033248888e-05 -2.2444920019638489e-06 0.0000000000000000e+00  -3.2709683015381024e-05 -3.2322404936561265e-06 0.0000000000000000e+00  -4.4430856560228345e-05 -4.4634457569666118e-06 0.0000000000000000e+00  -5.9037230228348421e-05 -6.0560359032766194e-06 0.0000000000000000e+00  -7.7749156520396908e-05 -8.1832879262377932e-06 0.0000000000000000e+00  -1.0232595355910420e-04 -1.1108798735574279e-05 0.0000000000000000e+00  -1.3538032948143521e-04 -1.5246380772473108e-05 0.0000000000000000e+00  -1.8089523937703445e-04 -2.1266728500210592e-05 0.0000000000000000e+00  -2.4507547719936285e-04 -3.0297010434625940e-05 0.0000000000000000e+00  -3.3771154298956589e-04 -4.4319785967384235e-05 0.0000000000000000e+00  -4.7414173534278701e-04 -6.7036996731902824e-05 0.0000000000000000e+00  -6.7704451270000129e-04 -1.0586981893172255e-04 0.0000000000000000e+00  -9.7216841579375894e-04 -1.7629354708513316e-04 0.0000000000000000e+00  -1.3189174460461245e-03 -2.9975678313222891e-04 0.0000000000000000e+00  0.0000000000000000e+00 0.0000000000000000e+00 0.0000000000000000e+00  -4.9768040646961008e-06 -4.8426838573397454e-07 0.0000000000000000e+00  -1.0244691530637506e-05 -1.0026518771256531e-06 0.0000000000000000e+00  -1.6119577996595667e-05 -1.5932094542705220e-06 0.0000000000000000e+00  -2.2980652824011930e-05 -2.3036026680004826e-06 0.0000000000000000e+00  -3.1315855207128022e-05 -3.1983911717211465e-06 0.0000000000000000e+00  -4.1788968400628622e-05 -4.3702156029154060e-06 0.0000000000000000e+00  -5.5345044261726025e-05 -5.9579131385576723e-06 0.0000000000000000e+00  -7.3384262827730785e-05 -8.1769870250536380e-06 0.0000000000000000e+00  -9.8060960199541046e-05 -1.1372423870279873e-05 0.0000000000000000e+00  -1.3281860019055967e-04 -1.6112982038207305e-05 0.0000000000000000e+00  -1.8338233761322497e-04 -2.3365893277037786e-05 0.0000000000000000e+00  -2.5965458433982648e-04 -3.4842146902498666e-05 0.0000000000000000e+00  -3.7937938386013069e-04 -5.3776249524579067e-05 0.0000000000000000e+00  -5.7512697948829095e-04 -8.7164280327623630e-05 0.0000000000000000e+00  -9.0755530941601689e-04 -1.5423317177879742e-04 0.0000000000000000e+00  -1.4990573200075214e-03 -3.2293514728711994e-04 0.0000000000000000e+00  0.0000000000000000e+00 0.0000000000000000e+00 0.0000000000000000e+00  -2.5584867097558495e-06 -2.5059866908134833e-07 0.0000000000000000e+00  -5.2694254898337188e-06 -5.1934233118535005e-07 0.0000000000000000e+00  -8.2986175212043822e-06 -8.2654104442211915e-07 0.0000000000000000e+00  -1.1846195874080466e-05 -1.1978089557839870e-06 0.0000000000000000e+00  -1.6171669160555849e-05 -1.6681323554348728e-06 0.0000000000000000e+00  -2.1631480327922503e-05 -2.2881463795546973e-06 0.0000000000000000e+00  -2.8739260885496061e-05 -3.1343271881066653e-06 0.0000000000000000e+00  -3.8267908893370402e-05 -4.3260175216616412e-06 0.0000000000000000e+00  -5.1431565694885279e-05 -6.0541275387273793e-06 0.0000000000000000e+00  -7.0227381392609840e-05 -8.6284658607215110e-06 0.0000000000000000e+00  -9.8112564202987117e-05 -1.2547997954793437e-05 0.0000000000000000e+00  -1.4141111402751010e-04 -1.8563494760120960e-05 0.0000000000000000e+00  -2.1228544331914994e-04 -2.7502978461509768e-05 0.0000000000000000e+00  -3.3436023811769577e-04 -3.8712264624395894e-05 0.0000000000000000e+00  -5.4654737450889664e-04 -4.3002973079819426e-05 0.0000000000000000e+00  -8.6284869078285642e-04 -8.8542085509332691e-06 0.0000000000000000e+00  0.0000000000000000e+00 0.0000000000000000e+00 0.0000000000000000e+00  0.0000000000000000e+00 0.0000000000000000e+00 0.0000000000000000e+00  0.0000000000000000e+00 0.0000000000000000e+00 0.0000000000000000e+00  0.0000000000000000e+00 0.0000000000000000e+00 0.0000000000000000e+00  0.0000000000000000e+00 0.0000000000000000e+00 0.0000000000000000e+00  0.0000000000000000e+00 0.0000000000000