<?xml version="1.0"?>
<VTKFile type="UnstructuredGrid"  version="0.1"  >
<UnstructuredGrid>
<Piece  NumberOfPoints="289" NumberOfCells="512">
<Points>
<DataArray  type="Float64"  NumberOfComponents="3"  format="ascii">0 0 0  0.0625 0 0  0.125 0 0  0.1875 0 0  0.25 0 0  0.3125 0 0  0.375 0 0  0.4375 0 0  0.5 0 0  0.5625 0 0  0.625 0 0  0.6875 0 0  0.75 0 0  0.8125 0 0  0.875 0 0  0.9375 0 0  1 0 0  0 0.0625 0  0.06259002521809859 0.06248542420307756 0  0.1251828293840369 0.06247054291885082 0  0.18778124304866 0.06245506658495716 0  0.2503881316981261 0.06243874732197918 0  0.313006396034387 0.06242140751120644 0  0.3756389504077932 0.06240297729373825 0  0.4382886760551603 0.06238354242503499 0  0.5009583565073966 0.06236340118922528 0  0.5636506325867968 0.06234312348330177 0  0.6263680958542406 0.06232359448381764 0  0.6891138632665955 0.06230600537408697 0  0.7518936162798008 0.06229171446937341 0  0.8147220076585521 0.0622818099004098 0  0.8776423360030629 0.06227592052204065 0  0.9407876355731081 0.06226878604228377 0  1.0045733189919 0.0622402733137845 0  0 0.125 0  0.06267733917087191 0.1249711462760653 0  0.1253602412131099 0.124941660824735 0  0.188054381971422 0.1249109407807277 0  0.2507655341961307 0.1248784602059032 0  0.3134995840782558 0.1248438246226707 0  0.3762625055187273 0.1248068447433282 0  0.4390602815040891 0.124767633932952 0  0.501898773841271 0.1247267298969344 0  0.5647835750714958 0.1246852322404924 0  0.6277199546813078 0.1246449305178031 0  0.6907131829885922 0.1246083686560563 0  0.7537698440620824 0.1245787542101007 0  0.8169011808501759 0.1245596170417294 0  0.8801290723718492 0.1245543813253613 0  0.9434882749055075 0.124567578349888 0  1.006980908842861 0.124616283299122 0  0 0.1875 0  0.06275914464786955 0.1874574958034443 0  0.1255266083937993 0.1874139967832007 0  0.1883108976323671 0.1873685438846941 0  0.2511207177228285 0.1873202769720118 0  0.313965028729124 0.1872685092484805 0  0.3768530395072858 0.187212832876096 0  0.4397941157855215 0.1871532661041382 0  0.5027975786847803 0.1870904492773454 0  0.5658723769151475 0.1870258885496531 0  0.629026628764829 0.1869622263886296 0  0.6922670285625852 0.186903476838629 0  0.7555979930496171 0.186855080185645 0  0.8190198125476039 0.1868234495916989 0  0.8825229036703037 0.18681418994075 0  0.9460694842489146 0.1868264359753509 0  1.009545474736218 0.1868336752147345 0  0 0.25 0  0.06283268359994582 0.2499448386356014 0  0.1256763627765974 0.249888273077849 0  0.1885423096668797 0.2498289326356791 0  0.2514421483332367 0.2497655469496754 0  0.3143879810657962 0.2496970295797029 0  0.3773924397483551 0.2496226054464479 0  0.4404686229360128 0.2495420009153606 0  0.5036298643640577 0.2494557167401051 0  0.5668892532243712 0.2493654016076146 0  0.630258774532936 0.2492743317322894 0  0.6937478138455898 0.2491879680948758 0  0.75736046099224 0.2491144847316402 0  0.8210903191322476 0.2490649971448579 0  0.8849100881060699 0.2490529128570327 0  0.9487514491010723 0.2490914540734177 0  1.01247259996521 0.2491892715671734 0  0 0.3125 0  0.06289528543280781 0.3124335858774487 0  0.1258040866751601 0.3123653126558923 0  0.1887403002728926 0.3122933404376553 0  0.2517183845940284 0.3122159034497624 0  0.3147535955298998 0.3121313865019295 0  0.3778621481469903 0.3120384557622184 0  0.4410612570144781 0.3119362723733677 0  0.5043689814650179 0.3118248263046747 0  0.5678037558890087 0.3117054375284529 0  0.6313834000811399 0.3115814783930748 0  0.6951232427107631 0.3114593658748308 0  0.7590326909599896 0.3113498362075428 0  0.8231090935597537 0.3112694142171507 0  0.8873272410261929 0.3112417892863682 0  0.9516233373360087 0.311298535170396 0  1.015876699539894 0.311478453354859 0  0 0.375 0  0.06294443927014627 0.3749241927501437 0  0.125904654822966 0.3748460399958877 0  0.1888969195641319 0.3747631872528995 0  0.2519383324288893 0.3746732952693411 0  0.3150472047273215 0.374574087706148 0  0.3782433944247766 0.3744634571033896 0  0.4415485470740638 0.3743396656135269 0  0.5049861738514402 0.374201694775308 0  0.5685814492517892 0.3740498244093378 0  0.63236052861825 0.3738865554520653 0  0.6963490456127797 0.3737180322679194 0  0.7605692291678086 0.3735561528484649 0  0.825034803623973 0.3734215423679537 0  0.8897427218109124 0.373347428615585 0  0.9546615064902154 0.3733840790783093 0  1.019718725776384 0.3736027180564065 0  0 0.4375 0  0.06297789426319482 0.4374171442695344 0  0.1259734365095084 0.4373314545006374 0  0.1890048917196501 0.437240045736267 0  0.2520916547552824 0.4371399559240216 0  0.3152548222520742 0.4370281399972358 0  0.3785177579799804 0.4369015150337741 0  0.4419066331089413 0.4367570950816936 0  0.5054509045825676 0.4365922795117489 0  0.5691836663528255 0.4364054001259661 0  0.6331417636410878 0.4361966977955273 0  0.6973654907206314 0.4359699977124177 0  0.761897589749382 0.4357354841237664 0  0.8267811446572382 0.4355141084910273 0  0.8920559131496357 0.435344181616064 0  0.9577529426246609 0.4352903454864087 0  1.02388850692766 0.4354541513860171 0  0 0.5 0  0.06299378741509511 0.4999129258113467 0  0.1260065582426034 0.4998225715311969 0  0.1890580265288318 0.49972555344398 0  0.2521693517589356 0.499618290878918 0  0.3153639145062005 0.49949692318572 0  0.3786681509861731 0.4993572560845623 0  0.4421124652453179 0.4991947683153797 0  0.5057322402480362 0.4990047370386719 0  0.5695689803975321 0.4987825901451919 0  0.633671648876493 0.498524682147256 0  0.6980983299339504 0.4982298441084916 0  0.7629184636288179 0.497902310773676 0  0.8282160585002717 0.4975569910819709 0  0.894094417328772 0.4972283950595011 0  0.9606829398154937 0.4969843004921761 0  1.028147023406829 0.4969430580959506 0  0 0.5625 0  0.0629907920681958 0.5624119787547107 0  0.1260012138226914 0.5623203304989624 0  0.1890517183204994 0.5622212674413841 0  0.2521644919036858 0.5621106713944337 0  0.3153644259216086 0.561983917820649 0  0.3786802232904152 0.5618356930842031 0  0.4421457034648095 0.5616598163587555 0  0.5058013983931401 0.5614490987328029 0  0.5696965960125451 0.5611953153572978 0  0.6338921273757513 0.5608894547971713 0  0.6984644833006101 0.5605225889537876 0  0.7635123960641049 0.5600880643349393 0  0.8291679150747048 0.559586387172324 0  0.8956150947263216 0.5590352245809157 0  0.9631200474831367 0.5584876702359595 0  1.032075914076383 0.5580589325916391 0  0 0.625 0  0.06296827316890302 0.6249146444423932 0  0.1259559934313196 0.6248254759959979 0  0.1889834878761832 0.6247284686637835 0  0.2520730308196134 0.6246191404940474 0  0.3152499725326498 0.6244922833917145 0  0.3785440762949607 0.6243416403638645 0  0.4419911696644923 0.624159512052643 0  0.5056352677510272 0.6239362792053031 0  0.5695314374063991 0.6236598452443952 0  0.6337499211543739 0.6233150534634468 0  0.6983826067603771 0.6228832680409919 0  0.7635541694523006 0.622342661211711 0  0.8294426934533325 0.621670658462222 0  0.8963186862204395 0.6208521585272369 0  0.9646157643363306 0.6199008685389241 0  1.035046551115705 0.6188993612342288 0  0 0.6875 0  0.06292642914767013 0.6874211031991079 0  0.1258711894872407 0.6873384258226107 0  0.1888534986464483 0.6872479375555719 0  0.2518946152366958 0.6871450603491365 0  0.3150190537725915 0.6870243222828969 0  0.3782560659239898 0.6868789132261359 0  0.4416415246158874 0.6867000907944036 0  0.5052204088788513 0.6864763670004602 0  0.5690502133085336 0.6861923821977932 0  0.6332058991580661 0.6858273475624022 0  0.6977877485847552 0.6853529332522862 0  0.7629354293652667 0.6847305982283823 0  0.8288565160841119 0.6839090282775724 0  0.8958889971516186 0.6828252931429236 0  0.9646365259198963 0.6814245273878057 0  1.036226158153412 0.6797359078005593 0  0 0.75 0  0.0628663963681077 0.7499313182570181 0  0.1257490281673806 0.7498591470837934 0  0.1886649626272702 0.7497797365459228 0  0.2516332425518273 0.7496887558529338 0  0.3146760893816601 0.7495809100449142 0  0.3778204045775134 0.749449425500388 0  0.4410997209131756 0.7492853255246347 0  0.5045568106423345 0.7490763775630407 0  0.5682472518058361 0.7488055284464373 0  0.6322444554312201 0.7484485352175833 0  0.6966472201528673 0.7479703107639826 0  0.7615927406878958 0.747319173214293 0  0.8272844214275636 0.7464176924213752 0  0.8940654091083018 0.7451489366266065 0  0.962632396152154 0.7433454489474787 0  1.034553771707595 0.7408812180835153 0  0 0.8125 0  0.06279029204433852 0.8124449960940568 0  0.1255937746549847 0.8123870658186544 0  0.1884243485699726 0.8123230441875222 0  0.2512976411250463 0.8122492281080761 0  0.314232080241241 0.8121610103363703 0  0.3772502641436465 0.8120523733325171 0  0.4403807789980242 0.8119151529411298 0  0.5036606617775704 0.8117379305565952 0  0.567138748539354 0.81150432563272 0  0.6308801605286446 0.8111903104479914 0  0.694972140913152 0.8107598944588444 0  0.7595316166668106 0.8101579641366896 0  0.8247174336690377 0.8092977436438329 0  0.8907686449715361 0.8080369502703123 0  0.9582001673483265 0.8061288157456538 0  1.028955337888835 0.8031293851293422 0  0 0.875 0  0.06270117615778199 0.8749615739613509 0  0.1254116690851877 0.8749210346224102 0  0.1881413180839083 0.8748760856870738 0  0.2509012538822541 0.8748240150453462 0  0.3137047185619822 0.874761405887355 0  0.3765681346087547 0.8746837290385253 0  0.4395125589523716 0.8745847366682665 0  0.5025657010135314 0.8744555290117163 0  0.5657647082475402 0.8742830836126342 0  0.629159826877883 0.8740478993964131 0  0.6928184955910178 0.8737201766746854 0  0.7568274281037121 0.8732535173399335 0  0.8212841701214251 0.8725739556910821 0  0.8862549703295568 0.871557390986151 0  0.9516658960071753 0.8699665931779007 0  1.017363198996205 0.8672158848937614 0  0 0.9375 0  0.06260292223992564 0.9374802418315298 0  0.1252106688581101 0.9374593752565645 0  0.1878283431531858 0.9374361924441587 0  0.2504617446265689 0.9374092586222621 0  0.3131178193227444 0.9373767522837047 0  0.3758052597254761 0.9373362366651889 0  0.4385353434182778 0.9372843146253919 0  0.50132
[...]
<PointData  Vectors="f_54"> 
<DataArray  type="Float64"  Name="f_54"  NumberOfComponents="3" format="ascii">0.0000000000000000e+00 0.0000000000000000e+00 0.0000000000000000e+00  0.0000000000000000e+00 0.0000000000000000e+00 0.0000000000000000e+00  0.0000000000000000e+00 0.0000000000000000e+00 0.0000000000000000e+00  0.0000000000000000e+00 0.0000000000000000e+00 0.0000000000000000e+00  0.0000000000000000e+00 0.0000000000000000e+00 0.0000000000000000e+00  0.0000000000000000e+00 0.0000000000000000e+00 0.0000000000000000e+00  0.0000000000000000e+00 0.0000000000000000e+00 0.0000000000000000e+00  0.0000000000000000e+00 0.0000000000000000e+00 0.0000000000000000e+00  0.0000000000000000e+00 0.0000000000000000e+00 0.0000000000000000e+00  0.0000000000000000e+00 0.0000000000000000e+00 0.0000000000000000e+00  0.0000000000000000e+00 0.0000000000000000e+00 0.0000000000000000e+00  0.0000000000000000e+00 0.0000000000000000e+00 0.0000000000000000e+00  0.0000000000000000e+00 0.0000000000000000e+00 0.0000000000000000e+00  0.0000000000000000e+00 0.0000000000000000e+00 0.0000000000000000e+00  0.0000000000000000e+00 0.0000000000000000e+00 0.0000000000000000e+00  0.0000000000000000e+00 0.0000000000000000e+00 0.0000000000000000e+00  0.0000000000000000e+00 0.0000000000000000e+00 0.0000000000000000e+00  0.0000000000000000e+00 0.0000000000000000e+00 0.0000000000000000e+00  1.9903222865752840e-06 -1.0727695989548675e-07 0.0000000000000000e+00  4.0651908203102857e-06 -2.1910369812024934e-07 0.0000000000000000e+00  6.3144543393541241e-06 -3.4030304363513042e-07 0.0000000000000000e+00  8.8370294895113428e-06 -4.7615181053722656e-07 0.0000000000000000e+00  1.1746361568140570e-05 -6.3262934668477291e-07 0.0000000000000000e+00  1.5177141645848207e-05 -8.1668259915044611e-07 0.0000000000000000e+00  1.9294234600972003e-05 -1.0365053190991417e-06 0.0000000000000000e+00  2.4305735612082490e-05 -1.3018304533753743e-06 0.0000000000000000e+00  3.0484497405234295e-05 -1.6242741896536514e-06 0.0000000000000000e+00  3.8208878951937672e-05 -2.0179667146561297e-06 0.0000000000000000e+00  4.8051345028679141e-05 -2.5014920332360777e-06 0.0000000000000000e+00  6.0996533736011642e-05 -3.1051336572222057e-06 0.0000000000000000e+00  7.9038115843679279e-05 -3.8986711902845399e-06 0.0000000000000000e+00  1.0697292944075666e-04 -5.0988213294720209e-06 0.0000000000000000e+00  1.5830309496602722e-04 -7.4958987482670574e-06 0.0000000000000000e+00  2.7684768592505150e-04 -1.4265757539672494e-05 0.0000000000000000e+00  0.0000000000000000e+00 0.0000000000000000e+00 0.0000000000000000e+00  3.9010885923677444e-06 -2.1027311132864688e-07 0.0000000000000000e+00  7.9679259443891715e-06 -4.2947825013900362e-07 0.0000000000000000e+00  1.2376567681163062e-05 -6.6708654689003908e-07 0.0000000000000000e+00  1.7320833351769783e-05 -9.3348019955098572e-07 0.0000000000000000e+00  2.3022898479152942e-05 -1.2404581190721416e-06 0.0000000000000000e+00  2.9746087598273866e-05 -1.6017823870875019e-06 0.0000000000000000e+00  3.7811269309739807e-05 -2.0337548497500451e-06 0.0000000000000000e+00  4.7619325503920556e-05 -2.5557830395254117e-06 0.0000000000000000e+00  5.9684588896674778e-05 -3.1908507955977593e-06 0.0000000000000000e+00  7.4689664586044714e-05 -3.9657569004088926e-06 0.0000000000000000e+00  9.3584419014951998e-05 -4.9109095624539195e-06 0.0000000000000000e+00  1.1777777032682523e-04 -6.0590473041633507e-06 0.0000000000000000e+00  1.4951417575531826e-04 -7.4390642445576949e-06 0.0000000000000000e+00  1.9253666659291101e-04 -9.0405362830155470e-06 0.0000000000000000e+00  2.5269129640426499e-04 -1.0606668719032608e-05 0.0000000000000000e+00  3.3464267906092453e-04 -1.0474104745841836e-05 0.0000000000000000e+00  0.0000000000000000e+00 0.0000000000000000e+00 0.0000000000000000e+00  5.6503460129825916e-06 -3.0456579672867373e-07 0.0000000000000000e+00  1.1540167477050258e-05 -6.2205940771731141e-07 0.0000000000000000e+00  1.7923553764147958e-05 -9.6618967676508821e-07 0.0000000000000000e+00  2.5080111278130354e-05 -1.3520178652870165e-06 0.0000000000000000e+00  3.3330000920641609e-05 -1.7967254563370733e-06 0.0000000000000000e+00  4.3051721454265834e-05 -2.3204682970975453e-06 0.0000000000000000e+00  5.4703934521343280e-05 -2.9473111232255089e-06 0.0000000000000000e+00  6.8853036790030508e-05 -3.7061735485600751e-06 0.0000000000000000e+00  8.6208794615734010e-05 -4.6315778842879104e-06 0.0000000000000000e+00  1.0767096971721518e-04 -5.7636777085844379e-06 0.0000000000000000e+00  1.3438902100602743e-04 -7.1463468656419406e-06 0.0000000000000000e+00  1.6782804190807959e-04 -8.8205113140755492e-06 0.0000000000000000e+00  2.0979219630719369e-04 -1.0806406174413921e-05 0.0000000000000000e+00  2.6220141749879947e-04 -1.3062904701112378e-05 0.0000000000000000e+00  3.2593728526465206e-04 -1.5421294262561038e-05 0.0000000000000000e+00  3.9700136293110115e-04 -1.7665097515886816e-05 0.0000000000000000e+00  0.0000000000000000e+00 0.0000000000000000e+00 0.0000000000000000e+00  7.1639272166134142e-06 -3.8613564009211341e-07 0.0000000000000000e+00  1.4629874793242963e-05 -7.8859902681715716e-07 0.0000000000000000e+00  2.2717783123334338e-05 -1.2246966630754280e-06 0.0000000000000000e+00  3.1779514675350036e-05 -1.7134829252782503e-06 0.0000000000000000e+00  4.2217529331259312e-05 -2.2767821358909059e-06 0.0000000000000000e+00  5.4506682043553833e-05 -2.9403743982544584e-06 0.0000000000000000e+00  6.9220195040186521e-05 -3.7353813936902200e-06 0.0000000000000000e+00  8.7060525157917420e-05 -4.6998326790304592e-06 0.0000000000000000e+00  1.0889469477099435e-04 -5.8802411814293028e-06 0.0000000000000000e+00  1.3579035230792624e-04 -7.3326397080725843e-06 0.0000000000000000e+00  1.6904005773200529e-04 -9.1216537185548111e-06 0.0000000000000000e+00  2.1013907029482546e-04 -1.1314272015851582e-05 0.0000000000000000e+00  2.6062888805515648e-04 -1.3961140964420449e-05 0.0000000000000000e+00  3.2160610346672152e-04 -1.7051445331790382e-05 0.0000000000000000e+00  3.9251683446355493e-04 -2.0416649096175110e-05 0.0000000000000000e+00  4.6882232753691754e-04 -2.3526467491727182e-05 0.0000000000000000e+00  0.0000000000000000e+00 0.0000000000000000e+00 0.0000000000000000e+00  8.3792165210754785e-06 -4.5157922256326368e-07 0.0000000000000000e+00  1.7108743693796859e-05 -9.2210524584667688e-07 0.0000000000000000e+00  2.6558901190833819e-05 -1.4316346365160960e-06 0.0000000000000000e+00  3.7136672488436328e-05 -2.0022774353404995e-06 0.0000000000000000e+00  4.9307172402586877e-05 -2.6594349089102545e-06 0.0000000000000000e+00  6.3618740409446562e-05 -3.4333020549962199e-06 0.0000000000000000e+00  8.0732779269688246e-05 -4.3607554021666788e-06 0.0000000000000000e+00  1.0145887090280325e-04 -5.4877567621074587e-06 0.0000000000000000e+00  1.2679396854369500e-04 -6.8723687657408639e-06 0.0000000000000000e+00  1.5796015153520996e-04 -8.5883037459080658e-06 0.0000000000000000e+00  1.9642574096480223e-04 -1.0728389737073556e-05 0.0000000000000000e+00  2.4387473310523794e-04 -1.3405952005071346e-05 0.0000000000000000e+00  3.0205374129467147e-04 -1.6748937639173935e-05 0.0000000000000000e+00  3.7237601919552733e-04 -2.0875062807348822e-05 0.0000000000000000e+00  4.5514180603227461e-04 -2.5824045862539591e-05 0.0000000000000000e+00  5.4840191383790846e-04 -3.1403384262579327e-05 0.0000000000000000e+00  0.0000000000000000e+00 0.0000000000000000e+00 0.0000000000000000e+00  9.2482309122370042e-06 -4.9829440400177992e-07 0.0000000000000000e+00  1.8878537609287929e-05 -1.0172330386021231e-06 0.0000000000000000e+00  2.9293724463293523e-05 -1.5786131906779436e-06 0.0000000000000000e+00  4.0936005872508652e-05 -2.2064502276502676e-06 0.0000000000000000e+00  5.4310279913227335e-05 -2.9283455131307279e-06 0.0000000000000000e+00  7.0011758936628052e-05 -3.7772097405220876e-06 0.0000000000000000e+00  8.8759637809687438e-05 -4.7935615462507669e-06 0.0000000000000000e+00  1.1143830023123049e-04 -6.0287383477199872e-06 0.0000000000000000e+00  1.3914660061654913e-04 -7.5495426398694027e-06 0.0000000000000000e+00  1.7325302343276089e-04 -9.4451194402821363e-06 0.0000000000000000e+00  2.1544834672442643e-04 -1.1837191767852752e-05 0.0000000000000000e+00  2.6777576656247288e-04 -1.4894982875059593e-05 0.0000000000000000e+00  3.3260110188146444e-04 -1.8855594502132088e-05 0.0000000000000000e+00  4.1247216167212934e-04 -2.4047665276273841e-05 0.0000000000000000e+00  5.0984310398783760e-04 -3.0907552556500224e-05 0.0000000000000000e+00  6.2678611011583523e-04 -3.9958926050181023e-05 0.0000000000000000e+00  0.0000000000000000e+00 0.0000000000000000e+00 0.0000000000000000e+00  9.7398471725621291e-06 -5.2461841329952791e-07 0.0000000000000000e+00  1.9875706797348397e-05 -1.0705819950018753e-06 0.0000000000000000e+00  3.0823581258485747e-05 -1.6603325343518624e-06 0.0000000000000000e+00  4.3039259455705034e-05 -2.3185126168010928e-06 0.0000000000000000e+00  5.7042093335105744e-05 -3.0733311336025340e-06 0.0000000000000000e+00  7.3443888468722172e-05 -3.9583156780795222e-06 0.0000000000000000e+00  9.2985490127370647e-05 -5.0147327376520833e-06 0.0000000000000000e+00  1.1658439754368185e-04 -6.2951683105740824e-06 0.0000000000000000e+00  1.4539755651615368e-04 -7.8691734008711158e-06 0.0000000000000000e+00  1.8090404523348746e-04 -9.8326764725703938e-06 0.0000000000000000e+00  2.2501205727071271e-04 -1.2324381315739862e-05 0.0000000000000000e+00  2.8019265988723417e-04 -1.5555128481006276e-05 0.0000000000000000e+00  3.4963983449107493e-04 -1.9860813353032772e-05 0.0000000000000000e+00  4.3745911952503902e-04 -2.5796036688798607e-05 0.0000000000000000e+00  5.4892045118524785e-04 -3.4292427057601497e-05 0.0000000000000000e+00  6.9093208966375733e-04 -4.6908101591647501e-05 0.0000000000000000e+00  0.0000000000000000e+00 0.0000000000000000e+00 0.0000000000000000e+00  9.8410158341727803e-06 -5.2989761599892367e-07 0.0000000000000000e+00  2.0073979844070484e-05 -1.0808518529488880e-06 0.0000000000000000e+00  3.1108648643149000e-05 -1.6748649866104860e-06 0.0000000000000000e+00  4.3392264469841691e-05 -2.3359324443414084e-06 0.0000000000000000e+00  5.7432128127741274e-05 -3.0912521496023005e-06 0.0000000000000000e+00  7.3823626143013267e-05 -3.9727555804480174e-06 0.0000000000000000e+00  9.3287115836738710e-05 -5.0192108863627402e-06 0.0000000000000000e+00  1.1671894147934063e-04 -6.2793713002922052e-06 0.0000000000000000e+00  1.4526491601897875e-04 -7.8171260433886744e-06 0.0000000000000000e+00  1.8042942975095215e-04 -9.7206811685065556e-06 0.0000000000000000e+00  2.2424055144216245e-04 -1.2120182880261354e-05 0.0000000000000000e+00  2.7950138209991175e-04 -1.5223469185904007e-05 0.0000000000000000e+00  3.5017013949185537e-04 -1.9390969023912563e-05 0.0000000000000000e+00  4.4192648875564011e-04 -2.5293849099687351e-05 0.0000000000000000e+00  5.6301248567941758e-04 -3.4243041807198061e-05 0.0000000000000000e+00  7.2555086989637742e-04 -4.8855083932483684e-05 0.0000000000000000e+00  0.0000000000000000e+00 0.0000000000000000e+00 0.0000000000000000e+00  9.5568097378357714e-06 -5.1447384848943026e-07 0.0000000000000000e+00  1.9484575401563587e-05 -1.0488170332465477e-06 0.0000000000000000e+00  3.0168624650121789e-05 -1.6236254872724550e-06 0.0000000000000000e+00  4.2026763171806248e-05 -2.2611287932513833e-06 0.0000000000000000e+00  5.5528671206459154e-05 -2.9861162123772473e-06 0.0000000000000000e+00  7.1220180950521019e-05 -3.8270266500071912e-06 0.0000000000000000e+00  8.9756043707807026e-05 -4.8173164567669350e-06 0.0000000000000000e+00  1.1194749510333142e-04 -5.9973257925782030e-06 0.0000000000000000e+00  1.3883594630800957e-04 -7.4171347229311205e-06 0.0000000000000000e+00  1.7181325524971846e-04 -9.1416176991822762e-06 0.0000000000000000e+00  2.1282499511585351e-04 -1.1260861182228562e-05 0.0000000000000000e+00  2.6471921172159827e-04 -1.3914486980980273e-05 0.0000000000000000e+00  3.3184081381159886e-04 -1.7353047689464809e-05 0.0000000000000000e+00  4.2101504627906663e-04 -2.2098039161245580e-05 0.0000000000000000e+00  5.4309914474992918e-04 -2.9355871063255260e-05 0.0000000000000000e+00  7.1535417862096304e-04 -4.2045835696825524e-05 0.0000000000000000e+00  0.0000000000000000e+00 0.0000000000000000e+00 0.0000000000000000e+00  8.9092092646299019e-06 -4.7958646524697888e-07 0.0000000000000000e+00  1.8153753146977588e-05 -9.7711352142405196e-07 0.0000000000000000e+00  2.8079062019380672e-05 -1.5110045000445254e-06 0.0000000000000000e+00  3.9055796251766797e-05 -2.1008851069722401e-06 0.0000000000000000e+00  5.1494228353741032e-05 -2.7681739442279369e-06 0.0000000000000000e+00  6.5861727288722219e-05 -3.5366443787908429e-06 0.0000000000000000e+00  8.2706084723033186e-05 -4.4328829060454577e-06 0.0000000000000000e+00  1.0269011730681706e-04 -5.4864710741500441e-06 0.0000000000000000e+00  1.2664863633980508e-04 -6.7295268832022341e-06 0.0000000000000000e+00  1.5569062172475615e-04 -8.1949172337413895e-06 0.0000000000000000e+00  1.9139330464408859e-04 -9.9121013427457299e-06 0.0000000000000000e+00  2.3618139561409934e-04 -1.1900128246990333e-05 0.0000000000000000e+00  2.9406828262135094e-04 -1.4163393791695072e-05 0.0000000000000000e+00  3.7206158017890630e-04 -1.6726031075485130e-05 0.0000000000000000e+00  4.8264935680369806e-04 -1.9860573486690827e-05 0.0000000000000000e+00  6.4774895380624630e-04 -2.5055817963116825e-05 0.0000000000000000e+00  0.0000000000000000e+00 0.0000000000000000e+00 0.0000000000000000e+00  7.9346634421414178e-06 -4.2720816670004990e-07 0.0000000000000000e+00  1.6157700407122723e-05 -8.6987716716773402e-07 0.0000000000000000e+00  2.4963104480594892e-05 -1.3437290446830398e-06 0.0000000000000000e+00  3.4661665793935648e-05 -1.8652786774276873e-06 0.0000000000000000e+00  4.5589216455895132e-05 -2.4521304660608487e-06 0.0000000000000000e+00  5.8115159622354039e-05 -3.1231061957999815e-06 0.0000000000000000e+00  7.2651967065217381e-05 -3.8979939848603220e-06 0.0000000000000000e+00  8.9667762347606179e-05 -4.7964480499068390e-06 0.0000000000000000e+00  1.0970795326051325e-04 -5.8349611803593667e-06 0.0000000000000000e+00  1.3344183960150373e-04 -7.0193882848479125e-06 0.0000000000000000e+00  1.6177526051455737e-04 -8.3270462833497775e-06 0.0000000000000000e+00  1.9613207489861919e-04 -9.6642506418191579e-06 0.0000000000000000e+00  2.3915231237086286e-04 -1.0766870284485600e-05 0.0000000000000000e+00  2.9636368881293872e-04 -1.0977780129343138e-05 0.0000000000000000e+00  3.7986716178043718e-04 -8.8215963214359688e-06 0.0000000000000000e+00  5.1508764317710674e-04 -1.6093082382147407e-06 0.0000000000000000e+00  0.0000000000000000e+00 0.0000000000000000e+00 0.0000000000000000e+00  6.6806812905244751e-06 -3.5984853210714226e-07 0.0000000000000000e+00  1.3595237075524012e-05 -7.3231249868800927e-07 0.0000000000000000e+00  2.0979248633617045e-05 -1.1301041666721603e-06 0.0000000000000000e+00  2.9076976475857527e-05 -1.5664095468469877e-06 0.0000000000000000e+00  3.8143604386844754e-05 -2.0549983775539169e-06 0.0000000000000000e+00  4.8444654953096144e-05 -2.6101382582691802e-06 0.0000000000000000e+00  6.0250508422981851e-05 -3.2461070117480714e-06 0.0000000000000000e+00  7.3822958052691920e-05 -3.9758569540121980e-06 0.0000000000000000e+00  8.9389914333255627e-05 -4.8077919598143884e-06 0.0000000000000000e+00  1.0710579610913483e-04 -5.7380646821742344e-06 0.0000000000000000e+00  1.2700648914322160e-04 -6.7314848568534653e-06 0.0000000000000000e+00  1.4901502630176443e-04 -7.6714583986692393e-06 0.0000000000000000e+00  1.7322090368011744e-04 -8.2201511923102797e-06 0.0000000000000000e+00  2.0119450448975515e-04 -7.4024378390642612e-06 0.0000000000000000e+00  2.4063598394753275e-04 -2.3074165702163846e-06 0.0000000000000000e+00  3.1730953384176050e-04 1.5527992152754168e-05 0.0000000000000000e+00  0.0000000000000000e+00 0.0000000000000000e+00 0.0000000000000000e+00  5.2019452924494870e-06 -2.8036392209592610e-07 0.0000000000000000e+00  1.0579394044040137e-05 -5.7028379876020027e-07 0.0000000000000000e+00  1.6306894888197876e-05 -8.7931736643924025e-07 0.0000000000000000e+00  2.2561416286665024e-05 -1.2172864628568441e-06 0.0000000000000000e+00  2.9520184249079225e-05 -1.5943111340868409e-06 0.0000000000000000e+00  3.7353453001752700e-05 -2.0207204060313835e-06 0.0000000000000000e+00  4.6207809510789422e-05 -2.5067614934578927e-06 0.0000000000000000e+00  5.6171982101858030e-05 -3.0619903039755077e-06 0.0000000000000000e+00  6.7210337794948888e-05 -3.6941472677849323e-06 0.0000000000000000e+00  7.9037003550754182e-05 -4.4070886071795570e-06 0.0000000000000000e+00  9.0883658323382099e-05 -5.1964216343586298e-06 0.0000000000000000e+00  1.0109289925554890e-04 -6.0374165078869314e-06 0.0000000000000000e+00  1.0650618570944511e-04 -6.8406541483748423e-06 0.0000000000000000e+00  1.0203276992617291e-04 -7.2538024945473822e-06 0.0000000000000000e+00  8.3174733722624406e-05 -5.6078170142994075e-06 0.0000000000000000e+00  6.8297127954261133e-05 8.6759627271347803e-06 0.0000000000000000e+00  0.0000000000000000e+00 0.0000000000000000e+00 0.0000000000000000e+00  3.5566036795898905e-06 -1.9180300544531170e-07 0.0000000000000000e+00  7.2293522815050669e-06 -3.8999614087169622e-07 0.0000000000000000e+00  1.1132408509909390e-05 -6.0093648238190125e-07 0.0000000000000000e+00  1.5378975327034157e-05 -8.3111989106711785e-07 0.0000000000000000e+00  2.0077399651566396e-05 -1.0872013663415934e-06 0.0000000000000000e+00  2.5321919362730683e-05 -1.3759857334630918e-06 0.0000000000000000e+00  3.1173054452227193e-05 -1.7044423877380366e-06 0.0000000000000000e+00  3.7617839492636596e-05 -2.0799582521734810e-06 0.0000000000000000e+00  4.4489898024799726e-05 -2.5115016125934960e-06 0.0000000000000000e+00  5.1307014693603500e-05 -3.0136528563054195e-06 0.0000000000000000e+00  5.6933420770928820e-05 -3.6190639411035521e-06 0.0000000000000000e+00  5.8858749907389249e-05 -4.4152880927777180e-06 0.0000000000000000e+00  5.1632968072383801e-05 -5.6532019179585910e-06 0.0000000000000000e+00  2.3556535610663029e-05 -8.0761065263487487e-06 0.0000000000000000e+00  -4.9222595058208211e-05 -1.4003870686500682e-05 0.0000000000000000e+00  -2.0645351239511359e-04 -3.1819472418015360e-05 0.0000000000000000e+00  0.0000000000000000e+00 0.0000000000000000e+00 0.0000000000000000e+00  1.8033913336438212e-06 -9.7298667747459936e-08 0.0000000000000000e+00  3.6642675438668056e-06 -1.9778620581501010e-07 0.0000000000000000e+00  5.6386430030126233e-06 -3.0462422193649418e-07 0.0000000000000000e+00  7.7811103438321894e-06 -4.2103320849733756e-07 0.0000000000000000e+00  1.0142004385462292e-05 -5.5030721168127088e-07 0.0000000000000000e+00  1.2761173230614744e-05 -6.9584072652067010e-07 0.0000000000000000e+00  1.5655090612487699e-05 -8.6124503371278341e-07 0.0000000000000000e+00  1.8790698383300793e-05 -1.0507974997120279e-06 0.0000000000000000e+00  2.2031864999202629e-05 -1.2709300808771596e-06 0.0000000000000000e+00  2.5026516830283981e-05 -1.5347495635061498e-06 0.0000000000000000e+00  2.6957063674329260e-05 -1.8751987930561810e-06 0.0000000000000000e+00  2.5951667294252104e-05 -2.3828066930502713e-06 0.0000000000000000e+00  1.7584319184679379e-05 -3.3136688773477657e-06 0.0000000000000000e+00  -9.2226401446093593e-06 -5.3928947145172116e-06 0.0000000000000000e+00  -8.3232914207840796e-05 -1.0561359625939323e-05 0.0000000000000000e+00  -2.6836791461654687e-04 -2.2591464677218556e-05 0.0000000000000000e+00  0.0000000000000000e+00 0.0000000000000000e+00 0.0000000000000000e+00  0.0000000000000000e+00 0.0000000000000000e+00 0.0000000000000000e+00  0.0000000000000000e+00 0.0000000000000000e+00 0.0000000000000000e+00  0.0000000000000000e+00 0.0000000000000000e+00 0.0000000000000000e+00  0.0000000000000000e+00 0.0000000000000000e+00 0.0000000000000000e+00  0.0000000000000000e+00 0.0000000000000000e+00 0.0000000000000000e+00  0.0000000000000000e+00 0.0000000000000000e+00 0.0000000000000000e+00  0.0000000000000000e+00 0.0000000000000000e+00 0.0000000000000000e+00  0.0000000000000000e+00 0.0000000000000000e+00 0.0