<?xml version="1.0"?>
<VTKFile type="UnstructuredGrid"  version="0.1"  >
<UnstructuredGrid>
<Piece  NumberOfPoints="289" NumberOfCells="512">
<Points>
<DataArray  type="Float64"  NumberOfComponents="3"  format="ascii">0 0 0  0.0625 0 0  0.125 0 0  0.1875 0 0  0.25 0 0  0.3125 0 0  0.375 0 0  0.4375 0 0  0.5 0 0  0.5625 0 0  0.625 0 0  0.6875 0 0  0.75 0 0  0.8125 0 0  0.875 0 0  0.9375 0 0  1 0 0  0 0.0625 0  0.06257550854682771 0.06249842330880937 0  0.1251533628706108 0.06249679614560037 0  0.1877359306814764 0.0624950677003782 0  0.2503256135304176 0.06249318688124281 0  0.312924850729528 0.06249110285438986 0  0.3755361092951624 0.06248876651371731 0  0.4381618610603025 0.06248613333655089 0  0.5008045607992407 0.06248316809375296 0  0.5634666722463889 0.06247985155304406 0  0.6261508752173459 0.06247618773698511 0  0.6888608220955569 0.06247220420365685 0  0.7516034956050436 0.06246791452676864 0  0.8143963702443139 0.06246311921842498 0  0.8772899158916475 0.0624565304541718 0  0.940443172600666 0.06244197133294929 0  1.004402255047957 0.06239108516288191 0  0 0.125 0  0.06264875868968754 0.1249968946583502 0  0.1253022010492358 0.1249936883064234 0  0.1879650609402283 0.1249902789750433 0  0.2506421526709354 0.1249865635119916 0  0.3133383835226005 0.1249824382643156 0  0.3760587336478015 0.1249778015492832 0  0.4388081975734128 0.1249725589148674 0  0.501591694742116 0.1249666324952927 0  0.5644139900543549 0.1249599760364681 0  0.6272797434234285 0.1249525973428263 0  0.6901939779858346 0.1249445906997052 0  0.7531635981476715 0.1249361893467051 0  0.8162011237752943 0.1249278986464991 0  0.8793317852247006 0.1249210598931719 0  0.942598691022841 0.1249207422353891 0  1.006012886164115 0.1249509422108167 0  0 0.1875 0  0.06271741104479832 0.1874954646287995 0  0.1254418098874989 0.187490778192786 0  0.1881802746928149 0.1874857875495098 0  0.2509400355499157 0.1874803363570989 0  0.3137285069989637 0.1874742651249229 0  0.3765532647738136 0.1874674136650684 0  0.4394219450467116 0.1874596274605169 0  0.5023420463354147 0.1874507701638438 0  0.5653206233308401 0.1874407454012372 0  0.6283638815046918 0.1874295323426231 0  0.6914767024636462 0.1874172412534965 0  0.7546620857079137 0.1874041974069074 0  0.8179201051060444 0.1873910590612363 0  0.8812443289948941 0.1873789152906409 0  0.9446083737419295 0.1873688057013542 0  1.007923872782724 0.1873566570049331 0  0 0.25 0  0.06277916102507516 0.2499941832836567 0  0.1255675419922724 0.2499881669921311 0  0.1883745110003133 0.2499817477254389 0  0.2512096976126815 0.2499747154263002 0  0.3140830670583856 0.2499668517184252 0  0.3770049167354901 0.2499579307870661 0  0.4399857537141038 0.2499477246261494 0  0.5030359979460008 0.2499360155465512 0  0.5661654359882863 0.2499226204706896 0  0.6293823171761886 0.2499074338631339 0  0.6926919157470164 0.2498904990166479 0  0.7560942158627093 0.2498721194476318 0  0.8195799680151171 0.2498530178049496 0  0.8831234891277746 0.2498345238778194 0  0.9466693213016673 0.2498187236109549 0  1.010110720532107 0.2498088058571888 0  0 0.3125 0  0.06283177729652321 0.3124930991022267 0  0.1256748782114074 0.3124859533714667 0  0.1885408544140914 0.3124783117786948 0  0.2514416779024206 0.3124699117003607 0  0.3143898897154347 0.3124604743313283 0  0.3773986589773744 0.3124497021105911 0  0.4404816949299853 0.3124372798970061 0  0.5036529260538635 0.3124228829355186 0  0.5669258171998842 0.3124061968581454 0  0.6303121302410798 0.3123869585493948 0  0.6938198339158789 0.3123650321969675 0  0.75744971960313 0.3123405424723018 0  0.8211900881898405 0.3123140960466707 0  0.8850087708060982 0.3122871343780453 0  0.9488423139839971 0.3122624936432559 0  1.012585074063199 0.3122453910036304 0  0 0.375 0  0.06287315842225651 0.3749922572691069 0  0.1257595362766104 0.3749842300567116 0  0.18867268439126 0.3749756248659367 0  0.2516267868852836 0.3749661305348116 0  0.3146369251733173 0.3749554096580496 0  0.3777192588831739 0.3749430907284259 0  0.4408910600972105 0.374928762085094 0  0.5041704981758013 0.3749119699580765 0  0.5675760125000735 0.374892225216069 0  0.6311250229332829 0.374869027802272 0  0.6948316092753177 0.3748419258531211 0  0.7587026550321305 0.3748106404510903 0  0.8227318632876838 0.3747753094106387 0  0.8868912077765559 0.3747369342265001 0  0.9511202152375601 0.3746981370232513 0  1.015315637075848 0.3746642566322362 0  0 0.4375 0  0.06290141229449055 0.4374916973221877 0  0.1258176282681778 0.4374830789546053 0  0.1887639060571928 0.4374738172749725 0  0.2517563978622294 0.4374635605469925 0  0.31481257074401 0.4374519197797574 0  0.3779515757731922 0.4374384543642751 0  0.4411945103417578 0.4374226563112902 0  0.5045644744444455 0.4374039334795589 0  0.5680862513444457 0.4373815936607149 0  0.6317853359736639 0.4373548349789469 0  0.6956858835186179 0.4373227563112585 0  0.7598069653828755 0.4372844193311006 0  0.82415635601445 0.4372390300971721 0  0.8887210824437118 0.4371863753368662 0  0.9534544251527617 0.437127756650652 0  1.018260235997562 0.4370678037662705 0  0 0.5 0  0.06291495970648714 0.4999914503332853 0  0.1258458715651536 0.4999825651621558 0  0.1888092748491847 0.4999729945105886 0  0.251822890925015 0.4999623585333796 0  0.31490623276229 0.4999502300623922 0  0.3780812213400392 0.4999361137326893 0  0.441372780230567 0.4999194198314545 0  0.5048093394784527 0.4998994303638481 0  0.5684231094021327 0.4998752541957321 0  0.6322498660022556 0.4998457682756145 0  0.696327798683622 0.4998095452118763 0  0.7606946855379498 0.4997647802156278 0  0.8253822813224194 0.4997092678348296 0  0.8904063973710297 0.4996405733989588 0  0.9557509280764092 0.4995567540266663 0  1.021344403245534 0.4994583892346302 0  0 0.5625 0  0.06291265822711138 0.5624915359709551 0  0.1258418469156435 0.5624827306111341 0  0.18880480932675 0.5624732264538155 0  0.2518202506288539 0.5624626322604808 0  0.3149091466064385 0.5624505024877856 0  0.3780956412376156 0.562436311525336 0  0.4414080499258431 0.5624194192629198 0  0.504879961505638 0.5623990224253158 0  0.568551380717488 0.5623740824607553 0  0.632469747857388 0.5623432148013645 0  0.6966904686613792 0.5623045156212171 0  0.7612762121911143 0.5622552931133613 0  0.8262935862620008 0.5621916733198888 0  0.8918047888046089 0.562108108020401 0  0.9578505373510054 0.5619970351259092 0  1.024419618113905 0.5618495398372798 0  0 0.625 0  0.06289393606062305 0.6249919599225964 0  0.1258042830829285 0.6249835884065683 0  0.188748261994111 0.6249745374654909 0  0.2517447797829841 0.6249644242042248 0  0.3148154153259181 0.6249528092844067 0  0.377985588243796 0.6249391694260037 0  0.4412859883019074 0.6249228597410302 0  0.5047543509441352 0.6249030585911101 0  0.5684376603236138 0.6248786815311316 0  0.6323948201284701 0.6248482386863875 0  0.6966996996843904 0.6248095856562885 0  0.7614441214035848 0.6247594713636389 0  0.826739574603964 0.6246927040572284 0  0.8927148259792294 0.6246006433903327 0  0.959503717896225 0.6244686969722003 0  1.027213777076866 0.624273103477116 0  0 0.6875 0  0.06285891901380788 0.6874927121775698 0  0.1257333327376802 0.6874851190032366 0  0.1886395913950281 0.6874768995509947 0  0.2515958474868824 0.6874676999623052 0  0.314623157011814 0.6874571133349116 0  0.3777468510112879 0.6874446543594593 0  0.440998320061472 0.6874297251169116 0  0.504417406614393 0.6874115657071648 0  0.5680556718063607 0.6873891774697211 0  0.6319808900822397 0.6873611931991124 0  0.6962831994524205 0.68732563726233 0  0.7610833032014238 0.6872794420764308 0  0.8265427033290068 0.6872174001382632 0  0.8928744036126172 0.6871297809430985 0  0.9603481056614348 0.6869968222617027 0  1.02927384377079 0.6867762066776245 0  0 0.75 0  0.06280852870326181 0.7499937665591592 0  0.1256307924302676 0.7499872691230361 0  0.1884813558727063 0.7499802303213252 0  0.2513765481497974 0.7499723445776686 0  0.3143355789079683 0.7499632614808357 0  0.3773819811159988 0.7499525657962787 0  0.4405455747446001 0.749939752411299 0  0.5038652430585218 0.7499241936882648 0  0.5673929724340548 0.7499050948316009 0  0.6311998640877603 0.7498814278987661 0  0.6953852377248096 0.7498518201621662 0  0.7600905853341619 0.7498143242205576 0  0.8255210326937434 0.7497658343427237 0  0.8919777989530772 0.7497003608247812 0  0.9599036567733852 0.7496035793581832 0  1.029930014827686 0.7494359260488047 0  0 0.8125 0  0.06274452856455009 0.8124950816531841 0  0.1255002147637196 0.8124899537598967 0  0.1882789377193521 0.8124843964381211 0  0.2510941219483726 0.8124781681553221 0  0.3139617408193988 0.8124709936835072 0  0.3769016498287162 0.8124625508750958 0  0.4399394613200119 0.8124524567142125 0  0.5031092973011047 0.8124402546975831 0  0.5664579780232704 0.8124254094412268 0  0.6300516024026147 0.8124073235861256 0  0.6939862176790699 0.8123854140384965 0  0.7584057177631383 0.8123593363983639 0  0.8235330890084211 0.8123295574922903 0  0.889727704264187 0.8122986135136483 0  0.9575957480579832 0.8122727061464681 0  1.028191524401466 0.8122549524890469 0  0 0.875 0  0.0626694976368844 0.8749966029888151 0  0.1253468671105646 0.8749930609181802 0  0.1880405136307488 0.8749892218269253 0  0.2507599905315105 0.8749849194195964 0  0.313516758277503 0.8749799656334341 0  0.3763252118405772 0.8749741434762915 0  0.4392041571578462 0.8749672017547084 0  0.5021790343999193 0.8749588560280971 0  0.5652854017636586 0.8749488066089276 0  0.6285746041422211 0.8749368004569075 0  0.6921233667452814 0.8749228060706961 0  0.7560507816816798 0.8749074935779597 0  0.8205502265533625 0.87489362271885 0  0.8859553891238824 0.8748905468547963 0  0.9529057024283822 0.8749315075589071 0  1.02296390688994 0.8751562493303702 0  0 0.9375 0  0.06258672108895212 0.9374982660970415 0  0.1251775102196086 0.9374964581746903 0  0.1877767182259894 0.9374944988049234 0  0.2503893063263002 0.9374923035321333 0  0.3130212535948387 0.9374897774446603 0  0.3756801140313124 0.9374868122858827 0  0.4383758264703714 0.93748328536
[...]
<PointData  Vectors="f_54"> 
<DataArray  type="Float64"  Name="f_54"  NumberOfComponents="3" format="ascii">0.0000000000000000e+00 0.0000000000000000e+00 0.0000000000000000e+00  0.0000000000000000e+00 0.0000000000000000e+00 0.0000000000000000e+00  0.0000000000000000e+00 0.0000000000000000e+00 0.0000000000000000e+00  0.0000000000000000e+00 0.0000000000000000e+00 0.0000000000000000e+00  0.0000000000000000e+00 0.0000000000000000e+00 0.0000000000000000e+00  0.0000000000000000e+00 0.0000000000000000e+00 0.0000000000000000e+00  0.0000000000000000e+00 0.0000000000000000e+00 0.0000000000000000e+00  0.0000000000000000e+00 0.0000000000000000e+00 0.0000000000000000e+00  0.0000000000000000e+00 0.0000000000000000e+00 0.0000000000000000e+00  0.0000000000000000e+00 0.0000000000000000e+00 0.0000000000000000e+00  0.0000000000000000e+00 0.0000000000000000e+00 0.0000000000000000e+00  0.0000000000000000e+00 0.0000000000000000e+00 0.0000000000000000e+00  0.0000000000000000e+00 0.0000000000000000e+00 0.0000000000000000e+00  0.0000000000000000e+00 0.0000000000000000e+00 0.0000000000000000e+00  0.0000000000000000e+00 0.0000000000000000e+00 0.0000000000000000e+00  0.0000000000000000e+00 0.0000000000000000e+00 0.0000000000000000e+00  0.0000000000000000e+00 0.0000000000000000e+00 0.0000000000000000e+00  0.0000000000000000e+00 0.0000000000000000e+00 0.0000000000000000e+00  8.4166330247766157e-07 -5.2183909902853199e-08 0.0000000000000000e+00  1.7266993737479251e-06 -1.0623488219230339e-07 0.0000000000000000e+00  2.7016085156163513e-06 -1.6408669506799682e-07 0.0000000000000000e+00  3.8192822380650752e-06 -2.2780176741054826e-07 0.0000000000000000e+00  5.1429510172247121e-06 -2.9964552334558184e-07 0.0000000000000000e+00  6.7511907785456976e-06 -3.8217545932370787e-07 0.0000000000000000e+00  8.7447430185111076e-06 -4.7835759610021201e-07 0.0000000000000000e+00  1.1256625426346673e-05 -5.9173909287497087e-07 0.0000000000000000e+00  1.4468821613692526e-05 -7.2675376152948427e-07 0.0000000000000000e+00  1.8643602938129522e-05 -8.8939001364917356e-07 0.0000000000000000e+00  2.4190723964763996e-05 -1.0889640621241464e-06 0.0000000000000000e+00  3.1830439446020248e-05 -1.3435540823995728e-06 0.0000000000000000e+00  4.3033636325861197e-05 -1.6983941647900208e-06 0.0000000000000000e+00  6.1329654045599047e-05 -2.2930320937060813e-06 0.0000000000000000e+00  9.6580299954659649e-05 -3.6246701561008879e-06 0.0000000000000000e+00  1.8076961429290770e-04 -7.6916020635246909e-06 0.0000000000000000e+00  0.0000000000000000e+00 0.0000000000000000e+00 0.0000000000000000e+00  1.6420181665878586e-06 -1.0262690194107402e-07 0.0000000000000000e+00  3.3681250855009720e-06 -2.0894372918876965e-07 0.0000000000000000e+00  5.2684490666209160e-06 -3.2277211318027213e-07 0.0000000000000000e+00  7.4454579916287778e-06 -4.4818784843353451e-07 0.0000000000000000e+00  1.0021518117039646e-05 -5.8966590357864487e-07 0.0000000000000000e+00  1.3148322119326340e-05 -7.5224977357768558e-07 0.0000000000000000e+00  1.7019308468906581e-05 -9.4176077442114387e-07 0.0000000000000000e+00  2.1886994401585099e-05 -1.1650734797188096e-06 0.0000000000000000e+00  2.8088957192261840e-05 -1.4305060948923901e-06 0.0000000000000000e+00  3.6090357742843455e-05 -1.7484206618700948e-06 0.0000000000000000e+00  4.6560315690980703e-05 -2.1321901481802248e-06 0.0000000000000000e+00  6.0519525362227776e-05 -2.5995424748569563e-06 0.0000000000000000e+00  7.9632199316622288e-05 -3.1722868677972228e-06 0.0000000000000000e+00  1.0673819654998382e-04 -3.8589064355331125e-06 0.0000000000000000e+00  1.4645671731007939e-04 -4.5269471702359144e-06 0.0000000000000000e+00  2.0338236127874406e-04 -4.1501967067573679e-06 0.0000000000000000e+00  0.0000000000000000e+00 0.0000000000000000e+00 0.0000000000000000e+00  2.3603339295939279e-06 -1.4950308660993718e-07 0.0000000000000000e+00  4.8399648527553893e-06 -3.0441384122370455e-07 0.0000000000000000e+00  7.5666698797973346e-06 -4.7033150005728245e-07 0.0000000000000000e+00  1.0685562181196620e-05 -6.5322586151255536e-07 0.0000000000000000e+00  1.4369616496415091e-05 -8.5964565385682158e-07 0.0000000000000000e+00  1.8832555681956736e-05 -1.0969563670534777e-06 0.0000000000000000e+00  2.4345168435090113e-05 -1.3736208327398297e-06 0.0000000000000000e+00  3.1256423085806021e-05 -1.6995336781346176e-06 0.0000000000000000e+00  4.0021177297894223e-05 -2.0864041822570607e-06 0.0000000000000000e+00  5.1236762657658816e-05 -2.5481209902399499e-06 0.0000000000000000e+00  6.5690385447122736e-05 -3.1008442154452670e-06 0.0000000000000000e+00  8.4413991804620819e-05 -3.7620506689288361e-06 0.0000000000000000e+00  1.0871691418394211e-04 -4.5465645746447448e-06 0.0000000000000000e+00  1.4006547586800571e-04 -5.4564940445975726e-06 0.0000000000000000e+00  1.7935499867831380e-04 -6.4742770295223097e-06 0.0000000000000000e+00  2.2434359796033013e-04 -7.6992210162102945e-06 0.0000000000000000e+00  0.0000000000000000e+00 0.0000000000000000e+00 0.0000000000000000e+00  2.9614284447805629e-06 -1.9109326902583270e-07 0.0000000000000000e+00  6.0694504066770292e-06 -3.8915005263592194e-07 0.0000000000000000e+00  9.4809098184495110e-06 -6.0137784429114382e-07 0.0000000000000000e+00  1.3373660227223782e-05 -8.3545818427451662e-07 0.0000000000000000e+00  1.7959285414888286e-05 -1.0998099061949251e-06 0.0000000000000000e+00  2.3498524220592964e-05 -1.4038859934003409e-06 0.0000000000000000e+00  3.0320316927527747e-05 -1.7585189252456024e-06 0.0000000000000000e+00  3.8845118848114521e-05 -2.1763243952421997e-06 0.0000000000000000e+00  4.9612188693784853e-05 -2.6721452364183445e-06 0.0000000000000000e+00  6.3307956081580288e-05 -3.2634248147353224e-06 0.0000000000000000e+00  8.0785928919798144e-05 -3.9701496762103298e-06 0.0000000000000000e+00  1.0305240728397302e-04 -4.8134220275207541e-06 0.0000000000000000e+00  1.3115477474545721e-04 -5.8105901270668828e-06 0.0000000000000000e+00  1.6583061150600109e-04 -6.9631523256665288e-06 0.0000000000000000e+00  2.0664811870914893e-04 -8.2313691459194711e-06 0.0000000000000000e+00  2.5031716748455851e-04 -9.4744929440694164e-06 0.0000000000000000e+00  0.0000000000000000e+00 0.0000000000000000e+00 0.0000000000000000e+00  3.4180536581998241e-06 -2.2584197741546467e-07 0.0000000000000000e+00  7.0003204359467366e-06 -4.5999069356975005e-07 0.0000000000000000e+00  1.0922210499372502e-05 -7.1104057324761733e-07 0.0000000000000000e+00  1.5382209293329428e-05 -9.8814837955020228e-07 0.0000000000000000e+00  2.0615958720682488e-05 -1.3013412388307284e-06 0.0000000000000000e+00  2.6913449277478161e-05 -1.6618616533337706e-06 0.0000000000000000e+00  3.4640337049759583e-05 -2.0825727962297892e-06 0.0000000000000000e+00  4.4263950982657171e-05 -2.5784558260833671e-06 0.0000000000000000e+00  5.6383151777969159e-05 -3.1672320613132189e-06 0.0000000000000000e+00  7.1757660650672797e-05 -3.8701084248519556e-06 0.0000000000000000e+00  9.1324534066832176e-05 -4.7124996544097454e-06 0.0000000000000000e+00  1.1617331108339717e-04 -5.7241533969660293e-06 0.0000000000000000e+00  1.4742225138505351e-04 -6.9370449795960406e-06 0.0000000000000000e+00  1.8589595681398153e-04 -8.3770559941350535e-06 0.0000000000000000e+00  2.3147504464646917e-04 -1.0040490226621550e-05 0.0000000000000000e+00  2.8207065011450161e-04 -1.1836495307690866e-05 0.0000000000000000e+00  0.0000000000000000e+00 0.0000000000000000e+00 0.0000000000000000e+00  3.7126360889124589e-06 -2.5240831139385691e-07 0.0000000000000000e+00  7.5964529276132985e-06 -5.1421029390495407e-07 0.0000000000000000e+00  1.1833825022068803e-05 -7.9512239594631913e-07 0.0000000000000000e+00  1.6630391101789438e-05 -1.1054960774162014e-06 0.0000000000000000e+00  2.2229521400489648e-05 -1.4566578882525686e-06 0.0000000000000000e+00  2.8930412847493889e-05 -1.8612836118971581e-06 0.0000000000000000e+00  3.7111311663081774e-05 -2.3338375274629614e-06 0.0000000000000000e+00  4.7259294643602935e-05 -2.8911388278973184e-06 0.0000000000000000e+00  6.0007296193694534e-05 -3.5531770010248156e-06 0.0000000000000000e+00  7.6176713763073558e-05 -4.3443998176135237e-06 0.0000000000000000e+00  9.6818276592668074e-05 -5.2958363968656190e-06 0.0000000000000000e+00  1.2323242432177507e-04 -6.4485065932854305e-06 0.0000000000000000e+00  1.5693092848686975e-04 -7.8582692136345410e-06 0.0000000000000000e+00  1.9947593610365820e-04 -9.6006271618162033e-06 0.0000000000000000e+00  2.5211663613491843e-04 -1.1768972196435962e-05 0.0000000000000000e+00  3.1517423223250746e-04 -1.4448482713972475e-05 0.0000000000000000e+00  0.0000000000000000e+00 0.0000000000000000e+00 0.0000000000000000e+00  3.8382278457788477e-06 -2.6970963561980407e-07 0.0000000000000000e+00  7.8438965658180294e-06 -5.4960686232177988e-07 0.0000000000000000e+00  1.2194596279889219e-05 -8.5023060471422028e-07 0.0000000000000000e+00  1.7089242554165763e-05 -1.1828153486946724e-06 0.0000000000000000e+00  2.2761689858919597e-05 -1.5596503403857853e-06 0.0000000000000000e+00  2.9498389137941283e-05 -1.9944562777892478e-06 0.0000000000000000e+00  3.7662314903543352e-05 -2.5028027652217805e-06 0.0000000000000000e+00  4.7726159770259431e-05 -3.1026321055113581e-06 0.0000000000000000e+00  6.0318639246216380e-05 -3.8150636637550504e-06 0.0000000000000000e+00  7.6288263386494417e-05 -4.6659057798599684e-06 0.0000000000000000e+00  9.6788142645959344e-05 -5.6888362416373475e-06 0.0000000000000000e+00  1.2338138013742310e-04 -6.9322124219135872e-06 0.0000000000000000e+00  1.5815627916974354e-04 -8.4730055028863190e-06 0.0000000000000000e+00  2.0382035064183104e-04 -1.0442730249727350e-05 0.0000000000000000e+00  2.6370961833493902e-04 -1.3068255376516374e-05 0.0000000000000000e+00  3.4160298151063626e-04 -1.6715454004951294e-05 0.0000000000000000e+00  0.0000000000000000e+00 0.0000000000000000e+00 0.0000000000000000e+00  3.7985457230236056e-06 -2.7695822700909596e-07 0.0000000000000000e+00  7.7510476204064169e-06 -5.6457334071153099e-07 0.0000000000000000e+00  1.2019517851497826e-05 -8.7387988939589071e-07 0.0000000000000000e+00  1.6783109073420880e-05 -1.2166656450450000e-06 0.0000000000000000e+00  2.2249336936556638e-05 -1.6058446576341330e-06 0.0000000000000000e+00  2.8669245806340878e-05 -2.0558176665986458e-06 0.0000000000000000e+00  3.6359312488406823e-05 -2.5828082312677767e-06 0.0000000000000000e+00  4.5734647814391011e-05 -3.2051795208909271e-06 0.0000000000000000e+00  5.7360947920359367e-05 -3.9438211900644383e-06 0.0000000000000000e+00  7.2037127253086800e-05 -4.8229761467489278e-06 0.0000000000000000e+00  9.0926886565219963e-05 -5.8726606798784467e-06 0.0000000000000000e+00  1.1576483839748451e-04 -7.1357812841333321e-06 0.0000000000000000e+00  1.4916746085515278e-04 -8.6873829349052497e-06 0.0000000000000000e+00  1.9507094204354071e-04 -1.0681759544722331e-05 0.0000000000000000e+00  2.5927677599827238e-04 -1.3455445471675189e-05 0.0000000000000000e+00  3.4998307919590342e-04 -1.7722330748626730e-05 0.0000000000000000e+00  0.0000000000000000e+00 0.0000000000000000e+00 0.0000000000000000e+00  3.6070050886166198e-06 -2.7369265606577572e-07 0.0000000000000000e+00  7.3467354631840246e-06 -5.5815657530094904e-07 0.0000000000000000e+00  1.1356982733567159e-05 -8.6456978440545575e-07 0.0000000000000000e+00  1.5786459411019617e-05 -1.2049310228753376e-06 0.0000000000000000e+00  2.0801977537745408e-05 -1.5924590840474235e-06 0.0000000000000000e+00  2.6598509097711831e-05 -2.0419525770109258e-06 0.0000000000000000e+00  3.3414815804005820e-05 -2.5700443011945157e-06 0.0000000000000000e+00  4.1559757720889911e-05 -3.1952274281241279e-06 0.0000000000000000e+00  5.1458983674865339e-05 -3.9374666310765588e-06 0.0000000000000000e+00  6.3740153951632634e-05 -4.8172211850325230e-06 0.0000000000000000e+00  7.9389650811052654e-05 -5.8541196823615344e-06 0.0000000000000000e+00  1.0003761845276672e-04 -7.0673383752361774e-06 0.0000000000000000e+00  1.2846108056773135e-04 -8.4856761067402732e-06 0.0000000000000000e+00  1.6942548354761483e-04 -1.0191786550237535e-05 0.0000000000000000e+00  2.3097520121880295e-04 -1.2463831653699943e-05 0.0000000000000000e+00  3.2615988205439986e-04 -1.6150795692946362e-05 0.0000000000000000e+00  0.0000000000000000e+00 0.0000000000000000e+00 0.0000000000000000e+00  3.2847330833351171e-06 -2.5980757557850205e-07 0.0000000000000000e+00  6.6761080187266149e-06 -5.3011264467995923e-07 0.0000000000000000e+00  1.0282322793230178e-05 -8.2185302839034464e-07 0.0000000000000000e+00  1.4214968852106225e-05 -1.1468715727046753e-06 0.0000000000000000e+00  1.8590827099159310e-05 -1.5183745394691959e-06 0.0000000000000000e+00  2.3534314335908345e-05 -1.9513596319400984e-06 0.0000000000000000e+00  2.9182058121340094e-05 -2.4629125468161774e-06 0.0000000000000000e+00  3.5693248172663679e-05 -3.0721251568202480e-06 0.0000000000000000e+00  4.3274209384058654e-05 -3.7990889278132735e-06 0.0000000000000000e+00  5.2235951430442823e-05 -4.6618459991150369e-06 0.0000000000000000e+00  6.3124874704528590e-05 -5.6692430807641646e-06 0.0000000000000000e+00  7.7009167535985052e-05 -6.8066690599624472e-06 0.0000000000000000e+00  9.6080301194077236e-05 -8.0131193753160315e-06 0.0000000000000000e+00  1.2484711966595684e-04 -9.1620746054374129e-06 0.0000000000000000e+00  1.7231909517204916e-04 -1.0118036948604775e-05 0.0000000000000000e+00  2.5552831213186244e-04 -1.1127494557567933e-05 0.0000000000000000e+00  0.0000000000000000e+00 0.0000000000000000e+00 0.0000000000000000e+00  2.8576994896006483e-06 -2.3558604605940608e-07 0.0000000000000000e+00  5.7945287972203162e-06 -4.8097069765075142e-07 0.0000000000000000e+00  8.8877423154766313e-06 -7.4642412478733143e-07 0.0000000000000000e+00  1.2210438978581751e-05 -1.0432099978551183e-06 0.0000000000000000e+00  1.5827533802037633e-05 -1.3841402243158940e-06 0.0000000000000000e+00  1.9789259998211711e-05 -1.7841747433849008e-06 0.0000000000000000e+00  2.4121332463347425e-05 -2.2610039265533210e-06 0.0000000000000000e+00  2.8811522296472987e-05 -2.8353847026544492e-06 0.0000000000000000e+00  3.3794767842080678e-05 -3.5305678461964957e-06 0.0000000000000000e+00  3.8946121933360039e-05 -4.3690578221830082e-06 0.0000000000000000e+00  4.4110392014114979e-05 -5.3622615928006095e-06 0.0000000000000000e+00  4.9247330016797484e-05 -6.4823166058737117e-06 0.0000000000000000e+00  5.4891061092664653e-05 -7.5921610627054975e-06 0.0000000000000000e+00  6.3382058942809954e-05 -8.2886152044296602e-06 0.0000000000000000e+00  8.1787602825818650e-05 -7.6108400018775700e-06 0.0000000000000000e+00  1.2788256534102769e-04 -3.7417187277323434e-06 0.0000000000000000e+00  0.0000000000000000e+00 0.0000000000000000e+00 0.0000000000000000e+00  2.3533218697508236e-06 -2.0173520814271689e-07 0.0000000000000000e+00  4.7601977744005275e-06 -4.1211189144034705e-07 0.0000000000000000e+00  7.2696729837574118e-06 -6.4025420583947184e-07 0.0000000000000000e+00  9.9207078409614766e-06 -8.9633093568475931e-07 0.0000000000000000e+00  1.2733277511670189e-05 -1.1922127058302467e-06 0.0000000000000000e+00  1.5693867919009438e-05 -1.5423095792589159e-06 0.0000000000000000e+00  1.8731626443463486e-05 -1.9646638825743037e-06 0.0000000000000000e+00  2.1679415683046930e-05 -2.4823332793811488e-06 0.0000000000000000e+00  2.4211229226239992e-05 -3.1248835726387243e-06 0.0000000000000000e+00  2.5744712373105606e-05 -3.9289971539149745e-06 0.0000000000000000e+00  2.5299348854802995e-05 -4.9344486987934276e-06 0.0000000000000000e+00  2.1324360559238442e-05 -6.1627641460404762e-06 0.0000000000000000e+00  1.1613585507931564e-05 -7.5375631720408425e-06 0.0000000000000000e+00  -6.2169820755256375e-06 -8.6190210120007229e-06 0.0000000000000000e+00  -3.2183662453039947e-05 -7.7871790394331562e-06 0.0000000000000000e+00  -5.5852365555155055e-05 -7.9831225011927088e-08 0.0000000000000000e+00  0.0000000000000000e+00 0.0000000000000000e+00 0.0000000000000000e+00  1.7971224822882273e-06 -1.5941794282905831e-07 0.0000000000000000e+00  3.6267528776286914e-06 -3.2585102099926548e-07 0.0000000000000000e+00  5.5156924257097581e-06 -5.0676370083583644e-07 0.0000000000000000e+00  7.4778737992688876e-06 -7.1061686301436705e-07 0.0000000000000000e+00  9.5030324663511393e-06 -9.4756542558953280e-07 0.0000000000000000e+00  1.1537873912337166e-05 -1.2304677789491353e-06 0.0000000000000000e+00  1.3453825650699451e-05 -1.5764593923023820e-06 0.0000000000000000e+00  1.4990879345222977e-05 -2.0095436301235525e-06 0.0000000000000000e+00  1.5658355667163857e-05 -2.5650170510633684e-06 0.0000000000000000e+00  1.4557024609746413e-05 -3.2971429573238809e-06 0.0000000000000000e+00  1.0056668117313117e-05 -4.2921456324101616e-06 0.0000000000000000e+00  -7.8814669848676984e-07 -5.6875679445855752e-06 0.0000000000000000e+00  -2.3260255619596583e-05 -7.6860369246287605e-06 0.0000000000000000e+00  -6.6518639507003806e-05 -1.0471272795568195e-05 0.0000000000000000e+00  -1.4448301905999178e-04 -1.3485986919728733e-05 0.0000000000000000e+00  -2.6804079242139347e-04 -1.1064487403421340e-05 0.0000000000000000e+00  0.0000000000000000e+00 0.0000000000000000e+00 0.0000000000000000e+00  1.2101383272752523e-06 -1.1026268282684293e-07 0.0000000000000000e+00  2.4374564137968828e-06 -2.2548057109783761e-07 0.0000000000000000e+00  3.6939791614307165e-06 -3.5096170453249367e-07 0.0000000000000000e+00  4.9800410464130977e-06 -4.9281117542752141e-07 0.0000000000000000e+00  6.2739290770975431e-06 -6.5853442228025690e-07 0.0000000000000000e+00  7.5144036865110823e-06 -8.5798479905540083e-07 0.0000000000000000e+00  8.5700162768102517e-06 -1.1049946924458049e-06 0.0000000000000000e+00  9.1837111709267425e-06 -1.4203990373984199e-06 0.0000000000000000e+00  8.8698766373550900e-06 -1.8380096557961447e-06 0.0000000000000000e+00  6.7164544165455280e-06 -2.4171330278972406e-06 0.0000000000000000e+00  9.8894785097136733e-07 -3.2703258675645531e-06 0.0000000000000000e+00  -1.1699786858114220e-05 -4.6285581084643893e-06 0.0000000000000000e+00  -3.8220859845343414e-05 -7.0036696139180009e-06 0.0000000000000000e+00  -9.3162755769992718e-05 -1.1620590316855918e-05 0.0000000000000000e+00  -2.0874517072319083e-04 -2.1651291645773947e-05 0.0000000000000000e+00  -4.5396010624497608e-04 -4.5993061760480605e-05 0.0000000000000000e+00  0.0000000000000000e+00 0.0000000000000000e+00 0.0000000000000000e+00  6.0771401446245726e-07 -5.6327451462467410e-08 0.0000000000000000e+00  1.2224653929693182e-06 -1.1521713483227689e-07 0.0000000000000000e+00  1.8482604314073092e-06 -1.7942552477923765e-07 0.0000000000000000e+00  2.4822119509726548e-06 -2.5215273778262305e-07 0.0000000000000000e+00  3.1084117721055607e-06 -3.3739362119916628e-07 0.0000000000000000e+00  3.6875143033863598e-06 -4.4051351378960052e-07 0.0000000000000000e+00  4.1382363794294037e-06 -5.6928791781413461e-07 0.0000000000000000e+00  4.3033829526972065e-06 -7.3593191037337778e-07 0.0000000000000000e+00  3.8851915508814383e-06 -9.6134140327736619e-07 0.0000000000000000e+00  2.3168152995006461e-06 -1.2845464741650795e-06 0.0000000000000000e+00  -1.5076388975895073e-06 -1.7851876282417100e-06 0.0000000000000000e+00  -9.8420036731808712e-06 -2.6407416928125138e-06 0.0000000000000000e+00  -2.7594316342037083e-05 -4.2838076781480288e-06 0.0000000000000000e+00  -6.6526592431751110e-05 -7.8750761950089425e-06 0.0000000000000000e+00  -1.5886592420866465e-04 -1.6888755685959455e-05 0.0000000000000000e+00  -4.0937488307516708e-04 -4.3086524236231919e-05 0.0000000000000000e+00  0.0000000000000000e+00 0.0000000000000000e+00 0.0000000000000000e+00  0.0000000000000000e+00 0.0000000000000000e+00 0.0000000000000000e+00  0.0000000000000000e+00 0.0000000000000000e+00 0.0000000000000000e+00  0.0000000000000000e+00 0.0000000000000000e+00 0.0000000000000000e+00  0.0000000000000000e+00 0.0000000000000000e+00 0.0000000000000000e+00  0.0000000000000000e+00 0.0000000000000000e+00 0.0000000000000000e+00  0.0000000000000000e+00 0.0000000000000000e+00 0.0000000000000000e+00  0.0000000000000000e+00 0.0000000000000000e+00 0.0000000000000000e+00  0.0000000000000000e+00 0.00000000