<?xml version="1.0"?>
<VTKFile type="UnstructuredGrid"  version="0.1"  >
<UnstructuredGrid>
<Piece  NumberOfPoints="289" NumberOfCells="512">
<Points>
<DataArray  type="Float64"  NumberOfComponents="3"  format="ascii">0 0 0  0.0625 0 0  0.125 0 0  0.1875 0 0  0.25 0 0  0.3125 0 0  0.375 0 0  0.4375 0 0  0.5 0 0  0.5625 0 0  0.625 0 0  0.6875 0 0  0.75 0 0  0.8125 0 0  0.875 0 0  0.9375 0 0  1 0 0  0 0.0625 0  0.06257832000258631 0.06247516740749687 0  0.1251598019790418 0.06244984603059212 0  0.1877477813031312 0.06242357243453375 0  0.2503458976297283 0.06239595806365778 0  0.3129582790776395 0.06236673773103087 0  0.3755897726308889 0.06233582988709899 0  0.438246260188255 0.06230340784026057 0  0.500935141121269 0.06226997369293304 0  0.5636661623650722 0.06223641178876695 0  0.6264530310975635 0.06220396804070389 0  0.6893169263948336 0.06217403538661276 0  0.7522949686044567 0.0621474611058762 0  0.8154625972374173 0.06212260494646257 0  0.8789978069718666 0.06208969394979359 0  0.9433808802199672 0.0620124941941596 0  1.010081667433078 0.06176033697003306 0  0 0.125 0  0.0626535037666853 0.1249507983363045 0  0.1253132182200359 0.1249005800478908 0  0.1879856958754479 0.1248483751269334 0  0.2506780953708644 0.1247933541870719 0  0.3133985467974273 0.1247349229557595 0  0.3761566030986766 0.1246728442410826 0  0.4389638413380348 0.1246073897726039 0  0.5018347320755033 0.1245395131103453 0  0.5647880131927416 0.1244710124804831 0  0.6278490624148916 0.124404611270886 0  0.6910543181144594 0.1243438153661567 0  0.7544599218829939 0.1242923160799287 0  0.8181586176430887 0.1242527013625475 0  0.8823097831076603 0.1242249636689636 0  0.947173527751657 0.1242100865040578 0  1.013035960602039 0.1242489101791735 0  0 0.1875 0  0.06272250411196093 0.1874274307417626 0  0.1254540100615897 0.1873532473697287 0  0.1882040107595203 0.1872758950087356 0  0.2509828811415465 0.187194005208538 0  0.3138024044577123 0.1871065292172133 0  0.376676409675716 0.1870129200845604 0  0.4396215856015059 0.1869133756503526 0  0.5026585720382184 0.1868091446741003 0  0.5658134864734846 0.1867028764446591 0  0.6291201295795733 0.1865989510740392 0  0.692623182721869 0.1865036508041132 0  0.7563825243494965 0.1864249057027858 0  0.8204773944799031 0.1863711336950672 0  0.8850034583090832 0.1863481874668609 0  0.9500382309342879 0.1863512454848738 0  1.01551239294479 0.1863365065653911 0  0 0.25 0  0.06278254698944198 0.2499056707531652 0  0.1255764965686549 0.2498090400547979 0  0.1883938609955106 0.2497078643062947 0  0.2512477665726639 0.2496000990479385 0  0.3141531127448945 0.2494840558228412 0  0.3771273578800566 0.2493586335367217 0  0.4401914892420169 0.2492236528092448 0  0.5033712405136296 0.249080319652856 0  0.5666986067145184 0.2489318327210279 0  0.6302136260810992 0.2487841155403346 0  0.6939661220332438 0.2486465834716306 0  0.7580162978212227 0.2485327153924156 0  0.8224310187723735 0.2484599454328189 0  0.8872680689401535 0.2484479576112718 0  0.9525332601107938 0.2485139518396478 0  1.018093065441696 0.248664764157892 0  0 0.3125 0  0.06283125483535294 0.3123862114962485 0  0.1256758099516626 0.312269340850254 0  0.188547654822731 0.3121463427613865 0  0.25146206764558 0.3120143363066345 0  0.3144363763938647 0.3118707592291282 0  0.377490863626168 0.31171362166127 0  0.4406498730383738 0.3115419089077139 0  0.5039431683821854 0.3113561949630873 0  0.5674075501128948 0.3111595373994291 0  0.6310885926132441 0.3109587192409968 0  0.695042001669648 0.3107658613525708 0  0.7593332863240179 0.3106003057130679 0  0.8240329078333553 0.310490394544751 0  0.8892018685637825 0.3104742666845763 0  0.9548617910956155 0.310598109314794 0  1.020951385288363 0.3109098675074354 0  0 0.375 0  0.06286674846777715 0.3748698351884925 0  0.1257481061616029 0.3747357338761941 0  0.1886594058325383 0.3745937512200541 0  0.2516173737157892 0.3744400120123768 0  0.314640956971573 0.3742708241555819 0  0.3777523190807365 0.3740829072615747 0  0.4409780809382805 0.373873806790564 0  0.5043508929338785 0.3736425957622483 0  0.5679114051780797 0.3733910077019144 0  0.6317106134224596 0.373125189769366 0  0.6958123097633599 0.3728582905018584 0  0.7602948322092759 0.3726140405152534 0  0.8252504132983975 0.3724312165365611 0  0.8907795455855204 0.372368193276681 0  0.9569786871403222 0.3725055242532918 0  1.023926676270892 0.3729428970913035 0  0 0.4375 0  0.06288772404405223 0.4373573922967251 0  0.1257907246519053 0.4372099681395746 0  0.1887249870567914 0.4370528318520279 0  0.251707911564704 0.4368809968730863 0  0.3147591607863799 0.4366894106565036 0  0.3779016998328603 0.4364730905232199 0  0.4411631429718395 0.4362274532992484 0  0.5045775699398255 0.4359489740779616 0  0.5681880403315537 0.4356363916940573 0  0.6320501011901006 0.43529279809646 0  0.6962366073048147 0.4349290985654827 0  0.7608440658546841 0.4345694498022194 0  0.8260003739164167 0.4342591775715561 0  0.8918733681970246 0.4340748976158607 0  0.9586802020789561 0.4341344723950009 0  1.026702894537962 0.4346010380444228 0  0 0.5 0  0.06289350199520569 0.49984975294367 0  0.1258022914306083 0.4996938620766321 0  0.1887422999214138 0.4995265113985212 0  0.2517308019847879 0.4993415741622043 0  0.3147872203447367 0.4991324994264534 0  0.3779341321458907 0.4988922758291545 0  0.4411986239324546 0.4986135495276752 0  0.504614249255907 0.4982890399461783 0  0.5682240299191019 0.4979125159418016 0  0.6320852541542926 0.497480800605541 0  0.6962772993204135 0.4969976076650857 0  0.7609143100765678 0.4964804888540848 0  0.8261650644743289 0.4959726230120812 0  0.892282270278799 0.4955608516365727 0  0.9596429189562328 0.4953982888210618 0  1.028804785421513 0.4957212253363544 0  0 0.5625 0  0.06288404420318687 0.5623477292330959 0  0.1257827565899122 0.5621891441157221 0  0.1887113411789921 0.5620176533077478 0  0.2516861787973598 0.561826098565673 0  0.314725518187745 0.5616064637731004 0  0.3778503368695513 0.5613495937255201 0  0.4410855256437434 0.5610449668632281 0  0.5044617012912261 0.5606806290374694 0  0.568018259481026 0.5602435247648173 0  0.6318088843693959 0.5597207259983026 0  0.695911849555181 0.5591025863912991 0  0.7604493040642468 0.5583898610206943 0  0.8256222311320131 0.5576085498031805 0  0.891769568046346 0.5568381678158082 0  0.9594580009940599 0.5562575580239785 0  1.029604739453821 0.5561971384855198 0  0 0.625 0  0.06285993578505428 0.6248519728399041 0  0.1257333563405648 0.6246972362783051 0  0.1886341444640893 0.6245287041804485 0  0.2515771182694018 0.6243384715432135 0  0.3145785415082101 0.6241173330916113 0  0.377656720153877 0.6238542168714877 0  0.4408327910809305 0.6235355158618264 0  0.5041319562965059 0.6231443321560716 0  0.5675857695551032 0.6226597351259685 0  0.631236900177083 0.6220563606824233 0  0.6951496105431529 0.6213052532981536 0  0.7594329293934479 0.6203783018010792 0  0.824290314787463 0.6192621681470614 0  0.8901186580321275 0.6179952824199634 0  0.9576811049098642 0.616750921571094 0  1.028358245670366 0.6159678558481694 0  0 0.6875 0  0.06282233040832927 0.687362859383169 0  0.1256564948505154 0.6872190038710454 0  0.1885145807178107 0.6870612684042159 0  0.2514093337954435 0.6868814742628545 0  0.3143544513315741 0.6866697845665487 0  0.3773648354068879 0.6864138725664728 0  0.4404568033596672 0.6860978074900699 0  0.503648318006977 0.6857005368726873 0  0.5669595350454575 0.6851938268323002 0  0.6304146868962937 0.684539560850066 0  0.6940483736081755 0.683686564968269 0  0.7579248080794451 0.682568237967655 0  0.8221921038309263 0.6811064578664471 0  0.8872222617948594 0.6792425014874527 0  0.953918584439917 0.6770647139789863 0  1.024212296348061 0.6751478796264084 0  0 0.75 0  0.06277286359793328 0.7498803781318534 0  0.1255555545457473 0.749754510901955 0  0.1883580280747343 0.7496156766715359 0  0.2511906387758983 0.7494560566229227 0  0.314064231414693 0.7492660003868599 0  0.3769900632444094 0.7490330249887842 0  0.4399794145357485 0.7487403815311516 0  0.503042656073781 0.748364935045341 0  0.5661874574329067 0.7478739552943119 0  0.6294159214748937 0.7472201722643526 0  0.6927214647303604 0.7463340615463522 0  0.7560909094104843 0.7451118433374077 0  0.8195345270099932 0.7433980935767461 0  0.8832253375188494 0.7409706651730951 0  0.9480013850719891 0.73760511748379 0  1.016334431750525 0.733786369240148 0  0 0.8125 0  0.06271354562379476 0.8124040501250869 0  0.125434661697531 0.8123028325372903 0  0.1881709610089945 0.8121906392015827 0  0.2509302617858316 0.8120607322558796 0  0.3137205450051294 0.8119046304672742 0  0.3765496686776847 0.8117111023955547 0  0.439424592125587 0.8114646677045221 0  0.5023496208535435 0.8111432820495015 0  0.5653227032849412 0.8107146532628897 0  0.6283279089715876 0.8101302053257996 0  0.6913207511542636 0.8093148178753746 0  0.7542017693459118 0.8081484181857603 0  0.8167791546804927 0.8064303000303606 0  0.8787684061680932 0.8038040427523907 0  0.940164250354359 0.7996013671405375 0  1.004617304828825 0.7927601991362352 0  0 0.875 0  0.0626466511075271 0.8749328974132738 0  0.1252984488307293 0.8748619767350715 0  0.1879605427515609 0.8747830806257411 0  0.2506381771946917 0.8746912505162905 0  0.3133366102972824 0.8745801589041486 0  0.3760608103474222 0.8744412911007396 0  0.4388146821998762 0.8742626998635226 0  0.5015992899123418 0.8740270393639323 0  0.5644088830834332 0.8737083773826864 0  0.6272219809929691 0.8732669113062111 0  0.6899810409357952 0.872639996808069 0  0.7525453303651467 0.8717262210097274 0  0.8145814038968019 0.8703536899364458 0  0.8753167510233354 0.8681992386350871 0  0.9330445364891785 0.8645095825896427 0  0.9844165217967715 0.8569604341548794 0  0 0.9375 0  0.06257462278136802 0.9374654794263135 0  0.1251518566245865 0.9374289532215617 0  0.1877343100601729 0.937388231367295 0  0.2503246357836111 0.9373406859390903 0  0.312925484761358 0.9372829369080748 0  0.3755393405993303 0.9372103939465283 0  0.4381680953730611 0.9371165508147502 0  0.500
[...]
<PointData  Vectors="f_54"> 
<DataArray  type="Float64"  Name="f_54"  NumberOfComponents="3" format="ascii">0.0000000000000000e+00 0.0000000000000000e+00 0.0000000000000000e+00  0.0000000000000000e+00 0.0000000000000000e+00 0.0000000000000000e+00  0.0000000000000000e+00 0.0000000000000000e+00 0.0000000000000000e+00  0.0000000000000000e+00 0.0000000000000000e+00 0.0000000000000000e+00  0.0000000000000000e+00 0.0000000000000000e+00 0.0000000000000000e+00  0.0000000000000000e+00 0.0000000000000000e+00 0.0000000000000000e+00  0.0000000000000000e+00 0.0000000000000000e+00 0.0000000000000000e+00  0.0000000000000000e+00 0.0000000000000000e+00 0.0000000000000000e+00  0.0000000000000000e+00 0.0000000000000000e+00 0.0000000000000000e+00  0.0000000000000000e+00 0.0000000000000000e+00 0.0000000000000000e+00  0.0000000000000000e+00 0.0000000000000000e+00 0.0000000000000000e+00  0.0000000000000000e+00 0.0000000000000000e+00 0.0000000000000000e+00  0.0000000000000000e+00 0.0000000000000000e+00 0.0000000000000000e+00  0.0000000000000000e+00 0.0000000000000000e+00 0.0000000000000000e+00  0.0000000000000000e+00 0.0000000000000000e+00 0.0000000000000000e+00  0.0000000000000000e+00 0.0000000000000000e+00 0.0000000000000000e+00  0.0000000000000000e+00 0.0000000000000000e+00 0.0000000000000000e+00  0.0000000000000000e+00 0.0000000000000000e+00 0.0000000000000000e+00  -3.8409341052546997e-06 -2.1188629169135548e-07 0.0000000000000000e+00  -7.7788077922052973e-06 -4.2355743087404992e-07 0.0000000000000000e+00  -1.1911146097517281e-05 -6.3405351755846739e-07 0.0000000000000000e+00  -1.6329980045934278e-05 -8.4051607503718275e-07 0.0000000000000000e+00  -2.1117443232166428e-05 -1.0370813253792371e-06 0.0000000000000000e+00  -2.6339053099117869e-05 -1.2136334445461725e-06 0.0000000000000000e+00  -3.2033650283882152e-05 -1.3544831685629343e-06 0.0000000000000000e+00  -3.8198706765198716e-05 -1.4371738779526554e-06 0.0000000000000000e+00  -4.4769276730558571e-05 -1.4318249064070664e-06 0.0000000000000000e+00  -5.1588060772069832e-05 -1.3016742572444993e-06 0.0000000000000000e+00  -5.8362485842439557e-05 -1.0056018281417266e-06 0.0000000000000000e+00  -6.4601711025709000e-05 -5.0269292371828862e-07 0.0000000000000000e+00  -6.9521651799754714e-05 2.4524314590659002e-07 0.0000000000000000e+00  -7.1903701839676226e-05 1.2946364252398284e-06 0.0000000000000000e+00  -6.9933636851326743e-05 2.8587514687131058e-06 0.0000000000000000e+00  -6.1523028169571317e-05 6.0376371462856367e-06 0.0000000000000000e+00  0.0000000000000000e+00 0.0000000000000000e+00 0.0000000000000000e+00  -7.5916061719121799e-06 -4.2433842802583362e-07 0.0000000000000000e+00  -1.5380811403703580e-05 -8.4917944782200910e-07 0.0000000000000000e+00  -2.3566880084549092e-05 -1.2735892400995635e-06 0.0000000000000000e+00  -3.2339713034697167e-05 -1.6929311132628587e-06 0.0000000000000000e+00  -4.1871946732026446e-05 -2.0966373438089194e-06 0.0000000000000000e+00  -5.2306517377617030e-05 -2.4656023377741988e-06 0.0000000000000000e+00  -6.3737650806779768e-05 -2.7692622048958377e-06 0.0000000000000000e+00  -7.6182719323977726e-05 -2.9626871333381811e-06 0.0000000000000000e+00  -8.9541575611663221e-05 -2.9844639134915136e-06 0.0000000000000000e+00  -1.0353843154647202e-04 -2.7568598701526694e-06 0.0000000000000000e+00  -1.1763800821685173e-04 -2.1907946993759321e-06 0.0000000000000000e+00  -1.3091954298985131e-04 -1.1995885040664895e-06 0.0000000000000000e+00  -1.4187043530901279e-04 2.7201431669450227e-07 0.0000000000000000e+00  -1.4799667062698017e-04 2.1886231260133856e-06 0.0000000000000000e+00  -1.4493027241321832e-04 4.2779639267043343e-06 0.0000000000000000e+00  -1.2386667519661269e-04 5.5132267292098989e-06 0.0000000000000000e+00  0.0000000000000000e+00 0.0000000000000000e+00 0.0000000000000000e+00  -1.1148359314338561e-05 -6.3643984467460961e-07 0.0000000000000000e+00  -2.2600470928154905e-05 -1.2758917434055405e-06 0.0000000000000000e+00  -3.4663684687668721e-05 -1.9193757457219925e-06 0.0000000000000000e+00  -4.7635139656438934e-05 -2.5626746982682735e-06 0.0000000000000000e+00  -6.1792111088898450e-05 -3.1930264366507855e-06 0.0000000000000000e+00  -7.7375876932848884e-05 -3.7850363393855410e-06 0.0000000000000000e+00  -9.4566134995056788e-05 -4.2957405411765138e-06 0.0000000000000000e+00  -1.1344227472517475e-04 -4.6590679995402322e-06 0.0000000000000000e+00  -1.3392679798208748e-04 -4.7805817971633507e-06 0.0000000000000000e+00  -1.5570459066112840e-04 -4.5345479709577966e-06 0.0000000000000000e+00  -1.7810872389600752e-04 -3.7674260819932149e-06 0.0000000000000000e+00  -1.9995692993595874e-04 -2.3153836809093593e-06 0.0000000000000000e+00  -2.1930856634817990e-04 -4.9634697262582490e-08 0.0000000000000000e+00  -2.3308426623480725e-04 3.0249089380272999e-06 0.0000000000000000e+00  -2.3646212388851747e-04 6.5714721814808440e-06 0.0000000000000000e+00  -2.2209857355115029e-04 9.5709477333749971e-06 0.0000000000000000e+00  0.0000000000000000e+00 0.0000000000000000e+00 0.0000000000000000e+00  -1.4402623960785812e-05 -8.4548597768542081e-07 0.0000000000000000e+00  -2.9220946287197054e-05 -1.6989950978590746e-06 0.0000000000000000e+00  -4.4877334191019473e-05 -2.5662487130542009e-06 0.0000000000000000e+00  -6.1787329569980000e-05 -3.4467224717199313e-06 0.0000000000000000e+00  -8.0350744960768015e-05 -4.3294371268627774e-06 0.0000000000000000e+00  -1.0093479009368688e-04 -5.1873939480083155e-06 0.0000000000000000e+00  -1.2384543112693621e-04 -5.9702591708291844e-06 0.0000000000000000e+00  -1.4928223876415250e-04 -6.5951294831430470e-06 0.0000000000000000e+00  -1.7727089983453673e-04 -6.9358093589662342e-06 0.0000000000000000e+00  -2.0756640322625020e-04 -6.8123673257451291e-06 0.0000000000000000e+00  -2.3951865284918997e-04 -5.9854334105670625e-06 0.0000000000000000e+00  -2.7189089913518471e-04 -4.1647351592457432e-06 0.0000000000000000e+00  -3.0262107208648011e-04 -1.0501022112545537e-06 0.0000000000000000e+00  -3.2852519288087092e-04 3.5633178791580504e-06 0.0000000000000000e+00  -3.4499794354731996e-04 9.5688743917629869e-06 0.0000000000000000e+00  -3.4598764386314907e-04 1.6181452265013529e-05 0.0000000000000000e+00  0.0000000000000000e+00 0.0000000000000000e+00 0.0000000000000000e+00  -1.7241015112797308e-05 -1.0463046019892628e-06 0.0000000000000000e+00  -3.5013707289759474e-05 -2.1085810094028532e-06 0.0000000000000000e+00  -5.3860809951674153e-05 -3.2005657131815335e-06 0.0000000000000000e+00  -7.4326740943596496e-05 -4.3295975199947081e-06 0.0000000000000000e+00  -9.6952571934460894e-05 -5.4919194646408162e-06 0.0000000000000000e+00  -1.2226221422081545e-04 -6.6659521492962542e-06 0.0000000000000000e+00  -1.5073529605895514e-04 -7.8026217139390596e-06 0.0000000000000000e+00  -1.8276088677039682e-04 -8.8117461064183852e-06 0.0000000000000000e+00  -2.1856484791914489e-04 -9.5436758745703252e-06 0.0000000000000000e+00  -2.5810261534989958e-04 -9.7663061849428777e-06 0.0000000000000000e+00  -3.0090951846979279e-04 -9.1401343000247150e-06 0.0000000000000000e+00  -3.4590399251958171e-04 -7.1998458576132975e-06 0.0000000000000000e+00  -3.9114869458687301e-04 -3.3623323544827607e-06 0.0000000000000000e+00  -4.3359875916459760e-04 2.9999243768263901e-06 0.0000000000000000e+00  -4.6892365457262234e-04 1.2357330258358068e-05 0.0000000000000000e+00  -4.9160177214196683e-04 2.4619439390193899e-05 0.0000000000000000e+00  0.0000000000000000e+00 0.0000000000000000e+00 0.0000000000000000e+00  -1.9547439681060374e-05 -1.2308591919667882e-06 0.0000000000000000e+00  -3.9742327862839220e-05 -2.4885867659144974e-06 0.0000000000000000e+00  -6.1248902164655664e-05 -3.7983842728347019e-06 0.0000000000000000e+00  -8.4747131448224857e-05 -5.1801094805438352e-06 0.0000000000000000e+00  -1.1093511572833527e-04 -6.6438127331190286e-06 0.0000000000000000e+00  -1.4052287309817017e-04 -8.1826663247586212e-06 0.0000000000000000e+00  -1.7421243435271659e-04 -9.7617451385998655e-06 0.0000000000000000e+00  -2.1265718463402996e-04 -1.1300495629597883e-05 0.0000000000000000e+00  -2.5639115308874569e-04 -1.2646029005994420e-05 0.0000000000000000e+00  -3.0571717907127793e-04 -1.3533957606732868e-05 0.0000000000000000e+00  -3.6054324722754785e-04 -1.3534385101589658e-05 0.0000000000000000e+00  -4.2016199390938042e-04 -1.1985225845388060e-05 0.0000000000000000e+00  -4.8298446726466988e-04 -7.9277073073218893e-06 0.0000000000000000e+00  -5.4627095219798773e-04 -8.5487326483602934e-08 0.0000000000000000e+00  -6.0594754796990265e-04 1.3029867018611872e-05 0.0000000000000000e+00  -6.5662895103908855e-04 3.2767720839780485e-05 0.0000000000000000e+00  0.0000000000000000e+00 0.0000000000000000e+00 0.0000000000000000e+00  -2.1207558801934825e-05 -1.3882793923571208e-06 0.0000000000000000e+00  -4.3171238809300796e-05 -2.8167068487147263e-06 0.0000000000000000e+00  -6.6670861138827859e-05 -4.3249098540394152e-06 0.0000000000000000e+00  -9.2521290974762911e-05 -5.9496867652627879e-06 0.0000000000000000e+00  -1.2158596402825888e-04 -7.7218107782632979e-06 0.0000000000000000e+00  -1.5478338605839608e-04 -9.6600360478513874e-06 0.0000000000000000e+00  -1.9308137660804467e-04 -1.1760252709487043e-05 0.0000000000000000e+00  -2.3747088438745380e-04 -1.3976437423861169e-05 0.0000000000000000e+00  -2.8890731820806106e-04 -1.6188014185153223e-05 0.0000000000000000e+00  -3.4820315958787032e-04 -1.8145365715938259e-05 0.0000000000000000e+00  -4.1585335777019074e-04 -1.9381997110517732e-05 0.0000000000000000e+00  -4.9177990794413971e-04 -1.9080604509123033e-05 0.0000000000000000e+00  -5.7500339402907557e-04 -1.5887794536059123e-05 0.0000000000000000e+00  -6.6329624041097906e-04 -7.7017818524016024e-06 0.0000000000000000e+00  -7.5293326673617634e-04 8.4785761070771294e-06 0.0000000000000000e+00  -8.3865777495099869e-04 3.6482012587008659e-05 0.0000000000000000e+00  0.0000000000000000e+00 0.0000000000000000e+00 0.0000000000000000e+00  -2.2115695983378887e-05 -1.5054561410925380e-06 0.0000000000000000e+00  -4.5079724026826340e-05 -3.0654876836133637e-06 0.0000000000000000e+00  -6.9771778480813714e-05 -4.7358431010159649e-06 0.0000000000000000e+00  -9.7129976895029562e-05 -6.5734247761535702e-06 0.0000000000000000e+00  -1.2817887480010129e-04 -8.6355667030938733e-06 0.0000000000000000e+00  -1.6405395141078265e-04 -1.0977025315122484e-05 0.0000000000000000e+00  -2.0601804122020868e-04 -1.3642555129725832e-05 0.0000000000000000e+00  -2.5546120109100194e-04 -1.6651094982691055e-05 0.0000000000000000e+00  -3.1386930247684813e-04 -1.9964195082996568e-05 0.0000000000000000e+00  -3.8273806389424529e-04 -2.3425264661212749e-05 0.0000000000000000e+00  -4.6340005658611133e-04 -2.6646112811877572e-05 0.0000000000000000e+00  -5.5672958555549564e-04 -2.8802671854318398e-05 0.0000000000000000e+00  -6.6271260589217864e-04 -2.8288149256914117e-05 0.0000000000000000e+00  -7.7994668147104290e-04 -2.2181745691100258e-05 0.0000000000000000e+00  -9.0527656462427138e-04 -5.5693529634767399e-06 0.0000000000000000e+00  -1.0338353650386114e-03 2.9115359455295226e-05 0.0000000000000000e+00  0.0000000000000000e+00 0.0000000000000000e+00 0.0000000000000000e+00  -2.2183944581335205e-05 -1.5682827911735596e-06 0.0000000000000000e+00  -4.5280780255895979e-05 -3.2048335557658343e-06 0.0000000000000000e+00  -7.0242421515845892e-05 -4.9811512673040842e-06 0.0000000000000000e+00  -9.8104293028541246e-05 -6.9749578822358407e-06 0.0000000000000000e+00  -1.3003013335083260e-04 -9.2730285684582231e-06 0.0000000000000000e+00  -1.6735905219656628e-04 -1.1973132051796222e-05 0.0000000000000000e+00  -2.1165249638316463e-04 -1.5183629174741454e-05 0.0000000000000000e+00  -2.6473424756762724e-04 -1.9017438239773756e-05 0.0000000000000000e+00  -3.2870813800005305e-04 -2.3573146685372297e-05 0.0000000000000000e+00  -4.0592368225876504e-04 -2.8887685623403727e-05 0.0000000000000000e+00  -4.9883806177402387e-04 -3.4827461549752062e-05 0.0000000000000000e+00  -6.0969905195103658e-04 -4.0849816077547290e-05 0.0000000000000000e+00  -7.3997508501476370e-04 -4.5504918409593503e-05 0.0000000000000000e+00  -8.8956722224664282e-04 -4.5473709998331229e-05 0.0000000000000000e+00  -1.0561841824079212e-03 -3.3963859588513338e-05 0.0000000000000000e+00  -1.2357607210782828e-03 1.4029728429916913e-06 0.0000000000000000e+00  0.0000000000000000e+00 0.0000000000000000e+00 0.0000000000000000e+00  -2.1352804391675767e-05 -1.5635069450240647e-06 0.0000000000000000e+00  -4.3643591268161028e-05 -3.2059084994109424e-06 0.0000000000000000e+00  -6.7855911433910122e-05 -5.0114075731274685e-06 0.0000000000000000e+00  -9.5080008882996339e-05 -7.0757572756121704e-06 0.0000000000000000e+00  -1.2657466456158999e-04 -9.5131764668666678e-06 0.0000000000000000e+00  -1.6383926584363082e-04 -1.2464530438796234e-05 0.0000000000000000e+00  -2.0869798904604232e-04 -1.6106842077957011e-05 0.0000000000000000e+00  -2.6339434694444596e-04 -2.0663276763173768e-05 0.0000000000000000e+00  -3.3068550424225049e-04 -2.6410147103644874e-05 0.0000000000000000e+00  -4.1390643579700478e-04 -3.3670400278132181e-05 0.0000000000000000e+00  -5.1693591766675926e-04 -4.2763966411030726e-05 0.0000000000000000e+00  -6.4393162054290291e-04 -5.3834577271516958e-05 0.0000000000000000e+00  -7.9862543812297114e-04 -6.6343001979605321e-05 0.0000000000000000e+00  -9.8301599733497357e-04 -7.7728795035485673e-05 0.0000000000000000e+00  -1.1959272309777624e-03 -8.0386881791493040e-05 0.0000000000000000e+00  -1.4331882935346282e-03 -5.6669109000002582e-05 0.0000000000000000e+00  0.0000000000000000e+00 0.0000000000000000e+00 0.0000000000000000e+00  -1.9602189612751061e-05 -1.4809918405540480e-06 0.0000000000000000e+00  -4.0117311891888254e-05 -3.0460456313750227e-06 0.0000000000000000e+00  -6.2507876931085490e-05 -4.7861740744467690e-06 0.0000000000000000e+00  -8.7859723405190934e-05 -6.8083597658805267e-06 0.0000000000000000e+00  -1.1745800305248490e-04 -9.2461510786815366e-06 0.0000000000000000e+00  -1.5288254988491448e-04 -1.2273894641915057e-05 0.0000000000000000e+00  -1.9613085523877325e-04 -1.6126665043530026e-05 0.0000000000000000e+00  -2.4977659525238233e-04 -2.1128765967815354e-05 0.0000000000000000e+00  -3.1716684360078853e-04 -2.7734553514770032e-05 0.0000000000000000e+00  -4.0264379055873957e-04 -3.6585111181113621e-05 0.0000000000000000e+00  -5.1172912771227234e-04 -4.8577775082658665e-05 0.0000000000000000e+00  -6.5109538265836623e-04 -6.4911513021553423e-05 0.0000000000000000e+00  -8.2791392938018360e-04 -8.6927600086168951e-05 0.0000000000000000e+00  -1.0478482041927130e-03 -1.1501082570258279e-04 0.0000000000000000e+00  -1.3116897535861006e-03 -1.4405006534489188e-04 0.0000000000000000e+00  -1.6160254147863896e-03 -1.5308562184268416e-04 0.0000000000000000e+00  0.0000000000000000e+00 0.0000000000000000e+00 0.0000000000000000e+00  -1.6961168636339785e-05 -1.3160114906653693e-06 0.0000000000000000e+00  -3.4752735998701290e-05 -2.7138567633339596e-06 0.0000000000000000e+00  -5.4254645568389896e-05 -4.2830802160410344e-06 0.0000000000000000e+00  -7.6475303734414385e-05 -6.1314996107901815e-06 0.0000000000000000e+00  -1.0263483454328029e-04 -8.3979904839388481e-06 0.0000000000000000e+00  -1.3427584312051605e-04 -1.1270661500312105e-05 0.0000000000000000e+00  -1.7341719896091175e-04 -1.5014128584603809e-05 0.0000000000000000e+00  -2.2277212480613425e-04 -2.0012126605353752e-05 0.0000000000000000e+00  -2.8605754980934122e-04 -2.6836565662453674e-05 0.0000000000000000e+00  -3.6842058297217769e-04 -3.6363785913209434e-05 0.0000000000000000e+00  -4.7697842456415149e-04 -4.9977762565881649e-05 0.0000000000000000e+00  -6.2134700341407313e-04 -6.9932773938280508e-05 0.0000000000000000e+00  -8.1364715305839758e-04 -9.9969317159210805e-05 0.0000000000000000e+00  -1.0663527107244546e-03 -1.4601445056957769e-04 0.0000000000000000e+00  -1.3835797830869668e-03 -2.1405742725697297e-04 0.0000000000000000e+00  -1.7607305270093219e-03 -2.7838969803939374e-04 0.0000000000000000e+00  0.0000000000000000e+00 0.0000000000000000e+00 0.0000000000000000e+00  -1.3514451887730856e-05 -1.0710851284573326e-06 0.0000000000000000e+00  -2.7717510827631648e-05 -2.2134245587009035e-06 0.0000000000000000e+00  -4.3342069040330181e-05 -3.5055645507655220e-06 0.0000000000000000e+00  -6.1239137894789731e-05 -5.0436635243784356e-06 0.0000000000000000e+00  -8.2457626709692632e-05 -6.9541514660355646e-06 0.0000000000000000e+00  -1.0835550759275041e-04 -9.4121832292582217e-06 0.0000000000000000e+00  -1.4076335730391754e-04 -1.2670022372303218e-05 0.0000000000000000e+00  -1.8223391449504855e-04 -1.7102490207936563e-05 0.0000000000000000e+00  -2.3643185936029313e-04 -2.3282708521110866e-05 0.0000000000000000e+00  -3.0874838020662163e-04 -3.2115057457328534e-05 0.0000000000000000e+00  -4.0725852530092859e-04 -4.5086825928352459e-05 0.0000000000000000e+00  -5.4413051550424138e-04 -6.4795854614547552e-05 0.0000000000000000e+00  -7.3735510912772419e-04 -9.6188377409081873e-05 0.0000000000000000e+00  -1.0114455431649899e-03 -1.4972709755715560e-04 0.0000000000000000e+00  -1.3896347080479738e-03 -2.4989687725300228e-04 0.0000000000000000e+00  -1.8069700154951420e-03 -4.6279744107005465e-04 0.0000000000000000e+00  0.0000000000000000e+00 0.0000000000000000e+00 0.0000000000000000e+00  -9.4036242858543275e-06 -7.5686015130305588e-07 0.0000000000000000e+00  -1.9300297959914440e-05 -1.5664289407676500e-06 0.0000000000000000e+00  -3.0216524101758842e-05 -2.4870776970205733e-06 0.0000000000000000e+00  -4.2769719356454344e-05 -3.5910103074439810e-06 0.0000000000000000e+00  -5.7731552530115363e-05 -4.9743081297985777e-06 0.0000000000000000e+00  -7.6119290387848107e-05 -6.7716444130236735e-06 0.0000000000000000e+00  -9.9336115486739420e-05 -9.1788141353558981e-06 0.0000000000000000e+00  -1.2939731194293576e-04 -1.2488020961224089e-05 0.0000000000000000e+00  -1.6930973968948496e-04 -1.7143663755232050e-05 0.0000000000000000e+00  -2.2373070359015131e-04 -2.3830825926285013e-05 0.0000000000000000e+00  -3.0014337850313980e-04 -3.3618199494424617e-05 0.0000000000000000e+00  -4.1098380038877399e-04 -4.8213926822531889e-05 0.0000000000000000e+00  -5.7745697348070106e-04 -7.0584626380607024e-05 0.0000000000000000e+00  -8.3611243397845210e-04 -1.0714860696206558e-04 0.0000000000000000e+00  -1.2496151890400715e-03 -1.7667702634259562e-04 0.0000000000000000e+00  -1.9252579936802801e-03 -3.3999073903694712e-04 0.0000000000000000e+00  0.0000000000000000e+00 0.0000000000000000e+00 0.0000000000000000e+00  -4.8216152103351426e-06 -3.9171072784680446e-07 0.0000000000000000e+00  -9.9001802110453425e-06 -8.1140647002602174e-07 0.0000000000000000e+00  -1.5510605943806940e-05 -1.2901489724998787e-06 0.0000000000000000e+00  -2.1977165064198312e-05 -1.8665603843165194e-06 0.0000000000000000e+00  -2.9708538491468183e-05 -2.5923161101376703e-06 0.0000000000000000e+00  -3.9249435841263352e-05 -3.5401435091918237e-06 0.0000000000000000e+00  -5.1362043681450744e-05 -4.8158131111416251e-06 0.0000000000000000e+00  -6.7161894436184951e-05 -6.5758844950192202e-06 0.0000000000000000e+00  -8.8356146063118691e-05 -9.0518010614357466e-06 0.0000000000000000e+00  -1.1768151145154153e-04 -1.2572923577344708e-05 0.0000000000000000e+00  -1.5974173099379346e-04 -1.7545117037872211e-05 0.0000000000000000e+00  -2.2263528931832277e-04 -2.4197387788205917e-05 0.0000000000000000e+00  -3.2093206421746247e-04 -3.1374556064101220e-05 0.0000000000000000e+00  -4.7931090259634873e-04 -3.1998539001520867e-05 0.0000000000000000e+00  -7.2561239544182744e-04 -9.4257553262554967e-07 0.0000000000000000e+00  -1.0307188379181378e-03 1.0688091804127029e-04 0.0000000000000000e+00  0.0000000000000000e+00 0.0000000000000000e+00 0.0000000000000000e+00  0.0000000000000000e+00 0.0000000000000000e+00 0.0000000000000000e+00  0.0000000000000000e+00 0.0000000000000000e+00 0.0000000000000000e+00  0.0000000000000000e+00 0.0000000000000000e+00 0.0000000000000000e+00  0.0000000000000000e+00 0.0000000000000000e+00 0.0000000000000000e+00  0.0000000000000000e+00 0.0000000000000000e+00 