<?xml version="1.0"?>
<VTKFile type="UnstructuredGrid"  version="0.1"  >
<UnstructuredGrid>
<Piece  NumberOfPoints="289" NumberOfCells="512">
<Points>
<DataArray  type="Float64"  NumberOfComponents="3"  format="ascii">0 0 0  0.0625 0 0  0.125 0 0  0.1875 0 0  0.25 0 0  0.3125 0 0  0.375 0 0  0.4375 0 0  0.5 0 0  0.5625 0 0  0.625 0 0  0.6875 0 0  0.75 0 0  0.8125 0 0  0.875 0 0  0.9375 0 0  1 0 0  0 0.0625 0  0.0625545496677746 0.06246454933422149 0  0.1251118581303599 0.06242844056457887 0  0.1876748770899641 0.06239105142610792 0  0.250246967491653 0.06235187803478708 0  0.3128321589239997 0.06231061055448659 0  0.3754354879028767 0.06226722655442427 0  0.438063473478445 0.06222210064465792 0  0.5007248416486125 0.06217611775256377 0  0.5634317352037685 0.06213075508864681 0  0.6262019575922524 0.06208805347366098 0  0.6890636253212393 0.06205030507446036 0  0.7520659317079256 0.06201905976123005 0  0.8153067089371528 0.06199240993087601 0  0.8790097166215792 0.06195735883997497 0  0.9437604358807827 0.06186593501822266 0  1.011304285276921 0.06154961963321089 0  0 0.125 0  0.06260632967208327 0.1249297113405724 0  0.1252180140745278 0.1248580437863817 0  0.1878407843677375 0.1247836843889393 0  0.2504811736281485 0.1247055435118695 0  0.3131470246425802 0.1246229028496541 0  0.3758481475947522 0.1245356051407728 0  0.4385972271937731 0.1244442889928773 0  0.5014111521047785 0.1243506549937714 0  0.5643130944462261 0.1242577151061262 0  0.6273360003239434 0.124169914717356 0  0.6905288658192835 0.1240929121858795 0  0.7539686242442548 0.1240326577995862 0  0.8177829548789675 0.1239933602862981 0  0.8821910618301954 0.1239747581433331 0  0.9475554662489649 0.1239749136560606 0  1.014326253147384 0.1240350280702307 0  0 0.1875 0  0.06265278274172938 0.1873962276535915 0  0.1253131663925579 0.1872902438020141 0  0.1879892821459226 0.1871799206904142 0  0.2506903968683502 0.1870634288823182 0  0.3134276286699337 0.1869394471668877 0  0.3762148626064148 0.1868074473129201 0  0.4390699789742755 0.1866680720239536 0  0.5020165602840014 0.1865236091721769 0  0.565086331729917 0.1863785311857356 0  0.6283227238884168 0.186240001111967 0  0.6917860893431265 0.1861181268166301 0  0.7555609950553547 0.1860255468003762 0  0.8197645519848485 0.1859756030472863 0  0.8845483042295516 0.1859776218493109 0  0.9500655160647405 0.1860249120953562 0  1.016329196390414 0.1860557653711292 0  0 0.25 0  0.06269171470218882 0.2498649489904894 0  0.1253927671359292 0.2497267085752393 0  0.1881131333107382 0.2495821707532494 0  0.250864166040789 0.2494285505883198 0  0.3136594601114682 0.2492636352768173 0  0.3765159507825335 0.2490861484294856 0  0.4394553567422846 0.2488962738194986 0  0.5025061002179351 0.2486963795110586 0  0.565705841221229 0.2484919640074178 0  0.6291046957338849 0.2482927931168466 0  0.6927689181645204 0.2481140794877496 0  0.7567839259131086 0.2479773266752119 0  0.8212531293630498 0.2479100340349275 0  0.8862835062839941 0.2479427119245083 0  0.9519393581032781 0.2481006247749719 0  1.018140827727893 0.248388734885931 0  0 0.3125 0  0.06272143701794265 0.312336865771898 0  0.1254533232181828 0.312169410900936 0  0.1882067969172288 0.3119933653384457 0  0.2509944970632457 0.3118047340693237 0  0.3138315105884312 0.3116000454740337 0  0.3767365801996851 0.3113767546720743 0  0.4397336900829243 0.3111338799284917 0  0.5028541551700053 0.3108729697672577 0  0.5661393062182413 0.3105995128914512 0  0.6296437144378848 0.3103248936131712 0  0.6934384816217871 0.3100689213660957 0  0.7576131536622871 0.3098627440601612 0  0.8222729199989941 0.3097514575710882 0  0.8875249241464068 0.3097947908075248 0  0.9534459533620296 0.3100629169743615 0  1.020032616356388 0.3106234913063103 0  0 0.375 0  0.06274086461950272 0.3748131131639609 0  0.1254926042606029 0.3746206486715428 0  0.1882667698238558 0.3744170134023574 0  0.2510764009935925 0.3741967486324484 0  0.3139369793872563 0.3739547187316737 0  0.3768676676651266 0.3736864804617752 0  0.4398929791157913 0.3733889448027189 0  0.5030450526454847 0.373061495079392 0  0.5663667114147697 0.3727077939380921 0  0.6299153978818229 0.3723385862134691 0  0.6937677830193054 0.3719758421250363 0  0.7580241610837918 0.3716584711110973 0  0.8228105431493473 0.3714493304235658 0  0.8882751108245664 0.3714419935364402 0  0.9545767467559035 0.371763553646959 0  1.021872786871485 0.3725674616867903 0  0 0.4375 0  0.06274956205240205 0.4372949409626067 0  0.1255097432828941 0.4370829929099321 0  0.1882917586832007 0.4368571477697327 0  0.2511081521954756 0.4366102891523679 0  0.3139736659620972 0.4363352471592227 0  0.3769064090212204 0.4360250281384643 0  0.4399295129455958 0.4356733520296679 0  0.503073550722011 0.4352757167944227 0  0.5663801110043721 0.4348313475351667 0  0.6299070373539465 0.4343465914470805 0  0.6937358824994839 0.433840575816217 0  0.7579819278819665 0.4333541426661437 0  0.8228064857653326 0.4329628431095275 0  0.8884303445961965 0.4327933144750868 0  0.9551481343756982 0.4330387429530153 0  1.023352380265945 0.4339642936896632 0  0 0.5 0  0.06274773415749785 0.4997836408911619 0  0.1255052221364382 0.4995591452558171 0  0.1882826702120828 0.4993181217921311 0  0.2510913053138425 0.4990517358074487 0  0.3139440567018523 0.4987505524992642 0  0.3768565133853782 0.4984045025420664 0  0.4398483798638303 0.4980030936340805 0  0.5029458199506881 0.4975361023162993 0  0.5661853639343353 0.4969951819326103 0  0.6296205082244488 0.496377178864562 0  0.6933327724056256 0.4956905418564567 0  0.7574496549476314 0.4949670647545628 0  0.8221721503006523 0.4942819966950147 0  0.8878134866375458 0.4937848360228114 0  0.9548494636622465 0.4937374793244806 0  1.023988946372127 0.4945431450284317 0  0 0.5625 0  0.06273615993961518 0.562280429299537 0  0.125480736524799 0.5620516971388332 0  0.1882424055457702 0.561804234784321 0  0.2510304290379113 0.5615276385467418 0  0.3138550432259376 0.5612102405962285 0  0.3767280314029063 0.5608386959627972 0  0.4396636935572524 0.5603976564986226 0  0.502680654662393 0.5598697060946926 0  0.565805414018127 0.5592359500827651 0  0.6290794168480079 0.5584781106553733 0  0.6925729821150798 0.5575839285806133 0  0.7564117961730211 0.5565595429280403 0  0.8208242574245957 0.5554557487709916 0  0.8862179599424053 0.5544185103715136 0  0.9532869977147254 0.5537700337364083 0  1.023148108572636 0.5540996711645449 0  0 0.625 0  0.06271607208017396 0.6247862920823627 0  0.1254389416285883 0.624562801630638 0  0.1881754483165386 0.6243191946854502 0  0.2509325134055829 0.624043917384432 0  0.3137171531102133 0.6237234749907198 0  0.3765365028362114 0.6233415787450041 0  0.4393979696129104 0.622878132771856 0  0.502309854168991 0.6223080827171119 0  0.5652833204970997 0.6216002901788643 0  0.6283378148876876 0.6207169829551125 0  0.6915146755131111 0.6196153566970863 0  0.7549088823669154 0.6182556014115662 0  0.8187374677179035 0.6166264713515921 0  0.8834708179191072 0.6148144468660545 0  0.9500404364219769 0.6131574558342242 0  1.020106449478682 0.6124689118967297 0  0 0.6875 0  0.06268899158396526 0.6873018097131853 0  0.125383094246457 0.6870937938987466 0  0.1880872593297554 0.6868654710436234 0  0.2508060357992189 0.6866048434084867 0  0.3135431927308108 0.6862974282220604 0  0.3763011148811385 0.6859249992011214 0  0.4390798986318561 0.6854638869650201 0  0.5018761736938139 0.6848826405126908 0  0.5646820466499073 0.6841388132967353 0  0.627485704378389 0.6831746849482712 0  0.6902783999876499 0.68191216834167 0  0.7530807935313399 0.6802491463044825 0  0.8160210907583242 0.6780674915165202 0  0.8795338408259561 0.6752936755024308 0  0.9447495412105434 0.6721526462922527 0  1.013977730141902 0.6697602073477343 0  0 0.75 0  0.06265653750581755 0.7498269909692487 0  0.1253166323402842 0.7496448216096449 0  0.187983538821782 0.7494436408568795 0  0.250659755637781 0.7492119560810105 0  0.3133463395972519 0.7489355310426685 0  0.3760417585773273 0.748595876121243 0  0.4387399698625002 0.7481680734714929 0  0.5014272618268845 0.7476175341720875 0  0.564077280721349 0.7468950329297581 0  0.6266439214335666 0.7459289262248767 0  0.6890536614458651 0.744612707843242 0  0.7512067539201093 0.7427850165373825 0  0.8130243037579884 0.7401996709502985 0  0.8746688337839373 0.736499906182534 0  0.9373252349238748 0.7313529812332081 0  1.003984931025728 0.7260075217888424 0  0 0.8125 0  0.06262024301253442 0.8123611504612585 0  0.1252427621866571 0.8122145638065404 0  0.1878694808631674 0.8120518675206314 0  0.2505014381189287 0.8118631512887718 0  0.3131379773543413 0.8116359013594333 0  0.3757753443478691 0.8113534939687047 0  0.4384041970229781 0.8109929490706499 0  0.5010051172348146 0.8105214533404762 0  0.5635404519397446 0.809890805646784 0  0.6259394956267759 0.8090282336680333 0  0.6880722085865186 0.8078204804699591 0  0.7497062949435357 0.8060842402042976 0  0.8104548840464043 0.8035059912759821 0  0.8698021792449495 0.7995095661619783 0  0.9277442486787851 0.7929743084610449 0  0.9907123208091819 0.7819751467595613 0  0 0.875 0  0.06258141590975858 0.8749028638424683 0  0.1251641435723747 0.8748001164956184 0  0.187749195809352 0.8746856595984592 0  0.2503368316870109 0.8745522019714331 0  0.3129258571541653 0.8743904171068051 0  0.3755123897254693 0.8741877312630463 0  0.4380875839643493 0.8739264875422964 0  0.5006333051586273 0.873581071158832 0  0.5631136240199348 0.8731133070959503 0  0.6254575115060905 0.8724649643432661 0  0.6875224915372408 0.8715452640862905 0  0.7490166826637323 0.8702087368143786 0  0.8093323843339211 0.8682085746110479 0  0.8672107118942909 0.8650634129405785 0  0.9201716967170916 0.8595730152690221 0  0.9639370178822445 0.8480620246883412 0  0 0.9375 0  0.06254107801461158 0.9374500237007737 0  0.125082757682826 0.9373971000362625 0  0.1876254762232304 0.937338017954901 0  0.2501692543835452 0.9372689165289052 0  0.3127133092454882 0.9371848214335453 0  0.3752553644670211 0.9370789728388129 0  0.4377903596704211 0.
[...]
<PointData  Vectors="f_54"> 
<DataArray  type="Float64"  Name="f_54"  NumberOfComponents="3" format="ascii">0.0000000000000000e+00 0.0000000000000000e+00 0.0000000000000000e+00  0.0000000000000000e+00 0.0000000000000000e+00 0.0000000000000000e+00  0.0000000000000000e+00 0.0000000000000000e+00 0.0000000000000000e+00  0.0000000000000000e+00 0.0000000000000000e+00 0.0000000000000000e+00  0.0000000000000000e+00 0.0000000000000000e+00 0.0000000000000000e+00  0.0000000000000000e+00 0.0000000000000000e+00 0.0000000000000000e+00  0.0000000000000000e+00 0.0000000000000000e+00 0.0000000000000000e+00  0.0000000000000000e+00 0.0000000000000000e+00 0.0000000000000000e+00  0.0000000000000000e+00 0.0000000000000000e+00 0.0000000000000000e+00  0.0000000000000000e+00 0.0000000000000000e+00 0.0000000000000000e+00  0.0000000000000000e+00 0.0000000000000000e+00 0.0000000000000000e+00  0.0000000000000000e+00 0.0000000000000000e+00 0.0000000000000000e+00  0.0000000000000000e+00 0.0000000000000000e+00 0.0000000000000000e+00  0.0000000000000000e+00 0.0000000000000000e+00 0.0000000000000000e+00  0.0000000000000000e+00 0.0000000000000000e+00 0.0000000000000000e+00  0.0000000000000000e+00 0.0000000000000000e+00 0.0000000000000000e+00  0.0000000000000000e+00 0.0000000000000000e+00 0.0000000000000000e+00  0.0000000000000000e+00 0.0000000000000000e+00 0.0000000000000000e+00  -4.4030969343009190e-06 -3.1514259011861741e-07 0.0000000000000000e+00  -8.9276184428912257e-06 -6.3179814828069749e-07 0.0000000000000000e+00  -1.3699021389331616e-05 -9.5066423532416769e-07 0.0000000000000000e+00  -1.8840795418180854e-05 -1.2699796804369711e-06 0.0000000000000000e+00  -2.4472462737155799e-05 -1.5840013798080390e-06 0.0000000000000000e+00  -3.0706069616299318e-05 -1.8811472188157159e-06 0.0000000000000000e+00  -3.7640756480071258e-05 -2.1417630426641958e-06 0.0000000000000000e+00  -4.5355277457332129e-05 -2.3355462083407972e-06 0.0000000000000000e+00  -5.3899190357126797e-05 -2.4187139595006521e-06 0.0000000000000000e+00  -6.3285900454997527e-05 -2.3308294265432399e-06 0.0000000000000000e+00  -7.3498118625821195e-05 -1.9899937199577209e-06 0.0000000000000000e+00  -8.4539732839363329e-05 -1.2800238647208238e-06 0.0000000000000000e+00  -9.6647517379698340e-05 -3.8176720599060159e-09 0.0000000000000000e+00  -1.1106504565101325e-04 2.2972497617391283e-06 0.0000000000000000e+00  -1.3295355885641262e-04 7.0668253381591601e-06 0.0000000000000000e+00  -1.8412349455659797e-04 2.0041701594789379e-05 0.0000000000000000e+00  0.0000000000000000e+00 0.0000000000000000e+00 0.0000000000000000e+00  -8.6875684617569471e-06 -6.2895209582803326e-07 0.0000000000000000e+00  -1.7620071753003615e-05 -1.2621364993928324e-06 0.0000000000000000e+00  -2.7050637549214251e-05 -1.9022530826088084e-06 0.0000000000000000e+00  -3.7229767403805546e-05 -2.5472998873957324e-06 0.0000000000000000e+00  -4.8402005236409507e-05 -3.1875899692992408e-06 0.0000000000000000e+00  -6.0799539994187181e-05 -3.8020244254725556e-06 0.0000000000000000e+00  -7.4631710756825680e-05 -4.3534928217558134e-06 0.0000000000000000e+00  -9.0069578207464405e-05 -4.7834527605002938e-06 0.0000000000000000e+00  -1.0722536771420323e-04 -5.0060446357414192e-06 0.0000000000000000e+00  -1.2612820255992143e-04 -4.9025148391350698e-06 0.0000000000000000e+00  -1.4670110711276807e-04 -4.3171363052540612e-06 0.0000000000000000e+00  -1.6875083078967093e-04 -3.0561642157128862e-06 0.0000000000000000e+00  -1.9198753920720356e-04 -8.9356651485624579e-07 0.0000000000000000e+00  -2.1605137994401189e-04 2.3921758631379266e-06 0.0000000000000000e+00  -2.4014348280257413e-04 6.7829659799129876e-06 0.0000000000000000e+00  -2.5928559407621004e-04 1.0520675437478476e-05 0.0000000000000000e+00  0.0000000000000000e+00 0.0000000000000000e+00 0.0000000000000000e+00  -1.2725207369471300e-05 -9.3832498844987899e-07 0.0000000000000000e+00  -2.5821292249400734e-05 -1.8858648679547045e-06 0.0000000000000000e+00  -3.9671592992646645e-05 -2.8497994368539344e-06 0.0000000000000000e+00  -5.4658481031708638e-05 -3.8308560612987720e-06 0.0000000000000000e+00  -7.1159922208754620e-05 -4.8190537367285644e-06 0.0000000000000000e+00  -8.9541429169791124e-05 -5.7881724856430089e-06 0.0000000000000000e+00  -1.1014155485085243e-04 -6.6886197825066525e-06 0.0000000000000000e+00  -1.3324887202236836e-04 -7.4386050341448855e-06 0.0000000000000000e+00  -1.5906815682765818e-04 -7.9140851385599178e-06 0.0000000000000000e+00  -1.8767291165232579e-04 -7.9390878682258075e-06 0.0000000000000000e+00  -2.1893895361038869e-04 -7.2803006429827683e-06 0.0000000000000000e+00  -2.5244428579362899e-04 -5.6545299293171150e-06 0.0000000000000000e+00  -2.8728660556824929e-04 -2.7684321098638283e-06 0.0000000000000000e+00  -3.2165983521290818e-04 1.5633296730317842e-06 0.0000000000000000e+00  -3.5171441359692547e-04 7.1161253090536635e-06 0.0000000000000000e+00  -3.6855323665023471e-04 1.2637000836944466e-05 0.0000000000000000e+00  0.0000000000000000e+00 0.0000000000000000e+00 0.0000000000000000e+00  -1.6386354537718962e-05 -1.2379197468146872e-06 0.0000000000000000e+00  -3.3271127713991117e-05 -2.4931027751082799e-06 0.0000000000000000e+00  -5.1169566450602215e-05 -3.7806159799403759e-06 0.0000000000000000e+00  -7.0600869011857301e-05 -5.1081463083309825e-06 0.0000000000000000e+00  -9.2086461456113622e-05 -6.4708469459191971e-06 0.0000000000000000e+00  -1.1614234767918961e-04 -7.8442574685624137e-06 0.0000000000000000e+00  -1.4326283209057638e-04 -9.1745871252823474e-06 0.0000000000000000e+00  -1.7389224895513104e-04 -1.0365774835146700e-05 0.0000000000000000e+00  -2.0838035308771955e-04 -1.1263249902730363e-05 0.0000000000000000e+00  -2.4691514815573503e-04 -1.1635688214122868e-05 0.0000000000000000e+00  -2.8942234487651467e-04 -1.1159196936940850e-05 0.0000000000000000e+00  -3.3540863061709379e-04 -9.4149373104413290e-06 0.0000000000000000e+00  -3.8369628955797438e-04 -5.9240625916669505e-06 0.0000000000000000e+00  -4.3193495884126743e-04 -2.6657392268860112e-07 0.0000000000000000e+00  -4.7569684124723963e-04 7.6396089043945409e-06 0.0000000000000000e+00  -5.0708682325361894e-04 1.7027933307204498e-05 0.0000000000000000e+00  0.0000000000000000e+00 0.0000000000000000e+00 0.0000000000000000e+00  -1.9541296942404765e-05 -1.5194025547428993e-06 0.0000000000000000e+00  -3.9707671481741898e-05 -3.0675710126078469e-06 0.0000000000000000e+00  -6.1145494061400879e-05 -4.6713818888951430e-06 0.0000000000000000e+00  -8.4514013099696604e-05 -6.3505945408143738e-06 0.0000000000000000e+00  -1.1048772263363635e-04 -8.1124417167335498e-06 0.0000000000000000e+00  -1.3975199523277417e-04 -9.9436210338521816e-06 0.0000000000000000e+00  -1.7298855750647458e-04 -1.1798410872538979e-05 0.0000000000000000e+00  -2.1084631606157236e-04 -1.3581382918685376e-05 0.0000000000000000e+00  -2.5389166761457458e-04 -1.5123159104606212e-05 0.0000000000000000e+00  -3.0253051599772661e-04 -1.6148386093124972e-05 0.0000000000000000e+00  -3.5689099512559229e-04 -1.6237691560566155e-05 0.0000000000000000e+00  -4.1664949949574099e-04 -1.4791924723322393e-05 0.0000000000000000e+00  -4.8077039155493718e-04 -1.1020593541331797e-05 0.0000000000000000e+00  -5.4711426445730015e-04 -3.9996038022752042e-06 0.0000000000000000e+00  -6.1188492910711930e-04 7.1289820668359569e-06 0.0000000000000000e+00  -6.6905726535162015e-04 2.2739492468742703e-05 0.0000000000000000e+00  0.0000000000000000e+00 0.0000000000000000e+00 0.0000000000000000e+00  -2.2063206829417842e-05 -1.7711185959859522e-06 0.0000000000000000e+00  -4.4872780033527103e-05 -3.5857662039754376e-06 0.0000000000000000e+00  -6.9200926851026268e-05 -5.4864562878588044e-06 0.0000000000000000e+00  -9.5846052443184537e-05 -7.5103720649467783e-06 0.0000000000000000e+00  -1.2564199358703503e-04 -9.6846611496799500e-06 0.0000000000000000e+00  -1.5946052298794689e-04 -1.2018661312687095e-05 0.0000000000000000e+00  -1.9820320517845155e-04 -1.4491157911963332e-05 0.0000000000000000e+00  -2.4277718424808991e-04 -1.7029895440124097e-05 0.0000000000000000e+00  -2.9404779006504938e-04 -1.9479442217041273e-05 0.0000000000000000e+00  -3.5275936235777341e-04 -2.1552457096905553e-05 0.0000000000000000e+00  -4.1941517659255608e-04 -2.2759496473608359e-05 0.0000000000000000e+00  -4.9410902751092871e-04 -2.2316377903185539e-05 0.0000000000000000e+00  -5.7630674189600281e-04 -1.9040831005250029e-05 0.0000000000000000e+00  -6.6458995504833527e-04 -1.1277686134047928e-05 0.0000000000000000e+00  -7.5641224725670766e-04 3.0681797291681341e-06 0.0000000000000000e+00  -8.4802267572808149e-04 2.6289127461513263e-05 0.0000000000000000e+00  0.0000000000000000e+00 0.0000000000000000e+00 0.0000000000000000e+00  -2.3832888559152385e-05 -1.9783456324002503e-06 0.0000000000000000e+00  -4.8521396629607560e-05 -4.0173268108777914e-06 0.0000000000000000e+00  -7.4951565368234143e-05 -6.1780292258405544e-06 0.0000000000000000e+00  -1.0405316949839289e-04 -8.5196917683263200e-06 0.0000000000000000e+00  -1.3681872916967714e-04 -1.1096936987159494e-05 0.0000000000000000e+00  -1.7431694243139095e-04 -1.3953985281366349e-05 0.0000000000000000e+00  -2.1769644497525258e-04 -1.7113542031657971e-05 0.0000000000000000e+00  -2.6817368437890627e-04 -2.0556451678331016e-05 0.0000000000000000e+00  -3.2699625837480861e-04 -2.4185589584131072e-05 0.0000000000000000e+00  -3.9537128004752802e-04 -2.7763473463600325e-05 0.0000000000000000e+00  -4.7434966343851858e-04 -3.0807941437170888e-05 0.0000000000000000e+00  -5.6466661841956720e-04 -3.2426308070369004e-05 0.0000000000000000e+00  -6.6656343847208450e-04 -3.1073235693101028e-05 0.0000000000000000e+00  -7.7966079430540221e-04 -2.4245619003497537e-05 0.0000000000000000e+00  -9.0301066421988568e-04 -8.1854189682938796e-06 0.0000000000000000e+00  -1.0355070744921672e-03 2.2309733116330652e-05 0.0000000000000000e+00  0.0000000000000000e+00 0.0000000000000000e+00 0.0000000000000000e+00  -2.4745405104370687e-05 -2.1242531324552539e-06 0.0000000000000000e+00  -5.0434926352481287e-05 -4.3268948630724363e-06 0.0000000000000000e+00  -7.8047584929166633e-05 -6.6887226470235489e-06 0.0000000000000000e+00  -1.0862693639752621e-04 -9.2937189444627118e-06 0.0000000000000000e+00  -1.4331252881121228e-04 -1.2229520710155901e-05 0.0000000000000000e+00  -1.8336844860830203e-04 -1.5585749843301374e-05 0.0000000000000000e+00  -2.3020523009407626e-04 -1.9448052845609383e-05 0.0000000000000000e+00  -2.8538841904785368e-04 -2.3883644574888854e-05 0.0000000000000000e+00  -3.5062305839439570e-04 -2.8910197942232445e-05 0.0000000000000000e+00  -4.2769932280059758e-04 -3.4432520239852979e-05 0.0000000000000000e+00  -5.1838427194442357e-04 -4.0118422394625392e-05 0.0000000000000000e+00  -6.2425819565776574e-04 -4.5165213361523631e-05 0.0000000000000000e+00  -7.4654106450627552e-04 -4.7887393856564046e-05 0.0000000000000000e+00  -8.8605737137822244e-04 -4.5062441019425165e-05 0.0000000000000000e+00  -1.0436236325362695e-03 -3.1050374061598071e-05 0.0000000000000000e+00  -1.2211868802163345e-03 3.2360079063210235e-06 0.0000000000000000e+00  0.0000000000000000e+00 0.0000000000000000e+00 0.0000000000000000e+00  -2.4718384393377564e-05 -2.1916025049945421e-06 0.0000000000000000e+00  -5.0438368954359490e-05 -4.4776110163008816e-06 0.0000000000000000e+00  -7.8200567119991949e-05 -6.9570373441780552e-06 0.0000000000000000e+00  -1.0913226804515351e-04 -9.7380631768223066e-06 0.0000000000000000e+00  -1.4449321541103465e-04 -1.2942756565832321e-05 0.0000000000000000e+00  -1.8572301251159801e-04 -1.6711454034097313e-05 0.0000000000000000e+00  -2.3448778196259138e-04 -2.1205675311564520e-05 0.0000000000000000e+00  -2.9271985916923406e-04 -2.6606652825981867e-05 0.0000000000000000e+00  -3.6263790255107361e-04 -3.3102477584079152e-05 0.0000000000000000e+00  -4.4672570557093526e-04 -4.0847596102751535e-05 0.0000000000000000e+00  -5.4763935206597820e-04 -4.9857805157366683e-05 0.0000000000000000e+00  -6.6801814933992306e-04 -5.9760714260518973e-05 0.0000000000000000e+00  -8.1023681083266358e-04 -6.9243563461339532e-05 0.0000000000000000e+00  -9.7634160869754542e-04 -7.4951842421043643e-05 0.0000000000000000e+00  -1.1688100043487114e-03 -6.9656661943441533e-05 0.0000000000000000e+00  -1.3931522487117796e-03 -3.9802706556831918e-05 0.0000000000000000e+00  0.0000000000000000e+00 0.0000000000000000e+00 0.0000000000000000e+00  -2.3701461021075999e-05 -2.1650766693588042e-06 0.0000000000000000e+00  -4.8420211756197525e-05 -4.4360663657623191e-06 0.0000000000000000e+00  -7.5215777856225643e-05 -6.9255266142249806e-06 0.0000000000000000e+00  -1.0525481638318458e-04 -9.7610739197653573e-06 0.0000000000000000e+00  -1.3987152388224947e-04 -1.3094607086834988e-05 0.0000000000000000e+00  -1.8063619669324228e-04 -1.7113645672304468e-05 0.0000000000000000e+00  -2.2943251651737825e-04 -2.2055493363751906e-05 0.0000000000000000e+00  -2.8854016521604836e-04 -2.8224451527721218e-05 0.0000000000000000e+00  -3.6071089800532324e-04 -3.6010359874808727e-05 0.0000000000000000e+00  -4.4921006982180634e-04 -4.5900261186414799e-05 0.0000000000000000e+00  -5.5776960360203029e-04 -5.8455061801504054e-05 0.0000000000000000e+00  -6.9037088539027275e-04 -7.4164901660234462e-05 0.0000000000000000e+00  -8.5080333191991041e-04 -9.2938988343511020e-05 0.0000000000000000e+00  -1.0422464041090795e-03 -1.1263275272656055e-04 0.0000000000000000e+00  -1.2681025407673741e-03 -1.2573924160123794e-04 0.0000000000000000e+00  -1.5356112308538364e-03 -1.1453417018172221e-04 0.0000000000000000e+00  0.0000000000000000e+00 0.0000000000000000e+00 0.0000000000000000e+00  -2.1685907784320604e-05 -2.0339419588321214e-06 0.0000000000000000e+00  -4.4353228380001055e-05 -4.1781093616636785e-06 0.0000000000000000e+00  -6.9027148104628051e-05 -6.5507929762206910e-06 0.0000000000000000e+00  -9.6854709678105972e-05 -9.2898182581130987e-06 0.0000000000000000e+00  -1.2917762278446225e-04 -1.2565435728007668e-05 0.0000000000000000e+00  -1.6762120761223918e-04 -1.6597700259672087e-05 0.0000000000000000e+00  -2.1420501933749046e-04 -2.1681137725215399e-05 0.0000000000000000e+00  -2.7147854639821787e-04 -2.8221032731856037e-05 0.0000000000000000e+00  -3.4267766775094438e-04 -3.6788038019488024e-05 0.0000000000000000e+00  -4.3187695427432935e-04 -4.8200426219875534e-05 0.0000000000000000e+00  -5.4406593301643770e-04 -6.3641265982468685e-05 0.0000000000000000e+00  -6.8498605735951010e-04 -8.4787091314230726e-05 0.0000000000000000e+00  -8.6043788594426243e-04 -1.1376327998385389e-04 0.0000000000000000e+00  -1.0748704692520577e-03 -1.5204500734071025e-04 0.0000000000000000e+00  -1.3315351722856588e-03 -1.9505328245442339e-04 0.0000000000000000e+00  -1.6410459592916375e-03 -2.2380098485703291e-04 0.0000000000000000e+00  0.0000000000000000e+00 0.0000000000000000e+00 0.0000000000000000e+00  -1.8713095450558561e-05 -1.7945753412326971e-06 0.0000000000000000e+00  -3.8313377013409475e-05 -3.6944869603343422e-06 0.0000000000000000e+00  -5.9730622820011723e-05 -5.8135485080001310e-06 0.0000000000000000e+00  -8.4020887515674964e-05 -8.2869551739142234e-06 0.0000000000000000e+00  -1.1244602318842170e-04 -1.1285890537374159e-05 0.0000000000000000e+00  -1.4657710805940350e-04 -1.5037992568634490e-05 0.0000000000000000e+00  -1.8843388958236150e-04 -1.9857779903728997e-05 0.0000000000000000e+00  -2.4067491478830649e-04 -2.6194225119162353e-05 0.0000000000000000e+00  -3.0685222585383968e-04 -3.4709079422079945e-05 0.0000000000000000e+00  -3.9173088865482092e-04 -4.6413289194740174e-05 0.0000000000000000e+00  -5.0162240228661132e-04 -6.2917753625710456e-05 0.0000000000000000e+00  -6.4453291922331136e-04 -8.6908648147557112e-05 0.0000000000000000e+00  -8.2955093242544574e-04 -1.2301642759880425e-04 0.0000000000000000e+00  -1.0640209764020058e-03 -1.7902452072317770e-04 0.0000000000000000e+00  -1.3457388281908731e-03 -2.6418694495359711e-04 0.0000000000000000e+00  -1.6915922369033628e-03 -3.4041943791697049e-04 0.0000000000000000e+00  0.0000000000000000e+00 0.0000000000000000e+00 0.0000000000000000e+00  -1.4880076315286184e-05 -1.4523077586797408e-06 0.0000000000000000e+00  -3.0493108163031965e-05 -2.9950638033724027e-06 0.0000000000000000e+00  -4.7609724408096881e-05 -4.7264100449748813e-06 0.0000000000000000e+00  -6.7116904676540264e-05 -6.7644043120565585e-06 0.0000000000000000e+00  -9.0094719971336518e-05 -9.2607511896984636e-06 0.0000000000000000e+00  -1.1792161173145298e-04 -1.2420146788678023e-05 0.0000000000000000e+00  -1.5242629390999014e-04 -1.6528988539015543e-05 0.0000000000000000e+00  -1.9611378053405941e-04 -2.1999874600824588e-05 0.0000000000000000e+00  -2.5250602265675185e-04 -2.9444283429499083e-05 0.0000000000000000e+00  -3.2664984307208467e-04 -3.9801053713492280e-05 0.0000000000000000e+00  -4.2583522488383644e-04 -5.4591120545035928e-05 0.0000000000000000e+00  -5.6046200213005380e-04 -7.6492976209217140e-05 0.0000000000000000e+00  -7.4457094641561879e-04 -1.1077921071604904e-04 0.0000000000000000e+00  -9.9414655465534770e-04 -1.6905911246792592e-04 0.0000000000000000e+00  -1.3155927502627107e-03 -2.7955197291817333e-04 0.0000000000000000e+00  -1.6064674874863324e-03 -5.3965999076899425e-04 0.0000000000000000e+00  0.0000000000000000e+00 0.0000000000000000e+00 0.0000000000000000e+00  -1.0340469496630556e-05 -1.0221008462739148e-06 0.0000000000000000e+00  -2.1204914962186578e-05 -2.1104791566329341e-06 0.0000000000000000e+00  -3.3145778722810155e-05 -3.3372098458502678e-06 0.0000000000000000e+00  -4.6805645088053182e-05 -4.7896185428209829e-06 0.0000000000000000e+00  -6.2978964780837149e-05 -6.5807068566584333e-06 0.0000000000000000e+00  -8.2700403766083696e-05 -8.8635425968303014e-06 0.0000000000000000e+00  -1.0737941791565975e-04 -1.1851591755850380e-05 0.0000000000000000e+00  -1.3901498910145826e-04 -1.5847143902517360e-05 0.0000000000000000e+00  -1.8055065999854616e-04 -2.1279212460364444e-05 0.0000000000000000e+00  -2.3647606505788947e-04 -2.8749732846274356e-05 0.0000000000000000e+00  -3.1385347448969662e-04 -3.9086605493285459e-05 0.0000000000000000e+00  -4.2402555700480303e-04 -5.3443566201521259e-05 0.0000000000000000e+00  -5.8520368929302724e-04 -7.3774409249417546e-05 0.0000000000000000e+00  -8.2548096490303450e-04 -1.0525902540456874e-04 0.0000000000000000e+00  -1.1837073771173679e-03 -1.6563284604773085e-04 0.0000000000000000e+00  -1.7015283585816126e-03 -3.0646192196629417e-04 0.0000000000000000e+00  0.0000000000000000e+00 0.0000000000000000e+00 0.0000000000000000e+00  -5.2991329569353195e-06 -5.2779764030230380e-07 0.0000000000000000e+00  -1.0871400707548085e-05 -1.0906149454063428e-06 0.0000000000000000e+00  -1.7005317799491591e-05 -1.7265678768265687e-06 0.0000000000000000e+00  -2.4038772398512018e-05 -2.4819884964276617e-06 0.0000000000000000e+00  -3.2393702020360192e-05 -3.4169564508934532e-06 0.0000000000000000e+00  -4.2627166386250417e-05 -4.6126856131698429e-06 0.0000000000000000e+00  -5.5512070510087941e-05 -6.1810973806945952e-06 0.0000000000000000e+00  -7.2172289693739686e-05 -8.2751973035108160e-06 0.0000000000000000e+00  -9.4320488829767305e-05 -1.1092068279049464e-05 0.0000000000000000e+00  -1.2469492792146231e-04 -1.4835867403402798e-05 0.0000000000000000e+00  -1.6788246653389721e-04 -1.9524080135294222e-05 0.0000000000000000e+00  -2.3183333846369872e-04 -2.4243323508535520e-05 0.0000000000000000e+00  -3.3016611460127228e-04 -2.4658573625003061e-05 0.0000000000000000e+00  -4.8259501300214683e-04 -6.2361333506897978e-06 0.0000000000000000e+00  -6.9816460880094686e-04 6.4275771634883299e-05 0.0000000000000000e+00  -9.1934971404032434e-04 2.0583138913063759e-04 0.0000000000000000e+00  0.0000000000000000e+00 0.0000000000000000e+00 0.0000000000000000e+00  0.0000000000000000e+00 0.0000000000000000e+00 0.0000000000000000e+00  0.0000000000000000e+00 0.0000000000000000e+00 0.0000000000000000e+00  0.0000000000000000e+00 0.0000000000000000e+00 0.0000000000000000e+00  0.0000000000000000e+00 0.0000000000000000e+00 0.0000000000000000e+00  0.0000000000000000e+00 0.0000000000000000