<?xml version="1.0"?>
<VTKFile type="UnstructuredGrid"  version="0.1"  >
<UnstructuredGrid>
<Piece  NumberOfPoints="289" NumberOfCells="512">
<Points>
<DataArray  type="Float64"  NumberOfComponents="3"  format="ascii">0 0 0  0.0625 0 0  0.125 0 0  0.1875 0 0  0.25 0 0  0.3125 0 0  0.375 0 0  0.4375 0 0  0.5 0 0  0.5625 0 0  0.625 0 0  0.6875 0 0  0.75 0 0  0.8125 0 0  0.875 0 0  0.9375 0 0  1 0 0  0 0.0625 0  0.06261117357662432 0.06247785201295263 0  0.1252260745360734 0.062455230108441 0  0.1878485624237348 0.06243167964698108 0  0.2504826568083624 0.06240680433778677 0  0.3131326184925639 0.06238030596104957 0  0.3758030341100725 0.06235203612604416 0  0.4384989198728284 0.06232206125430332 0  0.501225888064899 0.06229073708621991 0  0.5639904897920411 0.0622587786815054 0  0.6268010279497753 0.06222729053931083 0  0.6896696218031909 0.06219767563996506 0  0.7526176965040035 0.06217123219477055 0  0.8156912805439515 0.06214793396327242 0  0.8790059274907022 0.06212283710185453 0  0.9428863404494778 0.0620745902384603 0  1.008332142540935 0.06192531204725456 0  0 0.125 0  0.06271872166909037 0.1249561591991661 0  0.1254448607904709 0.1249113401059749 0  0.1881861039662264 0.1248645990377494 0  0.2509504797386085 0.1248150999824054 0  0.3137465326880631 0.1247621906683701 0  0.376583501927518 0.1247055051370066 0  0.4394715251342091 0.1246450981247336 0  0.5024219242319697 0.124581609564519 0  0.5654477090360721 0.1245164424869696 0  0.6285646140076636 0.1244519085828859 0  0.6917933667085441 0.1243912459594122 0  0.7551646391625956 0.1243383478225425 0  0.8187292600942004 0.124297041651537 0  0.8825760859181844 0.1242703129929607 0  0.9468473068497119 0.1242633731064985 0  1.011661133498458 0.1243115480419121 0  0 0.1875 0  0.06281892934315422 0.1874354337124889 0  0.1256488403007369 0.1873693316463372 0  0.1885011203382069 0.1873001999888516 0  0.2513877031776984 0.18722668323851 0  0.3143213454134852 0.1871476685065596 0  0.3773159017968076 0.187062433964693 0  0.4403866098213252 0.1869708553451128 0  0.5035504116829974 0.1868736793855312 0  0.5668263745814687 0.1867728596901002 0  0.6302363188753157 0.1866719210690041 0  0.6938057887106707 0.1865762607493123 0  0.7575652992370915 0.1864931874110697 0  0.8215506151280041 0.1864312848781539 0  0.8857963812343026 0.186398111288816 0  0.9503046824576706 0.1863929372651135 0  1.01494664715867 0.1863801045451036 0  0 0.25 0  0.06290822687506255 0.249916239452097 0  0.1258307734944228 0.2498303193904081 0  0.1887824974103862 0.2497401173120346 0  0.2517790308630579 0.2496436502583577 0  0.314837173179936 0.2495391924306516 0  0.3779752757625937 0.2494254561477788 0  0.4412136135874088 0.2493018629970909 0  0.5045747290683256 0.2491689338222379 0  0.5680837097013484 0.2490288224009174 0  0.6317682853141071 0.2488860004384507 0  0.6956584070038319 0.2487480560772026 0  0.7597843536689997 0.2486264670442966 0  0.8241708788370374 0.2485370022223967 0  0.8888216854401743 0.248499015544174 0  0.9536838914678825 0.2485323966090768 0  1.018583370759131 0.2486521330000069 0  0 0.3125 0  0.06298328447879357 0.3123992041852449 0  0.1259838883808472 0.3122955603436709 0  0.1890197919599139 0.3121862360842958 0  0.2521100031228051 0.3120684997561926 0  0.3152750846154009 0.3119398280505745 0  0.3785376789402246 0.3117980933777433 0  0.4419230168064772 0.3116418729245495 0  0.5054593711757286 0.3114709343269609 0  0.56917836403801 0.3112869670119065 0  0.6331149060408825 0.3110946378248251 0  0.6973062654566432 0.3109030408811546 0  0.7617891751987023 0.3107275557120922 0  0.8265928322085716 0.3105919732522386 0  0.891724301356061 0.3105304350894626 0  0.9571429663580179 0.3105882853328739 0  1.022728108364601 0.3108206643586052 0  0 0.375 0  0.06304111807386778 0.37488501712179 0  0.1261020922486487 0.3747664537612017 0  0.1892035484563786 0.3746407044626669 0  0.2523674119779014 0.3745041776961223 0  0.3156175896823114 0.3743533618475615 0  0.3789806750878897 0.3741849781513008 0  0.4424866726773564 0.3739962752394999 0  0.5061697177640306 0.3737855466809467 0  0.5700687227555055 0.3735529910268404 0  0.6342277807657491 0.3733020834056384 0  0.6986959518886966 0.3730416802816511 0  0.7635256818873418 0.3727891045098519 0  0.8287685626994407 0.3725743811828991 0  0.8944668004945127 0.372445477338147 0  0.9606399649385176 0.3724736875844319 0  1.02727222592434 0.3727572333453514 0  0 0.4375 0  0.06307920830237457 0.4373744073865607 0  0.1261802126157106 0.4372445013211172 0  0.1893256670134814 0.4371058834351244 0  0.2525397994156431 0.4369540327108256 0  0.3158492609243209 0.4367842930371775 0  0.3792840434650337 0.436591938415676 0  0.442878492717258 0.4363723750068405 0  0.5066724467281831 0.4361215781709954 0  0.5707125333358687 0.4358369257710988 0  0.6350536551687692 0.4355186866092243 0  0.699760664603059 0.4351725615819092 0  0.7649101617161879 0.434813837567046 0  0.8305922471230343 0.4344738058210598 0  0.8969121216935815 0.4342088515361097 0  0.9639924092777382 0.4341115651522724 0  1.031980999287285 0.434321136165136 0  0 0.5 0  0.06309563156228568 0.4998681004116204 0  0.1262142664978305 0.4997312200361733 0  0.1893798257673133 0.499584217876603 0  0.2526180551018331 0.4994216520629215 0  0.315957535019164 0.4992376534490657 0  0.3794308161543574 0.4990258456738154 0  0.4430757491154516 0.4987793610139268 0  0.5069371183531194 0.498491045652767 0  0.5710687694221619 0.498154027875682 0  0.635536569829807 0.4977629637998912 0  0.7004228080458336 0.497316514823998 0  0.765833049573294 0.4968219828476085 0  0.8319070169184127 0.4963034828635755 0  0.8988356432327773 0.4958151632250256 0  0.9668872077768301 0.4954594445754096 0  1.036448725681041 0.4954042836562495 0  0 0.5625 0  0.0630891963482027 0.5623667523556884 0  0.1262017448701249 0.5622280065995852 0  0.1893619386942257 0.56207802260336 0  0.2525960900392864 0.561910559791959 0  0.3159336697232048 0.5617186120635349 0  0.3794086255287344 0.5614941354148488 0  0.4430609872605283 0.561227789504839 0  0.5069389427852267 0.5609087510839226 0  0.5711017330942837 0.5605247331068359 0  0.63562405647618 0.5600624991172578 0  0.7006033516661875 0.5595094791772378 0  0.7661725697031132 0.5588577188786612 0  0.8325229961171425 0.558112519207177 0  0.8999440251477089 0.557309617992781 0  0.9688883954835994 0.5565444637624036 0  1.040073037146551 0.5560074119675361 0  0 0.625 0  0.06305957216967208 0.6248708671624192 0  0.1261418856584525 0.6247359615405932 0  0.1892706049942249 0.6245891933028352 0  0.2524715182068873 0.6244237832333572 0  0.3157737504842579 0.6242318556231249 0  0.3792111921776947 0.624003954195955 0  0.4428242674251376 0.6237284574607022 0  0.5066622615839459 0.6233908826782903 0  0.5707866386616789 0.6229731077648839 0  0.6352762766253109 0.6224526507263901 0  0.7002366830176451 0.6218024366098482 0  0.7658177110634312 0.620992238474055 0  0.8322490965010045 0.6199949090855432 0  0.8999107059716993 0.6188049645553302 0  0.9694612768881753 0.617483388654496 0  1.042048353301078 0.6162305120958093 0  0 0.6875 0  0.06300739361980054 0.6873807061177015 0  0.1260358981529688 0.6872556933628201 0  0.1891074874901743 0.6871188733763351 0  0.2522462460778027 0.686963329376668 0  0.3154795844156872 0.6867807933083458 0  0.3788396795808092 0.6865609750638287 0  0.4423652568461015 0.6862906676794275 0  0.5061038979629605 0.6859525286234225 0  0.5701152381753032 0.6855234115372641 0  0.6344758928544083 0.684972113929008 0  0.6992882762889269 0.6842564877654554 0  0.7646990507546463 0.6833203140367966 0  0.8309420742129773 0.6820922716698898 0  0.8984411274752596 0.680497016370984 0  0.9680377996655779 0.6785163172497263 0  1.041413854014324 0.6763805870403894 0  0 0.75 0  0.06293432037860358 0.7498962045049148 0  0.1258870979485774 0.7497871340129677 0  0.1888775517093237 0.7496671291957736 0  0.2519268625808466 0.7495296514365936 0  0.3150593109484138 0.7493667022299899 0  0.3783036295096901 0.7491680421509307 0  0.441694657289247 0.7489200888546095 0  0.5052753934430869 0.7486043130068907 0  0.5690995859654084 0.7481948531909564 0  0.6332351582708367 0.7476549121879851 0  0.6977695293336678 0.7469312394411128 0  0.7628209380524855 0.7459456190458507 0  0.8285712939880668 0.7445820337616277 0  0.8953755576076485 0.7426707751605115 0  0.9641202576863904 0.7399974929172558 0  1.037014709372545 0.7366114087649993 0  0 0.8125 0  0.06284303584186859 0.812416912590329 0  0.1257009158227293 0.8123294038795534 0  0.1885891062640899 0.81223270111885 0  0.2515247419635101 0.8121212164463926 0  0.3145276041227624 0.8119879912961089 0  0.3776212930133883 0.8118239249596381 0  0.4408346542816453 0.8116166469507633 0  0.5042034760115975 0.8113488110939486 0  0.5677723411176477 0.8109954495248174 0  0.6315961872190422 0.8105197800819717 0  0.6957404690478118 0.8098664036280915 0  0.7602781934873154 0.808949872521043 0  0.8252854159904572 0.8076343551745437 0  0.8908679432151136 0.805694731920229 0  0.9574468601678771 0.802742138052274 0  1.027888761231224 0.7981749786652957 0  0 0.875 0  0.06273717244754869 0.8749419772339444 0  0.1254847552237615 0.8748807634583123 0  0.1882536047354532 0.8748128985214113 0  0.2510558077840899 0.8747342923936985 0  0.3139054158403989 0.8746397863009659 0  0.3768193430908613 0.874522530106951 0  0.439818479169958 0.8743730504522798 0  0.5029290184491226 0.8741778054239566 0  0.5661838193204272 0.8739168860206233 0  0.6296230011569043 0.8735602927305777 0  0.693291183193486 0.873061806872509 0  0.757223688581056 0.8723486318702407 0  0.8214008390106504 0.871302424036296 0  0.8856215087892608 0.8697162864651905 0  0.9492287086881112 0.8671600608780542 0  1.010917713980805 0.8624343993078754 0  0 0.9375 0  0.06262115966983584 0.9374701751785687 0  0.1252476885416646 0.9374386778285546 0  0.1878851920184603 0.937403689433237 0  0.250539937275628 0.9373630480040648 0  0.3132192577634335 0.9373140054643571 0  0.375932063151564 0.9372528786554697 0  0.4386894991786292 0.9371745185031786 0  0.501505
[...]
<PointData  Vectors="f_54"> 
<DataArray  type="Float64"  Name="f_54"  NumberOfComponents="3" format="ascii">0.0000000000000000e+00 0.0000000000000000e+00 0.0000000000000000e+00  0.0000000000000000e+00 0.0000000000000000e+00 0.0000000000000000e+00  0.0000000000000000e+00 0.0000000000000000e+00 0.0000000000000000e+00  0.0000000000000000e+00 0.0000000000000000e+00 0.0000000000000000e+00  0.0000000000000000e+00 0.0000000000000000e+00 0.0000000000000000e+00  0.0000000000000000e+00 0.0000000000000000e+00 0.0000000000000000e+00  0.0000000000000000e+00 0.0000000000000000e+00 0.0000000000000000e+00  0.0000000000000000e+00 0.0000000000000000e+00 0.0000000000000000e+00  0.0000000000000000e+00 0.0000000000000000e+00 0.0000000000000000e+00  0.0000000000000000e+00 0.0000000000000000e+00 0.0000000000000000e+00  0.0000000000000000e+00 0.0000000000000000e+00 0.0000000000000000e+00  0.0000000000000000e+00 0.0000000000000000e+00 0.0000000000000000e+00  0.0000000000000000e+00 0.0000000000000000e+00 0.0000000000000000e+00  0.0000000000000000e+00 0.0000000000000000e+00 0.0000000000000000e+00  0.0000000000000000e+00 0.0000000000000000e+00 0.0000000000000000e+00  0.0000000000000000e+00 0.0000000000000000e+00 0.0000000000000000e+00  0.0000000000000000e+00 0.0000000000000000e+00 0.0000000000000000e+00  0.0000000000000000e+00 0.0000000000000000e+00 0.0000000000000000e+00  3.4543699443962254e-07 -1.1592449560484290e-07 0.0000000000000000e+00  7.2750632480793739e-07 -2.3495046885845386e-07 0.0000000000000000e+00  1.1875816214164351e-06 -3.6029217996831289e-07 0.0000000000000000e+00  1.7766092462177598e-06 -4.9524289146689069e-07 0.0000000000000000e+00  2.5613923022162191e-06 -6.4327070023855811e-07 0.0000000000000000e+00  3.6329223763499100e-06 -8.0820867570367820e-07 0.0000000000000000e+00  5.1180858644532132e-06 -9.9463774871428160e-07 0.0000000000000000e+00  7.1971108178546019e-06 -1.2086580523729802e-06 0.0000000000000000e+00  1.0131589176876666e-05 -1.4594615635995957e-06 0.0000000000000000e+00  1.4314199158055897e-05 -1.7626712010740731e-06 0.0000000000000000e+00  2.0368415223688476e-05 -2.1480132639032911e-06 0.0000000000000000e+00  2.9376656317568707e-05 -2.6790585695507301e-06 0.0000000000000000e+00  4.3472608384528431e-05 -3.5108357183971510e-06 0.0000000000000000e+00  6.7564823219290295e-05 -5.0786534237607646e-06 0.0000000000000000e+00  1.1493655968471520e-04 -8.7860547213890041e-06 0.0000000000000000e+00  2.2836231520475061e-04 -1.9900528009345257e-05 0.0000000000000000e+00  0.0000000000000000e+00 0.0000000000000000e+00 0.0000000000000000e+00  6.5535289876467110e-07 -2.2908366143470364e-07 0.0000000000000000e+00  1.3799694710531967e-06 -4.6439269929016473e-07 0.0000000000000000e+00  2.2521120378207507e-06 -7.1235810578335684e-07 0.0000000000000000e+00  3.3683218280096070e-06 -9.7953596966148343e-07 0.0000000000000000e+00  4.8553955924764774e-06 -1.2727565812379147e-06 0.0000000000000000e+00  6.8861588723678225e-06 -1.5994196083443020e-06 0.0000000000000000e+00  9.7012469912156904e-06 -1.9680891119060367e-06 0.0000000000000000e+00  1.3640433802033290e-05 -2.3896734046477276e-06 0.0000000000000000e+00  1.9189822963569679e-05 -2.8797073276174889e-06 0.0000000000000000e+00  2.7057234861222923e-05 -3.4626642864682666e-06 0.0000000000000000e+00  3.8301297067159010e-05 -4.1799002531527382e-06 0.0000000000000000e+00  5.4567379932655969e-05 -5.1035401236512551e-06 0.0000000000000000e+00  7.8532491060905114e-05 -6.3565275237273337e-06 0.0000000000000000e+00  1.1469466630314979e-04 -8.1156896110106885e-06 0.0000000000000000e+00  1.7029949917901928e-04 -1.0424862479020839e-05 0.0000000000000000e+00  2.5310656903537553e-04 -1.1782672132868983e-05 0.0000000000000000e+00  0.0000000000000000e+00 0.0000000000000000e+00 0.0000000000000000e+00  8.9705487920892985e-07 -3.3627329882700679e-07 0.0000000000000000e+00  1.8879315114314831e-06 -6.8190410276127419e-07 0.0000000000000000e+00  3.0786637568131521e-06 -1.0465120711992085e-06 0.0000000000000000e+00  4.6003439133125664e-06 -1.4398327545331617e-06 0.0000000000000000e+00  6.6255142320084825e-06 -1.8718467448384057e-06 0.0000000000000000e+00  9.3896013613796326e-06 -2.3530371776328385e-06 0.0000000000000000e+00  1.3219933808412603e-05 -2.8949309463047555e-06 0.0000000000000000e+00  1.8575772536429604e-05 -3.5112040556012917e-06 0.0000000000000000e+00  2.6104112991494178e-05 -4.2198053466381880e-06 0.0000000000000000e+00  3.6717757349772300e-05 -5.0467165501363651e-06 0.0000000000000000e+00  5.1703245691530207e-05 -6.0318485374234214e-06 0.0000000000000000e+00  7.2860930774702731e-05 -7.2362468602632058e-06 0.0000000000000000e+00  1.0264450316362909e-04 -8.7445980576130114e-06 0.0000000000000000e+00  1.4412269948419477e-04 -1.0642501187418106e-05 0.0000000000000000e+00  2.0010568445642322e-04 -1.2926263469061046e-05 0.0000000000000000e+00  2.6958221491733743e-04 -1.5402388491177632e-05 0.0000000000000000e+00  0.0000000000000000e+00 0.0000000000000000e+00 0.0000000000000000e+00  1.0460993755168284e-06 -4.3429731180509381e-07 0.0000000000000000e+00  2.1993242002162415e-06 -8.8109739159188088e-07 0.0000000000000000e+00  3.5807558377058007e-06 -1.3531861303230506e-06 0.0000000000000000e+00  5.3405634543242636e-06 -1.8634151136573652e-06 0.0000000000000000e+00  7.6771025400890901e-06 -2.4247386820578250e-06 0.0000000000000000e+00  1.0861888574958786e-05 -3.0502859718368799e-06 0.0000000000000000e+00  1.5273083559733163e-05 -3.7535793153972042e-06 0.0000000000000000e+00  2.1440478209298649e-05 -4.5491293695268709e-06 0.0000000000000000e+00  3.0104786112720395e-05 -5.4538098070624719e-06 0.0000000000000000e+00  4.2292187952342771e-05 -6.4895876132088973e-06 0.0000000000000000e+00  5.9398330164761256e-05 -7.6881302724533115e-06 0.0000000000000000e+00  8.3256456166791993e-05 -9.0968759521021133e-06 0.0000000000000000e+00  1.1611362357672132e-04 -1.0782931551519062e-05 0.0000000000000000e+00  1.6032266114499158e-04 -1.2823742449445565e-05 0.0000000000000000e+00  2.1735139892645056e-04 -1.5262356200584261e-05 0.0000000000000000e+00  2.8560413691471525e-04 -1.7994261796326602e-05 0.0000000000000000e+00  0.0000000000000000e+00 0.0000000000000000e+00 0.0000000000000000e+00  1.0894328226427455e-06 -5.1997262937596682e-07 0.0000000000000000e+00  2.2861497801342320e-06 -1.0556217680911271e-06 0.0000000000000000e+00  3.7113983076473488e-06 -1.6229130269186870e-06 0.0000000000000000e+00  5.5162129404910654e-06 -2.2378423734546295e-06 0.0000000000000000e+00  7.9012474149170395e-06 -2.9163433746837719e-06 0.0000000000000000e+00  1.1143056217080175e-05 -3.6740655948703696e-06 0.0000000000000000e+00  1.5629705280565136e-05 -4.5260422964611862e-06 0.0000000000000000e+00  2.1908834973698812e-05 -5.4863749302325487e-06 0.0000000000000000e+00  3.0750729980497675e-05 -6.5682873969534032e-06 0.0000000000000000e+00  4.3226157392901673e-05 -7.7853172890764508e-06 0.0000000000000000e+00  6.0790783249701865e-05 -9.1550788136360082e-06 0.0000000000000000e+00  8.5349455356505593e-05 -1.0707929552348410e-05 0.0000000000000000e+00  1.1923681940966350e-04 -1.2503757305550696e-05 0.0000000000000000e+00  1.6499316183873268e-04 -1.4660487187726202e-05 0.0000000000000000e+00  2.2477373706073671e-04 -1.7397638921028473e-05 0.0000000000000000e+00  2.9937844844946755e-04 -2.1099274321209631e-05 0.0000000000000000e+00  0.0000000000000000e+00 0.0000000000000000e+00 0.0000000000000000e+00  1.0271917081744639e-06 -5.9012300296908455e-07 0.0000000000000000e+00  2.1483671137927192e-06 -1.1991238181256898e-06 0.0000000000000000e+00  3.4696390329274989e-06 -1.8461984641803163e-06 0.0000000000000000e+00  5.1239163858448864e-06 -2.5506449832654305e-06 0.0000000000000000e+00  7.2892661829386152e-06 -3.3316709945563696e-06 0.0000000000000000e+00  1.0214023887501131e-05 -4.2078581464061231e-06 0.0000000000000000e+00  1.4252044808817835e-05 -5.1961432717004099e-06 0.0000000000000000e+00  1.9912265556929879e-05 -6.3102224859888596e-06 0.0000000000000000e+00  2.7927122184574492e-05 -7.5584961682416790e-06 0.0000000000000000e+00  3.9343317646137806e-05 -8.9422882353009869e-06 0.0000000000000000e+00  5.5633939161562789e-05 -1.0456571220072710e-05 0.0000000000000000e+00  7.8819952717783075e-05 -1.2098665968630872e-05 0.0000000000000000e+00  1.1156951256484135e-04 -1.3896623731668986e-05 0.0000000000000000e+00  1.5722280955342001e-04 -1.5979411778839285e-05 0.0000000000000000e+00  2.1970956551694028e-04 -1.8725020226367189e-05 0.0000000000000000e+00  3.0349839809016714e-04 -2.3035639041367131e-05 0.0000000000000000e+00  0.0000000000000000e+00 0.0000000000000000e+00 0.0000000000000000e+00  8.7289923714325511e-07 -6.4158717143534071e-07 0.0000000000000000e+00  1.8144523390147659e-06 -1.3052224197078433e-06 0.0000000000000000e+00  2.9018375517892939e-06 -2.0133715034760788e-06 0.0000000000000000e+00  4.2322518581692920e-06 -2.7888917892433643e-06 0.0000000000000000e+00  5.9373770941766879e-06 -3.6548690761193829e-06 0.0000000000000000e+00  8.2043297762621262e-06 -4.6338993470420112e-06 0.0000000000000000e+00  1.1307057473497643e-05 -5.7464541889819723e-06 0.0000000000000000e+00  1.5653945762266036e-05 -7.0078414751605287e-06 0.0000000000000000e+00  2.1859786923540255e-05 -8.4232378414898794e-06 0.0000000000000000e+00  3.0852931998246111e-05 -9.9806418890911751e-06 0.0000000000000000e+00  4.4030411163305629e-05 -1.1643196552750458e-05 0.0000000000000000e+00  6.3473052810597360e-05 -1.3347038008831289e-05 0.0000000000000000e+00  9.2227102045761499e-05 -1.5022373910312697e-05 0.0000000000000000e+00  1.3465299123909105e-04 -1.6679692836781657e-05 0.0000000000000000e+00  1.9686795658380434e-04 -1.8645309822867077e-05 0.0000000000000000e+00  2.8746785964304535e-04 -2.2090798181462660e-05 0.0000000000000000e+00  0.0000000000000000e+00 0.0000000000000000e+00 0.0000000000000000e+00  6.5192380519012440e-07 -6.7128072621268944e-07 0.0000000000000000e+00  1.3383347947722054e-06 -1.3675859242168352e-06 0.0000000000000000e+00  2.0971581198012718e-06 -2.1145681200067348e-06 0.0000000000000000e+00  2.9760943472157585e-06 -2.9388734344908564e-06 0.0000000000000000e+00  4.0406798439607327e-06 -3.8682493344024822e-06 0.0000000000000000e+00  5.3875244452405982e-06 -4.9309871585378745e-06 0.0000000000000000e+00  7.1668230471113755e-06 -6.1541161493025061e-06 0.0000000000000000e+00  9.6211573559159152e-06 -7.5593524668864718e-06 0.0000000000000000e+00  1.3152466187987338e-05 -9.1552044045243358e-06 0.0000000000000000e+00  1.8436724853545575e-05 -1.0922964865436691e-05 0.0000000000000000e+00  2.6616908234431826e-05 -1.2794251974455354e-05 0.0000000000000000e+00  3.9618237981614415e-05 -1.4620583956872569e-05 0.0000000000000000e+00  6.0640783752485155e-05 -1.6147602237618617e-05 0.0000000000000000e+00  9.4885163760853616e-05 -1.7042643600227431e-05 0.0000000000000000e+00  1.5056781813742055e-04 -1.7108975488126930e-05 0.0000000000000000e+00  2.4040066757615469e-04 -1.6973839622406898e-05 0.0000000000000000e+00  0.0000000000000000e+00 0.0000000000000000e+00 0.0000000000000000e+00  3.9821564082786744e-07 -6.7635545034714096e-07 0.0000000000000000e+00  7.9267441877693462e-07 -1.3802161692628676e-06 0.0000000000000000e+00  1.1770489620457634e-06 -2.1400483628146023e-06 0.0000000000000000e+00  1.5420275998112874e-06 -2.9862508324916832e-06 0.0000000000000000e+00  1.8747632413849847e-06 -3.9518574847498170e-06 0.0000000000000000e+00  2.1607133228000914e-06 -5.0726957586662403e-06 0.0000000000000000e+00  2.3910506113624767e-06 -6.3863326331009302e-06 0.0000000000000000e+00  2.5823423851570739e-06 -7.9284443592998741e-06 0.0000000000000000e+00  2.8220209522537749e-06 -9.7239175903966586e-06 0.0000000000000000e+00  3.3659039562162422e-06 -1.1767565402134338e-05 0.0000000000000000e+00  4.8364023381677191e-06 -1.3985306301950933e-05 0.0000000000000000e+00  8.6054543668066861e-06 -1.6161359357471057e-05 0.0000000000000000e+00  1.7491151441456559e-05 -1.7815559782710509e-05 0.0000000000000000e+00  3.6924836388334812e-05 -1.8039532907761550e-05 0.0000000000000000e+00  7.6698302994986241e-05 -1.5415480027977170e-05 0.0000000000000000e+00  1.5333148167575640e-04 -8.4434120426798547e-06 0.0000000000000000e+00  0.0000000000000000e+00 0.0000000000000000e+00 0.0000000000000000e+00  1.4954622402801127e-07 -6.5448824017422044e-07 0.0000000000000000e+00  2.5884875755046872e-07 -1.3380264335360122e-06 0.0000000000000000e+00  2.7901408181200934e-07 -2.0810418161865181e-06 0.0000000000000000e+00  1.4461766069277680e-07 -2.9170678494252768e-06 0.0000000000000000e+00  -2.3670884970276814e-07 -3.8843485529793439e-06 0.0000000000000000e+00  -9.9663951157497738e-07 -5.0273449506967752e-06 0.0000000000000000e+00  -2.3197235088501493e-06 -6.3976925233159635e-06 0.0000000000000000e+00  -4.4545647812791521e-06 -8.0534186446120585e-06 0.0000000000000000e+00  -7.7122131916151421e-06 -1.0053524070185154e-05 0.0000000000000000e+00  -1.2426026354101685e-05 -1.2441143310577349e-05 0.0000000000000000e+00  -1.8814448755180337e-05 -1.5199752381383219e-05 0.0000000000000000e+00  -2.6622730464647723e-05 -1.8147870521627694e-05 0.0000000000000000e+00  -3.4304645189000711e-05 -2.0700010257784278e-05 0.0000000000000000e+00  -3.7360029720690001e-05 -2.1367443391103558e-05 0.0000000000000000e+00  -2.5458626980210320e-05 -1.6900189127959026e-05 0.0000000000000000e+00  2.1495777592595860e-05 -1.4973141937619489e-06 0.0000000000000000e+00  0.0000000000000000e+00 0.0000000000000000e+00 0.0000000000000000e+00  -5.8247028542785801e-08 -6.0429874728337369e-07 0.0000000000000000e+00  -1.8538894681693565e-07 -1.2377329282154024e-06 0.0000000000000000e+00  -4.6404277258604215e-07 -1.9312168469049435e-06 0.0000000000000000e+00  -1.0052495451910783e-06 -2.7199221769272444e-06 0.0000000000000000e+00  -1.9682746340887974e-06 -3.6459151544553558e-06 0.0000000000000000e+00  -3.5876471423262931e-06 -4.7614286491365086e-06 0.0000000000000000e+00  -6.2106094126385495e-06 -6.1329044961407053e-06 0.0000000000000000e+00  -1.0347768797139808e-05 -7.8456096844832940e-06 0.0000000000000000e+00  -1.6736589212559525e-05 -1.0007534653218055e-05 0.0000000000000000e+00  -2.6406030440407825e-05 -1.2747992771953780e-05 0.0000000000000000e+00  -4.0697395260639160e-05 -1.6196769601655277e-05 0.0000000000000000e+00  -6.1108198865827816e-05 -2.0401902445499449e-05 0.0000000000000000e+00  -8.8610847861505580e-05 -2.5063266745097409e-05 0.0000000000000000e+00  -1.2164771430085273e-04 -2.8730308170279627e-05 0.0000000000000000e+00  -1.5152358936258272e-04 -2.6601212789246430e-05 0.0000000000000000e+00  -1.5546413109725088e-04 -6.1395386430323346e-06 0.0000000000000000e+00  0.0000000000000000e+00 0.0000000000000000e+00 0.0000000000000000e+00  -1.9719629908949413e-07 -5.2584228523589876e-07 0.0000000000000000e+00  -4.7889467091164348e-07 -1.0789592994789861e-06 0.0000000000000000e+00  -9.4626852586406277e-07 -1.6886519359738288e-06 0.0000000000000000e+00  -1.7364155647476149e-06 -2.3892353498139031e-06 0.0000000000000000e+00  -3.0487815398572409e-06 -3.2235076131970043e-06 0.0000000000000000e+00  -5.1836594893554336e-06 -4.2476422342944307e-06 0.0000000000000000e+00  -8.6003945222735121e-06 -5.5384299494030220e-06 0.0000000000000000e+00  -1.4006601802663876e-05 -7.2042720214269442e-06 0.0000000000000000e+00  -2.2494320379924510e-05 -9.4019419225313683e-06 0.0000000000000000e+00  -3.5741826985760154e-05 -1.2361486335899696e-05 0.0000000000000000e+00  -5.6289189154766892e-05 -1.6419717838658446e-05 0.0000000000000000e+00  -8.7830504611863882e-05 -2.2049626301887029e-05 0.0000000000000000e+00  -1.3521207853710041e-04 -2.9808566647763210e-05 0.0000000000000000e+00  -2.0296287462520397e-04 -3.9819169125002658e-05 0.0000000000000000e+00  -2.8857697460265875e-04 -4.8856496230894667e-05 0.0000000000000000e+00  -3.6832913982768315e-04 -3.7752740382011152e-05 0.0000000000000000e+00  0.0000000000000000e+00 0.0000000000000000e+00 0.0000000000000000e+00  -2.5225038898978916e-07 -4.2106624454747205e-07 0.0000000000000000e+00  -5.8842371475904951e-07 -8.6530886587770419e-07 0.0000000000000000e+00  -1.1090866991136013e-06 -1.3578896082430188e-06 0.0000000000000000e+00  -1.9515599402497879e-06 -1.9289825646676220e-06 0.0000000000000000e+00  -3.3179710151320883e-06 -2.6174911233680540e-06 0.0000000000000000e+00  -5.5178699121222237e-06 -3.4766736780552360e-06 0.0000000000000000e+00  -9.0362112167422380e-06 -4.5832035648313207e-06 0.0000000000000000e+00  -1.4645223408496136e-05 -6.0524295417289881e-06 0.0000000000000000e+00  -2.3592605150123060e-05 -8.0650557359908567e-06 0.0000000000000000e+00  -3.7922749304944786e-05 -1.0915458530222521e-05 0.0000000000000000e+00  -6.1025805608599713e-05 -1.5102452516001691e-05 0.0000000000000000e+00  -9.8549610800265544e-05 -2.1506600877773032e-05 0.0000000000000000e+00  -1.5975464269298088e-04 -3.1748491699840188e-05 0.0000000000000000e+00  -2.5874765999507577e-04 -4.8895729289358096e-05 0.0000000000000000e+00  -4.1118029807814390e-04 -7.8248695252565846e-05 0.0000000000000000e+00  -5.8839034145314218e-04 -1.1576898364999938e-04 0.0000000000000000e+00  0.0000000000000000e+00 0.0000000000000000e+00 0.0000000000000000e+00  -2.2429782423620063e-07 -2.9408023455755960e-07 0.0000000000000000e+00  -5.1562462352194863e-07 -6.0505292176169283e-07 0.0000000000000000e+00  -9.5438549692025707e-07 -9.5139930822797599e-07 0.0000000000000000e+00  -1.6509827244045912e-06 -1.3556599296234775e-06 0.0000000000000000e+00  -2.7692737082912652e-06 -1.8475715122724506e-06 0.0000000000000000e+00  -4.5631798981344880e-06 -2.4689998300531145e-06 0.0000000000000000e+00  -7.4371360584821875e-06 -3.2822190795229208e-06 0.0000000000000000e+00  -1.2050161075575676e-05 -4.3844932001368356e-06 0.0000000000000000e+00  -1.9501922767769505e-05 -5.9348414710328578e-06 0.0000000000000000e+00  -3.1678255863805556e-05 -8.2052208051615408e-06 0.0000000000000000e+00  -5.1917500961671334e-05 -1.1683017486583282e-05 0.0000000000000000e+00  -8.6338373560515121e-05 -1.7289202054390746e-05 0.0000000000000000e+00  -1.4652812991688247e-04 -2.6889528418057567e-05 0.0000000000000000e+00  -2.5485357970859860e-04 -4.4706329722116786e-05 0.0000000000000000e+00  -4.5409263835340005e-04 -8.2326150169559931e-05 0.0000000000000000e+00  -8.2715398710687385e-04 -1.8196932463495716e-04 0.0000000000000000e+00  0.0000000000000000e+00 0.0000000000000000e+00 0.0000000000000000e+00  -1.3026928874803597e-07 -1.5110047160785642e-07 0.0000000000000000e+00  -2.9757753298969668e-07 -3.1109092324675004e-07 0.0000000000000000e+00  -5.4636649466781017e-07 -4.8973900920539416e-07 0.0000000000000000e+00  -9.3781592420099700e-07 -6.9906937974044602e-07 0.0000000000000000e+00  -1.5630889998336019e-06 -9.5514208777594556e-07 0.0000000000000000e+00  -2.5642834741549305e-06 -1.2808954201931491e-06 0.0000000000000000e+00  -4.1696381957730976e-06 -1.7109905471581594e-06 0.0000000000000000e+00  -6.7555875979730350e-06 -2.3004463410596285e-06 0.0000000000000000e+00  -1.0961376504242758e-05 -3.1405584866175675e-06 0.0000000000000000e+00  -1.7911964949966924e-05 -4.3889287960069485e-06 0.0000000000000000e+00  -2.9677618601013211e-05 -6.3262548467069767e-06 0.0000000000000000e+00  -5.0282763200337276e-05 -9.4582656033777178e-06 0.0000000000000000e+00  -8.8040840781882854e-05 -1.4656277264293720e-05 0.0000000000000000e+00  -1.6090980686252546e-04 -2.3075234791045671e-05 0.0000000000000000e+00  -3.0541433969013724e-04 -3.4178394881054034e-05 0.0000000000000000e+00  -5.6203107288437665e-04 -3.7344976325925488e-05 0.0000000000000000e+00  0.0000000000000000e+00 0.0000000000000000e+00 0.0000000000000000e+00  0.0000000000000000e+00 0.0000000000000000e+00 0.0000000000000000e+00  0.0000000000000000e+00 0.0000000000000000e+00 0.0000000000000000e+00  0.0000000000000000e+00 0.0000000000000000e+00 0.0000000000000000e+00  0.0000000000000000e+00 0.0000000000000000e+00 0.0000000000000000e+00  0.0000000000000000e+00 0.0000000000000000e+00 0.0000000000000000e+00  0.0000000000000000e+00 0.0000000000000000e+00 0.0000000000000000e+00  0.0000000000000000e+00 0.000000