<?xml version="1.0"?>
<VTKFile type="UnstructuredGrid"  version="0.1"  >
<UnstructuredGrid>
<Piece  NumberOfPoints="289" NumberOfCells="512">
<Points>
<DataArray  type="Float64"  NumberOfComponents="3"  format="ascii">0 0 0  0.0625 0 0  0.125 0 0  0.1875 0 0  0.25 0 0  0.3125 0 0  0.375 0 0  0.4375 0 0  0.5 0 0  0.5625 0 0  0.625 0 0  0.6875 0 0  0.75 0 0  0.8125 0 0  0.875 0 0  0.9375 0 0  1 0 0  0 0.0625 0  0.06249430064089097 0.06248872193375035 0  0.1249890603344373 0.06247725001484636 0  0.1874848296174431 0.06246540873309477 0  0.2499823761857634 0.06245306581936659 0  0.3124828269582657 0.06244015974721179 0  0.3749878560707513 0.06242673333527925 0  0.437499946061384 0.06241297309165052 0  0.5000227690332089 0.06239925052174967 0  0.5625617812190614 0.06238615544132716 0  0.6251252427687202 0.06237450083997583 0  0.6877261925264109 0.06236526162264829 0  0.7503868107497823 0.06235937996637195 0  0.8131493217187616 0.06235730602500856 0  0.8761062685119352 0.06235794165180548 0  0.9394924180375402 0.06235586935784183 0  1.003988165142374 0.06233329289496538 0  0 0.125 0  0.06248813079817903 0.1249776307828759 0  0.1249770833060289 0.1249548525629079 0  0.1874678531935831 0.1249312906709559 0  0.2499618501183696 0.1249066522703629 0  0.3124611696588226 0.1248807800912512 0  0.3749689527859985 0.1248537202660297 0  0.4374898800092245 0.1248258052965611 0  0.5000308727482142 0.1247977474432533 0  0.5626021280931557 0.1247707269816775 0  0.6252187305559596 0.1247464411150711 0  0.6879033426029998 0.1247270508649057 0  0.7506910165932805 0.1247149297708911 0  0.8136381345348866 0.1247121176501336 0  0.8768382944213123 0.1247196016504665 0  0.9404432289589023 0.1247378168586354 0  1.004646707156683 0.1247753854777845 0  0 0.1875 0  0.06248114963019651 0.1874669438887594 0  0.1249632942958493 0.1874332243687789 0  0.1874476650277452 0.1873982233303112 0  0.2499360573881889 0.1873614328472568 0  0.312431204944862 0.1873225315054799 0  0.3749372732033618 0.1872814857709764 0  0.4374605308709436 0.1872386819224607 0  0.5000102720482915 0.1871950881696136 0  0.5626000874942033 0.1871524337596457 0  0.6252496157570773 0.187113366802331 0  0.6879869290454005 0.1870815068393352 0  0.7508516284670002 0.1870612271581963 0  0.8138981513547264 0.1870568478412901 0  0.8771964530248116 0.1870705449772609 0  0.9408198189717862 0.1870969908500937 0  1.004792637560352 0.187107334168129 0  0 0.25 0  0.0624732074029315 0.2499569176036883 0  0.1249473231637715 0.2499128655174225 0  0.1874235236026969 0.2498669221848414 0  0.2499036320472401 0.249818287484612 0  0.3123905539518147 0.2497663739920999 0  0.3748888581368764 0.2497109367696951 0  0.4374055672066221 0.2496522554642404 0  0.4999512260337447 0.2495913798293043 0  0.5625413097369728 0.2495304403444494 0  0.6251979858361353 0.2494730021352505 0  0.6879520960866392 0.2494243904149993 0  0.7508448226471163 0.2493918188617078 0  0.8139275268228967 0.2493839793133157 0  0.8772561358381143 0.2494094799033596 0  0.9408728452763294 0.2494732836572202 0  1.004765270738872 0.2495713344855438 0  0 0.3125 0  0.06246440978094472 0.3124478595930488 0  0.1249293434376002 0.3123943873548189 0  0.1873955873404189 0.3123382910227581 0  0.2498645721477017 0.3122783862498595 0  0.3123388208957457 0.3122136893940398 0  0.3748225642643073 0.3121435624749205 0  0.4373225972034816 0.312067935383025 0  0.4998494567383529 0.3119876351159847 0  0.5624189852331312 0.3119048530573121 0  0.6250542722276521 0.3118237716201316 0  0.6877877731880153 0.3117513359040553 0  0.7506629676914095 0.3116980676193101 0  0.8137340900761539 0.3116786390789781 0  0.8770612136878219 0.3117116270669077 0  0.9406969849235814 0.3118175199814199 0  1.004663367374129 0.3120139583831003 0  0 0.375 0  0.06245514928138454 0.374940132470713 0  0.1249101434943077 0.3748785232263449 0  0.1873650423409951 0.3748134474396321 0  0.249820449534733 0.3747432429764176 0  0.3122779164699585 0.3746663846857052 0  0.3747405277073965 0.3745816200981989 0  0.4372137617881178 0.3744882033570245 0  0.4997067434328568 0.3743862798223125 0  0.5622340146021433 0.3742774934201221 0  0.6248179226888551 0.3741659078018202 0  0.6874915962603464 0.3740593362453867 0  0.7503021596526805 0.3739711285726078 0  0.8133132336486495 0.3739222944566159 0  0.8766049430010684 0.3739434366951234 0  0.9402692183192823 0.374075210465447 0  1.004399796539558 0.3743649310310015 0  0 0.4375 0  0.06244609736984522 0.4374341453713064 0  0.124891116210595 0.4373661145095345 0  0.1873341014473114 0.4372937102207448 0  0.2497744386357423 0.4372147174800851 0  0.3122121468325366 0.4371269336372144 0  0.3746483522428064 0.4370282588608341 0  0.4370860581983108 0.4369168911556791 0  0.4995313821193805 0.4367916979149641 0  0.5619955024697296 0.4366528791392214 0  0.6244976362976145 0.4365030999725679 0  0.6870694113339411 0.4363493481504365 0  0.7497609152975758 0.4362058344993983 0  0.8126483439359691 0.4360982013305736 0  0.8758423777383462 0.4360688962504424 0  0.9394953698256232 0.4361824066496517 0  1.00380533239513 0.4365268431225705 0  0 0.5 0  0.06243815325439968 0.4999303306713347 0  0.1248741579935446 0.4998580651982646 0  0.1873058583880076 0.4997805353252011 0  0.2497311391199402 0.4996949419929207 0  0.3121480356556742 0.4995983142365585 0  0.3745549932567608 0.499487511047034 0  0.4369514006811485 0.4993593078342162 0  0.4993386180407042 0.4992106448051025 0  0.561721873293247 0.4990391785941442 0  0.6241136427894018 0.4988443899893588 0  0.6865394667846921 0.498629684503921 0  0.7490475195576627 0.4984061928104099 0  0.8117234072820416 0.4981992709326596 0  0.8747110172775241 0.4980586871029616 0  0.938238018033587 0.4980722286544499 0  1.002641511828018 0.4983783698215251 0  0 0.5625 0  0.06243234881225057 0.5624291048240191 0  0.1248614738382833 0.5623552616518803 0  0.1872839859400881 0.5622753916354453 0  0.2496961649492984 0.5621861515796656 0  0.3120938213798606 0.5620837996491487 0  0.3744722285791976 0.5619640681282506 0  0.4368262300747334 0.5618220668327646 0  0.4991507457076211 0.5616522735921 0  0.5614421301865007 0.5614487363177004 0  0.6237012650434191 0.5612057511514681 0  0.6859400109730448 0.5609195639999593 0  0.7481938152294602 0.5605921915208741 0  0.8105447140789392 0.5602394240678076 0  0.873159673985365 0.5599063810061393 0  0.9363463022467752 0.5596942987942987 0  1.000617706395447 0.5597968269548169 0  0 0.625 0  0.06242971431348421 0.624930815302022 0  0.1248552950778375 0.6248584605191465 0  0.1872722800593214 0.6247795779563494 0  0.249675482849924 0.6246904129236192 0  0.312058566020248 0.6245865785680389 0  0.3744135551121659 0.6244627769887571 0  0.4367303278175974 0.6243124661733678 0  0.4989962176933522 0.6241274759104636 0  0.5611961174439272 0.6238976156210594 0  0.6233140138839344 0.6236104245467183 0  0.6853380453039813 0.6232514954200957 0  0.7472734676137937 0.6228065194974499 0  0.8091719721707866 0.6222679643736417 0  0.871191304814412 0.6216532378636086 0  0.9337010302484891 0.6210477069261322 0  0.9974340261309345 0.6206859891590509 0  0 0.6875 0  0.0624311172678752 0.6874356796028771 0  0.1248575328381494 0.6873681567170334 0  0.1872740784724612 0.6872939985383546 0  0.249674520422054 0.6872092717713463 0  0.3120508552422191 0.6871092209455311 0  0.3743923819973335 0.6869878490334622 0  0.4366844634887212 0.6868373472338207 0  0.4989069189043681 0.686647300906558 0  0.5610321299412196 0.6864035745731142 0  0.6230233889964009 0.686086765700443 0  0.6848352611622828 0.6856701823600265 0  0.7464209257115084 0.6851177089769754 0  0.8077590738276992 0.6843836520852815 0  0.8689289600441055 0.6834230636326903 0  0.9302855800867675 0.6822417378189145 0  0.9927730717783677 0.6810511193580033 0  0 0.75 0  0.06243709611246417 0.7499437262293643 0  0.1248694119670219 0.7498844527032532 0  0.1872916226238546 0.7498189324946299 0  0.249697133160932 0.7497433723879837 0  0.3120771799756246 0.7496530638208665 0  0.3744195529586411 0.749541876152624 0  0.4367067058587369 0.7494015233953256 0  0.4989129191941831 0.7492204620031953 0  0.5610000662010023 0.7489821801888684 0  0.6229115200290635 0.7486624580002235 0  0.6845642576269827 0.7482248360054112 0  0.7458417039283102 0.7476129341053808 0  0.8065988820490193 0.7467376182277874 0  0.8667205908380724 0.7454591666558016 0  0.9263561822955216 0.7435907049339499 0  0.9865449452387129 0.7411560279595859 0  0 0.8125 0  0.06244771910501769 0.8124547501079992 0  0.1248911520185418 0.8124069568603145 0  0.1873254774811847 0.8123538467506481 0  0.2497446094900463 0.8122921320306198 0  0.3121402595427085 0.8122176525746866 0  0.3745005357112244 0.8121248698872835 0  0.4368077374289954 0.8120061124163592 0  0.4990347641407005 0.8118504048293714 0  0.5611391249454102 0.8116415870706871 0  0.6230527907023844 0.8113551678057768 0  0.6846649643912137 0.8109527586784805 0  0.7457936213501013 0.8103714047385457 0  0.80614352618024 0.8095008588558239 0  0.8652705497306257 0.8081294365678846 0  0.9227058711139878 0.8058024230614654 0  0.9792631870009351 0.8014183070222849 0  0 0.875 0  0.0624625026579325 0.8749682946310562 0  0.1249217740271401 0.8749347390299684 0  0.1873741556477594 0.8748973050477372 0  0.2498149702262059 0.8748535643695996 0  0.3122377427409486 0.8748004050939797 0  0.3746329992674298 0.8747336259538129 0  0.4369863000323609 0.8746473253798743 0  0.4992748711569762 0.8745329527131326 0  0.5614616031700437 0.8743778051917132 0  0.6234839276515921 0.8741626120737989 0  0.6852323428641195 0.8738575785038627 0  0.7465071868006313 0.8734155824301332 0  0.8069280430930582 0.872758717798218 0  0.8657380102723191 0.8717431200922015 0  0.9213850088220443 0.8700346623311803 0  0.9707632992992565 0.8665698223823233 0  0 0.9375 0  0.06248041816178911 0.9374836686633469 0  0.1249591030412558 0.9374663629854452 0  0.1874340855810764 0.9374470117323842 0  0.2499028315324242 0.9374243249973655 0  0.3123618025325142 0.9373966381412465 0  0.3748057681082671 0.9373616874745311 0  0.4372266561
[...]
<PointData  Vectors="f_54"> 
<DataArray  type="Float64"  Name="f_54"  NumberOfComponents="3" format="ascii">0.0000000000000000e+00 0.0000000000000000e+00 0.0000000000000000e+00  0.0000000000000000e+00 0.0000000000000000e+00 0.0000000000000000e+00  0.0000000000000000e+00 0.0000000000000000e+00 0.0000000000000000e+00  0.0000000000000000e+00 0.0000000000000000e+00 0.0000000000000000e+00  0.0000000000000000e+00 0.0000000000000000e+00 0.0000000000000000e+00  0.0000000000000000e+00 0.0000000000000000e+00 0.0000000000000000e+00  0.0000000000000000e+00 0.0000000000000000e+00 0.0000000000000000e+00  0.0000000000000000e+00 0.0000000000000000e+00 0.0000000000000000e+00  0.0000000000000000e+00 0.0000000000000000e+00 0.0000000000000000e+00  0.0000000000000000e+00 0.0000000000000000e+00 0.0000000000000000e+00  0.0000000000000000e+00 0.0000000000000000e+00 0.0000000000000000e+00  0.0000000000000000e+00 0.0000000000000000e+00 0.0000000000000000e+00  0.0000000000000000e+00 0.0000000000000000e+00 0.0000000000000000e+00  0.0000000000000000e+00 0.0000000000000000e+00 0.0000000000000000e+00  0.0000000000000000e+00 0.0000000000000000e+00 0.0000000000000000e+00  0.0000000000000000e+00 0.0000000000000000e+00 0.0000000000000000e+00  0.0000000000000000e+00 0.0000000000000000e+00 0.0000000000000000e+00  0.0000000000000000e+00 0.0000000000000000e+00 0.0000000000000000e+00  -4.4830144241487601e-06 -1.7633071691351246e-07 0.0000000000000000e+00  -9.0955548947924839e-06 -3.5509303502125898e-07 0.0000000000000000e+00  -1.3968357277883338e-05 -5.3831054441527921e-07 0.0000000000000000e+00  -1.9231059854150112e-05 -7.2699972806701085e-07 0.0000000000000000e+00  -2.5010466919874312e-05 -9.2049548499878212e-07 0.0000000000000000e+00  -3.1427316781938228e-05 -1.1155733141117918e-06 0.0000000000000000e+00  -3.8591210014117130e-05 -1.3053162845172233e-06 0.0000000000000000e+00  -4.6593816329574833e-05 -1.4777005653669896e-06 0.0000000000000000e+00  -5.5501807379067481e-05 -1.6139007543655747e-06 0.0000000000000000e+00  -6.5354647296984172e-05 -1.6862666200365496e-06 0.0000000000000000e+00  -7.6182866261573592e-05 -1.6554579847420510e-06 0.0000000000000000e+00  -8.8094181178976065e-05 -1.4640323752385045e-06 0.0000000000000000e+00  -1.0157827220835459e-04 -1.0147536339175275e-06 0.0000000000000000e+00  -1.1854620257691215e-04 -8.5226623185786084e-08 0.0000000000000000e+00  -1.4603290188381672e-04 2.0255001645273958e-06 0.0000000000000000e+00  -2.1081673177137134e-04 8.0743290458687595e-06 0.0000000000000000e+00  0.0000000000000000e+00 0.0000000000000000e+00 0.0000000000000000e+00  -8.8340370925405416e-06 -3.5013217054456707e-07 0.0000000000000000e+00  -1.7927511563912860e-05 -7.0559919817141344e-07 0.0000000000000000e+00  -2.7542651150511418e-05 -1.0709859902669875e-06 0.0000000000000000e+00  -3.7940589420809658e-05 -1.4490037723469294e-06 0.0000000000000000e+00  -4.9378449456210938e-05 -1.8392065371781321e-06 0.0000000000000000e+00  -6.2103339991300695e-05 -2.2362861942578209e-06 0.0000000000000000e+00  -7.6342267029924277e-05 -2.6278267831823360e-06 0.0000000000000000e+00  -9.2287347438707083e-05 -2.9914566165345276e-06 0.0000000000000000e+00  -1.1007688107714518e-04 -3.2914640517768663e-06 0.0000000000000000e+00  -1.2977577879167614e-04 -3.4751689142029596e-06 0.0000000000000000e+00  -1.5136553583595231e-04 -3.4697019753217616e-06 0.0000000000000000e+00  -1.7476762419935861e-04 -3.1805325035225233e-06 0.0000000000000000e+00  -1.9994523553504588e-04 -2.4956940419563925e-06 0.0000000000000000e+00  -2.2711910294166246e-04 -1.3148207343598297e-06 0.0000000000000000e+00  -2.5679614364379900e-04 2.8705319424462678e-07 0.0000000000000000e+00  -2.8675024550411737e-04 1.1192812876066516e-06 0.0000000000000000e+00  0.0000000000000000e+00 0.0000000000000000e+00 0.0000000000000000e+00  -1.2921623249774195e-05 -5.1843688456932700e-07 0.0000000000000000e+00  -2.6232801811304823e-05 -1.0459822920882309e-06 0.0000000000000000e+00  -4.0328157212551541e-05 -1.5907838291537722e-06 0.0000000000000000e+00  -5.5603325961645983e-05 -2.1585315125857933e-06 0.0000000000000000e+00  -7.2451993976521318e-05 -2.7507044165786519e-06 0.0000000000000000e+00  -9.1258226447193190e-05 -3.3621562533795146e-06 0.0000000000000000e+00  -1.1238213576413384e-04 -3.9778102876526186e-06 0.0000000000000000e+00  -1.3613675690081524e-04 -4.5682918469686121e-06 0.0000000000000000e+00  -1.6275399179534845e-04 -5.0845148896769795e-06 0.0000000000000000e+00  -1.9233760820987333e-04 -5.4516983575500282e-06 0.0000000000000000e+00  -2.2480069220698128e-04 -5.5642851078215818e-06 0.0000000000000000e+00  -2.5977957430660593e-04 -5.2853059005199104e-06 0.0000000000000000e+00  -2.9649071877716415e-04 -4.4579633336492544e-06 0.0000000000000000e+00  -3.3340133512349833e-04 -2.9450371680196028e-06 0.0000000000000000e+00  -3.6728403004190538e-04 -7.1611821011796501e-07 0.0000000000000000e+00  -3.9053749132610382e-04 2.0941519784927875e-06 0.0000000000000000e+00  0.0000000000000000e+00 0.0000000000000000e+00 0.0000000000000000e+00  -1.6614406560345361e-05 -6.7741347383850579e-07 0.0000000000000000e+00  -3.3747462006859914e-05 -1.3688370996482855e-06 0.0000000000000000e+00  -5.1926145807599607e-05 -2.0873026581495170e-06 0.0000000000000000e+00  -7.1683603862720689e-05 -2.8432279678665326e-06 0.0000000000000000e+00  -9.3557918534252306e-05 -3.6424248214047926e-06 0.0000000000000000e+00  -1.1808482106620393e-04 -4.4832005246320063e-06 0.0000000000000000e+00  -1.4578137654471565e-04 -5.3521546748289317e-06 0.0000000000000000e+00  -1.7711681186304500e-04 -6.2182507889275511e-06 0.0000000000000000e+00  -2.1246543580320917e-04 -7.0248450530090267e-06 0.0000000000000000e+00  -2.5203455842521188e-04 -7.6797757476939554e-06 0.0000000000000000e+00  -2.9575602872383428e-04 -8.0447375883903397e-06 0.0000000000000000e+00  -3.4311960796773927e-04 -7.9276641776380067e-06 0.0000000000000000e+00  -3.9290096387394990e-04 -7.0867444091313163e-06 0.0000000000000000e+00  -4.4268168666739417e-04 -5.2629879550453111e-06 0.0000000000000000e+00  -4.8797321694482490e-04 -2.2693563158836136e-06 0.0000000000000000e+00  -5.2078305772392214e-04 1.8204696741814367e-06 0.0000000000000000e+00  0.0000000000000000e+00 0.0000000000000000e+00 0.0000000000000000e+00  -1.9782508984497556e-05 -8.2211572088172180e-07 0.0000000000000000e+00  -4.0209012821050957e-05 -1.6643191937624831e-06 0.0000000000000000e+00  -6.1936296219904791e-05 -2.5459479220129939e-06 0.0000000000000000e+00  -8.5636214457277503e-05 -3.4841287906625478e-06 0.0000000000000000e+00  -1.1199858648100187e-04 -4.4918870687055041e-06 0.0000000000000000e+00  -1.4172732436176116e-04 -5.5751550641541253e-06 0.0000000000000000e+00  -1.7552605260207985e-04 -6.7280756448492786e-06 0.0000000000000000e+00  -2.1406802147587876e-04 -7.9257986060547698e-06 0.0000000000000000e+00  -2.5794305846122057e-04 -9.1137855581685098e-06 0.0000000000000000e+00  -3.0757129951710066e-04 -1.0192639687240358e-05 0.0000000000000000e+00  -3.6306879624012779e-04 -1.0998067810941968e-05 0.0000000000000000e+00  -4.2404252237594547e-04 -1.1277612604630789e-05 0.0000000000000000e+00  -4.8928047352144756e-04 -1.0670757517841883e-05 0.0000000000000000e+00  -5.5628964206235420e-04 -8.7089238591269889e-06 0.0000000000000000e+00  -6.2064643955312370e-04 -4.8680948213271383e-06 0.0000000000000000e+00  -6.7525363909821186e-04 1.2730072844143121e-06 0.0000000000000000e+00  0.0000000000000000e+00 0.0000000000000000e+00 0.0000000000000000e+00  -2.2300406761500757e-05 -9.4644190966946555e-07 0.0000000000000000e+00  -4.5361874568947483e-05 -1.9200053167994145e-06 0.0000000000000000e+00  -6.9963954032696926e-05 -2.9475615444585957e-06 0.0000000000000000e+00  -9.6914196379275255e-05 -4.0548187720584432e-06 0.0000000000000000e+00  -1.2705793556405041e-04 -5.2649753815430090e-06 0.0000000000000000e+00  -1.6128160856006309e-04 -6.5962283637824239e-06 0.0000000000000000e+00  -2.0050553678667706e-04 -8.0573614981411064e-06 0.0000000000000000e+00  -2.4566018396011464e-04 -9.6402042331823213e-06 0.0000000000000000e+00  -2.9763726587580624e-04 -1.1307110901948373e-05 0.0000000000000000e+00  -3.5720365481679064e-04 -1.2970780502598776e-05 0.0000000000000000e+00  -4.2486195692170985e-04 -1.4462970616518111e-05 0.0000000000000000e+00  -5.0063775357168949e-04 -1.5488816437795433e-05 0.0000000000000000e+00  -5.8377234685805962e-04 -1.5566684013820312e-05 0.0000000000000000e+00  -6.7230841595631501e-04 -1.3963808242913525e-05 0.0000000000000000e+00  -7.6259079489587314e-04 -9.6602555248040432e-06 0.0000000000000000e+00  -8.4879452554674430e-04 -1.4069655673827917e-06 0.0000000000000000e+00  0.0000000000000000e+00 0.0000000000000000e+00 0.0000000000000000e+00  -2.4051539523326328e-05 -1.0433613563905955e-06 0.0000000000000000e+00  -4.8966487025546741e-05 -2.1213145478688795e-06 0.0000000000000000e+00  -7.5633492744195976e-05 -3.2689539898998406e-06 0.0000000000000000e+00  -1.0498579260079331e-04 -4.5218878989697390e-06 0.0000000000000000e+00  -1.3802064513751967e-04 -5.9159310210352706e-06 0.0000000000000000e+00  -1.7581389766489839e-04 -7.4858687882342678e-06 0.0000000000000000e+00  -2.1952587233084079e-04 -9.2625012184343295e-06 0.0000000000000000e+00  -2.7039249611216588e-04 -1.1266541135147119e-05 0.0000000000000000e+00  -3.2969239844953614e-04 -1.3496810977664962e-05 0.0000000000000000e+00  -3.9867660541311140e-04 -1.5908263799813585e-05 0.0000000000000000e+00  -4.7844310163753292e-04 -1.8372380060250743e-05 0.0000000000000000e+00  -5.6973592634444010e-04 -2.0608695282048400e-05 0.0000000000000000e+00  -6.7265225452981328e-04 -2.2073666980727495e-05 0.0000000000000000e+00  -7.8625919173552913e-04 -2.1798332145619761e-05 0.0000000000000000e+00  -9.0816292544366973e-04 -1.8192300495230927e-05 0.0000000000000000e+00  -1.0341279516990383e-03 -8.8903571131506010e-06 0.0000000000000000e+00  0.0000000000000000e+00 0.0000000000000000e+00 0.0000000000000000e+00  -2.4934731336280593e-05 -1.1054379375609727e-06 0.0000000000000000e+00  -5.0812366107539590e-05 -2.2525716355106808e-06 0.0000000000000000e+00  -7.8608381196326353e-05 -3.4845228473199750e-06 0.0000000000000000e+00  -1.0936190408296147e-04 -4.8470694261583558e-06 0.0000000000000000e+00  -1.4420706964123409e-04 -6.3898118403703821e-06 0.0000000000000000e+00  -1.8440255580641279e-04 -8.1669565114813885e-06 0.0000000000000000e+00  -2.3135650763721980e-04 -1.0237183469256338e-05 0.0000000000000000e+00  -2.8664157200184711e-04 -1.2661423207786689e-05 0.0000000000000000e+00  -3.5199095417424032e-04 -1.5496014193632799e-05 0.0000000000000000e+00  -4.2926106659717212e-04 -1.8775935696884916e-05 0.0000000000000000e+00  -5.2033995176806365e-04 -2.2477372425957842e-05 0.0000000000000000e+00  -6.2697565285168969e-04 -2.6439080857787976e-05 0.0000000000000000e+00  -7.5050182317795949e-04 -3.0207163564580673e-05 0.0000000000000000e+00  -8.9146291112486673e-04 -3.2753617259084865e-05 0.0000000000000000e+00  -1.0492050587908408e-03 -3.2029708348858229e-05 0.0000000000000000e+00  -1.2215846920350781e-03 -2.4397953217354469e-05 0.0000000000000000e+00  0.0000000000000000e+00 0.0000000000000000e+00 0.0000000000000000e+00  -2.4872187300715958e-05 -1.1256319368846155e-06 0.0000000000000000e+00  -5.0734697607327067e-05 -2.2986943836614427e-06 0.0000000000000000e+00  -7.8617551689301931e-05 -3.5689904684510313e-06 0.0000000000000000e+00  -1.0963390845266673e-04 -4.9912536159624733e-06 0.0000000000000000e+00  -1.4502451085210888e-04 -6.6280018706601183e-06 0.0000000000000000e+00  -1.8620481461822962e-04 -8.5528351719165780e-06 0.0000000000000000e+00  -2.3481394883163330e-04 -1.0854222442688074e-05 0.0000000000000000e+00  -2.9276227699054434e-04 -1.3639514709800676e-05 0.0000000000000000e+00  -3.6227010702599580e-04 -1.7037998031206547e-05 0.0000000000000000e+00  -4.4588315733507634e-04 -2.1199288898080360e-05 0.0000000000000000e+00  -5.4644017305689209e-04 -2.6276979488991191e-05 0.0000000000000000e+00  -6.6695603948770663e-04 -3.2372249212083147e-05 0.0000000000000000e+00  -8.1037778931435090e-04 -3.9379456650635379e-05 0.0000000000000000e+00  -9.7919563135085309e-04 -4.6617137035525930e-05 0.0000000000000000e+00  -1.1750024509379238e-03 -5.2063777820882633e-05 0.0000000000000000e+00  -1.3983771714390239e-03 -5.1066487118165617e-05 0.0000000000000000e+00  0.0000000000000000e+00 0.0000000000000000e+00 0.0000000000000000e+00  -2.3818461547106294e-05 -1.0982946463474853e-06 0.0000000000000000e+00  -4.8633289893043415e-05 -2.2473383528689062e-06 0.0000000000000000e+00  -7.5486393201939801e-05 -3.5010323524545539e-06 0.0000000000000000e+00  -1.0551984028161827e-04 -4.9201538482941544e-06 0.0000000000000000e+00  -1.4003282026178951e-04 -6.5767383559694550e-06 0.0000000000000000e+00  -1.8054694222673483e-04 -8.5597976704349590e-06 0.0000000000000000e+00  -2.2888199646374445e-04 -1.0983190720604387e-05 0.0000000000000000e+00  -2.8724269237749388e-04 -1.3996836198385777e-05 0.0000000000000000e+00  -3.5831309341992210e-04 -1.7802838135621849e-05 0.0000000000000000e+00  -4.4534757671825965e-04 -2.2677888337883207e-05 0.0000000000000000e+00  -5.5223247713745622e-04 -2.9000269077458730e-05 0.0000000000000000e+00  -6.8346895734269070e-04 -3.7266775947695093e-05 0.0000000000000000e+00  -8.4399914182826626e-04 -4.8041879588610474e-05 0.0000000000000000e+00  -1.0387935715675163e-03 -6.1661515235403622e-05 0.0000000000000000e+00  -1.2722390516193250e-03 -7.7257258974818108e-05 0.0000000000000000e+00  -1.5477438810495160e-03 -9.0410072291146685e-05 0.0000000000000000e+00  0.0000000000000000e+00 0.0000000000000000e+00 0.0000000000000000e+00  -2.1769404435678352e-05 -1.0201999613331768e-06 0.0000000000000000e+00  -4.4491863699856777e-05 -2.0911651337984298e-06 0.0000000000000000e+00  -6.9169267774003073e-05 -3.2672421855958566e-06 0.0000000000000000e+00  -9.6914755632083340e-05 -4.6108018650410339e-06 0.0000000000000000e+00  -1.2901926078405935e-04 -6.1975575713160501e-06 0.0000000000000000e+00  -1.6703244089415561e-04 -8.1238323597227319e-06 0.0000000000000000e+00  -2.1286398602607103e-04 -1.0517208776175966e-05 0.0000000000000000e+00  -2.6891150253744448e-04 -1.3553108862124561e-05 0.0000000000000000e+00  -3.3821955985932346e-04 -1.7482003386128041e-05 0.0000000000000000e+00  -4.2466822107377019e-04 -2.2675893427062667e-05 0.0000000000000000e+00  -5.3317293969419458e-04 -2.9708946539756965e-05 0.0000000000000000e+00  -6.6984210481681726e-04 -3.9492829777053547e-05 0.0000000000000000e+00  -8.4197489398096185e-04 -5.3472572983992114e-05 0.0000000000000000e+00  -1.0577079790740254e-03 -7.3765254295013441e-05 0.0000000000000000e+00  -1.3252131842681945e-03 -1.0257910485701983e-04 0.0000000000000000e+00  -1.6524175659374282e-03 -1.3928024840576187e-04 0.0000000000000000e+00  0.0000000000000000e+00 0.0000000000000000e+00 0.0000000000000000e+00  -1.8769751051089257e-05 -8.9141011814493847e-07 0.0000000000000000e+00  -3.8394867370477416e-05 -1.8297767790484009e-06 0.0000000000000000e+00  -5.9779020805210797e-05 -2.8656036735996559e-06 0.0000000000000000e+00  -8.3938755113710148e-05 -4.0574573170595140e-06 0.0000000000000000e+00  -1.1207396478216545e-04 -5.4773193651461165e-06 0.0000000000000000e+00  -1.4565783202881419e-04 -7.2179043574104963e-06 0.0000000000000000e+00  -1.8655633206878021e-04 -9.4034066644123239e-06 0.0000000000000000e+00  -2.3719053676518227e-04 -1.2206451640952149e-05 0.0000000000000000e+00  -3.0075800901787530e-04 -1.5877051634134550e-05 0.0000000000000000e+00  -3.8152994611289210e-04 -2.0796542966152242e-05 0.0000000000000000e+00  -4.8523117605489720e-04 -2.7586460954199923e-05 0.0000000000000000e+00  -6.1947336932986958e-04 -3.7340821899722358e-05 0.0000000000000000e+00  -7.9411257860921450e-04 -5.2127993259274177e-05 0.0000000000000000e+00  -1.0211889405247958e-03 -7.6010872456420259e-05 0.0000000000000000e+00  -1.3138241415543972e-03 -1.1651489960085343e-04 0.0000000000000000e+00  -1.6847915360728961e-03 -1.7968844200723244e-04 0.0000000000000000e+00  0.0000000000000000e+00 0.0000000000000000e+00 0.0000000000000000e+00  -1.4917797412508343e-05 -7.1577740929664342e-07 0.0000000000000000e+00  -3.0538449728517018e-05 -1.4708531496410853e-06 0.0000000000000000e+00  -4.7607791558427982e-05 -2.3075756524309101e-06 0.0000000000000000e+00  -6.6973908568362009e-05 -3.2752641939438834e-06 0.0000000000000000e+00  -8.9653344860208075e-05 -4.4346864084641816e-06 0.0000000000000000e+00  -1.1691902344018063e-04 -5.8638878221373514e-06 0.0000000000000000e+00  -1.5042294607215076e-04 -7.6661018027720321e-06 0.0000000000000000e+00  -1.9237312030178548e-04 -9.9809174427370448e-06 0.0000000000000000e+00  -2.4579367634337921e-04 -1.3001179369764209e-05 0.0000000000000000e+00  -3.1490982100166156e-04 -1.7002399215618253e-05 0.0000000000000000e+00  -4.0571164910832661e-04 -2.2406263543827456e-05 0.0000000000000000e+00  -5.2674700668728250e-04 -2.9949944734459900e-05 0.0000000000000000e+00  -6.9011893327846339e-04 -4.1198172394120566e-05 0.0000000000000000e+00  -9.1235267065835931e-04 -6.0183233691243029e-05 0.0000000000000000e+00  -1.2137947863523149e-03 -9.9070805690860327e-05 0.0000000000000000e+00  -1.6118249923789544e-03 -2.0425506745285746e-04 0.0000000000000000e+00  0.0000000000000000e+00 0.0000000000000000e+00 0.0000000000000000e+00  -1.0365636645087719e-05 -5.0095414209512872e-07 0.0000000000000000e+00  -2.1232151617429751e-05 -1.0301867711671466e-06 0.0000000000000000e+00  -3.3132963840877920e-05 -1.6181744402056463e-06 0.0000000000000000e+00  -4.6679854160329507e-05 -2.3004114733749193e-06 0.0000000000000000e+00  -6.2615199468014151e-05 -3.1204400563199636e-06 0.0000000000000000e+00  -8.1883562607714609e-05 -4.1333810465059660e-06 0.0000000000000000e+00  -1.0573557296459564e-04 -5.4096577298300486e-06 0.0000000000000000e+00  -1.3588504671919435e-04 -7.0375254312737725e-06 0.0000000000000000e+00  -1.7475419247213101e-04 -9.1202150091057504e-06 0.0000000000000000e+00  -2.2586555463660035e-04 -1.1756743065778188e-05 0.0000000000000000e+00  -2.9447948830601286e-04 -1.4980793488055600e-05 0.0000000000000000e+00  -3.8864279832099419e-04 -1.8606318731416021e-05 0.0000000000000000e+00  -5.2092529421364042e-04 -2.1906423158871777e-05 0.0000000000000000e+00  -7.1127129143995331e-04 -2.3123567483268475e-05 0.0000000000000000e+00  -9.9106018936535975e-04 -1.9210578835881920e-05 0.0000000000000000e+00  -1.4044407081504281e-03 -7.7011063587414768e-06 0.0000000000000000e+00  0.0000000000000000e+00 0.0000000000000000e+00 0.0000000000000000e+00  -5.3138074606693265e-06 -2.5790126353775282e-07 0.0000000000000000e+00  -1.0888579389855530e-05 -5.3059798020892547e-07 0.0000000000000000e+00  -1.7002926472171046e-05 -8.3402745407149259e-07 0.0000000000000000e+00  -2.3978256566664124e-05 -1.1867233495070878e-06 0.0000000000000000e+00  -3.2207889001387552e-05 -1.6112820830392444e-06 0.0000000000000000e+00  -4.2197846371144843e-05 -2.1358246353812712e-06 0.0000000000000000e+00  -5.4627671300040022e-05 -2.7947765622558101e-06 0.0000000000000000e+00  -7.0445429800893491e-05 -3.6266974601024004e-06 0.0000000000000000e+00  -9.1021492721587809e-05 -4.6622281336611519e-06 0.0000000000000000e+00  -1.1840312437495815e-04 -5.8814786915699975e-06 0.0000000000000000e+00  -1.5573411616563726e-04 -7.0793779643292422e-06 0.0000000000000000e+00  -2.0789492534578570e-04 -7.4574868364074943e-06 0.0000000000000000e+00  -2.8217790961232827e-04 -4.4287580398047421e-06 0.0000000000000000e+00  -3.8749145058378795e-04 9.6061061054671953e-06 0.0000000000000000e+00  -5.2579741963325582e-04 5.3929406498791040e-05 0.0000000000000000e+00  -6.6273489903126209e-04 1.6106825739908761e-04 0.0000000000000000e+00  0.0000000000000000e+00 0.0000000000000000e+00 0.0000000000000000e+00  0.0000000000000000e+00 0.0000000000000000e+00 0.0000000000000000e+00  0.0000000000000000e+00 0.0000000000000000e+00 0.0000000000000000e+00  0.0000000000000000e+00 0.0000000000000000e+00 0.0000000000000000e+00  0.0000000000000000e+00 0.0000000000000000e+00 0.0000000000000000e+00  0.0000000000000000e+00 0.0000000