<?xml version="1.0"?>
<VTKFile type="UnstructuredGrid"  version="0.1"  >
<UnstructuredGrid>
<Piece  NumberOfPoints="289" NumberOfCells="512">
<Points>
<DataArray  type="Float64"  NumberOfComponents="3"  format="ascii">0 0 0  0.0625 0 0  0.125 0 0  0.1875 0 0  0.25 0 0  0.3125 0 0  0.375 0 0  0.4375 0 0  0.5 0 0  0.5625 0 0  0.625 0 0  0.6875 0 0  0.75 0 0  0.8125 0 0  0.875 0 0  0.9375 0 0  1 0 0  0 0.0625 0  0.06257873053152607 0.06248346566993786 0  0.12516038686445 0.06246659384166559 0  0.187748021382047 0.06244906454185768 0  0.2503448957791116 0.06243060460566877 0  0.3129545998901705 0.06241101846918425 0  0.3755811917609438 0.06239022690733367 0  0.4382293815475425 0.06236831358473419 0  0.500904810396064 0.06234557491053719 0  0.5636145468686895 0.06232255985133357 0  0.6263681084967935 0.062300068498712 0  0.6891798190564559 0.06227903967267491 0  0.7520747599280403 0.06226016209080824 0  0.815105001719285 0.06224275644790919 0  0.8783971961598109 0.06222145802561686 0  0.9423026626228997 0.06217519561770365 0  1.007915892464976 0.06202585964482076 0  0 0.125 0  0.06265457881408003 0.1249672563366121 0  0.1253149335430608 0.1249338138013942 0  0.1879870926546845 0.1248990057054091 0  0.2506775083521266 0.1248622528439774 0  0.3133932959687787 0.1248231231742091 0  0.3761425115191325 0.1247814096142556 0  0.4389345010666225 0.124737228086237 0  0.5017803907848659 0.1246911313192453 0  0.5646938663039823 0.124644220733009 0  0.6276925685938841 0.1245982145767395 0  0.6908008232948696 0.1245553911144135 0  0.7540552094874167 0.1245182778220498 0  0.8175157492292998 0.1244889791477974 0  0.8812858117286082 0.1244685756578666 0  0.9455322967723743 0.1244603521329762 0  1.010415420023168 0.1244974108372078 0  0 0.1875 0  0.06272468988045345 0.1874517377921239 0  0.125457826298662 0.1874023726701723 0  0.1882082262956392 0.1873508425843318 0  0.2509853402769056 0.1872962005300162 0  0.313799606108198 0.1872376980594035 0  0.3766628495417478 0.1871749002952067 0  0.439588759803332 0.1871078405879013 0  0.5025934869673956 0.1870372171725591 0  0.5656964388678228 0.186964621054114 0  0.6289213995653965 0.1868927582259129 0  0.6922981132090322 0.1868255819560377 0  0.7558642891274934 0.1867681695471924 0  0.8196668679329476 0.1867260287916479 0  0.8837570796780952 0.1867031251991357 0  0.9481608274636369 0.1866962183732541 0  1.012778943063359 0.1866741160777156 0  0 0.25 0  0.06278639991399777 0.2499373177893513 0  0.1255836354004048 0.2498730739415251 0  0.1884030163218744 0.2498057468463612 0  0.2512566835247221 0.2497339361101478 0  0.3141580702346122 0.2496564598221222 0  0.3771224149782452 0.2495724990373829 0  0.4401673445283718 0.249481807605518 0  0.5033135397220777 0.2493850042513148 0  0.566585472712566 0.2492839565285527 0  0.6300121249921433 0.2491822462776002 0  0.6936273650157699 0.2490856622247196 0  0.7574690436327708 0.2490025787223929 0  0.8215743342019767 0.2489439204464651 0  0.8859655672813603 0.2489221467889695 0  0.9506157109365104 0.2489484296507074 0  1.015381932764481 0.2490284760092935 0  0 0.3125 0  0.06283733268160213 0.3124244574639387 0  0.1256875116496843 0.3123468386143912 0  0.1885639419716943 0.3122650931903954 0  0.2514810389090095 0.3121772680705921 0  0.3144547900908414 0.3120816014612787 0  0.3775033810401654 0.3119766792688722 0  0.4406479009595885 0.3118616844471899 0  0.5039131286958612 0.3117367773607699 0  0.5673283494973136 0.3116036505482065 0  0.6309280279211094 0.3114662983768575 0  0.6947518728448957 0.3113320179655802 0  0.7588432236365276 0.311212588698992 0  0.8232435803254851 0.3111254281101687 0  0.8879795923467014 0.3110942635777978 0  0.9530384023085104 0.3111485557904704 0  1.018333228844869 0.3113208421401286 0  0 0.375 0  0.0628754897340764 0.3749136720192855 0  0.125765370242574 0.3748247105585585 0  0.1886846512563994 0.3747304782216749 0  0.251649504321701 0.3746283728906165 0  0.3146779165856702 0.3745158946909768 0  0.3777904316701319 0.3743907842079087 0  0.4410110099502698 0.3742512750063189 0  0.5043680330721954 0.3740965222845748 0  0.5678954460635157 0.3739272940202087 0  0.6316339417697792 0.37374703773212 0  0.6956318863899389 0.3735634525905456 0  0.7599452787498937 0.3733906713717325 0  0.8246353957385743 0.3732520239197724 0  0.8897621827755623 0.3731830072898437 0  0.9553721101117916 0.3732334229528695 0  1.021483866242942 0.3734666664646769 0  0 0.4375 0  0.06289933298973849 0.4374055167975124 0  0.1258140603577161 0.4373078317817966 0  0.1887602260815749 0.4372036923884822 0  0.2517551461773625 0.4370897783960396 0  0.3148181351804342 0.4369627118693301 0  0.3779713514835866 0.4368191351502335 0  0.4412408243350815 0.4366559070123037 0  0.5046577473839525 0.4364704979856542 0  0.5682601500380865 0.436261713639743 0  0.6320950777139611 0.436030943356 0  0.6962213966837378 0.4357842181818468 0  0.7607132345504265 0.4355354345199702 0  0.8256638160483499 0.4353110624244561 0  0.8911891321273975 0.4351562787487206 0  0.9574311000198772 0.4351413780490478 0  1.024562458439271 0.4353653291350266 0  0 0.5 0  0.06290785693174859 0.4999005557694501 0  0.1258315154781342 0.4997973803486515 0  0.1887874235840497 0.4996866305285157 0  0.251793353704683 0.4995642557233604 0  0.3148691675003869 0.4994259200792713 0  0.378037726326952 0.4992669713694751 0  0.4413260439051419 0.4990825028226201 0  0.5047668402623908 0.4988675930270469 0  0.5684007676850596 0.4986178774127303 0  0.6322797682901331 0.4983307206424805 0  0.6964723160466412 0.4980074441240029 0  0.761071684375948 0.497657322252465 0  0.8262087380891655 0.4973043116735174 0  0.8920707542480575 0.4969973496956835 0  0.9589272058632121 0.4968235353333526 0  1.027164051690001 0.4969188119379517 0  0 0.5625 0  0.06290064526498383 0.5623993116661378 0  0.1258168732991321 0.5622944679780548 0  0.1887648746691362 0.5621811325533697 0  0.2517621460791104 0.5620545996445997 0  0.3148282435273017 0.5619096042754733 0  0.3779856864830935 0.5617401373344596 0  0.4412611273621609 0.5615392917463889 0  0.504686997631669 0.5612992025876355 0  0.5683040389801318 0.5610112180066906 0  0.6321655165466403 0.5606665847328218 0  0.6963446381444 0.5602582175921399 0  0.7609479425933481 0.5597846527893997 0  0.8261391853815384 0.5592581608188555 0  0.8921798518686436 0.5587199922821602 0  0.9594918145428097 0.5582651078433414 0  1.028743698928481 0.5580710849981353 0  0 0.625 0  0.06287790501232543 0.6249022005184917 0  0.1257705490718276 0.6248000018370272 0  0.1886932091070032 0.6246887579393116 0  0.2516623760654952 0.6245632944578438 0  0.3146964403658791 0.6244175989356531 0  0.377816499690198 0.6242444573894841 0  0.4410473872061193 0.6240350261574653 0  0.5044191196176716 0.6237783465896233 0  0.5679691990434669 0.623460860118656 0  0.6317467374356662 0.6230661073638277 0  0.6958205538799191 0.6225751048009438 0  0.7602958647185547 0.6219686431049722 0  0.8253488342195433 0.6212345126807652 0  0.8912951958820249 0.6203863575971312 0  0.9587137789582162 0.6195057603259591 0  1.02863567766263 0.6188113839972169 0  0 0.6875 0  0.06284047119452796 0.6874094578587526 0  0.1256942462761655 0.6873145250329749 0  0.1885750754289937 0.6872105152918996 0  0.251497768285442 0.6870920911774765 0  0.3144787646354314 0.6869528513854919 0  0.3775367669638371 0.6867848007363521 0  0.4406934762048508 0.6865776437664576 0  0.5039745275105386 0.6863178277619991 0  0.5674108889472016 0.6859872512656219 0  0.6310414637492567 0.6855615772186456 0  0.6949189603721725 0.6850082383225161 0  0.7591246128629968 0.6842848087196697 0  0.8238061314791754 0.6833405161771313 0  0.8892727212197025 0.682130896878543 0  0.9562105582455801 0.6806778624256034 0  1.026073587090024 0.6792391206690155 0  0 0.75 0  0.06278977813346429 0.7499210682794288 0  0.1255908954710534 0.7498380607101079 0  0.1884150375957858 0.7497465880335918 0  0.2512747554009346 0.749641557086914 0  0.3141838983232919 0.7495167010000896 0  0.3771580379884557 0.7493639415273269 0  0.4402148434945511 0.7491724803040043 0  0.5033743330872188 0.748927461892943 0  0.5666588976089328 0.7486079638475361 0  0.6300930782023157 0.7481839288857663 0  0.6937037333865286 0.7476114421630005 0  0.7575240871021636 0.7468255170678459 0  0.8216157964238477 0.7457298319732427 0  0.8861594076816199 0.7441874172506145 0  0.9517713274646212 0.7420492097864707 0  1.020277280324917 0.7394671709002588 0  0 0.8125 0  0.06272779842219368 0.8124367129888092 0  0.1254645244993544 0.8123699921600349 0  0.1882193561367989 0.8122961132029607 0  0.2510021275166205 0.812210690864558 0  0.3138236311767569 0.8121082217166935 0  0.3766958605289373 0.8119814409038363 0  0.4396320905295164 0.8118203672454165 0  0.5026465649334557 0.8116108319467346 0  0.5657532889441069 0.8113321444011495 0  0.6289628913725902 0.8109532850923729 0  0.6922755889315556 0.8104264913470441 0  0.7556673037827727 0.8096759507835787 0  0.8190685971297402 0.808576536017073 0  0.882363902484718 0.8069107471152471 0  0.9456134627494834 0.8042817837200265 0  1.010932057308368 0.8000640858369472 0  0 0.875 0  0.06265695579935929 0.8749557499152246 0  0.1253200759098559 0.8749090122209502 0  0.1879956882069961 0.8748570748923993 0  0.2506905669260137 0.8747967109456831 0  0.3134121267681131 0.8747238135983993 0  0.376168551997 0.8746328710920399 0  0.4389687506734412 0.8745161674124176 0  0.5018218679486535 0.8743625183302216 0  0.564735716357368 0.8741552133913093 0  0.6277125572649184 0.8738685791148496 0  0.6907383584748258 0.8734620824219306 0  0.7537558571406153 0.8728697804149371 0  0.8165976034288861 0.8719796383780262 0  0.8788241725001299 0.8705841498226279 0  0.9393691367796011 0.8682216190991785 0  0.9959967778155745 0.8635011926379224 0  0 0.9375 0  0.06258002113461851 0.937477236819647 0  0.1251631939710904 0.9374531668227971 0  0.1877527533937911 0.9374263608993428 0  0.2503521666797108 0.9373951079467266 0  0.3129652355662297 0.9373572122972946 0  0.3755961652584573 0.9373096982572412 0  0.4382495401779602 0.93724835407
[...]
<PointData  Vectors="f_54"> 
<DataArray  type="Float64"  Name="f_54"  NumberOfComponents="3" format="ascii">0.0000000000000000e+00 0.0000000000000000e+00 0.0000000000000000e+00  0.0000000000000000e+00 0.0000000000000000e+00 0.0000000000000000e+00  0.0000000000000000e+00 0.0000000000000000e+00 0.0000000000000000e+00  0.0000000000000000e+00 0.0000000000000000e+00 0.0000000000000000e+00  0.0000000000000000e+00 0.0000000000000000e+00 0.0000000000000000e+00  0.0000000000000000e+00 0.0000000000000000e+00 0.0000000000000000e+00  0.0000000000000000e+00 0.0000000000000000e+00 0.0000000000000000e+00  0.0000000000000000e+00 0.0000000000000000e+00 0.0000000000000000e+00  0.0000000000000000e+00 0.0000000000000000e+00 0.0000000000000000e+00  0.0000000000000000e+00 0.0000000000000000e+00 0.0000000000000000e+00  0.0000000000000000e+00 0.0000000000000000e+00 0.0000000000000000e+00  0.0000000000000000e+00 0.0000000000000000e+00 0.0000000000000000e+00  0.0000000000000000e+00 0.0000000000000000e+00 0.0000000000000000e+00  0.0000000000000000e+00 0.0000000000000000e+00 0.0000000000000000e+00  0.0000000000000000e+00 0.0000000000000000e+00 0.0000000000000000e+00  0.0000000000000000e+00 0.0000000000000000e+00 0.0000000000000000e+00  0.0000000000000000e+00 0.0000000000000000e+00 0.0000000000000000e+00  0.0000000000000000e+00 0.0000000000000000e+00 0.0000000000000000e+00  -3.1910613477631173e-06 -1.2184516208015827e-07 0.0000000000000000e+00  -6.4577671062840357e-06 -2.4286913218566150e-07 0.0000000000000000e+00  -9.8744430253787901e-06 -3.6172229672143236e-07 0.0000000000000000e+00  -1.3508662253667859e-05 -4.7583502725894037e-07 0.0000000000000000e+00  -1.7416014664903610e-05 -5.8074583986882737e-07 0.0000000000000000e+00  -2.1632332848363555e-05 -6.6940494521958063e-07 0.0000000000000000e+00  -2.6162111340290494e-05 -7.3154884266805620e-07 0.0000000000000000e+00  -3.0961337794750868e-05 -7.5336955354219770e-07 0.0000000000000000e+00  -3.5911920048111409e-05 -7.1791234266006189e-07 0.0000000000000000e+00  -4.0782575417805869e-05 -6.0696418181506460e-07 0.0000000000000000e+00  -4.5165318559592698e-05 -4.0569293321858688e-07 0.0000000000000000e+00  -4.8361317540827332e-05 -1.1208062741897629e-07 0.0000000000000000e+00  -4.9145439735995546e-05 2.4529933655115352e-07 0.0000000000000000e+00  -4.5199426054422677e-05 5.7343341775291782e-07 0.0000000000000000e+00  -3.1519212821601550e-05 6.4126442396317029e-07 0.0000000000000000e+00  4.9284152706050973e-06 -1.3452082842595397e-07 0.0000000000000000e+00  0.0000000000000000e+00 0.0000000000000000e+00 0.0000000000000000e+00  -6.3129031301851295e-06 -2.4474603670507603e-07 0.0000000000000000e+00  -1.2781085334671653e-05 -4.8844760403327648e-07 0.0000000000000000e+00  -1.9557817266003488e-05 -7.2902489901795449e-07 0.0000000000000000e+00  -2.6784494294625480e-05 -9.6198370642467377e-07 0.0000000000000000e+00  -3.4581128497401677e-05 -1.1790314618264307e-06 0.0000000000000000e+00  -4.3031936648249143e-05 -1.3665618606305594e-06 0.0000000000000000e+00  -5.2163636322205060e-05 -1.5041433755284256e-06 0.0000000000000000e+00  -6.1913230687462596e-05 -1.5633807147846001e-06 0.0000000000000000e+00  -7.2080603622060634e-05 -1.5079173110794127e-06 0.0000000000000000e+00  -8.2258406523284176e-05 -1.2959859852911820e-06 0.0000000000000000e+00  -9.1725679150987530e-05 -8.8786875877689594e-07 0.0000000000000000e+00  -9.9278223241359244e-05 -2.6193354530264975e-07 0.0000000000000000e+00  -1.0293913539341256e-04 5.5552767811272584e-07 0.0000000000000000e+00  -9.9432949125051915e-05 1.4403904507585664e-06 0.0000000000000000e+00  -8.3221004312004307e-05 2.0989111655571508e-06 0.0000000000000000e+00  -4.5029003103143277e-05 2.0165442369889423e-06 0.0000000000000000e+00  0.0000000000000000e+00 0.0000000000000000e+00 0.0000000000000000e+00  -9.2841645686077641e-06 -3.6884172048606976e-07 0.0000000000000000e+00  -1.8809552943909422e-05 -7.3758703509312970e-07 0.0000000000000000e+00  -2.8815847589379495e-05 -1.1046659767866258e-06 0.0000000000000000e+00  -3.9528834552828853e-05 -1.4650152239316668e-06 0.0000000000000000e+00  -5.1148483602382307e-05 -1.8079546384300876e-06 0.0000000000000000e+00  -6.3830171198439462e-05 -2.1146853730467448e-06 0.0000000000000000e+00  -7.7655764278633356e-05 -2.3554750111007277e-06 0.0000000000000000e+00  -9.2590363252666709e-05 -2.4868783976478461e-06 0.0000000000000000e+00  -1.0841923538293948e-04 -2.4498695035633460e-06 0.0000000000000000e+00  -1.2465767764650257e-04 -2.1706732739981705e-06 0.0000000000000000e+00  -1.4042396000766248e-04 -1.5675619892800641e-06 0.0000000000000000e+00  -1.5426219805423895e-04 -5.6908553566202520e-07 0.0000000000000000e+00  -1.6390103810873371e-04 8.4776796460500980e-07 0.0000000000000000e+00  -1.6595257042136813e-04 2.5871342372686485e-06 0.0000000000000000e+00  -1.5566526418158926e-04 4.3141581432259550e-06 0.0000000000000000e+00  -1.2728631308958979e-04 5.2557953903624930e-06 0.0000000000000000e+00  0.0000000000000000e+00 0.0000000000000000e+00 0.0000000000000000e+00  -1.2017492529230198e-05 -4.9309756820983553e-07 0.0000000000000000e+00  -2.4369295592295988e-05 -9.8872031028073439e-07 0.0000000000000000e+00  -3.7390219755428311e-05 -1.4876245603007521e-06 0.0000000000000000e+00  -5.1403484504954009e-05 -1.9862713819763916e-06 0.0000000000000000e+00  -6.6709014290684305e-05 -2.4740160261951147e-06 0.0000000000000000e+00  -8.3563483451279036e-05 -2.9295141674976822e-06 0.0000000000000000e+00  -1.0214810735211395e-04 -3.3161900167435169e-06 0.0000000000000000e+00  -1.2251917857669358e-04 -3.5768426642437557e-06 0.0000000000000000e+00  -1.4453533344353149e-04 -3.6279873890402397e-06 0.0000000000000000e+00  -1.6775491278075031e-04 -3.3555808651648331e-06 0.0000000000000000e+00  -1.9129751048292486e-04 -2.6157311071418840e-06 0.0000000000000000e+00  -2.1366827232176456e-04 -1.2473251241373172e-06 0.0000000000000000e+00  -2.3255799837603130e-04 8.9133949122893675e-07 0.0000000000000000e+00  -2.4467290261764890e-04 3.8430657031998933e-06 0.0000000000000000e+00  -2.4575102146086851e-04 7.4053374423450678e-06 0.0000000000000000e+00  -2.3112839541695047e-04 1.0904029195536037e-05 0.0000000000000000e+00  0.0000000000000000e+00 0.0000000000000000e+00 0.0000000000000000e+00  -1.4418961788493842e-05 -6.1481812615740967e-07 0.0000000000000000e+00  -2.9271221213440860e-05 -1.2368074439327183e-06 0.0000000000000000e+00  -4.4994447299155855e-05 -1.8713175689908335e-06 0.0000000000000000e+00  -6.2022203794786016e-05 -2.5191133063564200e-06 0.0000000000000000e+00  -8.0775673638313058e-05 -3.1730922521235033e-06 0.0000000000000000e+00  -1.0164646094602085e-04 -3.8137043626644215e-06 0.0000000000000000e+00  -1.2496584823026681e-04 -4.4025397058073250e-06 0.0000000000000000e+00  -1.5095457010253781e-04 -4.8735786623906847e-06 0.0000000000000000e+00  -1.7964590902150166e-04 -5.1218704025125448e-06 0.0000000000000000e+00  -2.1077445123100997e-04 -4.9902549162145965e-06 0.0000000000000000e+00  -2.4362471481502402e-04 -4.2568005775429569e-06 0.0000000000000000e+00  -2.7684112485115437e-04 -2.6299497670309254e-06 0.0000000000000000e+00  -3.0821896090885013e-04 2.3360074348443876e-07 0.0000000000000000e+00  -3.3453333010311019e-04 4.6604133346547749e-06 0.0000000000000000e+00  -3.5152602088635467e-04 1.0797589241573471e-05 0.0000000000000000e+00  -3.5423105697464331e-04 1.8303509141168232e-05 0.0000000000000000e+00  0.0000000000000000e+00 0.0000000000000000e+00 0.0000000000000000e+00  -1.6389547299437864e-05 -7.2931656956646675e-07 0.0000000000000000e+00  -3.3313565777541846e-05 -1.4725661145941006e-06 0.0000000000000000e+00  -5.1316646373296664e-05 -2.2421571687405168e-06 0.0000000000000000e+00  -7.0952288298472858e-05 -3.0464092737533573e-06 0.0000000000000000e+00  -9.2781644462875269e-05 -3.8862482999913827e-06 0.0000000000000000e+00  -1.1736366918574887e-04 -4.7501116450047716e-06 0.0000000000000000e+00  -1.4523158624220659e-04 -5.6060468767480635e-06 0.0000000000000000e+00  -1.7684860016295168e-04 -6.3896345226167004e-06 0.0000000000000000e+00  -2.1253348322627759e-04 -6.9860374462708559e-06 0.0000000000000000e+00  -2.5234480682848602e-04 -7.2044920886260398e-06 0.0000000000000000e+00  -2.9591287977291349e-04 -6.7447119307481756e-06 0.0000000000000000e+00  -3.4221430782633449e-04 -5.1587169810250992e-06 0.0000000000000000e+00  -3.8930078255940836e-04 -1.8217325106473060e-06 0.0000000000000000e+00  -4.3402592860978113e-04 4.0536730982136711e-06 0.0000000000000000e+00  -4.7185497416383750e-04 1.3293316851062587e-05 0.0000000000000000e+00  -4.9684576385435367e-04 2.6425369353954531e-05 0.0000000000000000e+00  0.0000000000000000e+00 0.0000000000000000e+00 0.0000000000000000e+00  -1.7828994247019221e-05 -8.2984510709708482e-07 0.0000000000000000e+00  -3.6289495661948346e-05 -1.6822147119240662e-06 0.0000000000000000e+00  -5.6030539549482855e-05 -2.5788364434750173e-06 0.0000000000000000e+00  -7.7728270844248232e-05 -3.5388605018923288e-06 0.0000000000000000e+00  -1.0209538764611318e-04 -4.5762366322169279e-06 0.0000000000000000e+00  -1.2988372158700111e-04 -5.6950462948728896e-06 0.0000000000000000e+00  -1.6187484929446990e-04 -6.8813333178663480e-06 0.0000000000000000e+00  -1.9885067939639890e-04 -8.0891131763323805e-06 0.0000000000000000e+00  -2.4153185894264503e-04 -9.2169531878624004e-06 0.0000000000000000e+00  -2.9046688803425742e-04 -1.0069831983388231e-05 0.0000000000000000e+00  -3.4585050603145825e-04 -1.0299428289696020e-05 0.0000000000000000e+00  -4.0725019571230260e-04 -9.3164766822349563e-06 0.0000000000000000e+00  -4.7323228338679447e-04 -6.1764293059100816e-06 0.0000000000000000e+00  -5.4091330830463406e-04 5.3551240858979879e-07 0.0000000000000000e+00  -6.0551294345194200e-04 1.2739500842071374e-05 0.0000000000000000e+00  -6.5999136533767295e-04 3.2655669977526879e-05 0.0000000000000000e+00  0.0000000000000000e+00 0.0000000000000000e+00 0.0000000000000000e+00  -1.8642167147382258e-05 -9.0789779008612530e-07 0.0000000000000000e+00  -3.8000018575314703e-05 -1.8479880958661931e-06 0.0000000000000000e+00  -5.8815288665556761e-05 -2.8528325708483944e-06 0.0000000000000000e+00  -8.1878961541325665e-05 -3.9550153722421359e-06 0.0000000000000000e+00  -1.0805469421910174e-04 -5.1860831594623010e-06 0.0000000000000000e+00  -1.3829898514536789e-04 -6.5736718777990551e-06 0.0000000000000000e+00  -1.7367388616690071e-04 -8.1352019526093656e-06 0.0000000000000000e+00  -2.1534422059863597e-04 -9.8651984523821363e-06 0.0000000000000000e+00  -2.6454499441572361e-04 -1.1710929447187928e-05 0.0000000000000000e+00  -3.2249519218033220e-04 -1.3527002603430356e-05 0.0000000000000000e+00  -3.9022163907028124e-04 -1.4993111190679592e-05 0.0000000000000000e+00  -4.6824479592095592e-04 -1.5470468725117076e-05 0.0000000000000000e+00  -5.5607946532979468e-04 -1.3765937790172006e-05 0.0000000000000000e+00  -6.5154295802393391e-04 -7.7844899914684884e-06 0.0000000000000000e+00  -7.4996483610846511e-04 5.8842419138430301e-06 0.0000000000000000e+00  -8.4348901402343411e-04 3.2256349500137962e-05 0.0000000000000000e+00  0.0000000000000000e+00 0.0000000000000000e+00 0.0000000000000000e+00  -1.8747619444383031e-05 -9.5396799757424551e-07 0.0000000000000000e+00  -3.8271783290053146e-05 -1.9496403631118883e-06 0.0000000000000000e+00  -5.9383790976985045e-05 -3.0305878126983186e-06 0.0000000000000000e+00  -8.2967914347923947e-05 -4.2438891047502294e-06 0.0000000000000000e+00  -1.1002095298179093e-04 -5.6414898239694116e-06 0.0000000000000000e+00  -1.4169430301053367e-04 -7.2806434150029662e-06 0.0000000000000000e+00  -1.7933676144835738e-04 -9.2221899161869205e-06 0.0000000000000000e+00  -2.2453227622517533e-04 -1.1523996620773600e-05 0.0000000000000000e+00  -2.7911903247523868e-04 -1.4223934206859357e-05 0.0000000000000000e+00  -3.4516194764173637e-04 -1.7300718822414430e-05 0.0000000000000000e+00  -4.2482664618755399e-04 -2.0588794014768608e-05 0.0000000000000000e+00  -5.2006863649715202e-04 -2.3600091633163515e-05 0.0000000000000000e+00  -6.3201913834882583e-04 -2.5165719341345971e-05 0.0000000000000000e+00  -7.5997051529354959e-04 -2.2762692936340960e-05 0.0000000000000000e+00  -9.0005911796036775e-04 -1.1402600839640845e-05 0.0000000000000000e+00  -1.0441869043823920e-03 1.7808619476146459e-05 0.0000000000000000e+00  0.0000000000000000e+00 0.0000000000000000e+00 0.0000000000000000e+00  -1.8087706024071507e-05 -9.5876650546566799e-07 0.0000000000000000e+00  -3.6978484632911171e-05 -1.9669930589066814e-06 0.0000000000000000e+00  -5.7517737166711494e-05 -3.0775944838506997e-06 0.0000000000000000e+00  -8.0645636233423325e-05 -4.3508224769260515e-06 0.0000000000000000e+00  -1.0745287814502142e-04 -5.8585638930362923e-06 0.0000000000000000e+00  -1.3924663576792785e-04 -7.6892457326197353e-06 0.0000000000000000e+00  -1.7762929594872346e-04 -9.9531340039531580e-06 0.0000000000000000e+00  -2.2458993976123617e-04 -1.2786936649581701e-05 0.0000000000000000e+00  -2.8260150819064695e-04 -1.6354375249521424e-05 0.0000000000000000e+00  -3.5470014654698673e-04 -2.0833718192140818e-05 0.0000000000000000e+00  -4.4448820180701976e-04 -2.6368981461209629e-05 0.0000000000000000e+00  -5.5593525120995141e-04 -3.2925722077894731e-05 0.0000000000000000e+00  -6.9274424183453105e-04 -3.9905431172845893e-05 0.0000000000000000e+00  -8.5695356240741473e-04 -4.5183247507151863e-05 0.0000000000000000e+00  -1.0466468203949395e-03 -4.2957389693656239e-05 0.0000000000000000e+00  -1.2536613832711458e-03 -1.9952904390618206e-05 0.0000000000000000e+00  0.0000000000000000e+00 0.0000000000000000e+00 0.0000000000000000e+00  -1.6639088299859606e-05 -9.1478644985974075e-07 0.0000000000000000e+00  -3.4063559840220605e-05 -1.8833213489982465e-06 0.0000000000000000e+00  -5.3105986847532478e-05 -2.9641439013622688e-06 0.0000000000000000e+00  -7.4709214046924749e-05 -4.2264717917539855e-06 0.0000000000000000e+00  -9.9995298056002833e-05 -5.7573045188854014e-06 0.0000000000000000e+00  -1.3035312193395994e-04 -7.6709387777805248e-06 0.0000000000000000e+00  -1.6755335943880907e-04 -1.0122176820587729e-05 0.0000000000000000e+00  -2.1390047728354143e-04 -1.3324865912528363e-05 0.0000000000000000e+00  -2.7242963553725469e-04 -1.7577530732409255e-05 0.0000000000000000e+00  -3.4714547949259237e-04 -2.3296632552369329e-05 0.0000000000000000e+00  -4.4326480331871956e-04 -3.1051289009069401e-05 0.0000000000000000e+00  -5.6733191293529444e-04 -4.1566222939834109e-05 0.0000000000000000e+00  -7.2685786942401371e-04 -5.5558976029962207e-05 0.0000000000000000e+00  -9.2872062968199292e-04 -7.2920156270810297e-05 0.0000000000000000e+00  -1.1753266852326391e-03 -8.9644493060333919e-05 0.0000000000000000e+00  -1.4601332125815257e-03 -8.9777793965833025e-05 0.0000000000000000e+00  0.0000000000000000e+00 0.0000000000000000e+00 0.0000000000000000e+00  -1.4422031593888174e-05 -8.1796473670906592e-07 0.0000000000000000e+00  -2.9560808659406999e-05 -1.6890472136685029e-06 0.0000000000000000e+00  -4.6180839942087198e-05 -2.6718749469352994e-06 0.0000000000000000e+00  -6.5161617940581390e-05 -3.8376872576015090e-06 0.0000000000000000e+00  -8.7573052282224377e-05 -5.2792837430937941e-06 0.0000000000000000e+00  -1.1477666662607670e-04 -7.1238602142004245e-06 0.0000000000000000e+00  -1.4856771871797180e-04 -9.5524010701847244e-06 0.0000000000000000e+00  -1.9138006592091917e-04 -1.2830050881767643e-05 0.0000000000000000e+00  -2.4658415111516237e-04 -1.7355115069503008e-05 0.0000000000000000e+00  -3.1891555740317935e-04 -2.3740376577034861e-05 0.0000000000000000e+00  -4.1506342201467496e-04 -3.2951508738454843e-05 0.0000000000000000e+00  -5.4437894918614373e-04 -4.6544577651539558e-05 0.0000000000000000e+00  -7.1939480111010495e-04 -6.7047598038985084e-05 0.0000000000000000e+00  -9.5496536383179553e-04 -9.8337936440625839e-05 0.0000000000000000e+00  -1.2623479549121284e-03 -1.4416280203881680e-04 0.0000000000000000e+00  -1.6384801969577124e-03 -1.9061175909921505e-04 0.0000000000000000e+00  0.0000000000000000e+00 0.0000000000000000e+00 0.0000000000000000e+00  -1.1506603394897416e-05 -6.6908284744377465e-07 0.0000000000000000e+00  -2.3608787524501437e-05 -1.3849374420371580e-06 0.0000000000000000e+00  -3.6945054663191785e-05 -2.1996786035178203e-06 0.0000000000000000e+00  -5.2259411038068378e-05 -3.1778485624050860e-06 0.0000000000000000e+00  -7.0473248651740868e-05 -4.4055537367403776e-06 0.0000000000000000e+00  -9.2785863362811432e-05 -6.0040193958257222e-06 0.0000000000000000e+00  -1.2082307030146045e-04 -8.1508236914947109e-06 0.0000000000000000e+00  -1.5686565747097112e-04 -1.1114497828475308e-05 0.0000000000000000e+00  -2.0421050994982816e-04 -1.5313001727979543e-05 0.0000000000000000e+00  -2.6775204394307325e-04 -2.1416928906624891e-05 0.0000000000000000e+00  -3.5492333233201292e-04 -3.0542852911213288e-05 0.0000000000000000e+00  -4.7718959757453010e-04 -4.4647022599726813e-05 0.0000000000000000e+00  -6.5223467191884437e-04 -6.7414391736694016e-05 0.0000000000000000e+00  -9.0630523745698186e-04 -1.0647692213678107e-04 0.0000000000000000e+00  -1.2719627755790408e-03 -1.7928146183265520e-04 0.0000000000000000e+00  -1.7363235554178466e-03 -3.2783857166655204e-04 0.0000000000000000e+00  0.0000000000000000e+00 0.0000000000000000e+00 0.0000000000000000e+00  -8.0139246456342862e-06 -4.7452772307003840e-07 0.0000000000000000e+00  -1.6454740311673054e-05 -9.8392213199101578e-07 0.0000000000000000e+00  -2.5781795258811707e-05 -1.5672714862105780e-06 0.0000000000000000e+00  -3.6535352404175077e-05 -2.2735754455369929e-06 0.0000000000000000e+00  -4.9393242331073644e-05 -3.1691607957538444e-06 0.0000000000000000e+00  -6.5252475722976113e-05 -4.3488328234251715e-06 0.0000000000000000e+00  -8.5354447549828248e-05 -5.9535061531054323e-06 0.0000000000000000e+00  -1.1148654182545029e-04 -8.1989539994230992e-06 0.0000000000000000e+00  -1.4632049448545570e-04 -1.1423699248193516e-05 0.0000000000000000e+00  -1.9400244365800346e-04 -1.6170284364212403e-05 0.0000000000000000e+00  -2.6121927410859951e-04 -2.3326914151123356e-05 0.0000000000000000e+00  -3.5918653809710800e-04 -3.4390864897030379e-05 0.0000000000000000e+00  -5.0744105513735277e-04 -5.2047246793845320e-05 0.0000000000000000e+00  -7.4120420258025441e-04 -8.1881106384401489e-05 0.0000000000000000e+00  -1.1264205476327494e-03 -1.3903049397128730e-04 0.0000000000000000e+00  -1.7985131465840655e-03 -2.7598850636202611e-04 0.0000000000000000e+00  0.0000000000000000e+00 0.0000000000000000e+00 0.0000000000000000e+00  -4.1111605284128249e-06 -2.4612989807492112e-07 0.0000000000000000e+00  -8.4448590976481695e-06 -5.1085371699942262e-07 0.0000000000000000e+00  -1.3241043302179492e-05 -8.1508241105731361e-07 0.0000000000000000e+00  -1.8783429495123063e-05 -1.1851924894718383e-06 0.0000000000000000e+00  -2.5430631652188561e-05 -1.6571389741758367e-06 0.0000000000000000e+00  -3.3661781563511638e-05 -2.2826501029346537e-06 0.0000000000000000e+00  -4.4148042853872819e-05 -3.1389616355934205e-06 0.0000000000000000e+00  -5.7870953427608544e-05 -4.3443276427113122e-06 0.0000000000000000e+00  -7.6328139439986974e-05 -6.0822846933201366e-06 0.0000000000000000e+00  -1.0190853201164303e-04 -8.6364254797892422e-06 0.0000000000000000e+00  -1.3860895219716093e-04 -1.2425173260450951e-05 0.0000000000000000e+00  -1.9345106825266426e-04 -1.7963509735902478e-05 0.0000000000000000e+00  -2.7926606394608521e-04 -2.5404740415818113e-05 0.0000000000000000e+00  -4.1935580653726173e-04 -3.2243405545666706e-05 0.0000000000000000e+00  -6.4878464607717593e-04 -2.4735613664077994e-05 0.0000000000000000e+00  -9.7480032998790045e-04 3.8092741975567935e-05 0.0000000000000000e+00  0.0000000000000000e+00 0.0000000000000000e+00 0.0000000000000000e+00  0.0000000000000000e+00 0.0000000000000000e+00 0.0000000000000000e+00  0.0000000000000000e+00 0.0000000000000000e+00 0.0000000000000000e+00  0.0000000000000000e+00 0.0000000000000000e+00 0.0000000000000000e+00  0.0000000000000000e+00 0.0000000000000000e+00 0.0000000000000000e+00  0.0000000000000000e+00 0.0000000000000000e+00 0.0000