<?xml version="1.0"?>
<VTKFile type="UnstructuredGrid"  version="0.1"  >
<UnstructuredGrid>
<Piece  NumberOfPoints="289" NumberOfCells="512">
<Points>
<DataArray  type="Float64"  NumberOfComponents="3"  format="ascii">0 0 0  0.0625 0 0  0.125 0 0  0.1875 0 0  0.25 0 0  0.3125 0 0  0.375 0 0  0.4375 0 0  0.5 0 0  0.5625 0 0  0.625 0 0  0.6875 0 0  0.75 0 0  0.8125 0 0  0.875 0 0  0.9375 0 0  1 0 0  0 0.0625 0  0.06257702677094153 0.06249102122942346 0  0.1251566853069753 0.06248184506487261 0  0.1877416811590664 0.06247228287737528 0  0.2503348350006136 0.06246216781283432 0  0.312939137172419 0.06245136971449922 0  0.3755577999202134 0.06243981454528145 0  0.438194314117085 0.06242750873824878 0  0.5008525337826556 0.06241456710330334 0  0.5635368560017645 0.06240123916131611 0  0.6262526832479189 0.06238792095965748 0  0.6890076874614213 0.06237512193274828 0  0.7518153673395963 0.06236331057863709 0  0.8147054062024228 0.06235241661017362 0  0.8777552926743122 0.06234021856795172 0  0.9411927961420039 0.06231657578075524 0  1.005755592045391 0.06224073709261491 0  0 0.125 0  0.06265148468603311 0.1249822345045505 0  0.1253081938969272 0.1249640632800542 0  0.187975503736919 0.1249450964979894 0  0.2506590325928649 0.1249249844948639 0  0.3133647563287524 0.1249034463333717 0  0.3760991164681027 0.1248803082233462 0  0.4388691269581346 0.1248555536856314 0  0.5016825027787217 0.1248293847351626 0  0.5645478784085148 0.1248022879866855 0  0.6274752907111599 0.124775089710046 0  0.690477340155096 0.1247489684270476 0  0.7535719325949291 0.1247253795777827 0  0.8167882703942199 0.1247058871855425 0  0.8801777226842373 0.1246922803767766 0  0.943822473304247 0.1246895054553652 0  1.007774501333999 0.1247245516467413 0  0 0.1875 0  0.06272077600866006 0.1874738494269995 0  0.1254492667927821 0.1874470654802657 0  0.1881934202123964 0.1874190345197465 0  0.2509615686270598 0.1873891944609977 0  0.3137626122522664 0.1873570739445502 0  0.3766061876537873 0.1873223478866272 0  0.4395028160943937 0.1872849143040019 0  0.5024640294449029 0.1872449952015832 0  0.5655024796821877 0.1872032591239894 0  0.6286320502508909 0.1871609521720355 0  0.6918679780752356 0.1871200038923969 0  0.7552268366846073 0.1870830369740409 0  0.8187254465488925 0.1870531303523416 0  0.8823748813998769 0.1870329343053161 0  0.9461571799514807 0.1870215714701103 0  1.00995521706036 0.1870016374130334 0  0 0.25 0  0.06278241224578754 0.2499660946586654 0  0.1255748560724027 0.2499313041788838 0  0.1883876809472435 0.2498947618944611 0  0.2512317811919846 0.2498556530573899 0  0.3141188596035214 0.2498132590908114 0  0.3770616712211737 0.249767025402872 0  0.4400742293389541 0.2497166622433964 0  0.5031719406420394 0.249662288108297 0  0.5663716049777137 0.2496046227856482 0  0.6296911441477065 0.249545229391438 0  0.693148752292554 0.2494867864992945 0  0.7567607397511287 0.2494333335231741 0  0.8205363571482538 0.2493903586337602 0  0.8844658579811802 0.2493644693582321 0  0.9484950820982269 0.2493622801744496 0  1.012480159076756 0.2493890930642023 0  0 0.3125 0  0.06283408245795762 0.3124592225681065 0  0.125680260325377 0.3124172847777456 0  0.1885510336319472 0.3123730366679359 0  0.2514596263037055 0.3123253654715643 0  0.3144203466486902 0.312273236305497 0  0.3774489341925976 0.3122157628051164 0  0.4405628707629952 0.3121523227045362 0  0.5037816083234374 0.3120827371550424 0  0.5671266147668751 0.3120075358854057 0  0.6306210343573206 0.3119283306944183 0  0.6942885493480055 0.3118483123081305 0  0.7581506276915749 0.3117728617449222 0  0.8222206618101001 0.3117102157948621 0  0.8864926627549566 0.3116720459097005 0  0.95092218658729 0.3116737580193842 0  1.015401349361045 0.3117344746989341 0  0 0.375 0  0.06287372972512724 0.374953508415453 0  0.1257612778082179 0.3749055657615692 0  0.1886769524105499 0.3748547152350257 0  0.2516359777150995 0.3747995042174363 0  0.3146549676157242 0.3747385095679172 0  0.3777524084117376 0.3746703961333926 0  0.4409491388613789 0.3745940285048251 0  0.5042687938467135 0.3745086647410082 0  0.5677381331307222 0.3744142722877884 0  0.6313870879677852 0.374312019561604 0  0.6952481909862401 0.3742050076005581 0  0.7593547681023108 0.3740993045776321 0  0.8237368683782618 0.3740053109582517 0  0.8884135953070788 0.3739393803858835 0  0.9533810162734737 0.3739254061500232 0  1.01859762051896 0.3739956829967826 0  0 0.4375 0  0.06289963654731168 0.4374492422829931 0  0.1258143802151893 0.437396743870034 0  0.188759905327193 0.4373407339365619 0  0.2517529934222558 0.4372793935207751 0  0.3148121283976498 0.4372108513315288 0  0.3779581386822736 0.4371332101847549 0  0.4412148998838262 0.4370446265325997 0  0.5046101060014164 0.4369434791433291 0  0.5681761037398009 0.4368286838250582 0  0.631950752552435 0.4367002409686878 0  0.6959782038806073 0.4365601408231488 0  0.7603093589864875 0.4364137881877752 0  0.8250015475527931 0.4362721116044906 0  0.8901167298085972 0.436154415743718 0  0.9557175561573336 0.4360916858904656 0  1.021861569370937 0.4361293447414261 0  0 0.5 0  0.06291051695957031 0.4999467124791396 0  0.1258369034532978 0.4998914211168792 0  0.1887956573408454 0.4998320607039285 0  0.2518045522410344 0.4997664488393965 0  0.3148833465908485 0.4996922381510856 0  0.3780545853545189 0.4996068882950319 0  0.4413445413583405 0.4995076776204013 0  0.5047843638711988 0.4993917910037668 0  0.5684115385705585 0.4992565489218826 0  0.6322718243089693 0.499099890115588 0  0.6964219249522183 0.498921293769034 0  0.7609332679424944 0.4987234280965413 0  0.8258973294280579 0.4985149106236962 0  0.8914328016132494 0.4983145353975517 0  0.9576943361466522 0.4981568163197939 0  1.024881969462742 0.4980970251354164 0  0 0.5625 0  0.0629056091103766 0.5624461802403865 0  0.1258272426022329 0.5623901526934388 0  0.1887815889002553 0.5623296135680443 0  0.2517867325224412 0.5622620633827384 0  0.3148629494643972 0.5621847049977463 0  0.3780336362804976 0.5620943413963042 0  0.4413264509390412 0.5619872835034695 0  0.5047747908875518 0.5618592936210682 0  0.5684198265476794 0.5617056201756917 0  0.6323134873403072 0.5615212374438893 0  0.6965231276504699 0.5613015120629375 0  0.7611391581456582 0.5610437086427241 0  0.826287713720673 0.5607500411426238 0  0.8921511108258737 0.5604332770988595 0  0.958998374293821 0.5601256170312408 0  1.027225280935531 0.5598887966491574 0  0 0.625 0  0.06288475821721592 0.6249478472497401 0  0.1257850293388094 0.624893378375306 0  0.1887169930672865 0.6248341486651667 0  0.2516982737369657 0.6247674419173206 0  0.3147487757598685 0.6246901114528006 0  0.3778916771457885 0.6245983934433216 0  0.4411546756370181 0.6244876858412048 0  0.5045716443049719 0.6243522935930839 0  0.5681849846674856 0.6241851607427026 0  0.632049246233175 0.6239776592016121 0  0.6962371789884932 0.6237196200122587 0  0.7608506098578056 0.6234000583725716 0  0.8260408297224805 0.6230096223275955 0  0.8920467027368219 0.6225469037813388 0  0.9592616386367058 0.6220320420733044 0  1.02833648081889 0.6215282998002425 0  0 0.6875 0  0.06284847752648419 0.68745181958627 0  0.1257112647536994 0.6874013446971099 0  0.1886033038575344 0.6873461285158443 0  0.2515409423714681 0.6872833952686618 0  0.3145427508452286 0.6872098330061287 0  0.3776304996658606 0.6871213290944308 0  0.4408303836081546 0.6870126199047918 0  0.5041746362575232 0.6868768189808855 0  0.5677037970421251 0.6867047830260763 0  0.6314701841511217 0.6864842837177022 0  0.6955438545250847 0.6861990111234939 0  0.7600241663991556 0.6858276521096826 0  0.8250645352302566 0.6853440105603412 0  0.8909279054872802 0.6847214007343598 0  0.958107396197034 0.6839508139125269 0  1.027554000054028 0.6830919038729117 0  0 0.75 0  0.06279797514110239 0.7499580737713037 0  0.1256083809877178 0.7499140299341225 0  0.18844420935637 0.7498655903529307 0  0.251319724969527 0.749810124826825 0  0.3142512059922532 0.749744417779422 0  0.3772578240113114 0.7496643540848337 0  0.4403627264747146 0.7495644750555678 0  0.5035944044672223 0.7494373310079809 0  0.5669884739193503 0.749272517937281 0  0.6305901337520048 0.7490552266390217 0  0.6944580266068853 0.7487640508709094 0  0.7586718441796788 0.748367730260271 0  0.8233515615024556 0.747820687306939 0  0.8887143180574955 0.7470590438450394 0  0.9552478602547962 0.7460097455368083 0  1.024162075832504 0.7446816086690559 0  0 0.8125 0  0.06273513755611299 0.8124664319256223 0  0.1254802119081077 0.8124310873504434 0  0.1882456160417353 0.8123920414910324 0  0.2510427949524074 0.8123470407700053 0  0.3138848566660811 0.8122932769084269 0  0.3767872920762105 0.8122270714576737 0  0.4397688360733196 0.812143410813069 0  0.502852481583267 0.8120352346090238 0  0.5660665961483075 0.8118923145771179 0  0.6294459432243621 0.8116994414147486 0  0.6930321378811902 0.8114334099026567 0  0.7568728748934499 0.8110578307081679 0  0.8210210238007545 0.810513799772152 0  0.8855493670991055 0.8097024075525132 0  0.9506837706569072 0.8084539450601697 0  1.017667196880306 0.8065300821837909 0  0 0.875 0  0.06266246578791852 0.8749765529946951 0  0.1253318643562934 0.874951822546807 0  0.1880154516589889 0.8749244108139884 0  0.2507212380991886 0.8748926644019477 0  0.3134584275494866 0.8748544943710344 0  0.3762379330424923 0.8748071187089318 0  0.4390729825693652 0.8747466722390662 0  0.5019797891323392 0.8746675913721272 0  0.5649781383534959 0.8745616121053267 0  0.6280914006149917 0.8744160897654021 0  0.6913445123404848 0.8742110915120761 0  0.754755851794102 0.873914145285606 0  0.8183120804390421 0.8734700125156067 0  0.881899213540132 0.8727776157859829 0  0.9451446892150005 0.871623344381697 0  1.007284407982318 0.8694100627533592 0  0 0.9375 0  0.06258296578234282 0.9374879450607165 0  0.1251694939693539 0.9374752168020442 0  0.1877633154788549 0.9374610795543876 0  0.2503685578177845 0.9374446577617797 0  0.3129899778400312 0.9374248359826366 0  0.3756332377467235 0.9374001137369677 0  0.4383052324279116 0.93736838205
[...]
<PointData  Vectors="f_54"> 
<DataArray  type="Float64"  Name="f_54"  NumberOfComponents="3" format="ascii">0.0000000000000000e+00 0.0000000000000000e+00 0.0000000000000000e+00  0.0000000000000000e+00 0.0000000000000000e+00 0.0000000000000000e+00  0.0000000000000000e+00 0.0000000000000000e+00 0.0000000000000000e+00  0.0000000000000000e+00 0.0000000000000000e+00 0.0000000000000000e+00  0.0000000000000000e+00 0.0000000000000000e+00 0.0000000000000000e+00  0.0000000000000000e+00 0.0000000000000000e+00 0.0000000000000000e+00  0.0000000000000000e+00 0.0000000000000000e+00 0.0000000000000000e+00  0.0000000000000000e+00 0.0000000000000000e+00 0.0000000000000000e+00  0.0000000000000000e+00 0.0000000000000000e+00 0.0000000000000000e+00  0.0000000000000000e+00 0.0000000000000000e+00 0.0000000000000000e+00  0.0000000000000000e+00 0.0000000000000000e+00 0.0000000000000000e+00  0.0000000000000000e+00 0.0000000000000000e+00 0.0000000000000000e+00  0.0000000000000000e+00 0.0000000000000000e+00 0.0000000000000000e+00  0.0000000000000000e+00 0.0000000000000000e+00 0.0000000000000000e+00  0.0000000000000000e+00 0.0000000000000000e+00 0.0000000000000000e+00  0.0000000000000000e+00 0.0000000000000000e+00 0.0000000000000000e+00  0.0000000000000000e+00 0.0000000000000000e+00 0.0000000000000000e+00  0.0000000000000000e+00 0.0000000000000000e+00 0.0000000000000000e+00  -2.3303650491279968e-06 -5.1844605899448724e-08 0.0000000000000000e+00  -4.7092997729525923e-06 -1.0279142707029539e-07 0.0000000000000000e+00  -7.1826130433022532e-06 -1.5166397104186948e-07 0.0000000000000000e+00  -9.7884617601478629e-06 -1.9669581431480169e-07 0.0000000000000000e+00  -1.2551640048677335e-05 -2.3524521097667961e-07 0.0000000000000000e+00  -1.5475305852897320e-05 -2.6356118228110261e-07 0.0000000000000000e+00  -1.8528768459930048e-05 -2.7669760473716279e-07 0.0000000000000000e+00  -2.1629254308393323e-05 -2.6876756779584702e-07 0.0000000000000000e+00  -2.4614067712641590e-05 -2.3389201199144029e-07 0.0000000000000000e+00  -2.7196023476136798e-05 -1.6847669526911712e-07 0.0000000000000000e+00  -2.8885868573604911e-05 -7.5990926914587655e-08 0.0000000000000000e+00  -2.8839717688449190e-05 2.3301586910275593e-08 0.0000000000000000e+00  -2.5511774354858115e-05 7.1366808209191447e-08 0.0000000000000000e+00  -1.5738086766871873e-05 -7.9980781500569095e-08 0.0000000000000000e+00  8.0395039062049627e-06 -8.2973196609415628e-07 0.0000000000000000e+00  6.7601521971711370e-05 -3.4465631446863363e-06 0.0000000000000000e+00  0.0000000000000000e+00 0.0000000000000000e+00 0.0000000000000000e+00  -4.6172736292384133e-06 -1.0469555732968098e-07 0.0000000000000000e+00  -9.3357490241555282e-06 -2.0788647401445413e-07 0.0000000000000000e+00  -1.4251778744554555e-05 -3.0750745056473285e-07 0.0000000000000000e+00  -1.9447937132232846e-05 -4.0029222590014924e-07 0.0000000000000000e+00  -2.4982531845985315e-05 -4.8115393548587379e-07 0.0000000000000000e+00  -3.0874245762147960e-05 -5.4261122411229026e-07 0.0000000000000000e+00  -3.7079409844583647e-05 -5.7441505027504062e-07 0.0000000000000000e+00  -4.3458381940592824e-05 -5.6370226256348258e-07 0.0000000000000000e+00  -4.9725627748246237e-05 -4.9628415943553327e-07 0.0000000000000000e+00  -5.5374359799674160e-05 -3.6011769312971830e-07 0.0000000000000000e+00  -5.9558674902497456e-05 -1.5263931928865240e-07 0.0000000000000000e+00  -6.0899199967796459e-05 1.0560782574397314e-07 0.0000000000000000e+00  -5.7144624566241641e-05 3.4846822306523340e-07 0.0000000000000000e+00  -4.4573180623134066e-05 4.3487592044291190e-07 0.0000000000000000e+00  -1.7066485451632505e-05 1.4781176311715730e-07 0.0000000000000000e+00  3.4207992483057076e-05 -5.5185116133787216e-07 0.0000000000000000e+00  0.0000000000000000e+00 0.0000000000000000e+00 0.0000000000000000e+00  -6.8073429931865713e-06 -1.5913526599436645e-07 0.0000000000000000e+00  -1.3775365392994559e-05 -3.1674841415737400e-07 0.0000000000000000e+00  -2.1059090968218306e-05 -4.7048600028799038e-07 0.0000000000000000e+00  -2.8796595885898455e-05 -6.1618179880575329e-07 0.0000000000000000e+00  -3.7095578898185929e-05 -7.4683680030094135e-07 0.0000000000000000e+00  -4.6013248655298759e-05 -8.5153742217926185e-07 0.0000000000000000e+00  -5.5526254868489042e-05 -9.1445285008732481e-07 0.0000000000000000e+00  -6.5486418797537681e-05 -9.1426512292779043e-07 0.0000000000000000e+00  -7.5556704635520078e-05 -8.2475140303315851e-07 0.0000000000000000e+00  -8.5120188912902260e-05 -6.1782119210045741e-07 0.0000000000000000e+00  -9.3153039696955000e-05 -2.7114898642887350e-07 0.0000000000000000e+00  -9.8052780633004773e-05 2.1645295657660814e-07 0.0000000000000000e+00  -9.7424705635701042e-05 7.9800074606800190e-07 0.0000000000000000e+00  -8.7887214551696390e-05 1.3358074306128392e-06 0.0000000000000000e+00  -6.5172504721725615e-05 1.5378221398569221e-06 0.0000000000000000e+00  -2.5434405075809674e-05 8.2636650992366348e-07 0.0000000000000000e+00  0.0000000000000000e+00 0.0000000000000000e+00 0.0000000000000000e+00  -8.8404692010938867e-06 -2.1515381119384539e-07 0.0000000000000000e+00  -1.7909322290119903e-05 -4.2964510292939637e-07 0.0000000000000000e+00  -2.7430241951327470e-05 -6.4175765719929316e-07 0.0000000000000000e+00  -3.7610902135590989e-05 -8.4742451413562556e-07 0.0000000000000000e+00  -4.8629136514150636e-05 -1.0387707990929875e-06 0.0000000000000000e+00  -6.0611203122135885e-05 -1.2023651624654251e-06 0.0000000000000000e+00  -7.3598311929203112e-05 -1.3172075143685843e-06 0.0000000000000000e+00  -8.7496685028581335e-05 -1.3526812173814043e-06 0.0000000000000000e+00  -1.0200567092825288e-04 -1.2670907263745647e-06 0.0000000000000000e+00  -1.1651855333628597e-04 -1.0081164173467718e-06 0.0000000000000000e+00  -1.2999344565491777e-04 -5.1769771391796581e-07 0.0000000000000000e+00  -1.4080130774553462e-04 2.5439348269640727e-07 0.0000000000000000e+00  -1.4658458639128466e-04 1.3218511943028299e-06 0.0000000000000000e+00  -1.4422386842274644e-04 2.6098474935055315e-06 0.0000000000000000e+00  -1.3014022930148006e-04 3.8734635600282259e-06 0.0000000000000000e+00  -1.0132887859105894e-04 4.5992754277520933e-06 0.0000000000000000e+00  0.0000000000000000e+00 0.0000000000000000e+00 0.0000000000000000e+00  -1.0648582663584861e-05 -2.7186702275364170e-07 0.0000000000000000e+00  -2.1600911226475501e-05 -5.4504687766636651e-07 0.0000000000000000e+00  -3.3159041277904318e-05 -8.1968589778685035e-07 0.0000000000000000e+00  -4.5614836635170303e-05 -1.0932519234229358e-06 0.0000000000000000e+00  -5.9238781449651479e-05 -1.3586921745940049e-06 0.0000000000000000e+00  -7.4260350265672393e-05 -1.6019660826833157e-06 0.0000000000000000e+00  -9.0835611096883512e-05 -1.7987551546656482e-06 0.0000000000000000e+00  -1.0899660210878895e-04 -1.9102534905044930e-06 0.0000000000000000e+00  -1.2857611198376353e-04 -1.8782400243671049e-06 0.0000000000000000e+00  -1.4910174738510791e-04 -1.6203373220922762e-06 0.0000000000000000e+00  -1.6965660423253319e-04 -1.0278294864484289e-06 0.0000000000000000e+00  -1.8871434505902506e-04 2.8829813047536919e-08 0.0000000000000000e+00  -2.0398035130842051e-04 1.6770695536735945e-06 0.0000000000000000e+00  -2.1231469552510912e-04 3.9855529109629884e-06 0.0000000000000000e+00  -2.0987130360819868e-04 6.8512398865136863e-06 0.0000000000000000e+00  -1.9259923094449267e-04 9.8078437171388579e-06 0.0000000000000000e+00  0.0000000000000000e+00 0.0000000000000000e+00 0.0000000000000000e+00  -1.2156349721629059e-05 -3.2728598033269743e-07 0.0000000000000000e+00  -2.4696586018074604e-05 -6.5910201996556069e-07 0.0000000000000000e+00  -3.8008039152439611e-05 -9.9888517851535740e-07 0.0000000000000000e+00  -5.2478831740779916e-05 -1.3474582850170340e-06 0.0000000000000000e+00  -6.8492696926192396e-05 -1.7010023819518606e-06 0.0000000000000000e+00  -8.6415717121203909e-05 -2.0480375225809779e-06 0.0000000000000000e+00  -1.0657027299868889e-04 -2.3648945561773947e-06 0.0000000000000000e+00  -1.2918970191659620e-04 -2.6090444983907475e-06 0.0000000000000000e+00  -1.5434513919158796e-04 -2.7096383701995291e-06 0.0000000000000000e+00  -1.8183446027743048e-04 -2.5549518830158371e-06 0.0000000000000000e+00  -2.1102381649230889e-04 -1.9776884300146824e-06 0.0000000000000000e+00  -2.4063812522492735e-04 -7.4238248514526676e-07 0.0000000000000000e+00  -2.6851261819731365e-04 1.4536630273841982e-06 0.0000000000000000e+00  -2.9134604269279998e-04 4.9410505795147771e-06 0.0000000000000000e+00  -3.0452702608526055e-04 9.9553024937748105e-06 0.0000000000000000e+00  -3.0209058898201374e-04 1.6363177666003605e-05 0.0000000000000000e+00  0.0000000000000000e+00 0.0000000000000000e+00 0.0000000000000000e+00  -1.3284146088502103e-05 -3.7820000315427138e-07 0.0000000000000000e+00  -2.7031798468594685e-05 -7.6532309994153519e-07 0.0000000000000000e+00  -4.1716946445956815e-05 -1.1695302757859960e-06 0.0000000000000000e+00  -5.7830185574055011e-05 -1.5970062379345213e-06 0.0000000000000000e+00  -7.5882962232565385e-05 -2.0501265849009787e-06 0.0000000000000000e+00  -9.6405380569257324e-05 -2.5243646567344373e-06 0.0000000000000000e+00  -1.1993287699215127e-04 -3.0030827290852484e-06 0.0000000000000000e+00  -1.4697436343511855e-04 -3.4489047023916948e-06 0.0000000000000000e+00  -1.7795056120891890e-04 -3.7897700276282032e-06 0.0000000000000000e+00  -2.1308623984070009e-04 -3.8971599036841261e-06 0.0000000000000000e+00  -2.5223478928710399e-04 -3.5539005804203290e-06 0.0000000000000000e+00  -2.9461059959611158e-04 -2.4108801542626944e-06 0.0000000000000000e+00  -3.3840951116564358e-04 6.0574868436592342e-08 0.0000000000000000e+00  -3.8031730646786234e-04 4.5945273662221693e-06 0.0000000000000000e+00  -4.1494027089618329e-04 1.2068432556564725e-05 0.0000000000000000e+00  -4.3420489978281493e-04 2.3224415652809253e-05 0.0000000000000000e+00  0.0000000000000000e+00 0.0000000000000000e+00 0.0000000000000000e+00  -1.3953379240673994e-05 -4.2025016197620279e-07 0.0000000000000000e+00  -2.8441851402999705e-05 -8.5466014927956875e-07 0.0000000000000000e+00  -4.4019369894975150e-05 -1.3172500066565706e-06 0.0000000000000000e+00  -6.1275981022631848e-05 -1.8213832537465064e-06 0.0000000000000000e+00  -8.0854535298253757e-05 -2.3786667267426543e-06 0.0000000000000000e+00  -1.0346430831319420e-04 -2.9965916012817119e-06 0.0000000000000000e+00  -1.2988775553945551e-04 -3.6738492612820524e-06 0.0000000000000000e+00  -1.6097317239900980e-04 -4.3914508321860844e-06 0.0000000000000000e+00  -1.9760018093722327e-04 -5.0964171282110733e-06 0.0000000000000000e+00  -2.4059559225910926e-04 -5.6726395678528374e-06 0.0000000000000000e+00  -2.9056343693079474e-04 -5.8904593714628602e-06 0.0000000000000000e+00  -3.4757581087592145e-04 -5.3233841262321818e-06 0.0000000000000000e+00  -4.1065718672294584e-04 -3.2209087026084288e-06 0.0000000000000000e+00  -4.7700144420385031e-04 1.6582683480671009e-06 0.0000000000000000e+00  -5.4091448496931870e-04 1.1194388477385373e-05 0.0000000000000000e+00  -5.9256894918922117e-04 2.7855705519196115e-05 0.0000000000000000e+00  0.0000000000000000e+00 0.0000000000000000e+00 0.0000000000000000e+00  -1.4093925177414961e-05 -4.4826387633601400e-07 0.0000000000000000e+00  -2.8777380587862077e-05 -9.1613431630316037e-07 0.0000000000000000e+00  -4.4667508334323275e-05 -1.4239550564480373e-06 0.0000000000000000e+00  -6.2438555602569961e-05 -1.9933638541199803e-06 0.0000000000000000e+00  -8.2853031425442653e-05 -2.6475138899757650e-06 0.0000000000000000e+00  -1.0679505103056178e-04 -3.4104623405568394e-06 0.0000000000000000e+00  -1.3530445943830000e-04 -4.3047637279654779e-06 0.0000000000000000e+00  -1.6960693621702089e-04 -5.3453114927136524e-06 0.0000000000000000e+00  -2.1112845052490687e-04 -6.5255117134962428e-06 0.0000000000000000e+00  -2.6146935841432769e-04 -7.7880735445110986e-06 0.0000000000000000e+00  -3.2228998801923778e-04 -8.9655569001328132e-06 0.0000000000000000e+00  -3.9502152540553582e-04 -9.6632362514042706e-06 0.0000000000000000e+00  -4.8026515016308678e-04 -9.0378639490123539e-06 0.0000000000000000e+00  -5.7670437979682381e-04 -5.4087784523040306e-06 0.0000000000000000e+00  -6.7941270966067604e-04 4.3364363552354849e-06 0.0000000000000000e+00  -7.7771880218042446e-04 2.5407392047973576e-05 0.0000000000000000e+00  0.0000000000000000e+00 0.0000000000000000e+00 0.0000000000000000e+00  -1.3653062912236777e-05 -4.5688330656785166e-07 0.0000000000000000e+00  -2.7923288704218128e-05 -9.3813235301801566e-07 0.0000000000000000e+00  -4.3463235727374754e-05 -1.4698522250172788e-06 0.0000000000000000e+00  -6.1001952378606914e-05 -2.0817495491568789e-06 0.0000000000000000e+00  -8.1390620547855091e-05 -2.8091220095993347e-06 0.0000000000000000e+00  -1.0565728909445627e-04 -3.6949052746226927e-06 0.0000000000000000e+00  -1.3507339305844724e-04 -4.7913720273508223e-06 0.0000000000000000e+00  -1.7123296492173982e-04 -6.1603027480827419e-06 0.0000000000000000e+00  -2.1614017524706274e-04 -7.8686276958983069e-06 0.0000000000000000e+00  -2.7228768611707393e-04 -9.9722970342874866e-06 0.0000000000000000e+00  -3.4267858147888968e-04 -1.2471292017135639e-05 0.0000000000000000e+00  -4.3068313810158058e-04 -1.5196099654939540e-05 0.0000000000000000e+00  -5.3950849805091785e-04 -1.7535979582514890e-05 0.0000000000000000e+00  -6.7089523730613342e-04 -1.7820116503654464e-05 0.0000000000000000e+00  -8.2256943193961677e-04 -1.2026010884285452e-05 0.0000000000000000e+00  -9.8443515864128227e-04 8.4382315504087106e-06 0.0000000000000000e+00  0.0000000000000000e+00 0.0000000000000000e+00 0.0000000000000000e+00  -1.2604860865366810e-05 -4.4144904041019274e-07 0.0000000000000000e+00  -2.5819015352750946e-05 -9.1030734711563648e-07 0.0000000000000000e+00  -4.0292391875880812e-05 -1.4366363809474663e-06 0.0000000000000000e+00  -5.6765303384687811e-05 -2.0562704547066528e-06 0.0000000000000000e+00  -7.6125829135025646e-05 -2.8146465225433463e-06 0.0000000000000000e+00  -9.9483686744052937e-05 -3.7718789000586095e-06 0.0000000000000000e+00  -1.2826876298932614e-04 -5.0096353045786688e-06 0.0000000000000000e+00  -1.6436422817868164e-04 -6.6403333611644760e-06 0.0000000000000000e+00  -2.1028445407533555e-04 -8.8186708360892396e-06 0.0000000000000000e+00  -2.6940238888121989e-04 -1.1753451197371361e-05 0.0000000000000000e+00  -3.4620799330673066e-04 -1.5710797736261282e-05 0.0000000000000000e+00  -4.4651026505877544e-04 -2.0978093782367500e-05 0.0000000000000000e+00  -5.7731653961298854e-04 -2.7690098163947454e-05 0.0000000000000000e+00  -7.4572142967722129e-04 -3.5210958039862933e-05 0.0000000000000000e+00  -9.5549883746296447e-04 -4.0190588036773591e-05 0.0000000000000000e+00  -1.2003319681862853e-03 -3.1480616063505125e-05 0.0000000000000000e+00  0.0000000000000000e+00 0.0000000000000000e+00 0.0000000000000000e+00  -1.0958568207963073e-05 -3.9900823651969519e-07 0.0000000000000000e+00  -2.2477084092336754e-05 -8.2581632998552351e-07 0.0000000000000000e+00  -3.5157310700703727e-05 -1.3114474257339170e-06 0.0000000000000000e+00  -4.9695933679709649e-05 -1.8941245129201276e-06 0.0000000000000000e+00  -6.6947707677918593e-05 -2.6244703429799161e-06 0.0000000000000000e+00  -8.8011011718354268e-05 -3.5730534034826633e-06 0.0000000000000000e+00  -1.1434946459110276e-04 -4.8418806005896528e-06 0.0000000000000000e+00  -1.4796995469276426e-04 -6.5824247994657315e-06 0.0000000000000000e+00  -1.9168721801462736e-04 -9.0244475109300347e-06 0.0000000000000000e+00  -2.4951715717813828e-04 -1.2522596491058522e-05 0.0000000000000000e+00  -3.2724852238584241e-04 -1.7631605528300723e-05 0.0000000000000000e+00  -4.3321681380438455e-04 -2.5223138301686291e-05 0.0000000000000000e+00  -5.7914617580888329e-04 -3.6637810325514651e-05 0.0000000000000000e+00  -7.8031658277075578e-04 -5.3707418819577732e-05 0.0000000000000000e+00  -1.0523717067516863e-03 -7.7523659419971152e-05 0.0000000000000000e+00  -1.3998215810685016e-03 -9.9722184319782763e-05 0.0000000000000000e+00  0.0000000000000000e+00 0.0000000000000000e+00 0.0000000000000000e+00  -8.7643211860381229e-06 -3.2923176662904043e-07 0.0000000000000000e+00  -1.7996210760142413e-05 -6.8341522216518873e-07 0.0000000000000000e+00  -2.8201141865369234e-05 -1.0907443895176805e-06 0.0000000000000000e+00  -3.9971892110472274e-05 -1.5867686504047257e-06 0.0000000000000000e+00  -5.4048702435920738e-05 -2.2199659260519322e-06 0.0000000000000000e+00  -7.1403914546360416e-05 -3.0602123769606230e-06 0.0000000000000000e+00  -9.3367978407399426e-05 -4.2123790673514917e-06 0.0000000000000000e+00  -1.2182479065650850e-04 -5.8390117080067416e-06 0.0000000000000000e+00  -1.5952408976344630e-04 -8.1994386455467201e-06 0.0000000000000000e+00  -2.1059360721230593e-04 -1.1719636804203657e-05 0.0000000000000000e+00  -2.8139351699265551e-04 -1.7122613660556591e-05 0.0000000000000000e+00  -3.8194739853502930e-04 -2.5686141638107592e-05 0.0000000000000000e+00  -5.2827210909770742e-04 -3.9791085846390034e-05 0.0000000000000000e+00  -7.4572371413789184e-04 -6.4180327340551094e-05 0.0000000000000000e+00  -1.0711050330932254e-03 -1.0890028525478976e-04 0.0000000000000000e+00  -1.5291200998153692e-03 -1.9324549861077724e-04 0.0000000000000000e+00  0.0000000000000000e+00 0.0000000000000000e+00 0.0000000000000000e+00  -6.1145472162250048e-06 -2.3498704118852751e-07 0.0000000000000000e+00  -1.2565271209257711e-05 -4.8882210092439935e-07 0.0000000000000000e+00  -1.9717125891278526e-05 -7.8297829747628081e-07 0.0000000000000000e+00  -2.8002003503878361e-05 -1.1449384827064450e-06 0.0000000000000000e+00  -3.7965994637844939e-05 -1.6128712200883274e-06 0.0000000000000000e+00  -5.0337619738415171e-05 -2.2429044556516105e-06 0.0000000000000000e+00  -6.6132691550462535e-05 -3.1210789748519180e-06 0.0000000000000000e+00  -8.6823426689327106e-05 -4.3837403762165812e-06 0.0000000000000000e+00  -1.1462294509630235e-04 -6.2534106202437508e-06 0.0000000000000000e+00  -1.5298399620601951e-04 -9.1038356320578350e-06 0.0000000000000000e+00  -2.0751082601054146e-04 -1.3582323117781293e-05 0.0000000000000000e+00  -2.8770008715847933e-04 -2.0852860999314881e-05 0.0000000000000000e+00  -4.1041315140635928e-04 -3.3130388483202878e-05 0.0000000000000000e+00  -6.0713998813011563e-04 -5.5094464535741625e-05 0.0000000000000000e+00  -9.4050668947602285e-04 -9.8811945304040936e-05 0.0000000000000000e+00  -1.5534058462435096e-03 -2.0684564009486230e-04 0.0000000000000000e+00  0.0000000000000000e+00 0.0000000000000000e+00 0.0000000000000000e+00  -3.1399610250153580e-06 -1.2235442900937565e-07 0.0000000000000000e+00  -6.4554499852991581e-06 -2.5483792617856272e-07 0.0000000000000000e+00  -1.0137450386093026e-05 -4.0904096919409028e-07 0.0000000000000000e+00  -1.4413100826804514e-05 -5.9991473634028178e-07 0.0000000000000000e+00  -1.9571556277163811e-05 -8.4841644404289749e-07 0.0000000000000000e+00  -2.6001848126320460e-05 -1.1856603473162317e-06 0.0000000000000000e+00  -3.4252081043253302e-05 -1.6597810221331080e-06 0.0000000000000000e+00  -4.5126985556143750e-05 -2.3476434399810076e-06 0.0000000000000000e+00  -5.9856651104485388e-05 -3.3751756770417736e-06 0.0000000000000000e+00  -8.0403177463296210e-05 -4.9526683342611281e-06 0.0000000000000000e+00  -1.1004793849230478e-04 -7.4336960167846808e-06 0.0000000000000000e+00  -1.5457734265024721e-04 -1.1398546560837694e-05 0.0000000000000000e+00  -2.2478022226333773e-04 -1.7690336689274176e-05 0.0000000000000000e+00  -3.4167106854600610e-04 -2.6921385188024440e-05 0.0000000000000000e+00  -5.4518636404124368e-04 -3.6049996301764172e-05 0.0000000000000000e+00  -8.8806739396120077e-04 -2.4104225900023908e-05 0.0000000000000000e+00  0.0000000000000000e+00 0.0000000000000000e+00 0.0000000000000000e+00  0.0000000000000000e+00 0.0000000000000000e+00 0.0000000000000000e+00  0.0000000000000000e+00 0.0000000000000000e+00 0.0000000000000000e+00  0.0000000000000000e+00 0.0000000000000000e+00 0.0000000000000000e+00  0.0000000000000000e+00 0.0000000000000000e+00 0.0000000000000000e+00  0.0000000000000000e+00 0.0000000000000000e+00 0.000000000000