<?xml version="1.0"?>
<VTKFile type="UnstructuredGrid"  version="0.1"  >
<UnstructuredGrid>
<Piece  NumberOfPoints="289" NumberOfCells="512">
<Points>
<DataArray  type="Float64"  NumberOfComponents="3"  format="ascii">0 0 0  0.0625 0 0  0.125 0 0  0.1875 0 0  0.25 0 0  0.3125 0 0  0.375 0 0  0.4375 0 0  0.5 0 0  0.5625 0 0  0.625 0 0  0.6875 0 0  0.75 0 0  0.8125 0 0  0.875 0 0  0.9375 0 0  1 0 0  0 0.0625 0  0.06254048408314622 0.0624935092242069 0  0.125081910088688 0.06248690016596113 0  0.1876251837804091 0.06248006497089539 0  0.2501711143154223 0.06247291944416745 0  0.3127203401200543 0.06246541851773883 0  0.3752732208880113 0.0624575756568015 0  0.4378296799541994 0.06244948641333807 0  0.5003889762256617 0.06244135464689763 0  0.562949374792911 0.06243351679447846 0  0.6255076612277842 0.06242645426051831 0  0.6880583775730468 0.06242077598334922 0  0.750592451591518 0.06241714328473986 0  0.8130941943358457 0.06241610269053884 0  0.875533059184193 0.0624178121942127 0  0.9378360366118405 0.06242181929743279 0  0.9997797409130156 0.06242881675312198 0  0 0.125 0  0.06258002811904939 0.1249871364435797 0  0.1251619895029692 0.1249740250948907 0  0.18774775640651 0.1249604375457687 0  0.2503390329055149 0.1249461897921465 0  0.312937222732075 0.1249311721498965 0  0.3755432343434912 0.1249153879101435 0  0.4381571953509942 0.1248990020485059 0  0.500778042322619 0.1248823985404231 0  0.5634029429519891 0.1248662393254195 0  0.6260264910047374 0.1248515079864956 0  0.6886395760061795 0.1248395048963028 0  0.7512277301922704 0.1248317377349583 0  0.8137685060331638 0.1248296302224439 0  0.8762269563551274 0.1248339912606968 0  0.9385485452755169 0.1248443547941133 0  1.000661020161119 0.1248584534720165 0  0 0.1875 0  0.06261764090085428 0.1874810118604897 0  0.1252382873888161 0.187461625622716 0  0.1878648786142692 0.1874414684679319 0  0.2505001570585878 0.187420226534834 0  0.3131465048918577 0.1873976867555446 0  0.37580569487347 0.1873737935122652 0  0.4384785184308382 0.1873487241091994 0  0.5011642477127084 0.1873229844728593 0  0.5638598839932095 0.1872975203772595 0  0.6265591444755908 0.1872738267196038 0  0.689251147327843 0.187254012600507 0  0.7519187796402351 0.187240733334267 0  0.8145368135522633 0.1872368095278171 0  0.8770701727128282 0.187244149335807 0  0.9394742705705681 0.1872610271619405 0  1.001705218533313 0.1872750488582038 0  0 0.25 0  0.06265225355613392 0.2499752863914203 0  0.1253086770645818 0.2499499971891248 0  0.1879733941165818 0.2499235831776621 0  0.2506503603044 0.2498955586930043 0  0.3133432030264142 0.2498655505585106 0  0.3760549602494666 0.2498333688394316 0  0.4387876724346756 0.2497991078762604 0  0.5015417740523218 0.249763285515316 0  0.5643152264216635 0.2497270249019834 0  0.6271023383288662 0.249692272950969 0  0.6898922465946147 0.2496620257596124 0  0.7526670980386406 0.2496404813191608 0  0.8154001387779303 0.2496329428940686 0  0.8780543136057133 0.2496451253428776 0  0.9405829418692258 0.249681287806486 0  1.002935895052836 0.2497406844053991 0  0 0.3125 0  0.0626827060343579 0.3124701379688804 0  0.1253708222012128 0.3124394942374528 0  0.1880697613234764 0.3124073080757411 0  0.2507848631474438 0.3123728729999691 0  0.313521278941448 0.3123355849575453 0  0.3762837487080538 0.3122950188406844 0  0.4390762178995244 0.3122510474407663 0  0.5019012271840375 0.3122040204237013 0  0.5647589959775918 0.312155023682353 0  0.627646113957923 0.3121062385930291 0  0.690553765971671 0.3120614098643695 0  0.7534654666336975 0.3120263970496245 0  0.816354416684959 0.3120097061484811 0  0.8791809117442128 0.3120227445126476 0  0.9418909276694035 0.3120793014372011 0  1.004418295419996 0.3121934843785438 0  0 0.375 0  0.06270776099996291 0.3749657728715709 0  0.1254222003285381 0.3749305346438085 0  0.1881500772374068 0.3748932819848207 0  0.2508982416413225 0.3748530393552491 0  0.3136736087525824 0.3748088953613711 0  0.3764830331439267 0.3747600710732626 0  0.4393330254563907 0.3747060396778629 0  0.5022292337683767 0.3746467255965125 0  0.5651755850631539 0.3745828233367343 0  0.6281729527195398 0.3745162914200382 0  0.6912171901495173 0.3744510913879567 0  0.7542963639421925 0.3743942454353514 0  0.8173870654400603 0.3743572518579104 0  0.8804498447140331 0.3743577686306545 0  0.9434242037300062 0.3744211517415384 0  1.006224275200076 0.3745807697827351 0  0 0.4375 0  0.0627261501865692 0.4374624203348313 0  0.12546019456404 0.4374235902738437 0  0.188210211784545 0.4373822458918837 0  0.2509845975118024 0.4373371062152636 0  0.313792173964703 0.4372868842941349 0  0.3766422236856188 0.4372303281514813 0  0.4395443951540229 0.4371663134564373 0  0.5025083999714727 0.4370940234870154 0  0.5655433813374569 0.4370132741030048 0  0.628656779133258 0.4369250759758891 0  0.6918524475918411 0.4368325770845361 0  0.7551277012726588 0.4367425947572245 0  0.8184688871942936 0.436668009624102 0  0.8818450326267844 0.4366312860015578 0  0.9451991302234652 0.4366691369824491 0  1.008436672121733 0.4368375799365443 0  0 0.5 0  0.06273665468415519 0.4999603191305266 0  0.1254822575374203 0.4999191604629249 0  0.1882460613091959 0.4998750045576925 0  0.2510379072815023 0.4998262539206705 0  0.3138685074168088 0.4997712052302601 0  0.3767496971667796 0.4997080412978823 0  0.4396946237927796 0.4996348617403653 0  0.5027178061427916 0.4995497872971903 0  0.5658349566729158 0.499451201316613 0  0.6290623890923056 0.4993382425615282 0  0.6924157388107532 0.4992117514464579 0  0.7559075911338761 0.4990760186004002 0  0.8195434319074706 0.4989419084977196 0  0.8833150766865605 0.4988322040151789 0  0.9471903241592694 0.4987901447628181 0  1.011096913761818 0.498891542544627 0  0 0.5625 0  0.0627382158614592 0.5624596958183472 0  0.1254861419742414 0.5624177272183704 0  0.1882539159808974 0.5623723564435964 0  0.2510525505279125 0.5623216972313997 0  0.3138944093249654 0.5622636380491572 0  0.3767937217922902 0.5621957663228182 0  0.4397671341178059 0.562115302770841 0  0.5028342744034026 0.5620190680021615 0  0.5660182752445893 0.5619035297747847 0  0.6293461432417334 0.561765031915994 0  0.6928487877305796 0.5616004113506511 0  0.7565604178922275 0.5614084197337077 0  0.8205168726702128 0.5611927726305445 0  0.8847521755533535 0.5609683703077336 0  0.949291934270414 0.5607732376805543 0  1.014140654529785 0.5606891842104674 0  0 0.625 0  0.06273006772731077 0.6249607359790506 0  0.1254701801447007 0.6249196943767557 0  0.1882309164191434 0.624874994081499 0  0.2510239898684118 0.6248245367843763 0  0.3138629126472176 0.6247658785788301 0  0.3767637821191936 0.6246960775396864 0  0.4397462343702229 0.6246115100972888 0  0.502834610638937 0.6245076529679253 0  0.5660593789871157 0.6243788390379569 0  0.6294588487278334 0.6242180259953634 0  0.6930812251891157 0.6240166927885793 0  0.7569871246429144 0.6237651695129947 0  0.8212528886166712 0.6234541818442884 0  0.8859754249980555 0.623079539179762 0  0.9512793717472781 0.6226543126359364 0  1.017325521313396 0.6222358881239848 0  0 0.6875 0  0.06271187509531922 0.6874635517280021 0  0.1254335804072533 0.6874253174026013 0  0.1881755510470239 0.6873833849743465 0  0.2509495380208849 0.6873355724342541 0  0.3137694210980554 0.6872792559274821 0  0.3766522279774797 0.6872111479736807 0  0.4396194609406829 0.6871269994422163 0  0.5026988630303182 0.6870211894135329 0  0.5659268008187338 0.6868861540531561 0  0.6293515154979755 0.6867115899765903 0  0.693037650218406 0.6864833564357564 0  0.7570728585799682 0.6861820289169765 0  0.8215783592055924 0.6857812749213674 0  0.88672787129349 0.6852472279424165 0  0.952783960695277 0.6845438725731666 0  1.020162749948454 0.6836596872219611 0  0 0.75 0  0.06268385621045565 0.749968150702412 0  0.1253766960025576 0.74993463495497 0  0.188088121642682 0.7498976516021348 0  0.250829106051791 0.7498551067996158 0  0.3136128747578035 0.7498044185463455 0  0.3764560601206992 0.7497422519189113 0  0.4393802804563742 0.7496641425441709 0  0.5024143624942448 0.7495639433690962 0  0.5655975276267937 0.7494329917840317 0  0.6289840275538421 0.7492588278740491 0  0.6926500206102543 0.7490231728132501 0  0.7567041895289609 0.7486986411770675 0  0.8213056410063155 0.7482432123573747 0  0.8866990521726986 0.747590859228868 0  0.9532958194500826 0.7466379119072083 0  1.021861267823822 0.745246812303675 0  0 0.8125 0  0.0626468653662865 0.8124744128772267 0  0.1253012131135792 0.8124474162893531 0  0.1879710871905345 0.8124174753227842 0  0.2506657925924077 0.8123827798543015 0  0.3133967337598301 0.812341054718184 0  0.3761785493989549 0.8122892944724586 0  0.4390307262742534 0.8122233732545384 0  0.5019799697747566 0.8121374508327281 0  0.5650637626500453 0.8120230449158544 0  0.6283357891360394 0.8118675485601881 0  0.6918743060197341 0.8116517978483064 0  0.7557953030195994 0.8113459268198582 0  0.8202742935993708 0.8109018476883341 0  0.8855884096653869 0.8102381933029836 0  0.9522288599325711 0.8092060936401171 0  1.02133605294804 0.8075029058447485 0  0 0.875 0  0.0626024124438757 0.8749820813841884 0  0.1252102065317494 0.8749631385212356 0  0.1878291938064582 0.8749420498929499 0  0.2504661605612519 0.8749174792028566 0  0.3131295327472794 0.8748877239707971 0  0.3758303001094668 0.8748504996596559 0  0.4385833716256273 0.8748026152908246 0  0.5014096379898453 0.8747394690366922 0  0.5643391928582472 0.8746542450325068 0  0.6274164555659816 0.8745366118746738 0  0.6907083940933647 0.8743705838445089 0  0.7543176801318243 0.8741309478998346 0  0.8184032685506649 0.8737770633209254 0  0.8832115081924719 0.8732408758798783 0  0.949129649885828 0.8723976493317976 0  1.01692733885632 0.8709657228244116 0  0 0.9375 0  0.06255260356265059 0.9374907716688742 0  0.1251080255096685 0.9374810039146174 0  0.1876693185210951 0.9374701041011645 0  0.2502400697782524 0.9374573616401416 0  0.3128247722765747 0.9374418637212621 0  0.3754293508652303 0.9374223736356013 0  0.4380619517657213 0.9373971454205143 0  0.500
[...]
<PointData  Vectors="f_54"> 
<DataArray  type="Float64"  Name="f_54"  NumberOfComponents="3" format="ascii">0.0000000000000000e+00 0.0000000000000000e+00 0.0000000000000000e+00  0.0000000000000000e+00 0.0000000000000000e+00 0.0000000000000000e+00  0.0000000000000000e+00 0.0000000000000000e+00 0.0000000000000000e+00  0.0000000000000000e+00 0.0000000000000000e+00 0.0000000000000000e+00  0.0000000000000000e+00 0.0000000000000000e+00 0.0000000000000000e+00  0.0000000000000000e+00 0.0000000000000000e+00 0.0000000000000000e+00  0.0000000000000000e+00 0.0000000000000000e+00 0.0000000000000000e+00  0.0000000000000000e+00 0.0000000000000000e+00 0.0000000000000000e+00  0.0000000000000000e+00 0.0000000000000000e+00 0.0000000000000000e+00  0.0000000000000000e+00 0.0000000000000000e+00 0.0000000000000000e+00  0.0000000000000000e+00 0.0000000000000000e+00 0.0000000000000000e+00  0.0000000000000000e+00 0.0000000000000000e+00 0.0000000000000000e+00  0.0000000000000000e+00 0.0000000000000000e+00 0.0000000000000000e+00  0.0000000000000000e+00 0.0000000000000000e+00 0.0000000000000000e+00  0.0000000000000000e+00 0.0000000000000000e+00 0.0000000000000000e+00  0.0000000000000000e+00 0.0000000000000000e+00 0.0000000000000000e+00  0.0000000000000000e+00 0.0000000000000000e+00 0.0000000000000000e+00  0.0000000000000000e+00 0.0000000000000000e+00 0.0000000000000000e+00  4.3206247246656155e-06 -1.2498466763252155e-07 0.0000000000000000e+00  8.7827274247856647e-06 -2.5428908677456785e-07 0.0000000000000000e+00  1.3530755067874716e-05 -3.9227844001693375e-07 0.0000000000000000e+00  1.8712972715253007e-05 -5.4331693575162662e-07 0.0000000000000000e+00  2.4482594855953412e-05 -7.1165878812357714e-07 0.0000000000000000e+00  3.0997897858786419e-05 -9.0117714837985601e-07 0.0000000000000000e+00  3.8421046748850264e-05 -1.1148238295533815e-06 0.0000000000000000e+00  4.6915793993017426e-05 -1.3536624118569284e-06 0.0000000000000000e+00  5.6645627881741897e-05 -1.6152524059828414e-06 0.0000000000000000e+00  6.7778217911454127e-05 -1.8910882459940461e-06 0.0000000000000000e+00  8.0514643142384234e-05 -2.1627339317910479e-06 0.0000000000000000e+00  9.5200407044262577e-05 -2.3963290240606692e-06 0.0000000000000000e+00  1.1269908228273365e-04 -2.5357777369911976e-06 0.0000000000000000e+00  1.3563363141010819e-04 -2.4992327538886454e-06 0.0000000000000000e+00  1.7264115650453651e-04 -2.2091503331414237e-06 0.0000000000000000e+00  2.5352154593323361e-04 -1.8266268532501330e-06 0.0000000000000000e+00  0.0000000000000000e+00 0.0000000000000000e+00 0.0000000000000000e+00  8.5046123412710917e-06 -2.4578999502162117e-07 0.0000000000000000e+00  1.7290875512425828e-05 -5.0022320870757374e-07 0.0000000000000000e+00  2.6646650963509136e-05 -7.7207178298254129e-07 0.0000000000000000e+00  3.6868202658460258e-05 -1.0701981314377873e-06 0.0000000000000000e+00  4.8262842912664627e-05 -1.4034082680847411e-06 0.0000000000000000e+00  6.1149421383236037e-05 -1.7800133940307879e-06 0.0000000000000000e+00  7.5855759701271846e-05 -2.2068980805695261e-06 0.0000000000000000e+00  9.2712316622447556e-05 -2.6877913285805651e-06 0.0000000000000000e+00  1.1204234992413108e-04 -3.2203006955810604e-06 0.0000000000000000e+00  1.3415186268700511e-04 -3.7911035403254014e-06 0.0000000000000000e+00  1.5933031836129109e-04 -4.3684827360833546e-06 0.0000000000000000e+00  1.8789000625524821e-04 -4.8909659417817295e-06 0.0000000000000000e+00  2.2029975587487989e-04 -5.2489747291329877e-06 0.0000000000000000e+00  2.5746535681043923e-04 -5.2466047538284360e-06 0.0000000000000000e+00  3.0084212745973190e-04 -4.4799822428849581e-06 0.0000000000000000e+00  3.4940458771074600e-04 -1.8136907269066617e-06 0.0000000000000000e+00  0.0000000000000000e+00 0.0000000000000000e+00 0.0000000000000000e+00  1.2411036844577924e-05 -3.5807143435357288e-07 0.0000000000000000e+00  2.5240222072930499e-05 -7.2905509354199476e-07 0.0000000000000000e+00  3.8915645373103289e-05 -1.1261411394845786e-06 0.0000000000000000e+00  5.3879839767609025e-05 -1.5628641999400551e-06 0.0000000000000000e+00  7.0594804081138053e-05 -2.0530513303761150e-06 0.0000000000000000e+00  8.9543780587513294e-05 -2.6104160116184257e-06 0.0000000000000000e+00  1.1122797047210101e-04 -3.2475323048830303e-06 0.0000000000000000e+00  1.3615575054205122e-04 -3.9737700298428507e-06 0.0000000000000000e+00  1.6482121635894343e-04 -4.7915602093433465e-06 0.0000000000000000e+00  1.9766791555492617e-04 -5.6901154651868246e-06 0.0000000000000000e+00  2.3503155749544542e-04 -6.6355777859137307e-06 0.0000000000000000e+00  2.7704804362298717e-04 -7.5569478033095714e-06 0.0000000000000000e+00  3.2348418114603250e-04 -8.3296281872366861e-06 0.0000000000000000e+00  3.7334586754976680e-04 -8.7691865206376617e-06 0.0000000000000000e+00  4.2381153011315602e-04 -8.6947798523500249e-06 0.0000000000000000e+00  4.6740127886529733e-04 -8.3393914379220448e-06 0.0000000000000000e+00  0.0000000000000000e+00 0.0000000000000000e+00 0.0000000000000000e+00  1.5902905815142025e-05 -4.5754722351431354e-07 0.0000000000000000e+00  3.2353720380598198e-05 -9.3209142962963673e-07 0.0000000000000000e+00  4.9914679549987635e-05 -1.4411307987700679e-06 0.0000000000000000e+00  6.9170552102385189e-05 -2.0029550669377341e-06 0.0000000000000000e+00  9.0737441742128996e-05 -2.6368556713862626e-06 0.0000000000000000e+00  1.1526771408098815e-04 -3.3630187016175804e-06 0.0000000000000000e+00  1.4344842680679893e-04 -4.2018223475746780e-06 0.0000000000000000e+00  1.7598917061642077e-04 -5.1720604288997176e-06 0.0000000000000000e+00  2.1359282111257477e-04 -6.2873003017041521e-06 0.0000000000000000e+00  2.5689853553959090e-04 -7.5491360902135401e-06 0.0000000000000000e+00  3.0637848441941311e-04 -8.9355642729049874e-06 0.0000000000000000e+00  3.6215384713100270e-04 -1.0382348324213318e-05 0.0000000000000000e+00  4.2366228724430934e-04 -1.1755803577577674e-05 0.0000000000000000e+00  4.8904474632593042e-04 -1.2818251759253266e-05 0.0000000000000000e+00  5.5402850953188980e-04 -1.3190908594281519e-05 0.0000000000000000e+00  6.1010140928746117e-04 -1.2288893512554184e-05 0.0000000000000000e+00  0.0000000000000000e+00 0.0000000000000000e+00 0.0000000000000000e+00  1.8850303115253631e-05 -5.4013069581062216e-07 0.0000000000000000e+00  3.8367526591971126e-05 -1.1009459670670273e-06 0.0000000000000000e+00  5.9237997069893536e-05 -1.7039122060154278e-06 0.0000000000000000e+00  8.2181001437805907e-05 -2.3718995734718991e-06 0.0000000000000000e+00  1.0796317297557506e-04 -3.1298168308375304e-06 0.0000000000000000e+00  1.3740927599961461e-04 -4.0050858374748087e-06 0.0000000000000000e+00  1.7140650920179169e-04 -5.0277454368245622e-06 0.0000000000000000e+00  2.1089747816156225e-04 -6.2297599370403458e-06 0.0000000000000000e+00  2.5685369436273742e-04 -7.6427129169421001e-06 0.0000000000000000e+00  3.1021594131957548e-04 -9.2923679703463118e-06 0.0000000000000000e+00  3.7177862209396550e-04 -1.1187394911459328e-05 0.0000000000000000e+00  4.4198017756754424e-04 -1.3297671848665573e-05 0.0000000000000000e+00  5.2053939430988432e-04 -1.5514753195192069e-05 0.0000000000000000e+00  6.0585308703676153e-04 -1.7583057001289903e-05 0.0000000000000000e+00  6.9407454175628635e-04 -1.8984279219909319e-05 0.0000000000000000e+00  7.7791526234308184e-04 -1.8748918691227066e-05 0.0000000000000000e+00  0.0000000000000000e+00 0.0000000000000000e+00 0.0000000000000000e+00  2.1134457062558148e-05 -6.0214455962007945e-07 0.0000000000000000e+00  4.3039031001084599e-05 -1.2279829673687540e-06 0.0000000000000000e+00  6.6508850424223834e-05 -1.9022843951186211e-06 0.0000000000000000e+00  9.2384535751998580e-05 -2.6519056522139247e-06 0.0000000000000000e+00  1.2157401080159954e-04 -3.5069546181925839e-06 0.0000000000000000e+00  1.5507217064863519e-04 -4.5020654622827421e-06 0.0000000000000000e+00  1.9397607526089146e-04 -5.6777472855414304e-06 0.0000000000000000e+00  2.3949138372709008e-04 -7.0816184307247826e-06 0.0000000000000000e+00  2.9292246461949905e-04 -8.7689902658206275e-06 0.0000000000000000e+00  3.5563326279911309e-04 -1.0801495663749972e-05 0.0000000000000000e+00  4.2895762867619611e-04 -1.3240844042213079e-05 0.0000000000000000e+00  5.1402575423347167e-04 -1.6131565912361055e-05 0.0000000000000000e+00  6.1145878323226458e-04 -1.9460564807759133e-05 0.0000000000000000e+00  7.2087324452710583e-04 -2.3070873522663760e-05 0.0000000000000000e+00  8.4014783322685835e-04 -2.6491629823240959e-05 0.0000000000000000e+00  9.6445931032875865e-04 -2.8631812250531009e-05 0.0000000000000000e+00  0.0000000000000000e+00 0.0000000000000000e+00 0.0000000000000000e+00  2.2652827903046116e-05 -6.4060169777192608e-07 0.0000000000000000e+00  4.6157171520982481e-05 -1.3069225200830220e-06 0.0000000000000000e+00  7.1395277078717612e-05 -2.0259972000874140e-06 0.0000000000000000e+00  9.9308628170188004e-05 -2.8275532203352323e-06 0.0000000000000000e+00  1.3092855047975438e-04 -3.7456906143724967e-06 0.0000000000000000e+00  1.6740731450455974e-04 -4.8210106770454261e-06 0.0000000000000000e+00  2.1004880611358461e-04 -6.1034215750586586e-06 0.0000000000000000e+00  2.6033642078015904e-04 -7.6558784518975514e-06 0.0000000000000000e+00  3.1995338018485998e-04 -9.5592436467543642e-06 0.0000000000000000e+00  3.9078656804130400e-04 -1.1918057995539950e-05 0.0000000000000000e+00  4.7489851748467769e-04 -1.4865766444370987e-05 0.0000000000000000e+00  5.7444288778649123e-04 -1.8564667154858614e-05 0.0000000000000000e+00  6.9148738762254329e-04 -2.3188179571807543e-05 0.0000000000000000e+00  8.2769809879076753e-04 -2.8856672138953313e-05 0.0000000000000000e+00  9.8383639040021051e-04 -3.5466435978479476e-05 0.0000000000000000e+00  1.1590205758352365e-03 -4.2295689773568837e-05 0.0000000000000000e+00  0.0000000000000000e+00 0.0000000000000000e+00 0.0000000000000000e+00  2.3325063136896669e-05 -6.5350846216726483e-07 0.0000000000000000e+00  4.7554780368980406e-05 -1.3335141642322911e-06 0.0000000000000000e+00  7.3629731207593669e-05 -2.0679452202961281e-06 0.0000000000000000e+00  1.0256316167134821e-04 -2.8877742887895220e-06 0.0000000000000000e+00  1.3548075104657096e-04 -3.8290461276759461e-06 0.0000000000000000e+00  1.7366439252233061e-04 -4.9356525092853972e-06 0.0000000000000000e+00  2.1860115115446843e-04 -6.2633745544521520e-06 0.0000000000000000e+00  2.7203815987998452e-04 -7.8860139211244753e-06 0.0000000000000000e+00  3.3604331119721232e-04 -9.9048794866328947e-06 0.0000000000000000e+00  4.1306978036742466e-04 -1.2463451679575223e-05 0.0000000000000000e+00  5.0601906030156606e-04 -1.5769447857988712e-05 0.0000000000000000e+00  6.1829159511374212e-04 -2.0125822448886113e-05 0.0000000000000000e+00  7.5380602145925797e-04 -2.5967836520834377e-05 0.0000000000000000e+00  9.1695918673104801e-04 -3.3888981280696454e-05 0.0000000000000000e+00  1.1124959962759376e-03 -4.4601679861675714e-05 0.0000000000000000e+00  1.3452740919116960e-03 -5.8699524853493195e-05 0.0000000000000000e+00  0.0000000000000000e+00 0.0000000000000000e+00 0.0000000000000000e+00  2.3099373855963904e-05 -6.4012360654419971e-07 0.0000000000000000e+00  4.7122058187499592e-05 -1.3061293776102470e-06 0.0000000000000000e+00  7.3031187319449136e-05 -2.0252675990856441e-06 0.0000000000000000e+00  1.0187369269105669e-04 -2.8277894385334659e-06 0.0000000000000000e+00  1.3482819968585488e-04 -3.7490037149436728e-06 0.0000000000000000e+00  1.7326074499471095e-04 -4.8322055443171231e-06 0.0000000000000000e+00  2.1879192504647003e-04 -6.1331859375530593e-06 0.0000000000000000e+00  2.7338004376149599e-04 -7.7275901593216996e-06 0.0000000000000000e+00  3.3942611403610086e-04 -9.7234210364967827e-06 0.0000000000000000e+00  4.1990814642646604e-04 -1.2282833708180329e-05 0.0000000000000000e+00  5.1855381299686107e-04 -1.5660565614058546e-05 0.0000000000000000e+00  6.4006175735334902e-04 -2.0271445543230100e-05 0.0000000000000000e+00  7.9038183512956006e-04 -2.6806240195108768e-05 0.0000000000000000e+00  9.7706481012622688e-04 -3.6420232271454681e-05 0.0000000000000000e+00  1.2097064103489315e-03 -5.1010605682561696e-05 0.0000000000000000e+00  1.5005996783063746e-03 -7.3554609974135350e-05 0.0000000000000000e+00  0.0000000000000000e+00 0.0000000000000000e+00 0.0000000000000000e+00  2.1958607443224409e-05 -6.0109896871664961e-07 0.0000000000000000e+00  4.4819637816702678e-05 -1.2261005248992722e-06 0.0000000000000000e+00  6.9527173285890249e-05 -1.9000261824328299e-06 0.0000000000000000e+00  9.7115829984331759e-05 -2.6504149017739817e-06 0.0000000000000000e+00  1.2876419541743735e-04 -3.5090158806800101e-06 0.0000000000000000e+00  1.6585942336850621e-04 -4.5141960158074845e-06 0.0000000000000000e+00  2.1007890353363378e-04 -5.7147159394965570e-06 0.0000000000000000e+00  2.6349735268401265e-04 -7.1761570310360748e-06 0.0000000000000000e+00  3.2873150300693983e-04 -8.9925899569472434e-06 0.0000000000000000e+00  4.0914049873514628e-04 -1.1308816902336990e-05 0.0000000000000000e+00  5.0910910486358710e-04 -1.4364281339848838e-05 0.0000000000000000e+00  6.3445390969829010e-04 -1.8581757934194838e-05 0.0000000000000000e+00  7.9301055801209858e-04 -2.4748347093599692e-05 0.0000000000000000e+00  9.9548360834580876e-04 -3.4382890693884490e-05 0.0000000000000000e+00  1.2566820374296046e-03 -5.0462165906722008e-05 0.0000000000000000e+00  1.5974124616510246e-03 -7.8784072571983264e-05 0.0000000000000000e+00  0.0000000000000000e+00 0.0000000000000000e+00 0.0000000000000000e+00  1.9925108296703856e-05 -5.3844543133342505e-07 0.0000000000000000e+00  4.0689265788898990e-05 -1.0976669280731741e-06 0.0000000000000000e+00  6.3172355952337156e-05 -1.6991748078932021e-06 0.0000000000000000e+00  8.8345357870336428e-05 -2.3661714088072168e-06 0.0000000000000000e+00  1.1732535067680935e-04 -3.1245489736710195e-06 0.0000000000000000e+00  1.5144376873721705e-04 -4.0041601640466737e-06 0.0000000000000000e+00  1.9233542079332384e-04 -5.0406556463203421e-06 0.0000000000000000e+00  2.4205941787692979e-04 -6.2785554516955155e-06 0.0000000000000000e+00  3.0326926127494325e-04 -7.7771244114873126e-06 0.0000000000000000e+00  3.7945970638652969e-04 -9.6228468422190977e-06 0.0000000000000000e+00  4.7533582111546779e-04 -1.1957865619589168e-05 0.0000000000000000e+00  5.9738037008814232e-04 -1.5047930424304820e-05 0.0000000000000000e+00  7.5474779405432083e-04 -1.9449936707910750e-05 0.0000000000000000e+00  9.6069660482284332e-04 -2.6432970155883604e-05 0.0000000000000000e+00  1.2348897263631073e-03 -3.9037065537032695e-05 0.0000000000000000e+00  1.6070492691337508e-03 -6.4636364305407072e-05 0.0000000000000000e+00  0.0000000000000000e+00 0.0000000000000000e+00 0.0000000000000000e+00  1.7063433173628537e-05 -4.5531108072977422e-07 0.0000000000000000e+00  3.4860041486634212e-05 -9.2748605298910285e-07 0.0000000000000000e+00  5.4160064904582526e-05 -1.4337051082492778e-06 0.0000000000000000e+00  7.5818175337900962e-05 -1.9919028705207334e-06 0.0000000000000000e+00  1.0082520971160248e-04 -2.6209507237477442e-06 0.0000000000000000e+00  1.3037343318643009e-04 -3.3405319797947631e-06 0.0000000000000000e+00  1.6594324496771839e-04 -4.1704486072426899e-06 0.0000000000000000e+00  2.0942335682736711e-04 -5.1289310334701070e-06 0.0000000000000000e+00  2.6328367499379247e-04 -6.2293139221160453e-06 0.0000000000000000e+00  3.3083312391367489e-04 -7.4743567941576800e-06 0.0000000000000000e+00  4.1661925207469620e-04 -8.8482871135036828e-06 0.0000000000000000e+00  5.2707544358922883e-04 -1.0311362161524235e-05 0.0000000000000000e+00  6.7162357763799147e-04 -1.1822316946038763e-05 0.0000000000000000e+00  8.6465578651493985e-04 -1.3498330400510191e-05 0.0000000000000000e+00  1.1292445227413790e-03 -1.6366176763761037e-05 0.0000000000000000e+00  1.5040152301599909e-03 -2.5501109806386398e-05 0.0000000000000000e+00  0.0000000000000000e+00 0.0000000000000000e+00 0.0000000000000000e+00  1.3480154496919638e-05 -3.5561727520380165e-07 0.0000000000000000e+00  2.7548493956518135e-05 -7.2380814564185051e-07 0.0000000000000000e+00  4.2823665872310042e-05 -1.1171303135285342e-06 0.0000000000000000e+00  5.9994833667115865e-05 -1.5481298239507904e-06 0.0000000000000000e+00  7.9865213972106874e-05 -2.0288758462322459e-06 0.0000000000000000e+00  1.0340745303373055e-04 -2.5697273254463343e-06 0.0000000000000000e+00  1.3183777600716794e-04 -3.1765864485124708e-06 0.0000000000000000e+00  1.6671945627288738e-04 -3.8451879459463881e-06 0.0000000000000000e+00  2.1011249693785524e-04 -4.5495414725910705e-06 0.0000000000000000e+00  2.6479811243569363e-04 -5.2186707149814808e-06 0.0000000000000000e+00  3.3462992521867004e-04 -5.6894152462862850e-06 0.0000000000000000e+00  4.2511567440273743e-04 -5.6088813691101179e-06 0.0000000000000000e+00  5.4446447941171035e-04 -4.2277906785849472e-06 0.0000000000000000e+00  7.0570812512708609e-04 4.4857289546516979e-08 0.0000000000000000e+00  9.3160519059986777e-04 1.0551197689247492e-05 0.0000000000000000e+00  1.2659599459980183e-03 3.3227168607140232e-05 0.0000000000000000e+00  0.0000000000000000e+00 0.0000000000000000e+00 0.0000000000000000e+00  9.3203306499591700e-06 -2.4365007151833348e-07 0.0000000000000000e+00  1.9051525506653764e-05 -4.9554249987857610e-07 0.0000000000000000e+00  2.9625977396972861e-05 -7.6374411354326726e-07 0.0000000000000000e+00  4.1526489418722599e-05 -1.0559317174249481e-06 0.0000000000000000e+00  5.5317452088689983e-05 -1.3786810190078536e-06 0.0000000000000000e+00  7.1684545475892455e-05 -1.7358785680494271e-06 0.0000000000000000e+00  9.1487825017643761e-05 -2.1253784006174197e-06 0.0000000000000000e+00  1.1583536450444609e-04 -2.5321409190602611e-06 0.0000000000000000e+00  1.4618840965971460e-04 -2.9142207087868544e-06 0.0000000000000000e+00  1.8451525374941534e-04 -3.1738776174380670e-06 0.0000000000000000e+00  2.3352193278577886e-04 -3.0966835494458217e-06 0.0000000000000000e+00  2.9700979891062715e-04 -2.2182806454217724e-06 0.0000000000000000e+00  3.8047301494597777e-04 4.8547019390327681e-07 0.0000000000000000e+00  4.9233986116288314e-04 7.3962979915510134e-06 0.0000000000000000e+00  6.4815807234960051e-04 2.4699980146538197e-05 0.0000000000000000e+00  8.9579225392626518e-04 7.2596498491906561e-05 0.0000000000000000e+00  0.0000000000000000e+00 0.0000000000000000e+00 0.0000000000000000e+00  4.7606835840989374e-06 -1.2372323686812186e-07 0.0000000000000000e+00  9.7322728984421128e-06 -2.5149623253475878e-07 0.0000000000000000e+00  1.5136733409830849e-05 -3.8722061948205007e-07 0.0000000000000000e+00  2.1222108034678145e-05 -5.3446235552268164e-07 0.0000000000000000e+00  2.8278599723667750e-05 -6.9594974295082709e-07 0.0000000000000000e+00  3.6658966930834473e-05 -8.7250128993509052e-07 0.0000000000000000e+00  4.6805569135917149e-05 -1.0608098758813291e-06 0.0000000000000000e+00  5.9287306543671947e-05 -1.2489322150342257e-06 0.0000000000000000e+00  7.4850839134444266e-05 -1.4071277627522654e-06 0.0000000000000000e+00  9.4491230143448231e-05 -1.4691514593185793e-06 0.0000000000000000e+00  1.1954443028689248e-04 -1.2937395708134743e-06 0.0000000000000000e+00  1.5178365046290807e-04 -5.8500263759575993e-07 0.0000000000000000e+00  1.9339828592941410e-04 1.2693464209373865e-06 0.0000000000000000e+00  2.4622952833777283e-04 5.4960903590034636e-06 0.0000000000000000e+00  3.0711411341811744e-04 1.4235604411134426e-05 0.0000000000000000e+00  3.4420379971985898e-04 2.8772680163896334e-05 0.0000000000000000e+00  0.0000000000000000e+00 0.0000000000000000e+00 0.0000000000000000e+00  0.0000000000000000e+00 0.0000000000000000e+00 0.0000000000000000e+00  0.0000000000000000e+00 0.0000000000000000e+00 0.0000000000000000e+00  0.0000000000000000e+00 0.0000000000000000e+00 0.0000000000000000e+00  0.0000000000000000e+00 0.0000000000000000e+00 0.0000000000000000e+00  0.0000000000000000e+00 0.0000000000000000e+00 0.0000000000000000e+00  0.0000000000000000e+00 0.0000000000000000e+00 0.0000000000000000e+00  0.0000000000000000e+00 0.0000000000000000e+00 0.0000000000000000e+00  0.0000000000000000e+00 0.0000000000000000e+00 0.000000000000000