<?xml version="1.0"?>
<VTKFile type="UnstructuredGrid"  version="0.1"  >
<UnstructuredGrid>
<Piece  NumberOfPoints="289" NumberOfCells="512">
<Points>
<DataArray  type="Float64"  NumberOfComponents="3"  format="ascii">0 0 0  0.0625 0 0  0.125 0 0  0.1875 0 0  0.25 0 0  0.3125 0 0  0.375 0 0  0.4375 0 0  0.5 0 0  0.5625 0 0  0.625 0 0  0.6875 0 0  0.75 0 0  0.8125 0 0  0.875 0 0  0.9375 0 0  1 0 0  0 0.0625 0  0.06244354688531415 0.06248635687981616 0  0.1248857093134808 0.06247246780730398 0  0.1873251207029734 0.06245810760540718 0  0.2497605193202584 0.06244310165025511 0  0.3121908314464864 0.06242735888447126 0  0.3746152959352442 0.06241091333861812 0  0.4370336488835113 0.0623939747991827 0  0.4994463915033404 0.06237698598971321 0  0.5618551701255798 0.06236067779571811 0  0.6242633047590341 0.06234610497262934 0  0.6866765083413985 0.06233463368931921 0  0.7491038126473804 0.06232784840293074 0  0.8115584684181412 0.06232738815225848 0  0.8740570242723253 0.06233497144359297 0  0.9366058133079779 0.06235407221667389 0  0.9991130449439595 0.06240182609575172 0  0 0.125 0  0.06238853551569244 0.1249729561391068 0  0.1247742668463546 0.1249453959615111 0  0.1871544199345311 0.124916841689107 0  0.2495264125288646 0.1248869104514963 0  0.3118880115938427 0.1248553781316235 0  0.3742375742787837 0.1248222619911359 0  0.4365744117073178 0.124787925074719 0  0.4988993255710977 0.1247531998118171 0  0.5612153831231327 0.1247195172893939 0  0.6235290204257519 0.1246890093463352 0  0.6858516037147738 0.1246645200735392 0  0.7482016429600361 0.1246494215996096 0  0.8106079403762856 0.1246470852567364 0  0.8731141252937387 0.1246598291648288 0  0.9357866334416587 0.1246870037633608 0  0.9987468065110739 0.1247193354819933 0  0 0.1875 0  0.06233642550497406 0.1874600712040385 0  0.1246685526401363 0.1874193107943989 0  0.1869921104625065 0.1873769371850689 0  0.2493030626911978 0.1873322948608069 0  0.3115978138683413 0.1872849436658562 0  0.3738735372549325 0.1872347798326017 0  0.4361286829819706 0.1871821973025067 0  0.4983637406986856 0.1871282923736632 0  0.5605823508481229 0.1870751017286336 0  0.6227928825257664 0.1870258371051292 0  0.6850106212380792 0.1869850286910599 0  0.7472607256063655 0.1869583945073523 0  0.8095820869738077 0.1869520701506301 0  0.8720321471289135 0.1869704282129474 0  0.9346930243920033 0.1870106536210052 0  0.9976822905364566 0.1870494722616425 0  0 0.25 0  0.06228874876166368 0.2499480200598828 0  0.1245716130346849 0.249894834525866 0  0.1868427098203282 0.2498392894744317 0  0.2490963661895705 0.2497803669861263 0  0.3113273334709268 0.2497172896702488 0  0.3735311529248534 0.2496496719590001 0  0.435704748090403 0.2495777361464243 0  0.497847338959588 0.2495026095837203 0  0.5599617938037273 0.2494267108497826 0  0.6220565475203451 0.2493542087830964 0  0.684148201933007 0.2492914840203787 0  0.7462648445332807 0.2492474127156314 0  0.808449909981764 0.2492330877150954 0  0.8707659951007893 0.2492602559987119 0  0.933297505496396 0.2493373702800152 0  0.9961506067960503 0.2494625663628395 0  0 0.3125 0  0.06224711813875464 0.312437178598936 0  0.1244866889962016 0.3123727158062489 0  0.1867111115452121 0.3123050101580391 0  0.2489128853141482 0.3122325764392656 0  0.3110847795536966 0.3121541488034323 0  0.3732201711262765 0.312068844926873 0  0.4353136406407643 0.3119764215081983 0  0.4973619435879397 0.3118776583647916 0  0.559365500546708 0.3117749126176768 0  0.6213305640002725 0.3116728780933192 0  0.6832721897811398 0.3115795514036635 0  0.7452180183604112 0.3115073138178424 0  0.8072125939469467 0.3114738377095559 0  0.8693215158921057 0.3115021676337086 0  0.9316343823880493 0.3116188362585162 0  0.9942660176946592 0.3118485020998403 0  0 0.375 0  0.06221320412256573 0.3749279833262641 0  0.1244171774910837 0.374853838939074 0  0.1866025483993234 0.3747754512314869 0  0.2487598426921992 0.374690764319658 0  0.3108795465428397 0.3745978600999361 0  0.3729523376120663 0.3744951057248397 0  0.434969585505958 0.3743814128948856 0  0.4969242634139323 0.3742566704086149 0  0.5588124613936689 0.3741224366633896 0  0.62063573488777 0.3739830066252729 0  0.6824045283494483 0.373846984441801 0  0.7441428258787602 0.3737294616857783 0  0.8058939259657909 0.3736547426029329 0  0.8677268020086696 0.3736591343190465 0  0.929742130570814 0.3737924752408402 0  0.9920774520173499 0.3741158064749836 0  0 0.4375 0  0.06218867371396976 0.4374209196977041 0  0.1243665126263 0.4373392034715943 0  0.186522423796864 0.4372521829616747 0  0.2486449190653132 0.4371571533975662 0  0.3107220073039431 0.4370513975684758 0  0.3727412300452234 0.43693227524638 0  0.4346899457579665 0.4367974269864027 0  0.4965560292397196 0.4366451727476843 0  0.5583292404358025 0.4364752362896177 0  0.6200036296995868 0.4362900025220076 0  0.6815814627316985 0.4360966177499729 0  0.7430792048337869 0.4359103474509234 0  0.8045359717884057 0.4357596156053593 0  0.8660243614265201 0.4356928102829878 0  0.9276627124831475 0.4357857863911991 0  0.9896273374825629 0.4361466129434408 0  0 0.5 0  0.06217508992958687 0.4999164932961594 0  0.1243379617298036 0.4998298672874683 0  0.1864760000083807 0.4997369116655072 0  0.248575831439904 0.4996342486662325 0  0.3106229880860505 0.4995182733504415 0  0.3726016561353583 0.4993851373448843 0  0.4344946039409043 0.4992308195712517 0  0.4962834652899217 0.4990513660413777 0  0.5579496928279334 0.498843451229905 0  0.6194767185544396 0.4986055392691772 0  0.6808541803501325 0.4983401382026023 0  0.742085459301923 0.4980579763473877 0  0.8032000299706087 0.4977853515566719 0  0.8642717513447918 0.4975761113412902 0  0.925442442819065 0.4975287379094152 0  0.9869471394686282 0.497804934911141 0  0 0.5625 0  0.06217377580982119 0.562415183234159 0  0.1243343425098966 0.5623268506059422 0  0.1864679479145819 0.5622313295448522 0  0.2485596885166117 0.5621246287703625 0  0.3105929040172731 0.5620022726246442 0  0.3725485607332756 0.561859137114692 0  0.4344046788546255 0.5616893090468361 0  0.4961359488563596 0.5614860225848514 0  0.5577138632099141 0.5612417973230328 0  0.619108035332875 0.5609490486543622 0  0.6802899973152695 0.5606017456397266 0  0.7412417639318626 0.5601993029200992 0  0.8019727294914563 0.5597550267160282 0  0.8625491910396006 0.5593131479704273 0  0.9231384064864998 0.5589796271711579 0  0.9840592503136149 0.558967841070066 0  0 0.625 0  0.06218565345062375 0.6249173806756556 0  0.1243576812530886 0.6248310057599407 0  0.1865017847189116 0.6247369009897599 0  0.2486021491324592 0.6246306267173226 0  0.3106405651726807 0.6245070008762892 0  0.3725954077935486 0.6243597674843274 0  0.4344404520506235 0.6241811937692879 0  0.4961435726434205 0.6239615891052845 0  0.5576655478718006 0.6236887728386999 0  0.6189596010018827 0.6233476166863452 0  0.6799732227977173 0.6229200585474856 0  0.7406556762650933 0.6223867072473276 0  0.8009779278914555 0.6217330087725187 0  0.8609763435542577 0.6209672770434327 0  0.9208332078110855 0.6201656825989433 0  0.9809940092459135 0.6195626049585106 0  0 0.6875 0  0.06221107599397849 0.687423319731185 0  0.1244088483646654 0.6873428674534591 0  0.1865792540046326 0.6872546074472153 0  0.2487064520468258 0.6871539277788302 0  0.3107717209993066 0.6870352710524036 0  0.3727520674013858 0.6868916535636554 0  0.4346184170436742 0.6867140107999191 0  0.4963332579048015 0.6864902813510134 0  0.5578476758441182 0.6862041051532057 0  0.619098024365069 0.6858329740431642 0  0.6800033958405849 0.6853456874914579 0  0.740467567040025 0.6846992779610516 0  0.8003952120804121 0.683837139342248 0  0.8597450809745644 0.6826963897450505 0  0.9186610583876742 0.6812539224269529 0  0.9777105142869972 0.679678098505556 0  0 0.75 0  0.06224967762772895 0.7499330121096568 0  0.1244872244367318 0.7498625080258189 0  0.1866997347693172 0.7497846921394802 0  0.2488724421526784 0.749695148019095 0  0.3109875044163764 0.7495884223689721 0  0.3730223793772939 0.7494574576211822 0  0.4349475472978359 0.7492927761278094 0  0.496723226587013 0.7490812602853798 0  0.5582945907947231 0.7488042647736615 0  0.619584903967742 0.748434589792206 0  0.6804862739610421 0.7479314370626987 0  0.7408495387541871 0.7472317031687039 0  0.8004819131175697 0.7462348781496295 0  0.8591846235730635 0.7447798888312018 0  0.9169288568157038 0.742636629065174 0  0.9743195565864528 0.7397577515349458 0  0 0.8125 0  0.06230027143847018 0.8124461992880526 0  0.1245904629638901 0.8123894284924964 0  0.1868597950902798 0.8123264597373179 0  0.2490957789377107 0.8122534862242649 0  0.3112830575753534 0.8121657238135259 0  0.3734017913542957 0.8120568541940639 0  0.4354252715229328 0.8119182042458734 0  0.4973162360896071 0.8117374891358369 0  0.5590209835166818 0.8114968193792556 0  0.6204597121662194 0.8111694085109686 0  0.6815104183673079 0.8107138033519652 0  0.7419823417053111 0.8100628405459692 0  0.8015757560955038 0.8090998674112932 0  0.8598422723154371 0.8076006104875084 0  0.9162732183591805 0.8050740372102145 0  0.9714032212289665 0.8002597536818682 0  0 0.875 0  0.06236082468140052 0.8749623351673074 0  0.1247144179701368 0.8749225151731593 0  0.1870530180234341 0.8748781867703466 0  0.2493675522743591 0.8748265490156161 0  0.3116467270027247 0.8747640408002502 0  0.3738757244971962 0.8746858997108021 0  0.4360342124922676 0.8745855087723986 0  0.4980931375131039 0.8744534019582383 0  0.5600093010623162 0.8742757278151585 0  0.6217157159918533 0.8740318606559431 0  0.683103508504335 0.8736906621009113 0  0.7439858917518052 0.8732044142318965 0  0.8040218596091977 0.8724973800631912 0  0.8625451245956031 0.8714354241828601 0  0.9181717006236801 0.8697106839957494 0  0.96798606534451 0.866307537579706 0  0 0.9375 0  0.06242853313334536 0.9374806076387883 0  0.1248532890726077 0.9374600818120451 0  0.1872702054500126 0.9374371814928233 0  0.2496745108736743 0.9374104217486755 0  0.3120602268075077 0.9373779024747186 0  0.3744194462173226 0.9373370660973037 0  0.436741215624085
[...]
<PointData  Vectors="f_54"> 
<DataArray  type="Float64"  Name="f_54"  NumberOfComponents="3" format="ascii">0.0000000000000000e+00 0.0000000000000000e+00 0.0000000000000000e+00  0.0000000000000000e+00 0.0000000000000000e+00 0.0000000000000000e+00  0.0000000000000000e+00 0.0000000000000000e+00 0.0000000000000000e+00  0.0000000000000000e+00 0.0000000000000000e+00 0.0000000000000000e+00  0.0000000000000000e+00 0.0000000000000000e+00 0.0000000000000000e+00  0.0000000000000000e+00 0.0000000000000000e+00 0.0000000000000000e+00  0.0000000000000000e+00 0.0000000000000000e+00 0.0000000000000000e+00  0.0000000000000000e+00 0.0000000000000000e+00 0.0000000000000000e+00  0.0000000000000000e+00 0.0000000000000000e+00 0.0000000000000000e+00  0.0000000000000000e+00 0.0000000000000000e+00 0.0000000000000000e+00  0.0000000000000000e+00 0.0000000000000000e+00 0.0000000000000000e+00  0.0000000000000000e+00 0.0000000000000000e+00 0.0000000000000000e+00  0.0000000000000000e+00 0.0000000000000000e+00 0.0000000000000000e+00  0.0000000000000000e+00 0.0000000000000000e+00 0.0000000000000000e+00  0.0000000000000000e+00 0.0000000000000000e+00 0.0000000000000000e+00  0.0000000000000000e+00 0.0000000000000000e+00 0.0000000000000000e+00  0.0000000000000000e+00 0.0000000000000000e+00 0.0000000000000000e+00  0.0000000000000000e+00 0.0000000000000000e+00 0.0000000000000000e+00  1.4395612962044983e-06 3.8716956832834817e-08 0.0000000000000000e+00  2.8917008469217354e-06 7.8292823380309341e-08 0.0000000000000000e+00  4.3649049436070306e-06 1.1950563734967571e-07 0.0000000000000000e+00  5.8576865281633800e-06 1.6291541844228858e-07 0.0000000000000000e+00  7.3519775882909597e-06 2.0868730520927917e-07 0.0000000000000000e+00  8.8044154953150038e-06 2.5632613715052711e-07 0.0000000000000000e+00  1.0134525054840744e-05 3.0428496479953825e-07 0.0000000000000000e+00  1.1208294191622159e-05 3.4940792151775189e-07 0.0000000000000000e+00  1.1814346667897062e-05 3.8616901553231828e-07 0.0000000000000000e+00  1.1626384585198418e-05 4.0566377859429244e-07 0.0000000000000000e+00  1.0135539488637554e-05 3.9425547212230253e-07 0.0000000000000000e+00  6.5064659537350060e-06 3.3151594277775496e-07 0.0000000000000000e+00  -7.8274576563815423e-07 1.8616151411194936e-07 0.0000000000000000e+00  -1.4972641197979689e-05 -9.4241455498222556e-08 0.0000000000000000e+00  -4.4321332636038978e-05 -6.1207390966711345e-07 0.0000000000000000e+00  -1.1352125399457689e-04 -1.5964674399013873e-06 0.0000000000000000e+00  0.0000000000000000e+00 0.0000000000000000e+00 0.0000000000000000e+00  2.8633166205711441e-06 7.6487521026141951e-08 0.0000000000000000e+00  5.7563304206732312e-06 1.5478272376637221e-07 0.0000000000000000e+00  8.7011950391464072e-06 2.3655690268949303e-07 0.0000000000000000e+00  1.1701529948886452e-05 3.2310213894202182e-07 0.0000000000000000e+00  1.4730076839191212e-05 4.1501297012315238e-07 0.0000000000000000e+00  1.7712411311404978e-05 5.1169730913166215e-07 0.0000000000000000e+00  2.0505019628455817e-05 6.1064029328378343e-07 0.0000000000000000e+00  2.2865532083193490e-05 7.0633943421451895e-07 0.0000000000000000e+00  2.4411720756397417e-05 7.8883901810369891e-07 0.0000000000000000e+00  2.4562961294847976e-05 8.4182300654247945e-07 0.0000000000000000e+00  2.2450708149812024e-05 8.4026172628729801e-07 0.0000000000000000e+00  1.6767870142446863e-05 7.4753953257362011e-07 0.0000000000000000e+00  5.4930798313886587e-06 5.1139750532666285e-07 0.0000000000000000e+00  -1.4616537408969795e-05 5.5341254519782914e-08 0.0000000000000000e+00  -4.8753943916661527e-05 -7.4914932715398620e-07 0.0000000000000000e+00  -1.0355090287761667e-04 -2.1962056459027218e-06 0.0000000000000000e+00  0.0000000000000000e+00 0.0000000000000000e+00 0.0000000000000000e+00  4.2536157715877731e-06 1.1234849574606718e-07 0.0000000000000000e+00  8.5625666672244039e-06 2.2761229309300371e-07 0.0000000000000000e+00  1.2972363840368611e-05 3.4856160868114906e-07 0.0000000000000000e+00  1.7504004741029008e-05 4.7753220104764413e-07 0.0000000000000000e+00  2.2137398932887292e-05 6.1603262161739519e-07 0.0000000000000000e+00  2.6789313054031910e-05 7.6411121672081873e-07 0.0000000000000000e+00  3.1283718098893247e-05 9.1936318333513303e-07 0.0000000000000000e+00  3.5312266665293352e-05 1.0754397988277598e-06 0.0000000000000000e+00  3.8382527742297704e-05 1.2199311963383260e-06 0.0000000000000000e+00  3.9751617706776645e-05 1.3315720682427054e-06 0.0000000000000000e+00  3.8343322157413311e-05 1.3769397691871971e-06 0.0000000000000000e+00  3.2649689750771417e-05 1.3073206543234223e-06 0.0000000000000000e+00  2.0632575117082801e-05 1.0576269945453538e-06 0.0000000000000000e+00  -2.9819720967163783e-07 5.5290153397991281e-07 0.0000000000000000e+00  -3.2935225244432957e-05 -2.5734362218476415e-07 0.0000000000000000e+00  -7.8650938692869204e-05 -1.2466083526231851e-06 0.0000000000000000e+00  0.0000000000000000e+00 0.0000000000000000e+00 0.0000000000000000e+00  5.5843545904851958e-06 1.4518007807624294e-07 0.0000000000000000e+00  1.1260919438425508e-05 2.9456061375485958e-07 0.0000000000000000e+00  1.7111411117376178e-05 4.5225031843874192e-07 0.0000000000000000e+00  2.3190626637605822e-05 6.2201195418906876e-07 0.0000000000000000e+00  2.9507640888291483e-05 8.0689186085492271e-07 0.0000000000000000e+00  3.6000192335790084e-05 1.0085648993619103e-06 0.0000000000000000e+00  4.2499699026203635e-05 1.2262272639965075e-06 0.0000000000000000e+00  4.8684478387819352e-05 1.4548167492965864e-06 0.0000000000000000e+00  5.4019577640497398e-05 1.6823064712589310e-06 0.0000000000000000e+00  5.7684003804727162e-05 1.8858648845673930e-06 0.0000000000000000e+00  5.8491807760160151e-05 2.0269243973629383e-06 0.0000000000000000e+00  5.4826178886799742e-05 2.0458569884060668e-06 0.0000000000000000e+00  4.4633711200208003e-05 1.8582626898263759e-06 0.0000000000000000e+00  2.5585946472845441e-05 1.3567450175363286e-06 0.0000000000000000e+00  -4.3706896653974842e-06 4.2177915841557541e-07 0.0000000000000000e+00  -4.5716651147547415e-05 -1.0762949486656852e-06 0.0000000000000000e+00  0.0000000000000000e+00 0.0000000000000000e+00 0.0000000000000000e+00  6.8182660129781600e-06 1.7368813314946367e-07 0.0000000000000000e+00  1.3777821378190651e-05 3.5299096503307303e-07 0.0000000000000000e+00  2.1010741326833071e-05 5.4355169413242383e-07 0.0000000000000000e+00  2.8624169493940356e-05 7.5091761595225501e-07 0.0000000000000000e+00  3.6681741072547928e-05 9.8031241855164747e-07 0.0000000000000000e+00  4.5177026446130101e-05 1.2361268329721501e-06 0.0000000000000000e+00  5.3995728778359797e-05 1.5209196521643482e-06 0.0000000000000000e+00  6.2863325248752177e-05 1.8336086480990594e-06 0.0000000000000000e+00  7.1275688706942913e-05 2.1663938278661588e-06 0.0000000000000000e+00  7.8413102014279399e-05 2.4998479050791639e-06 0.0000000000000000e+00  8.3045009650746946e-05 2.7956792275611207e-06 0.0000000000000000e+00  8.3447159578671894e-05 2.9872282139821204e-06 0.0000000000000000e+00  7.7379084547365059e-05 2.9692727057761787e-06 0.0000000000000000e+00  6.2211892340578427e-05 2.5915513910029577e-06 0.0000000000000000e+00  3.5347117617165186e-05 1.6638875659649958e-06 0.0000000000000000e+00  -4.9195908051682960e-06 -1.7454028731167030e-08 0.0000000000000000e+00  0.0000000000000000e+00 0.0000000000000000e+00 0.0000000000000000e+00  7.9059722184060701e-06 1.9645379410726922e-07 0.0000000000000000e+00  1.6013332165662364e-05 3.9994368016769699e-07 0.0000000000000000e+00  2.4517699510782061e-05 6.1771088641166471e-07 0.0000000000000000e+00  3.3596759264533734e-05 8.5729769935365484e-07 0.0000000000000000e+00  4.3394844428364660e-05 1.1265911890688308e-06 0.0000000000000000e+00  5.3998723687044027e-05 1.4336648973737937e-06 0.0000000000000000e+00  6.5400330870879920e-05 1.7862061016272818e-06 0.0000000000000000e+00  7.7441341679073021e-05 2.1901346118927569e-06 0.0000000000000000e+00  8.9734193449018514e-05 2.6467269616745629e-06 0.0000000000000000e+00  1.0155543236268234e-04 3.1471538847611753e-06 0.0000000000000000e+00  1.1171214264934828e-04 3.6629280741518409e-06 0.0000000000000000e+00  1.1839380447769516e-04 4.1307431121004537e-06 0.0000000000000000e+00  1.1904400896092459e-04 4.4315273305959246e-06 0.0000000000000000e+00  1.1032038630265837e-04 4.3679305729542365e-06 0.0000000000000000e+00  8.8247650589577190e-05 3.6537352893732771e-06 0.0000000000000000e+00  4.8676544664932140e-05 1.9429654846043466e-06 0.0000000000000000e+00  0.0000000000000000e+00 0.0000000000000000e+00 0.0000000000000000e+00  8.7872005972137300e-06 2.1205667754682536e-07 0.0000000000000000e+00  1.7843291180497538e-05 4.3239218149983366e-07 0.0000000000000000e+00  2.7437043673770223e-05 6.6969316897125479e-07 0.0000000000000000e+00  3.7831566436534373e-05 9.3343094404735300e-07 0.0000000000000000e+00  4.9275439708191344e-05 1.2342816694071726e-06 0.0000000000000000e+00  6.1985076154355673e-05 1.5845248082654563e-06 0.0000000000000000e+00  7.6113047459256910e-05 1.9982811269774412e-06 0.0000000000000000e+00  9.1694983819202530e-05 2.4912334836790710e-06 0.0000000000000000e+00  1.0856512089463262e-04 3.0790339840580744e-06 0.0000000000000000e+00  1.2622833154475390e-04 3.7727988234128631e-06 0.0000000000000000e+00  1.4367628902017671e-04 4.5688243609704724e-06 0.0000000000000000e+00  1.5914085574228882e-04 5.4281417072484605e-06 0.0000000000000000e+00  1.6979479410477363e-04 6.2410066324136701e-06 0.0000000000000000e+00  1.7144469033590130e-04 6.7753473368763580e-06 0.0000000000000000e+00  1.5831038613593981e-04 6.6225515354497609e-06 0.0000000000000000e+00  1.2301626716199502e-04 5.1819456945799510e-06 0.0000000000000000e+00  0.0000000000000000e+00 0.0000000000000000e+00 0.0000000000000000e+00  9.3944360261924690e-06 2.1926172047977210e-07 0.0000000000000000e+00  1.9126539596446141e-05 4.4764717183512104e-07 0.0000000000000000e+00  2.9541467465929021e-05 6.9486610717670197e-07 0.0000000000000000e+00  4.0995895173333703e-05 9.7187089456961763e-07 0.0000000000000000e+00  5.3859327626838725e-05 1.2916852643006109e-06 0.0000000000000000e+00  6.8508181293328347e-05 1.6704862733421179e-06 0.0000000000000000e+00  8.5306960944169140e-05 2.1289899514933204e-06 0.0000000000000000e+00  1.0456724254651570e-04 2.6940386100843353e-06 0.0000000000000000e+00  1.2646976813897391e-04 3.3998437016672431e-06 0.0000000000000000e+00  1.5092757570756257e-04 4.2872557835657992e-06 0.0000000000000000e+00  1.7735956473773182e-04 5.3971383831593866e-06 0.0000000000000000e+00  2.0433779589308632e-04 6.7497794028021222e-06 0.0000000000000000e+00  2.2907740007662575e-04 8.2965988785088430e-06 0.0000000000000000e+00  2.4677265284220188e-04 9.8276257121610623e-06 0.0000000000000000e+00  2.4986277243649319e-04 1.0832475330430019e-05 0.0000000000000000e+00  2.2739692713829752e-04 1.0365485486077114e-05 0.0000000000000000e+00  0.0000000000000000e+00 0.0000000000000000e+00 0.0000000000000000e+00  9.6590757703099890e-06 2.1723844299687389e-07 0.0000000000000000e+00  1.9717472257016422e-05 4.4384747113607921e-07 0.0000000000000000e+00  3.0590906494822094e-05 6.8987482624938683e-07 0.0000000000000000e+00  4.2727364437217193e-05 9.6689189185057918e-07 0.0000000000000000e+00  5.6621861292746439e-05 1.2891338452877131e-06 0.0000000000000000e+00  7.2827706676750441e-05 1.6751964073904547e-06 0.0000000000000000e+00  9.1959508654218522e-05 2.1506376508356456e-06 0.0000000000000000e+00  1.1467849459410940e-04 2.7519167899723278e-06 0.0000000000000000e+00  1.4164266389031060e-04 3.5319931084831173e-06 0.0000000000000000e+00  1.7339107903330879e-04 4.5671188681315697e-06 0.0000000000000000e+00  2.1011167519818249e-04 5.9617155523576704e-06 0.0000000000000000e+00  2.5121610134757417e-04 7.8413446604536365e-06 0.0000000000000000e+00  2.9462247551204204e-04 1.0309150410659836e-05 0.0000000000000000e+00  3.3565834261953920e-04 1.3318113778900962e-05 0.0000000000000000e+00  3.6560870941039188e-04 1.6399876700813532e-05 0.0000000000000000e+00  3.7020773895339582e-04 1.8268471221421419e-05 0.0000000000000000e+00  0.0000000000000000e+00 0.0000000000000000e+00 0.0000000000000000e+00  9.5198231326109441e-06 2.0575960301533783e-07 0.0000000000000000e+00  1.9483541133239485e-05 4.2042330734829765e-07 0.0000000000000000e+00  3.0360491217050171e-05 6.5352219466071800e-07 0.0000000000000000e+00  4.2673987980458827e-05 9.1606840575738622e-07 0.0000000000000000e+00  5.7031496481784107e-05 1.2217472760100992e-06 0.0000000000000000e+00  7.4157483971410489e-05 1.5888548096933282e-06 0.0000000000000000e+00  9.4927109004888917e-05 2.0436333982644852e-06 0.0000000000000000e+00  1.2039447977398160e-04 2.6261389507486748e-06 0.0000000000000000e+00  1.5180018765440824e-04 3.4004635319437724e-06 0.0000000000000000e+00  1.9052537495368904e-04 4.4717725436846052e-06 0.0000000000000000e+00  2.3792783410508619e-04 6.0119442327699813e-06 0.0000000000000000e+00  2.9494233381050200e-04 8.2895887977928433e-06 0.0000000000000000e+00  3.6124974019431628e-04 1.1678327413030218e-05 0.0000000000000000e+00  4.3374218346744711e-04 1.6558334240298219e-05 0.0000000000000000e+00  5.0405400847017485e-04 2.2915314106601121e-05 0.0000000000000000e+00  5.5531707460519891e-04 2.9374739348029902e-05 0.0000000000000000e+00  0.0000000000000000e+00 0.0000000000000000e+00 0.0000000000000000e+00  8.9325839074209398e-06 1.8531291959227660e-07 0.0000000000000000e+00  1.8326343623569357e-05 3.7837861164389673e-07 0.0000000000000000e+00  2.8675439606095405e-05 5.8736952427568230e-07 0.0000000000000000e+00  4.0546787966915459e-05 8.2150567515322491e-07 0.0000000000000000e+00  5.4625075720193034e-05 1.0919135183852596e-06 0.0000000000000000e+00  7.1768469322385799e-05 1.4131181041339910e-06 0.0000000000000000e+00  9.3078317192583430e-05 1.8059095754750576e-06 0.0000000000000000e+00  1.1998406610616872e-04 2.3031648662876084e-06 0.0000000000000000e+00  1.5433824518142124e-04 2.9619137642506747e-06 0.0000000000000000e+00  1.9850021370114248e-04 3.8881395520769008e-06 0.0000000000000000e+00  2.5535042308679173e-04 5.2858817957031108e-06 0.0000000000000000e+00  3.2809890834983293e-04 7.5470055458139504e-06 0.0000000000000000e+00  4.1960004129128919e-04 1.1389263900610033e-05 0.0000000000000000e+00  5.3062835238280111e-04 1.7976776006601803e-05 0.0000000000000000e+00  6.5630870148136115e-04 2.8673145130112953e-05 0.0000000000000000e+00  7.8065721286221400e-04 4.3711722602881715e-05 0.0000000000000000e+00  0.0000000000000000e+00 0.0000000000000000e+00 0.0000000000000000e+00  7.8805629684456062e-06 1.5706749452492504e-07 0.0000000000000000e+00  1.6203659837919252e-05 3.2024427325811630e-07 0.0000000000000000e+00  2.5448940143719643e-05 4.9574497174100914e-07 0.0000000000000000e+00  3.6179965102138025e-05 6.9009937971701968e-07 0.0000000000000000e+00  4.9099847107362472e-05 9.1031252755535145e-07 0.0000000000000000e+00  6.5125639260911998e-05 1.1641327751747965e-06 0.0000000000000000e+00  8.5491311853838894e-05 1.4607804865591216e-06 0.0000000000000000e+00  1.1189179015636550e-04 1.8132267957610436e-06 0.0000000000000000e+00  1.4668188605985706e-04 2.2451186372690982e-06 0.0000000000000000e+00  1.9313916052966128e-04 2.8106197632851829e-06 0.0000000000000000e+00  2.5577572064976894e-04 3.6479374726625981e-06 0.0000000000000000e+00  3.4060825525926110e-04 5.1147194245049778e-06 0.0000000000000000e+00  4.5509306167691325e-04 8.1032026215895204e-06 0.0000000000000000e+00  6.0693899198405676e-04 1.4675042882351872e-05 0.0000000000000000e+00  7.9990496438537401e-04 2.8844991691824942e-05 0.0000000000000000e+00  1.0234749798215647e-03 5.3215709811527824e-05 0.0000000000000000e+00  0.0000000000000000e+00 0.0000000000000000e+00 0.0000000000000000e+00  6.3827318186026198e-06 1.2267597033246075e-07 0.0000000000000000e+00  1.3148526915610387e-05 2.4963546133211453e-07 0.0000000000000000e+00  2.0716559576497978e-05 3.8496420826830011e-07 0.0000000000000000e+00  2.9589038888009289e-05 5.3230986803484511e-07 0.0000000000000000e+00  4.0409210544625861e-05 6.9423324153364309e-07 0.0000000000000000e+00  5.4043288213814960e-05 8.7086873267739498e-07 0.0000000000000000e+00  7.1701819827481791e-05 1.0573424224215606e-06 0.0000000000000000e+00  9.5124462256180524e-05 1.2391760331931251e-06 0.0000000000000000e+00  1.2686511007443027e-04 1.3851242379045325e-06 0.0000000000000000e+00  1.7073201835148330e-04 1.4393745462817061e-06 0.0000000000000000e+00  2.3245470325756749e-04 1.3261893005677218e-06 0.0000000000000000e+00  3.2064017234182014e-04 1.0204948285473225e-06 0.0000000000000000e+00  4.4795276368068824e-04 8.7013516377274086e-07 0.0000000000000000e+00  6.3191286165718570e-04 2.7715391700323978e-06 0.0000000000000000e+00  8.9288058214700419e-04 1.4270185246638139e-05 0.0000000000000000e+00  1.2401337568151408e-03 6.6292448948136555e-05 0.0000000000000000e+00  0.0000000000000000e+00 0.0000000000000000e+00 0.0000000000000000e+00  4.4985684336754043e-06 8.3961405765562241e-08 0.0000000000000000e+00  9.2806431876210096e-06 1.7050772071052125e-07 0.0000000000000000e+00  1.4658772627393227e-05 2.6187619730466063e-07 0.0000000000000000e+00  2.1013063527597493e-05 3.5946228094869853e-07 0.0000000000000000e+00  2.8840247859742660e-05 4.6270022678064865e-07 0.0000000000000000e+00  3.8825826673766681e-05 5.6666610918677563e-07 0.0000000000000000e+00  5.1956238113267725e-05 6.5694265955214082e-07 0.0000000000000000e+00  6.9700006479923748e-05 6.9860854519793291e-07 0.0000000000000000e+00  9.4308743567136092e-05 6.1258728662399637e-07 0.0000000000000000e+00  1.2932873988628427e-04 2.2498542448340875e-07 0.0000000000000000e+00  1.8048571957165913e-04 -8.3970121201849955e-07 0.0000000000000000e+00  2.5723100538714805e-04 -3.3741003009390892e-06 0.0000000000000000e+00  3.7543466680599726e-04 -8.9819179179307444e-06 0.0000000000000000e+00  5.6185548140889863e-04 -2.0652480319763941e-05 0.0000000000000000e+00  8.5982582387116220e-04 -4.3134471686484336e-05 0.0000000000000000e+00  1.3268130805706982e-03 -8.0939548809356920e-05 0.0000000000000000e+00  0.0000000000000000e+00 0.0000000000000000e+00 0.0000000000000000e+00  2.3272032749049219e-06 4.2608037144817556e-08 0.0000000000000000e+00  4.8056880225895794e-06 8.6394409390228979e-08 0.0000000000000000e+00  7.6030757496598261e-06 1.3227392282315958e-07 0.0000000000000000e+00  1.0925268344279693e-05 1.8050434351794703e-07 0.0000000000000000e+00  1.5044992418003935e-05 2.2980909804857454e-07 0.0000000000000000e+00  2.0344903509449298e-05 2.7543344746060104e-07 0.0000000000000000e+00  2.7386769986741435e-05 3.0473449741038716e-07 0.0000000000000000e+00  3.7027475107889476e-05 2.8690628823574896e-07 0.0000000000000000e+00  5.0620302996157569e-05 1.4822816805835662e-07 0.0000000000000000e+00  7.0373317562724135e-05 -2.8985608784740376e-07 0.0000000000000000e+00  9.9994019921149981e-05 -1.4715390266058654e-06 0.0000000000000000e+00  1.4581850361598123e-04 -4.5363592971580398e-06 0.0000000000000000e+00  2.1854609524923468e-04 -1.2472717265962894e-05 0.0000000000000000e+00  3.3462905643214262e-04 -3.3048114278635911e-05 0.0000000000000000e+00  5.1109717315641723e-04 -8.4686001083467973e-05 0.0000000000000000e+00  7.3330526804468125e-04 -1.9792068866290386e-04 0.0000000000000000e+00  0.0000000000000000e+00 0.0000000000000000e+00 0.0000000000000000e+00  0.0000000000000000e+00 0.0000000000000000e+00 0.0000000000000000e+00  0.0000000000000000e+00 0.0000000000000000e+00 0.0000000000000000e+00  0.0000000000000000e+00 0.0000000000000000e+00 0.0000000000000000e+00  0.0000000000000000e+00 0.0000000000000000e+00 0.0000000000000000e+00  0.0000000000000000e+00 0.0000000000000000e+00 0.0000000000000000e+00  0.0000000000000000e+00 0.0000000000000000e+00 0.0000000000000000e+00  0.0000000000000000e+00 0.0000000000000000e+00 0.0000000000000000e+00  0.0000000000000000e+00 0.0000000000000000e+00 0.0000000000000000e+00  0.0000000000000000e+00 0.0000000000000000e+00 0.0000000000000000e+00  0.0000000000000000e+00 0.0000000000000000e+00 0.0000000000000000e+00  0.0000000000000000e+00 0.0000000000000000e+00 0