<?xml version="1.0"?>
<VTKFile type="UnstructuredGrid"  version="0.1"  >
<UnstructuredGrid>
<Piece  NumberOfPoints="289" NumberOfCells="512">
<Points>
<DataArray  type="Float64"  NumberOfComponents="3"  format="ascii">0 0 0  0.0625 0 0  0.125 0 0  0.1875 0 0  0.25 0 0  0.3125 0 0  0.375 0 0  0.4375 0 0  0.5 0 0  0.5625 0 0  0.625 0 0  0.6875 0 0  0.75 0 0  0.8125 0 0  0.875 0 0  0.9375 0 0  1 0 0  0 0.0625 0  0.0625220344176773 0.06248969158629846 0  0.1250453066400757 0.06247919789981556 0  0.1875711493144117 0.06246834913820366 0  0.2501010972619463 0.0624570119554101 0  0.3126370133358979 0.0624451126278965 0  0.3751812490368058 0.06243266526338089 0  0.4377368637083293 0.06241980454661985 0  0.500307947415552 0.06240681937078504 0  0.5629001448405081 0.06239417786752573 0  0.6255216120893689 0.06238252382115488 0  0.6881850033499259 0.06237260486665309 0  0.7509121324257246 0.06236505098971168 0  0.8137461523993871 0.06235980632323544 0  0.8767864897622961 0.06235460703993286 0  0.9402979014104947 0.06234022593369065 0  1.005083346431704 0.0622834382532734 0  0 0.125 0  0.06254281941163439 0.1249795614721897 0  0.1250880259055699 0.1249587343380205 0  0.1876381901930362 0.1249371589491286 0  0.2501962750715893 0.1249145446681601 0  0.312765879208892 0.1248907152135387 0  0.3753515458851447 0.1248656658115324 0  0.4379591755545105 0.1248396327487837 0  0.5005966075010911 0.1248131707568867 0  0.5632744938040312 0.1247872239264217 0  0.6260077180756116 0.1247631590549661 0  0.6888178967751294 0.1247427047114832 0  0.751738095174185 0.1247277107214378 0  0.8148219219843751 0.1247196581726696 0  0.8781598396451087 0.1247191560625976 0  0.9418988798047158 0.124727443278909 0  1.006208499809202 0.1247605164713739 0  0 0.1875 0  0.06256121828161483 0.1874698148240788 0  0.1251257936106145 0.1874390045017544 0  0.1876973404652943 0.1874069820683062 0  0.2502800242902443 0.1873732534666668 0  0.3128789033169889 0.1873374821050974 0  0.3755003572437768 0.1872995746395527 0  0.4381526452126321 0.1872597924299689 0  0.5008466502770728 0.1872188878694951 0  0.5635968906341321 0.1871782535984035 0  0.6264229091784623 0.1871400510811414 0  0.6893511708873383 0.1871072464649396 0  0.7524174846297055 0.1870834146845807 0  0.8156692567126274 0.1870720465828566 0  0.8791640572498789 0.1870747699004194 0  0.9429521243942453 0.1870866475755992 0  1.007010480074776 0.1870808265782644 0  0 0.25 0  0.06257627712867955 0.2499606897951066 0  0.1251566259052707 0.2499204740831252 0  0.187745426786137 0.2498784878106571 0  0.2503477237678949 0.2498339681499939 0  0.3129696371993462 0.2497863318492601 0  0.3756188801536677 0.2497352855480638 0  0.4383054207206595 0.2496809806328064 0  0.5010423327553805 0.2496242217317302 0  0.5638468627025878 0.2495667297033898 0  0.6267416822826397 0.2495114400456003 0  0.6897561266601668 0.2494627760616286 0  0.7529267686105894 0.2494267568709715 0  0.8162955881151628 0.2494106602730405 0  0.8799016458283011 0.2494217425654834 0  0.9437582525681919 0.2494643468029329 0  1.007805456466634 0.2495358158265475 0  0 0.3125 0  0.06258729565956811 0.3124524678653717 0  0.125179068421522 0.3124037028085337 0  0.1877801272919129 0.3123525048086709 0  0.2503959988220228 0.3122977641066961 0  0.313033379026819 0.3122385399411221 0  0.3757007052313512 0.3121741842652103 0  0.4384088963583996 0.3121045318051547 0  0.5011723065913224 0.3120301815422504 0  0.5640099095794776 0.3119528953499633 0  0.6269466432031633 0.3118761308763043 0  0.690014628843022 0.3118056956619004 0  0.7532535140546868 0.311750436887578 0  0.8167083216725111 0.3117227372607221 0  0.880421923024339 0.3117383566590927 0  0.9444184304809453 0.3118149156364828 0  1.008676687683971 0.3119683373672139 0  0 0.375 0  0.06259387555570228 0.3749454767776297 0  0.1251922990980554 0.374889353345723 0  0.187800140873697 0.3748300425774856 0  0.2504229736867875 0.3747660082013067 0  0.3130675258641755 0.3746958277167062 0  0.3757422706552373 0.3746183087052141 0  0.4384582174226422 0.3745326901775061 0  0.5012299799107047 0.3744389735699484 0  0.5640771915041805 0.3743384439262247 0  0.6270262878996344 0.3742344564616532 0  0.6901125292339989 0.3741335647668972 0  0.7533818029464796 0.3740470253399882 0  0.8168911634343951 0.3739925719161893 0  0.8807063341575905 0.3739960237971698 0  0.9448942259834936 0.3740916891009071 0  1.009510680840939 0.3743196485542704 0  0 0.4375 0  0.0625959418728069 0.4374400830940256 0  0.1251961757275274 0.4373781789959046 0  0.18780527083287 0.4373122804656617 0  0.2504284071610396 0.437240360883014 0  0.3130717825479757 0.43716039915959 0  0.375743165761444 0.4370704576827412 0  0.4384526840877018 0.4369688518461806 0  0.5012139732546678 0.4368544730876197 0  0.564045867520941 0.4367273631746613 0  0.6269748571618322 0.4365896880217823 0  0.6900385552907349 0.4364473196837839 0  0.7532903216037896 0.4363122775473386 0  0.8168048678260768 0.4362062196372467 0  0.8806840264385798 0.4361648196241833 0  0.9450611230423339 0.4362418990541398 0  1.010102662153275 0.436510387604245 0  0 0.5 0  0.06259373403558104 0.499936671880243 0  0.1251912207735557 0.4998709841743111 0  0.1877964107647708 0.4998005122639245 0  0.2504136951468048 0.4997227131925056 0  0.3130482116659248 0.4996348886567586 0  0.3757062853126331 0.4995341868380977 0  0.4383961090154108 0.4994176801092608 0  0.5011288450026112 0.4992825865282251 0  0.5639204538086738 0.4991267574125327 0  0.6267947577422389 0.4989496458244158 0  0.6897885302855962 0.4987541189701447 0  0.7529597284768915 0.4985496860735969 0  0.8164001546259523 0.4983579179201739 0  0.880253366268502 0.49822075161218 0  0.9447369081837801 0.4982112370016517 0  1.010165488952768 0.498442789843045 0  0 0.5625 0  0.0625877643236509 0.5624356124946123 0  0.125178537551825 0.5623685544771468 0  0.1877754191957139 0.5622960383883896 0  0.2503817123786882 0.5622150405814319 0  0.313001072021977 0.5621221826487632 0  0.375637740758566 0.5620136209877632 0  0.4382969702284419 0.5618849670588195 0  0.5009858261518463 0.5617312904840334 0  0.5637147726490412 0.5615473173493563 0  0.626500802515314 0.5613280566777011 0  0.6893735396173881 0.5610703247253204 0  0.7523867961734969 0.5607760810100292 0  0.8156394323450893 0.5604592399241638 0  0.8793102078428352 0.5601585588032755 0  0.9437092028439843 0.5599591554503097 0  1.009340180364047 0.5600202925989287 0  0 0.625 0  0.06257874447381868 0.6249372120541501 0  0.1251596566322692 0.6248715585784161 0  0.1877448740433729 0.6248000062503472 0  0.2503364639874624 0.6247191675828071 0  0.3129363711078108 0.6246250927216458 0  0.3755463634182635 0.6245130250801441 0  0.4381680254801671 0.6243771143852296 0  0.5008029404047769 0.6242100954194025 0  0.5634534183814989 0.6240029804165202 0  0.6261246126685241 0.6237449142221052 0  0.688829898426736 0.6234235928191472 0  0.7516034712879688 0.623027260471443 0  0.8145278815398495 0.6225507527825995 0  0.8777895445072261 0.6220111631877603 0  0.9417779247169608 0.6214835121957685 0  1.00723096585363 0.6211653785661414 0  0 0.6875 0  0.06256748597997126 0.687441661604557 0  0.1251363217882223 0.6873804318897591 0  0.18770771458993 0.6873132129737581 0  0.2502825396436835 0.6872364592777482 0  0.3128610793594077 0.687145890981759 0  0.3754426397530738 0.6870361225686789 0  0.4380250001683906 0.6869001622209976 0  0.5006036842325605 0.6867287242539268 0  0.5631711686035692 0.6865092844314602 0  0.6257165450845444 0.6862248153178994 0  0.688227262410489 0.6858522333393959 0  0.7506974603307344 0.6853610096710089 0  0.8131544054955099 0.6847139688911515 0  0.8757296188781792 0.6838777458904993 0  0.9388245719504549 0.682867120945545 0  1.003414718055416 0.6818761780165398 0  0 0.75 0  0.06255478658954659 0.7499489835699062 0  0.1251102408969285 0.7498952602481216 0  0.1876668087118122 0.7498359005485364 0  0.2502244148592239 0.749767484163385 0  0.3127820377603222 0.7496857684931225 0  0.3753370424875028 0.7495852340742045 0  0.4378841135649002 0.7494584286099772 0  0.5004135512518101 0.7492949865194649 0  0.5629086088545835 0.7490801231732627 0  0.6253415479849793 0.7487922663695588 0  0.6876685461982189 0.7483992498753831 0  0.7498258015847634 0.7478521295439818 0  0.811737351975089 0.7470754944935832 0  0.8733721156917211 0.7459558034400784 0  0.9349660953460106 0.7443526152001115 0  0.9976220875297577 0.7423179313539533 0  0 0.8125 0  0.06254132255827494 0.8124589915008767 0  0.1250828449023881 0.812415688115438 0  0.1876245200388833 0.8123675867595744 0  0.2501657169689968 0.8123117199952002 0  0.3127047293171891 0.8122443313654972 0  0.3752379744697448 0.8121604149321653 0  0.4377586377182558 0.8120530256027598 0  0.5002543255978874 0.8119122052167896 0  0.5627029404234279 0.8117232541760259 0  0.6250653562877724 0.8114638499211808 0  0.6872724464415163 0.8110990173218005 0  0.7492028441138454 0.8105717554196976 0  0.81064924149623 0.8097839339530691 0  0.8712907624716338 0.8085532246276013 0  0.9308128272027685 0.8065086693928032 0  0.9901326632564047 0.8028523466573018 0  0 0.875 0  0.06252757024721303 0.8749712731913771 0  0.1250551095116617 0.874940876698619 0  0.1875823781011036 0.8749069792469331 0  0.2501086394753877 0.8748673865428824 0  0.3126322336985804 0.8748192820372129 0  0.3751498650207745 0.8747588523005527 0  0.4376553540872458 0.8746807157802526 0  0.5001373750617495 0.8745770202485251 0  0.5625752126500111 0.8744359793119557 0  0.6249305168650827 0.8742394460524765 0  0.6871306511367815 0.8739587847783497 0  0.7490337014522666 0.8735475068580856 0  0.8103521829851051 0.872926608319107 0  0.8704824680712713 0.8719481371509673 0  0.9281287533438106 0.8702742349498138 0  0.9805975148695918 0.8668620728878489 0  0 0.9375 0  0.06251377818113105 0.937485205102678 0  0.125027490601586 0.9374695308510352 0  0.1875409539873859 0.9374520096554178 0  0.2500537044332049 0.9374314749237846 0  0.3125647543421759 0.9374064173825212 0  0.3750721819028316 0.9373747756366622 0  0.437572400556047 0.9373336148831
[...]
<PointData  Vectors="f_54"> 
<DataArray  type="Float64"  Name="f_54"  NumberOfComponents="3" format="ascii">0.0000000000000000e+00 0.0000000000000000e+00 0.0000000000000000e+00  0.0000000000000000e+00 0.0000000000000000e+00 0.0000000000000000e+00  0.0000000000000000e+00 0.0000000000000000e+00 0.0000000000000000e+00  0.0000000000000000e+00 0.0000000000000000e+00 0.0000000000000000e+00  0.0000000000000000e+00 0.0000000000000000e+00 0.0000000000000000e+00  0.0000000000000000e+00 0.0000000000000000e+00 0.0000000000000000e+00  0.0000000000000000e+00 0.0000000000000000e+00 0.0000000000000000e+00  0.0000000000000000e+00 0.0000000000000000e+00 0.0000000000000000e+00  0.0000000000000000e+00 0.0000000000000000e+00 0.0000000000000000e+00  0.0000000000000000e+00 0.0000000000000000e+00 0.0000000000000000e+00  0.0000000000000000e+00 0.0000000000000000e+00 0.0000000000000000e+00  0.0000000000000000e+00 0.0000000000000000e+00 0.0000000000000000e+00  0.0000000000000000e+00 0.0000000000000000e+00 0.0000000000000000e+00  0.0000000000000000e+00 0.0000000000000000e+00 0.0000000000000000e+00  0.0000000000000000e+00 0.0000000000000000e+00 0.0000000000000000e+00  0.0000000000000000e+00 0.0000000000000000e+00 0.0000000000000000e+00  0.0000000000000000e+00 0.0000000000000000e+00 0.0000000000000000e+00  0.0000000000000000e+00 0.0000000000000000e+00 0.0000000000000000e+00  -4.6250352014540121e-06 -1.4667474222047225e-07 0.0000000000000000e+00  -9.3774730631828683e-06 -2.9401827465273584e-07 0.0000000000000000e+00  -1.4384815268968991e-05 -4.4218406628584676e-07 0.0000000000000000e+00  -1.9771143330828151e-05 -5.9013895512407533e-07 0.0000000000000000e+00  -2.5653792899090196e-05 -7.3492830943212184e-07 0.0000000000000000e+00  -3.2137934488974999e-05 -8.7079124345078838e-07 0.0000000000000000e+00  -3.9308327476007212e-05 -9.8812354364627669e-07 0.0000000000000000e+00  -4.7217672874983968e-05 -1.0723458960282343e-06 0.0000000000000000e+00  -5.5871609037465406e-05 -1.1028151157414695e-06 0.0000000000000000e+00  -6.5212305438615303e-05 -1.0519492999908283e-06 0.0000000000000000e+00  -7.5108364196346637e-05 -8.8442225847975312e-07 0.0000000000000000e+00  -8.5376855430756656e-05 -5.5444758820260306e-07 0.0000000000000000e+00  -9.5924351072403636e-05 8.6819321381767505e-09 0.0000000000000000e+00  -1.0731528851223649e-04 9.6858599715454863e-07 0.0000000000000000e+00  -1.2295503801251236e-04 2.8803785513805315e-06 0.0000000000000000e+00  -1.5818294586183456e-04 8.0582058436962224e-06 0.0000000000000000e+00  0.0000000000000000e+00 0.0000000000000000e+00 0.0000000000000000e+00  -9.1244262524712851e-06 -2.9273304918997795e-07 0.0000000000000000e+00  -1.8505591004971284e-05 -5.8737473090793970e-07 0.0000000000000000e+00  -2.8400998574803547e-05 -8.8485856337296462e-07 0.0000000000000000e+00  -3.9062803625371726e-05 -1.1838529383912758e-06 0.0000000000000000e+00  -5.0731966137838873e-05 -1.4793224510028835e-06 0.0000000000000000e+00  -6.3628223007837533e-05 -1.7607493095211402e-06 0.0000000000000000e+00  -7.7934236760963350e-05 -2.0099805792540758e-06 0.0000000000000000e+00  -9.3772277881163795e-05 -2.1987900972577250e-06 0.0000000000000000e+00  -1.1117216514585493e-04 -2.2864692609957486e-06 0.0000000000000000e+00  -1.3003039211105855e-04 -2.2181299914062006e-06 0.0000000000000000e+00  -1.5006320810437380e-04 -1.9249572612564766e-06 0.0000000000000000e+00  -1.7076166928814762e-04 -1.3285588366365112e-06 0.0000000000000000e+00  -1.9136081136583475e-04 -3.5420765816511522e-07 0.0000000000000000e+00  -2.1080247778997905e-04 1.0286705184175936e-06 0.0000000000000000e+00  -2.2737312218748030e-04 2.6420821395386996e-06 0.0000000000000000e+00  -2.3577729234306531e-04 3.2639009868824755e-06 0.0000000000000000e+00  0.0000000000000000e+00 0.0000000000000000e+00 0.0000000000000000e+00  -1.3367323885830955e-05 -4.3687976195896122e-07 0.0000000000000000e+00  -2.7123378069986672e-05 -8.7798530811118860e-07 0.0000000000000000e+00  -4.1659369299385447e-05 -1.3262269705339330e-06 0.0000000000000000e+00  -5.7362029611517229e-05 -1.7814116396052522e-06 0.0000000000000000e+00  -7.4606831823675191e-05 -2.2381877121086408e-06 0.0000000000000000e+00  -9.3745064256537202e-05 -2.6833941618366105e-06 0.0000000000000000e+00  -1.1508206875194399e-04 -3.0926793493605967e-06 0.0000000000000000e+00  -1.3884349896099946e-04 -3.4264001292514043e-06 0.0000000000000000e+00  -1.6512602565529853e-04 -3.6251398905942342e-06 0.0000000000000000e+00  -1.9382841589719047e-04 -3.6058560182455311e-06 0.0000000000000000e+00  -2.2455758302243273e-04 -3.2609674369146882e-06 0.0000000000000000e+00  -2.5649885410763295e-04 -2.4651648615986211e-06 0.0000000000000000e+00  -2.8821937671493983e-04 -1.0994776857615261e-06 0.0000000000000000e+00  -3.1730561131467291e-04 8.8911899383041878e-07 0.0000000000000000e+00  -3.3954361951083286e-04 3.3658391666472611e-06 0.0000000000000000e+00  -3.4699409542593792e-04 5.8654947423419986e-06 0.0000000000000000e+00  0.0000000000000000e+00 0.0000000000000000e+00 0.0000000000000000e+00  -1.7220504159525465e-05 -5.7674475713526974e-07 0.0000000000000000e+00  -3.4963734425091032e-05 -1.1614911629840267e-06 0.0000000000000000e+00  -5.3758055639003322e-05 -1.7607770145007299e-06 0.0000000000000000e+00  -7.4132207047836952e-05 -2.3775988356930724e-06 0.0000000000000000e+00  -9.6609937888765928e-05 -3.0089213328756211e-06 0.0000000000000000e+00  -1.2169694562738962e-04 -3.6422734971643389e-06 0.0000000000000000e+00  -1.4985637687550880e-04 -4.2510999187320065e-06 0.0000000000000000e+00  -1.8146815299351885e-04 -4.7886071600088395e-06 0.0000000000000000e+00  -2.1676612755603297e-04 -5.1801134811110916e-06 0.0000000000000000e+00  -2.5574538411508207e-04 -5.3146109194346721e-06 0.0000000000000000e+00  -2.9802911093495605e-04 -5.0378126310176946e-06 0.0000000000000000e+00  -3.4267834672336125e-04 -4.1521064524003143e-06 0.0000000000000000e+00  -3.8791390981465253e-04 -2.4345697273392442e-06 0.0000000000000000e+00  -4.3069272367216304e-04 3.0680013791184710e-07 0.0000000000000000e+00  -4.6605570726292205e-04 4.1084052348445796e-06 0.0000000000000000e+00  -4.8627601758827264e-04 8.6242072993607817e-06 0.0000000000000000e+00  0.0000000000000000e+00 0.0000000000000000e+00 0.0000000000000000e+00  -2.0549213885942014e-05 -7.0850917543374239e-07 0.0000000000000000e+00  -4.1754574510813550e-05 -1.4304342074370770e-06 0.0000000000000000e+00  -6.4282758077324864e-05 -2.1778452368381140e-06 0.0000000000000000e+00  -8.8810501029404148e-05 -2.9594122373735511e-06 0.0000000000000000e+00  -1.1602369643274163e-04 -3.7777957910399564e-06 0.0000000000000000e+00  -1.4660798918368921e-04 -4.6258034015508067e-06 0.0000000000000000e+00  -1.8122628789280483e-04 -5.4806982662276123e-06 0.0000000000000000e+00  -2.2047703078366827e-04 -6.2959198990070816e-06 0.0000000000000000e+00  -2.6482503619921854e-04 -6.9894454102524985e-06 0.0000000000000000e+00  -3.1449436682103829e-04 -7.4283253298494330e-06 0.0000000000000000e+00  -3.6930990680899336e-04 -7.4100863993011591e-06 0.0000000000000000e+00  -4.2847150231725971e-04 -6.6446997518712146e-06 0.0000000000000000e+00  -4.9024276510999543e-04 -4.7472744985822740e-06 0.0000000000000000e+00  -5.5154225540971684e-04 -1.2634048643947789e-06 0.0000000000000000e+00  -6.0746227851778871e-04 4.2335980086227267e-06 0.0000000000000000e+00  -6.5087797942109046e-04 1.1916836949082197e-05 0.0000000000000000e+00  0.0000000000000000e+00 0.0000000000000000e+00 0.0000000000000000e+00  -2.3219912737580482e-05 -8.2673516472920572e-07 0.0000000000000000e+00  -4.7223921895906936e-05 -1.6738363681195612e-06 0.0000000000000000e+00  -7.2813339807257645e-05 -2.5607678714623281e-06 0.0000000000000000e+00  -1.0081440576609001e-04 -3.5044723847732545e-06 0.0000000000000000e+00  -1.3208532591460058e-04 -4.5171184590288047e-06 0.0000000000000000e+00  -1.6751514702318174e-04 -5.6024072153805418e-06 0.0000000000000000e+00  -2.0800943055017688e-04 -6.7495341364189438e-06 0.0000000000000000e+00  -2.5445548312794884e-04 -7.9234699460483017e-06 0.0000000000000000e+00  -3.0765701878842586e-04 -9.0496467404111416e-06 0.0000000000000000e+00  -3.6822480600989967e-04 -9.9905226837425952e-06 0.0000000000000000e+00  -4.3640688413993512e-04 -1.0511282088809951e-05 0.0000000000000000e+00  -5.1184130615321169e-04 -1.0233286983657675e-05 0.0000000000000000e+00  -5.9322036175650094e-04 -8.5794341725192365e-06 0.0000000000000000e+00  -6.7787605151940755e-04 -4.7297653449661898e-06 0.0000000000000000e+00  -7.6134518848097027e-04 2.3668619647251341e-06 0.0000000000000000e+00  -8.3705934505823917e-04 1.3841673521168894e-05 0.0000000000000000e+00  0.0000000000000000e+00 0.0000000000000000e+00 0.0000000000000000e+00  -2.5105265928237236e-05 -9.2447745870142520e-07 0.0000000000000000e+00  -5.1109768052625549e-05 -1.8773575819015963e-06 0.0000000000000000e+00  -7.8938215617940110e-05 -2.8869278361786477e-06 0.0000000000000000e+00  -1.0955988864280042e-04 -3.9806433962304064e-06 0.0000000000000000e+00  -1.4400715102332536e-04 -5.1838348297084950e-06 0.0000000000000000e+00  -1.8338765712472941e-04 -6.5170404626027606e-06 0.0000000000000000e+00  -2.2888539107114480e-04 -7.9908979501302961e-06 0.0000000000000000e+00  -2.8174280750591389e-04 -9.5967824989762097e-06 0.0000000000000000e+00  -3.4321230275335279e-04 -1.1290123413312114e-05 0.0000000000000000e+00  -4.1446016291111956e-04 -1.2961344553031555e-05 0.0000000000000000e+00  -4.9640103679153297e-04 -1.4386586437502482e-05 0.0000000000000000e+00  -5.8943892938553789e-04 -1.5147474616572954e-05 0.0000000000000000e+00  -6.9309841285414026e-04 -1.4509219017478600e-05 0.0000000000000000e+00  -8.0555798122705787e-04 -1.1257348637895967e-05 0.0000000000000000e+00  -9.2315403494466070e-04 -3.5300241988389827e-06 0.0000000000000000e+00  -1.0399872254542707e-03 1.1243668201189938e-05 0.0000000000000000e+00  0.0000000000000000e+00 0.0000000000000000e+00 0.0000000000000000e+00  -2.6091477754372662e-05 -9.9373912590888293e-07 0.0000000000000000e+00  -5.3174982563918164e-05 -2.0241860234452097e-06 0.0000000000000000e+00  -8.2277251431784015e-05 -3.1290078450359460e-06 0.0000000000000000e+00  -1.1449264825742407e-04 -4.3474501434691304e-06 0.0000000000000000e+00  -1.5101616084162091e-04 -5.7206281232969668e-06 0.0000000000000000e+00  -1.9317379668450332e-04 -7.2909140128859020e-06 0.0000000000000000e+00  -2.4244663233942898e-04 -9.0994936134321574e-06 0.0000000000000000e+00  -3.0048138336764499e-04 -1.1180268206759461e-05 0.0000000000000000e+00  -3.6907500434898267e-04 -1.3546525925555434e-05 0.0000000000000000e+00  -4.5011301308653959e-04 -1.6163453695339568e-05 0.0000000000000000e+00  -5.4543132473950425e-04 -1.8893415362442595e-05 0.0000000000000000e+00  -6.5656245470823327e-04 -2.1390630842044767e-05 0.0000000000000000e+00  -7.8432847552545760e-04 -2.2907870057176285e-05 0.0000000000000000e+00  -9.2827536955214756e-04 -2.1968653693947758e-05 0.0000000000000000e+00  -1.0860315566181076e-03 -1.5883840793333516e-05 0.0000000000000000e+00  -1.2527942381374965e-03 -2.0154143219413651e-07 0.0000000000000000e+00  0.0000000000000000e+00 0.0000000000000000e+00 0.0000000000000000e+00  -2.6087695188523405e-05 -1.0262896190543214e-06 0.0000000000000000e+00  -5.3226827672633482e-05 -2.0967281039975708e-06 0.0000000000000000e+00  -8.2512760540786638e-05 -3.2576429169373095e-06 0.0000000000000000e+00  -1.1513248435958397e-04 -4.5597655205830003e-06 0.0000000000000000e+00  -1.5241384653443419e-04 -6.0605624620253784e-06 0.0000000000000000e+00  -1.9587784607739769e-04 -7.8265628365265132e-06 0.0000000000000000e+00  -2.4729267302170133e-04 -9.9353083812853859e-06 0.0000000000000000e+00  -3.0872480869341873e-04 -1.2475880178106601e-05 0.0000000000000000e+00  -3.8257626573368341e-04 -1.5545374182486615e-05 0.0000000000000000e+00  -4.7158621057520183e-04 -1.9235009236536738e-05 0.0000000000000000e+00  -5.7875804032746507e-04 -2.3591113797114972e-05 0.0000000000000000e+00  -7.0714993680757207e-04 -2.8517710364343664e-05 0.0000000000000000e+00  -8.5944747733371308e-04 -3.3550063267946582e-05 0.0000000000000000e+00  -1.0372561611476272e-03 -3.7366603588470045e-05 0.0000000000000000e+00  -1.2401943851540875e-03 -3.6852362023675427e-05 0.0000000000000000e+00  -1.4652408812065316e-03 -2.5628705983394767e-05 0.0000000000000000e+00  0.0000000000000000e+00 0.0000000000000000e+00 0.0000000000000000e+00  -2.5036767252472773e-05 -1.0147888636843661e-06 0.0000000000000000e+00  -5.1139701270580952e-05 -2.0790050245231711e-06 0.0000000000000000e+00  -7.9426697146566327e-05 -3.2453962883726962e-06 0.0000000000000000e+00  -1.1112866952131669e-04 -4.5738402607675957e-06 0.0000000000000000e+00  -1.4765462369480871e-04 -6.1357876623861235e-06 0.0000000000000000e+00  -1.9066709782267308e-04 -8.0198603938297254e-06 0.0000000000000000e+00  -2.4217063515574876e-04 -1.0339136761940581e-05 0.0000000000000000e+00  -3.0461373586666249e-04 -1.3240676965019776e-05 0.0000000000000000e+00  -3.8099920593552046e-04 -1.6917494512943555e-05 0.0000000000000000e+00  -4.7498561461928437e-04 -2.1621463638396764e-05 0.0000000000000000e+00  -5.9093819076587526e-04 -2.7669477339443446e-05 0.0000000000000000e+00  -7.3384392262201544e-04 -3.5415559865378876e-05 0.0000000000000000e+00  -9.0894123622736929e-04 -4.5104656916858001e-05 0.0000000000000000e+00  -1.1208631230487439e-03 -5.6376155908045999e-05 0.0000000000000000e+00  -1.3722134774873209e-03 -6.6888645564820487e-05 0.0000000000000000e+00  -1.6621022726781831e-03 -6.9308555161985238e-05 0.0000000000000000e+00  0.0000000000000000e+00 0.0000000000000000e+00 0.0000000000000000e+00  -2.2926161505523453e-05 -9.5406875658153985e-07 0.0000000000000000e+00  -4.6878679070519936e-05 -1.9594494543032677e-06 0.0000000000000000e+00  -7.2940367528226131e-05 -3.0715848462403755e-06 0.0000000000000000e+00  -1.0232150463274287e-04 -4.3550537587490187e-06 0.0000000000000000e+00  -1.3643735664581574e-04 -5.8896658120734841e-06 0.0000000000000000e+00  -1.7700398972363314e-04 -7.7787589451499126e-06 0.0000000000000000e+00  -2.2616036807931336e-04 -1.0161168892526107e-05 0.0000000000000000e+00  -2.8662534754956756e-04 -1.3229296480344090e-05 0.0000000000000000e+00  -3.6189638843950442e-04 -1.7257415077103355e-05 0.0000000000000000e+00  -4.5648822142637790e-04 -2.2647195737802467e-05 0.0000000000000000e+00  -5.7618465239716221e-04 -3.0000915219049554e-05 0.0000000000000000e+00  -7.2821606753366926e-04 -4.0231427944964873e-05 0.0000000000000000e+00  -9.2114768177774004e-04 -5.4683726164946294e-05 0.0000000000000000e+00  -1.1640486524249751e-03 -7.5060500787748634e-05 0.0000000000000000e+00  -1.4644072610403387e-03 -1.0222569617101383e-04 0.0000000000000000e+00  -1.8256375273129563e-03 -1.3160220885097770e-04 0.0000000000000000e+00  0.0000000000000000e+00 0.0000000000000000e+00 0.0000000000000000e+00  -1.9797392252993491e-05 -8.4234121467325564e-07 0.0000000000000000e+00  -4.0520397949396877e-05 -1.7335933793263019e-06 0.0000000000000000e+00  -6.3151093100636513e-05 -2.7270641475736134e-06 0.0000000000000000e+00  -8.8802072705077332e-05 -3.8859446310709561e-06 0.0000000000000000e+00  -1.1879952070077830e-04 -5.2900926909286403e-06 0.0000000000000000e+00  -1.5479120015178589e-04 -7.0455296775941984e-06 0.0000000000000000e+00  -1.9889303714479021e-04 -9.2985886787416324e-06 0.0000000000000000e+00  -2.5389300340653275e-04 -1.2258174840156457e-05 0.0000000000000000e+00  -3.2353681993800988e-04 -1.6232869268898294e-05 0.0000000000000000e+00  -4.1292348855272989e-04 -2.1696951425796116e-05 0.0000000000000000e+00  -5.2902963947251919e-04 -2.9416177336391137e-05 0.0000000000000000e+00  -6.8133148505861911e-04 -4.0701138014838424e-05 0.0000000000000000e+00  -8.8232782213765832e-04 -5.7926653189234425e-05 0.0000000000000000e+00  -1.1473114121866195e-03 -8.5518759005330459e-05 0.0000000000000000e+00  -1.4916812137208419e-03 -1.3104618488617164e-04 0.0000000000000000e+00  -1.9247648234993414e-03 -1.9791284026617639e-04 0.0000000000000000e+00  0.0000000000000000e+00 0.0000000000000000e+00 0.0000000000000000e+00  -1.5752029014753603e-05 -6.8206681508607931e-07 0.0000000000000000e+00  -3.2267076741798600e-05 -1.4060378534788599e-06 0.0000000000000000e+00  -5.0358668567676875e-05 -2.2178362754971157e-06 0.0000000000000000e+00  -7.0959076497020194e-05 -3.1724933606679483e-06 0.0000000000000000e+00  -9.5197761607147496e-05 -4.3404152771601979e-06 0.0000000000000000e+00  -1.2450757349210146e-04 -5.8161146977372993e-06 0.0000000000000000e+00  -1.6077630676332116e-04 -7.7310104237513254e-06 0.0000000000000000e+00  -2.0657089892690155e-04 -1.0272982447056497e-05 0.0000000000000000e+00  -2.6547709158750507e-04 -1.3717772772028172e-05 0.0000000000000000e+00  -3.4262079417069174e-04 -1.8483522090396481e-05 0.0000000000000000e+00  -4.4546776689499175e-04 -2.5237858066966746e-05 0.0000000000000000e+00  -5.8501975544449113e-04 -3.5143802696652072e-05 0.0000000000000000e+00  -7.7746401936128499e-04 -5.0513971267207011e-05 0.0000000000000000e+00  -1.0458991117943688e-03 -7.6746806118420591e-05 0.0000000000000000e+00  -1.4197103269069306e-03 -1.2867128853630229e-04 0.0000000000000000e+00  -1.9164024682878412e-03 -2.5784928615264633e-04 0.0000000000000000e+00  0.0000000000000000e+00 0.0000000000000000e+00 0.0000000000000000e+00  -1.0952386273547844e-05 -4.8025873344874122e-07 0.0000000000000000e+00  -2.2449373531956862e-05 -9.9117655542440216e-07 0.0000000000000000e+00  -3.5073825903115362e-05 -1.5664558427941839e-06 0.0000000000000000e+00  -4.9499618086477299e-05 -2.2467152454371022e-06 0.0000000000000000e+00  -6.6553498272280069e-05 -3.0841785045814945e-06 0.0000000000000000e+00  -8.7301469783371082e-05 -4.1490106496015852e-06 0.0000000000000000e+00  -1.1317686055976424e-04 -5.5380114048725079e-06 0.0000000000000000e+00  -1.4617890276876643e-04 -7.3862007789166918e-06 0.0000000000000000e+00  -1.8919196304557591e-04 -9.8807984147954358e-06 0.0000000000000000e+00  -2.4651480632645350e-04 -1.3273769198261035e-05 0.0000000000000000e+00  -3.2476193512743308e-04 -1.7880991311333508e-05 0.0000000000000000e+00  -4.3443468087126972e-04 -2.4043251493468405e-05 0.0000000000000000e+00  -5.9271969538194627e-04 -3.2034613130811657e-05 0.0000000000000000e+00  -8.2859288852354593e-04 -4.2099088779558200e-05 0.0000000000000000e+00  -1.1922035224893961e-03 -5.5713157738942730e-05 0.0000000000000000e+00  -1.7704682137591088e-03 -8.1699800731770974e-05 0.0000000000000000e+00  0.0000000000000000e+00 0.0000000000000000e+00 0.0000000000000000e+00  -5.6154967848494784e-06 -2.4811220331567342e-07 0.0000000000000000e+00  -1.1514722241159455e-05 -5.1241627485497824e-07 0.0000000000000000e+00  -1.8002083318192519e-05 -8.1073607720571659e-07 0.0000000000000000e+00  -2.5431513107653050e-05 -1.1646045921662766e-06 0.0000000000000000e+00  -3.4240770466533046e-05 -1.6017300102776232e-06 0.0000000000000000e+00  -4.5000310515016372e-05 -2.1591970354978385e-06 0.0000000000000000e+00  -5.8487569635802304e-05 -2.8874411280801850e-06 0.0000000000000000e+00  -7.5805693353195953e-05 -3.8541737440218991e-06 0.0000000000000000e+00  -9.8581410330320961e-05 -5.1443455588389856e-06 0.0000000000000000e+00  -1.2930643123843169e-04 -6.8418096992432933e-06 0.0000000000000000e+00  -1.7193893310295559e-04 -8.9438553575460472e-06 0.0000000000000000e+00  -2.3294751826538902e-04 -1.1046726497448508e-05 0.0000000000000000e+00  -3.2290862203147771e-04 -1.1281431324689596e-05 0.0000000000000000e+00  -4.5765261075560301e-04 -2.9761032268186449e-06 0.0000000000000000e+00  -6.5198704128179258e-04 3.4019026104147971e-05 0.0000000000000000e+00  -8.8206261220027352e-04 1.4281721142255093e-04 0.0000000000000000e+00  0.0000000000000000e+00 0.0000000000000000e+00 0.0000000000000000e+00  0.0000000000000000e+00 0.0000000000000000e+00 0.0000000000000000e+00  0.0000000000000000e+00 0.0000000000000000e+00 0.0000000000000000e+00  0.0000000000000000e+00 0.0000000000000000e+00 0.0000000000000000e+00  0.0000000000000000e+00 0.0000000000000000e+00 0.0000000000000000e+00  0.0000000000000000e+00 0.0000000000000000e