<?xml version="1.0"?>
<VTKFile type="UnstructuredGrid"  version="0.1"  >
<UnstructuredGrid>
<Piece  NumberOfPoints="289" NumberOfCells="512">
<Points>
<DataArray  type="Float64"  NumberOfComponents="3"  format="ascii">0 0 0  0.0625 0 0  0.125 0 0  0.1875 0 0  0.25 0 0  0.3125 0 0  0.375 0 0  0.4375 0 0  0.5 0 0  0.5625 0 0  0.625 0 0  0.6875 0 0  0.75 0 0  0.8125 0 0  0.875 0 0  0.9375 0 0  1 0 0  0 0.0625 0  0.06251573194061412 0.0624976028018213 0  0.1250324206002177 0.0624951653059195 0  0.1875511033716497 0.06249265124896868 0  0.2500729932655789 0.06249003309465297 0  0.3125995914194644 0.06248729728453007 0  0.3751328349928176 0.06248445020143632 0  0.4376753052304374 0.06248152430921712 0  0.5002305420550001 0.06247858285261079 0  0.5628035629239408 0.06247571942546296 0  0.6254018133938656 0.06247304449774725 0  0.6880371255018247 0.06247064110396086 0  0.7507302631426491 0.06246844328190451 0  0.8135227383997854 0.06246588992043778 0  0.8765109635399554 0.0624608003950277 0  0.939955572839363 0.06244514578994206 0  1.004673711285779 0.06238705095615798 0  0 0.125 0  0.06253050735203664 0.1249952422154687 0  0.1250628470368848 0.1249903993388199 0  0.1875990046428393 0.1249853939636395 0  0.2501412990339058 0.1249801654804636 0  0.3126925941105575 0.1249746806069763 0  0.375256573179544 0.1249689459419042 0  0.4378381145879852 0.1249630219998145 0  0.5004438336350229 0.1249570364741404 0  0.5630829119202296 0.1249511914128828 0  0.6257684579862925 0.1249457539917937 0  0.6885199119338471 0.1249410138953381 0  0.7513675724473433 0.1249371880640379 0  0.814361351985967 0.1249342936687909 0  0.8775867605912953 0.1249322959130263 0  0.9411854294050988 0.1249334217425208 0  1.00532335003847 0.1249568240100862 0  0 0.1875 0  0.06254345547598822 0.1874929632181107 0  0.1250894626886523 0.1874857882613764 0  0.1876407834564939 0.1874783473974181 0  0.2502006359057968 0.1874705361150747 0  0.3127729814997604 0.1874622886496456 0  0.3753628903709321 0.1874535977840832 0  0.4379770247550721 0.1874445392255501 0  0.5006242956282855 0.1874352990372591 0  0.5633167719882672 0.1874261991015274 0  0.6260709571246672 0.1874177094394107 0  0.6889095772779236 0.1874104263531591 0  0.7518639648772865 0.1874049804398029 0  0.8149765817545191 0.1874018110833065 0  0.8783009004898007 0.1874006414939632 0  0.9418879994367026 0.1873988689508839 0  1.005729363155713 0.1873841810477656 0  0 0.25 0  0.06255386208059806 0.2499908190678262 0  0.1251107801567677 0.2499814357029202 0  0.1876740559808965 0.249971659089815 0  0.2502475248492296 0.2499613249712402 0  0.312835889219821 0.2499503150842752 0  0.3754451381817241 0.2499385840525566 0  0.4380830883854124 0.2499261958880344 0  0.5007600832820553 0.249913371051878 0  0.563489877795772 0.2499005420162907 0  0.6262906937872317 0.2498884088941138 0  0.6891863046389094 0.2498779745296059 0  0.7522066652421165 0.2498705168372939 0  0.8153867553980113 0.2498674198683513 0  0.8787604175932374 0.2498697308748846 0  0.9423426191692886 0.249877296164184 0  1.006091092748439 0.2498880027064954 0  0 0.3125 0  0.06256122696261299 0.3124888741342782 0  0.1251257619043714 0.3124774691204645 0  0.1876971698342792 0.3124655161984653 0  0.2502795742538233 0.3124527715779173 0  0.3128780074896974 0.3124390373675442 0  0.3754988516031382 0.312424193579475 0  0.4381504046797788 0.3124082461484188 0  0.500843602665735 0.3123913962864683 0  0.5635929033857913 0.3123741355435381 0  0.6264172709869693 0.3123573666481052 0  0.6893410348379783 0.3123425388474753 0  0.7523940480412111 0.3123317621231583 0  0.815609918258179 0.3123278207039612 0  0.879020094059097 0.3123339458445393 0  0.9426407803400824 0.3123531816650368 0  1.006451276716534 0.3123873555074864 0  0 0.375 0  0.06256529964080335 0.3749872051147848 0  0.1251338951180106 0.3749740430658518 0  0.1877093245374724 0.3749601526497207 0  0.2502956535672624 0.3749451892155981 0  0.3128978113857016 0.3749288429568218 0  0.3755220212202396 0.3749108712931657 0  0.4381763668688509 0.3748911535138633 0  0.5008715385564732 0.3748697788612265 0  0.5636217898240544 0.3748471823955651 0  0.626446091354193 0.3748243444085349 0  0.6893693502672315 0.3748030640913813 0  0.7524233182799218 0.3747862964160337 0  0.8156463873591334 0.3747784842401476 0  0.8790809176117916 0.374785699387101 0  0.9427664550011832 0.3748152051369893 0  1.006728225045281 0.374873764548684 0  0 0.4375 0  0.0625660901636466 0.4374858998160471 0  0.1251352151134307 0.4374713375541316 0  0.1877106109885338 0.4374558489841238 0  0.2502959534721865 0.4374389698336956 0  0.3128956453823611 0.4374202456347252 0  0.3755151986511663 0.4373992565475815 0  0.438161763489227 0.4373756679664675 0  0.5008448766408604 0.437349324031133 0  0.5635775221004308 0.4373204104479238 0  0.6263776123797011 0.4372897249779453 0  0.689269983844171 0.4372591051044681 0  0.7522889100285506 0.4372320605920294 0  0.8154808976336679 0.4372146123156376 0  0.8789070603752052 0.4372161819015671 0  0.9426436788877607 0.4372500073870454 0  1.006778950464374 0.4373319149893581 0  0 0.5 0  0.06256385359138282 0.4999850527171968 0  0.125130274448891 0.4999695496798533 0  0.1877019662505294 0.4999529213560213 0  0.2502819301499001 0.4999345734243726 0  0.3128736670740142 0.49991388142354 0  0.3754814618234401 0.4998901974669459 0  0.4381108097510386 0.4998628802938904 0  0.500769087023705 0.4998313691241622 0  0.5634666313401507 0.4997953377172156 0  0.6262185011742666 0.4997549913197751 0  0.6890473206679153 0.4997116088698121 0  0.7519877658041555 0.4996684819548132 0  0.8150932911620422 0.4996324300442195 0  0.8784453425383161 0.499615974422112 0  0.942164023194242 0.4996397757098765 0  1.006416554006705 0.4997336547812401 0  0 0.5625 0  0.06255904821426364 0.5624847568446399 0  0.1251200570667559 0.562468877188825 0  0.1876850404099249 0.5624516967557359 0  0.2502561244532886 0.5624324957730835 0  0.312835629069581 0.5624104723168034 0  0.375426196901993 0.5623847198873273 0  0.4380310243593328 0.5623542171094248 0  0.5006543033576637 0.5623178471375244 0  0.5633020875067223 0.5622744838371927 0  0.6259839892989927 0.5622232202529208 0  0.6887164489928891 0.5621638883087799 0  0.7515288373637763 0.562098150476475 0  0.8144743066265452 0.5620316501223487 0  0.8776476566553753 0.5619779215002225 0  0.9412112130775322 0.5619645953569717 0  1.005424346805705 0.5620407012111535 0  0 0.625 0  0.06255226978542376 0.6249850921488544 0  0.1251058406158009 0.6249694940745252 0  0.1876619758979428 0.6249524736191313 0  0.2502218457481662 0.6249332112115544 0  0.3127864622868892 0.6249107487351411 0  0.3753566031612068 0.6248839302431263 0  0.4379327463202513 0.6248513343561553 0  0.5005150887780621 0.6248112039275625 0  0.5631038351094708 0.6247613933567828 0  0.6257001872560671 0.6246993904358905 0  0.6883089780539223 0.6246225573816719 0  0.7509448895613169 0.6245289411530155 0  0.8136459590188913 0.6244194613604759 0  0.8765005638479364 0.6243031980892086 0  0.9396955446590032 0.6242088213695877 0  1.003587035156706 0.6242048805146643 0  0 0.6875 0  0.0625441676085242 0.6874861115350389 0  0.1250890174722623 0.6874715203965739 0  0.1876351110064134 0.6874554706934403 0  0.2501827247506649 0.6874370928447084 0  0.3127316381328115 0.6874153300865076 0  0.3752808309999854 0.6873888424772985 0  0.4378280569271705 0.6873558767739544 0  0.5003692730878886 0.687314087504408 0  0.5628979698335566 0.6872602933427201 0  0.6254046346345036 0.6871901614651037 0  0.6878771049515781 0.6870978574353734 0  0.7503038775073501 0.6869758645512202 0  0.812685540431665 0.6868157297979187 0  0.8750660848794213 0.6866122065135863 0  0.9376067724957005 0.6863779851279694 0  1.000729800599146 0.6861850779316915 0  0 0.75 0  0.06253535305919983 0.749987826762919 0  0.1250708958383943 0.7499749910118272 0  0.1876066392759241 0.7499607717813371 0  0.2501421735507225 0.7499443212222464 0  0.3126763413623658 0.7499245774200148 0  0.3752067441779177 0.7499001429727665 0  0.4377289776360375 0.7498691067714383 0  0.5002354448444554 0.7498287728142041 0  0.5627135399689488 0.7497752361550197 0  0.6251429690945874 0.7497027049913619 0  0.6874921374396896 0.7496024002942518 0  0.7497144154888428 0.749460777917806 0  0.8117483963281424 0.749256857326753 0  0.8735369871032956 0.7489595334989371 0  0.9351108490885072 0.7485328655767932 0  0.996838939962408 0.7479948075909653 0  0 0.8125 0  0.0625263157706101 0.8124901972393678 0  0.1250525139073682 0.8124798299542609 0  0.1875782804746408 0.8124682783259025 0  0.2501028380297413 0.8124548012394864 0  0.3126245739882746 0.8124384497092746 0  0.3751404571585829 0.812417941785748 0  0.4376450849215586 0.8123914711849758 0  0.5001290914276358 0.812356402068959 0  0.5625764449163254 0.8123087641333602 0  0.6249598047288777 0.8122423839967384 0  0.6872325148342509 0.8121473164596279 0  0.7493150161694707 0.8120068242861826 0  0.8110733830065681 0.8117910809862668 0  0.8722940279458895 0.8114429332593105 0  0.9327018172001208 0.8108445083861702 0  0.9923204532025782 0.809752012182209 0  0 0.875 0  0.06251736508656262 0.8749931248628526 0  0.1250345071943965 0.874985837761475 0  0.1875510368503382 0.8749776835856748 0  0.2500661700527179 0.8749681119765029 0  0.3125784045755601 0.8749564078504503 0  0.3750849985596763 0.8749415891113591 0  0.4375810895777678 0.8749222473671882 0  0.5000581553073927 0.8748962901764115 0  0.5625012388769594 0.8748605110900564 0  0.6248837794436957 0.8748098514629278 0  0.6871576216629087 0.8747360883981081 0  0.7492329099637318 0.8746253717641981 0  0.8109358344984603 0.8744530998940039 0  0.8719161032253644 0.8741710856962804 0  0.9314408899152842 0.8736659186562107 0  0.9879852728539906 0.8725787546046527 0  0 0.9375 0  0.06250861215038152 0.937496457256045 0  0.1250170656991401 0.9374926973365164 0  0.1875251070547959 0.9374884794957747 0  0.2500322570033446 0.9374835107961501 0  0.3125376231650983 0.9374774076732941 0  0.3750395935836151 0.9374696389808075 0  0.4375353094132978 0.93745
[...]
<PointData  Vectors="f_54"> 
<DataArray  type="Float64"  Name="f_54"  NumberOfComponents="3" format="ascii">0.0000000000000000e+00 0.0000000000000000e+00 0.0000000000000000e+00  0.0000000000000000e+00 0.0000000000000000e+00 0.0000000000000000e+00  0.0000000000000000e+00 0.0000000000000000e+00 0.0000000000000000e+00  0.0000000000000000e+00 0.0000000000000000e+00 0.0000000000000000e+00  0.0000000000000000e+00 0.0000000000000000e+00 0.0000000000000000e+00  0.0000000000000000e+00 0.0000000000000000e+00 0.0000000000000000e+00  0.0000000000000000e+00 0.0000000000000000e+00 0.0000000000000000e+00  0.0000000000000000e+00 0.0000000000000000e+00 0.0000000000000000e+00  0.0000000000000000e+00 0.0000000000000000e+00 0.0000000000000000e+00  0.0000000000000000e+00 0.0000000000000000e+00 0.0000000000000000e+00  0.0000000000000000e+00 0.0000000000000000e+00 0.0000000000000000e+00  0.0000000000000000e+00 0.0000000000000000e+00 0.0000000000000000e+00  0.0000000000000000e+00 0.0000000000000000e+00 0.0000000000000000e+00  0.0000000000000000e+00 0.0000000000000000e+00 0.0000000000000000e+00  0.0000000000000000e+00 0.0000000000000000e+00 0.0000000000000000e+00  0.0000000000000000e+00 0.0000000000000000e+00 0.0000000000000000e+00  0.0000000000000000e+00 0.0000000000000000e+00 0.0000000000000000e+00  0.0000000000000000e+00 0.0000000000000000e+00 0.0000000000000000e+00  -4.6780139969574160e-06 -9.1064349845719751e-08 0.0000000000000000e+00  -9.4872951613079917e-06 -1.8277417871446954e-07 0.0000000000000000e+00  -1.4558381300622760e-05 -2.7544818347351399e-07 0.0000000000000000e+00  -2.0018966515658598e-05 -3.6869464471733432e-07 0.0000000000000000e+00  -2.5990911763185250e-05 -4.6095323765610219e-07 0.0000000000000000e+00  -3.2585327745849253e-05 -5.4891948241351322e-07 0.0000000000000000e+00  -3.9895152382836313e-05 -6.2682859912106468e-07 0.0000000000000000e+00  -4.7984967568208273e-05 -6.8559540002692388e-07 0.0000000000000000e+00  -5.6878781163126060e-05 -7.1182162228290793e-07 0.0000000000000000e+00  -6.6549240743619961e-05 -6.8661767205334578e-07 0.0000000000000000e+00  -7.6919506693801025e-05 -5.8373624954465363e-07 0.0000000000000000e+00  -8.7912393622551906e-05 -3.6449696765616013e-07 0.0000000000000000e+00  -9.9657745655092804e-05 4.1243547025394676e-08 0.0000000000000000e+00  -1.1324053704318359e-04 8.1228685605685423e-07 0.0000000000000000e+00  -1.3343763566080817e-04 2.5593881771520998e-06 0.0000000000000000e+00  -1.7985572539791999e-04 7.7992047154973795e-06 0.0000000000000000e+00  0.0000000000000000e+00 0.0000000000000000e+00 0.0000000000000000e+00  -9.2267571285463098e-06 -1.8152103968893473e-07 0.0000000000000000e+00  -1.8717531431439199e-05 -3.6467110359436437e-07 0.0000000000000000e+00  -2.8735519068976537e-05 -5.5046659774127286e-07 0.0000000000000000e+00  -3.9539612179912213e-05 -7.3858362137055256e-07 0.0000000000000000e+00  -5.1379136958879219e-05 -9.2647423679532738e-07 0.0000000000000000e+00  -6.4484671837502529e-05 -1.1082334168930740e-06 0.0000000000000000e+00  -7.9053536837387102e-05 -1.2731598426679333e-06 0.0000000000000000e+00  -9.5228768372195978e-05 -1.4040049100198901e-06 0.0000000000000000e+00  -1.1307123711579234e-04 -1.4750056827275565e-06 0.0000000000000000e+00  -1.3252675838103302e-04 -1.4499724600119005e-06 0.0000000000000000e+00  -1.5339491866360220e-04 -1.2809906629089213e-06 0.0000000000000000e+00  -1.7531567639596406e-04 -9.0893859363260149e-07 0.0000000000000000e+00  -1.9780154189035848e-04 -2.6970575558757697e-07 0.0000000000000000e+00  -2.2032094622371329e-04 6.7481759397379773e-07 0.0000000000000000e+00  -2.4212938560196344e-04 1.7741006640118891e-06 0.0000000000000000e+00  -2.5940292785765501e-04 1.7851373715366682e-06 0.0000000000000000e+00  0.0000000000000000e+00 0.0000000000000000e+00 0.0000000000000000e+00  -1.3513018959865737e-05 -2.7037590369722149e-07 0.0000000000000000e+00  -2.7424727013154763e-05 -5.4399540911884981e-07 0.0000000000000000e+00  -4.2134103287099082e-05 -8.2328820524934110e-07 0.0000000000000000e+00  -5.8037002078173876e-05 -1.1088829810112796e-06 0.0000000000000000e+00  -7.5520062717525423e-05 -1.3983737338193588e-06 0.0000000000000000e+00  -9.4948736311103194e-05 -1.6846803853718409e-06 0.0000000000000000e+00  -1.1664692643878254e-04 -1.9538808771834165e-06 0.0000000000000000e+00  -1.4086546666915224e-04 -2.1824523181888666e-06 0.0000000000000000e+00  -1.6773657526113949e-04 -2.3340217886898777e-06 0.0000000000000000e+00  -1.9721160031295926e-04 -2.3561032761189948e-06 0.0000000000000000e+00  -2.2897925524297788e-04 -2.1781075705178405e-06 0.0000000000000000e+00  -2.6235810889084119e-04 -1.7136316656333280e-06 0.0000000000000000e+00  -2.9613877223133795e-04 -8.7367226319023869e-07 0.0000000000000000e+00  -3.2828130406022045e-04 3.9570992755767409e-07 0.0000000000000000e+00  -3.5515973767442888e-04 2.0342129028459097e-06 0.0000000000000000e+00  -3.6960881032345179e-04 3.8193543108772422e-06 0.0000000000000000e+00  0.0000000000000000e+00 0.0000000000000000e+00 0.0000000000000000e+00  -1.7401719025806965e-05 -3.5600356487646535e-07 0.0000000000000000e+00  -3.5337867012587989e-05 -7.1770374147710681e-07 0.0000000000000000e+00  -5.4345980534073385e-05 -1.0899117194649709e-06 0.0000000000000000e+00  -7.4965449309392953e-05 -1.4754429634496252e-06 0.0000000000000000e+00  -9.7732832321890885e-05 -1.8736680973128255e-06 0.0000000000000000e+00  -1.2316964597057018e-04 -2.2784835587786415e-06 0.0000000000000000e+00  -1.5175895578243515e-04 -2.6754644102670868e-06 0.0000000000000000e+00  -1.8390614916552727e-04 -3.0379723403552778e-06 0.0000000000000000e+00  -2.1987810916042656e-04 -3.3221047287251692e-06 0.0000000000000000e+00  -2.5971351790787258e-04 -3.4607297259031242e-06 0.0000000000000000e+00  -3.0309455363174506e-04 -3.3577381394348892e-06 0.0000000000000000e+00  -3.4916478219685807e-04 -2.8855464465235797e-06 0.0000000000000000e+00  -3.9626482740576143e-04 -1.8924842356719868e-06 0.0000000000000000e+00  -4.4152991603742763e-04 -2.3226960448591604e-07 0.0000000000000000e+00  -4.8026298207233585e-04 2.1670706098064152e-06 0.0000000000000000e+00  -5.0509334062376712e-04 5.1781336512158170e-06 0.0000000000000000e+00  0.0000000000000000e+00 0.0000000000000000e+00 0.0000000000000000e+00  -2.0756837275796749e-05 -4.3594220189678111e-07 0.0000000000000000e+00  -4.2182224763766047e-05 -8.8094836457090445e-07 0.0000000000000000e+00  -6.4952709942959222e-05 -1.3432973673273431e-06 0.0000000000000000e+00  -8.9756361118386278e-05 -1.8294403284071319e-06 0.0000000000000000e+00  -1.1729246071294204e-04 -2.3425475050460336e-06 0.0000000000000000e+00  -1.4826275654860490e-04 -2.8803190098947023e-06 0.0000000000000000e+00  -1.8334961729908264e-04 -3.4316698294087008e-06 0.0000000000000000e+00  -2.2317475170021320e-04 -3.9717890209522601e-06 0.0000000000000000e+00  -2.6822995622581303e-04 -4.4549890134843347e-06 0.0000000000000000e+00  -3.1876866038466929e-04 -4.8048254786860836e-06 0.0000000000000000e+00  -3.7464393583062125e-04 -4.9014650649686151e-06 0.0000000000000000e+00  -4.3507552405063204e-04 -4.5677851974056738e-06 0.0000000000000000e+00  -4.9832709258907542e-04 -3.5592104391752660e-06 0.0000000000000000e+00  -5.6128277689146552e-04 -1.5691849504960898e-06 0.0000000000000000e+00  -6.1895540762801785e-04 1.7264139848614948e-06 0.0000000000000000e+00  -6.6410871948609077e-04 6.5462350982818868e-06 0.0000000000000000e+00  0.0000000000000000e+00 0.0000000000000000e+00 0.0000000000000000e+00  -2.3444166407066638e-05 -5.0682002495713216e-07 0.0000000000000000e+00  -4.7684475231899900e-05 -1.0268872596547458e-06 0.0000000000000000e+00  -7.3532150794951260e-05 -1.5729641374049282e-06 0.0000000000000000e+00  -1.0182467977202278e-04 -2.1565895271101444e-06 0.0000000000000000e+00  -1.3343336238227766e-04 -2.7869143766400499e-06 0.0000000000000000e+00  -1.6926269544025670e-04 -3.4687329111023055e-06 0.0000000000000000e+00  -2.1023638921151156e-04 -4.1991810881422257e-06 0.0000000000000000e+00  -2.5726238460434703e-04 -4.9622937670497554e-06 0.0000000000000000e+00  -3.1116591212770292e-04 -5.7202047686380303e-06 0.0000000000000000e+00  -3.7257550251375374e-04 -6.3992588618217385e-06 0.0000000000000000e+00  -4.4174255947680832e-04 -6.8688521085393473e-06 0.0000000000000000e+00  -5.1827262770412095e-04 -6.9109974240436200e-06 0.0000000000000000e+00  -6.0075077448447074e-04 -6.1808677755143202e-06 0.0000000000000000e+00  -6.8626514875036449e-04 -4.1658266464392352e-06 0.0000000000000000e+00  -7.6989058730408120e-04 -1.6703347714898811e-07 0.0000000000000000e+00  -8.4430890387259753e-04 6.6444740285237178e-06 0.0000000000000000e+00  0.0000000000000000e+00 0.0000000000000000e+00 0.0000000000000000e+00  -2.5336260645655384e-05 -5.6445568641018855e-07 0.0000000000000000e+00  -5.1582458835182998e-05 -1.1468560893456134e-06 0.0000000000000000e+00  -7.9672661658039778e-05 -1.7651601334615618e-06 0.0000000000000000e+00  -1.1058663025940693e-04 -2.4371572785567763e-06 0.0000000000000000e+00  -1.4536879799478917e-04 -3.1799380945507168e-06 0.0000000000000000e+00  -1.8514097788393697e-04 -4.0086633385552996e-06 0.0000000000000000e+00  -2.3110379534005572e-04 -4.9340609880075050e-06 0.0000000000000000e+00  -2.8451871827363083e-04 -5.9576490493768059e-06 0.0000000000000000e+00  -3.4665794210610965e-04 -7.0629231566399913e-06 0.0000000000000000e+00  -4.1870308699161924e-04 -8.1994729487077771e-06 0.0000000000000000e+00  -5.0156615194039890e-04 -9.2550206574974957e-06 0.0000000000000000e+00  -5.9559972220732274e-04 -1.0007832620071548e-05 0.0000000000000000e+00  -7.0016416395134564e-04 -1.0050136000633022e-05 0.0000000000000000e+00  -8.1303978670919474e-04 -8.6765020758201463e-06 0.0000000000000000e+00  -9.2972865184738878e-04 -4.7500333757944982e-06 0.0000000000000000e+00  -1.0427873425036776e-03 3.3900708281707487e-06 0.0000000000000000e+00  0.0000000000000000e+00 0.0000000000000000e+00 0.0000000000000000e+00  -2.6319700487595324e-05 -6.0416079259661109e-07 0.0000000000000000e+00  -5.3639951959959624e-05 -1.2309740422684936e-06 0.0000000000000000e+00  -8.2995763879224442e-05 -1.9037584821630484e-06 0.0000000000000000e+00  -1.1549057817228974e-04 -2.6470821881945789e-06 0.0000000000000000e+00  -1.5232970823739200e-04 -3.4871957898316370e-06 0.0000000000000000e+00  -1.9485134753777136e-04 -4.4520973449939692e-06 0.0000000000000000e+00  -2.4455142479282811e-04 -5.5708016851418985e-06 0.0000000000000000e+00  -3.0309506647661108e-04 -6.8709277222760990e-06 0.0000000000000000e+00  -3.7230163760562358e-04 -8.3727785557728895e-06 0.0000000000000000e+00  -4.5408130916816346e-04 -1.0076205710904347e-05 0.0000000000000000e+00  -5.5028814791768430e-04 -1.1932905656714557e-05 0.0000000000000000e+00  -6.6243872108109826e-04 -1.3790234430934502e-05 0.0000000000000000e+00  -7.9123173005637222e-04 -1.5282392783885238e-05 0.0000000000000000e+00  -9.3580907746469493e-04 -1.5633819160729124e-05 0.0000000000000000e+00  -1.0927522847912438e-03 -1.3343095899684834e-05 0.0000000000000000e+00  -1.2549355149789293e-03 -5.7739006488609113e-06 0.0000000000000000e+00  0.0000000000000000e+00 0.0000000000000000e+00 0.0000000000000000e+00  -2.6304424868911704e-05 -6.2124315244912463e-07 0.0000000000000000e+00  -5.3666045710146691e-05 -1.2691960066568708e-06 0.0000000000000000e+00  -8.3186951160881692e-05 -1.9719438426609819e-06 0.0000000000000000e+00  -1.1606119056214388e-04 -2.7603997915072987e-06 0.0000000000000000e+00  -1.5362436457444647e-04 -3.6699004089321991e-06 0.0000000000000000e+00  -1.9740660812241328e-04 -4.7419800401450664e-06 0.0000000000000000e+00  -2.4918793763720903e-04 -6.0262667263825438e-06 0.0000000000000000e+00  -3.1105174602336023e-04 -7.5821834326176988e-06 0.0000000000000000e+00  -3.8542610795567664e-04 -9.4794542483153356e-06 0.0000000000000000e+00  -4.7509137195354915e-04 -1.1794673366555932e-05 0.0000000000000000e+00  -5.8311324069919789e-04 -1.4596921740325492e-05 0.0000000000000000e+00  -7.1263006083715304e-04 -1.7905435912094926e-05 0.0000000000000000e+00  -8.6638189024981164e-04 -2.1580759413426515e-05 0.0000000000000000e+00  -1.0458328497204238e-03 -2.5070411615789815e-05 0.0000000000000000e+00  -1.2497645531542325e-03 -2.6876592472324011e-05 0.0000000000000000e+00  -1.4724332756282518e-03 -2.3616661377412169e-05 0.0000000000000000e+00  0.0000000000000000e+00 0.0000000000000000e+00 0.0000000000000000e+00  -2.5234419540958692e-05 -6.1166493333936699e-07 0.0000000000000000e+00  -5.1537755662279046e-05 -1.2527255742751308e-06 0.0000000000000000e+00  -8.0032734032447328e-05 -1.9545850911583318e-06 0.0000000000000000e+00  -1.1195476942198129e-04 -2.7529076910531835e-06 0.0000000000000000e+00  -1.4871714649549150e-04 -3.6903355249978151e-06 0.0000000000000000e+00  -1.9198693243376434e-04 -4.8200170444347752e-06 0.0000000000000000e+00  -2.4377481014757681e-04 -6.2104133684461840e-06 0.0000000000000000e+00  -3.0654038513451022e-04 -7.9520321529314432e-06 0.0000000000000000e+00  -3.8331001242358770e-04 -1.0166894529314613e-05 0.0000000000000000e+00  -4.7779355295820343e-04 -1.3021293358191639e-05 0.0000000000000000e+00  -5.9446363962882662e-04 -1.6740381040806105e-05 0.0000000000000000e+00  -7.3851580436837521e-04 -2.1614989311746236e-05 0.0000000000000000e+00  -9.1554648084492989e-04 -2.7964501642551952e-05 0.0000000000000000e+00  -1.1306631240792545e-03 -3.5944387938334065e-05 0.0000000000000000e+00  -1.3866331429577125e-03 -4.4910756285183650e-05 0.0000000000000000e+00  -1.6808396914973561e-03 -5.1787332303980100e-05 0.0000000000000000e+00  0.0000000000000000e+00 0.0000000000000000e+00 0.0000000000000000e+00  -2.3098544785698817e-05 -5.7275944477898274e-07 0.0000000000000000e+00  -4.7223377362073262e-05 -1.1755849485389987e-06 0.0000000000000000e+00  -7.3460105060372150e-05 -1.8409627653139936e-06 0.0000000000000000e+00  -1.0302065477649522e-04 -2.6065951592333428e-06 0.0000000000000000e+00  -1.3732041772258137e-04 -3.5188999479739479e-06 0.0000000000000000e+00  -1.7807380273735483e-04 -4.6378158512786898e-06 0.0000000000000000e+00  -2.2741671660515952e-04 -6.0438421776534313e-06 0.0000000000000000e+00  -2.8806592376140114e-04 -7.8489262075560655e-06 0.0000000000000000e+00  -3.6352531777635207e-04 -1.0214130980165803e-05 0.0000000000000000e+00  -4.5834451405995971e-04 -1.3379468559896691e-05 0.0000000000000000e+00  -5.7841786627565420e-04 -1.7715346563844319e-05 0.0000000000000000e+00  -7.3126417496952511e-04 -2.3809553381092935e-05 0.0000000000000000e+00  -9.2611215741210547e-04 -3.2598169408500474e-05 0.0000000000000000e+00  -1.1733700486983183e-03 -4.5484828273568330e-05 0.0000000000000000e+00  -1.4826348032719282e-03 -6.4094953240814381e-05 0.0000000000000000e+00  -1.8582157428893970e-03 -8.8405705927806206e-05 0.0000000000000000e+00  0.0000000000000000e+00 0.0000000000000000e+00 0.0000000000000000e+00  -1.9939830309951901e-05 -5.0387117956815520e-07 0.0000000000000000e+00  -4.0803051360953456e-05 -1.0360391389115442e-06 0.0000000000000000e+00  -6.3572663231470659e-05 -1.6273095081208422e-06 0.0000000000000000e+00  -8.9360254975550857e-05 -2.3139287124869520e-06 0.0000000000000000e+00  -1.1948803793637452e-04 -3.1412868267603253e-06 0.0000000000000000e+00  -1.5559537824885153e-04 -4.1690633041367394e-06 0.0000000000000000e+00  -1.9978358894067285e-04 -5.4788651705100636e-06 0.0000000000000000e+00  -2.5481837006978365e-04 -7.1862784583274720e-06 0.0000000000000000e+00  -3.2441689545757832e-04 -9.4611952398552529e-06 0.0000000000000000e+00  -4.1365498311432948e-04 -1.2564808619165522e-05 0.0000000000000000e+00  -5.2953365776958685e-04 -1.6922464553884450e-05 0.0000000000000000e+00  -6.8172574121435985e-04 -2.3276852255296899e-05 0.0000000000000000e+00  -8.8342856242995386e-04 -3.3020471434978978e-05 0.0000000000000000e+00  -1.1519287772070643e-03 -4.8893886225493999e-05 0.0000000000000000e+00  -1.5075446288377978e-03 -7.6173703677132938e-05 0.0000000000000000e+00  -1.9674780895477602e-03 -1.2237025507462896e-04 0.0000000000000000e+00  0.0000000000000000e+00 0.0000000000000000e+00 0.0000000000000000e+00  -1.5861295811908222e-05 -4.0677627036528213e-07 0.0000000000000000e+00  -3.2482300502066635e-05 -8.3754445139619185e-07 0.0000000000000000e+00  -5.0676126489910560e-05 -1.3185380234432868e-06 0.0000000000000000e+00  -7.1372238928905327e-05 -1.8808509517622967e-06 0.0000000000000000e+00  -9.5693303543553608e-05 -2.5637027107126711e-06 0.0000000000000000e+00  -1.2505872571425694e-04 -3.4188671502253811e-06 0.0000000000000000e+00  -1.6133181709488773e-04 -4.5169687335503835e-06 0.0000000000000000e+00  -2.0703697254561144e-04 -5.9567865279083118e-06 0.0000000000000000e+00  -2.6568891809694849e-04 -7.8797235370766373e-06 0.0000000000000000e+00  -3.4230154221192753e-04 -1.0494440519911879e-05 0.0000000000000000e+00  -4.4418340942777609e-04 -1.4125647204544099e-05 0.0000000000000000e+00  -5.8218217273977224e-04 -1.9331187510242815e-05 0.0000000000000000e+00  -7.7259052863870657e-04 -2.7234277244272818e-05 0.0000000000000000e+00  -1.0398467409722782e-03 -4.0570432541950092e-05 0.0000000000000000e+00  -1.4193221291822955e-03 -6.7220266457131530e-05 0.0000000000000000e+00  -1.9540607585198009e-03 -1.3369633865317144e-04 0.0000000000000000e+00  0.0000000000000000e+00 0.0000000000000000e+00 0.0000000000000000e+00  -1.1026430484535276e-05 -2.8577690580390113e-07 0.0000000000000000e+00  -2.2594321004788009e-05 -5.8897139118561147e-07 0.0000000000000000e+00  -3.5285583537646330e-05 -9.2866743739730815e-07 0.0000000000000000e+00  -4.9770903118718684e-05 -1.3275472829885408e-06 0.0000000000000000e+00  -6.6869909559868625e-05 -1.8142322849474992e-06 0.0000000000000000e+00  -8.7634484518474897e-05 -2.4262818863962730e-06 0.0000000000000000e+00  -1.1347113604827940e-04 -3.2139834013928817e-06 0.0000000000000000e+00  -1.4632887176913600e-04 -4.2446922736741955e-06 0.0000000000000000e+00  -1.8899811602720830e-04 -5.6063012505847781e-06 0.0000000000000000e+00  -2.4560151497286347e-04 -7.4051488019523902e-06 0.0000000000000000e+00  -3.2242418961725454e-04 -9.7455297311871728e-06 0.0000000000000000e+00  -4.2936236445219799e-04 -1.2660359684623475e-05 0.0000000000000000e+00  -5.8254987979976735e-04 -1.5935316520327596e-05 0.0000000000000000e+00  -8.0940702665862371e-04 -1.8775333566403397e-05 0.0000000000000000e+00  -1.1592330836727727e-03 -1.9528225995727608e-05 0.0000000000000000e+00  -1.7276832519061446e-03 -1.6870007208329971e-05 0.0000000000000000e+00  0.0000000000000000e+00 0.0000000000000000e+00 0.0000000000000000e+00  -5.6530132965372720e-06 -1.4743616085183382e-07 0.0000000000000000e+00  -1.1587888493963254e-05 -3.0402727352108796e-07 0.0000000000000000e+00  -1.8108336988255382e-05 -4.7981110035832657e-07 0.0000000000000000e+00  -2.5566236563959430e-05 -6.8672231870686307e-07 0.0000000000000000e+00  -3.4394825665516714e-05 -9.3978450970947248e-07 0.0000000000000000e+00  -4.5155466615364373e-05 -1.2585346953233824e-06 0.0000000000000000e+00  -5.8607795663807101e-05 -1.6685176183725996e-06 0.0000000000000000e+00  -7.5820117777749036e-05 -2.2020167133845904e-06 0.0000000000000000e+00  -9.8350111667595992e-05 -2.8950760247214233e-06 0.0000000000000000e+00  -1.2855051394552745e-04 -3.7712973536483341e-06 0.0000000000000000e+00  -1.7009792801068319e-04 -4.7823268369128680e-06 0.0000000000000000e+00  -2.2890440838518032e-04 -5.6097518430347868e-06 0.0000000000000000e+00  -3.1457090365730260e-04 -5.0263663650733401e-06 0.0000000000000000e+00  -4.4195943882241662e-04 1.1133342985239715e-06 0.0000000000000000e+00  -6.2885614268264696e-04 2.5760320513948163e-05 0.0000000000000000e+00  -8.7124315200319546e-04 1.0383865012209443e-04 0.0000000000000000e+00  0.0000000000000000e+00 0.0000000000000000e+00 0.0000000000000000e+00  0.0000000000000000e+00 0.0000000000000000e+00 0.0000000000000000e+00  0.0000000000000000e+00 0.0000000000000000e+00 0.0000000000000000e+00  0.0000000000000000e+00 0.0000000000000000e+00 0.0000000000000000e+00  0.0000000000000000e+00 0.0000000000000000e+00 0.0000000000000000e+00  0.0000000000000000e+00 0.0000000000000000