<?xml version="1.0"?>
<VTKFile type="UnstructuredGrid"  version="0.1"  >
<UnstructuredGrid>
<Piece  NumberOfPoints="289" NumberOfCells="512">
<Points>
<DataArray  type="Float64"  NumberOfComponents="3"  format="ascii">0 0 0  0.0625 0 0  0.125 0 0  0.1875 0 0  0.25 0 0  0.3125 0 0  0.375 0 0  0.4375 0 0  0.5 0 0  0.5625 0 0  0.625 0 0  0.6875 0 0  0.75 0 0  0.8125 0 0  0.875 0 0  0.9375 0 0  1 0 0  0 0.0625 0  0.06257969294698941 0.06249205119593163 0  0.1251617348454014 0.06248392806981679 0  0.1877484877195263 0.06247546497863742 0  0.2503422970640682 0.06246651740403191 0  0.3129454582861129 0.06245697691864232 0  0.3755601502689172 0.06244679134653184 0  0.4381883240609798 0.06243599130861155 0  0.5008315377107899 0.06242472321858634 0  0.5634907409557992 0.06241328636449063 0  0.6261660530927819 0.06240216694120235 0  0.6888566934276026 0.06239205289539603 0  0.7515615675991512 0.06238379540868349 0  0.8142820716600109 0.062378237732826 0  0.8770320700106593 0.06237567812639194 0  0.9398712128507992 0.06237411329176466 0  1.003014824390249 0.0623634327126907 0  0 0.125 0  0.06265710511402701 0.1249842738573634 0  0.1253189284647938 0.124968188800805 0  0.1879902258700799 0.1249514015274084 0  0.2506757474695232 0.1249336073266481 0  0.3133801869660771 0.1249145683563103 0  0.3761080673968786 0.1248941528115734 0  0.4388635376685848 0.124872388118488 0  0.5016500548125394 0.1248495297123112 0  0.5644699371403687 0.1248261432245364 0  0.6273238061717132 0.124803190445708 0  0.6902100137178037 0.1247820968983394 0  0.7531243013551669 0.1247647642790105 0  0.816060104412382 0.1247535021493101 0  0.8790094415908748 0.1247510349013715 0  0.941959631620125 0.1247617516611752 0  1.004856558530448 0.1247998352108613 0  0 0.1875 0  0.06272985994919382 0.1874768535349978 0  0.1254668187508941 0.1874531454171233 0  0.1882180561526134 0.1874283330662435 0  0.2509908034669411 0.1874019225795404 0  0.3137923034784244 0.1873735066728958 0  0.3766296805122038 0.1873428197582474 0  0.43950967878659 0.1873098163874004 0  0.5024382189531106 0.1872747784199841 0  0.5654197155804763 0.1872384528746889 0  0.628456092588922 0.187202213701455 0  0.6915454184716546 0.1871682213078238 0  0.7546800019943323 0.1871395119147995 0  0.8178434376607451 0.1871198514317218 0  0.8810048944009049 0.1871129086936002 0  0.9441058680861895 0.1871192776145508 0  1.007030765192216 0.1871255731902753 0  0 0.25 0  0.06279557574811361 0.2499699937240087 0  0.1256006111613915 0.2499392007061844 0  0.1884247144158926 0.2499068515807344 0  0.2512776642799426 0.249872224565194 0  0.3141694196849255 0.2498346869568479 0  0.3771100223012864 0.2497937599040456 0  0.4401093353445933 0.249749216886731 0  0.5031765419110829 0.249701227727612 0  0.5663192978125362 0.2496505597813333 0  0.6295423900674934 0.2495988433549287 0  0.6928456727775028 0.2495488934213267 0  0.7562208862327002 0.2495050420864934 0  0.8196466112253589 0.249473352593537 0  0.883079970058214 0.249461422603174 0  0.9464431092826212 0.2494772823790464 0  1.009604313266643 0.2495273972093434 0  0 0.3125 0  0.06285189503993259 0.3124639199499806 0  0.1257155303355345 0.312426806975657 0  0.1886028890354102 0.3123876372435803 0  0.2515263146364701 0.3123454188219933 0  0.3144986179129999 0.3122992278674185 0  0.3775330756282169 0.3122482726506721 0  0.4406432560208582 0.3121920003630418 0  0.5038425761304914 0.3121302666835273 0  0.5671434509434227 0.3120635940822766 0  0.6305558255904368 0.3119935503771171 0  0.6940847750541485 0.3119232804141874 0  0.7577266931096867 0.3118582126781719 0  0.8214633797493528 0.3118069245066816 0  0.8852532226066724 0.3117820685585133 0  0.9490192753079857 0.3118011542592518 0  1.012636970998734 0.3118869346667881 0  0 0.375 0  0.06289654303361716 0.3749588784150393 0  0.1258069331108103 0.374916464857432 0  0.1887453794345694 0.3748714607791798 0  0.2517267109729047 0.3748225671048416 0  0.3147666315718214 0.3747685038099778 0  0.3778818877407516 0.3747080582304568 0  0.4410902877070543 0.3746401802796476 0  0.5044104754241178 0.3745641518790356 0  0.5678613096666819 0.3744798715405125 0  0.6314606179483548 0.3743883144213423 0  0.6952229787502496 0.3742922536655062 0  0.7591560329978718 0.3741973574141177 0  0.8232546767138387 0.3741137954988351 0  0.8874924996063166 0.3740584691574199 0  0.9518104008497246 0.3740578478141398 0  1.016103974912945 0.3741510115972697 0  0 0.4375 0  0.06292741971026536 0.4374551277169033 0  0.1258704936682985 0.4374087075896329 0  0.1888453751581375 0.4373591624619374 0  0.2518691520377802 0.4373048656837281 0  0.3149602953787689 0.4372441316457669 0  0.3781390672112109 0.4371752301349323 0  0.4414278450404252 0.4370964426749828 0  0.5048512885105941 0.4370061910860771 0  0.5684362229827434 0.4369032885604406 0  0.632211037941845 0.4367873962722629 0  0.6962042864762085 0.4366598203342927 0  0.7604420224856935 0.4365248611965157 0  0.8249432445902128 0.4363920291702145 0  0.8897127068294528 0.4362795361966422 0  0.954730465793463 0.4362194717643974 0  1.019937989964723 0.4362648100664455 0  0 0.5 0  0.06294272503174153 0.499952922821035 0  0.125902461107465 0.4999040686527766 0  0.188896859802391 0.4998516032040601 0  0.2519448483954758 0.4997935808066114 0  0.3150673012780362 0.4997278947125632 0  0.3782877413070447 0.4996522392317846 0  0.4416330643900729 0.4995640969241275 0  0.5051342605466387 0.4994607761270417 0  0.5688270724071386 0.4993395459937215 0  0.6327524823694495 0.4991979556869469 0  0.6969568457814045 0.4990344947523666 0  0.7614913801223561 0.4988498736834298 0  0.8264105633881291 0.4986494009982324 0  0.8917687638662287 0.4984472028008205 0  0.9576141081472977 0.4982732457496332 0  1.023978350953663 0.4981838393100145 0  0 0.5625 0  0.06294111013152674 0.5624524916096416 0  0.1258999758367387 0.5624030329860458 0  0.1888951213601018 0.5623495868268624 0  0.2519466712266597 0.562289937176783 0  0.3150772467585443 0.5622215926873728 0  0.3783129808615625 0.5621416831638631 0  0.4416846939779054 0.5620468521969437 0  0.5052292763245004 0.5619331565164958 0  0.5689913253451441 0.5617959988604139 0  0.6330250974183325 0.5616301541654606 0  0.6973968595852753 0.5614300162389945 0  0.7621877830044221 0.5611903286864829 0  0.8274975942477425 0.560907932346779 0  0.8934491856970894 0.5605855367139044 0  0.9601940030809064 0.5602391241729581 0  1.027917187601611 0.5599104330369198 0  0 0.625 0  0.06292184005958822 0.6249540058882223 0  0.125861415411247 0.6249059753840803 0  0.1888373237948804 0.6248537583456264 0  0.2518700188135082 0.6247949642496965 0  0.3149828984018758 0.6247268191560043 0  0.3782036045292529 0.6246459936237574 0  0.4415656337143117 0.6245483898511993 0  0.5051103896088931 0.6244288758356685 0  0.5688898627151704 0.6242809565783678 0  0.6329702224776387 0.6240963822977913 0  0.6974368085196565 0.623864724417401 0  0.762401420286223 0.6235730373842994 0  0.8280135916030907 0.6232059624865059 0  0.8944787579932623 0.6227472331808862 0  0.9620872492832332 0.6221847453738473 0  1.031257111987584 0.621521853286371 0  0 0.6875 0  0.06288494695661978 0.6874575504433038 0  0.1257867255755199 0.6874130935368536 0  0.1887230684028332 0.6873644900838266 0  0.2517136959172694 0.6873093170061463 0  0.3147815245096482 0.687244688366179 0  0.3779541659189168 0.687167026056278 0  0.441265870787877 0.6870717531351351 0  0.5047601309626268 0.686952872049008 0  0.5684932602169364 0.6868023736234361 0  0.6325394676366809 0.6866093979910123 0  0.6969983410075048 0.6863590325939359 0  0.7620065714502129 0.6860305905442033 0  0.8277578799611074 0.6855952262185921 0  0.894539744456964 0.6850131350826524 0  0.9628033912421364 0.6842325679635343 0  1.033288032802442 0.6831979463554654 0  0 0.75 0  0.06283134806960232 0.7499630951842532 0  0.1256776818095247 0.7499243465613775 0  0.1885548537443475 0.7498817739431537 0  0.251480666279877 0.7498330997379858 0  0.31447609062382 0.7497755539641523 0  0.3775668256092992 0.7497056143971328 0  0.4407853862685338 0.7496186432270786 0  0.504173997440362 0.7495083622256506 0  0.5677887087431621 0.7493660762058824 0  0.6317053974476359 0.7491794991916323 0  0.6960288351536004 0.7489309365841581 0  0.760907230134739 0.7485943786826444 0  0.8265581211060542 0.7481306648633204 0  0.8933217759005039 0.7474792177874235 0  0.961786539847032 0.7465451124541566 0  1.033076405907907 0.7451956699852447 0  0 0.8125 0  0.06276290247415101 0.8124704760674482 0  0.1255380243675214 0.8124394116171073 0  0.1883383362064137 0.8124051419663817 0  0.2511785224889089 0.8123657292553484 0  0.3140760780760628 0.8123187783408486 0  0.3770527441790906 0.8122611848678107 0  0.4401364835497675 0.812188772882139 0  0.503364290853424 0.8120957561376281 0  0.5667862870820255 0.8119739187031855 0  0.6304717912089326 0.8118113456233592 0  0.6945184831099781 0.8115904198065765 0  0.7590666787349635 0.811284576477015 0  0.8243235607250623 0.8108527903129623 0  0.8906140256095577 0.8102293982725939 0  0.9585308330933721 0.8093029857363796 0  1.029522920146396 0.807867198784596 0  0 0.875 0  0.06268238500301392 0.874979389984651 0  0.1253734185885912 0.8749576703085784 0  0.1880823050588762 0.8749336364536048 0  0.2508195298343442 0.8749058739344013 0  0.3135976941047632 0.8748726140253693 0  0.3764326292143023 0.8748315326735957 0  0.439344963345356 0.8747794555180421 0  0.5023624031780188 0.874711910708372 0  0.5655231337960709 0.8746224364280217 0  0.6288809412682913 0.8745014947919412 0  0.6925128929620542 0.8743347591486528 0  0.7565304891987267 0.8741004107147459 0  0.8210946089046517 0.8737648205782467 0  0.886433409890872 0.873275142669072 0  0.9528788669351241 0.8725440829637825 0  1.021226877611914 0.8714145442188405 0  0 0.9375 0  0.06259336599671966 0.9374894069537267 0  0.1251912131463247 0.9374782326647073 0  0.1877983186408123 0.9374658444347487 0  0.2504201464723576 0.9374514952444105 0  0.3130633008618482 0.9374342442010837 0  0.3757361404613861 0.9374128442703715 0  0.4384496571171947 0.9373855752263
[...]
<PointData  Vectors="f_54"> 
<DataArray  type="Float64"  Name="f_54"  NumberOfComponents="3" format="ascii">0.0000000000000000e+00 0.0000000000000000e+00 0.0000000000000000e+00  0.0000000000000000e+00 0.0000000000000000e+00 0.0000000000000000e+00  0.0000000000000000e+00 0.0000000000000000e+00 0.0000000000000000e+00  0.0000000000000000e+00 0.0000000000000000e+00 0.0000000000000000e+00  0.0000000000000000e+00 0.0000000000000000e+00 0.0000000000000000e+00  0.0000000000000000e+00 0.0000000000000000e+00 0.0000000000000000e+00  0.0000000000000000e+00 0.0000000000000000e+00 0.0000000000000000e+00  0.0000000000000000e+00 0.0000000000000000e+00 0.0000000000000000e+00  0.0000000000000000e+00 0.0000000000000000e+00 0.0000000000000000e+00  0.0000000000000000e+00 0.0000000000000000e+00 0.0000000000000000e+00  0.0000000000000000e+00 0.0000000000000000e+00 0.0000000000000000e+00  0.0000000000000000e+00 0.0000000000000000e+00 0.0000000000000000e+00  0.0000000000000000e+00 0.0000000000000000e+00 0.0000000000000000e+00  0.0000000000000000e+00 0.0000000000000000e+00 0.0000000000000000e+00  0.0000000000000000e+00 0.0000000000000000e+00 0.0000000000000000e+00  0.0000000000000000e+00 0.0000000000000000e+00 0.0000000000000000e+00  0.0000000000000000e+00 0.0000000000000000e+00 0.0000000000000000e+00  0.0000000000000000e+00 0.0000000000000000e+00 0.0000000000000000e+00  1.7521753571693822e-06 -1.0018210469234649e-07 0.0000000000000000e+00  3.5815771275427845e-06 -2.0428199493705969e-07 0.0000000000000000e+00  5.5701756836970603e-06 -3.1639323523317337e-07 0.0000000000000000e+00  7.8088178616869225e-06 -4.4090678124153305e-07 0.0000000000000000e+00  1.0402583787314620e-05 -5.8265769112235200e-07 0.0000000000000000e+00  1.3477412814533555e-05 -7.4705863493537953e-07 0.0000000000000000e+00  1.7188926935614784e-05 -9.4019972065558302e-07 0.0000000000000000e+00  2.1735288535423745e-05 -1.1688798261930050e-06 0.0000000000000000e+00  2.7378217455562157e-05 -1.4405292517199216e-06 0.0000000000000000e+00  3.4482342299150050e-05 -1.7630446572453539e-06 0.0000000000000000e+00  4.3599932116488982e-05 -2.1449162521401527e-06 0.0000000000000000e+00  5.5677979166382194e-05 -2.5975909454525129e-06 0.0000000000000000e+00  7.2622259788213901e-05 -3.1484122831848912e-06 0.0000000000000000e+00  9.8986356361394174e-05 -3.8987987066597955e-06 0.0000000000000000e+00  1.4749796041254226e-04 -5.2747352077130798e-06 0.0000000000000000e+00  2.5896556426785878e-04 -9.1341403381341827e-06 0.0000000000000000e+00  0.0000000000000000e+00 0.0000000000000000e+00 0.0000000000000000e+00  3.4312921467837610e-06 -1.9668346649645841e-07 0.0000000000000000e+00  7.0135584809786782e-06 -4.0109478537997850e-07 0.0000000000000000e+00  1.0906984727799570e-05 -6.2131542835345864e-07 0.0000000000000000e+00  1.5289050758444670e-05 -8.6603606787815349e-07 0.0000000000000000e+00  2.0364868458822770e-05 -1.1448657416639065e-06 0.0000000000000000e+00  2.6379743345669726e-05 -1.4686260557452492e-06 0.0000000000000000e+00  3.3635320062505835e-05 -1.8495918664020660e-06 0.0000000000000000e+00  4.2511662133034538e-05 -2.3015970160771260e-06 0.0000000000000000e+00  5.3499854167840385e-05 -2.8398512599613799e-06 0.0000000000000000e+00  6.7254827152913495e-05 -3.4801946228274537e-06 0.0000000000000000e+00  8.4689592745869005e-05 -4.2372869974513367e-06 0.0000000000000000e+00  1.0715615570941313e-04 -5.1205466329160544e-06 0.0000000000000000e+00  1.3679886725146694e-04 -6.1234760842794421e-06 0.0000000000000000e+00  1.7717614939215075e-04 -7.1851374199551122e-06 0.0000000000000000e+00  2.3383498496843172e-04 -8.0129217990818598e-06 0.0000000000000000e+00  3.1133686420970689e-04 -7.1891767261584911e-06 0.0000000000000000e+00  0.0000000000000000e+00 0.0000000000000000e+00 0.0000000000000000e+00  4.9632619665130367e-06 -2.8567287629859822e-07 0.0000000000000000e+00  1.0143739861413641e-05 -5.8262380217512564e-07 0.0000000000000000e+00  1.5771703514341447e-05 -9.0265838648420658e-07 0.0000000000000000e+00  2.2102085933181868e-05 -1.2585151095087074e-06 0.0000000000000000e+00  2.9429068671982376e-05 -1.6643585443238316e-06 0.0000000000000000e+00  3.8103453713910224e-05 -2.1362809210374837e-06 0.0000000000000000e+00  4.8554089961850757e-05 -2.6927737151510157e-06 0.0000000000000000e+00  6.1314968990795930e-05 -3.3550681636502067e-06 0.0000000000000000e+00  7.7060087634719032e-05 -4.1471168182313064e-06 0.0000000000000000e+00  9.6648572212879253e-05 -5.0947351455837789e-06 0.0000000000000000e+00  1.2118147369247261e-04 -6.2229212136481368e-06 0.0000000000000000e+00  1.5206295767880302e-04 -7.5494137678916518e-06 0.0000000000000000e+00  1.9101967914678781e-04 -9.0710472693952682e-06 0.0000000000000000e+00  2.3989023897738688e-04 -1.0739754386682159e-05 0.0000000000000000e+00  2.9956381964184472e-04 -1.2448327836726702e-05 0.0000000000000000e+00  3.6649229468246219e-04 -1.4233349384536318e-05 0.0000000000000000e+00  0.0000000000000000e+00 0.0000000000000000e+00 0.0000000000000000e+00  6.2816765698578220e-06 -3.6358809249875757e-07 0.0000000000000000e+00  1.2835762741725924e-05 -7.4158913027052579e-07 0.0000000000000000e+00  1.9950672289171589e-05 -1.1491029722538218e-06 0.0000000000000000e+00  2.7945380000469643e-05 -1.6024822374680962e-06 0.0000000000000000e+00  3.7187388852051370e-05 -2.1200255569261297e-06 0.0000000000000000e+00  4.8113878174773390e-05 -2.7227349901832588e-06 0.0000000000000000e+00  6.1257089983058168e-05 -3.4351323001782193e-06 0.0000000000000000e+00  7.7274658182089308e-05 -4.2860765557943476e-06 0.0000000000000000e+00  9.6984398868290222e-05 -5.3094031309525831e-06 0.0000000000000000e+00  1.2139976669465253e-04 -6.5439298608461034e-06 0.0000000000000000e+00  1.5175360675765280e-04 -8.0317892742567100e-06 0.0000000000000000e+00  1.8947664711819516e-04 -9.8128642989271923e-06 0.0000000000000000e+00  2.3604778871048383e-04 -1.1910926274253597e-05 0.0000000000000000e+00  2.9253043537779430e-04 -1.4303423335166005e-05 0.0000000000000000e+00  3.5844776709567248e-04 -1.6859473628323907e-05 0.0000000000000000e+00  4.2961188300046847e-04 -1.9193098317270250e-05 0.0000000000000000e+00  0.0000000000000000e+00 0.0000000000000000e+00 0.0000000000000000e+00  7.3313629911457743e-06 -4.2729299532229034e-07 0.0000000000000000e+00  1.4976442522134698e-05 -8.7156769655025428e-07 0.0000000000000000e+00  2.3266819662664877e-05 -1.3506219471831170e-06 0.0000000000000000e+00  3.2568735909319943e-05 -1.8837915126910895e-06 0.0000000000000000e+00  4.3303521495326918e-05 -2.4928368473472170e-06 0.0000000000000000e+00  5.5971704640539145e-05 -3.2029744037461112e-06 0.0000000000000000e+00  7.1181956793355070e-05 -4.0441132137382014e-06 0.0000000000000000e+00  8.9685464102538904e-05 -5.0523555669830902e-06 0.0000000000000000e+00  1.1241462575648212e-04 -6.2717849890433862e-06 0.0000000000000000e+00  1.4052077678847048e-04 -7.7564295812153315e-06 0.0000000000000000e+00  1.7539625878233706e-04 -9.5718951016545503e-06 0.0000000000000000e+00  2.1864718387739387e-04 -1.1795150239228947e-05 0.0000000000000000e+00  2.7194949947157180e-04 -1.4508545699107555e-05 0.0000000000000000e+00  3.3667464117637997e-04 -1.7778753523913203e-05 0.0000000000000000e+00  4.1315023878221160e-04 -2.1599623348763277e-05 0.0000000000000000e+00  4.9956103186933674e-04 -2.5754848909967144e-05 0.0000000000000000e+00  0.0000000000000000e+00 0.0000000000000000e+00 0.0000000000000000e+00  8.0712076250100610e-06 -4.7422872840306340e-07 0.0000000000000000e+00  1.6481591971926946e-05 -9.6730949295749764e-07 0.0000000000000000e+00  2.5588812199068458e-05 -1.4989921208417913e-06 0.0000000000000000e+00  3.5787160881114394e-05 -2.0907739720478298e-06 0.0000000000000000e+00  4.7529379356571701e-05 -2.7669367181528350e-06 0.0000000000000000e+00  6.1352833780080031e-05 -3.5558063239203255e-06 0.0000000000000000e+00  7.7911773624987076e-05 -4.4913752395297272e-06 0.0000000000000000e+00  9.8017266544217938e-05 -5.6155026614225162e-06 0.0000000000000000e+00  1.2268553147155446e-04 -6.9810324572017260e-06 0.0000000000000000e+00  1.5319281657036094e-04 -8.6563461680362964e-06 0.0000000000000000e+00  1.9112907096832801e-04 -1.0732060622433000e-05 0.0000000000000000e+00  2.3843139740920967e-04 -1.3330583777666347e-05 0.0000000000000000e+00  2.9736112730825530e-04 -1.6618408819250889e-05 0.0000000000000000e+00  3.7037274064455491e-04 -2.0817695287373415e-05 0.0000000000000000e+00  4.5983747032249405e-04 -2.6204527675003043e-05 0.0000000000000000e+00  5.6768818198218052e-04 -3.3062185165698254e-05 0.0000000000000000e+00  0.0000000000000000e+00 0.0000000000000000e+00 0.0000000000000000e+00  8.4760792870158869e-06 -5.0254487406412981e-07 0.0000000000000000e+00  1.7300028436819448e-05 -1.0250172955959716e-06 0.0000000000000000e+00  2.6837471357178899e-05 -1.5882632011881965e-06 0.0000000000000000e+00  3.7490171197701084e-05 -2.2149729211048964e-06 0.0000000000000000e+00  4.9717844846915319e-05 -2.9307855023844861e-06 0.0000000000000000e+00  6.4064974382920217e-05 -3.7656564797909979e-06 0.0000000000000000e+00  8.1195197814378875e-05 -4.7556796882039775e-06 0.0000000000000000e+00  1.0193666879335409e-04 -5.9457004117461416e-06 0.0000000000000000e+00  1.2734269324625688e-04 -7.3933465126351072e-06 0.0000000000000000e+00  1.5877268372572114e-04 -9.1756670573556305e-06 0.0000000000000000e+00  1.9799839742223085e-04 -1.1400628488638480e-05 0.0000000000000000e+00  2.4733864831642078e-04 -1.4227593883777846e-05 0.0000000000000000e+00  3.0982193457625699e-04 -1.7903847659315808e-05 0.0000000000000000e+00  3.8937417082743537e-04 -2.2827746078791348e-05 0.0000000000000000e+00  4.9104174192053456e-04 -2.9650287796654098e-05 0.0000000000000000e+00  6.2131752838668404e-04 -3.9417583375112119e-05 0.0000000000000000e+00  0.0000000000000000e+00 0.0000000000000000e+00 0.0000000000000000e+00  8.5376974390133494e-06 -5.1119348703649458e-07 0.0000000000000000e+00  1.7415454249216914e-05 -1.0425498804003470e-06 0.0000000000000000e+00  2.6989001297504871e-05 -1.6151070304594356e-06 0.0000000000000000e+00  3.7647012771266338e-05 -2.2517146207039848e-06 0.0000000000000000e+00  4.9831159888579276e-05 -2.9781020474804441e-06 0.0000000000000000e+00  6.4061303454199291e-05 -3.8241834813588856e-06 0.0000000000000000e+00  8.0969128650755159e-05 -4.8257761165951904e-06 0.0000000000000000e+00  1.0134541244179723e-04 -6.0270622708624998e-06 0.0000000000000000e+00  1.2620922139928561e-04 -7.4844689009594905e-06 0.0000000000000000e+00  1.5691225906172291e-04 -9.2734091407113897e-06 0.0000000000000000e+00  1.9529893670389004e-04 -1.1501065363959990e-05 0.0000000000000000e+00  2.4395273988019744e-04 -1.4332231292729199e-05 0.0000000000000000e+00  3.0657104679138370e-04 -1.8043393727564535e-05 0.0000000000000000e+00  3.8852088158368154e-04 -2.3136436761108464e-05 0.0000000000000000e+00  4.9763657963753619e-04 -3.0572229463055102e-05 0.0000000000000000e+00  6.4534916049623764e-04 -4.2229311562567431e-05 0.0000000000000000e+00  0.0000000000000000e+00 0.0000000000000000e+00 0.0000000000000000e+00  8.2643101135372759e-06 -4.9997118416249179e-07 0.0000000000000000e+00  1.6845887662922390e-05 -1.0195125705124149e-06 0.0000000000000000e+00  2.6074398677220504e-05 -1.5789728999882055e-06 0.0000000000000000e+00  3.6306640372689833e-05 -2.2003658126247721e-06 0.0000000000000000e+00  4.7942873916284210e-05 -2.9083096351879431e-06 0.0000000000000000e+00  6.1447462254752525e-05 -3.7311144428417210e-06 0.0000000000000000e+00  7.7377156965167536e-05 -4.7021012220702138e-06 0.0000000000000000e+00  9.6422997375657818e-05 -5.8613042707891456e-06 0.0000000000000000e+00  1.1947668570926520e-04 -7.2578855844880932e-06 0.0000000000000000e+00  1.4774124795332059e-04 -8.9540882587709117e-06 0.0000000000000000e+00  1.8292147633860946e-04 -1.1032973129765736e-05 0.0000000000000000e+00  2.2755529741300647e-04 -1.3616175382807261e-05 0.0000000000000000e+00  2.8558417142345228e-04 -1.6908849006795692e-05 0.0000000000000000e+00  3.6330195024995008e-04 -2.1317422738868263e-05 0.0000000000000000e+00  4.7084443185151982e-04 -2.7754051660079869e-05 0.0000000000000000e+00  6.2437051893558327e-04 -3.8386243060263121e-05 0.0000000000000000e+00  0.0000000000000000e+00 0.0000000000000000e+00 0.0000000000000000e+00  7.6791150529128896e-06 -4.6950329934951334e-07 0.0000000000000000e+00  1.5640426275295548e-05 -9.5721923434580736e-07 0.0000000000000000e+00  2.4174462918582335e-05 -1.4820121710152391e-06 0.0000000000000000e+00  3.3591069273181210e-05 -2.0641932285109464e-06 0.0000000000000000e+00  4.4230290457498963e-05 -2.7262868878755987e-06 0.0000000000000000e+00  5.6475507845544078e-05 -3.4938344873189809e-06 0.0000000000000000e+00  7.0771094706858787e-05 -4.3961939061012603e-06 0.0000000000000000e+00  8.7649320941624541e-05 -5.4672066405265990e-06 0.0000000000000000e+00  1.0777647408875260e-04 -6.7454221942341128e-06 0.0000000000000000e+00  1.3203913892195131e-04 -8.2732426724969776e-06 0.0000000000000000e+00  1.6171398953591110e-04 -1.0093928857509674e-05 0.0000000000000000e+00  1.9880824156629957e-04 -1.2245594395220493e-05 0.0000000000000000e+00  2.4673682310161752e-04 -1.4755640388069696e-05 0.0000000000000000e+00  3.1162287747224239e-04 -1.7661541049939035e-05 0.0000000000000000e+00  4.0462841942034581e-04 -2.1171535227052014e-05 0.0000000000000000e+00  5.4568922115576257e-04 -2.6359693916835095e-05 0.0000000000000000e+00  0.0000000000000000e+00 0.0000000000000000e+00 0.0000000000000000e+00  6.8175097315261186e-06 -4.2117671837646366e-07 0.0000000000000000e+00  1.3873438666229469e-05 -8.5854088364164692e-07 0.0000000000000000e+00  2.1410310300446244e-05 -1.3287996069446829e-06 0.0000000000000000e+00  2.9681348692357522e-05 -1.8498683412422848e-06 0.0000000000000000e+00  3.8955023063596621e-05 -2.4414774011752620e-06 0.0000000000000000e+00  4.9518804212061822e-05 -3.1257483629164925e-06 0.0000000000000000e+00  6.1682162522900448e-05 -3.9276232499128934e-06 0.0000000000000000e+00  7.5779862131752985e-05 -4.8748289453682897e-06 0.0000000000000000e+00  9.2179665001739520e-05 -5.9965655932262742e-06 0.0000000000000000e+00  1.1130691484800121e-04 -7.3188952661603847e-06 0.0000000000000000e+00  1.3372015855644164e-04 -8.8518554736890703e-06 0.0000000000000000e+00  1.6032600261841373e-04 -1.0556321185963056e-05 0.0000000000000000e+00  1.9294925293130561e-04 -1.2263146153248383e-05 0.0000000000000000e+00  2.3574917435146355e-04 -1.3489147402948568e-05 0.0000000000000000e+00  2.9843972287527668e-04 -1.3079961545628020e-05 0.0000000000000000e+00  4.0257809635918073e-04 -8.8200364014768190e-06 0.0000000000000000e+00  0.0000000000000000e+00 0.0000000000000000e+00 0.0000000000000000e+00  5.7234816917585528e-06 -3.5703870724119469e-07 0.0000000000000000e+00  1.1636794316799582e-05 -7.2768341542793906e-07 0.0000000000000000e+00  1.7930238249658056e-05 -1.1259394061481853e-06 0.0000000000000000e+00  2.4797019743364224e-05 -1.5667935992673305e-06 0.0000000000000000e+00  3.2431918732542919e-05 -2.0667078951562242e-06 0.0000000000000000e+00  4.1025974301820823e-05 -2.6440976698892924e-06 0.0000000000000000e+00  5.0754375992866523e-05 -3.3197158881869624e-06 0.0000000000000000e+00  6.1753242731530720e-05 -4.1167085175838685e-06 0.0000000000000000e+00  7.4079119603375252e-05 -5.0596781027749399e-06 0.0000000000000000e+00  8.7644182328214392e-05 -6.1708714020428784e-06 0.0000000000000000e+00  1.0212607574978304e-04 -7.4580264317243888e-06 0.0000000000000000e+00  1.1688476368328028e-04 -8.8775912694363981e-06 0.0000000000000000e+00  1.3104825267985331e-04 -1.0223363905280708e-05 0.0000000000000000e+00  1.4436193747892773e-04 -1.0783884139218875e-05 0.0000000000000000e+00  1.6063701803944593e-04 -8.2819504043525933e-06 0.0000000000000000e+00  1.9764244289149452e-04 4.1394561531426772e-06 0.0000000000000000e+00  0.0000000000000000e+00 0.0000000000000000e+00 0.0000000000000000e+00  4.4456886862571985e-06 -2.7968198469245216e-07 0.0000000000000000e+00  9.0313204721528555e-06 -5.6994472638306925e-07 0.0000000000000000e+00  1.3894950718412171e-05 -8.8166256516966399e-07 0.0000000000000000e+00  1.9172150118906830e-05 -1.2264751013204394e-06 0.0000000000000000e+00  2.4990766332637480e-05 -1.6172007253004118e-06 0.0000000000000000e+00  3.1459568291505879e-05 -2.0683082363508427e-06 0.0000000000000000e+00  3.8645694575193951e-05 -2.5964941432454321e-06 0.0000000000000000e+00  4.6531740168283854e-05 -3.2214561039513663e-06 0.0000000000000000e+00  5.4935608000087066e-05 -3.9670228491045447e-06 0.0000000000000000e+00  6.3361914152081919e-05 -4.8628451756564339e-06 0.0000000000000000e+00  7.0728421460246725e-05 -5.9464757406590529e-06 0.0000000000000000e+00  7.4873841199741835e-05 -7.2627427283814697e-06 0.0000000000000000e+00  7.1739429840492097e-05 -8.8411255063478281e-06 0.0000000000000000e+00  5.4368025879628273e-05 -1.0546252026876499e-05 0.0000000000000000e+00  1.3684987718239111e-05 -1.1211213633859236e-05 0.0000000000000000e+00  -4.6810156216603795e-05 -3.1039591079347456e-06 0.0000000000000000e+00  0.0000000000000000e+00 0.0000000000000000e+00 0.0000000000000000e+00  3.0339288560254012e-06 -1.9212965860823889e-07 0.0000000000000000e+00  6.1590779302936242e-06 -3.9148330603398025e-07 0.0000000000000000e+00  9.4640715978410130e-06 -6.0548025710394261e-07 0.0000000000000000e+00  1.3033030010958420e-05 -8.4207541785418998e-07 0.0000000000000000e+00  1.6939438362702245e-05 -1.1100794509333422e-06 0.0000000000000000e+00  2.1233883918726562e-05 -1.4195917372138781e-06 0.0000000000000000e+00  2.5920181425201803e-05 -1.7826964317320916e-06 0.0000000000000000e+00  3.0909331547166340e-05 -2.2147912187286589e-06 0.0000000000000000e+00  3.5930089397183066e-05 -2.7374785006995844e-06 0.0000000000000000e+00  4.0351666953739490e-05 -3.3854084919416955e-06 0.0000000000000000e+00  4.2821352791226708e-05 -4.2233770072348596e-06 0.0000000000000000e+00  4.0496084557674854e-05 -5.3908787014106213e-06 0.0000000000000000e+00  2.7353811168065969e-05 -7.2232539649868343e-06 0.0000000000000000e+00  -9.5779254127386590e-06 -1.0599132030142415e-05 0.0000000000000000e+00  -9.8168147905965849e-05 -1.8021750308449864e-05 0.0000000000000000e+00  -2.9231890275965475e-04 -3.7687279659237954e-05 0.0000000000000000e+00  0.0000000000000000e+00 0.0000000000000000e+00 0.0000000000000000e+00  1.5366650842594509e-06 -9.7722097117012772e-08 0.0000000000000000e+00  3.1180195784412230e-06 -1.9909836963216794e-07 0.0000000000000000e+00  4.7869858617856996e-06 -3.0788023857775629e-07 0.0000000000000000e+00  6.5832240501190282e-06 -4.2809532297623231e-07 0.0000000000000000e+00  8.5391361408099519e-06 -5.6422550303941214e-07 0.0000000000000000e+00  1.0672078290041539e-05 -7.2147364682158575e-07 0.0000000000000000e+00  1.2969284959854142e-05 -9.0624677296235748e-07 0.0000000000000000e+00  1.5358573710412420e-05 -1.1271791807290121e-06 0.0000000000000000e+00  1.7650332079709490e-05 -1.3975331666828210e-06 0.0000000000000000e+00  1.9418629928806413e-05 -1.7412003445058910e-06 0.0000000000000000e+00  1.9745020578966948e-05 -2.2083871414124002e-06 0.0000000000000000e+00  1.6627722710362565e-05 -2.9182711972466383e-06 0.0000000000000000e+00  5.4966782089097523e-06 -4.1798906417725472e-06 0.0000000000000000e+00  -2.4907146477319871e-05 -6.8487436651803457e-06 0.0000000000000000e+00  -1.0494625179913693e-04 -1.3387498174790185e-05 0.0000000000000000e+00  -3.1863473849711967e-04 -3.0444428162110640e-05 0.0000000000000000e+00  0.0000000000000000e+00 0.0000000000000000e+00 0.0000000000000000e+00  0.0000000000000000e+00 0.0000000000000000e+00 0.0000000000000000e+00  0.0000000000000000e+00 0.0000000000000000e+00 0.0000000000000000e+00  0.0000000000000000e+00 0.0000000000000000e+00 0.0000000000000000e+00  0.0000000000000000e+00 0.0000000000000000e+00 0.0000000000000000e+00  0.0000000000000000e+00 0.0000000000000000e+00 0.0000000000000000e+00  0.0000000000000000e+00 0.0000000000000000e+00 0.0000000000000000e+00  0.0000000000000000e+00 0.0000000000000000e+00 0.0000000000000000e+00  0.0000000000000000e+00 0.0000000000000000e+00 