<?xml version="1.0"?>
<VTKFile type="UnstructuredGrid"  version="0.1"  >
<UnstructuredGrid>
<Piece  NumberOfPoints="289" NumberOfCells="512">
<Points>
<DataArray  type="Float64"  NumberOfComponents="3"  format="ascii">0 0 0  0.0625 0 0  0.125 0 0  0.1875 0 0  0.25 0 0  0.3125 0 0  0.375 0 0  0.4375 0 0  0.5 0 0  0.5625 0 0  0.625 0 0  0.6875 0 0  0.75 0 0  0.8125 0 0  0.875 0 0  0.9375 0 0  1 0 0  0 0.0625 0  0.06249168639777416 0.06248714087859854 0  0.1249830243458082 0.06247405824441103 0  0.1874736404765345 0.06246054892127293 0  0.2499631316091045 0.06244645847970436 0  0.3124510500956599 0.06243171246472556 0  0.3749368907822058 0.0624163549109264 0  0.4374200811355849 0.06240059413251649 0  0.4998999759585067 0.06238485227992553 0  0.5623758545466344 0.06236980896954009 0  0.6248469019550194 0.06235641950130754 0  0.6873120956969256 0.062345875231923 0  0.7497696984976664 0.06233946396549164 0  0.8122152090529655 0.06233831069289265 0  0.874633100424892 0.06234315392780978 0  0.9369619109377068 0.062355226363289 0  0.9989370895747586 0.06238528442445763 0  0 0.125 0  0.06248370543025211 0.1249745003990805 0  0.1249667359410737 0.1249485300006573 0  0.1874483717086054 0.1249216559699031 0  0.2499278409561679 0.1248935374940194 0  0.3124042970284795 0.1248639865627133 0  0.3748768028019425 0.1248330452647344 0  0.4373443296291563 0.1248010813789357 0  0.4998057827736777 0.124768898070066 0  0.5622600712122787 0.1247378420797314 0  0.6247062438885262 0.1247098748603187 0  0.6871437060878733 0.1246875395521904 0  0.7495724748229649 0.1246737133102736 0  0.8119932521442825 0.1246709894439269 0  0.8744067945046654 0.12468051723405 0  0.9368136188133955 0.1247000896032704 0  0.9992393998170312 0.1247194780163813 0  0 0.1875 0  0.06247640626470445 0.1874623286271156 0  0.1249518434092468 0.1874238952898102 0  0.1874252824246088 0.1873839878855104 0  0.2498956246207782 0.1873420177508931 0  0.3123616733308566 0.18729760553389 0  0.3748221195833151 0.1872506958146705 0  0.4372755553320954 0.1872017073375001 0  0.4997205380166995 0.1871517196477698 0  0.5621557462276821 0.1871026833946365 0  0.6245802900020105 0.1870576144062776 0  0.6869942718562345 0.1870206805969336 0  0.7493997362926981 0.1869969970266032 0  0.8118022152520826 0.1869917644675213 0  0.8742133668034057 0.1870079887802117 0  0.9366568439837273 0.1870409663992613 0  0.9991866454542241 0.1870648986984753 0  0 0.25 0  0.06247010691787344 0.2499509191961491 0  0.1249389911256015 0.2499007274184071 0  0.1874053594862077 0.2498483662984174 0  0.2498678320922865 0.2497929128206295 0  0.3123249076592612 0.2497336813209141 0  0.3747749471563796 0.2496703689924012 0  0.4372161933633656 0.2496032608284845 0  0.4996468570423239 0.2495335075585414 0  0.5620653201761671 0.2494634807056438 0  0.6244705343444468 0.2493971845153775 0  0.6868627263528805 0.2493406509623741 0  0.749244558137822 0.249302136871605 0  0.811622924022646 0.2492917427408452 0  0.8740116763756125 0.2493197385656212 0  0.9364360689379886 0.2493924778344702 0  0.9989409390217847 0.2495050668900987 0  0 0.3125 0  0.06246507833109883 0.3124406228918233 0  0.1249287289132257 0.3123797238191792 0  0.18738944685165 0.3123158234701154 0  0.2498456214637753 0.3122475619205282 0  0.3122954919051498 0.3121738015216956 0  0.3747371211835949 0.3120937879183079 0  0.4371684072875142 0.3120073972990244 0  0.4995871637997679 0.3119155036945453 0  0.5619913217970171 0.3118205028551778 0  0.6243793286610989 0.3117270215639706 0  0.6867508413944462 0.3116428078057495 0  0.7491078199666343 0.3115797091998592 0  0.8114561153021638 0.3115544585060775 0  0.8738076808007488 0.3115886460678409 0  0.9361838957657505 0.3117067872669354 0  0.9986217637021496 0.3119310152591923 0  0 0.375 0  0.06246152950799094 0.3749318513856669 0  0.1249214832586083 0.3748617173075313 0  0.1873782051252375 0.3747876294250937 0  0.2498299119458947 0.3747076875354326 0  0.3122746354422655 0.3746201410300928 0  0.3747101783895729 0.3745235380554896 0  0.4371341026974088 0.374416982793992 0  0.4995437815635704 0.3743005585944911 0  0.5619365688732146 0.3741759972320279 0  0.6243101647754914 0.3740476989060407 0  0.6866632788453919 0.373924221445081 0  0.7489966947777821 0.3738203284906811 0  0.8113148080144669 0.3737595453955513 0  0.8736276755313316 0.3737767947088523 0  0.9359537846279495 0.373919917038107 0  0.9983245727021466 0.3742476728289649 0  0 0.4375 0  0.06245959479819583 0.4374250674110017 0  0.1249175317003466 0.4373476595228264 0  0.1873720728172373 0.4372652760180328 0  0.2498213319287363 0.4371753945251471 0  0.3122632000914635 0.4370755025514315 0  0.3746952775611341 0.4369631953161719 0  0.4371148274514319 0.436836387384652 0  0.499518784077619 0.4366937155205583 0  0.5619038785548421 0.4365352566705467 0  0.6242669891580909 0.4363637541256322 0  0.6866058813810947 0.4361866374130448 0  0.7489205535057245 0.4360192172111276 0  0.8112153999631655 0.4358894553475038 0  0.8735022739037324 0.4358444393510855 0  0.935804251584097 0.435957726194782 0  0.998159786047415 0.4363346472019324 0  0 0.5 0  0.06245932503758809 0.4999207584054702 0  0.1249169836835231 0.4998385693554694 0  0.1873712340030556 0.4997504037380008 0  0.2498201686586049 0.4996530846253132 0  0.3122616242600298 0.499543240132092 0  0.3746930856143757 0.4994173031981646 0  0.4371115962506896 0.4992716028299998 0  0.4995137087894224 0.4991026285228723 0  0.5618955547202407 0.4989076157764569 0  0.6242532006379329 0.4986857158763247 0  0.6865836067593114 0.4984402063574863 0  0.7488867145464069 0.4981824978697401 0  0.8111693859384057 0.4979390760793036 0  0.8734518273428284 0.4977627516886074 0  0.9357762218032117 0.4977488917014443 0  0.9982152941600893 0.4980540572701721 0  0 0.5625 0  0.06246068455511503 0.5624193925980956 0  0.1249197721648847 0.5623354429304129 0  0.1873755995349222 0.5622446621583453 0  0.2498263306989792 0.5621432653356524 0  0.3122698539201059 0.5620270215884489 0  0.3747036589594983 0.5618911126549792 0  0.4371246977749362 0.5617300252699685 0  0.4995292558535883 0.5615375368215122 0  0.5619129238987277 0.5613069223252344 0  0.6242709048012717 0.5610316487127589 0  0.6865991949631021 0.5607070976554005 0  0.7488977379268457 0.5603343950477925 0  0.8111774720721772 0.5599284083239159 0  0.8734738556839294 0.5595334826718821 0  0.9358683727986782 0.5592516853865228 0  0.9985135741953821 0.5592855564915429 0  0 0.625 0  0.06246355574625474 0.6249213598127952 0  0.124925659973894 0.6248391286770453 0  0.1873848092655983 0.62474950621252 0  0.2498393356854043 0.6246482483598086 0  0.3122872998529315 0.6245304064289166 0  0.374726348629404 0.6243900202302272 0  0.4371535255449467 0.6242197556650084 0  0.4995650380116182 0.6240104924592481 0  0.5619560462319551 0.6237509088729486 0  0.6243207200409643 0.6234272144752837 0  0.6866532817218622 0.6230234413166749 0  0.748951846556104 0.6225233467571459 0  0.8112290654762603 0.6219165573736063 0  0.8735369496000291 0.6212152102573172 0  0.9360153450019385 0.6204939158896092 0  0.9989658968338894 0.619968724719242 0  0 0.6875 0  0.06246775189918333 0.6874269035154618 0  0.124934263207563 0.6873501805095852 0  0.1873982608234629 0.6872659473039311 0  0.2498583342398152 0.6871697603136177 0  0.3123128385379571 0.6870562588008752 0  0.374759750151889 0.686918703222966 0  0.4371964438075626 0.6867483553471039 0  0.4996193512482775 0.6865336297192349 0  0.5620234815704032 0.6862589288720811 0  0.6244019120044541 0.6859030719830209 0  0.6867458449025888 0.6854372954807872 0  0.7490473433101471 0.6848231540550609 0  0.8113109945133298 0.6840120537023932 0  0.8735903181600287 0.6829533798154115 0  0.9360799605390127 0.6816358825852444 0  0.9992947371950599 0.6802214398403076 0  0 0.75 0  0.06247303737811159 0.7499360548809151 0  0.1249450910133388 0.7498687121061594 0  0.1874151668633977 0.7497942972865718 0  0.2498821779894797 0.7497085227066906 0  0.3123448739876556 0.7496060751630572 0  0.3748017230380498 0.7494800537900235 0  0.4372506998102345 0.7493211648202274 0  0.4996888918597256 0.749116529980679 0  0.5621117740547192 0.7488478803119635 0  0.6245119411836844 0.7484887609110323 0  0.6868772066792542 0.7480001150484423 0  0.7491890226171279 0.7473231812450549 0  0.8114269417837306 0.74636813140486 0  0.8736024642831158 0.7449981611908515 0  0.9358989244183352 0.7430269060947194 0  0.9990395354879988 0.7404038850017753 0  0 0.8125 0  0.06247915243048321 0.8124485824788693 0  0.1249575974284915 0.8123942824327894 0  0.1874346376541302 0.8123339584991018 0  0.2499095353898579 0.8122638887582649 0  0.3123814808425911 0.8121793668531558 0  0.3748495295635174 0.8120741322282115 0  0.4373124649280846 0.8119395230533835 0  0.4997684816506368 0.8117631710255402 0  0.5622144494143985 0.8115269331472442 0  0.6246442138045882 0.8112035237114362 0  0.6870447792449611 0.8107508391401553 0  0.7493882531210373 0.8101018909959945 0  0.811617488022864 0.8091454570151962 0  0.8736351690983647 0.8076845866363441 0  0.9353969176151381 0.8053373519238954 0  0.9978646242706151 0.8012915274201742 0  0 0.875 0  0.06248583820873115 0.8749639711219565 0  0.1249712369613815 0.8749258434467219 0  0.1874557787992034 0.8748833170262585 0  0.2499390495486127 0.8748336372019445 0  0.3124206438277964 0.8747732710326654 0  0.3749001664591241 0.8746974411228282 0  0.4373772094647141 0.8745994172756035 0  0.4998512396236525 0.8744694018932119 0  0.5623212040617348 0.8742927321470506 0  0.624784298699432 0.874046923483642 0  0.68723230962214 0.8736967161072832 0  0.7496409681599528 0.8731855194264966 0  0.8119392099173612 0.8724194293956565 0  0.8739208585352251 0.8712309758672701 0  0.934996965933008 0.8692665753518199 0  0.9935901918393374 0.8655139017001758 0  0 0.9375 0  0.06249285661701488 0.9374814396257412 0  0.124985512126819 0.9374617730209364 0  0.1874777846626889 0.9374397838839305 0  0.2499695121448208 0.9374140059663962 0  0.3124605729865168 0.937382542832053 0  0.3749509197828937 0.9373428049908593 0  0.437440630430
[...]
<PointData  Vectors="f_54"> 
<DataArray  type="Float64"  Name="f_54"  NumberOfComponents="3" format="ascii">0.0000000000000000e+00 0.0000000000000000e+00 0.0000000000000000e+00  0.0000000000000000e+00 0.0000000000000000e+00 0.0000000000000000e+00  0.0000000000000000e+00 0.0000000000000000e+00 0.0000000000000000e+00  0.0000000000000000e+00 0.0000000000000000e+00 0.0000000000000000e+00  0.0000000000000000e+00 0.0000000000000000e+00 0.0000000000000000e+00  0.0000000000000000e+00 0.0000000000000000e+00 0.0000000000000000e+00  0.0000000000000000e+00 0.0000000000000000e+00 0.0000000000000000e+00  0.0000000000000000e+00 0.0000000000000000e+00 0.0000000000000000e+00  0.0000000000000000e+00 0.0000000000000000e+00 0.0000000000000000e+00  0.0000000000000000e+00 0.0000000000000000e+00 0.0000000000000000e+00  0.0000000000000000e+00 0.0000000000000000e+00 0.0000000000000000e+00  0.0000000000000000e+00 0.0000000000000000e+00 0.0000000000000000e+00  0.0000000000000000e+00 0.0000000000000000e+00 0.0000000000000000e+00  0.0000000000000000e+00 0.0000000000000000e+00 0.0000000000000000e+00  0.0000000000000000e+00 0.0000000000000000e+00 0.0000000000000000e+00  0.0000000000000000e+00 0.0000000000000000e+00 0.0000000000000000e+00  0.0000000000000000e+00 0.0000000000000000e+00 0.0000000000000000e+00  0.0000000000000000e+00 0.0000000000000000e+00 0.0000000000000000e+00  4.6562915674358402e-06 1.6321933532267958e-08 0.0000000000000000e+00  9.4362225501237585e-06 3.3011538119706014e-08 0.0000000000000000e+00  1.4462887508692014e-05 5.0436739007549403e-08 0.0000000000000000e+00  1.9853927740245346e-05 6.8954568959438592e-08 0.0000000000000000e+00  2.5716743707323165e-05 8.8909157505377026e-08 0.0000000000000000e+00  3.2140987803056224e-05 1.1063444627502505e-07 0.0000000000000000e+00  3.9187233480593328e-05 1.3446274481487987e-07 0.0000000000000000e+00  4.6870672028384625e-05 1.6073380367389469e-07 0.0000000000000000e+00  5.5138885097611996e-05 1.8977780237222293e-07 0.0000000000000000e+00  6.3843617593203024e-05 2.2178808047221139e-07 0.0000000000000000e+00  7.2709288253575426e-05 2.5635356830991614e-07 0.0000000000000000e+00  8.1309823180592840e-05 2.9103259064414320e-07 0.0000000000000000e+00  8.9095051015032652e-05 3.1712108735044908e-07 0.0000000000000000e+00  9.5615389925149852e-05 3.0591615953544793e-07 0.0000000000000000e+00  1.0150743915687664e-04 1.5656633487845336e-07 0.0000000000000000e+00  1.1239868376078523e-04 -5.2686592443343887e-07 0.0000000000000000e+00  0.0000000000000000e+00 0.0000000000000000e+00 0.0000000000000000e+00  9.1858104017367562e-06 3.2265204739613490e-08 0.0000000000000000e+00  1.8621151301240366e-05 6.5271538756007778e-08 0.0000000000000000e+00  2.8555099132432416e-05 9.9758964726029938e-08 0.0000000000000000e+00  3.9227526406860588e-05 1.3644296349111468e-07 0.0000000000000000e+00  5.0860513087869478e-05 1.7600839376857895e-07 0.0000000000000000e+00  6.3644441427467553e-05 2.1911377404352364e-07 0.0000000000000000e+00  7.7716511124600231e-05 2.6641364142057270e-07 0.0000000000000000e+00  9.3129155049971867e-05 3.1860310851064578e-07 0.0000000000000000e+00  1.0980580171507075e-04 3.7646757977425888e-07 0.0000000000000000e+00  1.2748194059807359e-04 4.4085739469206463e-07 0.0000000000000000e+00  1.4563099828208880e-04 5.1236900876195990e-07 0.0000000000000000e+00  1.6337755141303465e-04 5.9033160581991367e-07 0.0000000000000000e+00  1.7940292754894577e-04 6.7100912174772761e-07 0.0000000000000000e+00  1.9183140996524350e-04 7.4913683820115864e-07 0.0000000000000000e+00  1.9793125278171091e-04 8.5339636667657519e-07 0.0000000000000000e+00  1.9251476889451996e-04 1.2906609382816013e-06 0.0000000000000000e+00  0.0000000000000000e+00 0.0000000000000000e+00 0.0000000000000000e+00  1.3461031247588371e-05 4.7450537747995400e-08 0.0000000000000000e+00  2.7301315858284838e-05 9.6028813505393169e-08 0.0000000000000000e+00  4.1900975758951220e-05 1.4685719000639899e-07 0.0000000000000000e+00  5.7630500590915395e-05 2.0101518192732336e-07 0.0000000000000000e+00  7.4840320415906395e-05 2.5952352172571088e-07 0.0000000000000000e+00  9.3842772526651794e-05 3.2334238013253476e-07 0.0000000000000000e+00  1.1488301427404278e-04 3.9340339273081959e-07 0.0000000000000000e+00  1.3809478849810506e-04 4.7070652286850422e-07 0.0000000000000000e+00  1.6343636865137940e-04 5.5651599598137617e-07 0.0000000000000000e+00  1.9060165561572386e-04 6.5265365590420972e-07 0.0000000000000000e+00  2.1890124112995847e-04 7.6172857617651526e-07 0.0000000000000000e+00  2.4710732310079416e-04 8.8663338046285827e-07 0.0000000000000000e+00  2.7325039614881438e-04 1.0271114836075318e-06 0.0000000000000000e+00  2.9433111143827787e-04 1.1661434549969817e-06 0.0000000000000000e+00  3.0583654297325444e-04 1.2184387397658100e-06 0.0000000000000000e+00  3.0082126862713730e-04 8.1366531177106933e-07 0.0000000000000000e+00  0.0000000000000000e+00 0.0000000000000000e+00 0.0000000000000000e+00  1.7350970370581416e-05 6.1486673730856110e-08 0.0000000000000000e+00  3.5214718042181444e-05 1.2450981827453367e-07 0.0000000000000000e+00  5.4107924697187218e-05 1.9059392185217843e-07 0.0000000000000000e+00  7.4541912312357621e-05 2.6119794242010148e-07 0.0000000000000000e+00  9.7013245731644317e-05 3.3767980237168792e-07 0.0000000000000000e+00  1.2198502558321489e-04 4.2126902250371049e-07 0.0000000000000000e+00  1.4985432440349942e-04 5.1307753055000954e-07 0.0000000000000000e+00  1.8090005191427494e-04 6.1421454633458682e-07 0.0000000000000000e+00  2.1520425115745929e-04 7.2612954736505823e-07 0.0000000000000000e+00  2.5253860794667755e-04 8.5138263918656285e-07 0.0000000000000000e+00  2.9220697160189344e-04 9.9508526266075591e-07 0.0000000000000000e+00  3.3283385803330032e-04 1.1670881949815875e-06 0.0000000000000000e+00  3.7208762576671108e-04 1.3841337434261329e-06 0.0000000000000000e+00  4.0632516709825090e-04 1.6686578753088746e-06 0.0000000000000000e+00  4.3015176146135614e-04 2.0363673537585372e-06 0.0000000000000000e+00  4.3596045430018042e-04 2.4708528077031245e-06 0.0000000000000000e+00  0.0000000000000000e+00 0.0000000000000000e+00 0.0000000000000000e+00  2.0721374380338905e-05 7.3961880863424212e-08 0.0000000000000000e+00  4.2090555248179817e-05 1.4990072049606773e-07 0.0000000000000000e+00  6.4764297243911958e-05 2.2977579607144565e-07 0.0000000000000000e+00  8.9403926052340806e-05 3.1546048874659926e-07 0.0000000000000000e+00  1.1667057761778206e-04 4.0867689005612760e-07 0.0000000000000000e+00  1.4721036737388722e-04 5.1091308723976505e-07 0.0000000000000000e+00  1.8162409415981473e-04 6.2334731170800352e-07 0.0000000000000000e+00  2.2041428221670164e-04 7.4685738145896129e-07 0.0000000000000000e+00  2.6390019119038554e-04 8.8231142736090227e-07 0.0000000000000000e+00  3.1208913677176865e-04 1.0315703705946500e-06 0.0000000000000000e+00  3.6449061923654326e-04 1.2000558421543403e-06 0.0000000000000000e+00  4.1985941468345811e-04 1.4023975918295781e-06 0.0000000000000000e+00  4.7585702627989676e-04 1.6734591446629212e-06 0.0000000000000000e+00  5.2863252489166281e-04 2.0873856043800476e-06 0.0000000000000000e+00  5.7235646873118559e-04 2.7858604339702329e-06 0.0000000000000000e+00  5.9882623741312052e-04 4.0109078229187536e-06 0.0000000000000000e+00  0.0000000000000000e+00 0.0000000000000000e+00 0.0000000000000000e+00  2.3437147640532130e-05 8.4434750688455232e-08 0.0000000000000000e+00  4.7653636983363929e-05 1.7132516770045808e-07 0.0000000000000000e+00  7.3444838274694963e-05 2.6311165332007903e-07 0.0000000000000000e+00  1.0162659667441100e-04 3.6214681168945287e-07 0.0000000000000000e+00  1.3303914769214180e-04 4.7059919447759797e-07 0.0000000000000000e+00  1.6854155548135891e-04 5.9029148797222179e-07 0.0000000000000000e+00  2.0899090806632682e-04 7.2246047781293506e-07 0.0000000000000000e+00  2.5519799209569230e-04 8.6746667735756732e-07 0.0000000000000000e+00  3.0784785984448075e-04 1.0246046997344800e-06 0.0000000000000000e+00  3.6736978313368386e-04 1.1924864581617880e-06 0.0000000000000000e+00  4.3373726096540734e-04 1.3712224364642646e-06 0.0000000000000000e+00  5.0617665414702214e-04 1.5692274308753206e-06 0.0000000000000000e+00  5.8276575872145302e-04 1.8204907491588331e-06 0.0000000000000000e+00  6.5991586454099528e-04 2.2228122433260969e-06 0.0000000000000000e+00  7.3175706949883592e-04 3.0118928484235137e-06 0.0000000000000000e+00  7.8948417531980091e-04 4.6810304153076852e-06 0.0000000000000000e+00  0.0000000000000000e+00 0.0000000000000000e+00 0.0000000000000000e+00  2.5367434811228224e-05 9.2428074492040965e-08 0.0000000000000000e+00  5.1634433482145287e-05 1.8782442029657865e-07 0.0000000000000000e+00  7.9725390083207841e-05 2.8916275469803860e-07 0.0000000000000000e+00  1.1060648442824251e-04 3.9937037655238650e-07 0.0000000000000000e+00  1.4530226912021508e-04 5.2122340738627707e-07 0.0000000000000000e+00  1.8490513073080123e-04 6.5711905124651316e-07 0.0000000000000000e+00  2.3057227276557820e-04 8.0864476786802957e-07 0.0000000000000000e+00  2.8350170582247595e-04 9.7583985337460782e-07 0.0000000000000000e+00  3.4487413721428275e-04 1.1560590349907796e-06 0.0000000000000000e+00  4.1574147578220580e-04 1.3425208897759403e-06 0.0000000000000000e+00  4.9683531445252494e-04 1.5232892340780316e-06 0.0000000000000000e+00  5.8826192050273672e-04 1.6834082308720505e-06 0.0000000000000000e+00  6.8904780920341590e-04 1.8179267320784750e-06 0.0000000000000000e+00  7.9650748538029944e-04 1.9745841636574246e-06 0.0000000000000000e+00  9.0542314634690425e-04 2.3651812866475087e-06 0.0000000000000000e+00  1.0070289435291867e-03 3.6127050103498080e-06 0.0000000000000000e+00  0.0000000000000000e+00 0.0000000000000000e+00 0.0000000000000000e+00  2.6393444769534072e-05 9.7433355303171025e-08 0.0000000000000000e+00  5.3785040147586340e-05 1.9835599921586164e-07 0.0000000000000000e+00  8.3207570138871313e-05 3.0631074786679513e-07 0.0000000000000000e+00  1.1576066299456000e-04 4.2490321583683426e-07 0.0000000000000000e+00  1.5264333037924127e-04 5.5774347378816682e-07 0.0000000000000000e+00  1.9518377649256659e-04 7.0823280818926851e-07 0.0000000000000000e+00  2.4486268466574385e-04 8.7904773915586362e-07 0.0000000000000000e+00  3.0332272306611216e-04 1.0710471275896998e-06 0.0000000000000000e+00  3.7235137798523349e-04 1.2811140817413034e-06 0.0000000000000000e+00  4.5381558489208885e-04 1.4981386873259414e-06 0.0000000000000000e+00  5.4951448347519442e-04 1.6961085943691039e-06 0.0000000000000000e+00  6.6090200271492106e-04 1.8238598939464146e-06 0.0000000000000000e+00  7.8861884242332689e-04 1.7949762576355694e-06 0.0000000000000000e+00  9.3177544810005286e-04 1.4953575273467413e-06 0.0000000000000000e+00  1.0869579182799453e-03 8.6413888166534546e-07 0.0000000000000000e+00  1.2469653188642196e-03 1.8502331227142882e-07 0.0000000000000000e+00  0.0000000000000000e+00 0.0000000000000000e+00 0.0000000000000000e+00  2.6418666734586971e-05 9.8936213508051723e-08 0.0000000000000000e+00  5.3900452397377673e-05 2.0183558229382048e-07 0.0000000000000000e+00  8.3552771984186173e-05 3.1279155246626078e-07 0.0000000000000000e+00  1.1657582945815365e-04 4.3614473593623574e-07 0.0000000000000000e+00  1.5431282701140023e-04 5.7654995192813174e-07 0.0000000000000000e+00  1.9830386485479367e-04 7.3892505437102221e-07 0.0000000000000000e+00  2.5034275728110016e-04 9.2812388385814187e-07 0.0000000000000000e+00  3.1253300219335751e-04 1.1479780794946243e-06 0.0000000000000000e+00  3.8733344531213744e-04 1.3989153955762578e-06 0.0000000000000000e+00  4.7757395006436422e-04 1.6724225326515975e-06 0.0000000000000000e+00  5.8640436058202800e-04 1.9387212171399167e-06 0.0000000000000000e+00  7.1711490515615958e-04 2.1206620718929519e-06 0.0000000000000000e+00  8.7273717111182550e-04 2.0426539590439639e-06 0.0000000000000000e+00  1.0553235066933760e-03 1.3450068022919385e-06 0.0000000000000000e+00  1.2648691516606858e-03 -6.1326413996930888e-07 0.0000000000000000e+00  1.4980889511858966e-03 -4.7162546547949507e-06 0.0000000000000000e+00  0.0000000000000000e+00 0.0000000000000000e+00 0.0000000000000000e+00  2.5380613083423009e-05 9.6471431691955316e-08 0.0000000000000000e+00  5.1843456429834661e-05 1.9724647936671069e-07 0.0000000000000000e+00  8.0523072899550628e-05 3.0685206341688700e-07 0.0000000000000000e+00  1.1266966216549998e-04 4.3029447540196579e-07 0.0000000000000000e+00  1.4971618781066132e-04 5.7332066043029704e-07 0.0000000000000000e+00  1.9335706149269078e-04 7.4268550815556528e-07 0.0000000000000000e+00  2.4564216352888164e-04 9.4636648314793465e-07 0.0000000000000000e+00  3.0908870363617093e-04 1.1935272276441489e-06 0.0000000000000000e+00  3.8680966154435435e-04 1.4936326854739857e-06 0.0000000000000000e+00  4.8264849371491147e-04 1.8529963498283441e-06 0.0000000000000000e+00  6.0129071217662246e-04 2.2639696012988392e-06 0.0000000000000000e+00  7.4828733348871986e-04 2.6739587934263605e-06 0.0000000000000000e+00  9.2986925288064660e-04 2.9021464046451769e-06 0.0000000000000000e+00  1.1523736764982059e-03 2.4324393278764553e-06 0.0000000000000000e+00  1.4211448985935386e-03 -4.0024418263625223e-08 0.0000000000000000e+00  1.7391859755534215e-03 -7.4077400833170157e-06 0.0000000000000000e+00  0.0000000000000000e+00 0.0000000000000000e+00 0.0000000000000000e+00  2.3262686458133818e-05 8.9708095382303634e-08 0.0000000000000000e+00  4.7570261902864637e-05 1.8382366945176786e-07 0.0000000000000000e+00  7.4024599742342196e-05 2.8706052896051740e-07 0.0000000000000000e+00  1.0385838011344668e-04 4.0482651542094294e-07 0.0000000000000000e+00  1.3851504082291948e-04 5.4368831757982481e-07 0.0000000000000000e+00  1.7974836592173329e-04 7.1201355009109961e-07 0.0000000000000000e+00  2.2975103730442468e-04 9.2091997791804648e-07 0.0000000000000000e+00  2.9132345431553524e-04 1.1857446390308576e-06 0.0000000000000000e+00  3.6809523069772365e-04 1.5283376154146493e-06 0.0000000000000000e+00  4.6480919400102797e-04 1.9803722510265671e-06 0.0000000000000000e+00  5.8766493430423403e-04 2.5865085380328716e-06 0.0000000000000000e+00  7.4468282939482223e-04 3.3995000533831252e-06 0.0000000000000000e+00  9.4596902302047177e-04 4.4324654066668652e-06 0.0000000000000000e+00  1.2036250466170967e-03 5.4409259689852044e-06 0.0000000000000000e+00  1.5309657457179269e-03 5.1518971390948114e-06 0.0000000000000000e+00  1.9414838973425468e-03 -6.3012582699580348e-07 0.0000000000000000e+00  0.0000000000000000e+00 0.0000000000000000e+00 0.0000000000000000e+00  2.0104315573112461e-05 7.8551059184385099e-08 0.0000000000000000e+00  4.1152943213699719e-05 1.6128484203866421e-07 0.0000000000000000e+00  6.4146916318338418e-05 2.5273263144686883e-07 0.0000000000000000e+00  9.0221001845125170e-05 3.5823576412076090e-07 0.0000000000000000e+00  1.2072884786579786e-04 4.8453261675318395e-07 0.0000000000000000e+00  1.5735398085040296e-04 6.4064251173287874e-07 0.0000000000000000e+00  2.0226129805363409e-04 8.3932931679178045e-07 0.0000000000000000e+00  2.5830997793214083e-04 1.0997515730618980e-06 0.0000000000000000e+00  3.2935758238616497e-04 1.4526852559923989e-06 0.0000000000000000e+00  4.2069593984795929e-04 1.9515706598671166e-06 0.0000000000000000e+00  5.3966789636624758e-04 2.6968594250064799e-06 0.0000000000000000e+00  6.9650529740770658e-04 3.8891189976776314e-06 0.0000000000000000e+00  9.0536203835090540e-04 5.9320754729029035e-06 0.0000000000000000e+00  1.1853047329320467e-03 9.5447197666227092e-06 0.0000000000000000e+00  1.5605756514891112e-03 1.5249331751339118e-05 0.0000000000000000e+00  2.0598397746355661e-03 1.7285206875566016e-05 0.0000000000000000e+00  0.0000000000000000e+00 0.0000000000000000e+00 0.0000000000000000e+00  1.6007277572587434e-05 6.3230899337389684e-08 0.0000000000000000e+00  3.2794131072783193e-05 1.3004317550678243e-07 0.0000000000000000e+00  5.1190583915678399e-05 2.0434818589745500e-07 0.0000000000000000e+00  7.2147871723260347e-05 2.9083038120311207e-07 0.0000000000000000e+00  9.6818117675590931e-05 3.9550966106740303e-07 0.0000000000000000e+00  1.2666186859023977e-04 5.2658114060234805e-07 0.0000000000000000e+00  1.6360117558337128e-04 6.9577871493623414e-07 0.0000000000000000e+00  2.1024597106102403e-04 9.2080050587272596e-07 0.0000000000000000e+00  2.7023850268199863e-04 1.2301529911062437e-06 0.0000000000000000e+00  3.4878888858747904e-04 1.6742755621016383e-06 0.0000000000000000e+00  4.5352023485123639e-04 2.3549109923098169e-06 0.0000000000000000e+00  5.9580706630676873e-04 3.5116634869305721e-06 0.0000000000000000e+00  7.9285406530295983e-04 5.7952830101888208e-06 0.0000000000000000e+00  1.0706890514158328e-03 1.1162093477251729e-05 0.0000000000000000e+00  1.4674119684589325e-03 2.5894785243712372e-05 0.0000000000000000e+00  2.0292332426546755e-03 7.2160433152298968e-05 0.0000000000000000e+00  0.0000000000000000e+00 0.0000000000000000e+00 0.0000000000000000e+00  1.1136278688409525e-05 4.4350060702239609e-08 0.0000000000000000e+00  2.2829574993045999e-05 9.1321351576467387e-08 0.0000000000000000e+00  3.5674922976444016e-05 1.4378727941145880e-07 0.0000000000000000e+00  5.0359864592688550e-05 2.0520975250996606e-07 0.0000000000000000e+00  6.7726686301979394e-05 2.8004453318523122e-07 0.0000000000000000e+00  8.8858545028917379e-05 3.7428791853361267e-07 0.0000000000000000e+00  1.1520582991972822e-04 4.9619679331547321e-07 0.0000000000000000e+00  1.4877998327283827e-04 6.5712061551556763e-07 0.0000000000000000e+00  1.9246213322371506e-04 8.7207626016243588e-07 0.0000000000000000e+00  2.5051206815188777e-04 1.1589039640083312e-06 0.0000000000000000e+00  3.2943798286528018e-04 1.5334418487727846e-06 0.0000000000000000e+00  4.3954139145049637e-04 1.9989603653964677e-06 0.0000000000000000e+00  5.9779238301380360e-04 2.5539594936062617e-06 0.0000000000000000e+00  8.3354429080855180e-04 3.4241191289652240e-06 0.0000000000000000e+00  1.2011623687808043e-03 6.6939843695285606e-06 0.0000000000000000e+00  1.8137603026249886e-03 2.4991511432801025e-05 0.0000000000000000e+00  0.0000000000000000e+00 0.0000000000000000e+00 0.0000000000000000e+00  5.7125080836028932e-06 2.2864186313248132e-08 0.0000000000000000e+00  1.1715484434801264e-05 4.7113343813274098e-08 0.0000000000000000e+00  1.8319870820577745e-05 7.4267090083603364e-08 0.0000000000000000e+00  2.5886792503970010e-05 1.0615644681639852e-07 0.0000000000000000e+00  3.4861802128142788e-05 1.4512140519255368e-07 0.0000000000000000e+00  4.5822985897859976e-05 1.9423129637741173e-07 0.0000000000000000e+00  5.9552816128706474e-05 2.5742213941310794e-07 0.0000000000000000e+00  7.7150693649513592e-05 3.3910936919506889e-07 0.0000000000000000e+00  1.0021654026088853e-04 4.4169090477788528e-07 0.0000000000000000e+00  1.3116159337315221e-04 5.5547469687037847e-07 0.0000000000000000e+00  1.7375142622947772e-04 6.2221579275965669e-07 0.0000000000000000e+00  2.3406916343759673e-04 4.0661584672812142e-07 0.0000000000000000e+00  3.2215891938263715e-04 -9.5639320770858741e-07 0.0000000000000000e+00  4.5418687884402130e-04 -6.5493714567702335e-06 0.0000000000000000e+00  6.5102910708087413e-04 -2.6879860169970375e-05 0.0000000000000000e+00  9.0985404997030066e-04 -9.1559659631334603e-05 0.0000000000000000e+00  0.0000000000000000e+00 0.0000000000000000e+00 0.0000000000000000e+00  0.0000000000000000e+00 0.0000000000000000e+00 0.0000000000000000e+00  0.0000000000000000e+00 0.0000000000000000e+00 0.0000000000000000e+00  0.0000000000000000e+00 0.0000000000000000e+00 0.0000000000000000e+00  0.0000000000000000e+00 0.0000000000000000e+00 0.0000000000000000e+00  0.0000000000000000e+00 0.0000000000000000e+00 0.0000000000000000e+00  0.0000000000000000e+00 0.0000000000000000e+00 0.0000000000000000e+00  0.0000000000000000e+00 0.0000000000000000e+00 0.0000000000000000e+00  0.0000000000000000e+00 0.0000000000000000e+00 0.0000000000000000e+00  0.0000000000000000e+00 0.0000000000000000e+00 0.0000000000000000e+00  0.0000000000000000e+00 0.0000000000000000e+00 0.0000000000000000e+00  0.0000000000000000e+00 0.0000000000000000e+00 0.0000000000000000e+00  0.