<?xml version="1.0"?>
<VTKFile type="UnstructuredGrid"  version="0.1"  >
<UnstructuredGrid>
<Piece  NumberOfPoints="289" NumberOfCells="512">
<Points>
<DataArray  type="Float64"  NumberOfComponents="3"  format="ascii">0 0 0  0.0625 0 0  0.125 0 0  0.1875 0 0  0.25 0 0  0.3125 0 0  0.375 0 0  0.4375 0 0  0.5 0 0  0.5625 0 0  0.625 0 0  0.6875 0 0  0.75 0 0  0.8125 0 0  0.875 0 0  0.9375 0 0  1 0 0  0 0.0625 0  0.06243161838041898 0.0624944866257312 0  0.1248613348115597 0.06248885680976562 0  0.1872872590967929 0.06248300109418416 0  0.2497075564261391 0.0624768261738432 0  0.3121205031928301 0.06247026612319011 0  0.3745245789777613 0.06246329725065541 0  0.4369186088196446 0.06245595726989116 0  0.4993019686680764 0.06244836853595071 0  0.561674858643135 0.0624407632341421 0  0.6240386200577787 0.0624335052157127 0  0.6863959826383407 0.06242709874934886 0  0.7487508417493995 0.06242217181345316 0  0.8111061765476751 0.06241943731763074 0  0.8734549977234938 0.06241975181160531 0  0.9357440575901395 0.06242504191009185 0  0.9977247174754724 0.06244492751349225 0  0 0.125 0  0.0623652157909079 0.1249890899587902 0  0.1247266162263387 0.1249779396218878 0  0.1870804013607509 0.1249663214389613 0  0.2494228628057852 0.1249540376812307 0  0.311750484906693 0.1249409418302746 0  0.3740601184339861 0.1249269676502737 0  0.4363492581157538 0.1249121678607988 0  0.4986164585540134 0.124896762835171 0  0.5608619214040135 0.1248811964548732 0  0.6230882720223464 0.1248661898498072 0  0.6853014994736691 0.1248527724152261 0  0.7475119302994453 0.1248422504352822 0  0.8097349289957522 0.1248360389970083 0  0.8719910806178737 0.1248351877575 0  0.9343088752944951 0.1248389671428161 0  0.9967604177628306 0.1248388203569477 0  0 0.1875 0  0.06230272048165152 0.1874839344076651 0  0.1245996873696615 0.1874674910668073 0  0.186885148574324 0.1874503082386745 0  0.2491534380613116 0.1874320625215895 0  0.3113990979103881 0.1874124979887376 0  0.3736171059177332 0.1873914676567294 0  0.4358032587002311 0.1873689913986024 0  0.4979547716056053 0.1873453332496133 0  0.5600711686212559 0.1873210976461407 0  0.6221555463462634 0.1872973363452378 0  0.6842163076783966 0.1872756419985552 0  0.7462694928640047 0.1872581744761007 0  0.8083419817491152 0.1872475107148523 0  0.8704764655899377 0.187246106633836 0  0.9327413737308876 0.187255005363706 0  0.9952551644869733 0.1872717230731975 0  0 0.25 0  0.06224608487697204 0.2499791579436162 0  0.1244844600236657 0.2499577834933191 0  0.1867073777057774 0.2499353597429565 0  0.248907109608754 0.2499114086682576 0  0.3110760518129889 0.2498855238278764 0  0.373206959818899 0.249857420273857 0  0.4352933803724109 0.249827009045962 0  0.4973303671354016 0.2497945040555821 0  0.559315592116435 0.2497605678106437 0  0.6212509932162044 0.2497264967663016 0  0.6831451300034941 0.2496944324381042 0  0.7450164604623384 0.2496675527741001 0  0.8068978262992557 0.2496501375354207 0  0.8688426119099869 0.2496472993790821 0  0.9309333835926256 0.2496640433636236 0  0.9932936512366829 0.2497032702931091 0  0 0.3125 0  0.06219727545066728 0.3124749155999857 0  0.1243849034171854 0.3124491272993134 0  0.1865531280320047 0.3124219412232351 0  0.2486920717155055 0.3123926922734422 0  0.3107917743183041 0.3123607740793055 0  0.3728423726153552 0.3123256902166734 0  0.4348344988267669 0.3122871379315632 0  0.4967600061173295 0.3122451389778986 0  0.5586131662741147 0.3122002354627306 0  0.6203925270178126 0.3121537696572826 0  0.6821036553442574 0.3121082606499984 0  0.7437630113609499 0.3120678674738347 0  0.8054031629644951 0.3120388703906165 0  0.86707941285603 0.3120299854240821 0  0.9288775545695699 0.312052135280813 0  0.990921554372877 0.3121170445868126 0  0 0.375 0  0.06215823362661896 0.3749713790430266 0  0.1243049719365696 0.3749418712629356 0  0.1864285089257302 0.3749105887350834 0  0.2485167973770481 0.3748766496524362 0  0.3105573676587189 0.3748391971399005 0  0.37253737755268 0.3747974408816871 0  0.4344438761057718 0.374750736122181 0  0.496264403133327 0.3746987218047944 0  0.5579880983178673 0.3746415498048344 0  0.619607557515587 0.3745802499799846 0  0.6811217375474994 0.374517287799853 0  0.7425402452067483 0.3744573720662854 0  0.8038892940665874 0.3744085341563868 0  0.8652193842471985 0.3743833779266382 0  0.9266142481097493 0.3744001226054929 0  0.9881997097019044 0.3744826061022538 0  0 0.4375 0  0.06213080254457528 0.4374687310464381 0  0.1242484598501254 0.4374363922388519 0  0.1863394862478993 0.4374018959237589 0  0.2483897657604581 0.4373641251476096 0  0.3103842975324839 0.4373219316883107 0  0.3723070386565417 0.4372741539743918 0  0.4341409207506185 0.437219670493888 0  0.4958681642431464 0.4371575150435484 0  0.557471085539896 0.4370870979741146 0  0.6189336914530941 0.4370086056870693 0  0.6802444785601631 0.4369236913196327 0  0.7414009764162529 0.4368366183672749 0  0.8024166218013326 0.4367560494780764 0  0.8633303887350543 0.4366976054697905 0  0.9242190431914018 0.4366869853078205 0  0.9852108850762761 0.4367626095974254 0  0 0.5 0  0.06211661909164128 0.4999671541498544 0  0.1242187804023255 0.4999330723776858 0  0.1862915394998534 0.4998964799890163 0  0.2483189867636162 0.4998560272639292 0  0.3102837773535119 0.4998102576007309 0  0.3721666977042019 0.4997575866709217 0  0.4339463229730899 0.4996963050346759 0  0.4955988724780314 0.4996246287291098 0  0.5570984596576121 0.4995408450987723 0  0.6184180785223375 0.4994436432025557 0  0.679531889280836 0.4993327930003307 0  0.7404196629550769 0.4992104611084366 0  0.8010745528628483 0.4990836242422336 0  0.8615154551631251 0.4989681907982847 0  0.921804630878087 0.498895273840837 0  0.9820695270299522 0.4989188747932841 0  0 0.5625 0  0.06211697644317719 0.5624668136244579 0  0.124218678782572 0.5624322637276162 0  0.1862892011595107 0.5623949254507563 0  0.2483113315126394 0.5623532485652778 0  0.3102658462801611 0.5623054898411229 0  0.3721307546031233 0.5622496416082147 0  0.4338805050699172 0.5621833604345639 0  0.4954852150607945 0.5621039087928581 0  0.556910078057237 0.5620081426949575 0  0.6181152888719006 0.5618926228214552 0  0.6790571647225443 0.5617540234286073 0  0.7396917087472423 0.5615902158182997 0  0.7999826836436202 0.5614027966995558 0  0.8599170760808326 0.5612024830858358 0  0.9195305918435063 0.5610194730026399 0  0.9789421530464517 0.5609202297686573 0  0 0.625 0  0.06213266903866873 0.6249678360876018 0  0.1242499027258098 0.6249342427116579 0  0.1863355130887783 0.6248977087891506 0  0.248371712250089 0.6248565515435353 0  0.3103381863927666 0.6248088133573071 0  0.3722110143224343 0.624752136444677 0  0.4339613820215543 0.6246836061843388 0  0.4955540675772989 0.6245995543148009 0  0.5569457412910437 0.6244953189264182 0  0.6180833058695376 0.6243649811123831 0  0.6789029169994595 0.6242011715765299 0  0.7393312024244876 0.6239952539130663 0  0.799291857708077 0.6237387666299498 0  0.8587233673701945 0.6234284093442363 0  0.9176158322300817 0.6230796578207911 0  0.9760716436736364 0.6227569911771381 0  0 0.6875 0  0.06216383861352612 0.6874702865056691 0  0.1243128693188932 0.6874391601600718 0  0.1864314606901727 0.6874051128741241 0  0.2485021959551046 0.6873664326637091 0  0.3105047848460597 0.6873210734065026 0  0.3724147154209096 0.687266485320302 0  0.434201522630155 0.6871993830721546 0  0.4958265271588866 0.6871154168948131 0  0.5572398963443019 0.6870086935950112 0  0.618376961355646 0.6868710677528976 0  0.6791540574976719 0.6866910990281284 0  0.7394651465794548 0.6864526144169816 0  0.799183035070989 0.6861332045764698 0  0.8581746825492087 0.6857047361643521 0  0.9163495769125939 0.6851441119437834 0  0.9737630963045578 0.6844771635855497 0  0 0.75 0  0.06220984533472063 0.7499741475158748 0  0.1244063793591722 0.7499469954594494 0  0.1865754697991667 0.7499171458690823 0  0.2487011790375146 0.7498829878085345 0  0.3107646192008635 0.7498425563621598 0  0.3727424703035607 0.7497933423319996 0  0.4346049696438499 0.7497320206190804 0  0.4963130975206296 0.7496540447651587 0  0.5578145674617621 0.7495530154215966 0  0.6190380952804164 0.7494196500467704 0  0.6798853757489972 0.7492400135289302 0  0.7402206574719287 0.7489923302357406 0  0.799860209053766 0.7486411287477431 0  0.8585726891551121 0.7481272920899373 0  0.9161272447007976 0.7473584168220595 0  0.9724722778613835 0.7462543794569626 0  0 0.8125 0  0.06226919054346066 0.8124793054974799 0  0.1245274375378985 0.8124575247848137 0  0.186763067541027 0.8124334826657407 0  0.2489627856290837 0.8124058100839616 0  0.311110615994007 0.8123728134170938 0  0.3731864862384036 0.8123322954380475 0  0.4351642292564108 0.8122812966465339 0  0.4970086458958486 0.8122157060561032 0  0.5586710441749189 0.8121296519626817 0  0.6200822748422388 0.8120144985767556 0  0.6811416083533495 0.8118570623449043 0  0.7416987721514056 0.8116360647170706 0  0.8015256554018616 0.8113140240590491 0  0.8602782166644583 0.810816094321687 0  0.9174847632113652 0.8099694448008328 0  0.9728175457556765 0.8083204064811879 0  0 0.875 0  0.06233951527692346 0.8749855472396449 0  0.1246712333335412 0.8749703122721427 0  0.1869868075562096 0.8749534455259551 0  0.2492766625666133 0.8749339502145176 0  0.3115291748680029 0.874910582493203 0  0.3737295544118681 0.8748817147280353 0  0.4358582252785116 0.8748451401000326 0  0.4978883707624172 0.8747977875944255 0  0.5597820570433598 0.8747353050183075 0  0.6214838524555931 0.8746514569413293 0  0.6829098071828 0.8745372773583044 0  0.7439272346714558 0.8743798796237117 0  0.8043146031196506 0.8741604365756386 0  0.8636741282332201 0.8738480917165651 0  0.9212251117022225 0.873370397199965 0  0.9753292909206686 0.8724449564193855 0  0 0.9375 0  0.06241769038821479 0.9374925693354055 0  0.1248313202649908 0.9374847291222292 0  0.1872365335002473 0.9374760335737591 0  0.2496283103429531 0.9374659576269533 0  0.3120005199007186 0.9374538432087791 0  0.3743453024775882 0.9374388261776357 0  0.4366521643665017 0.
[...]
<PointData  Vectors="f_54"> 
<DataArray  type="Float64"  Name="f_54"  NumberOfComponents="3" format="ascii">0.0000000000000000e+00 0.0000000000000000e+00 0.0000000000000000e+00  0.0000000000000000e+00 0.0000000000000000e+00 0.0000000000000000e+00  0.0000000000000000e+00 0.0000000000000000e+00 0.0000000000000000e+00  0.0000000000000000e+00 0.0000000000000000e+00 0.0000000000000000e+00  0.0000000000000000e+00 0.0000000000000000e+00 0.0000000000000000e+00  0.0000000000000000e+00 0.0000000000000000e+00 0.0000000000000000e+00  0.0000000000000000e+00 0.0000000000000000e+00 0.0000000000000000e+00  0.0000000000000000e+00 0.0000000000000000e+00 0.0000000000000000e+00  0.0000000000000000e+00 0.0000000000000000e+00 0.0000000000000000e+00  0.0000000000000000e+00 0.0000000000000000e+00 0.0000000000000000e+00  0.0000000000000000e+00 0.0000000000000000e+00 0.0000000000000000e+00  0.0000000000000000e+00 0.0000000000000000e+00 0.0000000000000000e+00  0.0000000000000000e+00 0.0000000000000000e+00 0.0000000000000000e+00  0.0000000000000000e+00 0.0000000000000000e+00 0.0000000000000000e+00  0.0000000000000000e+00 0.0000000000000000e+00 0.0000000000000000e+00  0.0000000000000000e+00 0.0000000000000000e+00 0.0000000000000000e+00  0.0000000000000000e+00 0.0000000000000000e+00 0.0000000000000000e+00  0.0000000000000000e+00 0.0000000000000000e+00 0.0000000000000000e+00  1.7198818145201319e-06 9.2469307465265481e-09 0.0000000000000000e+00  3.4598547522540301e-06 1.9444542222808929e-08 0.0000000000000000e+00  5.2353177767521083e-06 3.1558373849930210e-08 0.0000000000000000e+00  7.0510565300114517e-06 4.6554876154888222e-08 0.0000000000000000e+00  8.8940515893081207e-06 6.5325847306621334e-08 0.0000000000000000e+00  1.0723835789040228e-05 8.8498903237538673e-08 0.0000000000000000e+00  1.2459214848724815e-05 1.1605643362277589e-07 0.0000000000000000e+00  1.3959586987828154e-05 1.4664755237843999e-07 0.0000000000000000e+00  1.4997682173798302e-05 1.7642041271616427e-07 0.0000000000000000e+00  1.5216788291763960e-05 1.9709715821430108e-07 0.0000000000000000e+00  1.4055010113350644e-05 1.9274997034466162e-07 0.0000000000000000e+00  1.0588081420044937e-05 1.3390919161880528e-07 0.0000000000000000e+00  3.1451775030220366e-06 -3.5202558555582918e-08 0.0000000000000000e+00  -1.1773024504508293e-05 -4.3053551457758528e-07 0.0000000000000000e+00  -4.2906277914588436e-05 -1.3331895928716547e-06 0.0000000000000000e+00  -1.1582640733352990e-04 -3.5395826113554795e-06 0.0000000000000000e+00  0.0000000000000000e+00 0.0000000000000000e+00 0.0000000000000000e+00  3.4156075264790233e-06 1.7519681810802481e-08 0.0000000000000000e+00  6.8760995672147338e-06 3.6919754635910439e-08 0.0000000000000000e+00  1.0417738510516592e-05 6.0136401628429733e-08 0.0000000000000000e+00  1.4057200437059843e-05 8.9168840176256503e-08 0.0000000000000000e+00  1.7778232852722918e-05 1.2598043482102160e-07 0.0000000000000000e+00  2.1513759495787048e-05 1.7220046343843850e-07 0.0000000000000000e+00  2.5121418845984865e-05 2.2848595717380139e-07 0.0000000000000000e+00  2.8349893968893469e-05 2.9333598604932204e-07 0.0000000000000000e+00  3.0792058318114294e-05 3.6106656397921171e-07 0.0000000000000000e+00  3.1817846041246938e-05 4.1855381920941294e-07 0.0000000000000000e+00  3.0472275990408196e-05 4.4022081047718457e-07 0.0000000000000000e+00  2.5306772059013934e-05 3.8049883541588779e-07 0.0000000000000000e+00  1.4076712601281880e-05 1.6239194647973488e-07 0.0000000000000000e+00  -6.8068205759026555e-06 -3.4063118202606019e-07 0.0000000000000000e+00  -4.3069988908171026e-05 -1.3340164300302714e-06 0.0000000000000000e+00  -1.0217028284914452e-04 -3.1412783394105592e-06 0.0000000000000000e+00  0.0000000000000000e+00 0.0000000000000000e+00 0.0000000000000000e+00  5.0622033803398207e-06 2.3885992122583915e-08 0.0000000000000000e+00  1.0202924398493114e-05 5.0520594227370459e-08 0.0000000000000000e+00  1.5489516493713826e-05 8.2793498087755219e-08 0.0000000000000000e+00  2.0963740980303963e-05 1.2382475305523196e-07 0.0000000000000000e+00  2.6624052094255390e-05 1.7693421983621646e-07 0.0000000000000000e+00  3.2401640463881322e-05 2.4537668446243767e-07 0.0000000000000000e+00  3.8127714632058529e-05 3.3165958347202543e-07 0.0000000000000000e+00  4.3489219466391088e-05 4.3616413781268145e-07 0.0000000000000000e+00  4.7969952151525790e-05 5.5467906301339215e-07 0.0000000000000000e+00  5.0773933681666653e-05 6.7437109795848049e-07 0.0000000000000000e+00  5.0728325856053823e-05 7.6777511639096831e-07 0.0000000000000000e+00  4.6166206095187918e-05 7.8489756718167307e-07 0.0000000000000000e+00  3.4804225647474048e-05 6.4538336297108674e-07 0.0000000000000000e+00  1.3690919213535966e-05 2.3888581436676167e-07 0.0000000000000000e+00  -2.0484250001130775e-05 -5.3634737658774607e-07 0.0000000000000000e+00  -6.9836407954489553e-05 -1.5821248854536158e-06 0.0000000000000000e+00  0.0000000000000000e+00 0.0000000000000000e+00 0.0000000000000000e+00  6.6258896751299224e-06 2.7474575473998893e-08 0.0000000000000000e+00  1.3375466077776930e-05 5.8418676895656064e-08 0.0000000000000000e+00  2.0360606690462948e-05 9.6575773723281223e-08 0.0000000000000000e+00  2.7665638543962863e-05 1.4620423776622909e-07 0.0000000000000000e+00  3.5327584904318802e-05 2.1222700255075762e-07 0.0000000000000000e+00  4.3308813315377529e-05 3.0018193267277979e-07 0.0000000000000000e+00  5.1459092465884040e-05 4.1577564671510859e-07 0.0000000000000000e+00  5.9464052213233728e-05 5.6370842178440338e-07 0.0000000000000000e+00  6.6777716861275027e-05 7.4525791834238438e-07 0.0000000000000000e+00  7.2539053203599124e-05 9.5392228684317433e-07 0.0000000000000000e+00  7.5478198869315301e-05 1.1683537910233848e-06 0.0000000000000000e+00  7.3831139152092211e-05 1.3421620854435586e-06 0.0000000000000000e+00  6.5310385211441910e-05 1.3914869370680329e-06 0.0000000000000000e+00  4.7239622157790116e-05 1.1840620025608358e-06 0.0000000000000000e+00  1.7072430895045385e-05 5.3556371652144830e-07 0.0000000000000000e+00  -2.6349578363793233e-05 -8.0168047939532267e-07 0.0000000000000000e+00  0.0000000000000000e+00 0.0000000000000000e+00 0.0000000000000000e+00  8.0613485619808003e-06 2.7561777017798856e-08 0.0000000000000000e+00  1.6303812544102551e-05 5.9032129347118271e-08 0.0000000000000000e+00  2.4898325616925615e-05 9.8757059770344508e-08 0.0000000000000000e+00  3.3991186369255789e-05 1.5196777666931724e-07 0.0000000000000000e+00  4.3685066949363180e-05 2.2521539285637841e-07 0.0000000000000000e+00  5.4011366265802601e-05 3.2672920170192263e-07 0.0000000000000000e+00  6.4890228451037300e-05 4.6653396711212252e-07 0.0000000000000000e+00  7.6074325705986382e-05 6.5598755436884485e-07 0.0000000000000000e+00  8.7073114317870719e-05 9.0611749322589154e-07 0.0000000000000000e+00  9.7056877416208076e-05 1.2237250468190301e-06 0.0000000000000000e+00  1.0474659267165468e-04 1.6037336990638277e-06 0.0000000000000000e+00  1.0831005857356875e-04 2.0158957417025276e-06 0.0000000000000000e+00  1.0531182671039228e-04 2.3842514156064674e-06 0.0000000000000000e+00  9.2808749934844337e-05 2.5595304405940518e-06 0.0000000000000000e+00  6.7738661314233200e-05 2.2888161454035248e-06 0.0000000000000000e+00  2.7773699628650430e-05 1.1936474674359501e-06 0.0000000000000000e+00  0.0000000000000000e+00 0.0000000000000000e+00 0.0000000000000000e+00  9.3109647632727553e-06 2.3707463664368466e-08 0.0000000000000000e+00  1.8871084551630453e-05 5.1314354070608480e-08 0.0000000000000000e+00  2.8923445921708525e-05 8.7312119056584596e-08 0.0000000000000000e+00  3.9694822890210606e-05 1.3745114583451970e-07 0.0000000000000000e+00  5.1380692163638125e-05 2.0952081575071583e-07 0.0000000000000000e+00  6.4121034015063015e-05 3.1427129923998050e-07 0.0000000000000000e+00  7.7962338647076063e-05 4.6641988953978745e-07 0.0000000000000000e+00  9.2800203584469303e-05 6.8550550626803744e-07 0.0000000000000000e+00  1.0829625256747618e-04 9.9599163138079012e-07 0.0000000000000000e+00  1.2376383582553827e-04 1.4253485032398800e-06 0.0000000000000000e+00  1.3802101812508344e-04 1.9977410080312302e-06 0.0000000000000000e+00  1.4921999724853971e-04 2.7193946772697895e-06 0.0000000000000000e+00  1.5468392245619636e-04 3.5501313982241438e-06 0.0000000000000000e+00  1.5081932886303509e-04 4.3555099994810432e-06 0.0000000000000000e+00  1.3322314997583426e-04 4.8393985663845842e-06 0.0000000000000000e+00  9.7148429305891819e-05 4.4760842052627568e-06 0.0000000000000000e+00  0.0000000000000000e+00 0.0000000000000000e+00 0.0000000000000000e+00  1.0306451988425587e-05 1.5923116317072679e-08 0.0000000000000000e+00  2.0936452752822596e-05 3.5130202546983003e-08 0.0000000000000000e+00  3.2214065053382616e-05 6.1583625730841620e-08 0.0000000000000000e+00  4.4460864917383717e-05 1.0075076679248671e-07 0.0000000000000000e+00  5.7988574797309218e-05 1.6069832027799653e-07 0.0000000000000000e+00  7.3082899164121594e-05 2.5362064812076608e-07 0.0000000000000000e+00  8.9973187966858550e-05 3.9794794861434231e-07 0.0000000000000000e+00  1.0878025084491880e-04 6.2108003590739460e-07 0.0000000000000000e+00  1.2943173115471428e-04 9.6247099797225049e-07 0.0000000000000000e+00  1.5153139791805340e-04 1.4759991444613583e-06 0.0000000000000000e+00  1.7416691310315630e-04 2.2288830428978321e-06 0.0000000000000000e+00  1.9564326426588268e-04 3.2913089981375043e-06 0.0000000000000000e+00  2.1314234760003259e-04 4.7060891238772671e-06 0.0000000000000000e+00  2.2234337850386818e-04 6.4220584269065866e-06 0.0000000000000000e+00  2.1710624106593152e-04 8.1733317218767074e-06 0.0000000000000000e+00  1.8942507207154690e-04 9.3010463479930920e-06 0.0000000000000000e+00  0.0000000000000000e+00 0.0000000000000000e+00 0.0000000000000000e+00  1.0973109297049677e-05 4.8316961244899937e-09 0.0000000000000000e+00  2.2343652775724519e-05 1.1636051389430795e-08 0.0000000000000000e+00  3.4518273403890697e-05 2.3014425330933321e-08 0.0000000000000000e+00  4.7919848958204639e-05 4.3032183100572927e-08 0.0000000000000000e+00  6.2991425773079656e-05 7.8458759015093479e-08 0.0000000000000000e+00  8.0193396500577809e-05 1.4073664202682929e-07 0.0000000000000000e+00  9.9988452140795811e-05 2.4910899159322263e-07 0.0000000000000000e+00  1.2280521795836433e-04 4.3544285597812212e-07 0.0000000000000000e+00  1.4896588580586497e-04 7.5125247419184162e-07 0.0000000000000000e+00  1.7855506315972135e-04 1.2769271265746565e-06 0.0000000000000000e+00  2.1119655251078777e-04 2.1314851675502545e-06 0.0000000000000000e+00  2.4569392747285373e-04 3.4769593546497485e-06 0.0000000000000000e+00  2.7948668015943286e-04 5.5027019322006516e-06 0.0000000000000000e+00  3.0789385815400565e-04 8.3596065670000247e-06 0.0000000000000000e+00  3.2319481358436189e-04 1.1994656249289737e-05 0.0000000000000000e+00  3.1377189218867083e-04 1.5827419216858990e-05 0.0000000000000000e+00  0.0000000000000000e+00 0.0000000000000000e+00 0.0000000000000000e+00  1.1236706696571480e-05 -8.2418651740828171e-09 0.0000000000000000e+00  2.2935115773809671e-05 -1.6469878928056455e-08 0.0000000000000000e+00  3.5576126055343836e-05 -2.4281406549168677e-08 0.0000000000000000e+00  4.9678857540575396e-05 -3.0278682180612260e-08 0.0000000000000000e+00  6.5819003708540786e-05 -3.1009550890983171e-08 0.0000000000000000e+00  8.4644652564288533e-05 -1.9014324726838904e-08 0.0000000000000000e+00  1.0688542298190106e-04 2.0732114654038585e-08 0.0000000000000000e+00  1.3334641614672538e-04 1.1712861489989054e-07 0.0000000000000000e+00  1.6487078737026175e-04 3.2371932221330774e-07 0.0000000000000000e+00  2.0224171346957054e-04 7.3612455792932873e-07 0.0000000000000000e+00  2.4597373818245979e-04 1.5179653845526017e-06 0.0000000000000000e+00  2.9591327460773957e-04 2.9338831202765031e-06 0.0000000000000000e+00  3.5053155378701045e-04 5.3776641684586292e-06 0.0000000000000000e+00  4.0576886148223628e-04 9.3575637912241999e-06 0.0000000000000000e+00  4.5333182860913656e-04 1.5351065382545057e-05 0.0000000000000000e+00  4.7857511214289671e-04 2.3376388283488374e-05 0.0000000000000000e+00  0.0000000000000000e+00 0.0000000000000000e+00 0.0000000000000000e+00  1.1032634213103750e-05 -2.1319784824160387e-08 0.0000000000000000e+00  2.2571113715500769e-05 -4.4990015200358447e-08 0.0000000000000000e+00  3.5150407734899738e-05 -7.3411690642973707e-08 0.0000000000000000e+00  4.9366078899749630e-05 -1.0893652009346441e-07 0.0000000000000000e+00  6.5908619992693774e-05 -1.5343292028036131e-07 0.0000000000000000e+00  8.5601756630864593e-05 -2.0709268345992576e-07 0.0000000000000000e+00  1.0944384355144434e-04 -2.6565819826569294e-07 0.0000000000000000e+00  1.3864777957767256e-04 -3.1448618077413239e-07 0.0000000000000000e+00  1.7466711956478300e-04 -3.1651517322059633e-07 0.0000000000000000e+00  2.1918069686794461e-04 -1.8903889008357807e-07 0.0000000000000000e+00  2.7397915576227893e-04 2.3869468401210561e-07 0.0000000000000000e+00  3.4064560602716046e-04 1.2971343279141687e-06 0.0000000000000000e+00  4.1983947084319888e-04 3.5830325470059100e-06 0.0000000000000000e+00  5.0987706815297539e-04 8.0802221490445386e-06 0.0000000000000000e+00  6.0419875184372727e-04 1.6191836424377610e-05 0.0000000000000000e+00  6.8738414371374704e-04 2.9400918649796207e-05 0.0000000000000000e+00  0.0000000000000000e+00 0.0000000000000000e+00 0.0000000000000000e+00  1.0316453416513576e-05 -3.2016378317259865e-08 0.0000000000000000e+00  2.1152272682558737e-05 -6.8707049099091989e-08 0.0000000000000000e+00  3.3063991471758614e-05 -1.1536950041077481e-07 0.0000000000000000e+00  4.6687438547798169e-05 -1.7855228914913676e-07 0.0000000000000000e+00  6.2786904029756509e-05 -2.6667552979002227e-07 0.0000000000000000e+00  8.2316260775172522e-05 -3.9045374909008682e-07 0.0000000000000000e+00  1.0649639985267291e-04 -5.6257727481805485e-07 0.0000000000000000e+00  1.3691226897198625e-04 -7.9527504990558860e-07 0.0000000000000000e+00  1.7562859224862551e-04 -1.0925505868909639e-06 0.0000000000000000e+00  2.2531168823066634e-04 -1.4300663229494486e-06 0.0000000000000000e+00  2.8931684444929426e-04 -1.7082611763864857e-06 0.0000000000000000e+00  3.7163934349685867e-04 -1.6516083341540418e-06 0.0000000000000000e+00  4.7650210948523778e-04 -6.1012579195500948e-07 0.0000000000000000e+00  6.0711868940090412e-04 2.7867883192656924e-06 0.0000000000000000e+00  7.6279798313026324e-04 1.1111291952580452e-05 0.0000000000000000e+00  9.3329229562163791e-04 2.8477027271218173e-05 0.0000000000000000e+00  0.0000000000000000e+00 0.0000000000000000e+00 0.0000000000000000e+00  9.0744230363659335e-06 -3.7988613921139307e-08 0.0000000000000000e+00  1.8642530828117009e-05 -8.2351346528998550e-08 0.0000000000000000e+00  2.9239310082689827e-05 -1.4063924335241920e-07 0.0000000000000000e+00  4.1489393758263871e-05 -2.2297252040248041e-07 0.0000000000000000e+00  5.6166224242994749e-05 -3.4390676358371573e-07 0.0000000000000000e+00  7.4270770276375133e-05 -5.2504511881603930e-07 0.0000000000000000e+00  9.7140312072753742e-05 -7.9863444825937323e-07 0.0000000000000000e+00  1.2660126199808900e-04 -1.2120604922998561e-06 0.0000000000000000e+00  1.6518350093098745e-04 -1.8319570321959452e-06 0.0000000000000000e+00  2.1641452466638014e-04 -2.7430441627470121e-06 0.0000000000000000e+00  2.8520190096193902e-04 -4.0271753506881447e-06 0.0000000000000000e+00  3.7827171327107091e-04 -5.6845522887233478e-06 0.0000000000000000e+00  5.0450985532039761e-04 -7.4075299147716755e-06 0.0000000000000000e+00  6.7474189543804226e-04 -8.0232807997406687e-06 0.0000000000000000e+00  8.9974461588839135e-04 -4.3282251168493957e-06 0.0000000000000000e+00  1.1836114488397436e-03 1.0492537926856198e-05 0.0000000000000000e+00  0.0000000000000000e+00 0.0000000000000000e+00 0.0000000000000000e+00  7.3320758617224048e-06 -3.7524285572140951e-08 0.0000000000000000e+00  1.5088413346913763e-05 -8.1931410349179697e-08 0.0000000000000000e+00  2.3733057065320495e-05 -1.4160796426949868e-07 0.0000000000000000e+00  3.3817499896520729e-05 -2.2834758174702010e-07 0.0000000000000000e+00  4.6041165332371839e-05 -3.6018077665917067e-07 0.0000000000000000e+00  6.1335886210756155e-05 -5.6594010731287202e-07 0.0000000000000000e+00  8.0989749719764453e-05 -8.9289109400964394e-07 0.0000000000000000e+00  1.0683407937294470e-04 -1.4196040149740939e-06 0.0000000000000000e+00  1.4153071721303257e-04 -2.2773911416260589e-06 0.0000000000000000e+00  1.8901707333883512e-04 -3.6844460861597215e-06 0.0000000000000000e+00  2.5519423774975406e-04 -5.9942360170518772e-06 0.0000000000000000e+00  3.4897201185240189e-04 -9.7424459159118876e-06 0.0000000000000000e+00  4.8377988260856950e-04 -1.5607762414279267e-05 0.0000000000000000e+00  6.7949835629864343e-04 -2.3964794843939937e-05 0.0000000000000000e+00  9.6416134902528399e-04 -3.2909801700189985e-05 0.0000000000000000e+00  1.3734050130434514e-03 -3.0288866291747086e-05 0.0000000000000000e+00  0.0000000000000000e+00 0.0000000000000000e+00 0.0000000000000000e+00  5.1587199310203422e-06 -3.0111366906645123e-08 0.0000000000000000e+00  1.0629860846168115e-05 -6.6083879783152775e-08 0.0000000000000000e+00  1.6757604108491271e-05 -1.1519859905236245e-07 0.0000000000000000e+00  2.3956587599494726e-05 -1.8802798435121063e-07 0.0000000000000000e+00  3.2762367038385547e-05 -3.0138977945770147e-07 0.0000000000000000e+00  4.3904428912356673e-05 -4.8348080395054751e-07 0.0000000000000000e+00  5.8417807119305344e-05 -7.8327373837750290e-07 0.0000000000000000e+00  7.7820196611003286e-05 -1.2883101752069837e-06 0.0000000000000000e+00  1.0440096982569495e-04 -2.1592999554503405e-06 0.0000000000000000e+00  1.4170374223866777e-04 -3.6988944681082586e-06 0.0000000000000000e+00  1.9534823845809981e-04 -6.4906705348661882e-06 0.0000000000000000e+00  2.7445500234904826e-04 -1.1682469123212620e-05 0.0000000000000000e+00  3.9415295539976569e-04 -2.1562632079453618e-05 0.0000000000000000e+00  5.8000254040193276e-04 -4.0710729214060556e-05 0.0000000000000000e+00  8.7523041348869170e-04 -7.8184593332965261e-05 0.0000000000000000e+00  1.3478125469840658e-03 -1.5093081338571096e-04 0.0000000000000000e+00  0.0000000000000000e+00 0.0000000000000000e+00 0.0000000000000000e+00  2.6660492993067998e-06 -1.6775641215491123e-08 0.0000000000000000e+00  5.4983442184354237e-06 -3.6935942542845643e-08 0.0000000000000000e+00  8.6809242719383378e-06 -6.4736698700435482e-08 0.0000000000000000e+00  1.2437538948020877e-05 -1.0648124934473920e-07 0.0000000000000000e+00  1.7060769810883268e-05 -1.7244482493327165e-07 0.0000000000000000e+00  2.2955174002270762e-05 -2.8036801188056010e-07 0.0000000000000000e+00  3.0705085404783524e-05 -4.6219490282011480e-07 0.0000000000000000e+00  4.1185660439070829e-05 -7.7768637474697178e-07 0.0000000000000000e+00  5.5750566235797616e-05 -1.3431433438841729e-06 0.0000000000000000e+00  7.6556675919383130e-05 -2.3946947037875743e-06 0.0000000000000000e+00  1.0713151759756365e-04 -4.4337161180002751e-06 0.0000000000000000e+00  1.5334674389026135e-04 -8.5731670979930054e-06 0.0000000000000000e+00  2.2494108469929083e-04 -1.7379686556583609e-05 0.0000000000000000e+00  3.3717379382898943e-04 -3.6895525960877097e-05 0.0000000000000000e+00  5.0926964948952251e-04 -8.1064379471203126e-05 0.0000000000000000e+00  7.4597704052731836e-04 -1.7822698511327622e-04 0.0000000000000000e+00  0.0000000000000000e+00 0.0000000000000000e+00 0.0000000000000000e+00  0.0000000000000000e+00 0.0000000000000000e+00 0.0000000000000000e+00  0.0000000000000000e+00 0.0000000000000000e+00 0.0000000000000000e+00  0.0000000000000000e+00 0.0000000000000000e+00 0.0000000000000000e+00  0.0000000000000000e+00 0.0000000000000000e+00 0.0000000000000000e+00  0.0000000000000000e+00 0.0000000000000000e+00 0.0000000000000000e+00  0.0000000000000000e+00 0.0000000000000000e+00 0.0000000000000000e+00  0.0000000000000000e+00 0.0000000000000000e+00 0.0000000000000000e+00  0.0000000000000000e+00 0.0000000000000000e+00 0.0000000000000000e+00  0.0000000000000000e+00 0.0000000000000000e+00 0.0000000000000000e+00  0.0000000000000000e+00 0.0000000000000000