<?xml version="1.0"?>
<VTKFile type="UnstructuredGrid"  version="0.1"  >
<UnstructuredGrid>
<Piece  NumberOfPoints="289" NumberOfCells="512">
<Points>
<DataArray  type="Float64"  NumberOfComponents="3"  format="ascii">0 0 0  0.0625 0 0  0.125 0 0  0.1875 0 0  0.25 0 0  0.3125 0 0  0.375 0 0  0.4375 0 0  0.5 0 0  0.5625 0 0  0.625 0 0  0.6875 0 0  0.75 0 0  0.8125 0 0  0.875 0 0  0.9375 0 0  1 0 0  0 0.0625 0  0.06262318530368208 0.06247103388289293 0  0.1252505641677486 0.06244144908135177 0  0.1878865028231109 0.0624106489396217 0  0.2505355772949424 0.06237811286402337 0  0.3132026882983917 0.06234344788248813 0  0.3758931917246431 0.06230645570274401 0  0.4386130707750753 0.06226721649113976 0  0.5013692131091727 0.06222618373793311 0  0.5641699473364489 0.06218426993206756 0  0.6270262236739149 0.06214287194457645 0  0.6899544391866829 0.06210371729676097 0  0.7529836529395771 0.06206824674114515 0  0.8161751807445677 0.06203577562638472 0  0.8796791836910965 0.06199810908377857 0  0.9439085593467379 0.06192250080508211 0  1.010116230611728 0.06169253919347505 0  0 0.125 0  0.06274229400286349 0.1249426545475637 0  0.1254929262711272 0.1248840308110763 0  0.188260583518461 0.1248228897047297 0  0.2510543941113741 0.1247581325610695 0  0.3138841691420933 0.1246889000563907 0  0.3767606710173295 0.1246147056182293 0  0.4396959487336448 0.1245356099062708 0  0.5027038282915895 0.1244524332649444 0  0.5658007554464459 0.124366982111704 0  0.6290074248242531 0.1242822243888711 0  0.6923521307678975 0.124202277995049 0  0.7558777558083638 0.1241319779409182 0  0.8196558013612359 0.1240757695775437 0  0.8838108382509335 0.1240363886515017 0  0.9485436692706195 0.1240184807188879 0  1.014044868447193 0.1240654936226722 0  0 0.1875 0  0.0628531477629693 0.187415535023346 0  0.1257186181967806 0.1873290615476645 0  0.1886092516501577 0.1872386176099773 0  0.2515385784818092 0.1871424216681601 0  0.3145211905568874 0.187039008529603 0  0.3775731411805525 0.1869274232974458 0  0.4407124047125614 0.1868074916081297 0  0.5039594571009501 0.1866801777459052 0  0.5673380920106647 0.1865480242606654 0  0.6308766661961255 0.1864156274390845 0  0.6946100258877524 0.1862900267450497 0  0.7585821523352202 0.1861807479611083 0  0.8228481318338698 0.1860989760796298 0  0.8874685183347548 0.1860546444417886 0  0.9524730295328102 0.1860473925774177 0  1.017740230668919 0.1860331553412755 0  0 0.25 0  0.06295175395347931 0.2498904166729558 0  0.1259195341045085 0.2497780067730714 0  0.1889200389876581 0.2496599823186341 0  0.2519709195182757 0.2495337371802045 0  0.3150912861506463 0.249397000590818 0  0.3783022406677569 0.2492480745122844 0  0.4416274459925411 0.2490861908420345 0  0.5050937472406016 0.2489120273853559 0  0.5687318411624166 0.2487284174142667 0  0.6325769164233527 0.2485412662642133 0  0.696668931497131 0.2483606305637563 0  0.7610514468571901 0.2482017854478162 0  0.8257659999705736 0.2480858341433388 0  0.8908348648005544 0.2480388862555781 0  0.9562189185247638 0.2480880615896499 0  1.021738375574246 0.2482536537621123 0  0 0.3125 0  0.06303441913527091 0.3123681246385865 0  0.126088158515794 0.3122325187367125 0  0.1891813444312641 0.3120894618859685 0  0.2523353303955507 0.3119353641953053 0  0.3155733504587067 0.3117669066556374 0  0.378921201910019 0.3115812875643446 0  0.4424079608662234 0.3113766315815084 0  0.5060667154352118 0.311152636537714 0  0.5699352482390314 0.3109115539437287 0  0.6340564622993122 0.3106596148191258 0  0.6984780134115292 0.3104090038176168 0  0.7632498932342043 0.3101804090528474 0  0.8284173702458296 0.3100059519156422 0  0.8940049192628229 0.3099318217296434 0  0.9599867556895669 0.3100192004488361 0  1.026248949973247 0.3103415022857027 0  0 0.375 0  0.06309786888074907 0.3748495641676792 0  0.1262178069950074 0.3746944354529361 0  0.1893827965338008 0.3745298785296586 0  0.2526173281723335 0.3743511738124288 0  0.3159482128149561 0.3741537028169703 0  0.3794054463865151 0.3739331492754535 0  0.443023141631848 0.3736858900086281 0  0.5068405268269767 0.373409686997919 0  0.5709029713320874 0.37310484632941 0  0.6352628968862719 0.3727760809546735 0  0.6999802067707724 0.3724353899869255 0  0.76512142679322 0.3721063000068273 0  0.8307560965814552 0.3718296827807253 0  0.8969485255948817 0.3716708489562506 0  0.9637446290585379 0.3717265136204452 0  1.031161264254461 0.3721287815687853 0  0 0.4375 0  0.06313937604770602 0.4373356918364757 0  0.1263028856249843 0.4371657274623368 0  0.189515649247821 0.4369843314224148 0  0.2528045684447336 0.4367855634701409 0  0.3161993005083597 0.4365633000777665 0  0.3797333295132716 0.4363113191491123 0  0.4434451796156139 0.4360235680528603 0  0.5073798313081974 0.4356947494744505 0  0.5715904220614989 0.4353214488283538 0  0.6361403349810529 0.4349041666672223 0  0.7011057877451866 0.43445081927256 0  0.7665790060085395 0.4339825005578583 0  0.8326720196566024 0.4335424013300935 0  0.8995213327659208 0.4332083228988723 0  0.9672953384212047 0.4331074839463521 0  1.036212706441529 0.4334292240546211 0  0 0.5 0  0.06315689684451088 0.4998274578105802 0  0.1263391697447572 0.4996483825002712 0  0.1895732170746954 0.4994560258434518 0  0.2528874571915523 0.4992432394699761 0  0.3163134526656032 0.4990023055409434 0  0.3798871834118386 0.4987248285862038 0  0.4436505579951893 0.4984017550799945 0  0.5076533108110867 0.4980236489512355 0  0.5719555487166008 0.4975814642048697 0  0.6366314292174029 0.4970682590175365 0  0.7017748354134075 0.4964826467937339 0  0.7675085161148795 0.4958353308556754 0  0.8339989747713653 0.4951607296870231 0  0.9014803403369405 0.4945357735655719 0  0.9702919741872579 0.4941052009651291 0  1.040940802187969 0.4941029837587048 0  0 0.5625 0  0.06314920875398036 0.5623257194190248 0  0.1263240905845447 0.5621442265926075 0  0.1895513337284006 0.5619479906500459 0  0.2528598212921594 0.5617288176195063 0  0.3162818675766094 0.5614774979647438 0  0.3798546486352001 0.5611834431215228 0  0.4436219520570958 0.5608343392948177 0  0.5076364699278469 0.5604158974983164 0  0.5719630748058626 0.5599118859811052 0  0.6366839743940866 0.5593048566751297 0  0.7019075507410922 0.5585784486679434 0  0.7677843484096876 0.5577231094841117 0  0.8345362697470616 0.5567488396099421 0  0.902508127985489 0.5557108737660424 0  0.972253147992223 0.5547532125719536 0  1.044668621390392 0.5541584957825408 0  0 0.625 0  0.06311603825272744 0.624831132307994 0  0.126257004606155 0.624654693020436 0  0.189448792713353 0.6244626977721799 0  0.252719572211288 0.6242462511744681 0  0.3161010781120545 0.6239950076514913 0  0.379630117530189 0.6236965284233659 0  0.443350427419227 0.6233355022686601 0  0.5073151276072572 0.6228928149552063 0  0.5715902806236394 0.622344508366082 0  0.6362607096426709 0.6216608296439595 0  0.7014407081639543 0.6208060048878831 0  0.7672954962149376 0.6197405464803339 0  0.8340854952396647 0.618431017351775 0  0.9022548429308739 0.6168795577614237 0  0.9725928530173584 0.6151952890136984 0  1.046496902361894 0.6137044574396632 0  0 0.6875 0  0.06305816135512905 0.6873440323327544 0  0.1261394095440709 0.6871805661649136 0  0.1892677090734156 0.6870016255565399 0  0.2524692644773062 0.6867981425598825 0  0.3157737912314815 0.686559267233889 0  0.379216000887354 0.6862714803112603 0  0.442837407784528 0.6859174062407669 0  0.5066886368403748 0.6854741915213711 0  0.5708326159141545 0.6849112772855936 0  0.6353496293649978 0.6841873828165247 0  0.7003469108849688 0.6832466377078561 0  0.7659801419139562 0.6820144952474821 0  0.832506223445569 0.680397127323346 0  0.9004127962251278 0.6783008134220606 0  0.9707004601446448 0.6757369759822847 0  1.045391243832964 0.6731372301803216 0  0 0.75 0  0.06297745806224948 0.7498643274449711 0  0.1259750672379419 0.7497217417192148 0  0.1890137363528398 0.7495648358276972 0  0.2521164458757807 0.7493850466954468 0  0.315309426273382 0.7491718917569873 0  0.3786235315946877 0.7489119404026557 0  0.4420958692358415 0.7485873603531371 0  0.5057717372879701 0.748173797881572 0  0.5697069262192437 0.7476372186308424 0  0.6339705980215927 0.7469291181581245 0  0.6986498660355702 0.7459791482469498 0  0.7638611821620043 0.7446836361663107 0  0.8297889216594574 0.7428880355194268 0  0.8968251423701165 0.7403649615094043 0  0.9660447573205451 0.7368299527614027 0  1.040076289090987 0.7324681674996506 0  0 0.8125 0  0.06287690359484596 0.8123914220444212 0  0.1257699976431733 0.8122770532353283 0  0.1886960827678524 0.8121506531800597 0  0.2516737207880405 0.8120049125479164 0  0.3147242467000285 0.8118307251928762 0  0.3778729562904674 0.8116161768915244 0  0.441150497418879 0.8113450667551061 0  0.5045944098948958 0.8109946706703537 0  0.5682505341533528 0.8105322741845229 0  0.6321734823684786 0.809909683309109 0  0.6964243542813611 0.8090543187227605 0  0.7610628750725134 0.8078542002063031 0  0.826135492647849 0.8061309531037091 0  0.8917027328488561 0.8035873564170439 0  0.9582099803241739 0.7997077528912926 0  1.029478904220034 0.7937198316950256 0  0 0.875 0  0.06276048449367204 0.8749241947504887 0  0.1255323192183427 0.874844212892854 0  0.1883272897808523 0.8747555348192537 0  0.2511584855277475 0.8746528169434711 0  0.3140410649966311 0.8745293186724078 0  0.3769931766980882 0.8743760896148631 0  0.4400370650903451 0.8741807540820928 0  0.5032003049641093 0.8739256290362204 0  0.5665168166214778 0.873584740533452 0  0.6300264288891525 0.8731190177266194 0  0.6937691993803562 0.8724684527611031 0  0.7577636861379348 0.8715389825803371 0  0.8219408978095387 0.8701783815773261 0  0.885972198817027 0.8681191520080763 0  0.9489232942594468 0.8647897044133188 0  1.009026090688384 0.8585562875088791 0  0 0.9375 0  0.06263303523169839 0.9374610434945162 0  0.125271925050726 0.9374198994459126 0  0.1879227553757692 0.9373741948109644 0  0.2505923178976215 0.9373211082505942 0  0.3132885372570981 0.9372570542564526 0  0.3760210057609667 0.9371772290540284 0  0.4388016655012561 0.93707492
[...]
<PointData  Vectors="f_54"> 
<DataArray  type="Float64"  Name="f_54"  NumberOfComponents="3" format="ascii">0.0000000000000000e+00 0.0000000000000000e+00 0.0000000000000000e+00  0.0000000000000000e+00 0.0000000000000000e+00 0.0000000000000000e+00  0.0000000000000000e+00 0.0000000000000000e+00 0.0000000000000000e+00  0.0000000000000000e+00 0.0000000000000000e+00 0.0000000000000000e+00  0.0000000000000000e+00 0.0000000000000000e+00 0.0000000000000000e+00  0.0000000000000000e+00 0.0000000000000000e+00 0.0000000000000000e+00  0.0000000000000000e+00 0.0000000000000000e+00 0.0000000000000000e+00  0.0000000000000000e+00 0.0000000000000000e+00 0.0000000000000000e+00  0.0000000000000000e+00 0.0000000000000000e+00 0.0000000000000000e+00  0.0000000000000000e+00 0.0000000000000000e+00 0.0000000000000000e+00  0.0000000000000000e+00 0.0000000000000000e+00 0.0000000000000000e+00  0.0000000000000000e+00 0.0000000000000000e+00 0.0000000000000000e+00  0.0000000000000000e+00 0.0000000000000000e+00 0.0000000000000000e+00  0.0000000000000000e+00 0.0000000000000000e+00 0.0000000000000000e+00  0.0000000000000000e+00 0.0000000000000000e+00 0.0000000000000000e+00  0.0000000000000000e+00 0.0000000000000000e+00 0.0000000000000000e+00  0.0000000000000000e+00 0.0000000000000000e+00 0.0000000000000000e+00  0.0000000000000000e+00 0.0000000000000000e+00 0.0000000000000000e+00  8.5486735555829447e-07 -1.3078749650658517e-07 0.0000000000000000e+00  1.7618777637299926e-06 -2.6573652045244156e-07 0.0000000000000000e+00  2.7785519147120187e-06 -4.0926078317159541e-07 0.0000000000000000e+00  3.9721503009437052e-06 -5.6606612259805280e-07 0.0000000000000000e+00  5.4259500512144285e-06 -7.4137757011109045e-07 0.0000000000000000e+00  7.2474154241908250e-06 -9.4128931036148779e-07 0.0000000000000000e+00  9.5795391140368287e-06 -1.1733518169065459e-06 0.0000000000000000e+00  1.2617698140811485e-05 -1.4476240178526673e-06 0.0000000000000000e+00  1.6636940805057074e-05 -1.7786889887366289e-06 0.0000000000000000e+00  2.2041244929531607e-05 -2.1898583853166939e-06 0.0000000000000000e+00  2.9464504277168421e-05 -2.7229651115526977e-06 0.0000000000000000e+00  4.0006590038549415e-05 -3.4642321883413641e-06 0.0000000000000000e+00  5.5856778018593034e-05 -4.6214325235886488e-06 0.0000000000000000e+00  8.2130505422608715e-05 -6.7793720292936230e-06 0.0000000000000000e+00  1.3290172351604958e-04 -1.1833516844581358e-05 0.0000000000000000e+00  2.5442459393847431e-04 -2.6966310803156329e-05 0.0000000000000000e+00  0.0000000000000000e+00 0.0000000000000000e+00 0.0000000000000000e+00  1.6603539736650206e-06 -2.5781846154999479e-07 0.0000000000000000e+00  3.4212454560461270e-06 -5.2390462118850994e-07 0.0000000000000000e+00  5.3935050579394969e-06 -8.0700135528218554e-07 0.0000000000000000e+00  7.7067745134483649e-06 -1.1163957073055057e-06 0.0000000000000000e+00  1.0521586770863795e-05 -1.4623278508470444e-06 0.0000000000000000e+00  1.4044957695995464e-05 -1.8566028847549349e-06 0.0000000000000000e+00  1.8551598437646303e-05 -2.3135829590539288e-06 0.0000000000000000e+00  2.4414214285045979e-05 -2.8518781274022760e-06 0.0000000000000000e+00  3.2149244816715599e-05 -3.4973161667556922e-06 0.0000000000000000e+00  4.2490744341352506e-05 -4.2882642255558122e-06 0.0000000000000000e+00  5.6519073923762604e-05 -5.2852533987606150e-06 0.0000000000000000e+00  7.5900390411970481e-05 -6.5879254448273009e-06 0.0000000000000000e+00  1.0334435675021802e-04 -8.3601195095373926e-06 0.0000000000000000e+00  1.4341860125463942e-04 -1.0834737450630411e-05 0.0000000000000000e+00  2.0346682548928421e-04 -1.4076508858208842e-05 0.0000000000000000e+00  2.9090026206289403e-04 -1.6142022148203060e-05 0.0000000000000000e+00  0.0000000000000000e+00 0.0000000000000000e+00 0.0000000000000000e+00  2.3675330572144964e-06 -3.7687510521115663e-07 0.0000000000000000e+00  4.8760206929000154e-06 -7.6595907923313603e-07 0.0000000000000000e+00  7.6805777307849642e-06 -1.1800992669085667e-06 0.0000000000000000e+00  1.0962566650162718e-05 -1.6328585541585403e-06 0.0000000000000000e+00  1.4946373743216077e-05 -2.1390211937551789e-06 0.0000000000000000e+00  1.9920844228941050e-05 -2.7153132828080743e-06 0.0000000000000000e+00  2.6267751344270794e-05 -3.3815214043954779e-06 0.0000000000000000e+00  3.4500551130116287e-05 -4.1623085077934670e-06 0.0000000000000000e+00  4.5318023738101148e-05 -5.0901691062665921e-06 0.0000000000000000e+00  5.9679212126031681e-05 -6.2100382429187032e-06 0.0000000000000000e+00  7.8907180383500395e-05 -7.5856738678649988e-06 0.0000000000000000e+00  1.0482313784405018e-04 -9.3057324207840662e-06 0.0000000000000000e+00  1.3987335668989547e-04 -1.1479497222072761e-05 0.0000000000000000e+00  1.8704928777991695e-04 -1.4189321847407372e-05 0.0000000000000000e+00  2.4886140633920378e-04 -1.7324234688578937e-05 0.0000000000000000e+00  3.2327806597031171e-04 -2.0298937127335524e-05 0.0000000000000000e+00  0.0000000000000000e+00 0.0000000000000000e+00 0.0000000000000000e+00  2.9357910417948167e-06 -4.8393274934226784e-07 0.0000000000000000e+00  6.0414921241221628e-06 -9.8377213177413605e-07 0.0000000000000000e+00  9.5035451792863067e-06 -1.5161542283433494e-06 0.0000000000000000e+00  1.3539685761563156e-05 -2.0985159945854600e-06 0.0000000000000000e+00  1.8418925815356421e-05 -2.7496047448980910e-06 0.0000000000000000e+00  2.4486985553431009e-05 -3.4901451486579846e-06 0.0000000000000000e+00  3.2199590552769299e-05 -4.3438181443909087e-06 0.0000000000000000e+00  4.2166322809024455e-05 -5.3388100073531619e-06 0.0000000000000000e+00  5.5207451972054924e-05 -6.5103060044650977e-06 0.0000000000000000e+00  7.2424126427393182e-05 -7.9043131093784932e-06 0.0000000000000000e+00  9.5275120309326749e-05 -9.5827138188158584e-06 0.0000000000000000e+00  1.2563235957992251e-04 -1.1627469912524019e-05 0.0000000000000000e+00  1.6573227297782733e-04 -1.4136318238969924e-05 0.0000000000000000e+00  2.1781212517174055e-04 -1.7190468649395769e-05 0.0000000000000000e+00  2.8299402013921160e-04 -2.0759349569508101e-05 0.0000000000000000e+00  3.5888325989458318e-04 -2.4509639937873700e-05 0.0000000000000000e+00  0.0000000000000000e+00 0.0000000000000000e+00 0.0000000000000000e+00  3.3363276755420569e-06 -5.7525054811631297e-07 0.0000000000000000e+00  6.8576848082028961e-06 -1.1698157630934014e-06 0.0000000000000000e+00  1.0766226361147605e-05 -1.8037670739090568e-06 0.0000000000000000e+00  1.5297503731577412e-05 -2.4980098444645851e-06 0.0000000000000000e+00  2.0741932763901891e-05 -3.2747240103427928e-06 0.0000000000000000e+00  2.7472334926543660e-05 -4.1578408027765986e-06 0.0000000000000000e+00  3.5980188251888508e-05 -5.1736492122638822e-06 0.0000000000000000e+00  4.6923343871760207e-05 -6.3517419398470468e-06 0.0000000000000000e+00  6.1187209510688999e-05 -7.7267182846716250e-06 0.0000000000000000e+00  7.9958308197994031e-05 -9.3413863093249704e-06 0.0000000000000000e+00  1.0480061723508588e-04 -1.1252610949848798e-05 0.0000000000000000e+00  1.3770543606368620e-04 -1.3541225718419990e-05 0.0000000000000000e+00  1.8104645115975669e-04 -1.6327085885024202e-05 0.0000000000000000e+00  2.3731097995385969e-04 -1.9789070698361082e-05 0.0000000000000000e+00  3.0844086199671489e-04 -2.4189763441935814e-05 0.0000000000000000e+00  3.9480695043004168e-04 -2.9915292224666768e-05 0.0000000000000000e+00  0.0000000000000000e+00 0.0000000000000000e+00 0.0000000000000000e+00  3.5544670866073280e-06 -6.4742714708673453e-07 0.0000000000000000e+00  7.2942561158361731e-06 -1.3172565052187820e-06 0.0000000000000000e+00  1.1420512181630550e-05 -2.0326398792282463e-06 0.0000000000000000e+00  1.6166544582765246e-05 -2.8176133431672621e-06 0.0000000000000000e+00  2.1818832223426102e-05 -3.6974447968345945e-06 0.0000000000000000e+00  2.8744576398357095e-05 -4.6988397986539632e-06 0.0000000000000000e+00  3.7428992771404081e-05 -5.8499830595332390e-06 0.0000000000000000e+00  4.8526158777982193e-05 -7.1804906091594644e-06 0.0000000000000000e+00  6.2927373755662422e-05 -8.7216320696851233e-06 0.0000000000000000e+00  8.1849574762485227e-05 -1.0507893703739270e-05 0.0000000000000000e+00  1.0694133533216692e-04 -1.2582563774254205e-05 0.0000000000000000e+00  1.4039236806523024e-04 -1.5013370784152568e-05 0.0000000000000000e+00  1.8501272418348065e-04 -1.7930544811732230e-05 0.0000000000000000e+00  2.4423041442134588e-04 -2.1610327584442718e-05 0.0000000000000000e+00  3.2199247483401553e-04 -2.6642285416128886e-05 0.0000000000000000e+00  4.2278485376766577e-04 -3.4237748013763774e-05 0.0000000000000000e+00  0.0000000000000000e+00 0.0000000000000000e+00 0.0000000000000000e+00  3.5905231303074853e-06 -6.9743673413869798e-07 0.0000000000000000e+00  7.3524121620071278e-06 -1.4199957760406714e-06 0.0000000000000000e+00  1.1469713647691004e-05 -2.1935516012394974e-06 0.0000000000000000e+00  1.6153867475584234e-05 -3.0450250764411491e-06 0.0000000000000000e+00  2.1662037519522347e-05 -4.0026922489164097e-06 0.0000000000000000e+00  2.8322047116075213e-05 -5.0961487137649811e-06 0.0000000000000000e+00  3.6567812462850283e-05 -6.3557164405473971e-06 0.0000000000000000e+00  4.6990829576850203e-05 -7.8110505565210500e-06 0.0000000000000000e+00  6.0415423046644560e-05 -9.4888442395889833e-06 0.0000000000000000e+00  7.8007758954627403e-05 -1.1410222937855636e-05 0.0000000000000000e+00  1.0143004761496423e-04 -1.3590613330526846e-05 0.0000000000000000e+00  1.3305008249567387e-04 -1.6050688293089594e-05 0.0000000000000000e+00  1.7621133416813461e-04 -1.8860544895370658e-05 0.0000000000000000e+00  2.3556923488627155e-04 -2.2266922909737521e-05 0.0000000000000000e+00  3.1755174455223758e-04 -2.7001506461232691e-05 0.0000000000000000e+00  4.3124354027235023e-04 -3.4943442140694154e-05 0.0000000000000000e+00  0.0000000000000000e+00 0.0000000000000000e+00 0.0000000000000000e+00  3.4590640094262696e-06 -7.2267563109659700e-07 0.0000000000000000e+00  7.0635124119532352e-06 -1.4727226787965595e-06 0.0000000000000000e+00  1.0966692650054330e-05 -2.2783241452861227e-06 0.0000000000000000e+00  1.5341164446126327e-05 -3.1690776900799553e-06 0.0000000000000000e+00  2.0391958568521496e-05 -4.1764223389073492e-06 0.0000000000000000e+00  2.6375599770488409e-05 -5.3335721601325724e-06 0.0000000000000000e+00  3.3629157820980513e-05 -6.6745161314469246e-06 0.0000000000000000e+00  4.2616450922967964e-05 -8.2313489775342427e-06 0.0000000000000000e+00  5.4003253207425924e-05 -1.0028830092251497e-05 0.0000000000000000e+00  6.8780745542025484e-05 -1.2074873074867175e-05 0.0000000000000000e+00  8.8466973328532020e-05 -1.4346591512641502e-05 0.0000000000000000e+00  1.1542870211688532e-04 -1.6776475874188681e-05 0.0000000000000000e+00  1.5337661338161516e-04 -1.9259946650711063e-05 0.0000000000000000e+00  2.0809152457726556e-04 -2.1750856012799927e-05 0.0000000000000000e+00  2.8846859277347685e-04 -2.4612932868084955e-05 0.0000000000000000e+00  4.0820058263403054e-04 -2.9579913373644780e-05 0.0000000000000000e+00  0.0000000000000000e+00 0.0000000000000000e+00 0.0000000000000000e+00  3.1865400594507152e-06 -7.2105770263904978e-07 0.0000000000000000e+00  6.4842264892118484e-06 -1.4710688017400423e-06 0.0000000000000000e+00  1.0006398595626265e-05 -2.2799448760304815e-06 0.0000000000000000e+00  1.3874696451495402e-05 -3.1796360971895876e-06 0.0000000000000000e+00  1.8224990490726046e-05 -4.2049255703728245e-06 0.0000000000000000e+00  2.3216857563061184e-05 -5.3937582005994511e-06 0.0000000000000000e+00  2.9050290232621456e-05 -6.7865215931057436e-06 0.0000000000000000e+00  3.5996955685061584e-05 -8.4230930807240694e-06 0.0000000000000000e+00  4.4460278451425923e-05 -1.0335334966152245e-05 0.0000000000000000e+00  5.5091480751174274e-05 -1.2530729410236086e-05 0.0000000000000000e+00  6.9011100142672956e-05 -1.4959812503393674e-05 0.0000000000000000e+00  8.8220402646135867e-05 -1.7457237358787148e-05 0.0000000000000000e+00  1.1632986199573688e-04 -1.9651259316075871e-05 0.0000000000000000e+00  1.5975452649880963e-04 -2.0877923736382955e-05 0.0000000000000000e+00  2.2948595586074215e-04 -2.0290103674725774e-05 0.0000000000000000e+00  3.4361398637550015e-04 -1.7712474297233699e-05 0.0000000000000000e+00  0.0000000000000000e+00 0.0000000000000000e+00 0.0000000000000000e+00  2.8074124083844650e-06 -6.9119271480044082e-07 0.0000000000000000e+00  5.6884325859443981e-06 -1.4119529426883296e-06 0.0000000000000000e+00  8.7128399254125522e-06 -2.1930313235517660e-06 0.0000000000000000e+00  1.1946482347403752e-05 -3.0680461209491912e-06 0.0000000000000000e+00  1.5448357367349450e-05 -4.0749153708172921e-06 0.0000000000000000e+00  1.9267482199086050e-05 -5.2571356598797258e-06 0.0000000000000000e+00  2.3441202176906545e-05 -6.6644414460747039e-06 0.0000000000000000e+00  2.7999817344894417e-05 -8.3516549989923190e-06 0.0000000000000000e+00  3.2989813034979678e-05 -1.0372879952836894e-05 0.0000000000000000e+00  3.8544309422033781e-05 -1.2764435373065302e-05 0.0000000000000000e+00  4.5063753699766944e-05 -1.5501559552123728e-05 0.0000000000000000e+00  5.3637572202451642e-05 -1.8396071671182774e-05 0.0000000000000000e+00  6.6953477647255672e-05 -2.0868779934359847e-05 0.0000000000000000e+00  9.1072763110626107e-05 -2.1494455066478821e-05 0.0000000000000000e+00  1.3836707693291105e-04 -1.7320787620594867e-05 0.0000000000000000e+00  2.3140958253824019e-04 -3.6777149773682818e-06 0.0000000000000000e+00  0.0000000000000000e+00 0.0000000000000000e+00 0.0000000000000000e+00  2.3591678431813046e-06 -6.3265939617505374e-07 0.0000000000000000e+00  4.7565694841825570e-06 -1.2941602860215974e-06 0.0000000000000000e+00  7.2213608198852226e-06 -2.0147690701272290e-06 0.0000000000000000e+00  9.7673369056560711e-06 -2.8284668673243423e-06 0.0000000000000000e+00  1.2381130025495635e-05 -3.7751715766706956e-06 0.0000000000000000e+00  1.5005372524384859e-05 -4.9034004837851594e-06 0.0000000000000000e+00  1.7514931085034280e-05 -6.2733795577136382e-06 0.0000000000000000e+00  1.9685373073166668e-05 -7.9601915916637038e-06 0.0000000000000000e+00  2.1157184189452408e-05 -1.0055302094713297e-05 0.0000000000000000e+00  2.1412832334964746e-05 -1.2661189123521170e-05 0.0000000000000000e+00  1.9821415471860056e-05 -1.5863514587048557e-05 0.0000000000000000e+00  1.5902723362192541e-05 -1.9635768090542992e-05 0.0000000000000000e+00  1.0194587362523689e-05 -2.3545971293552053e-05 0.0000000000000000e+00  6.5757107409676165e-06 -2.5897769740338675e-05 0.0000000000000000e+00  1.7211981711525394e-05 -2.1476175743176917e-05 0.0000000000000000e+00  6.8895876926424119e-05 2.3122166226541403e-06 0.0000000000000000e+00  0.0000000000000000e+00 0.0000000000000000e+00 0.0000000000000000e+00  1.8768995778733005e-06 -5.4634323345266180e-07 0.0000000000000000e+00  3.7638326896742664e-06 -1.1191063804851115e-06 0.0000000000000000e+00  5.6583492750798920e-06 -1.7462878674060009e-06 0.0000000000000000e+00  7.5345078678549716e-06 -2.4601644985558018e-06 0.0000000000000000e+00  9.3242400557728648e-06 -3.3001851981772290e-06 0.0000000000000000e+00  1.0889047630358193e-05 -4.3169949802388467e-06 0.0000000000000000e+00  1.1975893033207834e-05 -5.5783005012324483e-06 0.0000000000000000e+00  1.2148361374184039e-05 -7.1776080637391394e-06 0.0000000000000000e+00  1.0681247761628906e-05 -9.2471630903688870e-06 0.0000000000000000e+00  6.4073389373097063e-06 -1.1976090276534166e-05 0.0000000000000000e+00  -2.4767296258562319e-06 -1.5631192053799476e-05 0.0000000000000000e+00  -1.8556053099631920e-05 -2.0560400042973194e-05 0.0000000000000000e+00  -4.4908202111352310e-05 -2.7080782399826718e-05 0.0000000000000000e+00  -8.3014993170846821e-05 -3.4790452522814126e-05 0.0000000000000000e+00  -1.2456051054591578e-04 -3.9044744023957144e-05 0.0000000000000000e+00  -1.3731963566947287e-04 -1.7691947662445197e-05 0.0000000000000000e+00  0.0000000000000000e+00 0.0000000000000000e+00 0.0000000000000000e+00  1.3883920160643338e-06 -4.3475785611787233e-07 0.0000000000000000e+00  2.7692580604273902e-06 -8.9160943925074611e-07 0.0000000000000000e+00  4.1218669881411991e-06 -1.3941812564615875e-06 0.0000000000000000e+00  5.3993472617019789e-06 -1.9703427931638459e-06 0.0000000000000000e+00  6.5073918991245351e-06 -2.6553167100780012e-06 0.0000000000000000e+00  7.2706487550874750e-06 -3.4963780616435418e-06 0.0000000000000000e+00  7.3774300815425162e-06 -4.5604314504577137e-06 0.0000000000000000e+00  6.2865645011919224e-06 -5.9468228959431179e-06 0.0000000000000000e+00  3.0680329222816091e-06 -7.8098562567820080e-06 0.0000000000000000e+00  -3.8715735278043371e-06 -1.0399768556992783e-05 0.0000000000000000e+00  -1.7257131448331374e-05 -1.4139848726704247e-05 0.0000000000000000e+00  -4.1701747913854343e-05 -1.9776213527010701e-05 0.0000000000000000e+00  -8.4725364544842920e-05 -2.8672851517613303e-05 0.0000000000000000e+00  -1.5717864511191553e-04 -4.3339911479758897e-05 0.0000000000000000e+00  -2.6790792064371074e-04 -6.7493607344311412e-05 0.0000000000000000e+00  -3.6960521971501860e-04 -8.7956179306678835e-05 0.0000000000000000e+00  0.0000000000000000e+00 0.0000000000000000e+00 0.0000000000000000e+00  9.1074738740107505e-07 -3.0223058435070528e-07 0.0000000000000000e+00  1.8080666976450600e-06 -6.2038883760871364e-07 0.0000000000000000e+00  2.6675835645879918e-06 -9.7162600648286367e-07 0.0000000000000000e+00  3.4426343332191107e-06 -1.3765207972431391e-06 0.0000000000000000e+00  4.0457645369193335e-06 -1.8617166979960631e-06 0.0000000000000000e+00  4.3187904911130014e-06 -2.4640905795235893e-06 0.0000000000000000e+00  3.9818364945573157e-06 -3.2378108298073659e-06 0.0000000000000000e+00  2.5433379334074946e-06 -4.2669181747168218e-06 0.0000000000000000e+00  -8.6437823068864451e-07 -5.6887565684091301e-06 0.0000000000000000e+00  -7.7960257534122163e-06 -7.7395071012607782e-06 0.0000000000000000e+00  -2.1101136211432199e-05 -1.0846922604669739e-05 0.0000000000000000e+00  -4.6140304553818181e-05 -1.5831064943510149e-05 0.0000000000000000e+00  -9.3205403263833797e-05 -2.4382194195288954e-05 0.0000000000000000e+00  -1.8197005468507615e-04 -4.0397640823512852e-05 0.0000000000000000e+00  -3.4785109128008927e-04 -7.4733956625297576e-05 0.0000000000000000e+00  -6.4944349502147529e-04 -1.6606804193777228e-04 0.0000000000000000e+00  0.0000000000000000e+00 0.0000000000000000e+00 0.0000000000000000e+00  4.4941629660117038e-07 -1.5483394794571357e-07 0.0000000000000000e+00  8.8934013437149415e-07 -3.1799492224727382e-07 0.0000000000000000e+00  1.3041202376607405e-06 -4.9848469900061881e-07 0.0000000000000000e+00  1.6653867962009871e-06 -7.0720806240735000e-07 0.0000000000000000e+00  1.9214004579028463e-06 -9.5847173365101837e-07 0.0000000000000000e+00  1.9796043912490408e-06 -1.2724006930017853e-06 0.0000000000000000e+00  1.6764061275214975e-06 -1.6791054103531048e-06 0.0000000000000000e+00  7.2248958246693673e-07 -2.2262213195151107e-06 0.0000000000000000e+00  -1.4006910239652295e-06 -2.9930495255797216e-06 0.0000000000000000e+00  -5.6470736446125643e-06 -4.1177274131801950e-06 0.0000000000000000e+00  -1.3841422758123596e-05 -5.8495627480427631e-06 0.0000000000000000e+00  -2.9657978044071730e-05 -8.6444200910832192e-06 0.0000000000000000e+00  -6.0926072706340872e-05 -1.3296064024521861e-05 0.0000000000000000e+00  -1.2486395128729125e-04 -2.0840317626250839e-05 0.0000000000000000e+00  -2.5534931258953730e-04 -3.0643434706302358e-05 0.0000000000000000e+00  -4.7915867077784091e-04 -3.3741793332862071e-05 0.0000000000000000e+00  0.0000000000000000e+00 0.0000000000000000e+00 0.0000000000000000e+00  0.0000000000000000e+00 0.0000000000000000e+00 0.0000000000000000e+00  0.0000000000000000e+00 0.0000000000000000e+00 0.0000000000000000e+00  0.0000000000000000e+00 0.0000000000000000e+00 0.0000000000000000e+00  0.0000000000000000e+00 0.0000000000000000e+00 0.0000000000000000e+00  0.0000000000000000e+00 0.0000000000000000e+00 0.0000000000000000e+00  0.0000000000000000e+00 0.0000000000000000e+00 0.0000000000000000e+00  0.0000000000000000e+00 0.0000000000000000e+00 0.0000000000000000e+00  0.0000000000000000e+00 0