<?xml version="1.0"?>
<VTKFile type="UnstructuredGrid"  version="0.1"  >
<UnstructuredGrid>
<Piece  NumberOfPoints="289" NumberOfCells="512">
<Points>
<DataArray  type="Float64"  NumberOfComponents="3"  format="ascii">0 0 0  0.0625 0 0  0.125 0 0  0.1875 0 0  0.25 0 0  0.3125 0 0  0.375 0 0  0.4375 0 0  0.5 0 0  0.5625 0 0  0.625 0 0  0.6875 0 0  0.75 0 0  0.8125 0 0  0.875 0 0  0.9375 0 0  1 0 0  0 0.0625 0  0.06247629624037408 0.06247881589568517 0  0.1249526852726403 0.06245726764025385 0  0.187429353519031 0.06243502258224406 0  0.2499067613180547 0.06241183005548493 0  0.3123858265234802 0.0623875738893846 0  0.3748681730666755 0.06236233729913332 0  0.4373564820338827 0.0623364801437154 0  0.4998550074422135 0.06231072250972652 0  0.5623703755654063 0.06228621764827426 0  0.6249129260662466 0.06226457896957116 0  0.6874992175085658 0.06224779723869183 0  0.7501573267796885 0.06223794180998976 0  0.8129395052450785 0.0622364740185397 0  0.875955703548039 0.06224286575979208 0  0.9394698017119819 0.06225187775433676 0  1.004192267839634 0.06224993011139478 0  0 0.125 0  0.06245250632084086 0.1249579825013509 0  0.1249050804565578 0.1249151958910019 0  0.1873579675971209 0.1248709296665493 0  0.2498119339579835 0.1248246280641566 0  0.3122686186654758 0.1247759923133891 0  0.3747310114850645 0.1247251110636798 0  0.4372041241291372 0.1246726221584631 0  0.4996959578955182 0.1246198988509773 0  0.5622189416621755 0.1245692341725658 0  0.6247921656402434 0.1245239633277927 0  0.6874450607792162 0.1244884112387085 0  0.7502238395555387 0.1244674854058434 0  0.8132031846593666 0.1244657008899105 0  0.8765067337381012 0.1244856498209602 0  0.9403354791837966 0.1245273125157769 0  1.004967844469295 0.1245948302696757 0  0 0.1875 0  0.06242870870384358 0.1874379122361823 0  0.1248572258394083 0.1873745757099882 0  0.1872855965147344 0.1873088180869732 0  0.2497145694929042 0.1872396744248979 0  0.3121460781569587 0.1871665316232978 0  0.3745838968713435 0.1870893220086956 0  0.4370345581768684 0.1870087781103972 0  0.4995086439396564 0.1869267506399571 0  0.5620226052970012 0.1868465691123822 0  0.6246013255877997 0.186773379415335 0  0.6872817032016274 0.1867143090195885 0  0.750117492866628 0.1866781605512237 0  0.8131850636492707 0.1866740499207447 0  0.8765871738462604 0.1867077385135939 0  0.9404438301949772 0.1867723032180765 0  1.00484202733122 0.1868218831468903 0  0 0.25 0  0.06240521626633295 0.249919091320119 0  0.124809661767552 0.2498363560784856 0  0.1872128250227559 0.2497500470877882 0  0.249614984311453 0.2496586440814348 0  0.3120177604722377 0.2495610250738986 0  0.3744248831535549 0.2494567120907884 0  0.4368432676597299 0.2493462190278874 0  0.4992845156702395 0.2492315258237746 0  0.5617669576978004 0.249116687563691 0  0.6243183188899269 0.2490085460695081 0  0.6869789393251471 0.2489174211863944 0  0.7498050385016595 0.2488574796225461 0  0.8128703937200517 0.24884615011049 0  0.8762623362241782 0.2489014136113094 0  0.9400637548066306 0.2490352123530375 0  1.004309641496395 0.2492424313464842 0  0 0.3125 0  0.06238264878925535 0.3124021022491202 0  0.1247635891417074 0.3123016952034689 0  0.1871413486943317 0.3121963312771655 0  0.249515209673901 0.3120837619831678 0  0.3118857628319028 0.3119621101830354 0  0.3742557034610631 0.3118301415692259 0  0.4366309824198043 0.3116876842007321 0  0.499022441577486 0.311536255462627 0  0.5614480570484753 0.3113799610632668 0  0.6239358427724105 0.3112267168417189 0  0.6865272473437956 0.3110897824757197 0  0.7492803632615548 0.3109894334430515 0  0.8122712749549056 0.3109542525249935 0  0.8755903858719289 0.3110209208762461 0  0.9393295100765408 0.311230621866978 0  1.003558479236959 0.3116197807509006 0  0 0.375 0  0.06236195908140479 0.3748876295083377 0  0.1247209335601063 0.3747719783738739 0  0.1870741002992079 0.3746497847980904 0  0.2494192177707128 0.3745178984542072 0  0.3117550986368186 0.3743734155338858 0  0.3740823409213666 0.3742139289592681 0  0.4364044552088168 0.374037963935803 0  0.4987295635374646 0.3738457001983199 0  0.5610728728166831 0.373640122735779 0  0.6234601030933623 0.3734287846309343 0  0.6859319019901255 0.3732263818834464 0  0.748548879675206 0.373058261528482 0  0.8113961407601274 0.3729646677714902 0  0.8745852015404713 0.3730047513461376 0  0.9382509191488991 0.3732579405038276 0  1.002544004269947 0.3738184127347665 0  0 0.4375 0  0.06234440419982861 0.4373764423038657 0  0.1246842950334207 0.4372487886001913 0  0.1870151936170422 0.4371128922117886 0  0.2493328865565151 0.4369645646603644 0  0.3116337240882688 0.4367996256960042 0  0.3739151694423601 0.4366140644150477 0  0.4361767639947675 0.4364043944784062 0  0.4984217540698325 0.4361683398183906 0  0.5606597323081506 0.4359060720207051 0  0.6229107614776725 0.4356223460198153 0  0.6852115128436663 0.4353300418003722 0  0.7476238326241328 0.4350557579711635 0  0.8102456370471868 0.4348480185656838 0  0.8732229946256607 0.434787877905142 0  0.9367612448184274 0.4349995308324438 0  1.001134542724515 0.4356548116387948 0  0 0.5 0  0.06233145746502731 0.4998693494405529 0  0.1246567729010736 0.4997338181197969 0  0.1869696653361995 0.4995883823007011 0  0.2492636724945589 0.4994277639818476 0  0.3115321766288541 0.499246346024893 0  0.3737686305836253 0.4990381641412983 0  0.4359671602479786 0.4987970520382324 0  0.4981238538163651 0.498517083463766 0  0.5602392696681867 0.4981935778745528 0  0.6223230344217529 0.4978251546305543 0  0.6844018618619564 0.4974176877524012 0  0.7465327871208473 0.496991563618372 0  0.8088234791306266 0.4965942494139129 0  0.8714603431075815 0.4963201492327642 0  0.934742128978741 0.4963371704275756 0  0.9991149669437861 0.4969117809567534 0  0 0.5625 0  0.06232466218220261 0.5623671249273013 0  0.1246416648525678 0.5622287155414293 0  0.1869430056769918 0.5620789901273416 0  0.2492199627942 0.5619116642817463 0  0.3114627612316445 0.5617196923214304 0  0.3736603247317599 0.5614950173232387 0  0.435800258284552 0.5612283708018322 0  0.4978693786001036 0.5609092234672706 0  0.5598554426239117 0.5605261165319964 0  0.6217513393294291 0.5600678723137088 0  0.6835640676828839 0.5595267404388241 0  0.7453324181749107 0.5589056443664098 0  0.8071590376194869 0.5582336795733894 0  0.8692626771267213 0.5575966603112669 0  0.9320506912305948 0.5571896530308015 0  0.9961975578726955 0.5573867329352125 0  0 0.625 0  0.06232543534488812 0.624870408614525 0  0.1246420532350132 0.6247348755545226 0  0.1869404874258967 0.6245871125029215 0  0.2492100955510988 0.6244200846391005 0  0.3114382170538788 0.6242255667919383 0  0.3736093308449854 0.6239936140852247 0  0.4357041591806801 0.623711924008527 0  0.4976989210988754 0.6233650897527592 0  0.5595653071251852 0.622933815939029 0  0.6212725666821142 0.6223943692530832 0  0.6827948232187366 0.6217190831971262 0  0.7441300814480988 0.6208801844549393 0  0.8053430178374905 0.6198628931151547 0  0.8666500386614707 0.6187021237851013 0  0.928562279375501 0.6175697719824059 0  0.9920742207797255 0.616931449276868 0  0 0.6875 0  0.06233483980839161 0.6873795934273791 0  0.1246603136833598 0.6872531944731275 0  0.1869663385623592 0.6871143913573659 0  0.2492410855351389 0.6869558387949447 0  0.3114698527754909 0.686768658359218 0  0.3736336039445031 0.686541655696416 0  0.4357070464524028 0.6862602536894072 0  0.4976561776849873 0.6859050009633871 0  0.5594354591383072 0.6854494648682155 0  0.6209855015857083 0.6848572849330655 0  0.6822341277313047 0.6840782819984901 0  0.7431086941953428 0.6830443471882155 0  0.8035791944312103 0.6816695212895308 0  0.8637744925321273 0.6798730360330454 0  0.9242357506579919 0.6776921245948486 0  0.9863042479648769 0.6755979275570925 0  0 0.75 0  0.06235335566387272 0.7498947177648791 0  0.1246976096411741 0.7497838315747931 0  0.1870228567936474 0.7496612920796828 0  0.2493171839108404 0.7495200377534788 0  0.3115652820046988 0.749351313702033 0  0.3737465024525611 0.7491437378562378 0  0.4358320226940838 0.7488819515296572 0  0.4977806498614644 0.7485445919898361 0  0.5595326618321463 0.748101142150474 0  0.621001174030607 0.7475068665106951 0  0.6820615774184366 0.7466943815311911 0  0.7425440645322851 0.7455592484973157 0  0.8022497084871499 0.7439357853036644 0  0.8610590637647352 0.7415643244857667 0  0.9193326985403772 0.7381130257607356 0  0.9786972509729304 0.7338951533432714 0  0 0.8125 0  0.06238069275757201 0.8124153858322958 0  0.1247534649915785 0.8123260272154565 0  0.1871096248466604 0.8122267682547516 0  0.2494385200554546 0.8121115055365601 0  0.311726116497051 0.8119725326715893 0  0.3739529011285743 0.8117996183652983 0  0.4360906159642221 0.8115786385571463 0  0.4980969861359498 0.8112894661937429 0  0.5599069994989894 0.8109025975021488 0  0.6214182844053581 0.8103735225798625 0  0.682466697078375 0.8096327423709997 0  0.7427873690176706 0.8085664472058406 0  0.8019623863055859 0.8069748012321549 0  0.8594000051562627 0.8044715791610092 0  0.9146368036639456 0.8002189698202952 0  0.9700581967148528 0.7920782215556138 0  0 0.875 0  0.06241569125585517 0.8749407376066531 0  0.1248255231396802 0.8748780277867453 0  0.1872230287596917 0.8748081068957396 0  0.2496001801870838 0.8747264771891963 0  0.311946219947195 0.8746273917448408 0  0.3742458778102924 0.874503122554647 0  0.4364764732341913 0.8743428696697321 0  0.4986029763010694 0.8741310898044881 0  0.5605692243885924 0.8738448960904052 0  0.6222816468459108 0.8734499755842816 0  0.6835778566131396 0.8728940739325259 0  0.7441636744206679 0.8720959067744862 0  0.80348294529453 0.8709222113713206 0  0.8604459907245301 0.8691216288908253 0  0.9128927053810633 0.866078984739151 0  0.9567711161670582 0.8598068077048847 0  0 0.9375 0  0.06245635001113807 0.9374694827141462 0  0.1249095889750654 0.937437151458658 0  0.1873562731840016 0.9374010206886124 0  0.2497920985522501 0.9373587048672997 0  0.3122112460730592 0.9373071362299304 0  0.3746053655367409 0.9372421632311719 0  0.4369618878677921 0.9371
[...]
<PointData  Vectors="f_54"> 
<DataArray  type="Float64"  Name="f_54"  NumberOfComponents="3" format="ascii">0.0000000000000000e+00 0.0000000000000000e+00 0.0000000000000000e+00  0.0000000000000000e+00 0.0000000000000000e+00 0.0000000000000000e+00  0.0000000000000000e+00 0.0000000000000000e+00 0.0000000000000000e+00  0.0000000000000000e+00 0.0000000000000000e+00 0.0000000000000000e+00  0.0000000000000000e+00 0.0000000000000000e+00 0.0000000000000000e+00  0.0000000000000000e+00 0.0000000000000000e+00 0.0000000000000000e+00  0.0000000000000000e+00 0.0000000000000000e+00 0.0000000000000000e+00  0.0000000000000000e+00 0.0000000000000000e+00 0.0000000000000000e+00  0.0000000000000000e+00 0.0000000000000000e+00 0.0000000000000000e+00  0.0000000000000000e+00 0.0000000000000000e+00 0.0000000000000000e+00  0.0000000000000000e+00 0.0000000000000000e+00 0.0000000000000000e+00  0.0000000000000000e+00 0.0000000000000000e+00 0.0000000000000000e+00  0.0000000000000000e+00 0.0000000000000000e+00 0.0000000000000000e+00  0.0000000000000000e+00 0.0000000000000000e+00 0.0000000000000000e+00  0.0000000000000000e+00 0.0000000000000000e+00 0.0000000000000000e+00  0.0000000000000000e+00 0.0000000000000000e+00 0.0000000000000000e+00  0.0000000000000000e+00 0.0000000000000000e+00 0.0000000000000000e+00  0.0000000000000000e+00 0.0000000000000000e+00 0.0000000000000000e+00  -3.1562962537181980e-06 -1.6719035848444679e-07 0.0000000000000000e+00  -6.4149151942428579e-06 -3.3736877502914980e-07 0.0000000000000000e+00  -9.8818008555410061e-06 -5.1328242614584066e-07 0.0000000000000000e+00  -1.3666090780618409e-05 -6.9692042956935060e-07 0.0000000000000000e+00  -1.7881477060017355e-05 -8.8897554203038687e-07 0.0000000000000000e+00  -2.2647260546206492e-05 -1.0881005084516282e-06 0.0000000000000000e+00  -2.8089302172209490e-05 -1.2898775585373694e-06 0.0000000000000000e+00  -3.4341750325478197e-05 -1.4854048360490197e-06 0.0000000000000000e+00  -4.1552244627750787e-05 -1.6593540521522721e-06 0.0000000000000000e+00  -4.9898249362911066e-05 -1.7871537628675987e-06 0.0000000000000000e+00  -5.9636164473556827e-05 -1.8301707118332471e-06 0.0000000000000000e+00  -7.1246836810632671e-05 -1.7248002379435836e-06 0.0000000000000000e+00  -8.5876455433790089e-05 -1.3501238658711874e-06 0.0000000000000000e+00  -1.0674449993785401e-04 -4.1453647773318090e-07 0.0000000000000000e+00  -1.4399968117187099e-04 1.9837175832085218e-06 0.0000000000000000e+00  -2.3347432720341406e-04 9.2468694346135672e-06 0.0000000000000000e+00  0.0000000000000000e+00 0.0000000000000000e+00 0.0000000000000000e+00  -6.2057011097741435e-06 -3.3115038309445721e-07 0.0000000000000000e+00  -1.2614283399346648e-05 -6.6862110058054509e-07 0.0000000000000000e+00  -1.9435788555900840e-05 -1.0183073651461049e-06 0.0000000000000000e+00  -2.6886959126318860e-05 -1.3847239555581187e-06 0.0000000000000000e+00  -3.5194059070653244e-05 -1.7700054021066138e-06 0.0000000000000000e+00  -4.4594897847052769e-05 -2.1725038635107245e-06 0.0000000000000000e+00  -5.5340074832795100e-05 -2.5848262089562972e-06 0.0000000000000000e+00  -6.7694126611362554e-05 -2.9911458609522928e-06 0.0000000000000000e+00  -8.1938983927088080e-05 -3.3636309399977277e-06 0.0000000000000000e+00  -9.8386330503351279e-05 -3.6578372135539508e-06 0.0000000000000000e+00  -1.1741513292911634e-04 -3.8068857492716941e-06 0.0000000000000000e+00  -1.3957144915749373e-04 -3.7142609113228288e-06 0.0000000000000000e+00  -1.6580479575506292e-04 -3.2466158981955086e-06 0.0000000000000000e+00  -1.9793590077837777e-04 -2.2422561568470434e-06 0.0000000000000000e+00  -2.3912639886584770e-04 -6.4748984209391694e-07 0.0000000000000000e+00  -2.9121407156860519e-04 5.1288212348654499e-07 0.0000000000000000e+00  0.0000000000000000e+00 0.0000000000000000e+00 0.0000000000000000e+00  -9.0457412766622831e-06 -4.8844069560052061e-07 0.0000000000000000e+00  -1.8391438214231470e-05 -9.8716148330306499e-07 0.0000000000000000e+00  -2.8347594884956655e-05 -1.5059396705293416e-06 0.0000000000000000e+00  -3.9235552947748793e-05 -2.0528086450850099e-06 0.0000000000000000e+00  -5.1392043920926709e-05 -2.6327439086478183e-06 0.0000000000000000e+00  -6.5172289236842273e-05 -3.2457628379034971e-06 0.0000000000000000e+00  -8.0951084904684891e-05 -3.8841928747146284e-06 0.0000000000000000e+00  -9.9121368650857591e-05 -4.5288559662915916e-06 0.0000000000000000e+00  -1.2009003503788383e-04 -5.1439786506506150e-06 0.0000000000000000e+00  -1.4427122704113664e-04 -5.6708668458600299e-06 0.0000000000000000e+00  -1.7207715373226748e-04 -6.0210020595005308e-06 0.0000000000000000e+00  -2.0390117317007454e-04 -6.0707499495250071e-06 0.0000000000000000e+00  -2.4005928920321597e-04 -5.6636242184292914e-06 0.0000000000000000e+00  -2.8054122127793384e-04 -4.6344335585247810e-06 0.0000000000000000e+00  -3.2403614851204537e-04 -2.8785585801459022e-06 0.0000000000000000e+00  -3.6470463603108385e-04 -4.0287619750351279e-07 0.0000000000000000e+00  0.0000000000000000e+00 0.0000000000000000e+00 0.0000000000000000e+00  -1.1577854232617498e-05 -6.3500949323688524e-07 0.0000000000000000e+00  -2.3547188752637540e-05 -1.2850430047988496e-06 0.0000000000000000e+00  -3.6313231730033731e-05 -1.9646918088475801e-06 0.0000000000000000e+00  -5.0297151980255437e-05 -2.6868077039033110e-06 0.0000000000000000e+00  -6.5942920393089840e-05 -3.4610925133484224e-06 0.0000000000000000e+00  -8.3722164221994736e-05 -4.2919441113311128e-06 0.0000000000000000e+00  -1.0413581119570991e-04 -5.1752030355984992e-06 0.0000000000000000e+00  -1.2771068541458754e-04 -6.0933838516964626e-06 0.0000000000000000e+00  -1.5498803579326199e-04 -7.0089838625772685e-06 0.0000000000000000e+00  -1.8649846344636665e-04 -7.8556812856940349e-06 0.0000000000000000e+00  -2.2271173413185882e-04 -8.5279726631248086e-06 0.0000000000000000e+00  -2.6393499285561111e-04 -8.8716627811556979e-06 0.0000000000000000e+00  -3.1009590684278129e-04 -8.6816744606677579e-06 0.0000000000000000e+00  -3.6026339913019411e-04 -7.7213218658326445e-06 0.0000000000000000e+00  -4.1160854865878116e-04 -5.7893739834873812e-06 0.0000000000000000e+00  -4.5742602440787089e-04 -2.8826204084015949e-06 0.0000000000000000e+00  0.0000000000000000e+00 0.0000000000000000e+00 0.0000000000000000e+00  -1.3709674564801988e-05 -7.6604624200489276e-07 0.0000000000000000e+00  -2.7894237198704266e-05 -1.5526232927181513e-06 0.0000000000000000e+00  -4.3045302936311648e-05 -2.3800731921101516e-06 0.0000000000000000e+00  -5.9676732362258893e-05 -3.2674530068047491e-06 0.0000000000000000e+00  -7.8334671804891867e-05 -4.2313141133309073e-06 0.0000000000000000e+00  -9.9605461020439888e-05 -5.2836452916844879e-06 0.0000000000000000e+00  -1.2411986024216695e-04 -6.4285026369945363e-06 0.0000000000000000e+00  -1.5255100524909604e-04 -7.6566713346490664e-06 0.0000000000000000e+00  -1.8560161377653220e-04 -8.9375103823081711e-06 0.0000000000000000e+00  -2.2397240626753607e-04 -1.0207027898435570e-05 0.0000000000000000e+00  -2.6829676191482188e-04 -1.1351501195125961e-05 0.0000000000000000e+00  -3.1901311390172474e-04 -1.2187204192243650e-05 0.0000000000000000e+00  -3.7612180600091709e-04 -1.2440147890635098e-05 0.0000000000000000e+00  -4.3873538534001022e-04 -1.1736679336989727e-05 0.0000000000000000e+00  -5.0430373976030401e-04 -9.6270108655055620e-06 0.0000000000000000e+00  -5.6748893054378569e-04 -5.6751541397799912e-06 0.0000000000000000e+00  0.0000000000000000e+00 0.0000000000000000e+00 0.0000000000000000e+00  -1.5357758721929239e-05 -8.7601363906043208e-07 0.0000000000000000e+00  -3.1262530478715005e-05 -1.7785920878933459e-06 0.0000000000000000e+00  -4.8280748809976900e-05 -2.7345317076427093e-06 0.0000000000000000e+00  -6.7008578241526905e-05 -3.7702804053211488e-06 0.0000000000000000e+00  -8.8086108830644390e-05 -4.9112455210060173e-06 0.0000000000000000e+00  -1.1220993292508283e-04 -6.1802995604775979e-06 0.0000000000000000e+00  -1.4014268754154450e-04 -7.5949272679843842e-06 0.0000000000000000e+00  -1.7271708496618062e-04 -9.1621275972434550e-06 0.0000000000000000e+00  -2.1083014767902673e-04 -1.0869676495868012e-05 0.0000000000000000e+00  -2.5542026475427738e-04 -1.2671649283113820e-05 0.0000000000000000e+00  -3.0741439712441196e-04 -1.4465304599487539e-05 0.0000000000000000e+00  -3.6762409844164171e-04 -1.6056037726637630e-05 0.0000000000000000e+00  -4.3655652290481656e-04 -1.7108449795208430e-05 0.0000000000000000e+00  -5.1409454066372515e-04 -1.7087250567525446e-05 0.0000000000000000e+00  -5.9900825566762135e-04 -1.5204795479343238e-05 0.0000000000000000e+00  -6.8833914798577559e-04 -1.0411740260200171e-05 0.0000000000000000e+00  0.0000000000000000e+00 0.0000000000000000e+00 0.0000000000000000e+00  -1.6450813117587354e-05 -9.5889231444046678e-07 0.0000000000000000e+00  -3.3505739866999066e-05 -1.9504502020865945e-06 0.0000000000000000e+00  -5.1790601209383646e-05 -3.0081357645558757e-06 0.0000000000000000e+00  -7.1969230601072879e-05 -4.1664315459259002e-06 0.0000000000000000e+00  -9.4762614394429902e-05 -5.4610214405713031e-06 0.0000000000000000e+00  -1.2096758547461549e-04 -6.9283953812479643e-06 0.0000000000000000e+00  -1.5147424758172188e-04 -8.6043629191529640e-06 0.0000000000000000e+00  -1.8728053935631120e-04 -1.0520521546077014e-05 0.0000000000000000e+00  -2.2950114249191178e-04 -1.2696918745882066e-05 0.0000000000000000e+00  -2.7936609597246009e-04 -1.5127723719552300e-05 0.0000000000000000e+00  -3.3820175951188421e-04 -1.7754392544618867e-05 0.0000000000000000e+00  -4.0738307219849646e-04 -2.0417504792495826e-05 0.0000000000000000e+00  -4.8824214524344206e-04 -2.2775190782607585e-05 0.0000000000000000e+00  -5.8191804417810720e-04 -2.4176696696237587e-05 0.0000000000000000e+00  -6.8914809619835592e-04 -2.3491908277549610e-05 0.0000000000000000e+00  -8.1005497034929695e-04 -1.8926190875369870e-05 0.0000000000000000e+00  0.0000000000000000e+00 0.0000000000000000e+00 0.0000000000000000e+00  -1.6933373237307680e-05 -1.0086457550068993e-06 0.0000000000000000e+00  -3.4508810176551663e-05 -2.0554679803046760e-06 0.0000000000000000e+00  -5.3391790288661407e-05 -3.1800768507260164e-06 0.0000000000000000e+00  -7.4294122293516870e-05 -4.4247460024803803e-06 0.0000000000000000e+00  -9.7998343919813505e-05 -5.8357319559684177e-06 0.0000000000000000e+00  -1.2538334223084223e-04 -7.4644615503503412e-06 0.0000000000000000e+00  -1.5745128152078029e-04 -9.3683070403814984e-06 0.0000000000000000e+00  -1.9535561086235620e-04 -1.1610268136693864e-05 0.0000000000000000e+00  -2.4042955048709009e-04 -1.4256002418116035e-05 0.0000000000000000e+00  -2.9421416527330838e-04 -1.7364776141323112e-05 0.0000000000000000e+00  -3.5848527361968905e-04 -2.0967105138169053e-05 0.0000000000000000e+00  -4.3527972112227973e-04 -2.5014694395851910e-05 0.0000000000000000e+00  -5.2692536618609287e-04 -2.9276601606255934e-05 0.0000000000000000e+00  -6.3608894890261115e-04 -3.3141864827861851e-05 0.0000000000000000e+00  -7.6588283423607362e-04 -3.5287231588723807e-05 0.0000000000000000e+00  -9.2013998970678608e-04 -3.3208563031401501e-05 0.0000000000000000e+00  0.0000000000000000e+00 0.0000000000000000e+00 0.0000000000000000e+00  -1.6769726266235138e-05 -1.0198734382357464e-06 0.0000000000000000e+00  -3.4196172345147745e-05 -2.0820690464046133e-06 0.0000000000000000e+00  -5.2960409762089983e-05 -3.2309429097322498e-06 0.0000000000000000e+00  -7.3797133831775074e-05 -4.5151626959846592e-06 0.0000000000000000e+00  -9.7523940712171932e-05 -5.9902441095453491e-06 0.0000000000000000e+00  -1.2507371935399088e-04 -7.7215584821458505e-06 0.0000000000000000e+00  -1.5753126873317989e-04 -9.7879655820362615e-06 0.0000000000000000e+00  -1.9617539524860919e-04 -1.2286096211685909e-05 0.0000000000000000e+00  -2.4252816494129935e-04 -1.5334824929799559e-05 0.0000000000000000e+00  -2.9841416378302896e-04 -1.9078007666280455e-05 0.0000000000000000e+00  -3.6603566297243803e-04 -2.3679588087382304e-05 0.0000000000000000e+00  -4.4807670061191565e-04 -2.9295304941102378e-05 0.0000000000000000e+00  -5.4786392244044000e-04 -3.5983017439767591e-05 0.0000000000000000e+00  -6.6963959619495373e-04 -4.3471287419084590e-05 0.0000000000000000e+00  -8.1905735846408566e-04 -5.0648813384746818e-05 0.0000000000000000e+00  -1.0042115798176781e-03 -5.4605504547219457e-05 0.0000000000000000e+00  0.0000000000000000e+00 0.0000000000000000e+00 0.0000000000000000e+00  -1.5947716159996548e-05 -9.8857210146641813e-07 0.0000000000000000e+00  -3.2539865232804099e-05 -2.0214773236938818e-06 0.0000000000000000e+00  -5.0445212697874086e-05 -3.1455205056213994e-06 0.0000000000000000e+00  -7.0391210906643249e-05 -4.4131337123460304e-06 0.0000000000000000e+00  -9.3196974660207150e-05 -5.8859306931663023e-06 0.0000000000000000e+00  -1.1981118943033970e-04 -7.6393259911012575e-06 0.0000000000000000e+00  -1.5135701201412138e-04 -9.7688918346900807e-06 0.0000000000000000e+00  -1.8918650715839922e-04 -1.2399471919941801e-05 0.0000000000000000e+00  -2.3494808470225925e-04 -1.5698518894334707e-05 0.0000000000000000e+00  -2.9067248964372467e-04 -1.9895372272344304e-05 0.0000000000000000e+00  -3.5888816309629647e-04 -2.5306975692996640e-05 0.0000000000000000e+00  -4.4279031384694635e-04 -3.2363591432746834e-05 0.0000000000000000e+00  -5.4652079304475041e-04 -4.1602993043733262e-05 0.0000000000000000e+00  -6.7568283134329600e-04 -5.3528585851117476e-05 0.0000000000000000e+00  -8.3829527067935780e-04 -6.8071994751797555e-05 0.0000000000000000e+00  -1.0463722252723226e-03 -8.3176072241777262e-05 0.0000000000000000e+00  0.0000000000000000e+00 0.0000000000000000e+00 0.0000000000000000e+00  -1.4481957368686759e-05 -9.1288046459300506e-07 0.0000000000000000e+00  -2.9566554907426495e-05 -1.8693574172599466e-06 0.0000000000000000e+00  -4.5879644364557113e-05 -2.9156684525976053e-06 0.0000000000000000e+00  -6.4107410246391655e-05 -4.1043461395802891e-06 0.0000000000000000e+00  -8.5031084935114083e-05 -5.4983006207057051e-06 0.0000000000000000e+00  -1.0956805266761115e-04 -7.1763107972640535e-06 0.0000000000000000e+00  -1.3882215250413490e-04 -9.2409542271161157e-06 0.0000000000000000e+00  -1.7414664529221094e-04 -1.1830808705283541e-05 0.0000000000000000e+00  -2.1722428531989444e-04 -1.5140324016388060e-05 0.0000000000000000e+00  -2.7017082963844841e-04 -1.9453683035220202e-05 0.0000000000000000e+00  -3.3567343157003832e-04 -2.5203839841138764e-05 0.0000000000000000e+00  -4.1719181466803304e-04 -3.3073689397982467e-05 0.0000000000000000e+00  -5.1930412460508715e-04 -4.4152752978618889e-05 0.0000000000000000e+00  -6.4844452641531843e-04 -6.0099227903316378e-05 0.0000000000000000e+00  -8.1466803436714905e-04 -8.2951153503700269e-05 0.0000000000000000e+00  -1.0348355361829052e-03 -1.1449376173393159e-04 0.0000000000000000e+00  0.0000000000000000e+00 0.0000000000000000e+00 0.0000000000000000e+00  -1.2415937131786729e-05 -7.9365996163452471e-07 0.0000000000000000e+00  -2.5362327635072785e-05 -1.6271142802227605e-06 0.0000000000000000e+00  -3.9390513178179049e-05 -2.5426518896831754e-06 0.0000000000000000e+00  -5.5109415844401127e-05 -3.5886970292634821e-06 0.0000000000000000e+00  -7.3219366662460896e-05 -4.8237517741343412e-06 0.0000000000000000e+00  -9.4553161168764208e-05 -6.3216493783538615e-06 0.0000000000000000e+00  -1.2012764302658880e-04 -8.1790658605081169e-06 0.0000000000000000e+00  -1.5120984955296486e-04 -1.0527083398615182e-05 0.0000000000000000e+00  -1.8940247624941103e-04 -1.3550572065135521e-05 0.0000000000000000e+00  -2.3675400451506922e-04 -1.7523850222228381e-05 0.0000000000000000e+00  -2.9589997165634351e-04 -2.2882156145738899e-05 0.0000000000000000e+00  -3.7024923907908922e-04 -3.0373542042320007e-05 0.0000000000000000e+00  -4.6427259761042941e-04 -4.1387769022580291e-05 0.0000000000000000e+00  -5.8416999931630380e-04 -5.8639518456400796e-05 0.0000000000000000e+00  -7.4023262416875115e-04 -8.7206719268801967e-05 0.0000000000000000e+00  -9.5669502039369620e-04 -1.2939223543137102e-04 0.0000000000000000e+00  0.0000000000000000e+00 0.0000000000000000e+00 0.0000000000000000e+00  -9.8225144038502163e-06 -6.3478055267629727e-07 0.0000000000000000e+00  -2.0074179627409614e-05 -1.3025444414952210e-06 0.0000000000000000e+00  -3.1201462075289728e-05 -2.0383390995744727e-06 0.0000000000000000e+00  -4.3700661911005673e-05 -2.8823957381156536e-06 0.0000000000000000e+00  -5.8147757798322523e-05 -3.8833123108606335e-06 0.0000000000000000e+00  -7.5235443191399413e-05 -5.1020279939475476e-06 0.0000000000000000e+00  -9.5820814403820600e-05 -6.6169348692552799e-06 0.0000000000000000e+00  -1.2098801851895807e-04 -8.5306410576909615e-06 0.0000000000000000e+00  -1.5213079614520474e-04 -1.0979537876117723e-05 0.0000000000000000e+00  -1.9105933158495553e-04 -1.4149804213017291e-05 0.0000000000000000e+00  -2.4013210228721925e-04 -1.8312532474853892e-05 0.0000000000000000e+00  -3.0240318876009439e-04 -2.3921465568658827e-05 0.0000000000000000e+00  -3.8175943412829220e-04 -3.1916815746255868e-05 0.0000000000000000e+00  -4.8304814328616774e-04 -4.4713246841492549e-05 0.0000000000000000e+00  -6.1266163392919757e-04 -6.9790467032858087e-05 0.0000000000000000e+00  -7.8423103666025484e-04 -1.3989877401302789e-04 0.0000000000000000e+00  0.0000000000000000e+00 0.0000000000000000e+00 0.0000000000000000e+00  -6.8024226032793153e-06 -4.4304132942381381e-07 0.0000000000000000e+00  -1.3907320876260323e-05 -9.0966865254009547e-07 0.0000000000000000e+00  -2.1629691123522377e-05 -1.4249120100281417e-06 0.0000000000000000e+00  -3.0321591488180297e-05 -2.0174719439422375e-06 0.0000000000000000e+00  -4.0394735800854951e-05 -2.7218037370717020e-06 0.0000000000000000e+00  -5.2349111266664390e-05 -3.5803677443404784e-06 0.0000000000000000e+00  -6.6810715234658601e-05 -4.6456303798999761e-06 0.0000000000000000e+00  -8.4582437961974247e-05 -5.9804625072196968e-06 0.0000000000000000e+00  -1.0671289487159783e-04 -7.6533215909631703e-06 0.0000000000000000e+00  -1.3458755222564176e-04 -9.7195503852478071e-06 0.0000000000000000e+00  -1.7004226449906658e-04 -1.2170171774122628e-05 0.0000000000000000e+00  -2.1548769178483145e-04 -1.4814970645209402e-05 0.0000000000000000e+00  -2.7401619073050921e-04 -1.7064009584243228e-05 0.0000000000000000e+00  -3.4946702728559252e-04 -1.7651339571967649e-05 0.0000000000000000e+00  -4.4649217125461996e-04 -1.4717292500491450e-05 0.0000000000000000e+00  -5.7160307400469599e-04 -8.5043622354493253e-06 0.0000000000000000e+00  0.0000000000000000e+00 0.0000000000000000e+00 0.0000000000000000e+00  -3.4805493726938292e-06 -2.2774256756152603e-07 0.0000000000000000e+00  -7.1177445160774253e-06 -4.6778867464365620e-07 0.0000000000000000e+00  -1.1074878290618779e-05 -7.3317910907880916e-07 0.0000000000000000e+00  -1.5535200702537285e-05 -1.0388376448581923e-06 0.0000000000000000e+00  -2.0714275998450198e-05 -1.4025538460408096e-06 0.0000000000000000e+00  -2.6875913798902235e-05 -1.8458338187231049e-06 0.0000000000000000e+00  -3.4353625593545366e-05 -2.3939910748275248e-06 0.0000000000000000e+00  -4.3580203118119037e-05 -3.0735630078787093e-06 0.0000000000000000e+00  -5.5128289659042159e-05 -3.9015252828827598e-06 0.0000000000000000e+00  -6.9762431894216693e-05 -4.8505746119941703e-06 0.0000000000000000e+00  -8.8488837563329277e-05 -5.7460622555008446e-06 0.0000000000000000e+00  -1.1252849654243396e-04 -5.9726795899072553e-06 0.0000000000000000e+00  -1.4291802691911826e-04 -3.6890898956195604e-06 0.0000000000000000e+00  -1.7878940839467631e-04 5.9559581032672173e-06 0.0000000000000000e+00  -2.1248813990945632e-04 3.2942623469077896e-05 0.0000000000000000e+00  -2.2474589527080166e-04 8.5778268939498158e-05 0.0000000000000000e+00  0.0000000000000000e+00 0.0000000000000000e+00 0.0000000000000000e+00  0.0000000000000000e+00 0.0000000000000000e+00 0.0000000000000000e+00  0.0000000000000000e+00 0.0000000000000000e+00 0.0000000000000000e+00  0.0000000000000000e+00 0.0000000000000000e+00 0.0000000000000000e+00  0.0000000000000000e+00 0.0000000000000000e+00 0.0000000000000000e+00  0.0000000000000000e+00 0.000