<?xml version="1.0"?>
<VTKFile type="UnstructuredGrid"  version="0.1"  >
<UnstructuredGrid>
<Piece  NumberOfPoints="289" NumberOfCells="512">
<Points>
<DataArray  type="Float64"  NumberOfComponents="3"  format="ascii">0 0 0  0.0625 0 0  0.125 0 0  0.1875 0 0  0.25 0 0  0.3125 0 0  0.375 0 0  0.4375 0 0  0.5 0 0  0.5625 0 0  0.625 0 0  0.6875 0 0  0.75 0 0  0.8125 0 0  0.875 0 0  0.9375 0 0  1 0 0  0 0.0625 0  0.06250490171576914 0.06247112341199076 0  0.1250102583903009 0.06244173190235305 0  0.1875165474699503 0.06241134724210549 0  0.2500243657602993 0.06237959743640134 0  0.3125345119402861 0.06234628548717553 0  0.3750481051505953 0.06231147555456534 0  0.4375667661969714 0.06227559746926036 0  0.5000929089987002 0.06223956329080104 0  0.5626302344466776 0.06220487636048667 0  0.6251846184925157 0.06217369140962496 0  0.6877658234454807 0.0621487525943463 0  0.7503910551617921 0.06213310148822047 0  0.8130929053314808 0.06212944601095106 0  0.8759379054968659 0.06213927783254618 0  0.9390687282548528 0.06216312026021707 0  1.002775098494873 0.06221384243249749 0  0 0.125 0  0.0625093301736495 0.1249427337841606 0  0.1250195298505704 0.1248843834958449 0  0.1875315165708273 0.1248239327851367 0  0.250046444582024 0.1247605651739447 0  0.3125658696195981 0.1246937975735767 0  0.3750919857241555 0.1246236528946015 0  0.4376279841721849 0.1245508777118662 0  0.5001786195918977 0.1244771988639268 0  0.5627511357599799 0.1244055890163997 0  0.6253568357390056 0.1243404686895901 0  0.6880138390910168 0.1242877045448305 0  0.7507520437312508 0.1242541745419914 0  0.8136220178850526 0.1242466090669877 0  0.8767098693481727 0.1242695905569192 0  0.940157264254417 0.1243235981759913 0  1.004179197575515 0.1244053455974035 0  0 0.1875 0  0.0625129305312422 0.1874154141803504 0  0.1250270474388671 0.18732907727542 0  0.1875436081187436 0.1872393250357724 0  0.2500642005992523 0.1871447594130523 0  0.3125909740786689 0.1870444361167018 0  0.3751269683316563 0.18693811929491 0  0.4376766046042183 0.1868266215849641 0  0.5002464348507538 0.186712236322857 0  0.5628463012847443 0.1865992414925102 0  0.6254911409221892 0.1864943983397086 0  0.6882037709622697 0.1864072581455315 0  0.7510190265543255 0.1863498838274294 0  0.8139892606064141 0.1863351750553249 0  0.8771895342692771 0.1863719637756177 0  0.9407164180182132 0.1864518987940623 0  1.004669769265057 0.1865124267543854 0  0 0.25 0  0.06251544606596189 0.2498898438079941 0  0.125032251696737 0.2497771421077732 0  0.1875518630418694 0.2496594364080869 0  0.2500761100536988 0.2495345561704588 0  0.3126074750817274 0.2494008393149483 0  0.3751494754866497 0.2492574528034431 0  0.4377072261182903 0.2491048524534588 0  0.5002882730104717 0.248945418893368 0  0.5629038180687517 0.2487842901614474 0  0.6255704687141351 0.2486303633099132 0  0.6883125940723617 0.2484973245948685 0  0.7511651161216475 0.2484043303529241 0  0.8141758281746008 0.2483754935417334 0  0.8774047281744902 0.2484364884868133 0  0.9409155864669344 0.2486054563694017 0  1.004754979457908 0.2488762315339338 0  0 0.3125 0  0.06251674677759961 0.3123668256679724 0  0.1250348560423143 0.3122301768100803 0  0.1875557816273537 0.3120866400930146 0  0.2500813625728847 0.3119330488612772 0  0.3126140965410648 0.3117667014948388 0  0.375157532902657 0.3115857114515352 0  0.4377168525199181 0.3113895554499889 0  0.5002997219129574 0.3111799030521394 0  0.5629175231606999 0.310961823535588 0  0.6255870407955721 0.3107454581883149 0  0.6883325739289708 0.3105481818904101 0  0.7511881301550064 0.3103970851442874 0  0.8141987282413258 0.3103311651606064 0  0.8774189910957857 0.3104017844074686 0  0.9409072364954129 0.3106688002768142 0  1.004717676775749 0.3111890806857595 0  0 0.375 0  0.0625168399572828 0.374847291705691 0  0.1250348731057361 0.374690068789472 0  0.1875553759327273 0.3745238205274789 0  0.2500799551810165 0.3743441628887626 0  0.3126107906985093 0.3741470043145667 0  0.3751509960731835 0.3739288622799603 0  0.4377051691709158 0.373687423879515 0  0.500280233184728 0.3734224871985484 0  0.5628866962575061 0.3731374793864747 0  0.6255404615422331 0.37284181569403 0  0.6882652502228723 0.3725544123037334 0  0.7510954774563772 0.3723086121516067 0  0.8140789840243909 0.3721584437415006 0  0.877278545374181 0.3721852040232355 0  0.9407714814945101 0.3725015830244707 0  1.004650277346214 0.3732482781006753 0  0 0.4375 0  0.06251586212277385 0.4373322775381674 0  0.1250326003469178 0.4371589499982977 0  0.1875511524578969 0.4369743260306961 0  0.2500726768517443 0.4367726356119603 0  0.3125987285459297 0.4365480810031248 0  0.3751315411018772 0.4362950310949844 0  0.4376744950948794 0.436008467292763 0  0.5002329048556708 0.4356848601326552 0  0.5628153306128968 0.4353237707028678 0  0.6254357193506546 0.4349306464040139 0  0.6881167668680057 0.434521520584261 0  0.7508948990148745 0.4341305740459965 0  0.813827055965356 0.4338215433913116 0  0.8769989335589867 0.4337031895801678 0  0.9405338839809649 0.4339466071761676 0  1.004603320250004 0.434798187812499 0  0 0.5 0  0.06251405421211645 0.4998228608300587 0  0.1250285685371881 0.4996390755586347 0  0.1875440306046057 0.4994417940238171 0  0.250060993356797 0.499223806088483 0  0.3125801488057176 0.4989774139293746 0  0.3751024782086526 0.4986944015802532 0  0.4376295622113667 0.4983661994823271 0  0.5001642161720655 0.4979844290375626 0  0.562711766392383 0.4975421720856394 0  0.625282541938156 0.4970365973526109 0  0.6878965556768336 0.4964740703736441 0  0.7505918456256998 0.4958796478663113 0  0.8134382795474416 0.4953138049853069 0  0.8765581228990773 0.4948995493393558 0  0.9401525850107971 0.4948603572131141 0  1.004531848878662 0.4955605261564381 0  0 0.5625 0  0.06251172353994217 0.5623200620511101 0  0.1250234597668219 0.5621326195379591 0  0.187535206064806 0.5619298320585124 0  0.2500468429875452 0.5617031729114429 0  0.3125580767256812 0.5614430740375833 0  0.3750684019699829 0.5611385793509732 0  0.4375771502200094 0.5607770583227405 0  0.5000837910090266 0.5603441089557748 0  0.5625888782009585 0.5598239421010183 0  0.6250964970344439 0.5592008812088316 0  0.6876199479979246 0.558463325371486 0  0.7501938687083498 0.5576129704098753 0  0.8128978602591943 0.5566847674662055 0  0.8758975196790023 0.555786897199337 0  0.9395049574163171 0.5551709220339398 0  1.004249219983095 0.5553289907499763 0  0 0.625 0  0.06250919710193331 0.6248247137626808 0  0.1250180037914584 0.6246413981688812 0  0.1875259706080494 0.6244415639083681 0  0.2500323523923165 0.6242157167295126 0  0.3125359076647952 0.6239527615843271 0  0.3750346339648872 0.6236392941335345 0  0.4375254492408703 0.6232587508569419 0  0.5000039156885759 0.6227904205392002 0  0.5624643427071599 0.622208413376202 0  0.6249012133326384 0.6214809400122799 0  0.6873142937838906 0.6205709375422497 0  0.7497227715485487 0.6194408992305594 0  0.8121991176927508 0.6180694949999042 0  0.8749398333907483 0.6164986457401416 0  0.938389054644312 0.6149460307507242 0  1.003410466504969 0.6140012167184979 0  0 0.6875 0  0.06250677191041352 0.68733731373188 0  0.1250128644651161 0.6871665514302351 0  0.1875175054303084 0.6869790870839942 0  0.2500194899012495 0.6867650459682498 0  0.3125168554342712 0.6865125063792445 0  0.37500639490489 0.6862064628109907 0  0.4374829254204352 0.6858274244160544 0  0.4999382421546136 0.6853494799643832 0  0.5623598100096658 0.6847376135824573 0  0.624729741934799 0.6839440441776069 0  0.6870261874037851 0.6829035539040208 0  0.7492336766857326 0.681528842287823 0  0.8113800150879852 0.6797115724272752 0  0.8736396204916143 0.6773533738836245 0  0.9365597422769344 0.6745170104784012 0  1.001428276966283 0.6718378288370368 0  0 0.75 0  0.06250466940866493 0.7498578858193201 0  0.1250085325068363 0.7497082344738345 0  0.1875106767760837 0.7495429281326002 0  0.2500096990685545 0.7493524978880182 0  0.3125033135469687 0.7491252180075249 0  0.3749877193482252 0.7488458687846724 0  0.4374565462108074 0.7484939607562221 0  0.4998990812037886 0.748041097839749 0  0.5622973311676448 0.7474469580393287 0  0.624621422243344 0.7466530179968429 0  0.6868234841606564 0.7455725122248363 0  0.7488338092298751 0.7440740484151355 0  0.8105776014261831 0.7419553360727372 0  0.8720808228085979 0.7389095827596549 0  0.9338743707063207 0.734559365524736 0  0.9975487712072422 0.7293487720791386 0  0 0.8125 0  0.06250300216160357 0.8123858776875665 0  0.125005245431602 0.8122653837348651 0  0.1875058767903425 0.8121316113116055 0  0.2500035932809704 0.8119763880784613 0  0.3124962686948753 0.8117894012522276 0  0.3749803225872593 0.8115569658454129 0  0.4374495958676004 0.8112601978126817 0  0.4998932720539864 0.8108722057581987 0  0.5622919272528997 0.8103536475667323 0  0.6246099003459739 0.8096454862424076 0  0.6867806167852123 0.8086566891000577 0  0.7486797369054141 0.8072419604871296 0  0.8100843656090133 0.8051573930760657 0  0.8706570966757345 0.8019618616805466 0  0.9302629639768782 0.7967823064207363 0  0.9922496467063793 0.7877715773261894 0  0 0.875 0  0.06250176068489667 0.8749201230859421 0  0.1250029560871769 0.8748356215342564 0  0.1875029590146019 0.8747414595535949 0  0.2500008196116854 0.8746316190241521 0  0.3124949947861979 0.8744984071599426 0  0.3749828803321433 0.8743314644631466 0  0.4374599456400499 0.8741162682498016 0  0.4999180403963855 0.8738318005139381 0  0.5623418972834159 0.8734468355180476 0  0.6247015202014071 0.8729139445358887 0  0.6869348021608584 0.8721596739506702 0  0.748906278344378 0.871067829490768 0  0.8103071722283233 0.869447032245854 0  0.8704151072667753 0.8669456175666014 0  0.9275497441024799 0.8627431896220491 0  0.9780547362819738 0.8542976445949723 0  0 0.9375 0  0.06250082508163041 0.9374588874514869 0  0.1250013632182647 0.9374153437461552 0  0.1875013028783633 0.9373667146846812 0  0.2500001792130327 0.937309810026006 0  0.3124972486214131 0.9372405216582554 0  0.3749912734534363 0.9371532712770787 0  0.4374801225335595 0.93704017
[...]
<PointData  Vectors="f_54"> 
<DataArray  type="Float64"  Name="f_54"  NumberOfComponents="3" format="ascii">0.0000000000000000e+00 0.0000000000000000e+00 0.0000000000000000e+00  0.0000000000000000e+00 0.0000000000000000e+00 0.0000000000000000e+00  0.0000000000000000e+00 0.0000000000000000e+00 0.0000000000000000e+00  0.0000000000000000e+00 0.0000000000000000e+00 0.0000000000000000e+00  0.0000000000000000e+00 0.0000000000000000e+00 0.0000000000000000e+00  0.0000000000000000e+00 0.0000000000000000e+00 0.0000000000000000e+00  0.0000000000000000e+00 0.0000000000000000e+00 0.0000000000000000e+00  0.0000000000000000e+00 0.0000000000000000e+00 0.0000000000000000e+00  0.0000000000000000e+00 0.0000000000000000e+00 0.0000000000000000e+00  0.0000000000000000e+00 0.0000000000000000e+00 0.0000000000000000e+00  0.0000000000000000e+00 0.0000000000000000e+00 0.0000000000000000e+00  0.0000000000000000e+00 0.0000000000000000e+00 0.0000000000000000e+00  0.0000000000000000e+00 0.0000000000000000e+00 0.0000000000000000e+00  0.0000000000000000e+00 0.0000000000000000e+00 0.0000000000000000e+00  0.0000000000000000e+00 0.0000000000000000e+00 0.0000000000000000e+00  0.0000000000000000e+00 0.0000000000000000e+00 0.0000000000000000e+00  0.0000000000000000e+00 0.0000000000000000e+00 0.0000000000000000e+00  0.0000000000000000e+00 0.0000000000000000e+00 0.0000000000000000e+00  4.0500050346265456e-06 1.5356587230687151e-07 0.0000000000000000e+00  8.1971450426976074e-06 3.0863067879971107e-07 0.0000000000000000e+00  1.2538764364682272e-05 4.6640057296635131e-07 0.0000000000000000e+00  1.7164798824635224e-05 6.2718285665440714e-07 0.0000000000000000e+00  2.2152157993067042e-05 7.8984403780424329e-07 0.0000000000000000e+00  2.7556483211583168e-05 9.5117110196793333e-07 0.0000000000000000e+00  3.3400201276146864e-05 1.1051439774778373e-06 0.0000000000000000e+00  3.9655624241951240e-05 1.2421707311861854e-06 0.0000000000000000e+00  4.6221603513529519e-05 1.3483883750363862e-06 0.0000000000000000e+00  5.2891806955338677e-05 1.4051493472164873e-06 0.0000000000000000e+00  5.9311716950812129e-05 1.3886534866481229e-06 0.0000000000000000e+00  6.4919201949380158e-05 1.2688964173730975e-06 0.0000000000000000e+00  6.8858724735878105e-05 1.0041945703922477e-06 0.0000000000000000e+00  6.9851581245927480e-05 5.1703207687640782e-07 0.0000000000000000e+00  6.6007820152039578e-05 -4.0356853581586032e-07 0.0000000000000000e+00  5.4700636740738201e-05 -2.4991543269712946e-06 0.0000000000000000e+00  0.0000000000000000e+00 0.0000000000000000e+00 0.0000000000000000e+00  7.9998023896192058e-06 3.0551376580156383e-07 0.0000000000000000e+00  1.6197458212177085e-05 6.1445981639664978e-07 0.0000000000000000e+00  2.4791716678846003e-05 9.2971728218948569e-07 0.0000000000000000e+00  3.3968218500985769e-05 1.2524429436330681e-06 0.0000000000000000e+00  4.3889234230831182e-05 1.5810065202906716e-06 0.0000000000000000e+00  5.4678284041900230e-05 1.9097028251830719e-06 0.0000000000000000e+00  6.6397506931111192e-05 2.2272399047216335e-06 0.0000000000000000e+00  7.9015317914267396e-05 2.5150954935970658e-06 0.0000000000000000e+00  9.2361472988792181e-05 2.7459757037950151e-06 0.0000000000000000e+00  1.0606597231224589e-04 2.8827813323791538e-06 0.0000000000000000e+00  1.1947666415619482e-04 2.8786050915195778e-06 0.0000000000000000e+00  1.3154621220145269e-04 2.6781718668183573e-06 0.0000000000000000e+00  1.4066727291126339e-04 2.2207429344223915e-06 0.0000000000000000e+00  1.4440002596474724e-04 1.4456956770279729e-06 0.0000000000000000e+00  1.3892435206008260e-04 3.1910150059402625e-07 0.0000000000000000e+00  1.1762094571721843e-04 -9.8059747195787125e-07 0.0000000000000000e+00  0.0000000000000000e+00 0.0000000000000000e+00 0.0000000000000000e+00  1.1745293975621637e-05 4.5377311071619179e-07 0.0000000000000000e+00  2.3795377111563610e-05 9.1373673153121521e-07 0.0000000000000000e+00  3.6457510381538688e-05 1.3853378382523046e-06 0.0000000000000000e+00  5.0023426022545182e-05 1.8716441085030466e-06 0.0000000000000000e+00  6.4756304299170376e-05 2.3718086497358915e-06 0.0000000000000000e+00  8.0870402763982488e-05 2.8791306106123794e-06 0.0000000000000000e+00  9.8500198008504540e-05 3.3786599978452067e-06 0.0000000000000000e+00  1.1765540501969406e-04 3.8444280344778001e-06 0.0000000000000000e+00  1.3815774025851415e-04 4.2366316772880571e-06 0.0000000000000000e+00  1.5955476099953507e-04 4.4995064942386642e-06 0.0000000000000000e+00  1.8100523840062710e-04 4.5611963729693111e-06 0.0000000000000000e+00  2.0112835554343537e-04 4.3375830516555233e-06 0.0000000000000000e+00  2.1780356736999899e-04 3.7424790487397346e-06 0.0000000000000000e+00  2.2789708464590096e-04 2.7059492658893589e-06 0.0000000000000000e+00  2.2688203647122811e-04 1.1964213511442109e-06 0.0000000000000000e+00  2.0838565584856996e-04 -8.0054065680318575e-07 0.0000000000000000e+00  0.0000000000000000e+00 0.0000000000000000e+00 0.0000000000000000e+00  1.5176842228468948e-05 5.9546405560774254e-07 0.0000000000000000e+00  3.0772646636485043e-05 1.2010036599692438e-06 0.0000000000000000e+00  4.7211642058156335e-05 1.8258764666808914e-06 0.0000000000000000e+00  6.4904762457549395e-05 2.4765885066393745e-06 0.0000000000000000e+00  8.4236575447129588e-05 3.1550004750083001e-06 0.0000000000000000e+00  1.0554306288957160e-04 3.8557836367712387e-06 0.0000000000000000e+00  1.2907614143643556e-04 4.5630510269695745e-06 0.0000000000000000e+00  1.5495005490622955e-04 5.2461163578721216e-06 0.0000000000000000e+00  1.8306411953938098e-04 5.8546394106160431e-06 0.0000000000000000e+00  2.1299600537044963e-04 6.3140459318341181e-06 0.0000000000000000e+00  2.4386006627813105e-04 6.5232466391229637e-06 0.0000000000000000e+00  2.7412647566927434e-04 6.3584730407950292e-06 0.0000000000000000e+00  3.0139992078075036e-04 5.6893832649523128e-06 0.0000000000000000e+00  3.2216582155654373e-04 4.4155810990504297e-06 0.0000000000000000e+00  3.3154654264408982e-04 2.5308732527310895e-06 0.0000000000000000e+00  3.2322989067719082e-04 2.1663297773644925e-07 0.0000000000000000e+00  0.0000000000000000e+00 0.0000000000000000e+00 0.0000000000000000e+00  1.8178607423976133e-05 7.2660867393353203e-07 0.0000000000000000e+00  3.6896323396726601e-05 1.4684597011948254e-06 0.0000000000000000e+00  5.6701747971473026e-05 2.2400722278594116e-06 0.0000000000000000e+00  7.8138126277014984e-05 3.0532707352207523e-06 0.0000000000000000e+00  1.0173365727640054e-04 3.9151422959885008e-06 0.0000000000000000e+00  1.2798152038307695e-04 4.8250546592854625e-06 0.0000000000000000e+00  1.5730458689492891e-04 5.7703486463536321e-06 0.0000000000000000e+00  1.8999854608541778e-04 6.7203450336962603e-06 0.0000000000000000e+00  2.2614603061976669e-04 7.6185266444468239e-06 0.0000000000000000e+00  2.6549379625040486e-04 8.3734278065611123e-06 0.0000000000000000e+00  3.0728595198398391e-04 8.8503403780916349e-06 0.0000000000000000e+00  3.5004989355434321e-04 8.8690971018042289e-06 0.0000000000000000e+00  3.9133974875533057e-04 8.2185685908785936e-06 0.0000000000000000e+00  4.2745799913336497e-04 6.7058418319879784e-06 0.0000000000000000e+00  4.5320675172860091e-04 4.2640593903739428e-06 0.0000000000000000e+00  4.6177774390062331e-04 1.1379796426182784e-06 0.0000000000000000e+00  0.0000000000000000e+00 0.0000000000000000e+00 0.0000000000000000e+00  2.0630126748378673e-05 8.4199193247542213e-07 0.0000000000000000e+00  4.1921429906235347e-05 1.7056151262885215e-06 0.0000000000000000e+00  6.4550287927664916e-05 2.6120922690490790e-06 0.0000000000000000e+00  8.9201927351112800e-05 3.5805881622043934e-06 0.0000000000000000e+00  1.1656807332255586e-04 4.6263594358542901e-06 0.0000000000000000e+00  1.4733421083615688e-04 5.7577094167787996e-06 0.0000000000000000e+00  1.8215066740295388e-04 6.9710817021178942e-06 0.0000000000000000e+00  2.2157970474397155e-04 8.2434225044195244e-06 0.0000000000000000e+00  2.6600858802433829e-04 9.5208192732600462e-06 0.0000000000000000e+00  3.1551688381431785e-04 1.0702687311083021e-05 0.0000000000000000e+00  3.6968643750884907e-04 1.1622150985751123e-05 0.0000000000000000e+00  4.2734690372935610e-04 1.2027213790789148e-05 0.0000000000000000e+00  4.8626099445994600e-04 1.1576199601002736e-05 0.0000000000000000e+00  5.4277207689090831e-04 9.8771457130146867e-06 0.0000000000000000e+00  5.9145354150731417e-04 6.6230454494066308e-06 0.0000000000000000e+00  6.2478420945259608e-04 1.8918627269205490e-06 0.0000000000000000e+00  0.0000000000000000e+00 0.0000000000000000e+00 0.0000000000000000e+00  2.2410581701989749e-05 9.3523776845795837e-07 0.0000000000000000e+00  4.5599242082897519e-05 1.8993780653030668e-06 0.0000000000000000e+00  7.0366309283443904e-05 2.9214796021305229e-06 0.0000000000000000e+00  9.7541252628269358e-05 4.0298683403133328e-06 0.0000000000000000e+00  1.2799186012078375e-04 5.2509598823341267e-06 0.0000000000000000e+00  1.6262443959426211e-04 6.6067981807581205e-06 0.0000000000000000e+00  2.0236894137196950e-04 8.1103869954636191e-06 0.0000000000000000e+00  2.4813981751402293e-04 9.7573461833940169e-06 0.0000000000000000e+00  3.0075945231598783e-04 1.1511654243790708e-05 0.0000000000000000e+00  3.6082674240559839e-04 1.3282380374224571e-05 0.0000000000000000e+00  4.2851076351541534e-04 1.4888041257588431e-05 0.0000000000000000e+00  5.0325250769897936e-04 1.6007605465530706e-05 0.0000000000000000e+00  5.8337263616502352e-04 1.6127081947821467e-05 0.0000000000000000e+00  6.6561323474034957e-04 1.4516538266742559e-05 0.0000000000000000e+00  7.4466775668677494e-04 1.0321896524278706e-05 0.0000000000000000e+00  8.1270138890368864e-04 2.9218678260861300e-06 0.0000000000000000e+00  0.0000000000000000e+00 0.0000000000000000e+00 0.0000000000000000e+00  2.3405926975596990e-05 9.9916130197136173e-07 0.0000000000000000e+00  4.7691674891730149e-05 2.0347184050592071e-06 0.0000000000000000e+00  7.3767280663602860e-05 3.1440219768364831e-06 0.0000000000000000e+00  1.0259711874456393e-04 4.3656981759914100e-06 0.0000000000000000e+00  1.3522449615883218e-04 5.7397076722421762e-06 0.0000000000000000e+00  1.7279075382304346e-04 7.3063611432079612e-06 0.0000000000000000e+00  2.1654337684260630e-04 9.1033001609942781e-06 0.0000000000000000e+00  2.6782343415316593e-04 1.1158586208275939e-05 0.0000000000000000e+00  3.2801639062182345e-04 1.3476478373606077e-05 0.0000000000000000e+00  3.9844194952065598e-04 1.6009830178837542e-05 0.0000000000000000e+00  4.8014981755065822e-04 1.8609089260979583e-05 0.0000000000000000e+00  5.7358526673877749e-04 2.0933792578203427e-05 0.0000000000000000e+00  6.7810548205212730e-04 2.2314146526785629e-05 0.0000000000000000e+00  7.9138655090839631e-04 2.1574933432243677e-05 0.0000000000000000e+00  9.0885917963548838e-04 1.6910613411893565e-05 0.0000000000000000e+00  1.0233184848672499e-03 6.0293149110644732e-06 0.0000000000000000e+00  0.0000000000000000e+00 0.0000000000000000e+00 0.0000000000000000e+00  2.3518677470521746e-05 1.0264316003137733e-06 0.0000000000000000e+00  4.7991494510165654e-05 2.0960089881719836e-06 0.0000000000000000e+00  7.4410935334060503e-05 3.2537790984051107e-06 0.0000000000000000e+00  1.0385145194111942e-04 4.5485624818327466e-06 0.0000000000000000e+00  1.3751227603531861e-04 6.0347551643103544e-06 0.0000000000000000e+00  1.7676069666034970e-04 7.7737672791136206e-06 0.0000000000000000e+00  2.2317244955728175e-04 9.8344209500457451e-06 0.0000000000000000e+00  2.7856107717408839e-04 1.2290713703940266e-05 0.0000000000000000e+00  3.4497967866683381e-04 1.5213357910642900e-05 0.0000000000000000e+00  4.2466476343168999e-04 1.8647234734848420e-05 0.0000000000000000e+00  5.1987258919509343e-04 2.2558122020975579e-05 0.0000000000000000e+00  6.3253900618950756e-04 2.6715577705734817e-05 0.0000000000000000e+00  7.6369817191513582e-04 3.0454087618710437e-05 0.0000000000000000e+00  9.1268788540516208e-04 3.2239828952115522e-05 0.0000000000000000e+00  1.0764572991240925e-03 2.9038137217506992e-05 0.0000000000000000e+00  1.2498044965475932e-03 1.5702872387645809e-05 0.0000000000000000e+00  0.0000000000000000e+00 0.0000000000000000e+00 0.0000000000000000e+00  2.2679665604515705e-05 1.0105232064521062e-06 0.0000000000000000e+00  4.6347096270404302e-05 2.0690296652854780e-06 0.0000000000000000e+00  7.2035553311766194e-05 3.2263344857212739e-06 0.0000000000000000e+00  1.0088645379496463e-04 4.5395984188115013e-06 0.0000000000000000e+00  1.3421103257425164e-04 6.0761057521503118e-06 0.0000000000000000e+00  1.7356082939249046e-04 7.9177452663668441e-06 0.0000000000000000e+00  2.2080789470918166e-04 1.0166292644736978e-05 0.0000000000000000e+00  2.7823158070051235e-04 1.2949159921606401e-05 0.0000000000000000e+00  3.4859982968432103e-04 1.6423938057713990e-05 0.0000000000000000e+00  4.3521473786013151e-04 2.0776169451411723e-05 0.0000000000000000e+00  5.4185910376196083e-04 2.6193977085386448e-05 0.0000000000000000e+00  6.7252961180680579e-04 3.2774581614812506e-05 0.0000000000000000e+00  8.3079174489475373e-04 4.0248377899764444e-05 0.0000000000000000e+00  1.0186450846163073e-03 4.7270324178823501e-05 0.0000000000000000e+00  1.2352522058389334e-03 4.9919607394237419e-05 0.0000000000000000e+00  1.4768014934598470e-03 3.9299083876095418e-05 0.0000000000000000e+00  0.0000000000000000e+00 0.0000000000000000e+00 0.0000000000000000e+00  2.0860515741513908e-05 9.4685215956925663e-07 0.0000000000000000e+00  4.2689371711960410e-05 1.9434349550390670e-06 0.0000000000000000e+00  6.6505100309494544e-05 3.0430115226621049e-06 0.0000000000000000e+00  9.3454060059571510e-05 4.3072508078223701e-06 0.0000000000000000e+00  1.2488821260410484e-04 5.8117298727466279e-06 0.0000000000000000e+00  1.6246148683595835e-04 7.6532919886742850e-06 0.0000000000000000e+00  2.0825205105637232e-04 9.9603959474888390e-06 0.0000000000000000e+00  2.6491689095552130e-04 1.2908164654590712e-05 0.0000000000000000e+00  3.3587962693417274e-04 1.6740594011866993e-05 0.0000000000000000e+00  4.2553565058011951e-04 2.1802658679515894e-05 0.0000000000000000e+00  5.3941659359352245e-04 2.8581431242514134e-05 0.0000000000000000e+00  6.8416537629646321e-04 3.7733722837081118e-05 0.0000000000000000e+00  8.6701091764506929e-04 4.9986291073634568e-05 0.0000000000000000e+00  1.0942729766089743e-03 6.5465668478265131e-05 0.0000000000000000e+00  1.3690560997018533e-03 8.1170398006238736e-05 0.0000000000000000e+00  1.6918082825373981e-03 8.7402860617286706e-05 0.0000000000000000e+00  0.0000000000000000e+00 0.0000000000000000e+00 0.0000000000000000e+00  1.8085017208874659e-05 8.3390362392671120e-07 0.0000000000000000e+00  3.7056886807412753e-05 1.7152712108778919e-06 0.0000000000000000e+00  5.7853275959042567e-05 2.6953648084829455e-06 0.0000000000000000e+00  8.1547292162197047e-05 3.8348068012674724e-06 0.0000000000000000e+00  1.0943433187925876e-04 5.2099964913183863e-06 0.0000000000000000e+00  1.4314642485165405e-04 6.9221417592447118e-06 0.0000000000000000e+00  1.8480893838405564e-04 9.1108094919207171e-06 0.0000000000000000e+00  2.3725937241731826e-04 1.1975427286901118e-05 0.0000000000000000e+00  3.0435208476054415e-04 1.5811410529409754e-05 0.0000000000000000e+00  3.9136967405135290e-04 2.1074567685867317e-05 0.0000000000000000e+00  5.0553243646158123e-04 2.8501839165111904e-05 0.0000000000000000e+00  6.5649226895396148e-04 3.9340866041757147e-05 0.0000000000000000e+00  8.5640104975775837e-04 5.5749910578052689e-05 0.0000000000000000e+00  1.1184300602003038e-03 8.1188044733100873e-05 0.0000000000000000e+00  1.4515246695960180e-03 1.1831468835120131e-04 0.0000000000000000e+00  1.8638032310750790e-03 1.4222177265137140e-04 0.0000000000000000e+00  0.0000000000000000e+00 0.0000000000000000e+00 0.0000000000000000e+00  1.4437159689968342e-05 6.7409967009945014e-07 0.0000000000000000e+00  2.9614512302571823e-05 1.3889700414455612e-06 0.0000000000000000e+00  4.6318257793297640e-05 2.1888905238406759e-06 0.0000000000000000e+00  6.5460943344746502e-05 3.1269716615333503e-06 0.0000000000000000e+00  8.8166003160386336e-05 4.2712980663920073e-06 0.0000000000000000e+00  1.1588449011190708e-04 5.7136651205650986e-06 0.0000000000000000e+00  1.5056481262895800e-04 7.5827490901790029e-06 0.0000000000000000e+00  1.9490804708111563e-04 1.0065029358317668e-05 0.0000000000000000e+00  2.5275987003063946e-04 1.3440254659006302e-05 0.0000000000000000e+00  3.2971600299799733e-04 1.8147444959869271e-05 0.0000000000000000e+00  4.3404288671940698e-04 2.4924042734061716e-05 0.0000000000000000e+00  5.7799383904048418e-04 3.5140907094695390e-05 0.0000000000000000e+00  7.7935938459360032e-04 5.1694978656863255e-05 0.0000000000000000e+00  1.0620135127884609e-03 8.1517433455313796e-05 0.0000000000000000e+00  1.4495296358317397e-03 1.4296921245785329e-04 0.0000000000000000e+00  1.9040525700640342e-03 2.9646739265597210e-04 0.0000000000000000e+00  0.0000000000000000e+00 0.0000000000000000e+00 0.0000000000000000e+00  1.0063530730895330e-05 4.7416585461627567e-07 0.0000000000000000e+00  2.0660263940005162e-05 9.7824490719449482e-07 0.0000000000000000e+00  3.2358617212536950e-05 1.5448288341344152e-06 0.0000000000000000e+00  4.5825550982194110e-05 2.2133297317087193e-06 0.0000000000000000e+00  6.1894673845891101e-05 3.0346858837590708e-06 0.0000000000000000e+00  8.1663688909508792e-05 4.0779047013934895e-06 0.0000000000000000e+00  1.0664249625825874e-04 5.4393999450795365e-06 0.0000000000000000e+00  1.3898870347685499e-04 7.2562288660814646e-06 0.0000000000000000e+00  1.8189621585211973e-04 9.7241244487768151e-06 0.0000000000000000e+00  2.4025690211323413e-04 1.3120323873406755e-05 0.0000000000000000e+00  3.2181610944493250e-04 1.7831606735933751e-05 0.0000000000000000e+00  4.3922095797588274e-04 2.4409013441636889e-05 0.0000000000000000e+00  6.1363830921124169e-04 3.3822722774744829e-05 0.0000000000000000e+00  8.8092470347327036e-04 4.8856345332409513e-05 0.0000000000000000e+00  1.3011915082364372e-03 8.0503649461557449e-05 0.0000000000000000e+00  1.9698318866043759e-03 1.6968974509960191e-04 0.0000000000000000e+00  0.0000000000000000e+00 0.0000000000000000e+00 0.0000000000000000e+00  5.1682763994121067e-06 2.4485017863561239e-07 0.0000000000000000e+00  1.0615983314387132e-05 5.0553361276748896e-07 0.0000000000000000e+00  1.6641720547551040e-05 7.9932693885545564e-07 0.0000000000000000e+00  2.3598284929071870e-05 1.1472013704453707e-06 0.0000000000000000e+00  3.1930912336977634e-05 1.5763264482725372e-06 0.0000000000000000e+00  4.2233243424159709e-05 2.1234138021740362e-06 0.0000000000000000e+00  5.5334792352922988e-05 2.8390132864100177e-06 0.0000000000000000e+00  7.2444943470742015e-05 3.7919595983052559e-06 0.0000000000000000e+00  9.5401011411847314e-05 5.0695713746022509e-06 0.0000000000000000e+00  1.2711330846953506e-04 6.7562336068259545e-06 0.0000000000000000e+00  1.7238868220570779e-04 8.8274773613677234e-06 0.0000000000000000e+00  2.3945664370841373e-04 1.0739386730206729e-05 0.0000000000000000e+00  3.4254276420780494e-04 9.9745143346843481e-06 0.0000000000000000e+00  5.0426099728507492e-04 -2.5972045550893781e-06 0.0000000000000000e+00  7.4624562278611975e-04 -5.3348165023267564e-05 0.0000000000000000e+00  1.0309882072957618e-03 -1.8181694466627084e-04 0.0000000000000000e+00  0.0000000000000000e+00 0.0000000000000000e+00 0.0000000000000000e+00  0.0000000000000000e+00 0.0000000000000000e+00 0.0000000000000000e+00  0.0000000000000000e+00 0.0000000000000000e+00 0.0000000000000000e+00  0.0000000000000000e+00 0.0000000000000000e+00 0.0000000000000000e+00  0.0000000000000000e+00 0.0000000000000000e+00 0.0000000000000000e+00  0.0000000000000000e+00 0.0000000000000000e+00 0.0000000000000000e+00  0.0000000000000000e+00 0.0000000000000000e+00 0.0000000000000000e+00  0.0000000000000000e+00 0.0000000000000000e+00 0.0000000000000000e+00  0.0000000000000000e+00 0.0000000000000000e+00 0.0000000000000000e+00  0.0000000000000000e+00 0.0000000000000000e+00 0.0000000000000000e+00  0.0000000000000000e+00 0.0000000000000000e+00 0.0000000000000000e+00  0.0000000000000000e+00 0.0000000000000000e+00 0.0000000000000000e+00  0.000