<?xml version="1.0"?>
<VTKFile type="UnstructuredGrid"  version="0.1"  >
<UnstructuredGrid>
<Piece  NumberOfPoints="289" NumberOfCells="512">
<Points>
<DataArray  type="Float64"  NumberOfComponents="3"  format="ascii">0 0 0  0.0625 0 0  0.125 0 0  0.1875 0 0  0.25 0 0  0.3125 0 0  0.375 0 0  0.4375 0 0  0.5 0 0  0.5625 0 0  0.625 0 0  0.6875 0 0  0.75 0 0  0.8125 0 0  0.875 0 0  0.9375 0 0  1 0 0  0 0.0625 0  0.06248533061925684 0.0624790141046227 0  0.1249703939675911 0.06245765927822596 0  0.1874549246441326 0.06243559668384748 0  0.2499387237938981 0.0624125663299433 0  0.3124217100290229 0.06238843793436584 0  0.3749039972060602 0.06236327430282811 0  0.4373860161760134 0.06233740774883839 0  0.4998687081636238 0.0623115247577554 0  0.5623538375220174 0.06228674461348062 0  0.6248445118512462 0.06226466268832147 0  0.6873460814202852 0.06224730947122863 0  0.7498677623144963 0.06223696280644499 0  0.8124256122640837 0.06223578994004272 0  0.8750473786778299 0.06224557829110411 0  0.9377744273608061 0.06226925819058438 0  1.000610061166046 0.0623253605949477 0  0 0.125 0  0.06247092169537324 0.1249583833501171 0  0.1249412897786543 0.1249159895649038 0  0.1874105564600055 0.1248720973742035 0  0.2498783045101474 0.1248261340270701 0  0.3123443490952131 0.1247777740825339 0  0.3748088949195015 0.1247270662898653 0  0.4372727834594428 0.1246745924650328 0  0.4997378852295177 0.1246216532117051 0  0.5622077282551563 0.1245704577532824 0  0.6246885202888468 0.1245242642569312 0  0.6871908431500768 0.1244873684761396 0  0.7497325014225208 0.1244647743991878 0  0.8123432695344696 0.1244613280150184 0  0.8750723367853904 0.1244801509887143 0  0.9379989404326556 0.1245205202181366 0  1.001257731695699 0.1245741612338633 0  0 0.1875 0  0.0624571069361975 0.1874385232823781 0  0.1249133240397816 0.1873757895405799 0  0.1873677688549095 0.1873106142868415 0  0.2498197337988221 0.1872420114038647 0  0.3122688262695923 0.1871693321421242 0  0.3747151876809541 0.1870924524192883 0  0.4371598388535993 0.1870120209296203 0  0.4996052222746957 0.1869297715803339 0  0.5620560473339113 0.1868488830067014 0  0.6245205963057324 0.186774325362933 0  0.6870127121740465 0.1867130532333295 0  0.7495547244747095 0.1866737510922465 0  0.812181429862028 0.1866655344936648 0  0.8749445994825233 0.1866942953650614 0  0.9379162789635483 0.1867533105156865 0  1.001190751853274 0.1867983182785863 0  0 0.25 0  0.06244426939703247 0.2499199202439047 0  0.1248872416998204 0.249838009712659 0  0.187327622226357 0.2497525123767581 0  0.2497643009955707 0.2496618880581123 0  0.312196508342992 0.2495649764524525 0  0.3746240647873667 0.2494612334153975 0  0.4370477794987437 0.249351066949634 0  0.49947007301674 0.2492362975984344 0  0.5618959252419604 0.2491207542091137 0  0.6243342699564105 0.249010978271876 0  0.6867999440315696 0.2489169243872057 0  0.7493161827777944 0.2488523686281828 0  0.8119172943235295 0.2488344009749688 0  0.8746503930937939 0.248880798722323 0  0.9375741689642522 0.2490033617888456 0  1.000753069387347 0.2491959750074168 0  0 0.3125 0  0.06243284957311153 0.3124031525633161 0  0.1248639191373793 0.3123038008157136 0  0.1872914166314877 0.3121994974940202 0  0.2497137000331633 0.3120879827840827 0  0.3121294193800295 0.3119673480032349 0  0.3745377593811298 0.3118362948409929 0  0.4369388411777651 0.3116945373810965 0  0.4993343629610065 0.3115434048688819 0  0.5617285795227187 0.311386709788289 0  0.6241297247326169 0.3112319360767981 0  0.686551933065366 0.3110917501198069 0  0.7490175541425057 0.3109856924350968 0  0.8115594115403156 0.3109415896254029 0  0.8742221089762808 0.3109956484122008 0  0.9370615858104886 0.3111894086905022 0  1.000144697437022 0.3115612370159547 0  0 0.375 0  0.0624233380649348 0.3748888954138193 0  0.1248443540598025 0.3747745296398837 0  0.187260688412191 0.3746536566395723 0  0.2496700483927138 0.3745231318680945 0  0.3120703044066084 0.374380038946993 0  0.3744596838149041 0.3742219264682678 0  0.436837125178619 0.3740472218864803 0  0.4992028840705209 0.373855919413651 0  0.5615595138956454 0.3736506786135175 0  0.6239133678147711 0.3734385145288004 0  0.6862767486715124 0.3732332874776116 0  0.7486707179209947 0.3730591538264189 0  0.8111283130621065 0.3729548931182416 0  0.8736976032747659 0.3729783703373555 0  0.9364441741599649 0.3732091099917716 0  0.9994546177176594 0.3737451354282954 0  0 0.4375 0  0.0624162516298241 0.4373779034425169 0  0.1248296190546481 0.437251749139095 0  0.1872371444014275 0.437117427102216 0  0.2496358076465164 0.436970780039121 0  0.3120225446681765 0.4368076474012915 0  0.3743943477643042 0.4366240151577317 0  0.4367485150975446 0.4364163497014494 0  0.4990831597441285 0.4361822443270327 0  0.5613981553237758 0.4359215865977209 0  0.6236967830897995 0.4356385751935377 0  0.6859884367750625 0.4353450768812805 0  0.7482927803573695 0.4350659793700588 0  0.8106456298583605 0.4348472107026736 0  0.873106424295333 0.4347665689647549 0  0.9357666001784501 0.4349457777916472 0  0.9987586211638499 0.435558939781879 0  0 0.5 0  0.06241209386051889 0.4998709666212154 0  0.1248207807317068 0.4997371116898324 0  0.1872225355883209 0.4995934722476236 0  0.2496136072298588 0.4994348327329852 0  0.3119899286009902 0.4992556391167892 0  0.3743470773008681 0.4990499861716616 0  0.4366803491506304 0.4988117495710793 0  0.498985071987772 0.4985349967374779 0  0.561257404728665 0.498214923024305 0  0.6234960692546819 0.4978497594176694 0  0.6857057764512312 0.4974444373255606 0  0.7479035074829185 0.4970173234548639 0  0.8101291038611651 0.4966119912032891 0  0.8724612688991291 0.4963162743741173 0  0.9350382900651601 0.4962892030442767 0  0.998080175692741 0.4967902766242573 0  0 0.5625 0  0.06241130391740492 0.5623688380815626 0  0.1248187908697543 0.5622322208135661 0  0.1872184787212352 0.562084450618677 0  0.2496059804177562 0.561919337591072 0  0.3119762861124637 0.5617299469514884 0  0.3743235409595358 0.5615083554830845 0  0.4366408599225963 0.5612454560375387 0  0.498920296575651 0.5609309049181765 0  0.5611532490605036 0.5605534225171627 0  0.6233319301363343 0.5601018963438975 0  0.6854531855572495 0.5595682248403192 0  0.7475270564509403 0.5589538160995118 0  0.8095939577644002 0.5582834543697407 0  0.8717551908496808 0.5576328900235475 0  0.9342187478161197 0.5571778242641598 0  0.9973516458028413 0.5572645032882072 0  0 0.625 0  0.06241419871360988 0.6248721381034442 0  0.1248243602025755 0.6247384281533671 0  0.187226240796984 0.6245926837538472 0  0.2496150285671214 0.6244279903430564 0  0.3119849951341591 0.6242362745896 0  0.3743290674329259 0.6240077942465925 0  0.4366383117202475 0.6237305290993091 0  0.4989013809611061 0.6233894768428788 0  0.5611041456051944 0.622965924418295 0  0.6232301615376594 0.6224369435490278 0  0.6852636509653474 0.621775824330515 0  0.7471988612664336 0.6209553662258176 0  0.8090637212976588 0.6199590077312317 0  0.870971189265615 0.6188119030030476 0  0.9332128590004281 0.6176558235426134 0  0.9963930618696814 0.6168890839590055 0  0 0.6875 0  0.06242091580847758 0.6873812452373181 0  0.1248378300208143 0.6872565977823073 0  0.187246509920982 0.687119755461904 0  0.2496420430673059 0.6869635054654257 0  0.3120183851946015 0.6867791423494785 0  0.3743677448498257 0.6865557132470185 0  0.4366797222505877 0.6862789992108408 0  0.4989401183806708 0.6859301109771857 0  0.5611294046962145 0.6854835430713061 0  0.6232211748638941 0.6849045180803204 0  0.6851819865622886 0.6841455718141825 0  0.7469771061479298 0.6831430081714857 0  0.8085945709920589 0.6818167439074337 0  0.8701167927715865 0.6800883572148546 0  0.9318891089393909 0.6779712314651468 0  0.9948146073176429 0.675837323750818 0  0 0.75 0  0.06243136588828263 0.749896192136711 0  0.1248590615506928 0.7497868755193611 0  0.1872791873528215 0.7496661054196987 0  0.2496871381634383 0.7495269470294738 0  0.3120771069181789 0.7493608109278669 0  0.3744413620192317 0.749156545806166 0  0.4367691385477737 0.7488991365840808 0  0.4990448871880084 0.7485677715145874 0  0.5612454946247093 0.7481328955557368 0  0.6233360052800329 0.7475516072151224 0  0.6852637363481845 0.7467602841799887 0  0.7469530369503706 0.7456625120434857 0  0.8083126680524484 0.7441095266061218 0  0.8693016833102217 0.7418737731043971 0  0.9301961488572325 0.7386600302683864 0  0.9921297275447467 0.7346117913535328 0  0 0.8125 0  0.06244520451780541 0.8124165877690106 0  0.1248873664995548 0.8123285114979882 0  0.1873232464656152 0.8122307027973211 0  0.2497489771901388 0.8121171622375863 0  0.3121596066424447 0.8119803142267397 0  0.3745484037506903 0.811810098551591 0  0.4369057279897357 0.8115926223114696 0  0.4992170881218089 0.8113080859138135 0  0.5614596641859174 0.8109274973819186 0  0.6235958807490993 0.8104073061015408 0  0.6855613902291521 0.8096802722369725 0  0.7472432333669857 0.8086389117784579 0  0.8084453220170378 0.8071024706925692 0  0.8688642498835017 0.804742827401714 0  0.928277869287951 0.8009003952423837 0  0.9885612865515145 0.7940928665438876 0  0 0.875 0  0.06246183179021137 0.8749415870371352 0  0.1249215009859864 0.8748797842223071 0  0.1873767066210321 0.874810889572013 0  0.249824691471413 0.8747304760090077 0  0.3122619065625811 0.874632878808926 0  0.3746834924684498 0.8745104606506552 0  0.4370824098168581 0.8743525018826219 0  0.4994478754739558 0.8741434688535572 0  0.5617623548436603 0.8738602521253521 0  0.6239953840206444 0.8734676933744719 0  0.686090060374574 0.8729112297581988 0  0.7479318167010431 0.8721043709081364 0  0.8092730773378843 0.8709048455323136 0  0.8695472080930964 0.8690551738797979 0  0.9274154897929648 0.8659756067538125 0  0.9797941601790676 0.8598866591506978 0  0 0.9375 0  0.06248042463342551 0.9374699223406744 0  0.1249597359574114 0.9374380605585801 0  0.1874367535632654 0.9374024605797164 0  0.2499100676192801 0.9373607715459739 0  0.3123778731363643 0.9373099621950229 0  0.3748377165962634 0.9372459102176307 0  0.4372860739146421 0.9371627
[...]
<PointData  Vectors="f_54"> 
<DataArray  type="Float64"  Name="f_54"  NumberOfComponents="3" format="ascii">0.0000000000000000e+00 0.0000000000000000e+00 0.0000000000000000e+00  0.0000000000000000e+00 0.0000000000000000e+00 0.0000000000000000e+00  0.0000000000000000e+00 0.0000000000000000e+00 0.0000000000000000e+00  0.0000000000000000e+00 0.0000000000000000e+00 0.0000000000000000e+00  0.0000000000000000e+00 0.0000000000000000e+00 0.0000000000000000e+00  0.0000000000000000e+00 0.0000000000000000e+00 0.0000000000000000e+00  0.0000000000000000e+00 0.0000000000000000e+00 0.0000000000000000e+00  0.0000000000000000e+00 0.0000000000000000e+00 0.0000000000000000e+00  0.0000000000000000e+00 0.0000000000000000e+00 0.0000000000000000e+00  0.0000000000000000e+00 0.0000000000000000e+00 0.0000000000000000e+00  0.0000000000000000e+00 0.0000000000000000e+00 0.0000000000000000e+00  0.0000000000000000e+00 0.0000000000000000e+00 0.0000000000000000e+00  0.0000000000000000e+00 0.0000000000000000e+00 0.0000000000000000e+00  0.0000000000000000e+00 0.0000000000000000e+00 0.0000000000000000e+00  0.0000000000000000e+00 0.0000000000000000e+00 0.0000000000000000e+00  0.0000000000000000e+00 0.0000000000000000e+00 0.0000000000000000e+00  0.0000000000000000e+00 0.0000000000000000e+00 0.0000000000000000e+00  0.0000000000000000e+00 0.0000000000000000e+00 0.0000000000000000e+00  3.9288683664709694e-06 1.0564357515257576e-07 0.0000000000000000e+00  7.9499793890750173e-06 2.1296349986887333e-07 0.0000000000000000e+00  1.2154365693519311e-05 3.2348028248251629e-07 0.0000000000000000e+00  1.6624901504331403e-05 4.3823909974292640e-07 0.0000000000000000e+00  2.1430164464074154e-05 5.5749999808177092e-07 0.0000000000000000e+00  2.6615551055384885e-05 6.8034314997621892e-07 0.0000000000000000e+00  3.2190502836896601e-05 8.0417179326821587e-07 0.0000000000000000e+00  3.8110498839958516e-05 9.2410823253160780e-07 0.0000000000000000e+00  4.4252138868256998e-05 1.0322904211628869e-06 0.0000000000000000e+00  5.0378932105000834e-05 1.1170628246783316e-06 0.0000000000000000e+00  5.6093563248496285e-05 1.1619305284929895e-06 0.0000000000000000e+00  6.0767289571220066e-05 1.1436389030042355e-06 0.0000000000000000e+00  6.3422573103105015e-05 1.0269287557373971e-06 0.0000000000000000e+00  6.2502767197231382e-05 7.4688328700558252e-07 0.0000000000000000e+00  5.5336020898794211e-05 1.4363448792493120e-07 0.0000000000000000e+00  3.6717779407814033e-05 -1.2948878208351266e-06 0.0000000000000000e+00  0.0000000000000000e+00 0.0000000000000000e+00 0.0000000000000000e+00  7.7610152728909595e-06 2.0949010877411461e-07 0.0000000000000000e+00  1.5710121156282869e-05 4.2255413114208336e-07 0.0000000000000000e+00  2.4033595606101885e-05 6.4247974812078500e-07 0.0000000000000000e+00  3.2903158409336097e-05 8.7166432432050215e-07 0.0000000000000000e+00  4.2464717938277959e-05 1.1110216949311924e-06 0.0000000000000000e+00  5.2821792638802150e-05 1.3592116182551683e-06 0.0000000000000000e+00  6.4011386695429876e-05 1.6116522590880420e-06 0.0000000000000000e+00  7.5969756778986473e-05 1.8593061829135546e-06 0.0000000000000000e+00  8.8485062679503207e-05 2.0872780949950357e-06 0.0000000000000000e+00  1.0113313287670967e-04 2.2733156554005767e-06 0.0000000000000000e+00  1.1319079588169332e-04 2.3863165459160341e-06 0.0000000000000000e+00  1.2351653191382009e-04 2.3848314204244669e-06 0.0000000000000000e+00  1.3037590752678561e-04 2.2153813741252262e-06 0.0000000000000000e+00  1.3115858436664205e-04 1.8117691232742941e-06 0.0000000000000000e+00  1.2186139085803033e-04 1.1103853133406709e-06 0.0000000000000000e+00  9.6044433929987907e-05 1.8585704470572307e-07 0.0000000000000000e+00  0.0000000000000000e+00 0.0000000000000000e+00 0.0000000000000000e+00  1.1398255632774902e-05 3.0957722044415668e-07 0.0000000000000000e+00  2.3086964831875404e-05 6.2504059454893868e-07 0.0000000000000000e+00  3.5355320212080148e-05 9.5191084739521870e-07 0.0000000000000000e+00  4.8474937251673059e-05 1.2945261216253810e-06 0.0000000000000000e+00  6.2685445261716414e-05 1.6552207486031742e-06 0.0000000000000000e+00  7.8172472640369736e-05 2.0332197390357600e-06 0.0000000000000000e+00  9.5034795569177294e-05 2.4231718327865589e-06 0.0000000000000000e+00  1.1323695728530086e-04 2.8132879403701196e-06 0.0000000000000000e+00  1.3254327222153933e-04 3.1831451732409753e-06 0.0000000000000000e+00  1.5242888512151853e-04 3.5013786707455452e-06 0.0000000000000000e+00  1.7196343040964214e-04 3.7237091099806727e-06 0.0000000000000000e+00  1.8966261541027014e-04 3.7919628765758099e-06 0.0000000000000000e+00  2.0330272116910527e-04 3.6346664488686869e-06 0.0000000000000000e+00  2.0969564658114760e-04 3.1685700857704606e-06 0.0000000000000000e+00  2.0444652320188319e-04 2.2939853821306105e-06 0.0000000000000000e+00  1.8184318941641503e-04 8.3933188828994256e-07 0.0000000000000000e+00  0.0000000000000000e+00 0.0000000000000000e+00 0.0000000000000000e+00  1.4736351272402282e-05 4.0353779897662738e-07 0.0000000000000000e+00  2.9873288339503946e-05 8.1581970816292595e-07 0.0000000000000000e+00  4.5812286760826356e-05 1.2452231189860236e-06 0.0000000000000000e+00  6.2939010867226039e-05 1.6988410888143880e-06 0.0000000000000000e+00  8.1608553451988119e-05 2.1815262270253823e-06 0.0000000000000000e+00  1.0212123557679880e-04 2.6945280152796808e-06 0.0000000000000000e+00  1.2468475565652372e-04 3.2335804528386809e-06 0.0000000000000000e+00  1.4935777524907574e-04 3.7863327912924111e-06 0.0000000000000000e+00  1.7596954599077749e-04 4.3291334538950969e-06 0.0000000000000000e+00  2.0401033640463017e-04 4.8234486295971501e-06 0.0000000000000000e+00  2.3248887023794861e-04 5.2127117199636024e-06 0.0000000000000000e+00  2.5975683804078156e-04 5.4212031063408832e-06 0.0000000000000000e+00  2.8330906518202436e-04 5.3574731896210183e-06 0.0000000000000000e+00  2.9958713163892662e-04 4.9250538445694801e-06 0.0000000000000000e+00  3.0386066366990319e-04 4.0408934159733282e-06 0.0000000000000000e+00  2.9037067338429833e-04 2.6564454422972188e-06 0.0000000000000000e+00  0.0000000000000000e+00 0.0000000000000000e+00 0.0000000000000000e+00  1.7663984566877412e-05 4.8847473896641135e-07 0.0000000000000000e+00  3.5845374753980194e-05 9.8913287607717510e-07 0.0000000000000000e+00  5.5066514136941115e-05 1.5138935105475022e-06 0.0000000000000000e+00  7.5841551226911753e-05 2.0735504365742618e-06 0.0000000000000000e+00  9.8664858429746614e-05 2.6768242841576603e-06 0.0000000000000000e+00  1.2398885291912891e-04 3.3288854376187381e-06 0.0000000000000000e+00  1.5218606032604248e-04 4.0291033320281155e-06 0.0000000000000000e+00  1.8348905009671563e-04 4.7677588363189228e-06 0.0000000000000000e+00  2.1790082391411999e-04 5.5215234161772923e-06 0.0000000000000000e+00  2.5506800227804711e-04 6.2477969490680527e-06 0.0000000000000000e+00  2.9411086861597330e-04 6.8787517049206251e-06 0.0000000000000000e+00  3.3340981711182591e-04 7.3175159723501056e-06 0.0000000000000000e+00  3.7035971918073169e-04 7.4416719704417091e-06 0.0000000000000000e+00  4.0112609392473590e-04 7.1228563844141392e-06 0.0000000000000000e+00  4.2047520618675741e-04 6.2736079801965863e-06 0.0000000000000000e+00  4.2180867240367736e-04 4.9281653847986329e-06 0.0000000000000000e+00  0.0000000000000000e+00 0.0000000000000000e+00 0.0000000000000000e+00  2.0064042987994542e-05 5.6093157195870393e-07 0.0000000000000000e+00  4.0765076129237822e-05 1.1379749653819467e-06 0.0000000000000000e+00  6.2751073872732119e-05 1.7472033259095017e-06 0.0000000000000000e+00  8.6675839464655605e-05 2.4040447350377242e-06 0.0000000000000000e+00  1.1319467857504013e-04 3.1225451491401123e-06 0.0000000000000000e+00  1.4294936232248681e-04 3.9140192637270899e-06 0.0000000000000000e+00  1.7653643447976399e-04 4.7847224242095874e-06 0.0000000000000000e+00  2.1445085848843085e-04 5.7320386855514159e-06 0.0000000000000000e+00  2.5699471259421332e-04 6.7385615348890752e-06 0.0000000000000000e+00  3.0413880947103617e-04 7.7635023433935061e-06 0.0000000000000000e+00  3.5532517184544931e-04 8.7314959658971915e-06 0.0000000000000000e+00  4.0920270296413699e-04 9.5209246459899648e-06 0.0000000000000000e+00  4.6330039231916336e-04 9.9587667865824714e-06 0.0000000000000000e+00  5.1366392149848096e-04 9.8381779396626921e-06 0.0000000000000000e+00  5.5450715637145168e-04 8.9876320831582280e-06 0.0000000000000000e+00  5.7793637875408802e-04 7.4276392987443758e-06 0.0000000000000000e+00  0.0000000000000000e+00 0.0000000000000000e+00 0.0000000000000000e+00  2.1817685747529400e-05 6.1699048048629735e-07 0.0000000000000000e+00  4.4387705064850979e-05 1.2542650652680294e-06 0.0000000000000000e+00  6.8481256397463669e-05 1.9324215986479274e-06 0.0000000000000000e+00  9.4895611585160450e-05 2.6722403465412787e-06 0.0000000000000000e+00  1.2446134807288014e-04 3.4944132728173239e-06 0.0000000000000000e+00  1.5804031386082288e-04 4.4186847426439937e-06 0.0000000000000000e+00  1.9650807443608826e-04 5.4619440553149010e-06 0.0000000000000000e+00  2.4071143480536449e-04 6.6345044505650646e-06 0.0000000000000000e+00  2.9138743611875579e-04 7.9333441680883261e-06 0.0000000000000000e+00  3.4902541331324017e-04 9.3305220866753382e-06 0.0000000000000000e+00  4.1364974232527735e-04 1.0754662583420914e-05 0.0000000000000000e+00  4.8450119947262210e-04 1.2064505942625513e-05 0.0000000000000000e+00  5.5960509994096481e-04 1.3019004431337018e-05 0.0000000000000000e+00  6.3523936427906439e-04 1.3263943558465710e-05 0.0000000000000000e+00  7.0534490990948251e-04 1.2386958392415970e-05 0.0000000000000000e+00  7.6089715336926246e-04 1.0138676706389561e-05 0.0000000000000000e+00  0.0000000000000000e+00 0.0000000000000000e+00 0.0000000000000000e+00  2.2811386100892437e-05 6.5252127497310225e-07 0.0000000000000000e+00  4.6476257957849255e-05 1.3293377147579854e-06 0.0000000000000000e+00  7.1876172267718307e-05 2.0555130540425107e-06 0.0000000000000000e+00  9.9944006275026428e-05 2.8574257365706742e-06 0.0000000000000000e+00  1.3168673974681312e-04 3.7632341760408182e-06 0.0000000000000000e+00  1.6820252099809438e-04 4.8029573668160630e-06 0.0000000000000000e+00  2.1068644887541993e-04 6.0077379903013371e-06 0.0000000000000000e+00  2.6041530077845396e-04 7.4074134988345867e-06 0.0000000000000000e+00  3.1869498678764585e-04 9.0246755020520811e-06 0.0000000000000000e+00  3.8674544757170796e-04 1.0862578761554892e-05 0.0000000000000000e+00  4.6548685065798089e-04 1.2879752912794146e-05 0.0000000000000000e+00  5.5518232589508543e-04 1.4944890941405476e-05 0.0000000000000000e+00  6.5489675887369899e-04 1.6762323547878647e-05 0.0000000000000000e+00  7.6176674730347896e-04 1.7774703160645165e-05 0.0000000000000000e+00  8.7015111130736100e-04 1.7100059382423155e-05 0.0000000000000000e+00  9.7075643223821497e-04 1.3670124671090987e-05 0.0000000000000000e+00  0.0000000000000000e+00 0.0000000000000000e+00 0.0000000000000000e+00  2.2946757859962442e-05 6.6358580181091402e-07 0.0000000000000000e+00  4.6821719725565947e-05 1.3547778445020451e-06 0.0000000000000000e+00  7.2590764350968662e-05 2.1024466919299211e-06 0.0000000000000000e+00  1.0129882704633638e-04 2.9380730169699165e-06 0.0000000000000000e+00  1.3411107993577151e-04 3.8971507369408873e-06 0.0000000000000000e+00  1.7235442661567068e-04 5.0206248134633219e-06 0.0000000000000000e+00  2.1755602194597267e-04 6.3561709861331144e-06 0.0000000000000000e+00  2.7147089818661954e-04 7.9587268821816704e-06 0.0000000000000000e+00  3.3608252563328378e-04 9.8887185030144611e-06 0.0000000000000000e+00  4.1354636849660144e-04 1.2204172120081800e-05 0.0000000000000000e+00  5.0602576238736711e-04 1.4937936765031266e-05 0.0000000000000000e+00  6.1534387962652783e-04 1.8041345802910560e-05 0.0000000000000000e+00  7.4235952570023437e-04 2.1259602391158430e-05 0.0000000000000000e+00  8.8601259689693502e-04 2.3891165063595325e-05 0.0000000000000000e+00  1.0421675946698061e-03 2.4418967890200925e-05 0.0000000000000000e+00  1.2027828683885630e-03 2.0179442597949059e-05 0.0000000000000000e+00  0.0000000000000000e+00 0.0000000000000000e+00 0.0000000000000000e+00  2.2152475151148459e-05 6.4696949462451908e-07 0.0000000000000000e+00  4.5268177876422197e-05 1.3235539126076098e-06 0.0000000000000000e+00  7.0356639513506945e-05 2.0610728357425348e-06 0.0000000000000000e+00  9.8532758316888759e-05 2.8946694365063013e-06 0.0000000000000000e+00  1.3107698722674536e-04 3.8656734802679009e-06 0.0000000000000000e+00  1.6950419107427889e-04 5.0245667795887946e-06 0.0000000000000000e+00  2.1564223681841337e-04 6.4348257856117869e-06 0.0000000000000000e+00  2.7171774668183565e-04 8.1778772348943731e-06 0.0000000000000000e+00  3.4043830867620508e-04 1.0359008013089341e-05 0.0000000000000000e+00  4.2504376154931135e-04 1.3112444247142603e-05 0.0000000000000000e+00  5.2926792867837166e-04 1.6598431845331541e-05 0.0000000000000000e+00  6.5710046139696109e-04 2.0969406259118982e-05 0.0000000000000000e+00  8.1217165644813282e-04 2.6241493979215322e-05 0.0000000000000000e+00  9.9655767367372652e-04 3.1920452270152813e-05 0.0000000000000000e+00  1.2090226833628768e-03 3.6124509720924989e-05 0.0000000000000000e+00  1.4434173510305590e-03 3.4016302151506764e-05 0.0000000000000000e+00  0.0000000000000000e+00 0.0000000000000000e+00 0.0000000000000000e+00  2.0397009646784610e-05 6.0076905740864598e-07 0.0000000000000000e+00  4.1740215092377174e-05 1.2313054847082741e-06 0.0000000000000000e+00  6.5028037053441087e-05 1.9233560330550315e-06 0.0000000000000000e+00  9.1384070820406198e-05 2.7133213212573494e-06 0.0000000000000000e+00  1.2213346879555692e-04 3.6453290612660424e-06 0.0000000000000000e+00  1.5889759530389604e-04 4.7754240115714457e-06 0.0000000000000000e+00  2.0371437486792050e-04 6.1776781216931244e-06 0.0000000000000000e+00  2.5919132482893120e-04 7.9535979353376309e-06 0.0000000000000000e+00  3.2869413753067422e-04 1.0247190885064689e-05 0.0000000000000000e+00  4.1656010107933404e-04 1.3269386688196284e-05 0.0000000000000000e+00  5.2829079602240993e-04 1.7335758176587195e-05 0.0000000000000000e+00  6.7060120102216490e-04 2.2913232456411486e-05 0.0000000000000000e+00  8.5105547068131432e-04 3.0625435116500121e-05 0.0000000000000000e+00  1.0768192525355573e-03 4.0985436032078135e-05 0.0000000000000000e+00  1.3521737173121475e-03 5.3114467977523141e-05 0.0000000000000000e+00  1.6765348600631814e-03 6.2204344411288229e-05 0.0000000000000000e+00  0.0000000000000000e+00 0.0000000000000000e+00 0.0000000000000000e+00  1.7700326813139810e-05 5.2492544331897452e-07 0.0000000000000000e+00  3.6268713022503486e-05 1.0775407877133151e-06 0.0000000000000000e+00  5.6626819283869448e-05 1.6875385029920766e-06 0.0000000000000000e+00  7.9829304295826679e-05 2.3894566533401493e-06 0.0000000000000000e+00  1.0714930197651042e-04 3.2259494291150088e-06 0.0000000000000000e+00  1.4019076510337166e-04 4.2523645420667357e-06 0.0000000000000000e+00  1.8104229535357891e-04 5.5436725246221709e-06 0.0000000000000000e+00  2.3249215053125404e-04 7.2058023038157733e-06 0.0000000000000000e+00  2.9832927625219002e-04 9.3957693285238573e-06 0.0000000000000000e+00  3.8375577637172152e-04 1.2360410100373286e-05 0.0000000000000000e+00  4.9591805437433048e-04 1.6515694516839557e-05 0.0000000000000000e+00  6.4448942204557746e-04 2.2612420804065885e-05 0.0000000000000000e+00  8.4201837479574244e-04 3.2061740218010412e-05 0.0000000000000000e+00  1.1032230549186510e-03 4.7400918311942188e-05 0.0000000000000000e+00  1.4414839461261153e-03 7.1656901538554686e-05 0.0000000000000000e+00  1.8654405061784667e-03 9.4159246596777250e-05 0.0000000000000000e+00  0.0000000000000000e+00 0.0000000000000000e+00 0.0000000000000000e+00  1.4142258606330795e-05 4.2157483594370535e-07 0.0000000000000000e+00  2.9010113899705899e-05 8.6644709243013309e-07 0.0000000000000000e+00  4.5378104794917262e-05 1.3596650660878473e-06 0.0000000000000000e+00  6.4145054515847135e-05 1.9305833291081316e-06 0.0000000000000000e+00  8.6417321263901003e-05 2.6157169242321787e-06 0.0000000000000000e+00  1.1362329566062376e-04 3.4626240836094511e-06 0.0000000000000000e+00  1.4767920073012066e-04 4.5355209929473191e-06 0.0000000000000000e+00  1.9123749008382942e-04 5.9239770752645634e-06 0.0000000000000000e+00  2.4806709993245433e-04 7.7578381281797149e-06 0.0000000000000000e+00  3.2364130828361836e-04 1.0237071664844705e-05 0.0000000000000000e+00  4.2604042709973257e-04 1.3703131466869122e-05 0.0000000000000000e+00  5.6728481866494761e-04 1.8836532468633242e-05 0.0000000000000000e+00  7.6508010038745574e-04 2.7250554972725268e-05 0.0000000000000000e+00  1.0442529191284414e-03 4.3335362962386862e-05 0.0000000000000000e+00  1.4341691209521377e-03 8.0265972442649590e-05 0.0000000000000000e+00  1.9378635600837051e-03 1.8619280699381049e-04 0.0000000000000000e+00  0.0000000000000000e+00 0.0000000000000000e+00 0.0000000000000000e+00  9.8652147685291866e-06 2.9511570347518907e-07 0.0000000000000000e+00  2.0253838924373259e-05 6.0706555032586549e-07 0.0000000000000000e+00  3.1726952091481393e-05 9.5395810037474870e-07 0.0000000000000000e+00  4.4942726256662954e-05 1.3570579208178945e-06 0.0000000000000000e+00  6.0723526946256487e-05 1.8427674332406434e-06 0.0000000000000000e+00  8.0151362142787179e-05 2.4450751185559935e-06 0.0000000000000000e+00  1.0471193553501597e-04 3.2084318683246165e-06 0.0000000000000000e+00  1.3652180105936550e-04 4.1904880270436838e-06 0.0000000000000000e+00  1.7869956842870343e-04 5.4626817275154989e-06 0.0000000000000000e+00  2.3599170221398744e-04 7.1033055914515887e-06 0.0000000000000000e+00  3.1585690674648832e-04 9.1718214257350934e-06 0.0000000000000000e+00  4.3038806230677999e-04 1.1652635022906049e-05 0.0000000000000000e+00  5.9976957301253141e-04 1.4419426635138246e-05 0.0000000000000000e+00  8.5849942411800589e-04 1.7674389207698809e-05 0.0000000000000000e+00  1.2661203754081949e-03 2.5022340345101967e-05 0.0000000000000000e+00  1.9225647487085724e-03 5.6397784962116143e-05 0.0000000000000000e+00  0.0000000000000000e+00 0.0000000000000000e+00 0.0000000000000000e+00  5.0694138988213911e-06 1.5195769903853313e-07 0.0000000000000000e+00  1.0413490596790592e-05 3.1274514837463242e-07 0.0000000000000000e+00  1.6327486446361255e-05 4.9185645702615799e-07 0.0000000000000000e+00  2.3160175057395363e-05 7.0043228256013897e-07 0.0000000000000000e+00  3.1351589436918097e-05 9.5222646107900978e-07 0.0000000000000000e+00  4.1487876816395292e-05 1.2646294168762426e-06 0.0000000000000000e+00  5.4386283886177611e-05 1.6593275056253520e-06 0.0000000000000000e+00  7.1233483836757023e-05 2.1610295499285701e-06 0.0000000000000000e+00  9.3820402016104711e-05 2.7890618112205527e-06 0.0000000000000000e+00  1.2495583232611000e-04 3.5250707310843545e-06 0.0000000000000000e+00  1.6921497517599868e-04 4.2026788994249550e-06 0.0000000000000000e+00  2.3429378487932034e-04 4.1428546932194633e-06 0.0000000000000000e+00  3.3325797023631653e-04 9.6908505271790209e-07 0.0000000000000000e+00  4.8681960403558109e-04 -1.3047615623846357e-05 0.0000000000000000e+00  7.1706989622688793e-04 -6.0048947676897539e-05 0.0000000000000000e+00  9.9989369353121289e-04 -1.8096552236258868e-04 0.0000000000000000e+00  0.0000000000000000e+00 0.0000000000000000e+00 0.0000000000000000e+00  0.0000000000000000e+00 0.0000000000000000e+00 0.0000000000000000e+00  0.0000000000000000e+00 0.0000000000000000e+00 0.0000000000000000e+00  0.0000000000000000e+00 0.0000000000000000e+00 0.0000000000000000e+00  0.0000000000000000e+00 0.0000000000000000e+00 0.0000000000000000e+00  0.0000000000000000e+00 0.0000000000000000e+00 0.0000000000000000e+00  0.0000000000000000e+00 0.0000000000000000e+00 0.0000000000000000e+00  0.0000000000000000e+00 0.0000000000000000e+00 0.0000000000000000e+00  0.0000000000000000e+00 0.0000000000000000e+00 0.0000000000000000e+00  0.0000000000000000e+00 0.0000000000000000e+00 0.0000000000000000e+00  0.0000000000000000e+00 0.0000000000000000e+00 0.0000000000000000e+00  0.0000000000000000e+00 0.0000000000000000e+00 0.0000000000000000e+00  0.000000