<?xml version="1.0"?>
<VTKFile type="UnstructuredGrid"  version="0.1"  >
<UnstructuredGrid>
<Piece  NumberOfPoints="289" NumberOfCells="512">
<Points>
<DataArray  type="Float64"  NumberOfComponents="3"  format="ascii">0 0 0  0.0625 0 0  0.125 0 0  0.1875 0 0  0.25 0 0  0.3125 0 0  0.375 0 0  0.4375 0 0  0.5 0 0  0.5625 0 0  0.625 0 0  0.6875 0 0  0.75 0 0  0.8125 0 0  0.875 0 0  0.9375 0 0  1 0 0  0 0.0625 0  0.06245666939525593 0.0624778766754756 0  0.1249125752779008 0.0624553659475857 0  0.1873669912880499 0.0624321123313604 0  0.2498193736187879 0.06240784469123232 0  0.3122694915413345 0.06238243079846078 0  0.3747176132424636 0.06235594551474935 0  0.437164776803234 0.06232875334443201 0  0.4996131914867333 0.06230160051318535 0  0.5620668462703728 0.0622757017766872 0  0.6245324740503052 0.06225279141706463 0  0.6870211922490723 0.06223508728001191 0  0.7495515745519422 0.06222510173993545 0  0.8121560109301439 0.06222526909425071 0  0.8748948398858716 0.06223762403881519 0  0.9378872708650992 0.0622651173123602 0  1.001359923037373 0.06232510463612152 0  0 0.125 0  0.06241414320886538 0.1249561289197137 0  0.1248266879797011 0.12491144126104 0  0.18723610487335 0.1248651796167105 0  0.2496412085037447 0.1248167453072053 0  0.3120414075339339 0.124765804193948 0  0.3744370642841305 0.1247124229109242 0  0.4368300215975062 0.1246572399913287 0  0.4992243803113912 0.1246016668731441 0  0.5616276583745587 0.1245480953241903 0  0.6240525560774496 0.1245000555413999 0  0.6865197391591267 0.1244622188821467 0  0.7490624128195532 0.1244400741402009 0  0.8117340539753783 0.1244390578903771 0  0.8746212117168393 0.1244630005913398 0  0.9378623673673959 0.1245121808805861 0  1.001673731502607 0.1245807239723855 0  0 0.1875 0  0.06237332148576376 0.1874351939597181 0  0.1247440622489565 0.1873690658161143 0  0.1871097262399508 0.1873003701151085 0  0.2494682683934197 0.187228073088583 0  0.3118184313237315 0.1871515012370801 0  0.3741602376724605 0.1870705419191596 0  0.4364957162485739 0.1869859096394113 0  0.4988299663546841 0.1868994823086691 0  0.561172702938244 0.1868146898804931 0  0.6235404785972763 0.186736893016711 0  0.6859598407139286 0.186673604511164 0  0.7484716987023381 0.1866342491953507 0  0.8111369256502516 0.1866288506792907 0  0.8740420613421382 0.1866643146733074 0  0.9373008427489106 0.18673487795037 0  1.001043174734443 0.1867965905979098 0  0 0.25 0  0.06233524827935311 0.2499155843768848 0  0.1246667369661078 0.2498292412357195 0  0.1869907812790949 0.249739121724428 0  0.2493041708316929 0.2496436068360865 0  0.3116045424444428 0.2495414822952598 0  0.3738909430809624 0.2494321908617995 0  0.4361646758940055 0.2493161916252462 0  0.4984305454934466 0.2491954530586351 0  0.5606986392738073 0.2490740919627512 0  0.6229867824541196 0.2489591300377424 0  0.6853237409450212 0.2488612485084641 0  0.7477530133194621 0.2487952356436205 0  0.8103364339750987 0.2487794733450661 0  0.8731554798866296 0.2488332210057438 0  0.9363060993773793 0.2489697638236072 0  0.9998815967286133 0.2491843599155084 0  0 0.3125 0  0.06230114635148485 0.3123979106003132 0  0.1245971490125578 0.3122931822927956 0  0.1868828968783389 0.3121832356702225 0  0.2491536716057582 0.3120656902365161 0  0.3114054927214885 0.3119385383167005 0  0.3736356744418727 0.3118004209007837 0  0.4358437014873381 0.3116510560174944 0  0.4980325576273026 0.3114918817962558 0  0.5602106582639524 0.3113269832268413 0  0.6223945194555822 0.3111643601538951 0  0.6846121840816244 0.3110175353131955 0  0.7469071249319916 0.3109073405796415 0  0.8093417401513729 0.3108633710654391 0  0.8719986772046702 0.3109239752868415 0  0.9349777547727206 0.3111328279364574 0  0.9983885089860428 0.3115296535127497 0  0 0.375 0  0.06227241237034191 0.3748828858644698 0  0.1245381338109351 0.3747623332853049 0  0.1867904277882763 0.3746349185353779 0  0.2490227519422963 0.3744973245707567 0  0.3112290021796074 0.3743464747406056 0  0.3734039736708862 0.3741797834349724 0  0.4355441623796205 0.3739955952050812 0  0.4976490742906524 0.373793916156535 0  0.5597232531966477 0.3735775840042584 0  0.6217792558276668 0.373354069297005 0  0.6838417403020881 0.3731381247629991 0  0.7459525999896169 0.3729554358403622 0  0.8081765818076794 0.3728471313229317 0  0.8706061624839238 0.3728742574847281 0  0.9333643017901724 0.3731198920333151 0  0.9966058172441815 0.3736846464348441 0  0 0.4375 0  0.06225056605326456 0.4373713073935208 0  0.1244928286246634 0.4372383354593631 0  0.1867183250553807 0.4370967479998482 0  0.2489184720512537 0.4369421567215501 0  0.3110846299876529 0.4367701661820985 0  0.37320836414359 0.4365765301523374 0  0.4352820404696892 0.4363575028583073 0  0.4972999686743474 0.4361105226133978 0  0.5592604094049581 0.4358354518725129 0  0.6211688857170294 0.4355367276085468 0  0.6830433406415959 0.4352269479238701 0  0.7449216598806634 0.4349325845420742 0  0.8068717521402855 0.4347024801276783 0  0.869003592740314 0.4346191076057868 0  0.9314817142397902 0.4348105065617645 0  0.9945374543676073 0.435457121606783 0  0 0.5 0  0.0622371513203421 0.4998640090759383 0  0.1244644730580788 0.4997229338377059 0  0.1866718338725442 0.4995715389057495 0  0.2488485689688824 0.4994043187752767 0  0.3109832877723613 0.4992154040025563 0  0.3730638199232997 0.4989985429159333 0  0.4350774356103009 0.4987472343528935 0  0.4970115892206315 0.4984551540272242 0  0.5588556255246516 0.4981171398962272 0  0.6206041870510458 0.4977312210563097 0  0.6822634808549697 0.4973025478662604 0  0.7438620199525634 0.4968506543263649 0  0.8054676206236633 0.4964221604396724 0  0.8672115683983351 0.4961111754352789 0  0.9293181791490227 0.4960874684469574 0  0.9921354430501497 0.4966251659347397 0  0 0.5625 0  0.06223359298728015 0.5623617844945692 0  0.1244561117028661 0.5622178188301992 0  0.186656022719049 0.562062095976161 0  0.2488207897254898 0.5618880856598131 0  0.3109363637817438 0.5616884636238045 0  0.3729867020421995 0.5614548468161336 0  0.4349534140245171 0.561177573635568 0  0.4968157713024806 0.5608456273030313 0  0.5585515885232935 0.5604469254220001 0  0.6201399987763392 0.5599694622391812 0  0.6815680532387627 0.5594043381516637 0  0.7428444789649359 0.5587528109430013 0  0.8040255531775048 0.5580415151828747 0  0.8652583661481043 0.5573528359737034 0  0.9268418475727926 0.5568783266084374 0  0.9892914905582855 0.5569932945945194 0  0 0.625 0  0.06224101929768029 0.6248652850062864 0  0.1244702175641969 0.6247244104072416 0  0.1866751656391129 0.6245708598366102 0  0.2488419734016019 0.6243973468266523 0  0.3109544398064009 0.6241953568697949 0  0.3729930690335455 0.6239546006863913 0  0.4349339614018062 0.6236623534943496 0  0.4967477042164177 0.6233026761761362 0  0.5583986761454588 0.6228555810731652 0  0.619845844914729 0.6222963952628447 0  0.6810475791817859 0.6215960927614504 0  0.7419758597976261 0.6207247489486709 0  0.8026501878022144 0.6196638184370166 0  0.8632072912423603 0.6184411367461007 0  0.9240212286046789 0.6172155828193631 0  0.9858648431363765 0.6164340855479744 0  0 0.6875 0  0.06226006882311333 0.6873749048476413 0  0.1245082728832515 0.687243609030884 0  0.1867320296310026 0.6870994825145756 0  0.2489169393873265 0.6869349371786656 0  0.31104563611244 0.6867408126297025 0  0.3730963117623294 0.6865055758243612 0  0.435040778005586 0.686214232283802 0  0.4968419538986033 0.685846806458141 0  0.5584508289544963 0.6853761967575231 0  0.6198035083908821 0.6847651707058661 0  0.6808205580216452 0.6839623589507224 0  0.7414150717052546 0.6828978443829276 0  0.8015258362185883 0.681482324653469 0  0.8612116780348272 0.679627236884894 0  0.9208624059414634 0.6773487629257821 0  0.9815353123803463 0.6750637371504997 0  0 0.75 0  0.06229070911233341 0.7498906721704822 0  0.12457036505559 0.7497755540490655 0  0.1868271594089447 0.7496484008427304 0  0.249047309648625 0.7495019321242452 0  0.3112137338681688 0.7493271368649347 0  0.3733042285330765 0.749112323344157 0  0.4352888473099936 0.7488417507230252 0  0.4971260450199544 0.7484935814115105 0  0.5587570034734971 0.7480367151920162 0  0.6200975531373795 0.7474257298299204 0  0.6810278565032817 0.7465925083247162 0  0.7413836002807198 0.7454319773836185 0  0.8009654238712498 0.7437780543082053 0  0.8596249651090548 0.7413699904443481 0  0.9175972018139665 0.7378659391108494 0  0.9761309152368641 0.7335082057545054 0  0 0.8125 0  0.06233210162571386 0.8124121689558934 0  0.1246548744131254 0.8123194409028112 0  0.1869582939724101 0.8122164997579524 0  0.2492304799372393 0.8120970615652873 0  0.3114563954038839 0.8119532069323574 0  0.3736159716371082 0.8117744445605167 0  0.4356812410441173 0.8115463262072047 0  0.4976117667354098 0.8112483185475758 0  0.5593471253368487 0.8108504198078763 0  0.6207942776018416 0.8103075602209765 0  0.6818062510853946 0.8095497850351479 0  0.7421473372531672 0.8084635096427836 0  0.8014440584785721 0.8068514885133677 0  0.8591576985635162 0.8043367356493253 0  0.9148330002926248 0.800106811552985 0  0.9705200688614237 0.7920895676055399 0  0 0.875 0  0.06238254920718552 0.8749385015372629 0  0.1247583383484017 0.8748734472090908 0  0.1871200746220817 0.8748009593418504 0  0.2494590244306436 0.8747164108495653 0  0.3117639756704905 0.8746139006625 0  0.3740196957293915 0.8744855095582804 0  0.4362044818683304 0.8743201925168637 0  0.4982860555679487 0.8741020831013351 0  0.5602143349189187 0.8738078570323096 0  0.6219080715102426 0.8734025978091883 0  0.683228875867597 0.8728332315245174 0  0.743928183179775 0.8720175350619379 0  0.8035341907061549 0.8708221093092828 0  0.8611046650096984 0.8690002886356327 0  0.9146996164135601 0.8659580927048591 0  0.9604382306895034 0.859766609011447 0  0 0.9375 0  0.06243955464876354 0.9374683359711278 0  0.1248755616644579 0.9374348015177808 0  0.1873041867832771 0.9373973516325355 0  0.2497208141137101 0.9373535329442865 0  0.3121194764595178 0.9373001960127921 0  0.3744919975985165 0.9372330860394239 0  0.4368266067024748 0
[...]
<PointData  Vectors="f_54"> 
<DataArray  type="Float64"  Name="f_54"  NumberOfComponents="3" format="ascii">0.0000000000000000e+00 0.0000000000000000e+00 0.0000000000000000e+00  0.0000000000000000e+00 0.0000000000000000e+00 0.0000000000000000e+00  0.0000000000000000e+00 0.0000000000000000e+00 0.0000000000000000e+00  0.0000000000000000e+00 0.0000000000000000e+00 0.0000000000000000e+00  0.0000000000000000e+00 0.0000000000000000e+00 0.0000000000000000e+00  0.0000000000000000e+00 0.0000000000000000e+00 0.0000000000000000e+00  0.0000000000000000e+00 0.0000000000000000e+00 0.0000000000000000e+00  0.0000000000000000e+00 0.0000000000000000e+00 0.0000000000000000e+00  0.0000000000000000e+00 0.0000000000000000e+00 0.0000000000000000e+00  0.0000000000000000e+00 0.0000000000000000e+00 0.0000000000000000e+00  0.0000000000000000e+00 0.0000000000000000e+00 0.0000000000000000e+00  0.0000000000000000e+00 0.0000000000000000e+00 0.0000000000000000e+00  0.0000000000000000e+00 0.0000000000000000e+00 0.0000000000000000e+00  0.0000000000000000e+00 0.0000000000000000e+00 0.0000000000000000e+00  0.0000000000000000e+00 0.0000000000000000e+00 0.0000000000000000e+00  0.0000000000000000e+00 0.0000000000000000e+00 0.0000000000000000e+00  0.0000000000000000e+00 0.0000000000000000e+00 0.0000000000000000e+00  0.0000000000000000e+00 0.0000000000000000e+00 0.0000000000000000e+00  8.4473775847243114e-07 5.1622536077391173e-08 0.0000000000000000e+00  1.6849649781781071e-06 1.0376543013428306e-07 0.0000000000000000e+00  2.5122201293048077e-06 1.5681456777454059e-07 0.0000000000000000e+00  3.3084421817132297e-06 2.1079732743736229e-07 0.0000000000000000e+00  4.0397854965506338e-06 2.6515411970061899e-07 0.0000000000000000e+00  4.6486250319170746e-06 3.1845823835373406e-07 0.0000000000000000e+00  5.0428478884469703e-06 3.6808846004289717e-07 0.0000000000000000e+00  5.0809729835993276e-06 4.0989246902809151e-07 0.0000000000000000e+00  4.5501808793623250e-06 4.3794491654104405e-07 0.0000000000000000e+00  3.1303354848417198e-06 4.4463246034872654e-07 0.0000000000000000e+00  3.2571787570306747e-07 4.2157745415557149e-07 0.0000000000000000e+00  -4.6876012544023571e-06 3.6266792256957977e-07 0.0000000000000000e+00  -1.3457694882183414e-05 2.7305313324090746e-07 0.0000000000000000e+00  -2.9418480844059572e-05 1.9834894025455883e-07 0.0000000000000000e+00  -6.1675981553701458e-05 3.3354915941207956e-07 0.0000000000000000e+00  -1.3857559388021537e-04 1.4791821870826611e-06 0.0000000000000000e+00  0.0000000000000000e+00 0.0000000000000000e+00 0.0000000000000000e+00  1.6922173077700261e-06 1.0261624260572880e-07 0.0000000000000000e+00  3.3799316536823782e-06 2.0643897914007428e-07 0.0000000000000000e+00  5.0512960542318851e-06 3.1242563123025403e-07 0.0000000000000000e+00  6.6764602002030939e-06 4.2085895333792944e-07 0.0000000000000000e+00  8.1959362406366299e-06 5.3090416199250548e-07 0.0000000000000000e+00  9.5055838397420919e-06 6.4004740013702082e-07 0.0000000000000000e+00  1.0436725938031567e-05 7.4340660760939794e-07 0.0000000000000000e+00  1.0729337141455763e-05 8.3295721899571511e-07 0.0000000000000000e+00  9.9948742068948145e-06 8.9681360144313856e-07 0.0000000000000000e+00  7.6619090388920716e-06 9.1887391871302836e-07 0.0000000000000000e+00  2.8894067692062641e-06 8.7937310579338628e-07 0.0000000000000000e+00  -5.5866524436514494e-06 7.5708128083650749e-07 0.0000000000000000e+00  -1.9745983077821535e-05 5.3330569458988746e-07 0.0000000000000000e+00  -4.2834741421755300e-05 1.9245253002787093e-07 0.0000000000000000e+00  -8.0146298806745814e-05 -3.1889198259601220e-07 0.0000000000000000e+00  -1.3823030070257849e-04 -1.4011159704159031e-06 0.0000000000000000e+00  0.0000000000000000e+00 0.0000000000000000e+00 0.0000000000000000e+00  2.5418591827737601e-06 1.5226138114435236e-07 0.0000000000000000e+00  5.0876733121446683e-06 3.0672764340748248e-07 0.0000000000000000e+00  7.6316802528259233e-06 4.6528012605636652e-07 0.0000000000000000e+00  1.0143904125182415e-05 6.2889712796099962e-07 0.0000000000000000e+00  1.2554344671735452e-05 7.9703112458792629e-07 0.0000000000000000e+00  1.4732477941054077e-05 9.6677785005286408e-07 0.0000000000000000e+00  1.6460284816434416e-05 1.1317870974124227e-06 0.0000000000000000e+00  1.7396879993824335e-05 1.2809137242218298e-06 0.0000000000000000e+00  1.7032644020305762e-05 1.3967151848906280e-06 0.0000000000000000e+00  1.4630542989298880e-05 1.4541015760806640e-06 0.0000000000000000e+00  9.1523482549610948e-06 1.4197509812358469e-06 0.0000000000000000e+00  -8.2995331272756291e-07 1.2532590956444590e-06 0.0000000000000000e+00  -1.7221028447177570e-05 9.1122069968858429e-07 0.0000000000000000e+00  -4.2398068378811486e-05 3.5578970475727612e-07 0.0000000000000000e+00  -7.8761696784279418e-05 -4.2404731988630267e-07 0.0000000000000000e+00  -1.2674376198408205e-04 -1.3041086720678734e-06 0.0000000000000000e+00  0.0000000000000000e+00 0.0000000000000000e+00 0.0000000000000000e+00  3.3846585896655964e-06 1.9952980020873605e-07 0.0000000000000000e+00  6.7930444230844745e-06 4.0267614790439418e-07 0.0000000000000000e+00  1.0238193615064623e-05 6.1271975325094532e-07 0.0000000000000000e+00  1.3705770408203895e-05 8.3195131579093071e-07 0.0000000000000000e+00  1.7135756728232672e-05 1.0609374399990210e-06 0.0000000000000000e+00  2.0398273701107501e-05 1.2974730376591839e-06 0.0000000000000000e+00  2.3261441859178125e-05 1.5350975335216029e-06 0.0000000000000000e+00  2.5349430536376919e-05 1.7610697608135171e-06 0.0000000000000000e+00  2.6089791154751812e-05 1.9537788708032588e-06 0.0000000000000000e+00  2.4651645884433724e-05 2.0797818963463776e-06 0.0000000000000000e+00  1.9882107689460296e-05 2.0910896360470411e-06 0.0000000000000000e+00  1.0261590664322827e-05 1.9240305595369610e-06 0.0000000000000000e+00  -6.0708426082225163e-06 1.5018911155508582e-06 0.0000000000000000e+00  -3.1102739743989264e-05 7.4388082205112615e-07 0.0000000000000000e+00  -6.6290927268302267e-05 -4.2001503319747541e-07 0.0000000000000000e+00  -1.1105022416333671e-04 -2.0512638427157548e-06 0.0000000000000000e+00  0.0000000000000000e+00 0.0000000000000000e+00 0.0000000000000000e+00  4.2003425849867440e-06 2.4298613794763240e-07 0.0000000000000000e+00  8.4568665357385582e-06 4.9144404131463468e-07 0.0000000000000000e+00  1.2815781285779374e-05 7.5058028736444887e-07 0.0000000000000000e+00  1.7296564508714342e-05 1.0247217713808559e-06 0.0000000000000000e+00  2.1873206907464454e-05 1.3165857294368941e-06 0.0000000000000000e+00  2.6448441155432841e-05 1.6261394047222262e-06 0.0000000000000000e+00  3.0818240369760705e-05 1.9488295135103692e-06 0.0000000000000000e+00  3.4624047393389464e-05 2.2729084304641204e-06 0.0000000000000000e+00  3.7291346713704729e-05 2.5755739269276879e-06 0.0000000000000000e+00  3.7956472406917913e-05 2.8177763168484695e-06 0.0000000000000000e+00  3.5391020343538432e-05 2.9380383792173305e-06 0.0000000000000000e+00  2.7948306753654346e-05 2.8468130957296327e-06 0.0000000000000000e+00  1.3583793367956936e-05 2.4251250129935421e-06 0.0000000000000000e+00  -9.9549252006753429e-06 1.5344055398322113e-06 0.0000000000000000e+00  -4.4622456645680342e-05 4.6990241247545637e-08 0.0000000000000000e+00  -9.1111571158319468e-05 -2.0942374511805758e-06 0.0000000000000000e+00  0.0000000000000000e+00 0.0000000000000000e+00 0.0000000000000000e+00  4.9560508970731133e-06 2.8076046785297089e-07 0.0000000000000000e+00  1.0012920827628754e-05 5.6922641412697838e-07 0.0000000000000000e+00  1.5264072315910342e-05 8.7300450645071871e-07 0.0000000000000000e+00  2.0781303488144700e-05 1.1991719027438487e-06 0.0000000000000000e+00  2.6598054139423889e-05 1.5537161757747458e-06 0.0000000000000000e+00  3.2684713491066421e-05 1.9405207658554310e-06 0.0000000000000000e+00  3.8912210542842563e-05 2.3595800685690028e-06 0.0000000000000000e+00  4.4999638530191856e-05 2.8039613673945813e-06 0.0000000000000000e+00  5.0441832708156986e-05 3.2548255480846784e-06 0.0000000000000000e+00  5.4414841224138943e-05 3.6736733231223941e-06 0.0000000000000000e+00  5.5663151049071016e-05 3.9912022227892846e-06 0.0000000000000000e+00  5.2385389144005655e-05 4.0934543603618113e-06 0.0000000000000000e+00  4.2157969780587414e-05 3.8095939507573726e-06 0.0000000000000000e+00  2.1967239296752256e-05 2.9131410698193417e-06 0.0000000000000000e+00  -1.1556742087907726e-05 1.1593886433195005e-06 0.0000000000000000e+00  -6.1642581442015632e-05 -1.6099432513204801e-06 0.0000000000000000e+00  0.0000000000000000e+00 0.0000000000000000e+00 0.0000000000000000e+00  5.6069066724021205e-06 3.1061668018648244e-07 0.0000000000000000e+00  1.1368796799263605e-05 6.3137421509001944e-07 0.0000000000000000e+00  1.7437878907778658e-05 9.7257205744508212e-07 0.0000000000000000e+00  2.3954585457141176e-05 1.3445748802188468e-06 0.0000000000000000e+00  3.1035950144829050e-05 1.7576222715623519e-06 0.0000000000000000e+00  3.8755617446442083e-05 2.2212501285980986e-06 0.0000000000000000e+00  4.7110617155226596e-05 2.7429661058118099e-06 0.0000000000000000e+00  5.5968216332922323e-05 3.3255257736158179e-06 0.0000000000000000e+00  6.4984197025104673e-05 3.9616615958597421e-06 0.0000000000000000e+00  7.3482689173300769e-05 4.6243971492379738e-06 0.0000000000000000e+00  8.0289255148731261e-05 5.2503333297290112e-06 0.0000000000000000e+00  8.3517078799918474e-05 5.7134280949980376e-06 0.0000000000000000e+00  8.0325981810853498e-05 5.7903349476503173e-06 0.0000000000000000e+00  6.6706878274781767e-05 5.1302133321506839e-06 0.0000000000000000e+00  3.7371286688482489e-05 3.2666496509005516e-06 0.0000000000000000e+00  -1.4215915529800191e-05 -2.6058355159069122e-07 0.0000000000000000e+00  0.0000000000000000e+00 0.0000000000000000e+00 0.0000000000000000e+00  6.0987530242000461e-06 3.3013215608754535e-07 0.0000000000000000e+00  1.2411214315634682e-05 6.7275599261467250e-07 0.0000000000000000e+00  1.9154711311820676e-05 1.0408388566484240e-06 0.0000000000000000e+00  2.6549397920988995e-05 1.4481923230607468e-06 0.0000000000000000e+00  3.4815083120483415e-05 1.9098389169952256e-06 0.0000000000000000e+00  4.4160635583392697e-05 2.4422147777853594e-06 0.0000000000000000e+00  5.4760349991662209e-05 3.0629380095665893e-06 0.0000000000000000e+00  6.6708244781956016e-05 3.7895134155341609e-06 0.0000000000000000e+00  7.9936303213232546e-05 4.6355904031286729e-06 0.0000000000000000e+00  9.4076303682472722e-05 5.6019182172951664e-06 0.0000000000000000e+00  1.0823861786550952e-04 6.6565914660193785e-06 0.0000000000000000e+00  1.2067996974536815e-04 7.6957444378849360e-06 0.0000000000000000e+00  1.2834625406020088e-04 8.4743242998831569e-06 0.0000000000000000e+00  1.2632076068532828e-04 8.5069669959889633e-06 0.0000000000000000e+00  1.0727471672277448e-04 6.9817358290111290e-06 0.0000000000000000e+00  6.0988241983936774e-05 2.8112743668420283e-06 0.0000000000000000e+00  0.0000000000000000e+00 0.0000000000000000e+00 0.0000000000000000e+00  6.3731766767010247e-06 3.3698491363671421e-07 0.0000000000000000e+00  1.3016186055924020e-05 6.8836413155780048e-07 0.0000000000000000e+00  2.0210186161040096e-05 1.0693231593841575e-06 0.0000000000000000e+00  2.8257505129622667e-05 1.4967138328578587e-06 0.0000000000000000e+00  3.7490198964804581e-05 1.9900744125849980e-06 0.0000000000000000e+00  4.8274182654593570e-05 2.5728629059141281e-06 0.0000000000000000e+00  6.1003742684662466e-05 3.2739083343750290e-06 0.0000000000000000e+00  7.6076483254011590e-05 4.1288528947585324e-06 0.0000000000000000e+00  9.3830660743790927e-05 5.1806585119333373e-06 0.0000000000000000e+00  1.1441396284647561e-04 6.4763881660339025e-06 0.0000000000000000e+00  1.3753437724293543e-04 8.0530043949248815e-06 0.0000000000000000e+00  1.6202302591529681e-04 9.8954842004468232e-06 0.0000000000000000e+00  1.8513072980322362e-04 1.1834569760220602e-05 0.0000000000000000e+00  2.0152558666009857e-04 1.3338394695022845e-05 0.0000000000000000e+00  2.0211831041791085e-04 1.3193009278437015e-05 0.0000000000000000e+00  1.7304946553595065e-04 9.2686358586253067e-06 0.0000000000000000e+00  0.0000000000000000e+00 0.0000000000000000e+00 0.0000000000000000e+00  6.3746676299264545e-06 3.2931471570962518e-07 0.0000000000000000e+00  1.3063877204531456e-05 6.7410298278958468e-07 0.0000000000000000e+00  2.0401559596640219e-05 1.0508625019437323e-06 0.0000000000000000e+00  2.8762725200792694e-05 1.4784159000333278e-06 0.0000000000000000e+00  3.8586044136035070e-05 1.9795012641408114e-06 0.0000000000000000e+00  5.0397467862749694e-05 2.5830006141818309e-06 0.0000000000000000e+00  6.4832080771613687e-05 3.3272391009585284e-06 0.0000000000000000e+00  8.2646399608519731e-05 4.2649614525579696e-06 0.0000000000000000e+00  1.0470339089504396e-04 5.4705994362790371e-06 0.0000000000000000e+00  1.3189360502175457e-04 7.0495454196010687e-06 0.0000000000000000e+00  1.6492235579235320e-04 9.1450301567385986e-06 0.0000000000000000e+00  2.0383944507106302e-04 1.1924574562904207e-05 0.0000000000000000e+00  2.4712017837802408e-04 1.5490428759255343e-05 0.0000000000000000e+00  2.9008090778139298e-04 1.9576156464508359e-05 0.0000000000000000e+00  3.2262968067154008e-04 2.2804687364026571e-05 0.0000000000000000e+00  3.2688985667832384e-04 2.1496845433868070e-05 0.0000000000000000e+00  0.0000000000000000e+00 0.0000000000000000e+00 0.0000000000000000e+00  6.0593451079787110e-06 3.0609126933920843e-07 0.0000000000000000e+00  1.2457153741234571e-05 6.2761547099625298e-07 0.0000000000000000e+00  1.9558275779684619e-05 9.8110605712809432e-07 0.0000000000000000e+00  2.7786636105780230e-05 1.3857073378050573e-06 0.0000000000000000e+00  3.7661938125103036e-05 1.8650281382194814e-06 0.0000000000000000e+00  4.9844967838257141e-05 2.4498910642851547e-06 0.0000000000000000e+00  6.5193433510875266e-05 3.1827856598963680e-06 0.0000000000000000e+00  8.4827226754443882e-05 4.1255722662807752e-06 0.0000000000000000e+00  1.1019367404618873e-04 5.3733470395184341e-06 0.0000000000000000e+00  1.4310327725703339e-04 7.0795102932279083e-06 0.0000000000000000e+00  1.8566186253316460e-04 9.4989254785482735e-06 0.0000000000000000e+00  2.3993313111476226e-04 1.3051077236741192e-05 0.0000000000000000e+00  3.0699337799596242e-04 1.8366379835685311e-05 0.0000000000000000e+00  3.8478371117308860e-04 2.6111967877306863e-05 0.0000000000000000e+00  4.6418405384535767e-04 3.5862632728560413e-05 0.0000000000000000e+00  5.2493615952806810e-04 4.3545571235832593e-05 0.0000000000000000e+00  0.0000000000000000e+00 0.0000000000000000e+00 0.0000000000000000e+00  5.4041469132328027e-06 2.6739981872239962e-07 0.0000000000000000e+00  1.1141623707443825e-05 5.4894056547540182e-07 0.0000000000000000e+00  1.7576348729253671e-05 8.5975397975637029e-07 0.0000000000000000e+00  2.5142978840860465e-05 1.2173861323037023e-06 0.0000000000000000e+00  3.4394436246148000e-05 1.6434512240686638e-06 0.0000000000000000e+00  4.6066077004056522e-05 2.1660410720472598e-06 0.0000000000000000e+00  6.1164965909785070e-05 2.8236704784078430e-06 0.0000000000000000e+00  8.1094299851906197e-05 3.6725323915373067e-06 0.0000000000000000e+00  1.0782195317666185e-04 4.8012754457811531e-06 0.0000000000000000e+00  1.4409157664537639e-04 6.3633347014813461e-06 0.0000000000000000e+00  1.9363689686354051e-04 8.6498601165164213e-06 0.0000000000000000e+00  2.6125147206198997e-04 1.2251661789827351e-05 0.0000000000000000e+00  3.5228651905821584e-04 1.8391718908999721e-05 0.0000000000000000e+00  4.7047382278543598e-04 2.9461307878173369e-05 0.0000000000000000e+00  6.1153077207301229e-04 4.8911769169379413e-05 0.0000000000000000e+00  7.5276888277661842e-04 6.9861970637789179e-05 0.0000000000000000e+00  0.0000000000000000e+00 0.0000000000000000e+00 0.0000000000000000e+00  4.4148496326809765e-06 2.1456028552749645e-07 0.0000000000000000e+00  9.1236987208829514e-06 4.4079356836963924e-07 0.0000000000000000e+00  1.4450903807251366e-05 6.9110941192533625e-07 0.0000000000000000e+00  2.0792533762621409e-05 9.7973129707989346e-07 0.0000000000000000e+00  2.8667417449797303e-05 1.3237454805943189e-06 0.0000000000000000e+00  3.8790461427860249e-05 1.7443325002598597e-06 0.0000000000000000e+00  5.2182851465148547e-05 2.2682959178386124e-06 0.0000000000000000e+00  7.0341675691999446e-05 2.9303179595657521e-06 0.0000000000000000e+00  9.5503004789102082e-05 3.7777224916835927e-06 0.0000000000000000e+00  1.3104573783264022e-04 4.8845685525274263e-06 0.0000000000000000e+00  1.8208702262934875e-04 6.3990753594483010e-06 0.0000000000000000e+00  2.5626925840961353e-04 8.7025680122111432e-06 0.0000000000000000e+00  3.6448698580351826e-04 1.2917585129347207e-05 0.0000000000000000e+00  5.2039243143190382e-04 2.2460939072251436e-05 0.0000000000000000e+00  7.3434476389309012e-04 4.7965505683227008e-05 0.0000000000000000e+00  9.8033887722456586e-04 1.3062578050589043e-04 0.0000000000000000e+00  0.0000000000000000e+00 0.0000000000000000e+00 0.0000000000000000e+00  3.1309668158175581e-06 1.5004183392480327e-07 0.0000000000000000e+00  6.4822929265470085e-06 3.0836268101465693e-07 0.0000000000000000e+00  1.0299069832290569e-05 4.8367873004376720e-07 0.0000000000000000e+00  1.4885643576117819e-05 6.8577214687791030e-07 0.0000000000000000e+00  2.0649652070782124e-05 9.2585209012362346e-07 0.0000000000000000e+00  2.8168168277477370e-05 1.2164467882879315e-06 0.0000000000000000e+00  3.8292711454674672e-05 1.5699774957492868e-06 0.0000000000000000e+00  5.2322272993380978e-05 1.9939380750682465e-06 0.0000000000000000e+00  7.2296248873391636e-05 2.4778793888415088e-06 0.0000000000000000e+00  1.0150028186628716e-04 2.9619494368147781e-06 0.0000000000000000e+00  1.4534933902832605e-04 3.2684697529250020e-06 0.0000000000000000e+00  2.1292308556157346e-04 2.9772319221972693e-06 0.0000000000000000e+00  3.1954018793281243e-04 1.2873118369051490e-06 0.0000000000000000e+00  4.9052512138475762e-04 -2.7918160924596094e-06 0.0000000000000000e+00  7.6376764102809675e-04 -8.7596203316640663e-06 0.0000000000000000e+00  1.1772707675008749e-03 -8.3647429299285835e-06 0.0000000000000000e+00  0.0000000000000000e+00 0.0000000000000000e+00 0.0000000000000000e+00  1.6257118812864356e-06 7.7209241743834027e-08 0.0000000000000000e+00  3.3698507230911291e-06 1.5870472758779198e-07 0.0000000000000000e+00  5.3648559080522414e-06 2.4895943416374988e-07 0.0000000000000000e+00  7.7770211781194831e-06 3.5288788440241644e-07 0.0000000000000000e+00  1.0832394796339745e-05 4.7583132458362299e-07 0.0000000000000000e+00  1.4856853088788392e-05 6.2294766707412863e-07 0.0000000000000000e+00  2.0342053499383752e-05 7.9691581074140848e-07 0.0000000000000000e+00  2.8058945548404973e-05 9.9093391391702646e-07 0.0000000000000000e+00  3.9260256871200444e-05 1.1684970273999436e-06 0.0000000000000000e+00  5.6051652741300690e-05 1.2054067283067458e-06 0.0000000000000000e+00  8.2078951775996594e-05 7.2204916826176609e-07 0.0000000000000000e+00  1.2375946350365099e-04 -1.4038768192181124e-06 0.0000000000000000e+00  1.9215917415649428e-04 -8.4177224474822723e-06 0.0000000000000000e+00  3.0407627129748526e-04 -2.9178287569241681e-05 0.0000000000000000e+00  4.7371934175585115e-04 -8.3815971304907269e-05 0.0000000000000000e+00  6.7320698697795887e-04 -1.9550220774791093e-04 0.0000000000000000e+00  0.0000000000000000e+00 0.0000000000000000e+00 0.0000000000000000e+00  0.0000000000000000e+00 0.0000000000000000e+00 0.0000000000000000e+00  0.0000000000000000e+00 0.0000000000000000e+00 0.0000000000000000e+00  0.0000000000000000e+00 0.0000000000000000e+00 0.0000000000000000e+00  0.0000000000000000e+00 0.0000000000000000e+00 0.0000000000000000e+00  0.0000000000000000e+00 0.0000000000000000e+00 0.0000000000000000e+00  0.0000000000000000e+00 0.0000000000000000e+00 0.0000000000000000e+00  0.0000000000000000e+00 0.0000000000000000e+00 0.0000000000000000e+00  0.0000000000000000e+00 0.0000000000000000e+00 0.0000000000000000e+00  0.0000000000000000e+00 0.0000000000000000e+00 0.0000000000000000e+00  0.0000000000000000e+00 0.0000000000000000e+00 0.0000000000000000e+00  0.0000000000000000e+00 0.000000000000000