<?xml version="1.0"?>
<VTKFile type="UnstructuredGrid"  version="0.1"  >
<UnstructuredGrid>
<Piece  NumberOfPoints="289" NumberOfCells="512">
<Points>
<DataArray  type="Float64"  NumberOfComponents="3"  format="ascii">0 0 0  0.0625 0 0  0.125 0 0  0.1875 0 0  0.25 0 0  0.3125 0 0  0.375 0 0  0.4375 0 0  0.5 0 0  0.5625 0 0  0.625 0 0  0.6875 0 0  0.75 0 0  0.8125 0 0  0.875 0 0  0.9375 0 0  1 0 0  0 0.0625 0  0.06258313941823279 0.06247924335416021 0  0.125168857285943 0.0624580756790718 0  0.1877597905132081 0.06243610976766523 0  0.2503586221236155 0.06241302419960904 0  0.312968094258965 0.06238860736980933 0  0.3755910097552456 0.06236281418351736 0  0.4382302262961049 0.06233583688515391 0  0.5008886626153198 0.06230818691866247 0  0.5635693748083004 0.06228077569318978 0  0.6262758581606179 0.06225496555920992 0  0.6890129846948323 0.06223253334991587 0  0.7517896867358754 0.06221543854902244 0  0.8146265091714692 0.06220519211152403 0  0.8775770969575519 0.06220139128573564 0  0.9407901144790329 0.06219835598435012 0  1.004684227278224 0.06217921548410557 0  0 0.125 0  0.06266373249014189 0.124958882656515 0  0.1253326239686168 0.1249169100456055 0  0.1880119591387395 0.1248732703859136 0  0.2507071399951658 0.1248272743229205 0  0.3134237267242196 0.1247784395996558 0  0.3761674570146747 0.1247266035069236 0  0.4389442476908306 0.1246720687532496 0  0.5017602036173855 0.1246157813289321 0  0.5646217072577047 0.1245595240368582 0  0.6275357683810661 0.1245060812123524 0  0.6905110336414756 0.1244592827656333 0  0.7535602667600807 0.1244237705496803 0  0.8167056639437548 0.1244042939681411 0  0.8799880511978861 0.124404587223575 0  0.9434742998994102 0.1244274771086584 0  1.007224380718615 0.1244841654725936 0  0 0.1875 0  0.06273918950273642 0.1874393691639471 0  0.1254860842612644 0.1873773794967513 0  0.18824859180584 0.1873127267722385 0  0.2510348403015239 0.187244266588516 0  0.3138532644119091 0.187171131377055 0  0.3767126574613835 0.1870928936378627 0  0.4396221848208341 0.1870097897228173 0  0.5025913653489069 0.1869230128003934 0  0.5656300519318247 0.1868350684979872 0  0.6287484809881906 0.1867501530587014 0  0.6919574938820392 0.1866744454361454 0  0.7552689464699697 0.1866160693137182 0  0.8186956995927945 0.1865841947068664 0  0.882248251418033 0.1865860133049574 0  0.9459189176484656 0.186617894006209 0  1.009636100106841 0.1866377951754453 0  0 0.25 0  0.06280696845854727 0.2499212124094316 0  0.1256241020195665 0.2498404867806908 0  0.1884618537738967 0.2497559375599722 0  0.251331039375538 0.2496658459118516 0  0.3142429898943148 0.2495687937243634 0  0.3772096603146717 0.2494638641791777 0  0.4402436752070928 0.249350936710574 0  0.503358289106333 0.2492311052682919 0  0.5665672288519359 0.2491072428074728 0  0.6298843506839066 0.2489847117865892 0  0.6933229326518956 0.2488721604289949 0  0.75689409570511 0.248782209823345 0  0.8206030193726495 0.2487315588389638 0  0.8844399264039261 0.2487395157822445 0  0.9483606780786452 0.2488232892940773 0  1.012253505776854 0.2489893026279462 0  0 0.3125 0  0.06286462035726591 0.3124049955690734 0  0.1257417081697796 0.3123073970832821 0  0.1886441125822969 0.3122046431570809 0  0.2515852300512807 0.3120943042189243 0  0.3145792522747665 0.3119742093174575 0  0.3776413682684199 0.3118426573340713 0  0.4407878932852575 0.311698756660326 0  0.5040362812010715 0.3115429506561309 0  0.5674049441756399 0.3113777998142934 0  0.6309127313145554 0.3112090983005051 0  0.6945777586773572 0.3110473850685164 0  0.7584149530348917 0.3109098314910744 0  0.8224310904943015 0.3108222834576425 0  0.8866154389949885 0.3108208277790048 0  0.9509245198627297 0.3109516616880272 0  1.015264532931343 0.3112676249780382 0  0 0.375 0  0.06290985314017347 0.3748913756773358 0  0.1258342267237574 0.3747794435180244 0  0.1887881214854147 0.3746608877521425 0  0.2517873116012798 0.3745324390332701 0  0.3148487187888312 0.3743909609235191 0  0.377990755430796 0.3742336291495683 0  0.4412336128331595 0.3740582618778172 0  0.5045994533975636 0.373863887798052 0  0.5681124329394898 0.3736516798488145 0  0.6317984151365976 0.3734264361752485 0  0.6956841142583298 0.3731988478176706 0  0.7597951770135535 0.3729888224834748 0  0.8241523941768485 0.3728300533557561 0  0.8887650387035556 0.3727756749282349 0  0.9536210626181459 0.372904048201132 0  1.018677146896978 0.3733224570954168 0  0 0.4375 0  0.06294061861748693 0.4373810638339768 0  0.1258974493778163 0.4372580910701113 0  0.188887282464976 0.437126975578276 0  0.2519279384305245 0.4369835195067295 0  0.3150387955281123 0.4368234404521704 0  0.3782413201140086 0.4366424623699915 0  0.4415595947557525 0.4364365538339548 0  0.5050208332015317 0.4362024195153869 0  0.5686558647034528 0.4359384202544552 0  0.6324995600765503 0.4356462070982594 0  0.696591151069649 0.4353335172138284 0  0.7609743496191438 0.4350187863406058 0  0.8256970982093783 0.4347384015238735 0  0.8908107416676034 0.4345572932181682 0  0.9563687126141243 0.4345826701752774 0  1.02242636253324 0.4349788269107062 0  0 0.5 0  0.06295522328153842 0.4998747821343541 0  0.125927861942757 0.4997448507805298 0  0.1889359978971063 0.4996053444826228 0  0.2519990098183804 0.4994511272768636 0  0.3151382679413425 0.4992766786046313 0  0.3783778817716085 0.4990760345362745 0  0.4417455258226993 0.4988428335026019 0  0.5052733853386546 0.4985705675165129 0  0.5689993055758054 0.4982532272907988 0  0.6329683187538654 0.4978866873659644 0  0.6972348969747664 0.4974714539882328 0  0.7618665680019564 0.4970178527631449 0  0.8269499125996691 0.4965553660705366 0  0.8926002854406061 0.4961483343015612 0  0.9589766466965589 0.4959194284781477 0  1.026303479626555 0.4960777813462927 0  0 0.5625 0  0.06295245852551905 0.5623731972531577 0  0.1259229144987086 0.5622411423879941 0  0.1889301009814809 0.5620983493944621 0  0.2519942927139643 0.5619388513658184 0  0.3151381621693995 0.5617559465056415 0  0.378387745619851 0.5615419389927659 0  0.4417735782013334 0.5612878976267565 0  0.5053320983654086 0.5609834936294663 0  0.5691075209548522 0.5606170592488514 0  0.6331546024517695 0.5601761759897824 0  0.6975431958145853 0.5596494486361426 0  0.7623663954794616 0.5590308302463745 0  0.8277555373356006 0.5583292181426251 0  0.893907080947962 0.5575881413521416 0  0.9611273516702824 0.5569215683780512 0  1.029900445022447 0.5565654889938347 0  0 0.625 0  0.06293173928893746 0.6248768353485639 0  0.1258813131959297 0.6247481138421043 0  0.1888673311078474 0.6246079653802636 0  0.2519101304797311 0.6244498423553684 0  0.3150327634621136 0.6242661177052078 0  0.3782621475620224 0.6240476048765461 0  0.4416304660247566 0.6237829747500375 0  0.5051769586551603 0.6234580560261901 0  0.568950380260827 0.6230550431901445 0  0.6330127427579945 0.6225517424268626 0  0.6974457716065237 0.6219212727742273 0  0.7623633414997433 0.6211334084155248 0  0.8279368409214437 0.6201607783256148 0  0.8944463634899623 0.6189980737216936 0  0.9623762963133919 0.6177106940559308 0  1.032573049008653 0.6165236802719347 0  0 0.6875 0  0.06289323392320548 0.6873859885010705 0  0.1258032981529241 0.6872664386146371 0  0.1887477973245845 0.6871354425637246 0  0.2517461534549458 0.6869862691130986 0  0.3148206680940799 0.6868108408078524 0  0.3779977915393378 0.6865990596380647 0  0.4413096979779185 0.6863379013692429 0  0.5047963117694629 0.6860101710601881 0  0.5685080483289013 0.6855927775962982 0  0.6325098664152702 0.6850543553875286 0  0.6968881902761589 0.6843520935473836 0  0.7617649597393513 0.6834279705991254 0  0.8273301460206027 0.6822062590386873 0  0.8939201755841023 0.6806013596810603 0  0.9621940470882664 0.6785728893773604 0  1.033468974569992 0.6763128898800355 0  0 0.75 0  0.06283796370412836 0.7499006278891688 0  0.1256908623465769 0.7497961235365992 0  0.1885743569500054 0.7496809679970561 0  0.2515058826553997 0.7495487630954383 0  0.3145057094537716 0.7493916478509579 0  0.3775982380930136 0.7491995100550455 0  0.4408136331593679 0.7489588685087593 0  0.5041899141551925 0.748651236882961 0  0.5677756591716345 0.7482506729375235 0  0.6316335972570861 0.7477200345343522 0  0.6958459080739345 0.7470051423432871 0  0.7605243351621288 0.7460254789167808 0  0.8258370640613399 0.7446592336667296 0  0.8920956466104412 0.7427212042021848 0  0.9600392606793345 0.7399522839127051 0  1.031456614786176 0.7362787879185124 0  0 0.8125 0  0.06276784932937167 0.8124203416132108 0  0.1255478635471649 0.8123363669482063 0  0.1883528312588204 0.8122434049122202 0  0.2511971115594119 0.8121359669060085 0  0.314097596892455 0.8120071874229752 0  0.3770749198635613 0.8118480453236988 0  0.4401550090215032 0.8116462231277475 0  0.5033710964639672 0.8113843785729402 0  0.5667662208339058 0.8110374602915412 0  0.6303960637240803 0.8105684483378058 0  0.6943314802392467 0.8099214237477509 0  0.7586595204150666 0.8090098431777702 0  0.8234839550757665 0.8076953278851354 0  0.8889502908310578 0.8057453642807504 0  0.9554791967963308 0.8027416327365531 0  1.025525959755214 0.7978948383704173 0  0 0.875 0  0.06268568484652151 0.874944313992566 0  0.1253799867844436 0.8748855055199318 0  0.1880919871657534 0.8748201799401536 0  0.2508319605277045 0.8747443099995158 0  0.3136121268572449 0.874652793909735 0  0.3764476241045014 0.8745388278182833 0  0.4393578080444671 0.8743929668937788 0  0.5023679941697274 0.8742016720117878 0  0.5655116895006 0.8739450084563498 0  0.6288330244883323 0.8735929459636482 0  0.6923878922254063 0.8730993441073971 0  0.756238542624014 0.8723919893706843 0  0.8204257479400378 0.8713548768290243 0  0.8848771976180365 0.869789106059467 0  0.9491784213857386 0.8672909754014866 0  1.012327998892435 0.8627568711487242 0  0 0.9375 0  0.06259502703971345 0.9374713576108814 0  0.1251945289582482 0.9374410763383256 0  0.1878032321111353 0.9374073695495276 0  0.2504265167141909 0.9373681054389612 0  0.3130708407719938 0.9373205628028698 0  0.3757443064272183 0.9372610798087851 0  0.4384574509787983 0.
[...]
<PointData  Vectors="f_54"> 
<DataArray  type="Float64"  Name="f_54"  NumberOfComponents="3" format="ascii">0.0000000000000000e+00 0.0000000000000000e+00 0.0000000000000000e+00  0.0000000000000000e+00 0.0000000000000000e+00 0.0000000000000000e+00  0.0000000000000000e+00 0.0000000000000000e+00 0.0000000000000000e+00  0.0000000000000000e+00 0.0000000000000000e+00 0.0000000000000000e+00  0.0000000000000000e+00 0.0000000000000000e+00 0.0000000000000000e+00  0.0000000000000000e+00 0.0000000000000000e+00 0.0000000000000000e+00  0.0000000000000000e+00 0.0000000000000000e+00 0.0000000000000000e+00  0.0000000000000000e+00 0.0000000000000000e+00 0.0000000000000000e+00  0.0000000000000000e+00 0.0000000000000000e+00 0.0000000000000000e+00  0.0000000000000000e+00 0.0000000000000000e+00 0.0000000000000000e+00  0.0000000000000000e+00 0.0000000000000000e+00 0.0000000000000000e+00  0.0000000000000000e+00 0.0000000000000000e+00 0.0000000000000000e+00  0.0000000000000000e+00 0.0000000000000000e+00 0.0000000000000000e+00  0.0000000000000000e+00 0.0000000000000000e+00 0.0000000000000000e+00  0.0000000000000000e+00 0.0000000000000000e+00 0.0000000000000000e+00  0.0000000000000000e+00 0.0000000000000000e+00 0.0000000000000000e+00  0.0000000000000000e+00 0.0000000000000000e+00 0.0000000000000000e+00  0.0000000000000000e+00 0.0000000000000000e+00 0.0000000000000000e+00  3.5381698652919864e-06 -8.9230932959735728e-08 0.0000000000000000e+00  7.2010465098850268e-06 -1.8386940080626693e-07 0.0000000000000000e+00  1.1119093941766060e-05 -2.8977076392941246e-07 0.0000000000000000e+00  1.5429711730057737e-05 -4.1358100320880338e-07 0.0000000000000000e+00  2.0280865608294938e-05 -5.6314867686148462e-07 0.0000000000000000e+00  2.5834868595013064e-05 -7.4792713740968659e-07 0.0000000000000000e+00  3.2272711486470744e-05 -9.7932176539478465e-07 0.0000000000000000e+00  3.9800102239054515e-05 -1.2709062433701715e-06 0.0000000000000000e+00  4.8658458791433766e-05 -1.6384377192222907e-06 0.0000000000000000e+00  5.9149879513173404e-05 -2.0997941625747351e-06 0.0000000000000000e+00  7.1701695604300597e-05 -2.6758745333230922e-06 0.0000000000000000e+00  8.7046264215548156e-05 -3.3970568398312772e-06 0.0000000000000000e+00  1.0675234661574496e-04 -4.3331076211395001e-06 0.0000000000000000e+00  1.3489625784117833e-04 -5.7153809693871866e-06 0.0000000000000000e+00  1.8370865315048558e-04 -8.4265666513997989e-06 0.0000000000000000e+00  2.9454696559148087e-04 -1.6060894966500620e-05 0.0000000000000000e+00  0.0000000000000000e+00 0.0000000000000000e+00 0.0000000000000000e+00  6.9589450344985882e-06 -1.7324591633861971e-07 0.0000000000000000e+00  1.4165350620942322e-05 -3.5697594768287174e-07 0.0000000000000000e+00  2.1878077149616976e-05 -5.6256188667787511e-07 0.0000000000000000e+00  3.0370182576163541e-05 -8.0297269125927161e-07 0.0000000000000000e+00  3.9936268453048743e-05 -1.0936310764136260e-06 0.0000000000000000e+00  5.0899900443998005e-05 -1.4532823631392685e-06 0.0000000000000000e+00  6.3621439183684746e-05 -1.9047873033362005e-06 0.0000000000000000e+00  7.8507330076759435e-05 -2.4756465935482391e-06 0.0000000000000000e+00  9.6023778268178024e-05 -3.1979190239720978e-06 0.0000000000000000e+00  1.1672237146549877e-04 -4.1070313565514969e-06 0.0000000000000000e+00  1.4129599111780393e-04 -5.2388473761257171e-06 0.0000000000000000e+00  1.7070606582322791e-04 -6.6241034051036482e-06 0.0000000000000000e+00  2.0645887856015992e-04 -8.2767121141614568e-06 0.0000000000000000e+00  2.5110405591148832e-04 -1.0152511197548259e-05 0.0000000000000000e+00  3.0854638393014699e-04 -1.1932389141870042e-05 0.0000000000000000e+00  3.8016459448764417e-04 -1.1793493233913013e-05 0.0000000000000000e+00  0.0000000000000000e+00 0.0000000000000000e+00 0.0000000000000000e+00  1.0137530612138483e-05 -2.4692946952942972e-07 0.0000000000000000e+00  2.0639858765799740e-05 -5.0870039830203761e-07 0.0000000000000000e+00  3.1888459046841104e-05 -8.0144732987292867e-07 0.0000000000000000e+00  4.4286659533763624e-05 -1.1436981798153480e-06 0.0000000000000000e+00  5.8270839955541504e-05 -1.5577163440670932e-06 0.0000000000000000e+00  7.4321432551217713e-05 -2.0709470692716307e-06 0.0000000000000000e+00  9.2973540901012639e-05 -2.7174760314120775e-06 0.0000000000000000e+00  1.1482694163955932e-04 -3.5392283646597615e-06 0.0000000000000000e+00  1.4055523987920740e-04 -4.5863016988270155e-06 0.0000000000000000e+00  1.7091378899360105e-04 -5.9152157736884464e-06 0.0000000000000000e+00  2.0674415625927808e-04 -7.5827344511091664e-06 0.0000000000000000e+00  2.4896275841019492e-04 -9.6307464389540793e-06 0.0000000000000000e+00  2.9847814659019557e-04 -1.2053394415175092e-05 0.0000000000000000e+00  3.5582638596271947e-04 -1.4730671855111771e-05 0.0000000000000000e+00  4.1984452107144364e-04 -1.7318856265595730e-05 0.0000000000000000e+00  4.8368382466306255e-04 -1.9261317155114106e-05 0.0000000000000000e+00  0.0000000000000000e+00 0.0000000000000000e+00 0.0000000000000000e+00  1.2955179810213469e-05 -3.0591139953729101e-07 0.0000000000000000e+00  2.6383397078635524e-05 -6.2992620827237635e-07 0.0000000000000000e+00  4.0779082317646403e-05 -9.9177192700541539e-07 0.0000000000000000e+00  5.6666677905985283e-05 -1.4142899702961250e-06 0.0000000000000000e+00  7.4616040909847509e-05 -1.9252825369373353e-06 0.0000000000000000e+00  9.5257513112188331e-05 -2.5596563603587976e-06 0.0000000000000000e+00  1.1929592184667158e-04 -3.3618565121049721e-06 0.0000000000000000e+00  1.4752188585235421e-04 -4.3883917874713045e-06 0.0000000000000000e+00  1.8081699730208110e-04 -5.7098365540208677e-06 0.0000000000000000e+00  2.2014551853235319e-04 -7.4108321667484665e-06 0.0000000000000000e+00  2.6651610402718894e-04 -9.5848988901860554e-06 0.0000000000000000e+00  3.2087527526909000e-04 -1.2317608726885651e-05 0.0000000000000000e+00  3.8384367550673435e-04 -1.5645847919491348e-05 0.0000000000000000e+00  4.5510022596478085e-04 -1.9471695336279112e-05 0.0000000000000000e+00  5.3205765576543789e-04 -2.3397390990822906e-05 0.0000000000000000e+00  6.0748159001001566e-04 -2.6422535957563858e-05 0.0000000000000000e+00  0.0000000000000000e+00 0.0000000000000000e+00 0.0000000000000000e+00  1.5303101097074223e-05 -3.4694506476455953e-07 0.0000000000000000e+00  3.1174445890051048e-05 -7.1382956181109146e-07 0.0000000000000000e+00  4.8207657090112208e-05 -1.1224187112483620e-06 0.0000000000000000e+00  6.7035033173546698e-05 -1.5981216941008208e-06 0.0000000000000000e+00  8.8347706679928347e-05 -2.1722908371735601e-06 0.0000000000000000e+00  1.1291586688058099e-04 -2.8851044016019112e-06 0.0000000000000000e+00  1.4160818914130851e-04 -3.7892265549584886e-06 0.0000000000000000e+00  1.7540831787144623e-04 -4.9543499527981169e-06 0.0000000000000000e+00  2.1542369112827726e-04 -6.4724412091237057e-06 0.0000000000000000e+00  2.6287692193028959e-04 -8.4627755062401215e-06 0.0000000000000000e+00  3.1905997813425719e-04 -1.1074169000008054e-05 0.0000000000000000e+00  3.8521251208018220e-04 -1.4478305093833090e-05 0.0000000000000000e+00  4.6225330310400325e-04 -1.8841306189331828e-05 0.0000000000000000e+00  5.5025147156052758e-04 -2.4249074010253110e-05 0.0000000000000000e+00  6.4751608117478196e-04 -3.0544795012006630e-05 0.0000000000000000e+00  7.4936404005544830e-04 -3.7018633390222063e-05 0.0000000000000000e+00  0.0000000000000000e+00 0.0000000000000000e+00 0.0000000000000000e+00  1.7086533598204896e-05 -3.6823353808191881e-07 0.0000000000000000e+00  3.4819310199264563e-05 -7.5658536880274504e-07 0.0000000000000000e+00  5.3873026403711402e-05 -1.1870092425428135e-06 0.0000000000000000e+00  7.4969944678265755e-05 -1.6852886419762851e-06 0.0000000000000000e+00  9.8905322675417272e-05 -2.2836098742943999e-06 0.0000000000000000e+00  1.2657405693302157e-04 -3.0240338491414262e-06 0.0000000000000000e+00  1.5899822710331170e-04 -3.9633487156067412e-06 0.0000000000000000e+00  1.9735412247789730e-04 -5.1799282123500749e-06 0.0000000000000000e+00  2.4299518017544274e-04 -6.7833283845747029e-06 0.0000000000000000e+00  2.9746322634472268e-04 -8.9272550807920425e-06 0.0000000000000000e+00  3.6247327451785515e-04 -1.1825795312161086e-05 0.0000000000000000e+00  4.3984581734371654e-04 -1.5770470521870340e-05 0.0000000000000000e+00  5.3134650682081798e-04 -2.1139855814907462e-05 0.0000000000000000e+00  6.3838767196221420e-04 -2.8381067876702931e-05 0.0000000000000000e+00  7.6158564177548449e-04 -3.7919367904600814e-05 0.0000000000000000e+00  9.0032351899890447e-04 -4.9915825144995102e-05 0.0000000000000000e+00  0.0000000000000000e+00 0.0000000000000000e+00 0.0000000000000000e+00  1.8228942108851105e-05 -3.6965048854006313e-07 0.0000000000000000e+00  3.7160658762663827e-05 -7.5787629311471521e-07 0.0000000000000000e+00  5.7528332582856460e-05 -1.1848532512006490e-06 0.0000000000000000e+00  8.0121168782387712e-05 -1.6742755158096907e-06 0.0000000000000000e+00  1.0581522239841785e-04 -2.2558693194533524e-06 0.0000000000000000e+00  1.3560727390796143e-04 -2.9690250600682655e-06 0.0000000000000000e+00  1.7065260474066459e-04 -3.8683130242561103e-06 0.0000000000000000e+00  2.1230712674894325e-04 -5.0320978210544889e-06 0.0000000000000000e+00  2.6217344960830646e-04 -6.5761733964127959e-06 0.0000000000000000e+00  3.2214879171965730e-04 -8.6753735422574988e-06 0.0000000000000000e+00  3.9446986822433964e-04 -1.1597424686214017e-05 0.0000000000000000e+00  4.8174649822880843e-04 -1.5754436377148035e-05 0.0000000000000000e+00  5.8697516367344849e-04 -2.1776837279886119e-05 0.0000000000000000e+00  7.1353836789032302e-04 -3.0608663268438879e-05 0.0000000000000000e+00  8.6525696723687502e-04 -4.3606103702778687e-05 0.0000000000000000e+00  1.0467319901121533e-03 -6.2590495953465398e-05 0.0000000000000000e+00  0.0000000000000000e+00 0.0000000000000000e+00 0.0000000000000000e+00  1.8676159894220374e-05 -3.5279072309819653e-07 0.0000000000000000e+00  3.8086126558566349e-05 -7.2105618085943662e-07 0.0000000000000000e+00  5.8994740858476270e-05 -1.1213753853816776e-06 0.0000000000000000e+00  8.2229892717559247e-05 -1.5729498543957973e-06 0.0000000000000000e+00  1.0871815752414181e-04 -2.0995986521142986e-06 0.0000000000000000e+00  1.3952565742754569e-04 -2.7328490632634430e-06 0.0000000000000000e+00  1.7590652494774649e-04 -3.5170210256605378e-06 0.0000000000000000e+00  2.1936197816775323e-04 -4.5179108865521048e-06 0.0000000000000000e+00  2.7171396102725970e-04 -5.8379793597195427e-06 0.0000000000000000e+00  3.3519875423898603e-04 -7.6433039918897081e-06 0.0000000000000000e+00  4.1258839259814678e-04 -1.0211727049990421e-05 0.0000000000000000e+00  5.0735244425383931e-04 -1.4018687393769264e-05 0.0000000000000000e+00  6.2388373498661496e-04 -1.9888234367569355e-05 0.0000000000000000e+00  7.6784160583536333e-04 -2.9251871372833320e-05 0.0000000000000000e+00  9.4675356657771220e-04 -4.4577608902755322e-05 0.0000000000000000e+00  1.1712659674077504e-03 -7.0078081480837704e-05 0.0000000000000000e+00  0.0000000000000000e+00 0.0000000000000000e+00 0.0000000000000000e+00  1.8400154118886391e-05 -3.2079182869163979e-07 0.0000000000000000e+00  3.7536310784743373e-05 -6.5282312626323492e-07 0.0000000000000000e+00  5.8174659283224817e-05 -1.0077236870729598e-06 0.0000000000000000e+00  8.1148882307880785e-05 -1.3983132018120767e-06 0.0000000000000000e+00  1.0739912603183004e-04 -1.8395956168246199e-06 0.0000000000000000e+00  1.3801820109973881e-04 -2.3504813204121986e-06 0.0000000000000000e+00  1.7430888669916589e-04 -2.9569777542187245e-06 0.0000000000000000e+00  2.1785794263848868e-04 -3.6983343533434073e-06 0.0000000000000000e+00  2.7063537295834886e-04 -4.6391560658259145e-06 0.0000000000000000e+00  3.3513249798466254e-04 -5.8936557414796369e-06 0.0000000000000000e+00  4.1456099832603920e-04 -7.6747612731114282e-06 0.0000000000000000e+00  5.1314992852717980e-04 -1.0394303473683567e-05 0.0000000000000000e+00  6.3660369199102678e-04 -1.4867764209010884e-05 0.0000000000000000e+00  7.9283349262571675e-04 -2.2729299800996198e-05 0.0000000000000000e+00  9.9319289514265027e-04 -3.7256352107940126e-05 0.0000000000000000e+00  1.2548129022086785e-03 -6.4982837576454342e-05 0.0000000000000000e+00  0.0000000000000000e+00 0.0000000000000000e+00 0.0000000000000000e+00  1.7401964146638502e-05 -2.7790153674140628e-07 0.0000000000000000e+00  3.5511181763065088e-05 -5.6232398921924165e-07 0.0000000000000000e+00  5.5062762630702515e-05 -8.5936090933721255e-07 0.0000000000000000e+00  7.6860135614209701e-05 -1.1745483795522595e-06 0.0000000000000000e+00  1.0181505256506062e-04 -1.5125167917267925e-06 0.0000000000000000e+00  1.3099612300814320e-04 -1.8766746502835224e-06 0.0000000000000000e+00  1.6569078551346796e-04 -2.2691703192881655e-06 0.0000000000000000e+00  2.0748822041467428e-04 -2.6918176190938342e-06 0.0000000000000000e+00  2.5839534931633440e-04 -3.1497282291512457e-06 0.0000000000000000e+00  3.2100650136371751e-04 -3.6619521497931657e-06 0.0000000000000000e+00  3.9876290624066318e-04 -4.2897122545457861e-06 0.0000000000000000e+00  4.9636709402522776e-04 -5.2085090653101042e-06 0.0000000000000000e+00  6.2047002484803891e-04 -6.8897888740984987e-06 0.0000000000000000e+00  7.8084022154750223e-04 -1.0554516651447162e-05 0.0000000000000000e+00  9.9237840305519114e-04 -1.9277472246165985e-05 0.0000000000000000e+00  1.2787105133309602e-03 -4.0544540490269284e-05 0.0000000000000000e+00  0.0000000000000000e+00 0.0000000000000000e+00 0.0000000000000000e+00  1.5713323838909421e-05 -2.2882435040456889e-07 0.0000000000000000e+00  3.2073812669560907e-05 -4.5974398542413091e-07 0.0000000000000000e+00  4.9752846744039875e-05 -6.9367434464679587e-07 0.0000000000000000e+00  6.9486688170674937e-05 -9.2928511403648218e-07 0.0000000000000000e+00  9.2114700200959245e-05 -1.1612720254188625e-06 0.0000000000000000e+00  1.1862630236592415e-04 -1.3778127607225321e-06 0.0000000000000000e+00  1.5022179017541278e-04 -1.5567416888764543e-06 0.0000000000000000e+00  1.8839504535026312e-04 -1.6598159675646307e-06 0.0000000000000000e+00  2.3505155065895583e-04 -1.6243164627329010e-06 0.0000000000000000e+00  2.9268558121959442e-04 -1.3514383358545829e-06 0.0000000000000000e+00  3.6466174023682947e-04 -6.9265448720908111e-07 0.0000000000000000e+00  4.5569123274895855e-04 5.5715958607039752e-07 0.0000000000000000e+00  5.7269124202811192e-04 2.6215498387239976e-06 0.0000000000000000e+00  7.2642000555028026e-04 5.5126048417393256e-06 0.0000000000000000e+00  9.3461913838009658e-04 8.1094580981885125e-06 0.0000000000000000e+00  1.2276525570884954e-03 5.4219250705904271e-06 0.0000000000000000e+00  0.0000000000000000e+00 0.0000000000000000e+00 0.0000000000000000e+00  1.3396557632357258e-05 -1.7795159442493416e-07 0.0000000000000000e+00  2.7350484523589254e-05 -3.5460240957302707e-07 0.0000000000000000e+00  4.2438762640419643e-05 -5.2696591887104668e-07 0.0000000000000000e+00  5.9295497983032876e-05 -6.8861013932889622e-07 0.0000000000000000e+00  7.8645499827850797e-05 -8.2690074462079990e-07 0.0000000000000000e+00  1.0134561659845014e-04 -9.1871960927638407e-07 0.0000000000000000e+00  1.2843824907525381e-04 -9.2354283424981456e-07 0.0000000000000000e+00  1.6122386749243157e-04 -7.7196927419844352e-07 0.0000000000000000e+00  2.0136389742050082e-04 -3.4629635813565931e-07 0.0000000000000000e+00  2.5103461738849154e-04 5.5315251733166313e-07 0.0000000000000000e+00  3.1317365474576231e-04 2.2679588160397176e-06 0.0000000000000000e+00  3.9191284546937551e-04 5.3908117976881436e-06 0.0000000000000000e+00  4.9343181144138144e-04 1.0964049467563416e-05 0.0000000000000000e+00  6.2786147173597554e-04 2.0799339134508120e-05 0.0000000000000000e+00  8.1393938526351018e-04 3.7600032247425134e-05 0.0000000000000000e+00  1.0898244725174333e-03 6.1424254087079949e-05 0.0000000000000000e+00  0.0000000000000000e+00 0.0000000000000000e+00 0.0000000000000000e+00  1.0542531670864075e-05 -1.2863616992273373e-07 0.0000000000000000e+00  2.1526639682954600e-05 -2.5411879337764267e-07 0.0000000000000000e+00  3.3408407078349879e-05 -3.7148567557269097e-07 0.0000000000000000e+00  4.6689530894187999e-05 -4.7196021426833658e-07 0.0000000000000000e+00  6.1943886020014586e-05 -5.3984627579239037e-07 0.0000000000000000e+00  7.9849959057632248e-05 -5.4760746330850075e-07 0.0000000000000000e+00  1.0123217061448930e-04 -4.4772276419842060e-07 0.0000000000000000e+00  1.2711534954249859e-04 -1.5881628473998009e-07 0.0000000000000000e+00  1.5879870014533158e-04 4.5860322971087293e-07 0.0000000000000000e+00  1.9795958660363683e-04 1.6459759639422169e-06 0.0000000000000000e+00  2.4680723072331170e-04 3.8295333518397179e-06 0.0000000000000000e+00  3.0833754918980843e-04 7.7874195912963766e-06 0.0000000000000000e+00  3.8685675492140413e-04 1.5019400012532080e-05 0.0000000000000000e+00  4.8939711923931680e-04 2.8667024528461766e-05 0.0000000000000000e+00  6.3033924984774812e-04 5.6115471773385949e-05 0.0000000000000000e+00  8.4561959818425249e-04 1.1708409303352617e-04 0.0000000000000000e+00  0.0000000000000000e+00 0.0000000000000000e+00 0.0000000000000000e+00  7.2667023874815794e-06 -8.2689759051002852e-08 0.0000000000000000e+00  1.4838743976630611e-05 -1.6206391903081605e-07 0.0000000000000000e+00  2.3030813898622053e-05 -2.3330070034725916e-07 0.0000000000000000e+00  3.2189009925589010e-05 -2.8835067891820556e-07 0.0000000000000000e+00  4.2708865733928703e-05 -3.1329341098137291e-07 0.0000000000000000e+00  5.5057004062901828e-05 -2.8412429451887289e-07 0.0000000000000000e+00  6.9797903207794522e-05 -1.5975637452443433e-07 0.0000000000000000e+00  8.7627284814441881e-05 1.2988604599493584e-07 0.0000000000000000e+00  1.0941289984181840e-04 7.0449193028977436e-07 0.0000000000000000e+00  1.3624042162069976e-04 1.7697109917791756e-06 0.0000000000000000e+00  1.6945281842699019e-04 3.6825832167063736e-06 0.0000000000000000e+00  2.1064916587734691e-04 7.0737050216245327e-06 0.0000000000000000e+00  2.6158453805986834e-04 1.3095719041532083e-05 0.0000000000000000e+00  3.2412234875303696e-04 2.4045607402941940e-05 0.0000000000000000e+00  4.0279281903086008e-04 4.5614995804014782e-05 0.0000000000000000e+00  5.2954531518050732e-04 9.8377990375312396e-05 0.0000000000000000e+00  0.0000000000000000e+00 0.0000000000000000e+00 0.0000000000000000e+00  3.7035659006268874e-06 -4.0240506267138459e-08 0.0000000000000000e+00  7.5627142189699935e-06 -7.8424266038212965e-08 0.0000000000000000e+00  1.1737497768993639e-05 -1.1164577976549410e-07 0.0000000000000000e+00  1.6403760124039079e-05 -1.3516768068243982e-07 0.0000000000000000e+00  2.1762053261745620e-05 -1.4092192972535413e-07 0.0000000000000000e+00  2.8048136115157319e-05 -1.1512633731528796e-07 0.0000000000000000e+00  3.5545478506484578e-05 -3.4351965094883831e-08 0.0000000000000000e+00  4.4599734097423601e-05 1.4106399138294819e-07 0.0000000000000000e+00  5.5633460749510777e-05 4.7804443442729366e-07 0.0000000000000000e+00  6.9153745066464058e-05 1.0887768610927775e-06 0.0000000000000000e+00  8.5726544839531996e-05 2.1576452119033900e-06 0.0000000000000000e+00  1.0582541587582673e-04 3.9695402679786885e-06 0.0000000000000000e+00  1.2921721374577685e-04 6.8770646425001705e-06 0.0000000000000000e+00  1.5263189576284288e-04 1.0877539392031634e-05 0.0000000000000000e+00  1.6171404636573561e-04 1.3416475472712096e-05 0.0000000000000000e+00  1.1516866131957630e-04 3.0333814666189887e-06 0.0000000000000000e+00  0.0000000000000000e+00 0.0000000000000000e+00 0.0000000000000000e+00  0.0000000000000000e+00 0.0000000000000000e+00 0.0000000000000000e+00  0.0000000000000000e+00 0.0000000000000000e+00 0.0000000000000000e+00  0.0000000000000000e+00 0.0000000000000000e+00 0.0000000000000000e+00  0.0000000000000000e+00 0.0000000000000000e+00 0.0000000000000000e+00  0.0000000000000000e+00 0.0000000000000000e+00 0.0000000000000000e+00  0.0000000000000000e+00 0.0000000000000000e+00 0.0000000000000000e+00  0.0000000000000000e+00 0.0000000000000000e+00 0.0000000000000000e+00  0.0000000000000000e+00 0.0000000000000000e+00 0.0000000000000000e+00  0.0000000000000000e+