<?xml version="1.0"?>
<VTKFile type="UnstructuredGrid"  version="0.1"  >
<UnstructuredGrid>
<Piece  NumberOfPoints="289" NumberOfCells="512">
<Points>
<DataArray  type="Float64"  NumberOfComponents="3"  format="ascii">0 0 0  0.0625 0 0  0.125 0 0  0.1875 0 0  0.25 0 0  0.3125 0 0  0.375 0 0  0.4375 0 0  0.5 0 0  0.5625 0 0  0.625 0 0  0.6875 0 0  0.75 0 0  0.8125 0 0  0.875 0 0  0.9375 0 0  1 0 0  0 0.0625 0  0.0626077853930861 0.06247701861083883 0  0.1252193758930783 0.06245354912007753 0  0.1878387362573505 0.06242912303436327 0  0.2504700556547741 0.06240333200911115 0  0.3131178725102135 0.06237586819731529 0  0.3757872185009134 0.06234657603752972 0  0.4384838071192271 0.06231551585154204 0  0.5012143268779821 0.0622830338808376 0  0.5639869850095771 0.06224982131651732 0  0.6268126677583934 0.06221691949976153 0  0.6897076782128089 0.06218557184798656 0  0.7527007159337459 0.06215667984615812 0  0.815851942220046 0.06212919402150224 0  0.8793086692450525 0.06209529699860575 0  0.9434795977571917 0.06202455668991565 0  1.009630966961226 0.06180553432335861 0  0 0.125 0  0.0627118586243185 0.1249545042103695 0  0.1254312606940091 0.1249080005469246 0  0.1881660700942061 0.1248595165096638 0  0.2509246138331965 0.1248081910857786 0  0.3137159385072899 0.1247533524500823 0  0.3765501007360778 0.124694621400913 0  0.439438529307348 0.124632044570337 0  0.5023945408475569 0.1245662531713456 0  0.5654341895566932 0.1244986257833239 0  0.6285778499476534 0.1244314008487943 0  0.6918534011875197 0.1243676287023639 0  0.7553028164440925 0.1243107798835684 0  0.8189954216765233 0.12426383575564 0  0.8830512151740451 0.1242283781652443 0  0.9476632538553745 0.1242086077766082 0  1.013010479311024 0.1242476158028233 0  0 0.1875 0  0.06280845998381873 0.1874329849929655 0  0.1256280198912693 0.1873643869942377 0  0.1884702529840054 0.1872926663000292 0  0.2513474407314733 0.1872164275687281 0  0.3142729601987269 0.1871345273243381 0  0.3772617099401188 0.1870462253840599 0  0.4403306050219473 0.186951392943853 0  0.5034991960913712 0.1868507836870146 0  0.566790510467204 0.1867463587118172 0  0.630232275608551 0.1866416237949424 0  0.6938587227082438 0.186541877549083 0  0.7577129461407228 0.1864541652577573 0  0.8218484224742554 0.1863865450400501 0  0.8863230076577865 0.1863457813833763 0  0.9511630432252237 0.1863304158697565 0  1.016244007062125 0.1863045066056186 0  0 0.25 0  0.0628940311538546 0.2499130430556624 0  0.125802417721126 0.2498238584689056 0  0.1887401260177486 0.2497302574718562 0  0.2517230770588706 0.2496301989695052 0  0.3147686640883414 0.2495219123565778 0  0.377896309442605 0.2494040848020085 0  0.4411280763894413 0.2492761393611692 0  0.5044893474220136 0.249138630835209 0  0.5680095573641945 0.2489937803498765 0  0.6317228854238719 0.2488461491498893 0  0.6956685488176344 0.2487034029862415 0  0.7598896084589216 0.2485770162620669 0  0.8244273535945587 0.2484825668402765 0  0.8893043739613983 0.2484389136139245 0  0.9544834330482675 0.2484651029751499 0  1.019789472363761 0.2485750997033644 0  0 0.3125 0  0.06296532815911694 0.3123953274795956 0  0.1259478455303413 0.3122877137222601 0  0.1889654684455148 0.3121742351994389 0  0.2520373115972955 0.3120520783793487 0  0.3151843382056555 0.3119186544420759 0  0.3784300588080742 0.311771796934143 0  0.441801288464751 0.3116100850954413 0  0.5053289522552701 0.3114333478366815 0  0.5690488733462827 0.3112434154543933 0  0.6330023366197131 0.3110451913688492 0  0.6972358901527328 0.3108480990972252 0  0.7617991431644934 0.3106678893466511 0  0.8267380256334386 0.3105286154420511 0  0.8920792393093155 0.3104642413762611 0  0.9578014138945709 0.3105188656059799 0  1.023796668011548 0.3107442361815914 0  0 0.375 0  0.0630195344079629 0.3748805526836919 0  0.1260585502826104 0.374757402085171 0  0.1891373454121272 0.3746268214502165 0  0.252277648446619 0.374485106270269 0  0.3155034035894677 0.3743286483319271 0  0.3788416298366276 0.3741541022294984 0  0.4423233786454659 0.3739587018000514 0  0.5059848016383098 0.3737408109994331 0  0.5698683007191702 0.3735008311525341 0  0.6340236306391021 0.3732426321066045 0  0.698508592912658 0.3729757157257496 0  0.7633885124685882 0.3727183175876089 0  0.828733007599343 0.3725015176159904 0  0.8946080447120746 0.3723740086586512 0  0.9610625162150452 0.3724063114052303 0  1.028115207174951 0.3726920023695794 0  0 0.4375 0  0.06305437401771145 0.4373694771408293 0  0.1261298652636277 0.4372344846217815 0  0.1892484635396693 0.437090467554838 0  0.2524337950702043 0.4369327525446113 0  0.3157120340891311 0.4367565421530401 0  0.3791129297070682 0.4365569944627257 0  0.4426710054903073 0.4363294520112854 0  0.5064270076943818 0.4360699258035358 0  0.5704297012140317 0.4357760059593245 0  0.6347381313726258 0.435448469169377 0  0.6994244613530936 0.4350939850978868 0  0.7645774194434717 0.4347294566212526 0  0.8303062318767471 0.4343885358554322 0  0.8967448768207404 0.4341304203678754 0  0.964057531353594 0.4340496289784699 0  1.032450902598322 0.4342828911078233 0  0 0.5 0  0.06306822335879875 0.4998628590138103 0  0.1261584400711752 0.4997205460114806 0  0.1892935339530178 0.4995677251126794 0  0.252498181516382 0.4993987554908837 0  0.3157998646717342 0.4992075675446221 0  0.3792300419735534 0.4989875933620997 0  0.4428255770347812 0.4987318076773684 0  0.5066305857478531 0.498432985018 0  0.5706989816373235 0.4980843670896363 0  0.6350982084713463 0.4976810878194156 0  0.6999149963305011 0.4972229565163385 0  0.7652644847422762 0.4967195718538723 0  0.8313046561125333 0.4961991334190641 0  0.8982585194365758 0.4957222125806599 0  0.9664470365499035 0.4953995971073755 0  1.036339536853298 0.4954062907465653 0  0 0.5625 0  0.06306021470789351 0.5623613883716083 0  0.1261424574340348 0.562217054758444 0  0.1892696233301289 0.5620610267385573 0  0.2524664835999081 0.5618868152737854 0  0.3157607524737369 0.5616871441644326 0  0.3791843406642649 0.5614536776955013 0  0.4427749230670254 0.5611767744834875 0  0.506578051145531 0.5608453394697079 0  0.5706502554522167 0.5604469361488159 0  0.6350640214382398 0.5599685041924179 0  0.6999163679554246 0.5593983939215151 0  0.7653442538236985 0.5587311342283271 0  0.8315522876485469 0.5579775659952381 0  0.8988606342546734 0.557184412581554 0  0.967781907829852 0.5564663551344085 0  1.039136218330752 0.5560418583768802 0  0 0.625 0  0.06303032174546855 0.62486560036019 0  0.12608181456898 0.6247251793930215 0  0.1891764539558956 0.6245723847857947 0  0.2523380842152928 0.6244001442943364 0  0.3155934776624389 0.6242002421106282 0  0.3789735783853876 0.6239628181325493 0  0.4425150555466738 0.6236757700340657 0  0.5062624030240767 0.6233240573506155 0  0.5702710846725683 0.622888962321544 0  0.6346128350239276 0.6223475085680364 0  0.699385604732873 0.6216726128945573 0  0.7647335833228516 0.620835492938251 0  0.8308883631577957 0.6198141916430356 0  0.8982508193404927 0.6186172281580137 0  0.9675394792348049 0.6173380060394794 0  1.040024796130355 0.6162399730177708 0  0 0.6875 0  0.06297941425782751 0.6873757793779096 0  0.1259782413437014 0.6872455810406946 0  0.1890166034032358 0.6871030388233479 0  0.252116387106822 0.6869409140652879 0  0.3153022308409136 0.6867505444636619 0  0.3786026633652302 0.6865211368456916 0  0.4420514763654416 0.6862388247455051 0  0.5056894824149228 0.6858853895113681 0  0.5695670060512682 0.6854365250594902 0  0.6337480156475348 0.6848595416894536 0  0.6983183730165331 0.6841105613714975 0  0.763404917536762 0.6831319432007359 0  0.8292228441892925 0.6818533219691461 0  0.8961925413760323 0.680209478790534 0  0.9651999235188234 0.6782214409868065 0  1.038062687633413 0.676230089013784 0  0 0.75 0  0.06290927006238982 0.7498918696308827 0  0.1258353294449572 0.7497782152700285 0  0.1887955594288725 0.7496531066453761 0  0.2518089087903291 0.7495096815044848 0  0.3148967562027833 0.7493395278651579 0  0.3780838757636196 0.7491318498484107 0  0.441399522029324 0.7488722858458123 0  0.5048786307268547 0.748541181011567 0  0.5685631255953921 0.7481110086101751 0  0.6325034594188831 0.7475424635987078 0  0.6967613421910055 0.7467784887503875 0  0.7614181560915801 0.7457351681323057 0  0.8266069063964235 0.744288603904411 0  0.8926316359180694 0.7422619129549693 0  0.9603757481005006 0.7394566640908726 0  1.032187195742651 0.7360743683090548 0  0 0.8125 0  0.0628225359156231 0.8124134106478053 0  0.1256584558591509 0.8123221844121611 0  0.188521605022639 0.8122213114109273 0  0.2514271152953696 0.8121049138881931 0  0.3143921060495576 0.8119656512739064 0  0.3774364493775801 0.8117938892145807 0  0.4405835645346899 0.8115764764318164 0  0.503861099441225 0.8112948789995875 0  0.5673011084931283 0.8109222571209406 0  0.6309388040180548 0.8104187737100605 0  0.6948079931260248 0.8097238555669587 0  0.7589303663134011 0.8087429122845626 0  0.8232995453211385 0.8073231309656105 0  0.8878968844112977 0.8052062359675832 0  0.9530008668731464 0.8019396610958099 0  1.021695794682207 0.7968917680091314 0  0 0.875 0  0.06272263476029039 0.8749395156873624 0  0.1254545966709009 0.8748756813266539 0  0.188205533368487 0.8748048605202607 0  0.2509860209706763 0.8747227443651269 0  0.3138080732485153 0.8746238797584144 0  0.3766856990542213 0.8745009956376998 0  0.4396354673878058 0.8743439865146296 0  0.5026769147946305 0.8741383210373889 0  0.5658322885641411 0.8738624817900292 0  0.6291241969458296 0.8734837559571249 0  0.6925672668739707 0.8729511649456878 0  0.7561434325721484 0.8721831638470442 0  0.819734546605826 0.8710442099389282 0  0.8829536108524403 0.8692893309733326 0  0.9447912111903494 0.8663841776821909 0  1.003236728520331 0.8607527350980787 0  0 0.9375 0  0.06261362227264819 0.9374689054974387 0  0.1252320383217506 0.9374360541992531 0  0.187860209765188 0.9373995338348228 0  0.2505035943647665 0.9373570650117202 0  0.3131684253377111 0.9373057401278435 0  0.3758620290070873 0.9372416452717274 0  0.4385931695295041 0.9371592807985688 0 
[...]
<PointData  Vectors="f_54"> 
<DataArray  type="Float64"  Name="f_54"  NumberOfComponents="3" format="ascii">0.0000000000000000e+00 0.0000000000000000e+00 0.0000000000000000e+00  0.0000000000000000e+00 0.0000000000000000e+00 0.0000000000000000e+00  0.0000000000000000e+00 0.0000000000000000e+00 0.0000000000000000e+00  0.0000000000000000e+00 0.0000000000000000e+00 0.0000000000000000e+00  0.0000000000000000e+00 0.0000000000000000e+00 0.0000000000000000e+00  0.0000000000000000e+00 0.0000000000000000e+00 0.0000000000000000e+00  0.0000000000000000e+00 0.0000000000000000e+00 0.0000000000000000e+00  0.0000000000000000e+00 0.0000000000000000e+00 0.0000000000000000e+00  0.0000000000000000e+00 0.0000000000000000e+00 0.0000000000000000e+00  0.0000000000000000e+00 0.0000000000000000e+00 0.0000000000000000e+00  0.0000000000000000e+00 0.0000000000000000e+00 0.0000000000000000e+00  0.0000000000000000e+00 0.0000000000000000e+00 0.0000000000000000e+00  0.0000000000000000e+00 0.0000000000000000e+00 0.0000000000000000e+00  0.0000000000000000e+00 0.0000000000000000e+00 0.0000000000000000e+00  0.0000000000000000e+00 0.0000000000000000e+00 0.0000000000000000e+00  0.0000000000000000e+00 0.0000000000000000e+00 0.0000000000000000e+00  0.0000000000000000e+00 0.0000000000000000e+00 0.0000000000000000e+00  0.0000000000000000e+00 0.0000000000000000e+00 0.0000000000000000e+00  -1.5399368209751893e-06 -1.3469237098878372e-07 0.0000000000000000e+00  -3.1016741718216498e-06 -2.7021555675756199e-07 0.0000000000000000e+00  -4.7042224468659016e-06 -4.0712556126209191e-07 0.0000000000000000e+00  -6.3580564520636699e-06 -5.4522137166201173e-07 0.0000000000000000e+00  -8.0590834851326544e-06 -6.8316678963749086e-07 0.0000000000000000e+00  -9.7801610379518600e-06 -8.1816316421078876e-07 0.0000000000000000e+00  -1.1458762134607813e-05 -9.4580180654730314e-07 0.0000000000000000e+00  -1.2978523295569210e-05 -1.0603721740356890e-06 0.0000000000000000e+00  -1.4140469916988077e-05 -1.1561814542370315e-06 0.0000000000000000e+00  -1.4614961573843221e-05 -1.2310172360367871e-06 0.0000000000000000e+00  -1.3852800753035887e-05 -1.2942565083840272e-06 0.0000000000000000e+00  -1.0897964137057611e-05 -1.3860007440776269e-06 0.0000000000000000e+00  -3.9337264405643030e-06 -1.6263182085192699e-06 0.0000000000000000e+00  1.0974590453670653e-05 -2.3601075598749516e-06 0.0000000000000000e+00  4.3840689933443960e-05 -4.6522848472857119e-06 0.0000000000000000e+00  1.2556972542043907e-04 -1.2343200284835026e-05 0.0000000000000000e+00  0.0000000000000000e+00 0.0000000000000000e+00 0.0000000000000000e+00  -3.0622502358071998e-06 -2.6891476974387278e-07 0.0000000000000000e+00  -6.1724856117528854e-06 -5.3989247084800355e-07 0.0000000000000000e+00  -9.3736775261850612e-06 -8.1444387812560452e-07 0.0000000000000000e+00  -1.2693065250321593e-05 -1.0925504381864893e-06 0.0000000000000000e+00  -1.6130915026351205e-05 -1.3718472076496812e-06 0.0000000000000000e+00  -1.9644626924378127e-05 -1.6468244912478135e-06 0.0000000000000000e+00  -2.3125691899635170e-05 -1.9082415401161114e-06 0.0000000000000000e+00  -2.6365784251033532e-05 -2.1431862969788066e-06 0.0000000000000000e+00  -2.9005880238679232e-05 -2.3366329637494315e-06 0.0000000000000000e+00  -3.0457278482577503e-05 -2.4760477757230119e-06 0.0000000000000000e+00  -2.9772516290716761e-05 -2.5616955082080781e-06 0.0000000000000000e+00  -2.5420854630354476e-05 -2.6267334036039471e-06 0.0000000000000000e+00  -1.4877826133575801e-05 -2.7712302564673177e-06 0.0000000000000000e+00  6.1188789401324084e-06 -3.2011157659440539e-06 0.0000000000000000e+00  4.4671893850458080e-05 -4.1675239143650048e-06 0.0000000000000000e+00  1.1047110858683951e-04 -5.1234063701129857e-06 0.0000000000000000e+00  0.0000000000000000e+00 0.0000000000000000e+00 0.0000000000000000e+00  -4.5395241109076719e-06 -4.0131923754746279e-07 0.0000000000000000e+00  -9.1609475927638980e-06 -8.0671121910265148e-07 0.0000000000000000e+00  -1.3940041558061041e-05 -1.2194362270527637e-06 0.0000000000000000e+00  -1.8932343287531052e-05 -1.6404787670174124e-06 0.0000000000000000e+00  -2.4158392643145822e-05 -2.0672169715157348e-06 0.0000000000000000e+00  -2.9582608295519735e-05 -2.4919382349747649e-06 0.0000000000000000e+00  -3.5082642241042338e-05 -2.9003511104534634e-06 0.0000000000000000e+00  -4.0405006478959110e-05 -3.2705143850112789e-06 0.0000000000000000e+00  -4.5101225019159631e-05 -3.5730711257985013e-06 0.0000000000000000e+00  -4.8436576329182988e-05 -3.7744004870189490e-06 0.0000000000000000e+00  -4.9260956104132314e-05 -3.8452348140375256e-06 0.0000000000000000e+00  -4.5831463898989124e-05 -3.7779622181444412e-06 0.0000000000000000e+00  -3.5593168718904864e-05 -3.6145677170848377e-06 0.0000000000000000e+00  -1.5012020813105687e-05 -3.4799690972672043e-06 0.0000000000000000e+00  2.0117724538926100e-05 -3.6011749100687018e-06 0.0000000000000000e+00  7.2522126628363090e-05 -4.3443607714294351e-06 0.0000000000000000e+00  0.0000000000000000e+00 0.0000000000000000e+00 0.0000000000000000e+00  -5.9367646258305280e-06 -5.2978550738097291e-07 0.0000000000000000e+00  -1.1999143640258918e-05 -1.0667802419104754e-06 0.0000000000000000e+00  -1.8307032479742877e-05 -1.6171862687176562e-06 0.0000000000000000e+00  -2.4959382483895260e-05 -2.1843233990271100e-06 0.0000000000000000e+00  -3.2018243982877315e-05 -2.7667619390942769e-06 0.0000000000000000e+00  -3.9485279369954557e-05 -3.3559713214744094e-06 0.0000000000000000e+00  -4.7267156173514862e-05 -3.9334598439012268e-06 0.0000000000000000e+00  -5.5125439743909924e-05 -4.4676135619258466e-06 0.0000000000000000e+00  -6.2606019645218005e-05 -4.9109048786061452e-06 0.0000000000000000e+00  -6.8943542590102833e-05 -5.1989660515480145e-06 0.0000000000000000e+00  -7.2939940659873508e-05 -5.2543202719404778e-06 0.0000000000000000e+00  -7.2828509355482327e-05 -4.9992656163876763e-06 0.0000000000000000e+00  -6.6169836946241190e-05 -4.3839849597273583e-06 0.0000000000000000e+00  -4.9912493931581683e-05 -3.4362649328821961e-06 0.0000000000000000e+00  -2.0927823190811193e-05 -2.3374036045923075e-06 0.0000000000000000e+00  2.2481437861513510e-05 -1.5232028669354593e-06 0.0000000000000000e+00  0.0000000000000000e+00 0.0000000000000000e+00 0.0000000000000000e+00  -7.2095323822433518e-06 -6.5109042618051955e-07 0.0000000000000000e+00  -1.4598464054626899e-05 -1.3139171542873051e-06 0.0000000000000000e+00  -2.2342655811372141e-05 -1.9991586000072845e-06 0.0000000000000000e+00  -3.0600867445024392e-05 -2.7143369608501710e-06 0.0000000000000000e+00  -3.9500388705544848e-05 -3.4615206516137366e-06 0.0000000000000000e+00  -4.9114514797971143e-05 -4.2340878394178942e-06 0.0000000000000000e+00  -5.9427841465682200e-05 -5.0122105088394872e-06 0.0000000000000000e+00  -7.0284466528793658e-05 -5.7568077368764646e-06 0.0000000000000000e+00  -8.1313728811605696e-05 -6.4020440285826510e-06 0.0000000000000000e+00  -9.1829230843012638e-05 -6.8472865495315529e-06 0.0000000000000000e+00  -1.0070200425938291e-04 -6.9512557505698605e-06 0.0000000000000000e+00  -1.0622245248805744e-04 -6.5346293895286645e-06 0.0000000000000000e+00  -1.0599567771997415e-04 -5.4034952144791630e-06 0.0000000000000000e+00  -9.6967834363445341e-05 -3.4154707370692905e-06 0.0000000000000000e+00  -7.5741183595816059e-05 -6.2228935972024969e-07 0.0000000000000000e+00  -3.9288604405420895e-05 2.4672157987987230e-06 0.0000000000000000e+00  0.0000000000000000e+00 0.0000000000000000e+00 0.0000000000000000e+00  -8.3038862532577642e-06 -7.6066712406833654e-07 0.0000000000000000e+00  -1.6849128463330062e-05 -1.5390776817836209e-06 0.0000000000000000e+00  -2.5877553716837460e-05 -2.3521058909504306e-06 0.0000000000000000e+00  -3.5622649800186578e-05 -3.2137726920328658e-06 0.0000000000000000e+00  -4.6299880432096869e-05 -4.1328251076495262e-06 0.0000000000000000e+00  -5.8088916087883764e-05 -5.1088981351413961e-06 0.0000000000000000e+00  -7.1103269882869972e-05 -6.1264868951232045e-06 0.0000000000000000e+00  -8.5341310972637623e-05 -7.1457458288791074e-06 0.0000000000000000e+00  -1.0061115549264083e-04 -8.0890390495604483e-06 0.0000000000000000e+00  -1.1642147379545025e-04 -8.8225536839568133e-06 0.0000000000000000e+00  -1.3183289564987929e-04 -9.1339961056675499e-06 0.0000000000000000e+00  -1.4527411607263328e-04 -8.7121306355315676e-06 0.0000000000000000e+00  -1.5434736449008833e-04 -7.1446133991079952e-06 0.0000000000000000e+00  -1.5567831066298549e-04 -3.9707387027224716e-06 0.0000000000000000e+00  -1.4487823443008673e-04 1.1441956584022268e-06 0.0000000000000000e+00  -1.1658728199481697e-04 8.0166933729714883e-06 0.0000000000000000e+00  0.0000000000000000e+00 0.0000000000000000e+00 0.0000000000000000e+00  -9.1584539710612173e-06 -8.5253932839734584e-07 0.0000000000000000e+00  -1.8624168519175780e-05 -1.7301175594600859e-06 0.0000000000000000e+00  -2.8710552268639926e-05 -2.6574171188455822e-06 0.0000000000000000e+00  -3.9736203863520629e-05 -3.6573788148981310e-06 0.0000000000000000e+00  -5.2023155614135855e-05 -4.7492023371215218e-06 0.0000000000000000e+00  -6.5888170550105048e-05 -5.9446050243809406e-06 0.0000000000000000e+00  -8.1622300517985414e-05 -7.2411181325691284e-06 0.0000000000000000e+00  -9.9451346378551554e-05 -8.6105270064261176e-06 0.0000000000000000e+00  -1.1946636058954783e-04 -9.9796507290720256e-06 0.0000000000000000e+00  -1.4150926745692217e-04 -1.1199718279801157e-05 0.0000000000000000e+00  -1.6499554184394734e-04 -1.2000485188203340e-05 0.0000000000000000e+00  -1.8865731644643346e-04 -1.1928385363435151e-05 0.0000000000000000e+00  -2.1020227837411238e-04 -1.0280014006515498e-05 0.0000000000000000e+00  -2.2590922850309106e-04 -6.0727878274992409e-06 0.0000000000000000e+00  -2.3019731808178914e-04 1.8473433422401260e-06 0.0000000000000000e+00  -2.1511511736995242e-04 1.4386211761160957e-05 0.0000000000000000e+00  0.0000000000000000e+00 0.0000000000000000e+00 0.0000000000000000e+00  -9.7087302378164578e-06 -9.1953073760498328e-07 0.0000000000000000e+00  -1.9788136480209632e-05 -1.8721182042677298e-06 0.0000000000000000e+00  -3.0621954722530807e-05 -2.8913332827243843e-06 0.0000000000000000e+00  -4.2616542951193669e-05 -4.0110449559678469e-06 0.0000000000000000e+00  -5.6210113324377245e-05 -5.2645835542885255e-06 0.0000000000000000e+00  -7.1877723263655635e-05 -6.6822252736486001e-06 0.0000000000000000e+00  -9.0127681173835002e-05 -8.2855109435396677e-06 0.0000000000000000e+00  -1.1148137923195421e-04 -1.0075733635571368e-05 0.0000000000000000e+00  -1.3642254303224604e-04 -1.2011909449282102e-05 0.0000000000000000e+00  -1.6529263771339881e-04 -1.3970301801675338e-05 0.0000000000000000e+00  -1.9809669390976671e-04 -1.5673015910902042e-05 0.0000000000000000e+00  -2.3417133136018753e-04 -1.6568842099123093e-05 0.0000000000000000e+00  -2.7166516113147891e-04 -1.5652198322373130e-05 0.0000000000000000e+00  -3.0681182182683563e-04 -1.1234756771467767e-05 0.0000000000000000e+00  -3.3304300221519568e-04 -7.7238253153216662e-07 0.0000000000000000e+00  -3.3997143188005120e-04 1.8998961741253158e-05 0.0000000000000000e+00  0.0000000000000000e+00 0.0000000000000000e+00 0.0000000000000000e+00  -9.8934384105636659e-06 -9.5383402594098410e-07 0.0000000000000000e+00  -2.0210299005203990e-05 -1.9484896601651856e-06 0.0000000000000000e+00  -3.1394454618164645e-05 -3.0264718793849933e-06 0.0000000000000000e+00  -4.3931939317678784e-05 -4.2334443015925729e-06 0.0000000000000000e+00  -5.8373446660235970e-05 -5.6193413248869486e-06 0.0000000000000000e+00  -7.5357246073266381e-05 -7.2384582713769917e-06 0.0000000000000000e+00  -9.5630006252761103e-05 -9.1472118118385787e-06 0.0000000000000000e+00  -1.2005895104593613e-04 -1.1396816757725176e-05 0.0000000000000000e+00  -1.4962080123994448e-04 -1.4015211679082695e-05 0.0000000000000000e+00  -1.8533816001104329e-04 -1.6966789777191755e-05 0.0000000000000000e+00  -2.2810869406217362e-04 -2.0067414978222239e-05 0.0000000000000000e+00  -2.7833515310873028e-04 -2.2812534491495027e-05 0.0000000000000000e+00  -3.3522664661767210e-04 -2.4047653811605386e-05 0.0000000000000000e+00  -3.9565527758596655e-04 -2.1393405356179446e-05 0.0000000000000000e+00  -4.5262584501244886e-04 -1.0416770195840568e-05 0.0000000000000000e+00  -4.9372459125954975e-04 1.6156266280712130e-05 0.0000000000000000e+00  0.0000000000000000e+00 0.0000000000000000e+00 0.0000000000000000e+00  -9.6624579250271414e-06 -9.4796716334069133e-07 0.0000000000000000e+00  -1.9781400807757419e-05 -1.9429525493360218e-06 0.0000000000000000e+00  -3.0840541213615010e-05 -3.0349473339620219e-06 0.0000000000000000e+00  -4.3384574545873446e-05 -4.2803673910099930e-06 0.0000000000000000e+00  -5.8055578483693604e-05 -5.7456760183717102e-06 0.0000000000000000e+00  -7.5636349860842600e-05 -7.5112784396593802e-06 0.0000000000000000e+00  -9.7101877302848075e-05 -9.6751987699957747e-06 0.0000000000000000e+00  -1.2367720840194407e-04 -1.2354931303275733e-05 0.0000000000000000e+00  -1.5689240302540540e-04 -1.5683134525761125e-05 0.0000000000000000e+00  -1.9860762603618722e-04 -1.9786263137553786e-05 0.0000000000000000e+00  -2.5094352227030150e-04 -2.4719430022804137e-05 0.0000000000000000e+00  -3.1597798695872552e-04 -3.0293227292448781e-05 0.0000000000000000e+00  -3.9494899351716985e-04 -3.5642992042515059e-05 0.0000000000000000e+00  -4.8659040691723999e-04 -3.8226895668799249e-05 0.0000000000000000e+00  -5.8445084171963185e-04 -3.1792301089322992e-05 0.0000000000000000e+00  -6.7407839810228621e-04 -3.3678155334492659e-06 0.0000000000000000e+00  0.0000000000000000e+00 0.0000000000000000e+00 0.0000000000000000e+00  -8.9854243728658543e-06 -8.9604550291417965e-07 0.0000000000000000e+00  -1.8432225421037453e-05 -1.8422837447499317e-06 0.0000000000000000e+00  -2.8833831390189173e-05 -2.8930061780049474e-06 0.0000000000000000e+00  -4.0759098372122148e-05 -4.1118909518174421e-06 0.0000000000000000e+00  -5.4900665976853891e-05 -5.5781564621610244e-06 0.0000000000000000e+00  -7.2137683745643319e-05 -7.3946674889647124e-06 0.0000000000000000e+00  -9.3619560109353185e-05 -9.6988836404072403e-06 0.0000000000000000e+00  -1.2087782257294876e-04 -1.2677504931601158e-05 0.0000000000000000e+00  -1.5597046587938380e-04 -1.6584895463757661e-05 0.0000000000000000e+00  -2.0165064007031521e-04 -2.1762046519563791e-05 0.0000000000000000e+00  -2.6151246386610220e-04 -2.8641231671996097e-05 0.0000000000000000e+00  -3.3996205011662431e-04 -3.7682965268464832e-05 0.0000000000000000e+00  -4.4161139740377819e-04 -4.9065002202985629e-05 0.0000000000000000e+00  -5.6920307583639186e-04 -6.1535102772625628e-05 0.0000000000000000e+00  -7.1893944753982305e-04 -6.8756546808136087e-05 0.0000000000000000e+00  -8.7528962579657614e-04 -5.1220768663005297e-05 0.0000000000000000e+00  0.0000000000000000e+00 0.0000000000000000e+00 0.0000000000000000e+00  -7.8597124385209065e-06 -7.9517460377619697e-07 0.0000000000000000e+00  -1.6151248796653498e-05 -1.6394208518331893e-06 0.0000000000000000e+00  -2.5340006378621580e-05 -2.5865456401753499e-06 0.0000000000000000e+00  -3.5973019832330788e-05 -3.7015513948402265e-06 0.0000000000000000e+00  -4.8734128074099487e-05 -5.0685803194644971e-06 0.0000000000000000e+00  -6.4519909144044753e-05 -6.8023273677163636e-06 0.0000000000000000e+00  -8.4548993092437336e-05 -9.0652763156641704e-06 0.0000000000000000e+00  -1.1052317560730828e-04 -1.2094560625287308e-05 0.0000000000000000e+00  -1.4486613968212828e-04 -1.6244690761739047e-05 0.0000000000000000e+00  -1.9107091167803786e-04 -2.2056284174595975e-05 0.0000000000000000e+00  -2.5417531532826912e-04 -3.0365973836395138e-05 0.0000000000000000e+00  -3.4130386098906579e-04 -4.2472253659374818e-05 0.0000000000000000e+00  -4.6190028292653100e-04 -6.0321095604809213e-05 0.0000000000000000e+00  -6.2621722792992221e-04 -8.6300224702280136e-05 0.0000000000000000e+00  -8.3747390346371881e-04 -1.1984934538913058e-04 0.0000000000000000e+00  -1.0798500328988625e-03 -1.3643129860216386e-04 0.0000000000000000e+00  0.0000000000000000e+00 0.0000000000000000e+00 0.0000000000000000e+00  -6.3162345413306728e-06 -6.4666074254501995e-07 0.0000000000000000e+00  -1.2997941167515661e-05 -1.3362477773826850e-06 0.0000000000000000e+00  -2.0441402743495681e-05 -2.1163091949450042e-06 0.0000000000000000e+00  -2.9119523029146601e-05 -3.0455339334333294e-06 0.0000000000000000e+00  -3.9635692141406474e-05 -4.2020315120798571e-06 0.0000000000000000e+00  -5.2801212883134560e-05 -5.6957831864726287e-06 0.0000000000000000e+00  -6.9752932684716696e-05 -7.6884547391383243e-06 0.0000000000000000e+00  -9.2138881601210102e-05 -1.0426227077141248e-05 0.0000000000000000e+00  -1.2241930180822207e-04 -1.4296169199672289e-05 0.0000000000000000e+00  -1.6436343390951094e-04 -1.9926817610626899e-05 0.0000000000000000e+00  -2.2387181407704942e-04 -2.8376402696725606e-05 0.0000000000000000e+00  -3.1030098734440497e-04 -4.1507932043483870e-05 0.0000000000000000e+00  -4.3838586641504080e-04 -6.2795720838094155e-05 0.0000000000000000e+00  -6.3003701186367276e-04 -9.9168736256755944e-05 0.0000000000000000e+00  -9.1033433757203288e-04 -1.6487449509032634e-04 0.0000000000000000e+00  -1.2411679063172787e-03 -2.7744658274451111e-04 0.0000000000000000e+00  0.0000000000000000e+00 0.0000000000000000e+00 0.0000000000000000e+00  -4.4214912472241529e-06 -4.5669548611516413e-07 0.0000000000000000e+00  -9.1081159281038372e-06 -9.4525738202199243e-07 0.0000000000000000e+00  -1.4348572152059101e-05 -1.5012214036186353e-06 0.0000000000000000e+00  -2.0491048791037932e-05 -2.1690720935053691e-06 0.0000000000000000e+00  -2.7986208085563790e-05 -3.0090641558115743e-06 0.0000000000000000e+00  -3.7450836185922955e-05 -4.1077154112955829e-06 0.0000000000000000e+00  -4.9768204124375513e-05 -5.5948797006386527e-06 0.0000000000000000e+00  -6.6254109801692430e-05 -7.6726198016376093e-06 0.0000000000000000e+00  -8.8943360580282367e-05 -1.0665596517138477e-05 0.0000000000000000e+00  -1.2110402927889667e-04 -1.5111766692591524e-05 0.0000000000000000e+00  -1.6819535144161488e-04 -2.1932014827858470e-05 0.0000000000000000e+00  -2.3970610078071227e-04 -3.2768217423830420e-05 0.0000000000000000e+00  -3.5273019196646176e-04 -5.0747856057213283e-05 0.0000000000000000e+00  -5.3882594971448321e-04 -8.2657701856722756e-05 0.0000000000000000e+00  -8.5706625938404904e-04 -1.4710358153232901e-04 0.0000000000000000e+00  -1.4271989305297847e-03 -3.1027033041664811e-04 0.0000000000000000e+00  0.0000000000000000e+00 0.0000000000000000e+00 0.0000000000000000e+00  -2.2747360619109033e-06 -2.3623842024789850e-07 0.0000000000000000e+00  -4.6885431728093726e-06 -4.8942034311350180e-07 0.0000000000000000e+00  -7.3931787177845909e-06 -7.7850545951819363e-07 0.0000000000000000e+00  -1.0572716781975076e-05 -1.1274010880042264e-06 0.0000000000000000e+00  -1.4467239570916081e-05 -1.5687724737306274e-06 0.0000000000000000e+00  -1.9408487861113542e-05 -2.1499479924068934e-06 0.0000000000000000e+00  -2.5877227525272352e-05 -2.9425641718032313e-06 0.0000000000000000e+00  -3.4600697404180738e-05 -4.0588061570738860e-06 0.0000000000000000e+00  -4.6726777531745314e-05 -5.6791099919171562e-06 0.0000000000000000e+00  -6.4152015265839230e-05 -8.0987674840615493e-06 0.0000000000000000e+00  -9.0173925789883806e-05 -1.1800161403635480e-05 0.0000000000000000e+00  -1.3085466262185744e-04 -1.7530196287003046e-05 0.0000000000000000e+00  -1.9793561973007254e-04 -2.6192344978870444e-05 0.0000000000000000e+00  -3.1451090072475313e-04 -3.7538937051145918e-05 0.0000000000000000e+00  -5.1973348128276069e-04 -4.3818131200289341e-05 0.0000000000000000e+00  -8.3175195510015959e-04 -1.6068230783397901e-05 0.0000000000000000e+00  0.0000000000000000e+00 0.0000000000000000e+00 0.0000000000000000e+00  0.0000000000000000e+00 0.0000000000000000e+00 0.0000000000000000e+00  0.0000000000000000e+00 0.0000000000000000e+00 0.0000000000000000e+00  0.0000000000000000e+00 0.0000000000000000e+00 0.0000000000000000e+00  0.0000000000000000e+00 0.0000000000000000e+00 0.0000000000000000e+00  0.0000000000000000e+00 0.0000000000000