<?xml version="1.0"?>
<VTKFile type="UnstructuredGrid"  version="0.1"  >
<UnstructuredGrid>
<Piece  NumberOfPoints="289" NumberOfCells="512">
<Points>
<DataArray  type="Float64"  NumberOfComponents="3"  format="ascii">0 0 0  0.0625 0 0  0.125 0 0  0.1875 0 0  0.25 0 0  0.3125 0 0  0.375 0 0  0.4375 0 0  0.5 0 0  0.5625 0 0  0.625 0 0  0.6875 0 0  0.75 0 0  0.8125 0 0  0.875 0 0  0.9375 0 0  1 0 0  0 0.0625 0  0.06247774787573056 0.06246971831819317 0  0.1249554063621139 0.06243890430047586 0  0.1874329227677516 0.0624070645756493 0  0.249910447325068 0.06237381947570304 0  0.3123884741939783 0.06233897642698234 0  0.3748680410521662 0.06230262171049577 0  0.4373510235578928 0.06226523151796995 0  0.4998405850717102 0.06222779552417492 0  0.5623418934806161 0.06219193223915901 0  0.624863334615989 0.06215995253815365 0  0.6874187389484003 0.06213479494214063 0  0.7500318779629341 0.06211972019737717 0  0.8127464529090715 0.06211764937272506 0  0.8756499678934855 0.06213021479469592 0  0.9389319667505991 0.06215782403466182 0  1.00300965950994 0.06221225836740077 0  0 0.125 0  0.0624556014652427 0.1249399428678914 0  0.124910944817809 0.1248787632823497 0  0.1873658435326337 0.124815410745543 0  0.249820500347999 0.1247490488137025 0  0.3122757805556232 0.1246791976341932 0  0.3747336007620413 0.1246059177692122 0  0.4371975013493999 0.1245300414269893 0  0.499673509778926 0.124453444322531 0  0.5621714768351801 0.124379326159404 0  0.6247072172023557 0.1243124231844884 0  0.6873060856148855 0.1242590062524042 0  0.7500091949027334 0.1242264273434807 0  0.8128844109641304 0.1242219191317026 0  0.8760449633541791 0.124250542915654 0  0.9396756884306791 0.1243132522338978 0  1.004055712253419 0.1244077102629211 0  0 0.1875 0  0.06243381270572343 0.1874112789397278 0  0.1248670298708675 0.187320740732904 0  0.1872991507806521 0.1872266606140577 0  0.2497301991194855 0.1871275993053588 0  0.3121610961466028 0.187022603396465 0  0.3745941946907255 0.1869114766940005 0  0.4370340618423564 0.1867951415312615 0  0.4994886356034369 0.1866760965867778 0  0.5619709390488179 0.186558948604037 0  0.6245016218156954 0.1864509354349459 0  0.6871127046247523 0.1863622436524796 0  0.749852940560645 0.1863057120677706 0  0.8127948112982075 0.1862950927573258 0  0.8760412630181118 0.1863400287045442 0  0.9397248525355866 0.1864327882998128 0  1.003984023387713 0.1865111076335417 0  0 0.25 0  0.06241279860570108 0.2498844345192532 0  0.1248244310721954 0.2497662207567932 0  0.1872338294130711 0.2496428032660228 0  0.2496405050383475 0.2495119362934318 0  0.3120449717176967 0.2493719197459704 0  0.3744493602514502 0.2492219411640277 0  0.4368583230316694 0.2490625647605705 0  0.4992803552677217 0.2488964056062878 0  0.561729687585059 0.2487290085682302 0  0.6242289101198559 0.2485698989666149 0  0.6868124102061076 0.2484336508238469 0  0.7495303919296418 0.2483405681284276 0  0.8124523697712008 0.2483160915493951 0  0.8756670932175556 0.2483871904601554 0  0.9392728434476552 0.2485728890327695 0  1.003350721904927 0.2488670205266987 0  0 0.3125 0  0.06239318598252781 0.3123602501397848 0  0.1247843763883219 0.3122168762689344 0  0.1871716514177208 0.3120663202051858 0  0.2495536251173349 0.3119052908019938 0  0.3119298566896938 0.311730998390403 0  0.3743014711522979 0.3115415290622497 0  0.436672096896885 0.3113364289408629 0  0.499049254509054 0.3111175856325441 0  0.5614463462687375 0.3108905056473626 0  0.6238853645470626 0.3106660745349461 0  0.686400287513793 0.3104628111076805 0  0.7490407360015493 0.3103094111977034 0  0.8118746782279358 0.3102468934591458 0  0.8749878589705473 0.3103287744896019 0  0.9384772824346719 0.310616501306584 0  1.002440182516699 0.3111667082776637 0  0 0.375 0  0.06237581888989335 0.374839704867853 0  0.1247485768169232 0.3746746898494355 0  0.1871152373328261 0.3745002406030469 0  0.249473140976076 0.3743117835056982 0  0.3118203362067495 0.3741050650745013 0  0.3741561234005693 0.3738764920125 0  0.4364819335497159 0.3736237309420765 0  0.4988027054734581 0.3733467125920452 0  0.5611289642976554 0.3730492463283757 0  0.6234798080254316 0.3727415187509573 0  0.6858869119425921 0.3724437899233079 0  0.7483993572297217 0.3721915182564784 0  0.8110884952519469 0.3720417371835454 0  0.8740513579621405 0.3720794508886684 0  0.9374113834890786 0.3724208747568153 0  1.001319120796419 0.3732079763821632 0  0 0.4375 0  0.06236172394813642 0.4373238899685651 0  0.1247191616189718 0.4371419080500897 0  0.1870679708311956 0.4369480928050253 0  0.2494039188099745 0.4367364062396158 0  0.3117230594858505 0.4365007919276122 0  0.3740221064267137 0.4362353864192774 0  0.4362991388835226 0.4359349995887924 0  0.4985548549496004 0.4355960554452066 0  0.5607946918784128 0.4352183070270841 0  0.6230322575926786 0.4348078233366889 0  0.6852946110409952 0.4343819916554866 0  0.7476298757755726 0.4339775118513509 0  0.8101172820607159 0.4336623088599596 0  0.8728789098098302 0.4335513066225613 0  0.9360917891722003 0.4338231762738727 0  1.000001406133308 0.434730737755517 0  0 0.5 0  0.06235203319957919 0.4998139438859544 0  0.124698522232862 0.4996209134364759 0  0.1870337613288867 0.4994137203922076 0  0.249351791692033 0.4991848015865022 0  0.3116463525578321 0.4989260875064828 0  0.3739109754337347 0.498628975249261 0  0.4361393625848181 0.4982845109978205 0  0.4983263116532687 0.4978839814263289 0  0.5604696561149479 0.4974202865530945 0  0.6225740239315738 0.4968907768871312 0  0.6846576867481716 0.4963027680783579 0  0.7467642777364348 0.4956837602735144 0  0.8089813031866468 0.4950993271314471 0  0.8714663283115944 0.4946817280740347 0  0.9344789041284719 0.4946688898298093 0  0.9984152592016402 0.4954434331465462 0  0 0.5625 0  0.06234786851544576 0.5623109471115808 0  0.1246890712361852 0.5621140082880829 0  0.1870166598651741 0.5619009445026034 0  0.2493230125403265 0.5616627952965019 0  0.3115994987148236 0.5613895055715703 0  0.3738361850444374 0.5610695617219917 0  0.4360216919269475 0.5606896929903782 0  0.4981434623460915 0.5602347779036526 0  0.5601890145932451 0.5596882739841816 0  0.6221493491515655 0.5590338660494846 0  0.6840267466493375 0.5582598169019225 0  0.7458508394581388 0.5573690950044852 0  0.8077086553116111 0.5564012554840077 0  0.8697943168221798 0.5554759550576416 0  0.9324778468543752 0.554868122494331 0  0.9963775607700044 0.5551090991081356 0  0 0.625 0  0.06235019659303492 0.6248157834352372 0  0.1246929326742493 0.6246231207481036 0  0.187020347115394 0.6244130818079914 0  0.2493234880623094 0.6241756767432561 0  0.3115916651881727 0.6238992266098001 0  0.3738116873202403 0.6235696136195785 0  0.4359670065849786 0.6231693793112794 0  0.4980369243658437 0.6226766723535981 0  0.5599963544508573 0.6220641493041862 0  0.6218174400363842 0.6212982159822384 0  0.6834760790601302 0.6203397684754562 0  0.7449699171730914 0.6191496549464486 0  0.8063602335231291 0.6177074154198375 0  0.86785612900858 0.6160641191339535 0  0.9299539841760663 0.6144671451716575 0  0.9936181176218225 0.6135745098624481 0  0 0.6875 0  0.06235966973019238 0.687328983897969 0  0.1247115936916946 0.6871494663809909 0  0.1870475352769827 0.6869523674550978 0  0.2493578362760433 0.6867272892023557 0  0.3116304892576415 0.6864616719294057 0  0.3738499076424442 0.6861396955312318 0  0.4359952657360139 0.6857407888495962 0  0.4980383147275549 0.6852375600906369 0  0.5599407816718667 0.6845929032895052 0  0.6216521567977596 0.6837560128457979 0  0.6831107173392232 0.6826572457890773 0  0.7442560272468534 0.6812030071207602 0  0.8050739071777465 0.6792772421190797 0  0.8657189270750592 0.6767776530215944 0  0.9267699986718948 0.6737885773589564 0  0.989603489917562 0.6710210262628593 0  0 0.75 0  0.06237647452627653 0.7498505790677785 0  0.1247455645839258 0.7496932202874834 0  0.1870993596977772 0.7495193756340857 0  0.2494283719197125 0.7493190719153653 0  0.3117204390217705 0.7490799547741356 0  0.3739591593245867 0.7487859810230919 0  0.4361215574707102 0.7484155364305535 0  0.4981745352038797 0.7479386266747255 0  0.5600695051327085 0.7473125585921213 0  0.6217346433415369 0.7464751056191103 0  0.6830652394604929 0.7453333657554341 0  0.7439174803625332 0.7437451859314103 0  0.8041287340614197 0.7414888845664706 0  0.863645150697899 0.7382249903497989 0  0.9229907485860348 0.7335455888774128 0  0.9838169764569212 0.7281097813947858 0  0 0.8125 0  0.0624002166228189 0.8123799906831353 0  0.1247941109836414 0.8122532692426728 0  0.1871748746061259 0.8121125621076928 0  0.2495342071668495 0.8119492627717249 0  0.3118612333222487 0.8117525114760433 0  0.3741408794941288 0.8115079007148309 0  0.4363512921839043 0.81119555629148 0  0.4984595542645505 0.8107871850010818 0  0.5604143505707387 0.8102413847523799 0  0.6221331590628563 0.809495919061763 0  0.6834798980829033 0.8084543177043702 0  0.7442277467611925 0.8069607515829458 0  0.8040082601407588 0.8047477072098378 0  0.8623000001545518 0.8013146759606217 0  0.9188244097587479 0.7956257685894943 0  0.9774086778702503 0.7852544080428847 0  0 0.875 0  0.06242987121836859 0.8749159921257927 0  0.1248551291613826 0.8748271117844897 0  0.1872707915502858 0.8747280559505861 0  0.2496707241802957 0.8746124888324036 0  0.3120467835936105 0.8744723168745298 0  0.3743874949395079 0.8742966546028638 0  0.4366758670287051 0.8740702747908635 0  0.4988855713783035 0.8737712152158014 0  0.5609738982909448 0.873367015913295 0  0.6228680759708149 0.8728087347076938 0  0.6844373222146036 0.8720212776423902 0  0.745433176490371 0.8708868821968871 0  0.8053583846180236 0.8692113698796291 0  0.8631791407082461 0.8666279422866913 0  0.916731559749735 0.8622379058909235 0  0.9617471378924748 0.8532011996317035 0  0 0.9375 0  0.06246382263393035 0.9374567572153151 0  0.1249252226646047 0.9374109526885093 0  0.1873815830759265 0.9373597914052272 0  0.249829670978696 0.9372999155963294 0  0.3122651766068152 0.9372270064630971 0  0.3746819962884138 0.9371352128792442 0  0.4370710319979286 0.9
[...]
<PointData  Vectors="f_54"> 
<DataArray  type="Float64"  Name="f_54"  NumberOfComponents="3" format="ascii">0.0000000000000000e+00 0.0000000000000000e+00 0.0000000000000000e+00  0.0000000000000000e+00 0.0000000000000000e+00 0.0000000000000000e+00  0.0000000000000000e+00 0.0000000000000000e+00 0.0000000000000000e+00  0.0000000000000000e+00 0.0000000000000000e+00 0.0000000000000000e+00  0.0000000000000000e+00 0.0000000000000000e+00 0.0000000000000000e+00  0.0000000000000000e+00 0.0000000000000000e+00 0.0000000000000000e+00  0.0000000000000000e+00 0.0000000000000000e+00 0.0000000000000000e+00  0.0000000000000000e+00 0.0000000000000000e+00 0.0000000000000000e+00  0.0000000000000000e+00 0.0000000000000000e+00 0.0000000000000000e+00  0.0000000000000000e+00 0.0000000000000000e+00 0.0000000000000000e+00  0.0000000000000000e+00 0.0000000000000000e+00 0.0000000000000000e+00  0.0000000000000000e+00 0.0000000000000000e+00 0.0000000000000000e+00  0.0000000000000000e+00 0.0000000000000000e+00 0.0000000000000000e+00  0.0000000000000000e+00 0.0000000000000000e+00 0.0000000000000000e+00  0.0000000000000000e+00 0.0000000000000000e+00 0.0000000000000000e+00  0.0000000000000000e+00 0.0000000000000000e+00 0.0000000000000000e+00  0.0000000000000000e+00 0.0000000000000000e+00 0.0000000000000000e+00  0.0000000000000000e+00 0.0000000000000000e+00 0.0000000000000000e+00  2.0292002842147607e-06 1.3731918651061563e-07 0.0000000000000000e+00  4.0870379828063829e-06 2.7637743432059260e-07 0.0000000000000000e+00  6.1993127022309035e-06 4.1869305912500658e-07 0.0000000000000000e+00  8.3817535847963390e-06 5.6505204564302358e-07 0.0000000000000000e+00  1.0633291736341437e-05 7.1505329026175405e-07 0.0000000000000000e+00  1.2927082966562584e-05 8.6655990667886369e-07 0.0000000000000000e+00  1.5198253198827243e-05 1.0150663442628156e-06 0.0000000000000000e+00  1.7326881227790727e-05 1.1530485762243562e-06 0.0000000000000000e+00  1.9113570502446101e-05 1.2694683485465851e-06 0.0000000000000000e+00  2.0241807346757456e-05 1.3497876349759421e-06 0.0000000000000000e+00  2.0212370339138990e-05 1.3772127515026633e-06 0.0000000000000000e+00  1.8208586995640913e-05 1.3367876610526275e-06 0.0000000000000000e+00  1.2768070598304267e-05 1.2268753976655937e-06 0.0000000000000000e+00  8.5588564593912528e-07 1.0938442775103211e-06 0.0000000000000000e+00  -2.5093304202569153e-05 1.1534840987950427e-06 0.0000000000000000e+00  -8.7727937753358034e-05 2.2797944563734204e-06 0.0000000000000000e+00  0.0000000000000000e+00 0.0000000000000000e+00 0.0000000000000000e+00  4.0263363081401754e-06 2.7266732549156742e-07 0.0000000000000000e+00  8.1146202980647920e-06 5.4915807864962339e-07 0.0000000000000000e+00  1.2321686626391782e-05 8.3288564123269383e-07 0.0000000000000000e+00  1.6685684076832656e-05 1.1258749717087288e-06 0.0000000000000000e+00  2.1213480422418371e-05 1.4278756793951071e-06 0.0000000000000000e+00  2.5863770786630356e-05 1.7352576165219054e-06 0.0000000000000000e+00  3.0524070317796820e-05 2.0396797603019516e-06 0.0000000000000000e+00  3.4979255552022894e-05 2.3266173453945738e-06 0.0000000000000000e+00  3.8868160187585081e-05 2.5740008996254451e-06 0.0000000000000000e+00  4.1621908359071480e-05 2.7514904215528509e-06 0.0000000000000000e+00  4.2370740844866190e-05 2.8212784906656464e-06 0.0000000000000000e+00  3.9789865941311916e-05 2.7416717630754407e-06 0.0000000000000000e+00  3.1821129212095070e-05 2.4743959510693155e-06 0.0000000000000000e+00  1.5159660208448327e-05 1.9921713463632748e-06 0.0000000000000000e+00  -1.5531193850736120e-05 1.2554095100024958e-06 0.0000000000000000e+00  -6.7482888077388553e-05 -3.5766513206102213e-08 0.0000000000000000e+00  0.0000000000000000e+00 0.0000000000000000e+00 0.0000000000000000e+00  5.9562617506081421e-06 4.0383508503664678e-07 0.0000000000000000e+00  1.2016478920686491e-05 8.1423132501033676e-07 0.0000000000000000e+00  1.8278263441263447e-05 1.2372158232831759e-06 0.0000000000000000e+00  2.4814675128501389e-05 1.6769331344596497e-06 0.0000000000000000e+00  3.1657330174348879e-05 2.1343842597298337e-06 0.0000000000000000e+00  3.8773424948430234e-05 2.6057778602779198e-06 0.0000000000000000e+00  4.6034284633833532e-05 3.0804173239982635e-06 0.0000000000000000e+00  5.3172802891356622e-05 3.5381484753323175e-06 0.0000000000000000e+00  5.9726870050023425e-05 3.9465956623143502e-06 0.0000000000000000e+00  6.4965535654791084e-05 4.2587620454832722e-06 0.0000000000000000e+00  6.7794282640712574e-05 4.4120616355611885e-06 0.0000000000000000e+00  6.6636804021170392e-05 4.3303235857606468e-06 0.0000000000000000e+00  5.9301071570419940e-05 3.9302219231403238e-06 0.0000000000000000e+00  4.2890479771041733e-05 3.1319243133025983e-06 0.0000000000000000e+00  1.4026806032258932e-05 1.8716006554257268e-06 0.0000000000000000e+00  -2.9733740220900520e-05 1.3940651530631143e-07 0.0000000000000000e+00  0.0000000000000000e+00 0.0000000000000000e+00 0.0000000000000000e+00  7.7753851862696948e-06 5.2797591346477507e-07 0.0000000000000000e+00  1.5708106782919119e-05 1.0661269775435762e-06 0.0000000000000000e+00  2.3949364276136559e-05 1.6240748719818410e-06 0.0000000000000000e+00  3.2623827555079377e-05 2.2093320796076091e-06 0.0000000000000000e+00  4.1810614444783059e-05 2.8257860825158996e-06 0.0000000000000000e+00  5.1516600638656541e-05 3.4715831943838115e-06 0.0000000000000000e+00  6.1639085512058816e-05 4.1362087521182677e-06 0.0000000000000000e+00  7.1914811554068335e-05 4.7966232036163058e-06 0.0000000000000000e+00  8.1852889487000468e-05 5.4125026376563612e-06 0.0000000000000000e+00  9.0651012445098415e-05 5.9210533969173340e-06 0.0000000000000000e+00  9.7098871487176760e-05 6.2326444291271866e-06 0.0000000000000000e+00  9.9483162445010930e-05 6.2296669776451611e-06 0.0000000000000000e+00  9.5532942998020226e-05 5.7723052050466384e-06 0.0000000000000000e+00  8.2500562686791990e-05 4.7152394369652234e-06 0.0000000000000000e+00  5.7591803566976731e-05 2.9360283742455635e-06 0.0000000000000000e+00  1.9126150188515876e-05 3.5953183894693094e-07 0.0000000000000000e+00  0.0000000000000000e+00 0.0000000000000000e+00 0.0000000000000000e+00  9.4291583557262529e-06 6.4139410256097044e-07 0.0000000000000000e+00  1.9081170052333677e-05 1.2975403461071441e-06 0.0000000000000000e+00  2.9174686035883828e-05 1.9827636701351801e-06 0.0000000000000000e+00  3.9904705052989349e-05 2.7094391185885389e-06 0.0000000000000000e+00  5.1424133147902298e-05 3.4864292087274284e-06 0.0000000000000000e+00  6.3816298562710416e-05 4.3167013897975429e-06 0.0000000000000000e+00  7.7054615313624974e-05 5.1937379175790937e-06 0.0000000000000000e+00  9.0945359391846135e-05 6.0963035676377416e-06 0.0000000000000000e+00  1.0505011163719864e-04 6.9812018317724811e-06 0.0000000000000000e+00  1.1858689881975148e-04 7.7740175787949028e-06 0.0000000000000000e+00  1.3031527618788974e-04 8.3588622281839064e-06 0.0000000000000000e+00  1.3842349928667601e-04 8.5703227089294278e-06 0.0000000000000000e+00  1.4045970544340153e-04 8.1946443540700446e-06 0.0000000000000000e+00  1.3338757878030149e-04 6.9923678265321765e-06 0.0000000000000000e+00  1.1389532577465016e-04 4.7588376197582040e-06 0.0000000000000000e+00  7.9099892218414801e-05 1.4376666178504748e-06 0.0000000000000000e+00  0.0000000000000000e+00 0.0000000000000000e+00 0.0000000000000000e+00  1.0851493394320783e-05 7.3947064872912629e-07 0.0000000000000000e+00  2.2001868432666455e-05 1.4991299106469403e-06 0.0000000000000000e+00  3.3749642691226171e-05 2.2990439402236075e-06 0.0000000000000000e+00  4.6378146223721196e-05 3.1579809764223833e-06 0.0000000000000000e+00  6.0140932601073566e-05 4.0921148771816003e-06 0.0000000000000000e+00  7.5237196303244423e-05 5.1127563597920090e-06 0.0000000000000000e+00  9.1772282334943891e-05 6.2225156723488169e-06 0.0000000000000000e+00  1.0969733204799740e-04 7.4090539550964549e-06 0.0000000000000000e+00  1.2872162188246029e-04 8.6353312716797056e-06 0.0000000000000000e+00  1.4819240687769872e-04 9.8252244744475951e-06 0.0000000000000000e+00  1.6694218404486342e-04 1.0844140395495615e-05 0.0000000000000000e+00  1.8311526752488996e-04 1.1477010838374608e-05 0.0000000000000000e+00  1.9400698950386948e-04 1.1412824262495730e-05 0.0000000000000000e+00  1.9597675075434925e-04 1.0257410501932024e-05 0.0000000000000000e+00  1.8451074932320733e-04 7.6123431194786831e-06 0.0000000000000000e+00  1.5446202170875267e-04 3.2654237232595939e-06 0.0000000000000000e+00  0.0000000000000000e+00 0.0000000000000000e+00 0.0000000000000000e+00  1.1966555773988683e-05 8.1677918905324201e-07 0.0000000000000000e+00  2.4314180453139852e-05 1.6597043483862750e-06 0.0000000000000000e+00  3.7429338354000441e-05 2.5552903599917585e-06 0.0000000000000000e+00  5.1697683510379199e-05 3.5299500244945102e-06 0.0000000000000000e+00  6.7497104384209265e-05 4.6093674226335316e-06 0.0000000000000000e+00  8.5180773665785185e-05 5.8169229641658974e-06 0.0000000000000000e+00  1.0504416411377015e-04 7.1704253986122989e-06 0.0000000000000000e+00  1.2726754326199588e-04 8.6758989799334371e-06 0.0000000000000000e+00  1.5182271123274211e-04 1.0316396779395795e-05 0.0000000000000000e+00  1.7833074918360240e-04 1.2032816142897899e-05 0.0000000000000000e+00  2.0585876273922153e-04 1.3692988470937982e-05 0.0000000000000000e+00  2.3265253808522587e-04 1.5046673706970531e-05 0.0000000000000000e+00  2.5582408097170914e-04 1.5671880725751819e-05 0.0000000000000000e+00  2.7104629261798143e-04 1.4939549958724791e-05 0.0000000000000000e+00  2.7231904661319131e-04 1.2063341189586716e-05 0.0000000000000000e+00  2.5176999988673645e-04 6.3422181966854804e-06 0.0000000000000000e+00  0.0000000000000000e+00 0.0000000000000000e+00 0.0000000000000000e+00  1.2693225245979100e-05 8.6743334646025896e-07 0.0000000000000000e+00  2.5848671708747283e-05 1.7669016467137682e-06 0.0000000000000000e+00  3.9941407993483415e-05 2.7314514702963395e-06 0.0000000000000000e+00  5.5465588889355396e-05 3.7957068047412170e-06 0.0000000000000000e+00  7.2939172425474060e-05 4.9963390251987016e-06 0.0000000000000000e+00  9.2900348161845689e-05 6.3719013120398457e-06 0.0000000000000000e+00  1.1588907037580534e-04 7.9613302896835331e-06 0.0000000000000000e+00  1.4240289596714951e-04 9.7997102320360017e-06 0.0000000000000000e+00  1.7281030349725171e-04 1.1908539623144568e-05 0.0000000000000000e+00  2.0719715755074657e-04 1.4275305068246228e-05 0.0000000000000000e+00  2.4511529090546802e-04 1.6813333079523726e-05 0.0000000000000000e+00  2.8520310533831201e-04 1.9288605462595312e-05 0.0000000000000000e+00  3.2467062488722112e-04 2.1201249453436354e-05 0.0000000000000000e+00  3.5870063394852019e-04 2.1633103497327856e-05 0.0000000000000000e+00  3.7988353635710074e-04 1.9147402893163728e-05 0.0000000000000000e+00  3.7767858889801520e-04 1.1942179774807628e-05 0.0000000000000000e+00  0.0000000000000000e+00 0.0000000000000000e+00 0.0000000000000000e+00  1.2952276724434146e-05 8.8567626523988580e-07 0.0000000000000000e+00  2.6437119229524692e-05 1.8084054067293585e-06 0.0000000000000000e+00  4.1008489862996281e-05 2.8069543911457983e-06 0.0000000000000000e+00  5.7263343045006468e-05 3.9236125478612418e-06 0.0000000000000000e+00  7.5861690957700409e-05 5.2060757445719244e-06 0.0000000000000000e+00  9.7542574668740785e-05 6.7093418147695723e-06 0.0000000000000000e+00  1.2313016136299769e-04 8.4972985644024629e-06 0.0000000000000000e+00  1.5351850151511232e-04 1.0643055550007710e-05 0.0000000000000000e+00  1.8961384439451800e-04 1.3225541990520513e-05 0.0000000000000000e+00  2.3219834087104420e-04 1.6316333041093223e-05 0.0000000000000000e+00  2.8165852456626706e-04 1.9942886142632989e-05 0.0000000000000000e+00  3.3750266729102668e-04 2.3999203003552114e-05 0.0000000000000000e+00  3.9759773967082103e-04 2.8052223791861705e-05 0.0000000000000000e+00  4.5714949816199973e-04 3.0983850560915744e-05 0.0000000000000000e+00  5.0769203117024327e-04 3.0501300504178868e-05 0.0000000000000000e+00  5.3659301199456802e-04 2.2840317398366272e-05 0.0000000000000000e+00  0.0000000000000000e+00 0.0000000000000000e+00 0.0000000000000000e+00  1.2675960989937022e-05 8.6667042316629455e-07 0.0000000000000000e+00  2.5932487276820071e-05 1.7736315066143587e-06 0.0000000000000000e+00  4.0380115816472098e-05 2.7635078344615691e-06 0.0000000000000000e+00  5.6697322634885303e-05 3.8842781785364696e-06 0.0000000000000000e+00  7.5668193378576086e-05 5.1926084854293638e-06 0.0000000000000000e+00  9.8223083625464624e-05 6.7580638264252067e-06 0.0000000000000000e+00  1.2547960739432880e-04 8.6686015383761298e-06 0.0000000000000000e+00  1.5877537831607034e-04 1.1037670866946437e-05 0.0000000000000000e+00  1.9967196583247154e-04 1.4012575789399017e-05 0.0000000000000000e+00  2.4988683423382622e-04 1.7781067207319416e-05 0.0000000000000000e+00  3.1107048790734180e-04 2.2564340652875648e-05 0.0000000000000000e+00  3.8428660861469354e-04 2.8559225710675114e-05 0.0000000000000000e+00  4.6899360354319888e-04 3.5727946122167751e-05 0.0000000000000000e+00  5.6137767095501589e-04 4.3208166728249476e-05 0.0000000000000000e+00  6.5235465364945689e-04 4.8061832187739237e-05 0.0000000000000000e+00  7.2613611805154776e-04 4.3574107738307357e-05 0.0000000000000000e+00  0.0000000000000000e+00 0.0000000000000000e+00 0.0000000000000000e+00  1.1819144239214492e-05 8.0737842788483812e-07 0.0000000000000000e+00  2.4232703351101879e-05 1.6556625571386378e-06 0.0000000000000000e+00  3.7872098369547296e-05 2.5884694632727537e-06 0.0000000000000000e+00  5.3458192808060061e-05 3.6560274658275332e-06 0.0000000000000000e+00  7.1855999091330794e-05 4.9195725758495567e-06 0.0000000000000000e+00  9.4141820363124809e-05 6.4573952464227475e-06 0.0000000000000000e+00  1.2168606828651217e-04 8.3737439501578179e-06 0.0000000000000000e+00  1.5625140058443584e-04 1.0812653419178496e-05 0.0000000000000000e+00  2.0009557390682296e-04 1.3980187378259427e-05 0.0000000000000000e+00  2.5604318444219553e-04 1.8180280541280790e-05 0.0000000000000000e+00  3.2743418162282727e-04 2.3868533043883178e-05 0.0000000000000000e+00  4.1774267634069094e-04 3.1711878161469549e-05 0.0000000000000000e+00  5.2945808845352663e-04 4.2559784318020263e-05 0.0000000000000000e+00  6.6160134717798541e-04 5.6914969619052310e-05 0.0000000000000000e+00  8.0590785360247063e-04 7.2604014423603667e-05 0.0000000000000000e+00  9.4551353567045942e-04 8.1677427230335484e-05 0.0000000000000000e+00  0.0000000000000000e+00 0.0000000000000000e+00 0.0000000000000000e+00  1.0370542692665795e-05 7.0736458244368301e-07 0.0000000000000000e+00  2.1305287080495105e-05 1.4530528553577121e-06 0.0000000000000000e+00  3.3409042743756476e-05 2.2781159348864528e-06 0.0000000000000000e+00  4.7388618175793358e-05 3.2305142412353753e-06 0.0000000000000000e+00  6.4119787298263869e-05 4.3697921005042690e-06 0.0000000000000000e+00  8.4736505046299740e-05 5.7736585267748962e-06 0.0000000000000000e+00  1.1075362484514539e-04 7.5480301131720161e-06 0.0000000000000000e+00  1.4423645796890594e-04 9.8436306909807644e-06 0.0000000000000000e+00  1.8802899803653538e-04 1.2885771971931923e-05 0.0000000000000000e+00  2.4603813127722229e-04 1.7031949190414934e-05 0.0000000000000000e+00  3.2351916000557496e-04 2.2888930518113844e-05 0.0000000000000000e+00  4.2715904545495955e-04 3.1551195845046489e-05 0.0000000000000000e+00  5.6437279857369637e-04 4.5045299470611564e-05 0.0000000000000000e+00  7.4032919399013469e-04 6.6879403842368964e-05 0.0000000000000000e+00  9.4957976318387448e-04 1.0060276026444806e-04 0.0000000000000000e+00  1.1739188526506596e-03 1.2391273736044858e-04 0.0000000000000000e+00  0.0000000000000000e+00 0.0000000000000000e+00 0.0000000000000000e+00  8.3620020892028432e-06 5.6932411593755823e-07 0.0000000000000000e+00  1.7208449273732382e-05 1.1710507729729504e-06 0.0000000000000000e+00  2.7062776649357150e-05 1.8399426188803465e-06 0.0000000000000000e+00  3.8548754931453055e-05 2.6168846575511487e-06 0.0000000000000000e+00  5.2460097565829137e-05 3.5529112565498807e-06 0.0000000000000000e+00  6.9858948296978480e-05 4.7146585155965504e-06 0.0000000000000000e+00  9.2221987609276488e-05 6.1922192505442499e-06 0.0000000000000000e+00  1.2166291821674891e-04 8.1113456542133434e-06 0.0000000000000000e+00  1.6127436817343636e-04 1.0654763895069372e-05 0.0000000000000000e+00  2.1564759381418258e-04 1.4106124681015299e-05 0.0000000000000000e+00  2.9162685053643400e-04 1.8957495277059441e-05 0.0000000000000000e+00  3.9927002590132689e-04 2.6203911590670340e-05 0.0000000000000000e+00  5.5260265168722211e-04 3.8182764636980782e-05 0.0000000000000000e+00  7.6839983826585995e-04 6.0952632131145350e-05 0.0000000000000000e+00  1.0562560123043908e-03 1.1134485218607240e-04 0.0000000000000000e+00  1.3546143016978649e-03 2.5158455433828123e-04 0.0000000000000000e+00  0.0000000000000000e+00 0.0000000000000000e+00 0.0000000000000000e+00  5.8734558886602883e-06 3.9918934706078751e-07 0.0000000000000000e+00  1.2103325175676154e-05 8.2186824875114028e-07 0.0000000000000000e+00  1.9077150389930764e-05 1.2932228368066589e-06 0.0000000000000000e+00  2.7263792502731679e-05 1.8428953130404329e-06 0.0000000000000000e+00  3.7272260187439165e-05 2.5077087270608595e-06 0.0000000000000000e+00  4.9938741658393725e-05 3.3349061990410796e-06 0.0000000000000000e+00  6.6463038812445679e-05 4.3856417627491766e-06 0.0000000000000000e+00  8.8631258772680407e-05 5.7374741206991180e-06 0.0000000000000000e+00  1.1919042681855563e-04 7.4822213489878311e-06 0.0000000000000000e+00  1.6249257675361430e-04 9.7108520334789764e-06 0.0000000000000000e+00  2.2561388168902016e-04 1.2472614972333733e-05 0.0000000000000000e+00  3.2027970561399229e-04 1.5716083408519041e-05 0.0000000000000000e+00  4.6600190034203174e-04 1.9384707477299217e-05 0.0000000000000000e+00  6.9435793558409484e-04 2.4536398557479344e-05 0.0000000000000000e+00  1.0511493248177575e-03 3.8249235664105817e-05 0.0000000000000000e+00  1.5815727225636205e-03 8.7461572756894045e-05 0.0000000000000000e+00  0.0000000000000000e+00 0.0000000000000000e+00 0.0000000000000000e+00  3.0314342347498433e-06 2.0576872425233392e-07 0.0000000000000000e+00  6.2522439324656629e-06 4.2388496587841284e-07 0.0000000000000000e+00  9.8692332763588653e-06 6.6757221328963293e-07 0.0000000000000000e+00  1.4135109024297619e-05 9.5236348731457447e-07 0.0000000000000000e+00  1.9382633328271498e-05 1.2973871431968864e-06 0.0000000000000000e+00  2.6076659718769626e-05 1.7265698902903893e-06 0.0000000000000000e+00  3.4898723599872753e-05 2.2688656349211979e-06 0.0000000000000000e+00  4.6891464111199798e-05 2.9544492629890323e-06 0.0000000000000000e+00  6.3715506814598016e-05 3.7970772361588446e-06 0.0000000000000000e+00  8.8121945545559417e-05 4.7317406996275230e-06 0.0000000000000000e+00  1.2483711703983722e-04 5.4105337669180050e-06 0.0000000000000000e+00  1.8218096681724697e-04 4.5561150402494002e-06 0.0000000000000000e+00  2.7460319703810735e-04 -1.9928445706608868e-06 0.0000000000000000e+00  4.2408927821679612e-04 -2.6418043224086416e-05 0.0000000000000000e+00  6.4724758480362045e-04 -9.6596784801165537e-05 0.0000000000000000e+00  8.9828759466015239e-04 -2.3718659337162017e-04 0.0000000000000000e+00  0.0000000000000000e+00 0.0000000000000000e+00 0.0000000000000000e+00  0.0000000000000000e+00 0.0000000000000000e+00 0.0000000000000000e+00  0.0000000000000000e+00 0.0000000000000000e+00 0.0000000000000000e+00  0.0000000000000000e+00 0.0000000000000000e+00 0.0000000000000000e+00  0.0000000000000000e+00 0.0000000000000000e+00 0.0000000000000000e+00  0.0000000000000000e+00 0.0000000000000000e+00 0.0000000000000000e+00  0.0000000000000000e+00 0.0000000000000000e+00 0.0000000000000000e+00  0.0000000000000000e+00 0.0000000000000000e+00 0.0000000000000000e+00  0.0000000000000000e+00 0.0000000000000000e+00 0.0000000000000000e+00  0.0000000000000000e+00 0.0000000000000000e+00 0.0000000000000000e+00  0.0000000000000000e+00 0.0000000000000000e+00 0.0000000000000000e+00  0.0000000000000000e+00 0.0000000000000000e+00 0.0000000000000000e+00  0.