<?xml version="1.0"?>
<VTKFile type="UnstructuredGrid"  version="0.1"  >
<UnstructuredGrid>
<Piece  NumberOfPoints="289" NumberOfCells="512">
<Points>
<DataArray  type="Float64"  NumberOfComponents="3"  format="ascii">0 0 0  0.0625 0 0  0.125 0 0  0.1875 0 0  0.25 0 0  0.3125 0 0  0.375 0 0  0.4375 0 0  0.5 0 0  0.5625 0 0  0.625 0 0  0.6875 0 0  0.75 0 0  0.8125 0 0  0.875 0 0  0.9375 0 0  1 0 0  0 0.0625 0  0.06258089713416475 0.06249113038540784 0  0.1251644979399349 0.0624820623667447 0  0.1877535737654605 0.06247260584287598 0  0.2503509951450876 0.06246259150163253 0  0.3129597746979071 0.06245188528191299 0  0.3755831027036395 0.0624404074496779 0  0.4382243793747639 0.06242815690346153 0  0.500887262820284 0.06241523970576324 0  0.5635757926291132 0.0624018973919457 0  0.626294760345154 0.06238852335624379 0  0.6890508093473996 0.0623756392996282 0  0.7518556590111271 0.06236376096276702 0  0.8147356816611806 0.06235294592050659 0  0.8777614148313041 0.06234130329091963 0  0.9411435454193195 0.06231962234139123 0  1.005569326968102 0.06225026016227824 0  0 0.125 0  0.06265916235927385 0.1249824540610421 0  0.1253237012628382 0.1249645008673324 0  0.1879991339121067 0.1249457481293873 0  0.2506911908156115 0.1249258417027782 0  0.3134059094877768 0.1249044931333226 0  0.3761497116515874 0.124881517184135 0  0.4389294645803211 0.124856881530601 0  0.5017525427108974 0.1248307685209263 0  0.5646269463338445 0.1248036440493257 0  0.6275616324620569 0.1247763195222793 0  0.6905674347621586 0.1247499786137906 0  0.7536594003977958 0.1247261276967196 0  0.8168620659545338 0.1247064686496695 0  0.8802190637249044 0.1246930618347652 0  0.9437999085224471 0.124691210157271 0  1.007639120229607 0.1247275934821407 0  0 0.1875 0  0.06273211655667084 0.1874741810960844 0  0.1254721941941367 0.1874477277786389 0  0.188228413841937 0.1874200239690164 0  0.251009304580333 0.1873905020679095 0  0.313823899201899 0.187358680418888 0  0.3766818619752689 0.187324217094187 0  0.4395935769634138 0.1872869851815193 0  0.5025701863203219 0.1872471730410287 0  0.5656235736757947 0.1872054084802028 0  0.6287662966424888 0.1871628960280756 0  0.6920114598797509 0.1871215375096538 0  0.7553723643451018 0.1870839701339647 0  0.8188610152484702 0.1870533775170388 0  0.8824818174940551 0.1870326762896762 0  0.946208739571566 0.1870215208692979 0  1.009918500700349 0.1870035628548756 0  0 0.25 0  0.06279717586514644 0.2499665396143809 0  0.1256047413624143 0.249932195035006 0  0.1884333919010219 0.2498960987509621 0  0.2512943318967335 0.2498574311422229 0  0.3141995091741113 0.2498154622494013 0  0.3771618142798885 0.2497696166356944 0  0.4401952194820298 0.249719570912278 0  0.5033148153911426 0.2496653939018308 0  0.5665366705967778 0.2496077377312977 0  0.6298773694905953 0.2495480816806123 0  0.6933529186597871 0.2494890144232255 0  0.7569763144752086 0.2494345052330194 0  0.82075214065431 0.2493900440697661 0  0.8846646805621589 0.2493624029743284 0  0.9486533355773925 0.2493586594812571 0  1.01256977299922 0.249385022828458 0  0 0.3125 0  0.06285191695201814 0.3124597799546106 0  0.1257164161230129 0.3124184043996338 0  0.18860647739143 0.3123747262259139 0  0.2515357785335146 0.3123276308894763 0  0.3145190308744468 0.3122760739105631 0  0.3775722850082877 0.3122191472381615 0  0.440713176270193 0.3121561891667822 0  0.5039610522565083 0.3120869564991732 0  0.567336872058345 0.3120118815482982 0  0.630862663728903 0.3119324383006809 0  0.6945601248069413 0.311851637327795 0  0.7584475729420335 0.3117746501243154 0  0.8225338260014616 0.3117095200966853 0  0.8868068432398621 0.3116678479653438 0  0.951215084134959 0.3116652967572143 0  1.015643701012914 0.3117219106382732 0  0 0.375 0  0.06289415417349663 0.3749541734491416 0  0.1258027544104329 0.3749069067326042 0  0.1887407389339234 0.3748567520708219 0  0.2517239557672746 0.3748022613230093 0  0.3147696223793535 0.3747420077174445 0  0.3778967786376496 0.3746746390326026 0  0.4411267124175831 0.3745989813563149 0  0.5044833118378033 0.3745142210754374 0  0.5679932497578438 0.3744202043159574 0  0.6316858151174504 0.3743179070792782 0  0.6955920406618105 0.3742101428331148 0  0.7597425031848229 0.3741025791411006 0  0.8241628022747441 0.3740051135598293 0  0.8888654664881991 0.3739335811631033 0  0.9538375999603924 0.3739115874952451 0  1.019026315916762 0.3739718980075903 0  0 0.4375 0  0.06292203003246884 0.437450004140424 0  0.1258599383946631 0.437398286587616 0  0.1888301860701794 0.4373430942176843 0  0.2518503641670228 0.4372826223333901 0  0.314939792365953 0.4372150072110401 0  0.3781201516488864 0.4371383469788561 0  0.4414161556367449 0.437050771747434 0  0.5048562543718248 0.4369505967278723 0  0.56847334347026 0.4368366119143647 0  0.6323054102097985 0.4367085909080533 0  0.696395969039288 0.4365681399433285 0  0.7607939994126244 0.4364200495008502 0  0.8255528902940978 0.4362743296967579 0  0.8907276910767149 0.4361490426159988 0  0.9563700557463364 0.4360737715200603 0  1.022521221847194 0.4360929761257443 0  0 0.5 0  0.06293411687720286 0.499947552304846 0  0.1258850067879468 0.4998931293303864 0  0.1888701023596163 0.4998346942380767 0  0.2519081712695993 0.4997700919181198 0  0.3150200518749474 0.4996969992280258 0  0.3782294749217482 0.4996128926624655 0  0.4415640107859368 0.4995150513615432 0  0.5050561956232604 0.4994006285116347 0  0.5687449149092887 0.4992668503077478 0  0.6326771657400793 0.4991114451351324 0  0.6969103848847319 0.4989334741275681 0  0.7615156083532799 0.4987348308651489 0  0.8265817661620589 0.4985227805817132 0  0.8922212778456957 0.498313913933456 0  0.9585766430380851 0.4981394950808889 0  1.025827252672433 0.4980507554786429 0  0 0.5625 0  0.06292952317523669 0.5624470697430395 0  0.1258760783090281 0.5623919701447317 0  0.1888574093946078 0.5623324372561329 0  0.2518927554619548 0.5622660138939944 0  0.3150036997839397 0.5621899480681984 0  0.3782151561203643 0.5621010895425197 0  0.4415565669539611 0.5619957929685235 0  0.5050634293327473 0.5618698494357752 0  0.568779343202748 0.5617184947124635 0  0.6327589300500918 0.5615365933570587 0  0.6970722531897267 0.5613191929925108 0  0.7618118523710879 0.5610628112622805 0  0.8271041864187217 0.560768080693246 0  0.8931278728874066 0.5604446551255524 0  0.9601407272808962 0.5601190665976638 0  1.02851527011752 0.5598438053767205 0  0 0.625 0  0.06290799314627105 0.6249487484239626 0  0.1258325644415239 0.6248952277490115 0  0.1887910219014073 0.6248370435207351 0  0.2518022541210198 0.6247715364844536 0  0.314887647156542 0.624695627235397 0  0.3780721759289078 0.6246056331859732 0  0.4413857693808921 0.6244970502748672 0  0.5048651072863523 0.6243642976823547 0  0.5685561272829721 0.6242004401316222 0  0.6325177753421907 0.6239969432193797 0  0.696828071206432 0.6237436142569327 0  0.7615946615063341 0.6234291037110909 0  0.8269740995513329 0.6230428284446264 0  0.8932072754941472 0.6225801097511451 0  0.9606811355859082 0.6220533885222453 0  1.030023538825345 0.6215098512687579 0  0 0.6875 0  0.06286998543617778 0.6874526860373245 0  0.1257553404898946 0.687403130013346 0  0.1886721407356348 0.6873489424482997 0  0.2516380300920264 0.6872874156264999 0  0.3146731425995233 0.6872153234447401 0  0.3778012139653085 0.6871286661975297 0  0.4410509866593164 0.6870223327151878 0  0.504458069176853 0.6868896448539447 0  0.5680675310377615 0.6867217431278589 0  0.631937794448742 0.6865067763372442 0  0.6961470657060129 0.6862289012063783 0  0.7608052462427025 0.6858672710677637 0  0.8260783802065643 0.6853957813814143 0  0.8922418136442769 0.6847862053943253 0  0.9597938353625424 0.6840225561818518 0  1.029669171185433 0.6831424084872745 0  0 0.75 0  0.06281671597702577 0.7499588538878077 0  0.1256468426172808 0.7499156430431022 0  0.1885044280130689 0.7498681482022427 0  0.2514049658549825 0.749813811446046 0  0.3143662516731963 0.749749512561763 0  0.3774094205192349 0.7496712688882377 0  0.4405602549100935 0.7495738126172279 0  0.5038508845980214 0.7494499766850963 0  0.5673220638931639 0.7492897844090383 0  0.6310263713106968 0.7490790832464299 0  0.6950331536018252 0.74879748652186 0  0.7594376033040059 0.7484153143234833 0  0.8243815902046773 0.7478893545871272 0  0.8901107875539386 0.7471587454488243 0  0.9571416248616244 0.7461513125256973 0  1.026689222746691 0.7448574964190279 0  0 0.8125 0  0.06275015267401514 0.8124670737506752 0  0.1255110640491389 0.8124324183121605 0  0.1882940185957214 0.8123941622605231 0  0.2511115124903298 0.812350119122248 0  0.3139779754967109 0.8122975719029676 0  0.3769106477294524 0.8122329735193198 0  0.4399306758506691 0.812151507415373 0  0.5030644937232901 0.8120464188071983 0  0.56634552893418 0.8119079676584067 0  0.6298161976773921 0.8117217482018955 0  0.6935299967428405 0.8114659212965726 0  0.7575534949355295 0.8111065114546836 0  0.8219699696827827 0.8105890914661719 0  0.8869007315369792 0.809823551781356 0  0.9526424933210283 0.8086582492984035 0  1.020485328008992 0.8068856517644137 0  0 0.875 0  0.06267295472463362 0.8749770101714827 0  0.1253534349201399 0.8749527725762389 0  0.1880493422309323 0.8749259299556181 0  0.2507694555692372 0.874894880759351 0  0.3135239574845606 0.8748576079535031 0  0.3763250767140892 0.8748114352540214 0  0.4391878900938835 0.8747526597983608 0  0.5021313107121708 0.8746759760539132 0  0.5651792138503809 0.8745735434214732 0  0.6283613989575413 0.8744334338356567 0  0.6917133206344984 0.8742369684215028 0  0.7552713346087353 0.87395395923143 0  0.819054329558036 0.8735335753167603 0  0.883009140414832 0.8728841463600806 0  0.9468853093372427 0.8718163137046986 0  1.010198725619159 0.8698185081990838 0  0 0.9375 0  0.06258835613321363 0.9374881828227103 0  0.1251805846308408 0.9374757114806016 0  0.1877807548782725 0.9374618721945549 0  0.2503933992725388 0.9374458176059755 0  0.3130237938255215 0.9374264717720227 0  0.3756783045971805 0.9374023929030747 0  0.4383648257565952 0.9373715630773939 0  0.
[...]
<PointData  Vectors="f_54"> 
<DataArray  type="Float64"  Name="f_54"  NumberOfComponents="3" format="ascii">0.0000000000000000e+00 0.0000000000000000e+00 0.0000000000000000e+00  0.0000000000000000e+00 0.0000000000000000e+00 0.0000000000000000e+00  0.0000000000000000e+00 0.0000000000000000e+00 0.0000000000000000e+00  0.0000000000000000e+00 0.0000000000000000e+00 0.0000000000000000e+00  0.0000000000000000e+00 0.0000000000000000e+00 0.0000000000000000e+00  0.0000000000000000e+00 0.0000000000000000e+00 0.0000000000000000e+00  0.0000000000000000e+00 0.0000000000000000e+00 0.0000000000000000e+00  0.0000000000000000e+00 0.0000000000000000e+00 0.0000000000000000e+00  0.0000000000000000e+00 0.0000000000000000e+00 0.0000000000000000e+00  0.0000000000000000e+00 0.0000000000000000e+00 0.0000000000000000e+00  0.0000000000000000e+00 0.0000000000000000e+00 0.0000000000000000e+00  0.0000000000000000e+00 0.0000000000000000e+00 0.0000000000000000e+00  0.0000000000000000e+00 0.0000000000000000e+00 0.0000000000000000e+00  0.0000000000000000e+00 0.0000000000000000e+00 0.0000000000000000e+00  0.0000000000000000e+00 0.0000000000000000e+00 0.0000000000000000e+00  0.0000000000000000e+00 0.0000000000000000e+00 0.0000000000000000e+00  0.0000000000000000e+00 0.0000000000000000e+00 0.0000000000000000e+00  0.0000000000000000e+00 0.0000000000000000e+00 0.0000000000000000e+00  -1.8273795446489274e-06 -4.9859825174339727e-08 0.0000000000000000e+00  -3.6872105293427777e-06 -9.9249003511226671e-08 0.0000000000000000e+00  -5.6087998705950145e-06 -1.4749126287890797e-07 0.0000000000000000e+00  -7.6133699214853603e-06 -1.9347374757370983e-07 0.0000000000000000e+00  -9.7081822951685819e-06 -2.3545161077362245e-07 0.0000000000000000e+00  -1.1878159147811808e-05 -2.7091683639989204e-07 0.0000000000000000e+00  -1.4073607576166321e-05 -2.9662572061199032e-07 0.0000000000000000e+00  -1.6191863176299583e-05 -3.0896797738260194e-07 0.0000000000000000e+00  -1.8048943213724868e-05 -3.0501409909903361e-07 0.0000000000000000e+00  -1.9333146808370358e-05 -2.8486115577028094e-07 0.0000000000000000e+00  -1.9521636970662303e-05 -2.5650430460638898e-07 0.0000000000000000e+00  -1.7710100449231091e-05 -2.4607308116734823e-07 0.0000000000000000e+00  -1.2210961151413638e-05 -3.2150008003799661e-07 0.0000000000000000e+00  5.3704188442993349e-07 -6.5713607015965343e-07 0.0000000000000000e+00  2.9339373109630551e-05 -1.7468810581190236e-06 0.0000000000000000e+00  1.0032820988264262e-04 -5.2574850396439565e-06 0.0000000000000000e+00  0.0000000000000000e+00 0.0000000000000000e+00 0.0000000000000000e+00  -3.6265384287808627e-06 -1.0030197133732150e-07 0.0000000000000000e+00  -7.3221098441584912e-06 -1.9988311341630063e-07 0.0000000000000000e+00  -1.1150102958063075e-05 -2.9760338576256805e-07 0.0000000000000000e+00  -1.5159172307653738e-05 -3.9142098490527786e-07 0.0000000000000000e+00  -1.9372380216338615e-05 -4.7795262710916245e-07 0.0000000000000000e+00  -2.3771613222177176e-05 -5.5211089151287696e-07 0.0000000000000000e+00  -2.8274789259794318e-05 -6.0697270512433137e-07 0.0000000000000000e+00  -3.2702267326316004e-05 -6.3418776354633273e-07 0.0000000000000000e+00  -3.6726789586916446e-05 -6.2548835576891384e-07 0.0000000000000000e+00  -3.9797062565112608e-05 -5.7625264047432080e-07 0.0000000000000000e+00  -4.1016094878197761e-05 -4.9262556072709872e-07 0.0000000000000000e+00  -3.8936350419865699e-05 -4.0428551338556723e-07 0.0000000000000000e+00  -3.1197225265817813e-05 -3.8450850302437323e-07 0.0000000000000000e+00  -1.3885738728354570e-05 -5.7155848587633174e-07 0.0000000000000000e+00  1.9388393906615216e-05 -1.1367299461875914e-06 0.0000000000000000e+00  7.7288874090227847e-05 -1.8693204523203888e-06 0.0000000000000000e+00  0.0000000000000000e+00 0.0000000000000000e+00 0.0000000000000000e+00  -5.3602920592521035e-06 -1.5155453111716578e-07 0.0000000000000000e+00  -1.0833377042516381e-05 -3.0258757044582418e-07 0.0000000000000000e+00  -1.6525149773374768e-05 -4.5194426478782060e-07 0.0000000000000000e+00  -2.2522932909803684e-05 -5.9708112122586026e-07 0.0000000000000000e+00  -2.8881404304081909e-05 -7.3331083689380807e-07 0.0000000000000000e+00  -3.5602091340419687e-05 -8.5304503098427780e-07 0.0000000000000000e+00  -4.2603261668956250e-05 -9.4518497981000861e-07 0.0000000000000000e+00  -4.9676072374295552e-05 -9.9500231452182008e-07 0.0000000000000000e+00  -5.6421518697427384e-05 -9.8517171416703892e-07 0.0000000000000000e+00  -6.2161053399369267e-05 -8.9910647645815354e-07 0.0000000000000000e+00  -6.5812233645166704e-05 -7.2839585889205084e-07 0.0000000000000000e+00  -6.5722267688555315e-05 -4.8676686422403674e-07 0.0000000000000000e+00  -5.9469014216513244e-05 -2.3301400880826833e-07 0.0000000000000000e+00  -4.3714382063794320e-05 -1.0397538799596121e-07 0.0000000000000000e+00  -1.4461025994234820e-05 -3.6039257170752982e-07 0.0000000000000000e+00  3.1203852826577654e-05 -1.5086353180552264e-06 0.0000000000000000e+00  0.0000000000000000e+00 0.0000000000000000e+00 0.0000000000000000e+00  -6.9843643197857851e-06 -2.0339408556147426e-07 0.0000000000000000e+00  -1.4134179713095309e-05 -4.0714505636351478e-07 0.0000000000000000e+00  -2.1608460001698052e-05 -6.1079003343760601e-07 0.0000000000000000e+00  -2.9547714707782811e-05 -8.1202546629925924e-07 0.0000000000000000e+00  -3.8059083263873534e-05 -1.0055845509591706e-06 0.0000000000000000e+00  -4.7193905892168042e-05 -1.1819215808637796e-06 0.0000000000000000e+00  -5.6914098620953978e-05 -1.3257634378186140e-06 0.0000000000000000e+00  -6.7042903484959928e-05 -1.4147764302571787e-06 0.0000000000000000e+00  -7.7195021301166840e-05 -1.4189503915076540e-06 0.0000000000000000e+00  -8.6681641471952954e-05 -1.3019147991412929e-06 0.0000000000000000e+00  -9.4389541172494655e-05 -1.0263626336751483e-06 0.0000000000000000e+00  -9.8645264973892303e-05 -5.6706071501445551e-07 0.0000000000000000e+00  -9.7106939155316004e-05 6.3736460001413351e-08 0.0000000000000000e+00  -8.6800322765376135e-05 7.7328762944692909e-07 0.0000000000000000e+00  -6.4559131901908371e-05 1.3261585767367166e-06 0.0000000000000000e+00  -2.8283987466205548e-05 1.2826152018056145e-06 0.0000000000000000e+00  0.0000000000000000e+00 0.0000000000000000e+00 0.0000000000000000e+00  -8.4457871751418724e-06 -2.5492118059995900e-07 0.0000000000000000e+00  -1.7118449982881022e-05 -5.1195711552069371e-07 0.0000000000000000e+00  -2.6240891659109611e-05 -7.7229577990918731e-07 0.0000000000000000e+00  -3.6022212465363901e-05 -1.0349815754227184e-06 0.0000000000000000e+00  -4.6644928708840641e-05 -1.2954459928884847e-06 0.0000000000000000e+00  -5.8244117111642947e-05 -1.5435539026520921e-06 0.0000000000000000e+00  -7.0874422456228243e-05 -1.7610355835524992e-06 0.0000000000000000e+00  -8.4459896805820359e-05 -1.9182885871856282e-06 0.0000000000000000e+00  -9.8721011062132580e-05 -1.9708310018558772e-06 0.0000000000000000e+00  -1.1307393766079213e-04 -1.8563502667093038e-06 0.0000000000000000e+00  -1.2650155977866060e-04 -1.4946135269557555e-06 0.0000000000000000e+00  -1.3740779889350691e-04 -7.9488772863162396e-07 0.0000000000000000e+00  -1.4349331582261238e-04 3.2068517213830677e-07 0.0000000000000000e+00  -1.4173725899402587e-04 1.8643535471989126e-06 0.0000000000000000e+00  -1.2862494230936298e-04 3.6834087072721416e-06 0.0000000000000000e+00  -1.0074580576498734e-04 5.3003396859407247e-06 0.0000000000000000e+00  0.0000000000000000e+00 0.0000000000000000e+00 0.0000000000000000e+00  -9.6831522023861707e-06 -3.0436689204787480e-07 0.0000000000000000e+00  -1.9661045402285888e-05 -6.1360370484581346e-07 0.0000000000000000e+00  -3.0228989416660465e-05 -9.3169417376119648e-07 0.0000000000000000e+00  -4.1678111647952801e-05 -1.2604848047600861e-06 0.0000000000000000e+00  -5.4287830692508694e-05 -1.5980162090662941e-06 0.0000000000000000e+00  -6.8310543186518553e-05 -1.9360349768533810e-06 0.0000000000000000e+00  -8.3944075209593105e-05 -2.2562748907001029e-06 0.0000000000000000e+00  -1.0128584573103307e-04 -2.5250307137397955e-06 0.0000000000000000e+00  -1.2026095977110560e-04 -2.6856040799863600e-06 0.0000000000000000e+00  -1.4051534867262345e-04 -2.6486241754972876e-06 0.0000000000000000e+00  -1.6126630673710566e-04 -2.2815597138438030e-06 0.0000000000000000e+00  -1.8110944641491403e-04 -1.4019406308948497e-06 0.0000000000000000e+00  -1.9779734043161363e-04 2.1449688799657064e-07 0.0000000000000000e+00  -2.0803223096706752e-04 2.7875080729525610e-06 0.0000000000000000e+00  -2.0733891175562084e-04 6.4071352988423979e-06 0.0000000000000000e+00  -1.9005039915959103e-04 1.0771411266615457e-05 0.0000000000000000e+00  0.0000000000000000e+00 0.0000000000000000e+00 0.0000000000000000e+00  -1.0629025717632218e-05 -3.4898288500725619e-07 0.0000000000000000e+00  -2.1622465849222310e-05 -7.0655274585539797e-07 0.0000000000000000e+00  -3.3351727994183605e-05 -1.0806656481179783e-06 0.0000000000000000e+00  -4.6198295484066306e-05 -1.4776243721556134e-06 0.0000000000000000e+00  -6.0554699705174006e-05 -1.9005202846026628e-06 0.0000000000000000e+00  -7.6819153770580563e-05 -2.3465882152768525e-06 0.0000000000000000e+00  -9.5379342555613550e-05 -2.8027483267717940e-06 0.0000000000000000e+00  -1.1657833688538938e-04 -3.2382501111551578e-06 0.0000000000000000e+00  -1.4065198673768586e-04 -3.5928881795756054e-06 0.0000000000000000e+00  -1.6762250482533380e-04 -3.7589012394407359e-06 0.0000000000000000e+00  -1.9712806979080419e-04 -3.5549632187676783e-06 0.0000000000000000e+00  -2.2816551880836604e-04 -2.6931101940926294e-06 0.0000000000000000e+00  -2.5872727305758847e-04 -7.4727869138728688e-07 0.0000000000000000e+00  -2.8533020829337537e-04 2.8487949989508826e-06 0.0000000000000000e+00  -3.0246044894441604e-04 8.7090550075389824e-06 0.0000000000000000e+00  -3.0195810473661392e-04 1.7185607897147465e-05 0.0000000000000000e+00  0.0000000000000000e+00 0.0000000000000000e+00 0.0000000000000000e+00  -1.1214609190647446e-05 -3.8508332411694173e-07 0.0000000000000000e+00  -2.2858352847291668e-05 -7.8317477946870342e-07 0.0000000000000000e+00  -3.5375145659201646e-05 -1.2071597531328985e-06 0.0000000000000000e+00  -4.9236841391012636e-05 -1.6693446465397148e-06 0.0000000000000000e+00  -6.4955633474314472e-05 -2.1804708490390420e-06 0.0000000000000000e+00  -8.3093154972740409e-05 -2.7475971011918510e-06 0.0000000000000000e+00  -1.0426255298132533e-04 -3.3699009969331215e-06 0.0000000000000000e+00  -1.2911650573687520e-04 -4.0307508527991777e-06 0.0000000000000000e+00  -1.5830852828740426e-04 -4.6832423064974703e-06 0.0000000000000000e+00  -1.9240584820273923e-04 -5.2246250359553170e-06 0.0000000000000000e+00  -2.3171867772815843e-04 -5.4527443966557551e-06 0.0000000000000000e+00  -2.7599353505262773e-04 -4.9958481419918177e-06 0.0000000000000000e+00  -3.2390302783639037e-04 -3.2098314665602333e-06 0.0000000000000000e+00  -3.7226676765145738e-04 9.4497193346797013e-07 0.0000000000000000e+00  -4.1498152507290429e-04 8.9799934018200614e-06 0.0000000000000000e+00  -4.4171665732364092e-04 2.2721251611290141e-05 0.0000000000000000e+00  0.0000000000000000e+00 0.0000000000000000e+00 0.0000000000000000e+00  -1.1376441679150362e-05 -4.0830490736675101e-07 0.0000000000000000e+00  -2.3233441095362841e-05 -8.3422389174304361e-07 0.0000000000000000e+00  -3.6074589465095015e-05 -1.2959872321078076e-06 0.0000000000000000e+00  -5.0450929446678150e-05 -1.8128896116529639e-06 0.0000000000000000e+00  -6.6986765592169805e-05 -2.4054041505734492e-06 0.0000000000000000e+00  -8.6407049692202394e-05 -3.0944938538885696e-06 0.0000000000000000e+00  -1.0956478251911570e-04 -3.8992149285809551e-06 0.0000000000000000e+00  -1.3746357874161273e-04 -4.8307904214949945e-06 0.0000000000000000e+00  -1.7126389262249150e-04 -5.8795494167027823e-06 0.0000000000000000e+00  -2.1224862777438150e-04 -6.9877298544212974e-06 0.0000000000000000e+00  -2.6170079638867269e-04 -7.9949196581098554e-06 0.0000000000000000e+00  -3.2060805777158814e-04 -8.5324052271724494e-06 0.0000000000000000e+00  -3.8905709629660204e-04 -7.8281680460335944e-06 0.0000000000000000e+00  -4.6513764507267303e-04 -4.3755474604118957e-06 0.0000000000000000e+00  -5.4321688885885957e-04 4.5438285393833687e-06 0.0000000000000000e+00  -6.1168902095068683e-04 2.3314309203380799e-05 0.0000000000000000e+00  0.0000000000000000e+00 0.0000000000000000e+00 0.0000000000000000e+00  -1.1064589115416571e-05 -4.1412158238356111e-07 0.0000000000000000e+00  -2.2638909663246302e-05 -8.4989037829544482e-07 0.0000000000000000e+00  -3.5263187815371861e-05 -1.3304345390598198e-06 0.0000000000000000e+00  -4.9543352190797857e-05 -1.8819398820484121e-06 0.0000000000000000e+00  -6.6190453744161901e-05 -2.5352901715481757e-06 0.0000000000000000e+00  -8.6068109535985727e-05 -3.3276654749369305e-06 0.0000000000000000e+00  -1.1025026066856084e-04 -4.3036500637920849e-06 0.0000000000000000e+00  -1.4008975389004477e-04 -5.5146275395074309e-06 0.0000000000000000e+00  -1.7729309241197415e-04 -7.0134539500477200e-06 0.0000000000000000e+00  -2.2398384882185441e-04 -8.8373066198751049e-06 0.0000000000000000e+00  -2.8270812793794995e-04 -1.0962299733093691e-05 0.0000000000000000e+00  -3.5627487923599522e-04 -1.3192636989202154e-05 0.0000000000000000e+00  -4.4721112112987565e-04 -1.4902538650509656e-05 0.0000000000000000e+00  -5.5644441318154889e-04 -1.4465288192473684e-05 0.0000000000000000e+00  -6.8071801279562878e-04 -8.1022820970159277e-06 0.0000000000000000e+00  -8.0863340245462573e-04 1.1995161073258172e-05 0.0000000000000000e+00  0.0000000000000000e+00 0.0000000000000000e+00 0.0000000000000000e+00  -1.0251364114653719e-05 -3.9858987333117843e-07 0.0000000000000000e+00  -2.1011203501790020e-05 -8.2140004918900349e-07 0.0000000000000000e+00  -3.2823670111682975e-05 -1.2949369787675126e-06 0.0000000000000000e+00  -4.6312009612735839e-05 -1.8506834570893005e-06 0.0000000000000000e+00  -6.2229185854997492e-05 -2.5283752051137988e-06 0.0000000000000000e+00  -8.1523493969470930e-05 -3.3803000056749929e-06 0.0000000000000000e+00  -1.0542663419494021e-04 -4.4770275903692386e-06 0.0000000000000000e+00  -1.3557333955243708e-04 -5.9148442365835283e-06 0.0000000000000000e+00  -1.7416187707493383e-04 -7.8244789457658257e-06 0.0000000000000000e+00  -2.2415935361011616e-04 -1.0378323828455183e-05 0.0000000000000000e+00  -2.8953348866211497e-04 -1.3785933260051090e-05 0.0000000000000000e+00  -3.7542537688847375e-04 -1.8245271631814480e-05 0.0000000000000000e+00  -4.8800238249666598e-04 -2.3750649803152114e-05 0.0000000000000000e+00  -6.3333163246250283e-04 -2.9463804889841737e-05 0.0000000000000000e+00  -8.1395489411024069e-04 -3.1842919147672353e-05 0.0000000000000000e+00  -1.0219108931797843e-03 -1.9949504903883671e-05 0.0000000000000000e+00  0.0000000000000000e+00 0.0000000000000000e+00 0.0000000000000000e+00  -8.9392389698479656e-06 -3.5921830125269702e-07 0.0000000000000000e+00  -1.8349500075757025e-05 -7.4294430016639845e-07 0.0000000000000000e+00  -2.8738949716067983e-05 -1.1784911198303920e-06 0.0000000000000000e+00  -4.0699756362687513e-05 -1.6994474635129097e-06 0.0000000000000000e+00  -5.4964481463712334e-05 -2.3502152635571782e-06 0.0000000000000000e+00  -7.2483061741249880e-05 -3.1925993163707779e-06 0.0000000000000000e+00  -9.4533060407407969e-05 -4.3158407284197402e-06 0.0000000000000000e+00  -1.2288222428811913e-04 -5.8523171911171930e-06 0.0000000000000000e+00  -1.6003176547945422e-04 -8.0024782367850160e-06 0.0000000000000000e+00  -2.0958058452839057e-04 -1.1074570800569645e-05 0.0000000000000000e+00  -2.7675852167063550e-04 -1.5546822080741652e-05 0.0000000000000000e+00  -3.6915347784748179e-04 -2.2157750807993642e-05 0.0000000000000000e+00  -4.9750654622579484e-04 -3.2000998259292359e-05 0.0000000000000000e+00  -6.7585820649101265e-04 -4.6424981075455726e-05 0.0000000000000000e+00  -9.1842332654819823e-04 -6.5595851482403599e-05 0.0000000000000000e+00  -1.2280969659316076e-03 -8.0097011404320890e-05 0.0000000000000000e+00  0.0000000000000000e+00 0.0000000000000000e+00 0.0000000000000000e+00  -7.1663776637138045e-06 -2.9577489010168520e-07 0.0000000000000000e+00  -1.4728358934948209e-05 -6.1352849011933947e-07 0.0000000000000000e+00  -2.3115461168448195e-05 -9.7808268259452805e-07 0.0000000000000000e+00  -3.2834989797064708e-05 -1.4207243658298094e-06 0.0000000000000000e+00  -4.4526137256630276e-05 -1.9841350698654240e-06 0.0000000000000000e+00  -5.9036673268273660e-05 -2.7299284299006031e-06 0.0000000000000000e+00  -7.7537979156041783e-05 -3.7508316746892676e-06 0.0000000000000000e+00  -1.0170468338880475e-04 -5.1911462671307653e-06 0.0000000000000000e+00  -1.3400407674689219e-04 -7.2822599798892426e-06 0.0000000000000000e+00  -1.7817435249102789e-04 -1.0406391167652851e-05 0.0000000000000000e+00  -2.4002958145044837e-04 -1.5215610227061792e-05 0.0000000000000000e+00  -3.2882173907097383e-04 -2.2865339262706685e-05 0.0000000000000000e+00  -4.5948537199919071e-04 -3.5500913080831114e-05 0.0000000000000000e+00  -6.5591018728122254e-04 -5.7329943023175878e-05 0.0000000000000000e+00  -9.5310698018571678e-04 -9.6909415836071892e-05 0.0000000000000000e+00  -1.3750713275290957e-03 -1.6817900092815891e-04 0.0000000000000000e+00  0.0000000000000000e+00 0.0000000000000000e+00 0.0000000000000000e+00  -5.0082714397202180e-06 -2.1080607186295487e-07 0.0000000000000000e+00  -1.0302084097589714e-05 -4.3821136399262396e-07 0.0000000000000000e+00  -1.6192833208616953e-05 -7.0112912851453063e-07 0.0000000000000000e+00  -2.3051784456583750e-05 -1.0237858890529514e-06 0.0000000000000000e+00  -3.1352726722148280e-05 -1.4398958500729515e-06 0.0000000000000000e+00  -4.1733997844664239e-05 -1.9992170308184231e-06 0.0000000000000000e+00  -5.5094481930963965e-05 -2.7784487065735305e-06 0.0000000000000000e+00  -7.2749479651241987e-05 -3.9000745656321654e-06 0.0000000000000000e+00  -9.6694744024936096e-05 -5.5660507133878295e-06 0.0000000000000000e+00  -1.3007280247094130e-04 -8.1200874922892706e-06 0.0000000000000000e+00  -1.7803294209501220e-04 -1.2167426666743241e-05 0.0000000000000000e+00  -2.4938993732009007e-04 -1.8818308201043803e-05 0.0000000000000000e+00  -3.5997150910824048e-04 -3.0230821660795745e-05 0.0000000000000000e+00  -5.3969841924769398e-04 -5.1037907233020906e-05 0.0000000000000000e+00  -8.4871891515091852e-04 -9.3205714512585342e-05 0.0000000000000000e+00  -1.4250296369516463e-03 -1.9898108533868535e-04 0.0000000000000000e+00  0.0000000000000000e+00 0.0000000000000000e+00 0.0000000000000000e+00  -2.5744341718525271e-06 -1.0967047408868296e-07 0.0000000000000000e+00  -5.2982740748837166e-06 -2.2826081449663185e-07 0.0000000000000000e+00  -8.3348371176493965e-06 -3.6598281109861860e-07 0.0000000000000000e+00  -1.1879830545933471e-05 -5.3602899991742476e-07 0.0000000000000000e+00  -1.6184719242966549e-05 -7.5694638167545998e-07 0.0000000000000000e+00  -2.1591164961478380e-05 -1.0564051121771585e-06 0.0000000000000000e+00  -2.8585217873484033e-05 -1.4775206101053203e-06 0.0000000000000000e+00  -3.7887159877420573e-05 -2.0898431097069005e-06 0.0000000000000000e+00  -5.0607854691812901e-05 -3.0089336614688257e-06 0.0000000000000000e+00  -6.8534884122933412e-05 -4.4316871486880320e-06 0.0000000000000000e+00  -9.4685615945222377e-05 -6.6994158851533923e-06 0.0000000000000000e+00  -1.3443989243270782e-04 -1.0402396825405362e-05 0.0000000000000000e+00  -1.9798547217307047e-04 -1.6502203724756844e-05 0.0000000000000000e+00  -3.0569264383587013e-04 -2.6165710855015914e-05 0.0000000000000000e+00  -4.9836603690448802e-04 -3.8463028616683731e-05 0.0000000000000000e+00  -8.3864520277493601e-04 -3.8459971613074114e-05 0.0000000000000000e+00  0.0000000000000000e+00 0.0000000000000000e+00 0.0000000000000000e+00  0.0000000000000000e+00 0.0000000000000000e+00 0.0000000000000000e+00  0.0000000000000000e+00 0.0000000000000000e+00 0.0000000000000000e+00  0.0000000000000000e+00 0.0000000000000000e+00 0.0000000000000000e+00  0.0000000000000000e+00 0.0000000000000000e+00 0.0000000000000000e+00  0.0000000000000000e+00 0.0000000000000000e+00 0.0