<?xml version="1.0"?>
<VTKFile type="UnstructuredGrid"  version="0.1"  >
<UnstructuredGrid>
<Piece  NumberOfPoints="289" NumberOfCells="512">
<Points>
<DataArray  type="Float64"  NumberOfComponents="3"  format="ascii">0 0 0  0.0625 0 0  0.125 0 0  0.1875 0 0  0.25 0 0  0.3125 0 0  0.375 0 0  0.4375 0 0  0.5 0 0  0.5625 0 0  0.625 0 0  0.6875 0 0  0.75 0 0  0.8125 0 0  0.875 0 0  0.9375 0 0  1 0 0  0 0.0625 0  0.06253760790820076 0.06246383524494217 0  0.1250767209752067 0.06242700445852292 0  0.1876188976268353 0.06238888034252206 0  0.250165851062765 0.06234896239080295 0  0.3127195500170905 0.06230695955226129 0  0.375282357967629 0.06226289472102279 0  0.4378572442367014 0.06221723255572115 0  0.5004481321202651 0.0621710231300758 0  0.5630605188049184 0.06212603682056263 0  0.6257026633400621 0.06208483570425965 0  0.6883880376486131 0.06205067706082288 0  0.7511407798614712 0.06202706751081647 0  0.8140087452116821 0.06201667408758169 0  0.8770966478971628 0.06201916588788649 0  0.9406525021742198 0.06202782697409126 0  1.005280447597657 0.06203298215559981 0  0 0.125 0  0.06257368766497666 0.1249282892504426 0  0.1251503358218968 0.1248551798239499 0  0.1877330162419715 0.1247793438413263 0  0.2503251139853348 0.1246996913646587 0  0.3129305313056388 0.1246155307403006 0  0.3755539668713589 0.1245267780178705 0  0.4382013305414851 0.1244342237489781 0  0.50088040361054 0.1243398510325369 0  0.5636019535354287 0.124247169377792 0  0.6263817119305155 0.1241614753079977 0  0.6892440241081488 0.124089862842312 0  0.7522287313269502 0.1240406887612839 0  0.8154040021684521 0.1240221232491428 0  0.8788883395934937 0.1240397463917611 0  0.9428789236144477 0.124095200165775 0  1.007654986051916 0.1241939243365538 0  0 0.1875 0  0.06260683879208546 0.1873941164843777 0  0.1252179658492879 0.1872859831839586 0  0.1878378369749962 0.1871734391931489 0  0.2504713621373917 0.1870546387604042 0  0.3131241974082531 0.1869282758123799 0  0.3758031361645168 0.1867938925176681 0  0.438516669463501 0.1866522961750777 0  0.501275830132997 0.1865060961003117 0  0.5640955094062289 0.1863603408452768 0  0.6269965486299045 0.1862231692216874 0  0.6900090458961828 0.1861062575782029 0  0.7531773422289147 0.18602459600581 0  0.8165665181213827 0.1859946159258329 0  0.8802673416992985 0.1860284060592762 0  0.9443884922721364 0.1861175592634972 0  1.009013135256357 0.1861847452393943 0  0 0.25 0  0.06263579342135779 0.2498621870803256 0  0.1252770056755052 0.2497211204337367 0  0.1879292722418768 0.2495736311189049 0  0.2505987899528638 0.2494168873011918 0  0.313292671892537 0.2492486564372253 0  0.3760194114312569 0.2490676920259718 0  0.4387895219730935 0.2488742956448626 0  0.5016164469693669 0.2486711049179991 0  0.5645178647912673 0.2484641424272776 0  0.6275175200578074 0.2482641085991681 0  0.6906476186639209 0.2480877733157804 0  0.7539514226628153 0.24795904065997 0  0.817484529166732 0.2479086877034413 0  0.8813107663912099 0.2479706869202435 0  0.9454848850293175 0.2481714092268296 0  1.010014147333209 0.2485086912540409 0  0 0.3125 0  0.062659466100244 0.3123335181709667 0  0.125325230411781 0.3121626191438433 0  0.1880038460220145 0.3119829360717906 0  0.2507024918814252 0.3117903834407402 0  0.3134293629225231 0.3115814131109297 0  0.376194170955803 0.3113534328878315 0  0.4390088182757274 0.3111054719886648 0  0.5018883228026471 0.3108392020267662 0  0.5648520775060818 0.3105604442600532 0  0.6279254808613008 0.3102812955105648 0  0.6911417965695487 0.3100229429803159 0  0.7545436387240499 0.3098190210248793 0  0.818182554123376 0.3097188276779125 0  0.8821139098124178 0.3097886616025282 0  0.9463842583702707 0.3101080018097024 0  1.011014865122278 0.3107563086699612 0  0 0.375 0  0.06267698931161543 0.3748092773761521 0  0.1253608710530533 0.3746128456647771 0  0.1880588172592278 0.3744049752472903 0  0.2507786442003996 0.3741800657512661 0  0.3135292103237264 0.373932833672163 0  0.376320923882804 0.3736586840260978 0  0.4391664256805152 0.3733543823920906 0  0.5020815354307626 0.373019200999229 0  0.5650865668437259 0.3726567929460499 0  0.628208097173539 0.3722781470166777 0  0.6914811587169472 0.3719060588709751 0  0.7549515030832008 0.3715815199175664 0  0.8186770065607272 0.3713720349892351 0  0.8827266968744947 0.3713807400713928 0  0.9471766176395983 0.3717530339792136 0  1.012107115777481 0.3726750257880139 0  0 0.4375 0  0.06268773586987432 0.4372907489822694 0  0.1253826605497752 0.4370744451444017 0  0.1880922515948926 0.4368439066549397 0  0.2508246031851277 0.4365918255162616 0  0.3135888038387442 0.4363108109066846 0  0.3763954192667764 0.4359936047197753 0  0.4392571581545375 0.4356336020040106 0  0.502189847715476 0.4352258993045801 0  0.5652139192019404 0.4347692424245666 0  0.6283566970147453 0.4342694767694077 0  0.6916558681649236 0.4337454290115991 0  0.7551645001758507 0.4332385018742858 0  0.8189577431616863 0.4328273452268239 0  0.8831408663774079 0.4326480210987109 0  0.9478582384308616 0.432917099245581 0  1.013306215338891 0.4339509984861829 0  0 0.5 0  0.06269133114705121 0.4997792560579357 0  0.1253898569937407 0.4995501875222921 0  0.18810305335791 0.4993042014895752 0  0.2508389429449799 0.4990322331896603 0  0.3136064227308208 0.4987245685845231 0  0.37641568020548 0.4983707798516057 0  0.4392787872875935 0.4979598911559269 0  0.5022106473263338 0.4974810004623048 0  0.5652306353665035 0.4969247846541613 0  0.6283655634288703 0.4962866830902188 0  0.6916550640767649 0.4955731996858729 0  0.7551610820660993 0.4948137908255132 0  0.8189836200198337 0.4940820709277839 0  0.8832845310955537 0.4935304123927447 0  0.9483195277138431 0.4934381613872547 0  1.014479218540927 0.4942622818459904 0  0 0.5625 0  0.06268765804274777 0.5622760376697463 0  0.1253822499411947 0.5620427142886257 0  0.1880909674015984 0.5617902468991971 0  0.2508214470842955 0.5615079837944311 0  0.3135820181659342 0.5611839498872848 0  0.3763819993577507 0.5608043945889026 0  0.4392321250603641 0.5603534012726985 0  0.5021452950793851 0.5598127111906929 0  0.5651381001212357 0.5591621157641631 0  0.6282341175802297 0.5583812017846581 0  0.6914710177321096 0.5574541512623861 0  0.7549152778706031 0.5563811961601036 0  0.8186905540275963 0.5552038985596307 0  0.883026877037082 0.5540563372722946 0  0.948334395871366 0.5532541498688598 0  1.015297477678346 0.5534130579542091 0  0 0.625 0  0.06267685639825145 0.6247820894609702 0  0.1253601531205013 0.6245542003189238 0  0.1880565542183505 0.6243057897475701 0  0.250773052945057 0.624025062979783 0  0.3135171197331458 0.6236982288160631 0  0.376296832208696 0.6233086103509408 0  0.4391210190626049 0.6228355710014646 0  0.5019995512335906 0.6222532521611744 0  0.5649441986374582 0.6215292310716857 0  0.6279711983875047 0.6206235243779059 0  0.6911083909111231 0.6194892336942558 0  0.7544134019811933 0.6180785107864586 0  0.8180157552958143 0.6163638875867089 0  0.8822029156680218 0.6144001330437944 0  0.9475672519765118 0.6124715242012343 0  1.015213347663982 0.6113301142314174 0  0 0.6875 0  0.06265931724850463 0.6872979867638537 0  0.1253243845474797 0.6870859698101174 0  0.1880011387321813 0.6868532807860392 0  0.2506957414847765 0.6865877110501039 0  0.3134146305502949 0.6862745274621931 0  0.3761644700847896 0.6858951928382309 0  0.4389519432579975 0.6854256343373915 0  0.5017833504301148 0.6848338495306346 0  0.5646641343814429 0.6840765807512206 0  0.6275990674936601 0.6830947738948883 0  0.6905957845494519 0.681807784911775 0  0.7536798492805605 0.6801076982312318 0  0.8169433105836447 0.6778613433545611 0  0.8806755579614935 0.6749535485583853 0  0.9456321233702378 0.6715009573806154 0  1.013461231533302 0.6684064236865103 0  0 0.75 0  0.06263567175962309 0.7498237193808802 0  0.1252762354360957 0.7496381291902847 0  0.1879267378820903 0.749433225375848 0  0.2505923811525273 0.7491973490210923 0  0.313278509828482 0.7489160794888716 0  0.3759904322602063 0.7485707235428417 0  0.4387329199564874 0.7481361486935285 0  0.5015091110837335 0.7475775703537531 0  0.5643183913933002 0.7468456647401457 0  0.627152799039115 0.7458689615680311 0  0.6899923619353243 0.7445417211537078 0  0.7528044655407502 0.7427042475457156 0  0.8155710895661556 0.7401115426485898 0  0.8784334432555382 0.7363943203235209 0  0.9422320728419444 0.7311106880402902 0  1.008971390688525 0.7249664696126655 0  0 0.8125 0  0.06260677497116164 0.8123585726384256 0  0.1252174317756876 0.8122092944249658 0  0.1878359827451984 0.8120436792366963 0  0.2504665675280908 0.8118516990740422 0  0.3131134295437444 0.8116207216030327 0  0.3757807173425762 0.8113340163578998 0  0.438471905093329 0.8109685429879805 0  0.5011883894647191 0.810491558946081 0  0.5639263179817094 0.8098552699424832 0  0.6266696892256106 0.8089881533938952 0  0.6893759680789028 0.8077803383298531 0  0.7519485371805803 0.8060574078162573 0  0.8141952342346506 0.8035288595855812 0  0.8758247419258434 0.7996758848693895 0  0.9368749011381651 0.7935031279126658 0  1.002118011560799 0.783159049241111 0  0 0.875 0  0.06257368466955902 0.874901087137518 0  0.1251500936299363 0.8747964873898619 0  0.1877320573720916 0.874680028566468 0  0.2503225271714916 0.874544346480611 0  0.3129245827477987 0.8743800480308995 0  0.3755413224265151 0.8741745135462829 0  0.4381754718173991 0.8739100924105443 0  0.5008283117835182 0.8735612942373085 0  0.5634969331853589 0.8730903231437344 0  0.6261672996036154 0.8724398799820684 0  0.6887966402595304 0.8715214112039117 0  0.7512685918373042 0.8701951896907872 0  0.813280380856923 0.8682314652523638 0  0.8740732556142086 0.8652058781027638 0  0.9318653642869859 0.8601131673030019 0  0.9829748332079238 0.8498589869626059 0  0 0.9375 0  0.06253763472314176 0.9374491185111693 0  0.1250766928762617 0.9373952521191317 0  0.1876186650557641 0.9373351537531186 0  0.2501651341015927 0.9372649279657652 0  0.312717809142593 0.9371795709177954 0  0.3752785242205662 0.937072305543561 0  0.4378491385883717 0.9369335700
[...]
<PointData  Vectors="f_54"> 
<DataArray  type="Float64"  Name="f_54"  NumberOfComponents="3" format="ascii">0.0000000000000000e+00 0.0000000000000000e+00 0.0000000000000000e+00  0.0000000000000000e+00 0.0000000000000000e+00 0.0000000000000000e+00  0.0000000000000000e+00 0.0000000000000000e+00 0.0000000000000000e+00  0.0000000000000000e+00 0.0000000000000000e+00 0.0000000000000000e+00  0.0000000000000000e+00 0.0000000000000000e+00 0.0000000000000000e+00  0.0000000000000000e+00 0.0000000000000000e+00 0.0000000000000000e+00  0.0000000000000000e+00 0.0000000000000000e+00 0.0000000000000000e+00  0.0000000000000000e+00 0.0000000000000000e+00 0.0000000000000000e+00  0.0000000000000000e+00 0.0000000000000000e+00 0.0000000000000000e+00  0.0000000000000000e+00 0.0000000000000000e+00 0.0000000000000000e+00  0.0000000000000000e+00 0.0000000000000000e+00 0.0000000000000000e+00  0.0000000000000000e+00 0.0000000000000000e+00 0.0000000000000000e+00  0.0000000000000000e+00 0.0000000000000000e+00 0.0000000000000000e+00  0.0000000000000000e+00 0.0000000000000000e+00 0.0000000000000000e+00  0.0000000000000000e+00 0.0000000000000000e+00 0.0000000000000000e+00  0.0000000000000000e+00 0.0000000000000000e+00 0.0000000000000000e+00  0.0000000000000000e+00 0.0000000000000000e+00 0.0000000000000000e+00  0.0000000000000000e+00 0.0000000000000000e+00 0.0000000000000000e+00  4.4731043863522243e-06 1.7339128289512164e-07 0.0000000000000000e+00  9.0636390694077694e-06 3.4705502983032396e-07 0.0000000000000000e+00  1.3892004976982253e-05 5.2079614300036829e-07 0.0000000000000000e+00  1.9074049051264550e-05 6.9304167117016187e-07 0.0000000000000000e+00  2.4717208023420386e-05 8.6004242472446143e-07 0.0000000000000000e+00  3.0914364769440933e-05 1.0149714558056589e-06 0.0000000000000000e+00  3.7734527016077237e-05 1.1469522534177150e-06 0.0000000000000000e+00  4.5209428338927994e-05 1.2401150678041668e-06 0.0000000000000000e+00  5.3315364591782465e-05 1.2728401193322608e-06 0.0000000000000000e+00  6.1950467233893680e-05 1.2172966490811932e-06 0.0000000000000000e+00  7.0910617211174406e-05 1.0388715471603202e-06 0.0000000000000000e+00  7.9877310854489496e-05 6.9293318400188841e-07 0.0000000000000000e+00  8.8466431914744153e-05 1.0856239990672011e-07 0.0000000000000000e+00  9.6520134472485018e-05 -8.7972127725323619e-07 0.0000000000000000e+00  1.0535901411533666e-04 -2.8032013735873753e-06 0.0000000000000000e+00  1.2311287726251408e-04 -7.6774879658102108e-06 0.0000000000000000e+00  0.0000000000000000e+00 0.0000000000000000e+00 0.0000000000000000e+00  8.8291040134182919e-06 3.4651256869078125e-07 0.0000000000000000e+00  1.7895929705290845e-05 6.9424393146261241e-07 0.0000000000000000e+00  2.7444397996960001e-05 1.0435153573474175e-06 0.0000000000000000e+00  3.7710906862491226e-05 1.3919702964211073e-06 0.0000000000000000e+00  4.8917489993074909e-05 1.7329811982096902e-06 0.0000000000000000e+00  6.1260455113816133e-05 2.0537972511738823e-06 0.0000000000000000e+00  7.4892636430482425e-05 2.3334760389360399e-06 0.0000000000000000e+00  8.9897191844713452e-05 2.5407964117733048e-06 0.0000000000000000e+00  1.0625080382685108e-04 2.6325729602731336e-06 0.0000000000000000e+00  1.2377437848661488e-04 2.5530421218865142e-06 0.0000000000000000e+00  1.4207008135557042e-04 2.2351133602443048e-06 0.0000000000000000e+00  1.6044452805935789e-04 1.6040013553773561e-06 0.0000000000000000e+00  1.7781500680058270e-04 5.8329636927303043e-07 0.0000000000000000e+00  1.9256089553384764e-04 -8.9185500940747086e-07 0.0000000000000000e+00  2.0205420667573690e-04 -2.8031827462399577e-06 0.0000000000000000e+00  2.0025037728732401e-04 -4.5566359028685812e-06 0.0000000000000000e+00  0.0000000000000000e+00 0.0000000000000000e+00 0.0000000000000000e+00  1.2943018426918528e-05 5.1820919594028034e-07 0.0000000000000000e+00  2.6248326186317594e-05 1.0398779136106619e-06 0.0000000000000000e+00  4.0288068110888116e-05 1.5672270032126288e-06 0.0000000000000000e+00  5.5426895133359004e-05 2.0986950503128647e-06 0.0000000000000000e+00  7.2013838558185783e-05 2.6265879129338671e-06 0.0000000000000000e+00  9.0367635990801416e-05 3.1342135574003725e-06 0.0000000000000000e+00  1.1075261885266094e-04 3.5924887096938076e-06 0.0000000000000000e+00  1.3334171716621751e-04 3.9562393999068375e-06 0.0000000000000000e+00  1.5816250137344094e-04 4.1608463061325811e-06 0.0000000000000000e+00  1.8502130149913821e-04 4.1205982649936667e-06 0.0000000000000000e+00  2.1339852368952591e-04 3.7312047564064033e-06 0.0000000000000000e+00  2.4230253219525389e-04 2.8804865617692076e-06 0.0000000000000000e+00  2.7005137736377959e-04 1.4735801626584972e-06 0.0000000000000000e+00  2.9389824732140902e-04 -5.1743742534226223e-07 0.0000000000000000e+00  3.0927933440205068e-04 -2.9686491038658754e-06 0.0000000000000000e+00  3.0823300669510794e-04 -5.5319866333881264e-06 0.0000000000000000e+00  0.0000000000000000e+00 0.0000000000000000e+00 0.0000000000000000e+00  1.6686614528582426e-05 6.8604509033232783e-07 0.0000000000000000e+00  3.3864291193373633e-05 1.3795981993896854e-06 0.0000000000000000e+00  5.2038156368993206e-05 2.0867439701372904e-06 0.0000000000000000e+00  7.1710114245196395e-05 2.8090457943673480e-06 0.0000000000000000e+00  9.3371927520161124e-05 3.5405553448142844e-06 0.0000000000000000e+00  1.1749016319918096e-04 4.2639244092068512e-06 0.0000000000000000e+00  1.4447914468719214e-04 4.9454254416404208e-06 0.0000000000000000e+00  1.7465707486389597e-04 5.5289276417620183e-06 0.0000000000000000e+00  2.0817930939000137e-04 5.9294230401194622e-06 0.0000000000000000e+00  2.4494120865386647e-04 6.0278057932424364e-06 0.0000000000000000e+00  2.8444039975778434e-04 5.6706531057713567e-06 0.0000000000000000e+00  3.2558268976662927e-04 4.6822133103342020e-06 0.0000000000000000e+00  3.6640329495427450e-04 2.9010907415321008e-06 0.0000000000000000e+00  4.0365181278426989e-04 2.6097527834795396e-07 0.0000000000000000e+00  4.3217189065111267e-04 -3.0596186509618538e-06 0.0000000000000000e+00  4.4411316924810755e-04 -6.3956173426751605e-06 0.0000000000000000e+00  0.0000000000000000e+00 0.0000000000000000e+00 0.0000000000000000e+00  1.9929006465102371e-05 8.4581179317502085e-07 0.0000000000000000e+00  4.0479886228466870e-05 1.7053090360455913e-06 0.0000000000000000e+00  6.2293392150118227e-05 2.5908091125598221e-06 0.0000000000000000e+00  8.6016492517580875e-05 3.5099621786707392e-06 0.0000000000000000e+00  1.1229981696593403e-04 4.4623852822217045e-06 0.0000000000000000e+00  1.4178612573744362e-04 5.4349144709238678e-06 0.0000000000000000e+00  1.7508514856375915e-04 6.3949411608719804e-06 0.0000000000000000e+00  2.1272867632666191e-04 7.2813869354636548e-06 0.0000000000000000e+00  2.5509806485291009e-04 7.9932869480570509e-06 0.0000000000000000e+00  3.0231444635016959e-04 8.3771107659082453e-06 0.0000000000000000e+00  3.5408000109109222e-04 8.2165943444585896e-06 0.0000000000000000e+00  4.0945641776934569e-04 7.2341359252615025e-06 0.0000000000000000e+00  4.6656384251949501e-04 5.1220342775346124e-06 0.0000000000000000e+00  5.2218239968519916e-04 1.6352923980339698e-06 0.0000000000000000e+00  5.7125410821004671e-04 -3.2086783661927766e-06 0.0000000000000000e+00  6.0636258197999040e-04 -8.7790537545698347e-06 0.0000000000000000e+00  0.0000000000000000e+00 0.0000000000000000e+00 0.0000000000000000e+00  2.2539263210424660e-05 9.9123761081873674e-07 0.0000000000000000e+00  4.5828543081093099e-05 2.0044888479078261e-06 0.0000000000000000e+00  7.0642115344451308e-05 3.0607815313980894e-06 0.0000000000000000e+00  9.7775480654217225e-05 4.1771807513803514e-06 0.0000000000000000e+00  1.2805077333736113e-04 5.3635278828205281e-06 0.0000000000000000e+00  1.6231345592123547e-04 6.6173260445750932e-06 0.0000000000000000e+00  2.0141516106122835e-04 7.9157672375844707e-06 0.0000000000000000e+00  2.4617547146059789e-04 9.2036177454729186e-06 0.0000000000000000e+00  2.9731295748564436e-04 1.0375546975941626e-05 0.0000000000000000e+00  3.5533338721311091e-04 1.1251969037697462e-05 0.0000000000000000e+00  4.2036171406995579e-04 1.1549649391254360e-05 0.0000000000000000e+00  4.9190600357297695e-04 1.0854371416031362e-05 0.0000000000000000e+00  5.6854813801100973e-04 8.6163475898766322e-06 0.0000000000000000e+00  6.4756931820362075e-04 4.2134203206894494e-06 0.0000000000000000e+00  7.2453536722146602e-04 -2.8383341105396179e-06 0.0000000000000000e+00  7.9287211504369031e-04 -1.2412730063680997e-05 0.0000000000000000e+00  0.0000000000000000e+00 0.0000000000000000e+00 0.0000000000000000e+00  2.4391381498455115e-05 1.1139995698958384e-06 0.0000000000000000e+00  4.9650830447635707e-05 2.2601007797896030e-06 0.0000000000000000e+00  7.6676450339840339e-05 3.4701908228625250e-06 0.0000000000000000e+00  1.0640781217906415e-04 4.7739631452875990e-06 0.0000000000000000e+00  1.3984300206839443e-04 6.1964847214626856e-06 0.0000000000000000e+00  1.7804872797460750e-04 7.7536633299014712e-06 0.0000000000000000e+00  2.2215838569633321e-04 9.4441461576120139e-06 0.0000000000000000e+00  2.7335015827224091e-04 1.1235350688591180e-05 0.0000000000000000e+00  3.3279355771581912e-04 1.3040170034477103e-05 0.0000000000000000e+00  4.0154895029471027e-04 1.4679616946464949e-05 0.0000000000000000e+00  4.8040254381431384e-04 1.5826242507047830e-05 0.0000000000000000e+00  5.6962354378342671e-04 1.5926459356694639e-05 0.0000000000000000e+00  6.6864801826583599e-04 1.4113464309134426e-05 0.0000000000000000e+00  7.7573106089395708e-04 9.1569114831680308e-06 0.0000000000000000e+00  8.8765245329915142e-04 -4.4215395681138263e-07 0.0000000000000000e+00  9.9955923831430049e-04 -1.6028047369546700e-05 0.0000000000000000e+00  0.0000000000000000e+00 0.0000000000000000e+00 0.0000000000000000e+00  2.5371704055496058e-05 1.2041426799718807e-06 0.0000000000000000e+00  5.1709490701299908e-05 2.4513469329203311e-06 0.0000000000000000e+00  8.0015326203587402e-05 3.7856169729154033e-06 0.0000000000000000e+00  1.1135679993547914e-04 5.2516517438048905e-06 0.0000000000000000e+00  1.4689903730280644e-04 6.8941387793680256e-06 0.0000000000000000e+00  1.8793336022023509e-04 8.7551940099858551e-06 0.0000000000000000e+00  2.3589850602406961e-04 1.0868279224622550e-05 0.0000000000000000e+00  2.9238662057063270e-04 1.3245550462903193e-05 0.0000000000000000e+00  3.5912089334406137e-04 1.5853156809533903e-05 0.0000000000000000e+00  4.3788486027926274e-04 1.8564951452538169e-05 0.0000000000000000e+00  5.3037745169298668e-04 2.1079077920672647e-05 0.0000000000000000e+00  6.3797054703099599e-04 2.2775472538184740e-05 0.0000000000000000e+00  7.6137503554382039e-04 2.2493225483312482e-05 0.0000000000000000e+00  9.0030489875588340e-04 1.8235798978431271e-05 0.0000000000000000e+00  1.0533723725003341e-03 6.8944869381301496e-06 0.0000000000000000e+00  1.2185530326671279e-03 -1.5839178829868796e-05 0.0000000000000000e+00  0.0000000000000000e+00 0.0000000000000000e+00 0.0000000000000000e+00  2.5388493378869218e-05 1.2509784712685646e-06 0.0000000000000000e+00  5.1809282736194603e-05 2.5554611122200815e-06 0.0000000000000000e+00  8.0335934436118404e-05 3.9693283179971894e-06 0.0000000000000000e+00  1.1213321238928393e-04 5.5529332340707458e-06 0.0000000000000000e+00  1.4850590057280635e-04 7.3729903536719288e-06 0.0000000000000000e+00  1.9095023138172601e-04 9.5035535221597179e-06 0.0000000000000000e+00  2.4120599720075093e-04 1.2024783229795714e-05 0.0000000000000000e+00  3.0130346885188028e-04 1.5016647186984198e-05 0.0000000000000000e+00  3.7359219794425047e-04 1.8541448072690084e-05 0.0000000000000000e+00  4.6072748272496907e-04 2.2602368894978693e-05 0.0000000000000000e+00  5.6557547443008725e-04 2.7051851198384312e-05 0.0000000000000000e+00  6.9098816892957510e-04 3.1399012504913712e-05 0.0000000000000000e+00  8.3942656103549963e-04 3.4428589761455529e-05 0.0000000000000000e+00  1.0125562318601426e-03 3.3520066428930401e-05 0.0000000000000000e+00  1.2113335284793887e-03 2.3631210133783523e-05 0.0000000000000000e+00  1.4377776153412423e-03 -3.9288442216089436e-06 0.0000000000000000e+00  0.0000000000000000e+00 0.0000000000000000e+00 0.0000000000000000e+00  2.4382921601170170e-05 1.2444546718504663e-06 0.0000000000000000e+00  4.9820235016799588e-05 2.5505745290582429e-06 0.0000000000000000e+00  7.7411754868744506e-05 3.9838784237615210e-06 0.0000000000000000e+00  1.0837177179185838e-04 5.6184370113170901e-06 0.0000000000000000e+00  1.4409471492499479e-04 7.5418645027174885e-06 0.0000000000000000e+00  1.8623127450431790e-04 9.8610135999748290e-06 0.0000000000000000e+00  2.3677714620490436e-04 1.2708171841331689e-05 0.0000000000000000e+00  2.9817344174243039e-04 1.6246589570018595e-05 0.0000000000000000e+00  3.7341041545425267e-04 2.0671603477273923e-05 0.0000000000000000e+00  4.6611071263708183e-04 2.6196920004397224e-05 0.0000000000000000e+00  5.8054023535337941e-04 3.2998326487511802e-05 0.0000000000000000e+00  7.2145439224020154e-04 4.1043505552195369e-05 0.0000000000000000e+00  8.9366594045083405e-04 4.9634186740090777e-05 0.0000000000000000e+00  1.1013648673487853e-03 5.6294415624316600e-05 0.0000000000000000e+00  1.3479267859843158e-03 5.4525801912369892e-05 0.0000000000000000e+00  1.6380747871762352e-03 3.0342750507818583e-05 0.0000000000000000e+00  0.0000000000000000e+00 0.0000000000000000e+00 0.0000000000000000e+00  2.2340244943324798e-05 1.1768627151255837e-06 0.0000000000000000e+00  4.5701841981822041e-05 2.4194114549296228e-06 0.0000000000000000e+00  7.1153483863861211e-05 3.7983798852255396e-06 0.0000000000000000e+00  9.9894639967953810e-05 5.3965399067523326e-06 0.0000000000000000e+00  1.3333487284708910e-04 7.3165962379278943e-06 0.0000000000000000e+00  1.7319248074898922e-04 9.6916781581529865e-06 0.0000000000000000e+00  2.2162057117513162e-04 1.2699834581768757e-05 0.0000000000000000e+00  2.8136852187282723e-04 1.6584377193241453e-05 0.0000000000000000e+00  3.5598270486585088e-04 2.1682116406825541e-05 0.0000000000000000e+00  4.5003584632183661e-04 2.8460034767141398e-05 0.0000000000000000e+00  5.6933620644655921e-04 3.7551954320701768e-05 0.0000000000000000e+00  7.2098400145183077e-04 4.9748679831688006e-05 0.0000000000000000e+00  9.1299915702153581e-04 6.5750894109300458e-05 0.0000000000000000e+00  1.1531758756928379e-03 8.4996986848177351e-05 0.0000000000000000e+00  1.4480248557885123e-03 1.0169741415589301e-04 0.0000000000000000e+00  1.8071178677302783e-03 1.0001728594604409e-04 0.0000000000000000e+00  0.0000000000000000e+00 0.0000000000000000e+00 0.0000000000000000e+00  1.9299473450008398e-05 1.0446071785348078e-06 0.0000000000000000e+00  3.9524663859352293e-05 2.1532311496284233e-06 0.0000000000000000e+00  6.1647215456087041e-05 3.3955082087221172e-06 0.0000000000000000e+00  8.6773941064539653e-05 4.8550285622726677e-06 0.0000000000000000e+00  1.1623275850560520e-04 6.6390464752063563e-06 0.0000000000000000e+00  1.5168573480649501e-04 8.8922652160198024e-06 0.0000000000000000e+00  1.9528414244339049e-04 1.1817528000556482e-05 0.0000000000000000e+00  2.4988571727877618e-04 1.5708240682573365e-05 0.0000000000000000e+00  3.1935930859860345e-04 2.1001242958188410e-05 0.0000000000000000e+00  4.0900064315977372e-04 2.8366530577105799e-05 0.0000000000000000e+00  5.2605598853012385e-04 3.8864602425880508e-05 0.0000000000000000e+00  6.8024695802186173e-04 5.4221857756541550e-05 0.0000000000000000e+00  8.8388632427773733e-04 7.7252620420009840e-05 0.0000000000000000e+00  1.1504152489905444e-03 1.1203149137571941e-04 0.0000000000000000e+00  1.4890634506018947e-03 1.5991449923442858e-04 0.0000000000000000e+00  1.9194391114906110e-03 1.8213899705072080e-04 0.0000000000000000e+00  0.0000000000000000e+00 0.0000000000000000e+00 0.0000000000000000e+00  1.5359548657958902e-05 8.4965375700408848e-07 0.0000000000000000e+00  3.1484976123865824e-05 1.7551507585440485e-06 0.0000000000000000e+00  4.9182442668427872e-05 2.7776688229987356e-06 0.0000000000000000e+00  6.9381827366488545e-05 3.9919602111855517e-06 0.0000000000000000e+00  9.3218518696365428e-05 5.4960768016961414e-06 0.0000000000000000e+00  1.2214597344940476e-04 7.4255619465322132e-06 0.0000000000000000e+00  1.5809907563478311e-04 9.9753483458146945e-06 0.0000000000000000e+00  2.0373995422522592e-04 1.3435080584958065e-05 0.0000000000000000e+00  2.6283645197581313e-04 1.8248869901489315e-05 0.0000000000000000e+00  3.4084982904671735e-04 2.5123038433754565e-05 0.0000000000000000e+00  4.4583433088058811e-04 3.5238490970791241e-05 0.0000000000000000e+00  5.8973056648635534e-04 5.0717791745652664e-05 0.0000000000000000e+00  7.8988663754049767e-04 7.5763853873438169e-05 0.0000000000000000e+00  1.0695044669222851e-03 1.1960982180401057e-04 0.0000000000000000e+00  1.4502194409785547e-03 2.0421137987006372e-04 0.0000000000000000e+00  1.8662229887030409e-03 3.8719212199160103e-04 0.0000000000000000e+00  0.0000000000000000e+00 0.0000000000000000e+00 0.0000000000000000e+00  1.0680071474511659e-05 6.0025997442367240e-07 0.0000000000000000e+00  2.1907957834399349e-05 1.2419170973724059e-06 0.0000000000000000e+00  3.4261586518523612e-05 1.9705247310646786e-06 0.0000000000000000e+00  4.8413943461301372e-05 2.8423667598570388e-06 0.0000000000000000e+00  6.5197809075388954e-05 3.9322160866834153e-06 0.0000000000000000e+00  8.5697910651191732e-05 5.3446837442024317e-06 0.0000000000000000e+00  1.1139047554880510e-04 7.2315439765362646e-06 0.0000000000000000e+00  1.4436491842380065e-04 9.8187424502266340e-06 0.0000000000000000e+00  1.8769033162428022e-04 1.3448860960801700e-05 0.0000000000000000e+00  2.4604246500859156e-04 1.8648402263413153e-05 0.0000000000000000e+00  3.2680553551594187e-04 2.6238923363618518e-05 0.0000000000000000e+00  4.4203441821185789e-04 3.7554261460872829e-05 0.0000000000000000e+00  6.1191313187540530e-04 5.5050702019910462e-05 0.0000000000000000e+00  8.7061618138477021e-04 8.4683315458280336e-05 0.0000000000000000e+00  1.2760078813924731e-03 1.4580186372723726e-04 0.0000000000000000e+00  1.9269315343279805e-03 3.0335512472665457e-04 0.0000000000000000e+00  0.0000000000000000e+00 0.0000000000000000e+00 0.0000000000000000e+00  5.4751466431882448e-06 3.1071005316099051e-07 0.0000000000000000e+00  1.1235865474041489e-05 6.4344845307954916e-07 0.0000000000000000e+00  1.7583836857441032e-05 1.0225090747916610e-06 0.0000000000000000e+00  2.4872405045478018e-05 1.4780793471637938e-06 0.0000000000000000e+00  3.3542409692891664e-05 2.0504929688647889e-06 0.0000000000000000e+00  4.4174259951872339e-05 2.7963803566362809e-06 0.0000000000000000e+00  5.7568883337986187e-05 3.7977372582061660e-06 0.0000000000000000e+00  7.4880665572712017e-05 5.1748297593918875e-06 0.0000000000000000e+00  9.7846824907158394e-05 7.1018930888368339e-06 0.0000000000000000e+00  1.2920174639809214e-04 9.8148085514766109e-06 0.0000000000000000e+00  1.7345397382034699e-04 1.3559800901226515e-05 0.0000000000000000e+00  2.3835687042038871e-04 1.8278099664225240e-05 0.0000000000000000e+00  3.3745699603327265e-04 2.2266937911167493e-05 0.0000000000000000e+00  4.9247222798310568e-04 1.7434242992011860e-05 0.0000000000000000e+00  7.2289943133105924e-04 -2.2022095714765951e-05 0.0000000000000000e+00  9.8635745119411374e-04 -1.3231927192619054e-04 0.0000000000000000e+00  0.0000000000000000e+00 0.0000000000000000e+00 0.0000000000000000e+00  0.0000000000000000e+00 0.0000000000000000e+00 0.0000000000000000e+00  0.0000000000000000e+00 0.0000000000000000e+00 0.0000000000000000e+00  0.0000000000000000e+00 0.0000000000000000e+00 0.0000000000000000e+00  0.0000000000000000e+00 0.0000000000000000e+00 0.0000000000000000e+00  0.0000000000000000e+00 0.0000000000000000e+00 0.0000000000000000e+00  0.0000000000000000e+00 0.0000000000000000e+00 0.0000000000000000e+00  0.0000000000000000e+00 0.0000000000000000e+00 0.0000000000000000e+00  0.0000000000000000e+00 0.0000000000000000e+00 0.0000000000000000e+00  0.0000000000000000e+00 0.0000000000000000e+00 0.0000000000000000e+00  0.0000000000000000e+00 0.0000000000000000e+00 0.0000000000000000e+00  0.0000000000000000e+00 0.0000000000000000e+00 0.0000000000000