<?xml version="1.0"?>
<VTKFile type="UnstructuredGrid"  version="0.1"  >
<UnstructuredGrid>
<Piece  NumberOfPoints="289" NumberOfCells="512">
<Points>
<DataArray  type="Float64"  NumberOfComponents="3"  format="ascii">0 0 0  0.0625 0 0  0.125 0 0  0.1875 0 0  0.25 0 0  0.3125 0 0  0.375 0 0  0.4375 0 0  0.5 0 0  0.5625 0 0  0.625 0 0  0.6875 0 0  0.75 0 0  0.8125 0 0  0.875 0 0  0.9375 0 0  1 0 0  0 0.0625 0  0.06252034726933368 0.06249768523996161 0  0.1250417799508481 0.06249533049493162 0  0.1875654632624199 0.06249289948271997 0  0.2500927349208627 0.06249036393289129 0  0.3126252144861443 0.06248770838581159 0  0.3751649461050694 0.06248493560002784 0  0.4377145988054992 0.06248207201738808 0  0.5002777703386992 0.06247917167964543 0  0.56285949279023 0.06247631493605584 0  0.6254671702977561 0.06247359401097588 0  0.6881125347545637 0.06247106719080725 0  0.7508162292668088 0.06246863284729938 0  0.8136198022345382 0.06246566570157626 0  0.8766205197506205 0.06245981940909678 0  0.9400831355309363 0.0624424894998807 0  1.004842234504928 0.06237940545433628 0  0 0.125 0  0.06253961198924501 0.1249954068254179 0  0.1250813153830855 0.1249907295258805 0  0.1876273537604612 0.1249858910364084 0  0.2501802991564584 0.12498082973081 0  0.3127432582365933 0.1249755090742753 0  0.3753201370595909 0.1249699290733762 0  0.4379160015956471 0.1249641389401445 0  0.5005375976795976 0.124958248736588 0  0.5631941509218225 0.1249524348158042 0  0.6258986916738818 0.1249469290651205 0  0.6886704231495862 0.1249419755858675 0  0.751539224421822 0.1249377368381545 0  0.8145544162574434 0.1249341739832326 0  0.877800787058497 0.1249312264626702 0  0.9414188893679611 0.124931284257234 0  1.005570478444755 0.1249547189415404 0  0 0.1875 0  0.06255679257198063 0.1874932090690644 0  0.1251165285723345 0.1874862822272322 0  0.1876823614496164 0.1874790931651763 0  0.2502578971395857 0.1874715369495614 0  0.312847474575332 0.1874635443091825 0  0.3754565185019139 0.1874550998181889 0  0.4380920018156368 0.1874462641740529 0  0.5007630696339779 0.1874371990212391 0  0.5634819014871661 0.1874281894476537 0  0.6262649229936907 0.1874196535268101 0  0.6891345092143037 0.1874121192482918 0  0.7521212553379986 0.1874061359819849 0  0.8152663364896169 0.1874020637732371 0  0.87862108713864 0.1873995880180338 0  0.9422328756413862 0.1873961915945269 0  1.006086109746206 0.1873798290067836 0  0 0.25 0  0.06257104176796756 0.2499911439217709 0  0.1251456653212732 0.2499820898348448 0  0.1877277009038603 0.2499726504155956 0  0.2503215133548299 0.2499626628175203 0  0.3129323305595855 0.2499520066277029 0  0.3755666501128017 0.2499406287211391 0  0.4382327560771518 0.2499285769503482 0  0.5009413779935769 0.2499160434306437 0  0.5637065134230743 0.2499034153112654 0  0.6265463921121595 0.2498913249414946 0  0.6894844306426693 0.2498806800947383 0  0.7525496796997686 0.249872635244537 0  0.8157754067178736 0.2498684321659325 0  0.8791925472208858 0.2498689893517337 0  0.942811387068809 0.2498741098967034 0  1.00658246959436 0.2498818489594741 0  0 0.3125 0  0.06258172500934736 0.3124892735846138 0  0.1251674167350774 0.3124782755642789 0  0.1877613065010663 0.312466743866479 0  0.250368194814918 0.3124544394231796 0  0.3129938009048854 0.3124411655789129 0  0.3756451942918768 0.3124267978446007 0  0.4383313385008871 0.3124113285629377 0  0.5010637706928044 0.3123949313392365 0  0.5638574153051837 0.3123780490887411 0  0.6267314588197362 0.3123615053739104 0  0.6897100457784997 0.3123466279282681 0  0.7528222049400262 0.3123353505349593 0  0.8160997622396942 0.3123302190980364 0  0.8795710183495851 0.3123341741706924 0  0.9432472056535299 0.3123499670264943 0  1.007100508481503 0.312379259047897 0  0 0.375 0  0.06258845880001963 0.3749876716318148 0  0.1251809990824305 0.3749749876468897 0  0.1877819592871757 0.3749615978102959 0  0.2503962308983848 0.3749471670250725 0  0.3130296014937666 0.3749313923468897 0  0.3756891841326473 0.3749140332670774 0  0.4383839692301171 0.3748949629061936 0  0.501125534579598 0.3748742505038292 0  0.5639289342096291 0.3748522883752788 0  0.6268137368864112 0.3748299774823031 0  0.6898050635732593 0.3748089803765674 0  0.7529342259540563 0.3747920289212667 0  0.81623814848349 0.3747832198258109 0  0.8797562254713882 0.3747881203880815 0  0.9435230364506775 0.3748133222438979 0  1.007556484640862 0.3748648201060453 0  0 0.4375 0  0.06259112645161352 0.4374864218689534 0  0.1251861869249256 0.4374723978178567 0  0.1877893405920265 0.4374574796788699 0  0.2504052312032595 0.4374412188405944 0  0.3130392932914012 0.4374231754125808 0  0.3756981464356099 0.4374029416172878 0  0.4383901253272303 0.4373801896191016 0  0.5011260093270575 0.4373547598907326 0  0.5639200319929717 0.4373268147504872 0  0.6267912593906834 0.4372970924351552 0  0.6897654038208287 0.4372673063922283 0  0.7528770434911659 0.4372407304348663 0  0.816171980317573 0.4372229628391062 0  0.879709019230639 0.4372227099247424 0  0.9435598229610036 0.4372520804130035 0  1.007804989119495 0.4373252881801046 0  0 0.5 0  0.06258986984347667 0.4999856141746615 0  0.1251832970308443 0.4999706934841288 0  0.1877840095336197 0.4999546898400034 0  0.2503961007510813 0.4999370313706905 0  0.3130242650129815 0.4999171173304119 0  0.3756741124457125 0.4998943246287719 0  0.43835262021612 0.499868036773433 0  0.5010688138177252 0.499837714731747 0  0.563834832017218 0.499803044186115 0  0.6266676210137976 0.4997642180472066 0  0.6895916290507997 0.4997224491900792 0  0.7526430045921086 0.4996808512059623 0  0.8158758306055242 0.4996458434809911 0  0.879370577884123 0.4996291304476146 0  0.9432437370171303 0.4996498337441469 0  1.007655091502901 0.4997351329374938 0  0 0.5625 0  0.06258505701586398 0.5624853368613111 0  0.1251731219881496 0.5624700623065023 0  0.1877673008415759 0.5624535384234004 0  0.2503709035531142 0.5624350744206404 0  0.3129875749812264 0.5624139014062879 0  0.375621476963825 0.562389151490219 0  0.4382775747507345 0.5623598489713785 0  0.5009621323645 0.5623249307500855 0  0.5636836200568859 0.5622833318242993 0  0.6264544183642232 0.5622342083006802 0  0.6892940174155903 0.5621774393681019 0  0.7522348998177494 0.5621146714288131 0  0.8153329042591316 0.5620513523658959 0  0.8786841810854893 0.5620003795194315 0  0.9424496056095349 0.5619877712569515 0  1.006882366946444 0.5620590494748646 0  0 0.625 0  0.06257722715626529 0.6249856657060247 0  0.1251568152785689 0.6249706691958995 0  0.1877411414657673 0.6249543082672642 0  0.2503326021625905 0.6249357974317873 0  0.3129336137448533 0.6249142193947037 0  0.3755466122527211 0.6248884691252237 0  0.4381740785821918 0.6248571907466828 0  0.5008186635217828 0.6248187133376819 0  0.5634835954586451 0.6247710065466295 0  0.626173788503108 0.6247117129182995 0  0.6888985560084128 0.6246383991182816 0  0.7516777859881671 0.6245493648237033 0  0.814555111241316 0.6244457787779086 0  0.8776239654377879 0.6243367501427172 0  0.9410737677177405 0.6242500905963748 0  1.005257554018913 0.6242509505960085 0  0 0.6875 0  0.06256701759066662 0.6874866507129133 0  0.1251357358223968 0.6874726277307205 0  0.1877077938541257 0.6874572065512823 0  0.2502846724017822 0.6874395541763767 0  0.3128675589038737 0.6874186591060799 0  0.3754571411667605 0.6873932401247332 0  0.4380533042325568 0.6873616231441003 0  0.500654721537668 0.6873215729482978 0  0.563258394014712 0.6872700666439664 0  0.6258593777606527 0.6872030063228861 0  0.6884514432212986 0.6871149166693326 0  0.751030672312836 0.6869988426103509 0  0.8136069782902066 0.6868472067852393 0  0.8762348617724444 0.6866560301035783 0  0.9390851811534947 0.686439334629001 0  1.00258405834211 0.686268518106919 0  0 0.75 0  0.06255508167105511 0.7499883026872111 0  0.1251112698023119 0.7499759703868646 0  0.1876695517568618 0.7499623122086884 0  0.2502306229206542 0.749946515912445 0  0.3127946423464876 0.7499275645239196 0  0.3753608462407964 0.7499041202217785 0  0.4379269295624854 0.7498743540256476 0  0.5004880644289349 0.7498356870769235 0  0.5630353757436209 0.7497843874728292 0  0.6255536782248513 0.7497149298741366 0  0.6880184460494131 0.7496189677377372 0  0.7503928519956204 0.7494837052559213 0  0.8126289159360393 0.7492895455108469 0  0.8746871965001288 0.7490080602974625 0  0.9366191238480098 0.748608352114592 0  0.9988110397014172 0.7481151961634771 0  0 0.8125 0  0.0625420108312756 0.8124905824960973 0  0.1250846584780397 0.8124806239745495 0  0.1876284369268925 0.8124695304377183 0  0.2501734931869052 0.8124565916251399 0  0.3127193328079642 0.8124408978790237 0  0.3752643406263882 0.8124212197989981 0  0.4378049765010087 0.8123958237527339 0  0.5003344034858492 0.8123621770307966 0  0.5628401199965011 0.8123164593427522 0  0.6252998368781906 0.8122527222789149 0  0.6876742890185586 0.8121613752035652 0  0.7498949373506438 0.8120262912030354 0  0.8118444999410018 0.8118188534366637 0  0.8733345187805858 0.8114847684637175 0  0.9341264665847183 0.8109141527771229 0  0.9942882953723022 0.8098893577674922 0  0 0.875 0  0.06252827653609401 0.874993396055911 0  0.1250568678421911 0.8749863973007432 0  0.1875859626807806 0.8749785675200725 0  0.2501154441516604 0.8749693790321191 0  0.3126446263648103 0.8749581457431327 0  0.3751718168013219 0.8749439242170282 0  0.4376935587610548 0.8749253588772914 0  0.5002032820558626 0.8749004299663452 0  0.5626888318679094 0.8748660298139558 0  0.6251278001534398 0.874817228189968 0  0.6874783877586043 0.8747459514474446 0  0.7496607986122035 0.8746384747960437 0  0.8115177326784685 0.8744701749446321 0  0.8727272043049737 0.8741924828688177 0  0.9326079362857889 0.8736912895771047 0  0.9897376392621697 0.8726090055144261 0  0 0.9375 0  0.06251420617323913 0.9374965973322457 0  0.1250285336388551 0.9374929865319145 0  0.1875430305498411 0.9374889368271692 0  0.2500575676108052 0.9374841672673171 0  0.3125716837966435 0.9374783096034065 0  0.3750843268891341 0.9374708529955555 0  0.4375933967494798 0.9374610
[...]
<PointData  Vectors="f_54"> 
<DataArray  type="Float64"  Name="f_54"  NumberOfComponents="3" format="ascii">0.0000000000000000e+00 0.0000000000000000e+00 0.0000000000000000e+00  0.0000000000000000e+00 0.0000000000000000e+00 0.0000000000000000e+00  0.0000000000000000e+00 0.0000000000000000e+00 0.0000000000000000e+00  0.0000000000000000e+00 0.0000000000000000e+00 0.0000000000000000e+00  0.0000000000000000e+00 0.0000000000000000e+00 0.0000000000000000e+00  0.0000000000000000e+00 0.0000000000000000e+00 0.0000000000000000e+00  0.0000000000000000e+00 0.0000000000000000e+00 0.0000000000000000e+00  0.0000000000000000e+00 0.0000000000000000e+00 0.0000000000000000e+00  0.0000000000000000e+00 0.0000000000000000e+00 0.0000000000000000e+00  0.0000000000000000e+00 0.0000000000000000e+00 0.0000000000000000e+00  0.0000000000000000e+00 0.0000000000000000e+00 0.0000000000000000e+00  0.0000000000000000e+00 0.0000000000000000e+00 0.0000000000000000e+00  0.0000000000000000e+00 0.0000000000000000e+00 0.0000000000000000e+00  0.0000000000000000e+00 0.0000000000000000e+00 0.0000000000000000e+00  0.0000000000000000e+00 0.0000000000000000e+00 0.0000000000000000e+00  0.0000000000000000e+00 0.0000000000000000e+00 0.0000000000000000e+00  0.0000000000000000e+00 0.0000000000000000e+00 0.0000000000000000e+00  0.0000000000000000e+00 0.0000000000000000e+00 0.0000000000000000e+00  -4.6153287195607487e-06 -8.2438140314266950e-08 0.0000000000000000e+00  -9.3593506303559651e-06 -1.6518901211505180e-07 0.0000000000000000e+00  -1.4359890770260749e-05 -2.4823375128392390e-07 0.0000000000000000e+00  -1.9741655283864042e-05 -3.3083823831748254e-07 0.0000000000000000e+00  -2.5623066679940674e-05 -4.1110128152206850e-07 0.0000000000000000e+00  -3.2111112251769672e-05 -4.8539859151727647e-07 0.0000000000000000e+00  -3.9293575061759081e-05 -5.4770817096572265e-07 0.0000000000000000e+00  -4.7228283699146555e-05 -5.8882703464501495e-07 0.0000000000000000e+00  -5.5929866289085082e-05 -5.9551059287820169e-07 0.0000000000000000e+00  -6.5356903890567797e-05 -5.4951322862884638e-07 0.0000000000000000e+00  -7.5409252738932765e-05 -4.2608684638633466e-07 0.0000000000000000e+00  -8.5966124159645289e-05 -1.8956539487194907e-07 0.0000000000000000e+00  -9.7063834752835460e-05 2.2421886151846609e-07 0.0000000000000000e+00  -1.0955621066514807e-04 9.8098593091443666e-07 0.0000000000000000e+00  -1.2756269157323798e-04 2.6562900613510225e-06 0.0000000000000000e+00  -1.6852321914872495e-04 7.6455018217059431e-06 0.0000000000000000e+00  0.0000000000000000e+00 0.0000000000000000e+00 0.0000000000000000e+00  -9.1046372083784894e-06 -1.6460994916843347e-07 0.0000000000000000e+00  -1.8468346200766812e-05 -3.3018706056901365e-07 0.0000000000000000e+00  -2.8349117621852975e-05 -4.9707276888613037e-07 0.0000000000000000e+00  -3.9000122552652169e-05 -6.6425034641805366e-07 0.0000000000000000e+00  -5.0664126035819911e-05 -8.2846729904439517e-07 0.0000000000000000e+00  -6.3563880046928764e-05 -9.8313147199836351e-07 0.0000000000000000e+00  -7.7887007661936401e-05 -1.1169403299947480e-06 0.0000000000000000e+00  -9.3764044574735659e-05 -1.2122624475455632e-06 0.0000000000000000e+00  -1.1123900159281394e-04 -1.2434029214209548e-06 0.0000000000000000e+00  -1.3023368758921890e-04 -1.1750733268753941e-06 0.0000000000000000e+00  -1.5051121573908118e-04 -9.6169052937930420e-07 0.0000000000000000e+00  -1.7165197447869255e-04 -5.4877411663860668e-07 0.0000000000000000e+00  -1.9306427147633439e-04 1.1968555829740840e-07 0.0000000000000000e+00  -2.1402646720169443e-04 1.0694503560512599e-06 0.0000000000000000e+00  -2.3345996286244143e-04 2.1374852867510777e-06 0.0000000000000000e+00  -2.4712840628562271e-04 2.1050685458181450e-06 0.0000000000000000e+00  0.0000000000000000e+00 0.0000000000000000e+00 0.0000000000000000e+00  -1.3337095992414073e-05 -2.4585095370463825e-07 0.0000000000000000e+00  -2.7065883682221896e-05 -4.9396585582560129e-07 0.0000000000000000e+00  -4.1577993122470612e-05 -7.4576775822343316e-07 0.0000000000000000e+00  -5.7261233788933219e-05 -1.0008344867260893e-06 0.0000000000000000e+00  -7.4493075571627277e-05 -1.2556595368964371e-06 0.0000000000000000e+00  -9.3628130981729713e-05 -1.5020341057421420e-06 0.0000000000000000e+00  -1.1497706056473284e-04 -1.7249485027917894e-06 0.0000000000000000e+00  -1.3877400569243175e-04 -1.8999839799295211e-06 0.0000000000000000e+00  -1.6512949889888189e-04 -1.9903461263480510e-06 0.0000000000000000e+00  -1.9396586902356523e-04 -1.9440873994149706e-06 0.0000000000000000e+00  -2.2493193638021731e-04 -1.6928951327140960e-06 0.0000000000000000e+00  -2.5729046071209572e-04 -1.1555421820442023e-06 0.0000000000000000e+00  -2.8975473509773364e-04 -2.5268993066476303e-07 0.0000000000000000e+00  -3.2018664883928414e-04 1.0534759293289579e-06 0.0000000000000000e+00  -3.4487620468356863e-04 2.6773563569814876e-06 0.0000000000000000e+00  -3.5674659049226057e-04 4.3520409820241767e-06 0.0000000000000000e+00  0.0000000000000000e+00 0.0000000000000000e+00 0.0000000000000000e+00  -1.7179687369505942e-05 -3.2485394467108775e-07 0.0000000000000000e+00  -3.4885164505516267e-05 -6.5413192460802575e-07 0.0000000000000000e+00  -5.3644922963826091e-05 -9.9132578064942319e-07 0.0000000000000000e+00  -7.3988505600272516e-05 -1.3378462800934827e-06 0.0000000000000000e+00  -9.6441339764575273e-05 -1.6915434276650696e-06 0.0000000000000000e+00  -1.2151193107756926e-04 -2.0446685825101572e-06 0.0000000000000000e+00  -1.4966769173937398e-04 -2.3810623138248364e-06 0.0000000000000000e+00  -1.8129471152154364e-04 -2.6723787657559222e-06 0.0000000000000000e+00  -2.1663562730235263e-04 -2.8732949747023198e-06 0.0000000000000000e+00  -2.5569832492772552e-04 -2.9160473808006922e-06 0.0000000000000000e+00  -2.9812600375993281e-04 -2.7055651323980688e-06 0.0000000000000000e+00  -3.4301445765204933e-04 -2.1184072430329162e-06 0.0000000000000000e+00  -3.8865131986232879e-04 -1.0122975811770492e-06 0.0000000000000000e+00  -4.3212962764841600e-04 7.4152315091691394e-07 0.0000000000000000e+00  -4.6876789952037174e-04 3.1862674805692253e-06 0.0000000000000000e+00  -4.9137684592129186e-04 6.1537470213151109e-06 0.0000000000000000e+00  0.0000000000000000e+00 0.0000000000000000e+00 0.0000000000000000e+00  -2.0498046734368988e-05 -3.9945033551330625e-07 0.0000000000000000e+00  -4.1654830706003881e-05 -8.0644381447498392e-07 0.0000000000000000e+00  -6.4136666787141652e-05 -1.2276680136773767e-06 0.0000000000000000e+00  -8.8620561094663179e-05 -1.6678452622722085e-06 0.0000000000000000e+00  -1.1579341518799617e-04 -2.1282113686121765e-06 0.0000000000000000e+00  -1.4634268873862100e-04 -2.6042651256437368e-06 0.0000000000000000e+00  -1.8093382110829644e-04 -3.0824145188573289e-06 0.0000000000000000e+00  -2.2016802706939915e-04 -3.5350527681645908e-06 0.0000000000000000e+00  -2.6451191939250152e-04 -3.9135452029869799e-06 0.0000000000000000e+00  -3.1418783276697274e-04 -4.1387258052274912e-06 0.0000000000000000e+00  -3.6901094052147761e-04 -4.0890807928456304e-06 0.0000000000000000e+00  -4.2815689881502681e-04 -3.5884118010103547e-06 0.0000000000000000e+00  -4.8984398151515421e-04 -2.3983940752145043e-06 0.0000000000000000e+00  -5.5092429048811181e-04 -2.2832615311381320e-07 0.0000000000000000e+00  -6.0642531344761482e-04 3.2146385425295378e-06 0.0000000000000000e+00  -6.4923176496868009e-04 8.0964595893321438e-06 0.0000000000000000e+00  0.0000000000000000e+00 0.0000000000000000e+00 0.0000000000000000e+00  -2.3159159216288651e-05 -4.6651703005032159e-07 0.0000000000000000e+00  -4.7103964419892592e-05 -9.4458103794014819e-07 0.0000000000000000e+00  -7.2634749703226714e-05 -1.4451605752873142e-06 0.0000000000000000e+00  -1.0057733112238759e-04 -1.9778094744311417e-06 0.0000000000000000e+00  -1.3179010806499427e-04 -2.5493900679252354e-06 0.0000000000000000e+00  -1.6716291240770169e-04 -3.1619739117250215e-06 0.0000000000000000e+00  -2.0760236126623474e-04 -3.8093923302791552e-06 0.0000000000000000e+00  -2.5399602312481092e-04 -4.4716426026412470e-06 0.0000000000000000e+00  -3.0714438557461718e-04 -5.1059797136870313e-06 0.0000000000000000e+00  -3.6764553221812281e-04 -5.6330737682405134e-06 0.0000000000000000e+00  -4.3571330602783676e-04 -5.9162851861111229e-06 0.0000000000000000e+00  -5.1090767413449953e-04 -5.7325052330782942e-06 0.0000000000000000e+00  -5.9176112435652974e-04 -4.7355856632272304e-06 0.0000000000000000e+00  -6.7530785959659789e-04 -2.4210009804809397e-06 0.0000000000000000e+00  -7.5658144949432055e-04 1.8828930915252090e-06 0.0000000000000000e+00  -8.2825959558033172e-04 8.9444426386809232e-06 0.0000000000000000e+00  0.0000000000000000e+00 0.0000000000000000e+00 0.0000000000000000e+00  -2.5036287966926203e-05 -5.2205290626569602e-07 0.0000000000000000e+00  -5.0971811494920100e-05 -1.0602637251020440e-06 0.0000000000000000e+00  -7.8729603492696000e-05 -1.6306947461674935e-06 0.0000000000000000e+00  -1.0927773107307205e-04 -2.2490068988146507e-06 0.0000000000000000e+00  -1.4364790904007195e-04 -2.9297778556073130e-06 0.0000000000000000e+00  -1.8294778444356805e-04 -3.6850697062045298e-06 0.0000000000000000e+00  -2.2836183800329786e-04 -4.5216526340690647e-06 0.0000000000000000e+00  -2.8113268619711889e-04 -5.4358595996101377e-06 0.0000000000000000e+00  -3.4250989254091244e-04 -6.4043025634265352e-06 0.0000000000000000e+00  -4.1364701098218245e-04 -7.3674572098700107e-06 0.0000000000000000e+00  -4.9541997665770749e-04 -8.2012877602606509e-06 0.0000000000000000e+00  -5.8813346261529472e-04 -8.6698428369196105e-06 0.0000000000000000e+00  -6.9108268390500889e-04 -8.3505234685791401e-06 0.0000000000000000e+00  -8.0195885543388364e-04 -6.5280231752430916e-06 0.0000000000000000e+00  -9.1614407324291155e-04 -2.0730259580236939e-06 0.0000000000000000e+00  -1.0260386551208343e-03 6.6268092534850672e-06 0.0000000000000000e+00  0.0000000000000000e+00 0.0000000000000000e+00 0.0000000000000000e+00  -2.6016252093854600e-05 -5.6145746473474964e-07 0.0000000000000000e+00  -5.3022581953303630e-05 -1.1438042755344785e-06 0.0000000000000000e+00  -8.2043283090325677e-05 -1.7684839820118642e-06 0.0000000000000000e+00  -1.1417060118115332e-04 -2.4579463178498150e-06 0.0000000000000000e+00  -1.5059793896730125e-04 -3.2359068718511240e-06 0.0000000000000000e+00  -1.9265062227238631e-04 -4.1271618260803380e-06 0.0000000000000000e+00  -2.4181046508140244e-04 -5.1564795426046479e-06 0.0000000000000000e+00  -2.9972679402013306e-04 -6.3456075848982855e-06 0.0000000000000000e+00  -3.6820067706719555e-04 -7.7064688993724469e-06 0.0000000000000000e+00  -4.4911983953105291e-04 -9.2267274315546552e-06 0.0000000000000000e+00  -5.4430838288441186e-04 -1.0840320267056034e-05 0.0000000000000000e+00  -6.5523878795317541e-04 -1.2369251149041101e-05 0.0000000000000000e+00  -7.8253944348193451e-04 -1.3413436771578257e-05 0.0000000000000000e+00  -9.2523534580685467e-04 -1.3156025502589755e-05 0.0000000000000000e+00  -1.0797138228883073e-03 -1.0058034270410146e-05 0.0000000000000000e+00  -1.2385374961960142e-03 -1.4781562537367381e-06 0.0000000000000000e+00  0.0000000000000000e+00 0.0000000000000000e+00 0.0000000000000000e+00  -2.6008801600330566e-05 -5.8001667114124621e-07 0.0000000000000000e+00  -5.3064921393731331e-05 -1.1851176772951499e-06 0.0000000000000000e+00  -8.2260431651026109e-05 -1.8416676644983498e-06 0.0000000000000000e+00  -1.1477909982562698e-04 -2.5786475569330109e-06 0.0000000000000000e+00  -1.5194591164533548e-04 -3.4290894844278142e-06 0.0000000000000000e+00  -1.9528006183206913e-04 -4.4316028916658717e-06 0.0000000000000000e+00  -2.4655039140170825e-04 -5.6318619536865538e-06 0.0000000000000000e+00  -3.0782900683635063e-04 -7.0836125611044362e-06 0.0000000000000000e+00  -3.8153255016364079e-04 -8.8479871067075066e-06 0.0000000000000000e+00  -4.7042906523054630e-04 -1.0988047759324784e-05 0.0000000000000000e+00  -5.7756842270116442e-04 -1.3551059321986528e-05 0.0000000000000000e+00  -7.0606245397306739e-04 -1.6520952338059772e-05 0.0000000000000000e+00  -8.5859763258649762e-04 -1.9702243547194014e-05 0.0000000000000000e+00  -1.0365244301140807e-03 -2.2458019208945274e-05 0.0000000000000000e+00  -1.2383925320028049e-03 -2.3175899979840422e-05 0.0000000000000000e+00  -1.4580201407382060e-03 -1.8348263711128599e-05 0.0000000000000000e+00  0.0000000000000000e+00 0.0000000000000000e+00 0.0000000000000000e+00  -2.4957370841525350e-05 -5.7355717025328081e-07 0.0000000000000000e+00  -5.0974662767932390e-05 -1.1751213743484770e-06 0.0000000000000000e+00  -7.9165567824503812e-05 -1.8346481328721668e-06 0.0000000000000000e+00  -1.1075641442433461e-04 -2.5862202328611551e-06 0.0000000000000000e+00  -1.4715145796413888e-04 -3.4706595626286265e-06 0.0000000000000000e+00  -1.9000909151432370e-04 -4.5388820974082830e-06 0.0000000000000000e+00  -2.4133226194056559e-04 -5.8563905275577327e-06 0.0000000000000000e+00  -3.0357474372079960e-04 -7.5094101193515649e-06 0.0000000000000000e+00  -3.7976034917434171e-04 -9.6131898466908489e-06 0.0000000000000000e+00  -4.7360124704086772e-04 -1.2322482409008094e-05 0.0000000000000000e+00  -5.8957795449039534e-04 -1.5841736609570760e-05 0.0000000000000000e+00  -7.3289642685021839e-04 -2.0423670687804482e-05 0.0000000000000000e+00  -9.0915222242475883e-04 -2.6317417432750522e-05 0.0000000000000000e+00  -1.1234015898514307e-03 -3.3552053508494266e-05 0.0000000000000000e+00  -1.3782230587373896e-03 -4.1269226787164441e-05 0.0000000000000000e+00  -1.6705188622069978e-03 -4.6070081344255548e-05 0.0000000000000000e+00  0.0000000000000000e+00 0.0000000000000000e+00 0.0000000000000000e+00  -2.2849982142415116e-05 -5.3917787439747080e-07 0.0000000000000000e+00  -4.6718350134557980e-05 -1.1073341465930594e-06 0.0000000000000000e+00  -7.2682847712341627e-05 -1.7358578420747229e-06 0.0000000000000000e+00  -1.0194765111725625e-04 -2.4613316682167813e-06 0.0000000000000000e+00  -1.3592077106219455e-04 -3.3290195723694009e-06 0.0000000000000000e+00  -1.7631016677513466e-04 -4.3976474347651714e-06 0.0000000000000000e+00  -2.2524730538631526e-04 -5.7463701459459674e-06 0.0000000000000000e+00  -2.8544844977941309e-04 -7.4854438897683434e-06 0.0000000000000000e+00  -3.6042418115540494e-04 -9.7733012462516778e-06 0.0000000000000000e+00  -4.5474312614914849e-04 -1.2844857782432003e-05 0.0000000000000000e+00  -5.7433826972054687e-04 -1.7059233959135333e-05 0.0000000000000000e+00  -7.2679480548602890e-04 -2.2978059130708619e-05 0.0000000000000000e+00  -9.2143785854156336e-04 -3.1476987320541528e-05 0.0000000000000000e+00  -1.1687768930230946e-03 -4.3823589991949512e-05 0.0000000000000000e+00  -1.4784086577941963e-03 -6.1349501031483837e-05 0.0000000000000000e+00  -1.8542577429641524e-03 -8.3440175227579273e-05 0.0000000000000000e+00  0.0000000000000000e+00 0.0000000000000000e+00 0.0000000000000000e+00  -1.9728611855278785e-05 -4.7592429209691581e-07 0.0000000000000000e+00  -4.0373963917639969e-05 -9.7937503735183511e-07 0.0000000000000000e+00  -6.2912480937670395e-05 -1.5404273512850932e-06 0.0000000000000000e+00  -8.8449369931693872e-05 -2.1946901985425438e-06 0.0000000000000000e+00  -1.1830098412178568e-04 -2.9871039047298158e-06 0.0000000000000000e+00  -1.5410206287874069e-04 -3.9772490120580651e-06 0.0000000000000000e+00  -1.9795192644788334e-04 -5.2472542093201462e-06 0.0000000000000000e+00  -2.5261958447948867e-04 -6.9142627193384481e-06 0.0000000000000000e+00  -3.2183577467216151e-04 -9.1513178094288313e-06 0.0000000000000000e+00  -4.1070913026381670e-04 -1.2224882774604386e-05 0.0000000000000000e+00  -5.2630860972350776e-04 -1.6567443485274131e-05 0.0000000000000000e+00  -6.7843650677770621e-04 -2.2927338115342937e-05 0.0000000000000000e+00  -8.8051960789677607e-04 -3.2688184093923200e-05 0.0000000000000000e+00  -1.1502093968331936e-03 -4.8526798525458243e-05 0.0000000000000000e+00  -1.5082747595026708e-03 -7.5486537798726696e-05 0.0000000000000000e+00  -1.9720997390090828e-03 -1.2038857251188545e-04 0.0000000000000000e+00  0.0000000000000000e+00 0.0000000000000000e+00 0.0000000000000000e+00  -1.5695060665493070e-05 -3.8525672952746196e-07 0.0000000000000000e+00  -3.2144570671547950e-05 -7.9402028847420711e-07 0.0000000000000000e+00  -5.0156452251664048e-05 -1.2521118157939363e-06 0.0000000000000000e+00  -7.0655157163944396e-05 -1.7903856535295012e-06 0.0000000000000000e+00  -9.4758819689565643e-05 -2.4481697491999357e-06 0.0000000000000000e+00  -1.2388346780535249e-04 -3.2780132500458022e-06 0.0000000000000000e+00  -1.5989157945009753e-04 -4.3525677580766461e-06 0.0000000000000000e+00  -2.0531205821343193e-04 -5.7749618376345320e-06 0.0000000000000000e+00  -2.6367508017569432e-04 -7.6952093920089030e-06 0.0000000000000000e+00  -3.4003214931283693e-04 -1.0338282176414108e-05 0.0000000000000000e+00  -4.4177418430776141e-04 -1.4058743937303931e-05 0.0000000000000000e+00  -5.7992118117316334e-04 -1.9466916852738397e-05 0.0000000000000000e+00  -7.7111693443377327e-04 -2.7772450396869544e-05 0.0000000000000000e+00  -1.0404908346962505e-03 -4.1835204406987066e-05 0.0000000000000000e+00  -1.4246493845975455e-03 -6.9644390952716963e-05 0.0000000000000000e+00  -1.9678421697240356e-03 -1.3734558528307218e-04 0.0000000000000000e+00  0.0000000000000000e+00 0.0000000000000000e+00 0.0000000000000000e+00  -1.0911449531390005e-05 -2.7119305832406513e-07 0.0000000000000000e+00  -2.2360647794651033e-05 -5.5953926820602863e-07 0.0000000000000000e+00  -3.4925830442441282e-05 -8.8393439766125963e-07 0.0000000000000000e+00  -4.9274098942448611e-05 -1.2670556162238471e-06 0.0000000000000000e+00  -6.6221789250194403e-05 -1.7378926824782901e-06 0.0000000000000000e+00  -8.6818241645554797e-05 -2.3351056690844581e-06 0.0000000000000000e+00  -1.1246918328695821e-04 -3.1115101032015647e-06 0.0000000000000000e+00  -1.4512674846983901e-04 -4.1397899337732534e-06 0.0000000000000000e+00  -1.8759299095002995e-04 -5.5187238994701835e-06 0.0000000000000000e+00  -2.4402070974411730e-04 -7.3767270401895591e-06 0.0000000000000000e+00  -3.2076609569551482e-04 -9.8630493364348554e-06 0.0000000000000000e+00  -4.2788864847160396e-04 -1.3103031845621619e-05 0.0000000000000000e+00  -5.8189818000819191e-04 -1.7075050628233537e-05 0.0000000000000000e+00  -8.1110107960930683e-04 -2.1397172537200451e-05 0.0000000000000000e+00  -1.1670463705046768e-03 -2.5370920894059569e-05 0.0000000000000000e+00  -1.7523664081791426e-03 -3.0250909773397493e-05 0.0000000000000000e+00  0.0000000000000000e+00 0.0000000000000000e+00 0.0000000000000000e+00  -5.5940228576190087e-06 -1.4007620058365692e-07 0.0000000000000000e+00  -1.1467939714951208e-05 -2.8919539804398198e-07 0.0000000000000000e+00  -1.7923495045284982e-05 -4.5733139439825716e-07 0.0000000000000000e+00  -2.5310607460504953e-05 -6.5647116702649879e-07 0.0000000000000000e+00  -3.4060631545224675e-05 -9.0193011238831184e-07 0.0000000000000000e+00  -4.4733305519015787e-05 -1.2140147481109932e-06 0.0000000000000000e+00  -5.8087336182062685e-05 -1.6199949112564780e-06 0.0000000000000000e+00  -7.5191785190904001e-05 -2.1558235251496799e-06 0.0000000000000000e+00  -9.7609071065027554e-05 -2.8652715734782971e-06 0.0000000000000000e+00  -1.2770622238952894e-04 -3.7883992636013938e-06 0.0000000000000000e+00  -1.6919808038680248e-04 -4.9127201707234217e-06 0.0000000000000000e+00  -2.2809879701775991e-04 -5.9999622183012033e-06 0.0000000000000000e+00  -3.1429257291142190e-04 -6.0040879359455147e-06 0.0000000000000000e+00  -4.4345506780250595e-04 -1.1746715593555012e-06 0.0000000000000000e+00  -6.3565047898937646e-04 2.0725441047013458e-05 0.0000000000000000e+00  -8.9200377183574825e-04 9.4208214012507304e-05 0.0000000000000000e+00  0.0000000000000000e+00 0.0000000000000000e+00 0.0000000000000000e+00  0.0000000000000000e+00 0.0000000000000000e+00 0.0000000000000000e+00  0.0000000000000000e+00 0.0000000000000000e+00 0.0000000000000000e+00  0.0000000000000000e+00 0.0000000000000000e+00 0.0000000000000000e+00  0.0000000000000000e+00 0.0000000000000000e+00 0.0000000000000000e+00  0.0000000000000000e+00 0.0000000000000000e+