<?xml version="1.0"?>
<VTKFile type="UnstructuredGrid"  version="0.1"  >
<UnstructuredGrid>
<Piece  NumberOfPoints="289" NumberOfCells="512">
<Points>
<DataArray  type="Float64"  NumberOfComponents="3"  format="ascii">0 0 0  0.0625 0 0  0.125 0 0  0.1875 0 0  0.25 0 0  0.3125 0 0  0.375 0 0  0.4375 0 0  0.5 0 0  0.5625 0 0  0.625 0 0  0.6875 0 0  0.75 0 0  0.8125 0 0  0.875 0 0  0.9375 0 0  1 0 0  0 0.0625 0  0.06250340469637176 0.0624890777165363 0  0.1250075275618572 0.06247796583954301 0  0.1875131800314605 0.06246649221356349 0  0.2500213870804139 0.0624545257329823 0  0.3125335248470595 0.06244200240668498 0  0.3750515008408377 0.06242895712688906 0  0.4375780030922434 0.06241556070058948 0  0.5001168648912032 0.06240215835382487 0  0.5626736406818762 0.06238929982373803 0  0.6252566135012718 0.06237774059973967 0  0.6878787907616178 0.06236837578013033 0  0.7505624046253407 0.06236203410329027 0  0.8133503368583377 0.0623589778002861 0  0.8763382241501998 0.06235768022224469 0  0.9397729778506259 0.0623513596700126 0  1.004382619895211 0.06231680412045031 0  0 0.125 0  0.06250607685979247 0.1249783379962453 0  0.1250134953238123 0.1249562765461664 0  0.1875237753740145 0.1249334488610017 0  0.2500388461751598 0.1249095658789859 0  0.3125613103838222 0.1248844672444557 0  0.3750947891665676 0.1248581855509383 0  0.4376443927080377 0.1248310246728138 0  0.5002173869724811 0.1248036474248053 0  0.5628241830090226 0.124777157258009 0  0.6254798974849436 0.1247531405863356 0  0.6882070026131322 0.1247336087120252 0  0.7510401472085056 0.1247207463323705 0  0.8140352270481197 0.1247163782713804 0  0.8772855625454604 0.1247213147152559 0  0.9409426480380634 0.1247361821812218 0  1.005193979031665 0.1247720083512088 0  0 0.1875 0  0.06250741176437188 0.1874679927527763 0  0.1250166010968108 0.1874353388749739 0  0.1875295902053866 0.1874014348546945 0  0.2500489644688972 0.1873657819125083 0  0.3125782376255428 0.187328058520434 0  0.3751223271382119 0.1872882166145255 0  0.4376881922709746 0.1872466065951454 0  0.5002857036530801 0.1872041304705551 0  0.5629288374292513 0.1871624101436369 0  0.6256373196738351 0.1871239338322367 0  0.6884388692455288 0.1870921001356147 0  0.7513720961707627 0.1870710027403417 0  0.8144894920661622 0.1870646538343131 0  0.8778574309280399 0.1870749857312885 0  0.9415421459104732 0.1870966927684533 0  1.005552515497957 0.1871013961673946 0  0 0.25 0  0.06250699450266226 0.2499582909981223 0  0.1250159422916313 0.2499156388298166 0  0.1875290797345211 0.2498711461810642 0  0.2500492989397013 0.2498240312552173 0  0.3125805778385538 0.2497737146280044 0  0.3751285432486042 0.2497199427354929 0  0.437701223580222 0.2496629609762556 0  0.5003100518990352 0.2496037467498901 0  0.5629711701620342 0.2495443036066686 0  0.6257070348553411 0.2494879952346428 0  0.6885481673336601 0.2494398505888998 0  0.7515344728656475 0.2494066802037454 0  0.8147145312682527 0.2493966813691317 0  0.8781390534971486 0.2494179563462756 0  0.9418409520884569 0.2494751555382005 0  1.005791940432338 0.249564516796045 0  0 0.3125 0  0.06250466675077401 0.3124495305599174 0  0.1250111591046851 0.3123977682469376 0  0.1875215894587419 0.3123434578985239 0  0.2500387415015706 0.3122854470629072 0  0.3125665216832737 0.3122227744823995 0  0.3751105632105067 0.3121548083778934 0  0.4376790487414011 0.3120814583530188 0  0.5002838206240744 0.3120034890504252 0  0.5629418279285568 0.3119229646311931 0  0.6256768827495645 0.3118438436126288 0  0.6885214953780274 0.3117727094490322 0  0.7515181097719823 0.3117195385813818 0  0.8147182134164916 0.3116982393545984 0  0.8781765284285511 0.3117264188465085 0  0.9419365440526488 0.31182352258027 0  1.006005980012633 0.312006439262004 0  0 0.375 0  0.06250056387938027 0.3749420615676151 0  0.1250025163294315 0.3748824351017775 0  0.1875074969875878 0.3748194486171315 0  0.2500177435607455 0.3747514897237457 0  0.3125365132690024 0.3746770766542535 0  0.3750686720286555 0.3745949881566562 0  0.4376215361108576 0.3745044873921243 0  0.5002060695629292 0.3744056896916763 0  0.5628385466979385 0.3743001423503489 0  0.6255427530135633 0.3741917020164731 0  0.6883526626893243 0.3740877977861742 0  0.7513152060594712 0.3740011224068601 0  0.8144921386002625 0.3739516330031271 0  0.8779592211474349 0.3739683604480561 0  0.9418005656571791 0.3740898180200629 0  1.006097795506743 0.374360777775387 0  0 0.4375 0  0.06249511650956164 0.4374362784412231 0  0.1249909117041236 0.4373704502907362 0  0.1874882384448482 0.437300388749256 0  0.2499883793807262 0.4372239496053738 0  0.3124933780084576 0.4371390003115792 0  0.375006539726048 0.4370435071300678 0  0.4375332100910727 0.4369357228882537 0  0.5000819876789132 0.4368145441338213 0  0.5626665943831922 0.4366801472267687 0  0.6253086948432003 0.4365350713941999 0  0.6880419910419197 0.4363859886198695 0  0.7509178322467868 0.4362464553549711 0  0.8140122298523992 0.4361408837904657 0  0.8774334183623707 0.4361095770984184 0  0.94132814760126 0.4362135706922112 0  1.005884908045661 0.4365359443359129 0  0 0.5 0  0.06248901272833083 0.4999325976737322 0  0.1249778022221825 0.4998626843523349 0  0.1874662045009554 0.4997876796932368 0  0.2499542259498429 0.499704877591353 0  0.3124422172272244 0.4996114070869052 0  0.374931191580264 0.4995042351674803 0  0.4374234072232225 0.4993802517871299 0  0.4999234213686058 0.4992365116289089 0  0.5624399698898291 0.499070768134669 0  0.6249892553155351 0.4988825407503558 0  0.6876005464967367 0.4986751285506204 0  0.7503253499381078 0.4984592330416922 0  0.8132515723618394 0.4982591153552557 0  0.8765235004303538 0.4981221732901322 0  0.9403663426683579 0.498131600751339 0  1.005111168703573 0.4984178874264787 0  0 0.5625 0  0.06248311991346998 0.5624314203522961 0  0.1249650442441876 0.5623599907481736 0  0.1874444941985226 0.5622827352652635 0  0.2499200317478709 0.5621964237216696 0  0.3123900131759536 0.5620974431055141 0  0.3748526184330698 0.5619816767522285 0  0.4373060588830494 0.5618444147465548 0  0.4997491793885686 0.5616803510111182 0  0.562182890883659 0.5614837883760166 0  0.6246132804601803 0.5612493070610309 0  0.6870579671219782 0.5609734204351889 0  0.7495584082372241 0.5606582573042542 0  0.8122022875338987 0.5603192058838707 0  0.8751608673735251 0.5599996389195252 0  0.9387435207518739 0.5597960226245304 0  1.003462027422281 0.5598914427271887 0  0 0.625 0  0.06247836956447562 0.6249330812491052 0  0.1249546516194551 0.6248630984040353 0  0.1874265250710059 0.6247868064668758 0  0.2498911534404981 0.6247005780126316 0  0.312344877085488 0.6246001772465943 0  0.3747828639816435 0.6244804930423705 0  0.4371987577776034 0.6243352220553134 0  0.4995844630790034 0.6241565072123179 0  0.5619304446432596 0.6239345770820196 0  0.6242274453305696 0.6236575379079238 0  0.6864716502672397 0.6233117428101839 0  0.7486775600039972 0.6228838488619189 0  0.8109068124455826 0.6223673392299893 0  0.8733266642212404 0.6217799643415263 0  0.9363139853781729 0.6212045153001505 0  1.000605256380071 0.6208648821232348 0  0 0.6875 0  0.06247561535830411 0.6874377901154262 0  0.1249484905490994 0.6873724847091063 0  0.1874155215228247 0.6873007657487106 0  0.2498727720448928 0.6872188321342728 0  0.3123149097323974 0.687122089577038 0  0.3747344495334968 0.6870047469890044 0  0.43712073032145 0.6868592692583054 0  0.4994585804813369 0.6866756186437515 0  0.5617267642680038 0.6864401971983187 0  0.6238967324919723 0.6861343970672874 0  0.6859334046040835 0.6857327424330467 0  0.7478028141981252 0.6852010240926182 0  0.8094988910542643 0.6844965142404907 0  0.8711174359577244 0.6835784644339521 0  0.9330287942177568 0.6824565504777739 0  0.9961892610121488 0.6813387232669726 0  0 0.75 0  0.06247548327792597 0.7499455746528373 0  0.1249479499335482 0.7498882492305265 0  0.187413940674302 0.7498248843779477 0  0.2498689639334732 0.7497518123335224 0  0.3123067464824126 0.7496644798554251 0  0.3747181472297004 0.7495569579869978 0  0.4370895238520301 0.7494212331051535 0  0.4994002461691584 0.7492461429978428 0  0.5616189436909754 0.7490157310115213 0  0.6236980641434156 0.7487066250860769 0  0.6855668160613002 0.7482837423176728 0  0.7471249704119439 0.7476931027176589 0  0.8082487702295896 0.7468500502000819 0  0.8688487610852724 0.7456235255613 0  0.9291011469945374 0.7438423526055681 0  0.9900670593820389 0.741541338608284 0  0 0.8125 0  0.06247824082085592 0.8124562371751279 0  0.1249536465008126 0.8124100149168428 0  0.1874229378425344 0.8123586505553299 0  0.2498817867765367 0.812298962944786 0  0.3123240193128966 0.81222692467964 0  0.3747404026758355 0.8121371698874444 0  0.4371167044926183 0.8120222587593598 0  0.4994304859036612 0.8118715347463337 0  0.5616456819268394 0.8116692867939894 0  0.6237033079608174 0.8113916777130449 0  0.6855054993378734 0.8110013340722332 0  0.7468888689566454 0.8104370694892411 0  0.8075848673806192 0.809592298056878 0  0.8671862112422756 0.8082644504420872 0  0.9252694708512107 0.8060255042135127 0  0.9826809622151148 0.801873217822047 0  0 0.875 0  0.06248371620449083 0.874969336827111 0  0.1249652359681267 0.8749368840722273 0  0.1874420046616526 0.8749006792995917 0  0.2499106144205489 0.874858371455146 0  0.3123661363939217 0.8748069447009075 0  0.3748010729074551 0.8747423215738592 0  0.4372036147210282 0.8746587625916005 0  0.4995546148633712 0.8745479277828749 0  0.5618221265758035 0.8743973770644234 0  0.6239511531723847 0.874188131908341 0  0.685843616567974 0.873890624998144 0  0.7473175517370425 0.8734576385653429 0  0.8080206254976552 0.87281030335932 0  0.8672414110694645 0.8718021849381018 0  0.9235016107686856 0.8700952033312027 0  0.973805988091741 0.8666262674816511 0  0 0.9375 0  0.06249129412349232 0.9374842056268949 0  0.1249813942476843 0.9374674687221574 0  0.1874689079932747 0.9374487525198277 0  0.2499519681964145 0.9374268076288704 0  0.3124278558961038 0.9374000195964607 0  0.3748923996274885 0.9373661886179639 0  0.4373389569624201 0.9
[...]
<PointData  Vectors="f_54"> 
<DataArray  type="Float64"  Name="f_54"  NumberOfComponents="3" format="ascii">0.0000000000000000e+00 0.0000000000000000e+00 0.0000000000000000e+00  0.0000000000000000e+00 0.0000000000000000e+00 0.0000000000000000e+00  0.0000000000000000e+00 0.0000000000000000e+00 0.0000000000000000e+00  0.0000000000000000e+00 0.0000000000000000e+00 0.0000000000000000e+00  0.0000000000000000e+00 0.0000000000000000e+00 0.0000000000000000e+00  0.0000000000000000e+00 0.0000000000000000e+00 0.0000000000000000e+00  0.0000000000000000e+00 0.0000000000000000e+00 0.0000000000000000e+00  0.0000000000000000e+00 0.0000000000000000e+00 0.0000000000000000e+00  0.0000000000000000e+00 0.0000000000000000e+00 0.0000000000000000e+00  0.0000000000000000e+00 0.0000000000000000e+00 0.0000000000000000e+00  0.0000000000000000e+00 0.0000000000000000e+00 0.0000000000000000e+00  0.0000000000000000e+00 0.0000000000000000e+00 0.0000000000000000e+00  0.0000000000000000e+00 0.0000000000000000e+00 0.0000000000000000e+00  0.0000000000000000e+00 0.0000000000000000e+00 0.0000000000000000e+00  0.0000000000000000e+00 0.0000000000000000e+00 0.0000000000000000e+00  0.0000000000000000e+00 0.0000000000000000e+00 0.0000000000000000e+00  0.0000000000000000e+00 0.0000000000000000e+00 0.0000000000000000e+00  0.0000000000000000e+00 0.0000000000000000e+00 0.0000000000000000e+00  -4.6078383047390500e-06 -1.6997113100075649e-07 0.0000000000000000e+00  -9.3465794935499866e-06 -3.4182916629093584e-07 0.0000000000000000e+00  -1.4347965320736979e-05 -5.1700688942069711e-07 0.0000000000000000e+00  -1.9741811876787417e-05 -6.9584566389762370e-07 0.0000000000000000e+00  -2.5653697675729969e-05 -8.7688387077216896e-07 0.0000000000000000e+00  -3.2200935264637346e-05 -1.0559538695389035e-06 0.0000000000000000e+00  -3.9486351654410304e-05 -1.2250498616480042e-06 0.0000000000000000e+00  -4.7589775427748855e-05 -1.3709657900046255e-06 0.0000000000000000e+00  -5.6558247512886681e-05 -1.4737460710206514e-06 0.0000000000000000e+00  -6.6399132977781089e-05 -1.5049639703385215e-06 0.0000000000000000e+00  -7.7089405543841625e-05 -1.4254034139133009e-06 0.0000000000000000e+00  -8.8642108527355935e-05 -1.1795566473099205e-06 0.0000000000000000e+00  -1.0136203095096374e-04 -6.7537558825199822e-07 0.0000000000000000e+00  -1.1674599292260891e-04 2.9868741640333071e-07 0.0000000000000000e+00  -1.4074192940938542e-04 2.4218199219014434e-06 0.0000000000000000e+00  -1.9679288700009566e-04 8.4051289958701227e-06 0.0000000000000000e+00  0.0000000000000000e+00 0.0000000000000000e+00 0.0000000000000000e+00  -9.0836522010464950e-06 -3.3801251940221076e-07 0.0000000000000000e+00  -1.8430036702999504e-05 -6.8031627327801202e-07 0.0000000000000000e+00  -2.8304007885130935e-05 -1.0303588581734215e-06 0.0000000000000000e+00  -3.8967820487255362e-05 -1.3895390466385495e-06 0.0000000000000000e+00  -5.0677155512442140e-05 -1.7558398818775138e-06 0.0000000000000000e+00  -6.3673648051342595e-05 -2.1220557422362567e-06 0.0000000000000000e+00  -7.8172698932938852e-05 -2.4735175832613097e-06 0.0000000000000000e+00  -9.4345620781159461e-05 -2.7853005219273384e-06 0.0000000000000000e+00  -1.1229610242765987e-04 -3.0190579766342998e-06 0.0000000000000000e+00  -1.3203340034693737e-04 -3.1199009877717151e-06 0.0000000000000000e+00  -1.5345019888142735e-04 -3.0141657284506652e-06 0.0000000000000000e+00  -1.7632418105616141e-04 -2.6096742148428961e-06 0.0000000000000000e+00  -2.0037806380814838e-04 -1.8027578335522502e-06 0.0000000000000000e+00  -2.2541543034263110e-04 -5.1133411256709412e-07 0.0000000000000000e+00  -2.5121906868351418e-04 1.1573503147213499e-06 0.0000000000000000e+00  -2.7450488674664780e-04 1.9748489043252349e-06 0.0000000000000000e+00  0.0000000000000000e+00 0.0000000000000000e+00 0.0000000000000000e+00  -1.3294062370341512e-05 -5.0165770636613221e-07 0.0000000000000000e+00  -2.6983747249965463e-05 -1.0109721688802923e-06 0.0000000000000000e+00  -4.1468907654453662e-05 -1.5344979081613870e-06 0.0000000000000000e+00  -5.7148497924095878e-05 -2.0760597695889140e-06 0.0000000000000000e+00  -7.4416234821292186e-05 -2.6348571849746974e-06 0.0000000000000000e+00  -9.3651002314257416e-05 -3.2029115674795562e-06 0.0000000000000000e+00  -1.1519977626171400e-04 -3.7616514961231621e-06 0.0000000000000000e+00  -1.3935058940441191e-04 -4.2775169553337656e-06 0.0000000000000000e+00  -1.6629292502307475e-04 -4.6967006311696155e-06 0.0000000000000000e+00  -1.9606286625076659e-04 -4.9396818294578784e-06 0.0000000000000000e+00  -2.2846950070337541e-04 -4.8973271481828163e-06 0.0000000000000000e+00  -2.6299360756870042e-04 -4.4325877303727986e-06 0.0000000000000000e+00  -2.9862531607173178e-04 -3.3963593893371379e-06 0.0000000000000000e+00  -3.3351894076792991e-04 -1.6745250857806599e-06 0.0000000000000000e+00  -3.6407272072195342e-04 7.1048467270779820e-07 0.0000000000000000e+00  -3.8244985331095758e-04 3.5085749206653518e-06 0.0000000000000000e+00  0.0000000000000000e+00 0.0000000000000000e+00 0.0000000000000000e+00  -1.7104915667291039e-05 -6.5748430214166750e-07 0.0000000000000000e+00  -3.4738360625612677e-05 -1.3272561773392483e-06 0.0000000000000000e+00  -5.3436365562880769e-05 -2.0204406216131092e-06 0.0000000000000000e+00  -7.3739168989149598e-05 -2.7451820808500092e-06 0.0000000000000000e+00  -9.6188516669796391e-05 -3.5044410981382147e-06 0.0000000000000000e+00  -1.2131825438604156e-04 -4.2928599432306192e-06 0.0000000000000000e+00  -1.4963494901961308e-04 -5.0923100201018954e-06 0.0000000000000000e+00  -1.8158436651638009e-04 -5.8657406455135599e-06 0.0000000000000000e+00  -2.1749840335105576e-04 -6.5491063949143600e-06 0.0000000000000000e+00  -2.5751513427315991e-04 -7.0416709508390528e-06 0.0000000000000000e+00  -3.0146077856893120e-04 -7.1962770065742467e-06 0.0000000000000000e+00  -3.4867323343820743e-04 -6.8139474290203365e-06 0.0000000000000000e+00  -3.9772470390954303e-04 -5.6524942928742961e-06 0.0000000000000000e+00  -4.4595383748013452e-04 -3.4675783984232516e-06 0.0000000000000000e+00  -4.8865065810787622e-04 -1.1573014523282539e-07 0.0000000000000000e+00  -5.1779364549593568e-04 4.2399244178734127e-06 0.0000000000000000e+00  0.0000000000000000e+00 0.0000000000000000e+00 0.0000000000000000e+00  -2.0382514901517124e-05 -8.0081686394275868e-07 0.0000000000000000e+00  -4.1423774310416701e-05 -1.6199090812862338e-06 0.0000000000000000e+00  -6.3794692842491406e-05 -2.4745878798791433e-06 0.0000000000000000e+00  -8.8179681777103683e-05 -3.3795131715735286e-06 0.0000000000000000e+00  -1.1527823026530332e-04 -4.3445238928730135e-06 0.0000000000000000e+00  -1.4579901524589903e-04 -5.3712986127879212e-06 0.0000000000000000e+00  -1.8044245676465800e-04 -6.4482239278958437e-06 0.0000000000000000e+00  -2.1986613144434484e-04 -7.5426678045267786e-06 0.0000000000000000e+00  -2.6462540336463639e-04 -8.5897157689349742e-06 0.0000000000000000e+00  -3.1507881581543327e-04 -9.4765245703935593e-06 0.0000000000000000e+00  -3.7124375181983577e-04 -1.0022234136823658e-05 0.0000000000000000e+00  -4.3258179852861093e-04 -9.9557726814154162e-06 0.0000000000000000e+00  -4.9768461254865121e-04 -8.8994628844588569e-06 0.0000000000000000e+00  -5.6382412626609902e-04 -6.3771026486883419e-06 0.0000000000000000e+00  -6.2635160835379164e-04 -1.8821473645031897e-06 0.0000000000000000e+00  -6.7806536988793717e-04 4.9386578811743268e-06 0.0000000000000000e+00  0.0000000000000000e+00 0.0000000000000000e+00 0.0000000000000000e+00  -2.2996477953815588e-05 -9.2564325162815186e-07 0.0000000000000000e+00  -4.6774503862502295e-05 -1.8767191566748798e-06 0.0000000000000000e+00  -7.2133919099326088e-05 -2.8781908877484679e-06 0.0000000000000000e+00  -9.9901841792330440e-05 -3.9533895405091912e-06 0.0000000000000000e+00  -1.3094158403337541e-04 -5.1223429714927371e-06 0.0000000000000000e+00  -1.6615439505498366e-04 -6.3988386995428849e-06 0.0000000000000000e+00  -2.0646955747449298e-04 -7.7853857949628884e-06 0.0000000000000000e+00  -2.5281633217212601e-04 -9.2647963734478518e-06 0.0000000000000000e+00  -3.0606850402039015e-04 -1.0786469056248970e-05 0.0000000000000000e+00  -3.6694886967411638e-04 -1.2244673025033690e-05 0.0000000000000000e+00  -4.3587731802931186e-04 -1.3445516208206522e-05 0.0000000000000000e+00  -5.1274341226296473e-04 -1.4059819694031222e-05 0.0000000000000000e+00  -5.9658577518024232e-04 -1.3563155590239093e-05 0.0000000000000000e+00  -6.8517361285674373e-04 -1.1176127901855881e-05 0.0000000000000000e+00  -7.7452603805960743e-04 -5.8424950052927667e-06 0.0000000000000000e+00  -8.5849594805861059e-04 3.6818181789668357e-06 0.0000000000000000e+00  0.0000000000000000e+00 0.0000000000000000e+00 0.0000000000000000e+00  -2.4824542630351542e-05 -1.0248095991940515e-06 0.0000000000000000e+00  -5.0539179631112243e-05 -2.0828689443226145e-06 0.0000000000000000e+00  -7.8059677568690614e-05 -3.2077406653812896e-06 0.0000000000000000e+00  -1.0834697327352253e-04 -4.4330770639003074e-06 0.0000000000000000e+00  -1.4242650504393516e-04 -5.7919894006935424e-06 0.0000000000000000e+00  -1.8140205332481944e-04 -7.3153262686027733e-06 0.0000000000000000e+00  -2.2645983934229113e-04 -9.0279642577322160e-06 0.0000000000000000e+00  -2.7885612264168659e-04 -1.0941528759369108e-05 0.0000000000000000e+00  -3.3987801395184500e-04 -1.3040763559118984e-05 0.0000000000000000e+00  -4.1076276335311711e-04 -1.5258776386429700e-05 0.0000000000000000e+00  -4.9255619896725403e-04 -1.7433389656912758e-05 0.0000000000000000e+00  -5.8588872463444838e-04 -1.9233205305085460e-05 0.0000000000000000e+00  -6.9065280111702573e-04 -2.0040180343873208e-05 0.0000000000000000e+00  -8.0558829003188196e-04 -1.8782726859854976e-05 0.0000000000000000e+00  -9.2782946827374359e-04 -1.3743523337638930e-05 0.0000000000000000e+00  -1.0525265139625598e-03 -2.4312187602849038e-06 0.0000000000000000e+00  0.0000000000000000e+00 0.0000000000000000e+00 0.0000000000000000e+00  -2.5759398101778321e-05 -1.0905347383008741e-06 0.0000000000000000e+00  -5.2494432709330358e-05 -2.2219689914258961e-06 0.0000000000000000e+00  -8.1214529087195685e-05 -3.4365095955239977e-06 0.0000000000000000e+00  -1.1299504214886912e-04 -4.7787324044311270e-06 0.0000000000000000e+00  -1.4900957477211447e-04 -6.2964968113752705e-06 0.0000000000000000e+00  -1.9056010509718892e-04 -8.0413061853170651e-06 0.0000000000000000e+00  -2.3910171700740530e-04 -1.0067446494532441e-05 0.0000000000000000e+00  -2.9625587911780296e-04 -1.2428497828632928e-05 0.0000000000000000e+00  -3.6380180981963460e-04 -1.5168301355108718e-05 0.0000000000000000e+00  -4.4362921474173011e-04 -1.8300434138845961e-05 0.0000000000000000e+00  -5.3762808566650011e-04 -2.1764435846831801e-05 0.0000000000000000e+00  -6.4748508362955201e-04 -2.5336810919548815e-05 0.0000000000000000e+00  -7.7435921887981181e-04 -2.8459807619119499e-05 0.0000000000000000e+00  -9.1843844469061467e-04 -2.9937966506875833e-05 0.0000000000000000e+00  -1.0784531161175800e-03 -2.7468196260721760e-05 0.0000000000000000e+00  -1.2513215393862660e-03 -1.7062939358888123e-05 0.0000000000000000e+00  0.0000000000000000e+00 0.0000000000000000e+00 0.0000000000000000e+00  -2.5717295747355054e-05 -1.1152365409734578e-06 0.0000000000000000e+00  -5.2462758388740737e-05 -2.2777870131531366e-06 0.0000000000000000e+00  -8.1306328930247118e-05 -3.5373290864046724e-06 0.0000000000000000e+00  -1.1340528121506156e-04 -4.9484127275400420e-06 0.0000000000000000e+00  -1.5005094059444517e-04 -6.5732151080051086e-06 0.0000000000000000e+00  -1.9271817267284795e-04 -8.4846123457662110e-06 0.0000000000000000e+00  -2.4311655095406198e-04 -1.0769487720268968e-05 0.0000000000000000e+00  -3.0323932015816947e-04 -1.3531767433753358e-05 0.0000000000000000e+00  -3.7540124711202559e-04 -1.6893527607575063e-05 0.0000000000000000e+00  -4.6224802773522195e-04 -2.0989577744370626e-05 0.0000000000000000e+00  -5.6670719001426448e-04 -2.5943725886940547e-05 0.0000000000000000e+00  -6.9183466681166979e-04 -3.1798273698291139e-05 0.0000000000000000e+00  -8.4050129578091268e-04 -3.8333183051152009e-05 0.0000000000000000e+00  -1.0148884915881602e-03 -4.4650020064584510e-05 0.0000000000000000e+00  -1.2158890770886165e-03 -4.8333342954031628e-05 0.0000000000000000e+00  -1.4428288954932175e-03 -4.4071300252554067e-05 0.0000000000000000e+00  0.0000000000000000e+00 0.0000000000000000e+00 0.0000000000000000e+00  -2.4647792621240133e-05 -1.0925916794064898e-06 0.0000000000000000e+00  -5.0333103816322219e-05 -2.2365246241337940e-06 0.0000000000000000e+00  -7.8141879388438502e-05 -3.4864170553407795e-06 0.0000000000000000e+00  -1.0926628405491069e-04 -4.9039975136376741e-06 0.0000000000000000e+00  -1.4506533273504689e-04 -6.5626084134379918e-06 0.0000000000000000e+00  -1.8713461236340720e-04 -8.5530245935673535e-06 0.0000000000000000e+00  -2.3738735634868798e-04 -1.0991339835050688e-05 0.0000000000000000e+00  -2.9814723127535820e-04 -1.4029951327559030e-05 0.0000000000000000e+00  -3.7224864144564811e-04 -1.7872847771509868e-05 0.0000000000000000e+00  -4.6313071303083215e-04 -2.2795744651308817e-05 0.0000000000000000e+00  -5.7489273488849481e-04 -2.9167543776916213e-05 0.0000000000000000e+00  -7.1224800487782391e-04 -3.7454206382776555e-05 0.0000000000000000e+00  -8.8027241626205497e-04 -4.8137523263832902e-05 0.0000000000000000e+00  -1.0838262187579247e-03 -6.1348927003633912e-05 0.0000000000000000e+00  -1.3266564022863941e-03 -7.5741263584008548e-05 0.0000000000000000e+00  -1.6106553803741496e-03 -8.5868602384460115e-05 0.0000000000000000e+00  0.0000000000000000e+00 0.0000000000000000e+00 0.0000000000000000e+00  -2.2543551638740655e-05 -1.0186713298338975e-06 0.0000000000000000e+00  -4.6081994265108858e-05 -2.0893079360403989e-06 0.0000000000000000e+00  -7.1662537488183727e-05 -3.2677119462037229e-06 0.0000000000000000e+00  -1.0045114331557767e-04 -4.6182407304657142e-06 0.0000000000000000e+00  -1.3380396840829151e-04 -6.2194926002980249e-06 0.0000000000000000e+00  -1.7335471634968085e-04 -8.1720700397201012e-06 0.0000000000000000e+00  -2.2112461152576441e-04 -1.0609904939402557e-05 0.0000000000000000e+00  -2.7966197069689136e-04 -1.3717729026112154e-05 0.0000000000000000e+00  -3.5221649528334453e-04 -1.7759360103609340e-05 0.0000000000000000e+00  -4.4294595416621889e-04 -2.3125215243055675e-05 0.0000000000000000e+00  -5.5713279635110431e-04 -3.0413097009780605e-05 0.0000000000000000e+00  -7.0134286748363796e-04 -4.0560087181066841e-05 0.0000000000000000e+00  -8.8337161113432856e-04 -5.5022406659761606e-05 0.0000000000000000e+00  -1.1117016864018022e-03 -7.5854555926695800e-05 0.0000000000000000e+00  -1.3942336599296274e-03 -1.0492120647826611e-04 0.0000000000000000e+00  -1.7372801826496329e-03 -1.4034728216778106e-04 0.0000000000000000e+00  0.0000000000000000e+00 0.0000000000000000e+00 0.0000000000000000e+00  -1.9448732553144075e-05 -8.9293603953511490e-07 0.0000000000000000e+00  -3.9792119621732185e-05 -1.8344067684868948e-06 0.0000000000000000e+00  -6.1976827280858392e-05 -2.8768431492456860e-06 0.0000000000000000e+00  -8.7070527674288709e-05 -4.0814930408277307e-06 0.0000000000000000e+00  -1.1633799018315682e-04 -5.5243447583882398e-06 0.0000000000000000e+00  -1.5133883819390740e-04 -7.3042964749169896e-06 0.0000000000000000e+00  -1.9405844184510384e-04 -9.5552190927768366e-06 0.0000000000000000e+00  -2.4708717636208591e-04 -1.2464972607541356e-05 0.0000000000000000e+00  -3.1386716712075659e-04 -1.6307625635839401e-05 0.0000000000000000e+00  -3.9902669935418808e-04 -2.1502578982634421e-05 0.0000000000000000e+00  -5.0881210753871370e-04 -2.8731774130666000e-05 0.0000000000000000e+00  -6.5158335902948828e-04 -3.9185583373799211e-05 0.0000000000000000e+00  -8.3821337520881864e-04 -5.5086521115398921e-05 0.0000000000000000e+00  -1.0819292242563237e-03 -8.0735228454527586e-05 0.0000000000000000e+00  -1.3965913341257841e-03 -1.2392191981600660e-04 0.0000000000000000e+00  -1.7935773620629304e-03 -1.9008646671832025e-04 0.0000000000000000e+00  0.0000000000000000e+00 0.0000000000000000e+00 0.0000000000000000e+00  -1.5464258356631281e-05 -7.1886537525824138e-07 0.0000000000000000e+00  -3.1664658789934172e-05 -1.4786618234341427e-06 0.0000000000000000e+00  -4.9383752581138458e-05 -2.3237454678343077e-06 0.0000000000000000e+00  -6.9513979983895895e-05 -3.3062709368914637e-06 0.0000000000000000e+00  -9.3129376559920732e-05 -4.4913298256083041e-06 0.0000000000000000e+00  -1.2158150834784864e-04 -5.9638168119363226e-06 0.0000000000000000e+00  -1.5663451098443977e-04 -7.8380362140934087e-06 0.0000000000000000e+00  -2.0066171439115044e-04 -1.0271712583704681e-05 0.0000000000000000e+00  -2.5693799283081869e-04 -1.3487729351703022e-05 0.0000000000000000e+00  -3.3007826892830175e-04 -1.7811909104935408e-05 0.0000000000000000e+00  -4.2669048078396063e-04 -2.3751387700209607e-05 0.0000000000000000e+00  -5.5631370528833209e-04 -3.2191873110825268e-05 0.0000000000000000e+00  -7.3263467415317590e-04 -4.4968260825560254e-05 0.0000000000000000e+00  -9.7460407448996455e-04 -6.6647132352400538e-05 0.0000000000000000e+00  -1.3056810568322593e-03 -1.1059312392986250e-04 0.0000000000000000e+00  -1.7430386960896518e-03 -2.2648554114730848e-04 0.0000000000000000e+00  0.0000000000000000e+00 0.0000000000000000e+00 0.0000000000000000e+00  -1.0748263583361237e-05 -5.0406097180123404e-07 0.0000000000000000e+00  -2.2021522068827901e-05 -1.0377373503930709e-06 0.0000000000000000e+00  -3.4379942364821435e-05 -1.6331589464826051e-06 0.0000000000000000e+00  -4.8467973250430451e-05 -2.3281814870816267e-06 0.0000000000000000e+00  -6.5070971850175434e-05 -3.1700026275078221e-06 0.0000000000000000e+00  -8.5193402688402110e-05 -4.2196428399505703e-06 0.0000000000000000e+00  -1.1017330480888216e-04 -5.5572831919366904e-06 0.0000000000000000e+00  -1.4185717566279874e-04 -7.2876111709119860e-06 0.0000000000000000e+00  -1.8287617012711387e-04 -9.5419589696655163e-06 0.0000000000000000e+00  -2.3709405193988835e-04 -1.2468049360387141e-05 0.0000000000000000e+00  -3.1034906697162981e-04 -1.6184915728491522e-05 0.0000000000000000e+00  -4.1170213204645592e-04 -2.0657631934585459e-05 0.0000000000000000e+00  -5.5556271059340021e-04 -2.5433038411574162e-05 0.0000000000000000e+00  -7.6532352931709844e-04 -2.9286536501030607e-05 0.0000000000000000e+00  -1.0791027664366311e-03 -3.0368250602324311e-05 0.0000000000000000e+00  -1.5546627155817560e-03 -2.9032319635009371e-05 0.0000000000000000e+00  0.0000000000000000e+00 0.0000000000000000e+00 0.0000000000000000e+00  -5.5104545457225680e-06 -2.5978198089736804e-07 0.0000000000000000e+00  -1.1294475684784086e-05 -5.3510723822481553e-07 0.0000000000000000e+00  -1.7644690168471048e-05 -8.4284135780351101e-07 0.0000000000000000e+00  -2.4899721629733345e-05 -1.2028537084350344e-06 0.0000000000000000e+00  -3.3475718969516064e-05 -1.6398288301678281e-06 0.0000000000000000e+00  -4.3910847834221061e-05 -2.1853005759929841e-06 0.0000000000000000e+00  -5.6932175753101291e-05 -2.8794312528278872e-06 0.0000000000000000e+00  -7.3561182775818388e-05 -3.7706409300929826e-06 0.0000000000000000e+00  -9.5286673901582211e-05 -4.9068565721148907e-06 0.0000000000000000e+00  -1.2435601085282116e-04 -6.2989392367834957e-06 0.0000000000000000e+00  -1.6426851607389406e-04 -7.7964338780318754e-06 0.0000000000000000e+00  -2.2056997020079169e-04 -8.6929558050522172e-06 0.0000000000000000e+00  -3.0184930779968573e-04 -6.5232701021777736e-06 0.0000000000000000e+00  -4.1951563497402255e-04 6.3340063409344963e-06 0.0000000000000000e+00  -5.7952368596108771e-04 5.0233922736466071e-05 0.0000000000000000e+00  -7.4906577015064816e-04 1.6219855813047021e-04 0.0000000000000000e+00  0.0000000000000000e+00 0.0000000000000000e+00 0.0000000000000000e+00  0.0000000000000000e+00 0.0000000000000000e+00 0.0000000000000000e+00  0.0000000000000000e+00 0.0000000000000000e+00 0.0000000000000000e+00  0.0000000000000000e+00 0.0000000000000000e+00 0.0000000000000000e+00  0.0000000000000000e+00 0.0000000000000000e+00 0.0000000000000000e+00  0.0000000000000000e+00 0.0000000000