<?xml version="1.0"?>
<VTKFile type="UnstructuredGrid"  version="0.1"  >
<UnstructuredGrid>
<Piece  NumberOfPoints="289" NumberOfCells="512">
<Points>
<DataArray  type="Float64"  NumberOfComponents="3"  format="ascii">0 0 0  0.0625 0 0  0.125 0 0  0.1875 0 0  0.25 0 0  0.3125 0 0  0.375 0 0  0.4375 0 0  0.5 0 0  0.5625 0 0  0.625 0 0  0.6875 0 0  0.75 0 0  0.8125 0 0  0.875 0 0  0.9375 0 0  1 0 0  0 0.0625 0  0.06247501869523766 0.06246920795206347 0  0.1249501717363363 0.06243788146188751 0  0.1874256741113098 0.06240552634344207 0  0.2499020423705749 0.06237176574926375 0  0.3123802978061238 0.06233641553394113 0  0.3748622449819535 0.06229957796539518 0  0.4373508709354043 0.06226175421577359 0  0.4998509410722903 0.06222396766712263 0  0.5623699367637442 0.06218787471767106 0  0.6249196453004817 0.06215581383189202 0  0.6875191363126464 0.06213070283725215 0  0.750201004975943 0.0621156343591802 0  0.8130260222186516 0.06211293200997504 0  0.87612094313416 0.06212229304433113 0  0.9397829569761064 0.06213753637021633 0  1.004777032320962 0.06214551430040177 0  0 0.125 0  0.06244992434655335 0.1249389251805091 0  0.1248999910878132 0.1248767219293426 0  0.187350496629942 0.1248123362754866 0  0.2498023134099527 0.1247449354361554 0  0.3122572810229921 0.1246740544308105 0  0.3747187440278644 0.1245997842908983 0  0.4371923191475576 0.1245230073416597 0  0.4996870204234327 0.1244456711174444 0  0.5622169628328257 0.1243710654236425 0  0.6248040562143924 0.1243040194201483 0  0.6874825026695415 0.1242508606656685 0  0.7503067166079019 0.1242188814836395 0  0.8133656719488218 0.1242150034480739 0  0.8768079061618091 0.1242436139097595 0  0.9408766321618144 0.1243052875491507 0  1.005920208190763 0.124403948489031 0  0 0.1875 0  0.06242479547082949 0.1874097613316513 0  0.1248494844118426 0.187317692233479 0  0.1872741658973814 0.1872220581670868 0  0.2496997186810259 0.1871214202917739 0  0.3121283364236521 0.187014842120783 0  0.3745642668026914 0.1869021683219047 0  0.4370148588979861 0.1867843943381196 0  0.4994920624932295 0.1866641320454787 0  0.5620145842514184 0.1865461457343164 0  0.624610996935079 0.1864378700897562 0  0.6873242070683752 0.1863497048955795 0  0.7502176959193824 0.1862946698826049 0  0.8133833469976987 0.1862865982418096 0  0.876947816456067 0.1863350867100723 0  0.941065514914492 0.1864323771334515 0  1.00586853719486 0.1865161224489749 0  0 0.25 0  0.06239996476753747 0.2498824321403146 0  0.1247992207968468 0.2497621905744819 0  0.18719728274797 0.2496366985170549 0  0.2495945409552719 0.2495037011945656 0  0.3119928757177266 0.2493615100759748 0  0.3743965173503204 0.2492093556636281 0  0.4368132687592979 0.2490478904159827 0  0.4992562327230449 0.2488798796398417 0  0.5617462034596361 0.2487110980969977 0  0.6243148604800054 0.2485513945096326 0  0.6870087603180072 0.2484157608887966 0  0.74989365477818 0.2483249896865433 0  0.8130574207791071 0.2483050227459496 0  0.8766070985721918 0.2483832699882993 0  0.9406508182674967 0.2485791402275874 0  1.005252188881847 0.2488871905611447 0  0 0.3125 0  0.0623760956999195 0.312357790650562 0  0.1247504830686423 0.3122119140145451 0  0.1871216525111715 0.3120587725691418 0  0.2494889309046809 0.3118950485146328 0  0.3118530952550529 0.3117179476721318 0  0.3742172614086742 0.3115255874387323 0  0.4365881796043032 0.3113176007485002 0  0.4989780920523786 0.3110960449466109 0  0.5614073084407817 0.3108667150530208 0  0.623907586067011 0.3106409456353992 0  0.6865261667331606 0.3104379026733485 0  0.7493297570816214 0.3102871366670153 0  0.8124066371783834 0.3102306636135151 0  0.875863466851885 0.3103229320998968 0  0.9398124476251153 0.3106258279497331 0  1.00434884308254 0.3111952188504897 0  0 0.375 0  0.06235420780883475 0.3748368340256952 0  0.12470533174348 0.374668881333003 0  0.1870504143740476 0.3744913635103985 0  0.2493871429899944 0.3742996533393152 0  0.3117143712463651 0.3740894632929279 0  0.3740329309989769 0.3738572003306345 0  0.4363468906445115 0.3736005894435807 0  0.4986654617657908 0.3733197153174392 0  0.5610057895745317 0.3730186934119207 0  0.6233968400075274 0.3727082481357435 0  0.6858844287777746 0.3724095073751491 0  0.7485369885356737 0.3721592159069981 0  0.8114508299758358 0.3720161087325725 0  0.8747526511016598 0.3720670385147116 0  0.9385972087307949 0.3724294099575611 0  1.003162706070595 0.3732440996679703 0  0 0.4375 0  0.06233564243866908 0.437320677148472 0  0.1246665441695791 0.437135387561322 0  0.1869879699350006 0.4369380753382637 0  0.2492954804172386 0.4367226130935186 0  0.3115852604273166 0.4364828664238425 0  0.3738547267057833 0.4362129178280622 0  0.436103600565424 0.4359075705046592 0  0.4983357238844538 0.4355633314338376 0  0.5605620195779729 0.4351801997026267 0  0.6228051274490086 0.4347647750870827 0  0.6851063117052808 0.434335447096301 0  0.7475350806478543 0.433930637236674 0  0.8102013511225009 0.4336209402236188 0  0.8732688756972553 0.433524841515194 0  0.9369680322916096 0.4338245553239853 0  1.001609676377101 0.434773853771831 0  0 0.5 0  0.06232196560825777 0.4998104863020796 0  0.1246374205669695 0.499613873654735 0  0.1869396950538966 0.4994028460857894 0  0.2492219243357473 0.4991697092086247 0  0.3114770778033088 0.4989062596144173 0  0.3736982101210394 0.4986037634875292 0  0.4358791335572592 0.4982531545719924 0  0.4980158656975925 0.4978456607694701 0  0.560109463495064 0.4973742508884794 0  0.6221712474858018 0.4968366191415354 0  0.68423194127255 0.496240977922804 0  0.7463567411745916 0.4956167603155074 0  0.8086682789981956 0.4950332277531166 0  0.8713779155852118 0.4946288132078242 0  0.9348226152279234 0.494649952865294 0  0.9995053226843312 0.4954873522044429 0  0 0.5625 0  0.06231481037403273 0.5623073713003186 0  0.1246214587255385 0.5621067046404805 0  0.1869114300982025 0.5618896017471146 0  0.2491754255442894 0.5616469286979793 0  0.3114029981676 0.5613684356440571 0  0.3735822839120294 0.5610423870229966 0  0.4356999940501147 0.5606552611191149 0  0.497742038743652 0.5601916666673394 0  0.5596955463342499 0.5596348141145608 0  0.6215537759892757 0.558968282686422 0  0.6833266731418162 0.5581806691075418 0  0.7450616475485194 0.5572763988867135 0  0.8068809459646237 0.5562990166032258 0  0.8690412424680248 0.5553771088026556 0  0.9320130426940324 0.5548020601332895 0  0.9965622827296347 0.5551281529401236 0  0 0.625 0  0.06231566841900466 0.6248122426630534 0  0.1246219133695412 0.6246158670941899 0  0.1869087622743668 0.6244017599379417 0  0.2491648516785604 0.6241597232036641 0  0.3113766176121928 0.6238778291877186 0  0.3735273742736894 0.6235416506405689 0  0.4355963389372292 0.6231333328755854 0  0.4975578509373017 0.6226305091890499 0  0.5593814837605072 0.6220051691923552 0  0.6210347604549019 0.6212228974289234 0  0.6824923096758433 0.620243743532284 0  0.7437593783143913 0.6190282499584339 0  0.8049241213812733 0.6175579980812952 0  0.8662588067273546 0.6158932096231463 0  0.9283805201536629 0.6143069136849415 0  0.9924503331930206 0.6135084414511058 0  0 0.6875 0  0.06232565065741675 0.6873256506990877 0  0.1246412778031145 0.6871426199718811 0  0.1869361487300931 0.6869416340824792 0  0.2491976304997006 0.6867120687017951 0  0.3114099610979666 0.6864410825527129 0  0.3735526472309548 0.6861124867836462 0  0.4355983518087131 0.6857052054932802 0  0.4975102067371758 0.6851911276941972 0  0.5592387890157845 0.6845320845376311 0  0.6207199369232024 0.6836756553983016 0  0.6818771572218599 0.682549734099146 0  0.7426388613706985 0.6810571812676983 0  0.8029954643389764 0.6790780091143619 0  0.8631481520330729 0.6765107331282827 0  0.9238070672042857 0.6734659226651943 0  0.9865857210292411 0.6707385578199231 0  0 0.75 0  0.06234524881866518 0.7498476330984257 0  0.1246807541930985 0.7496871561230057 0  0.1869959832880268 0.749509834589373 0  0.2492782228572708 0.7493054738119529 0  0.311511068533358 0.7490614383168092 0  0.373672292720259 0.7487613082542018 0  0.4357307142392521 0.7483829398030817 0  0.4976415392669263 0.747895556259542 0  0.5593395164963595 0.747255240729259 0  0.6207294412960443 0.7463977215363164 0  0.6816750892835407 0.7452264394848716 0  0.7419939213246155 0.7435923636780487 0  0.8014862656905104 0.741260828739881 0  0.8600945563632385 0.7378703493762719 0  0.918462366182033 0.7329956120258242 0  0.9785655886084791 0.7274797598771797 0  0 0.8125 0  0.06237414134614915 0.8123776032781079 0  0.1247398084546502 0.8122483467893759 0  0.1870877734196293 0.8121047968893597 0  0.249406687189617 0.8119381558628824 0  0.3116815368508896 0.8117373206628128 0  0.3738913493010568 0.8114875594151003 0  0.4360055804306096 0.8111685492545768 0  0.4979782265324682 0.8107513531175641 0  0.5597379828348582 0.8101935959437715 0  0.6211715982626196 0.8094314386899344 0  0.6820960065102343 0.8083653996583599 0  0.7422144635299819 0.8068330534002088 0  0.8010618861314207 0.8045506021543614 0  0.8580088076189186 0.8009750054043939 0  0.9127514919976889 0.7949554286996562 0  0.969735566372331 0.7836551641595259 0  0 0.875 0  0.06241109213724562 0.8749143099236483 0  0.1248159229379695 0.8748236394632422 0  0.1872076412872316 0.8747225687877261 0  0.2495777152929976 0.8746046229380998 0  0.311914670773414 0.8744615333822525 0  0.374202148142197 0.8742821886595554 0  0.4364157103199602 0.8740510705755553 0  0.4985173294127627 0.8737458586357819 0  0.5604454271196377 0.8733337039851192 0  0.6220960904085536 0.8727653773285173 0  0.6832861700104861 0.8719658936705271 0  0.7436782739733641 0.8708182834968462 0  0.8026254725613939 0.8691285399871009 0  0.8588547159091576 0.866519807245714 0  0.9098792666194032 0.8620375403288241 0  0.951213751063047 0.8526538572649328 0  0 0.9375 0  0.06245398335073619 0.9374558875183221 0  0.1249046479602195 0.9374091563251424 0  0.1873483548448837 0.9373569498978289 0  0.2497805445289055 0.9372958375902477 0  0.3121950360548935 0.9372214105367358 0  0.3745829294627488 0.9371277064635329 0  0.4369307637947523 0.937006358323
[...]
<PointData  Vectors="f_54"> 
<DataArray  type="Float64"  Name="f_54"  NumberOfComponents="3" format="ascii">0.0000000000000000e+00 0.0000000000000000e+00 0.0000000000000000e+00  0.0000000000000000e+00 0.0000000000000000e+00 0.0000000000000000e+00  0.0000000000000000e+00 0.0000000000000000e+00 0.0000000000000000e+00  0.0000000000000000e+00 0.0000000000000000e+00 0.0000000000000000e+00  0.0000000000000000e+00 0.0000000000000000e+00 0.0000000000000000e+00  0.0000000000000000e+00 0.0000000000000000e+00 0.0000000000000000e+00  0.0000000000000000e+00 0.0000000000000000e+00 0.0000000000000000e+00  0.0000000000000000e+00 0.0000000000000000e+00 0.0000000000000000e+00  0.0000000000000000e+00 0.0000000000000000e+00 0.0000000000000000e+00  0.0000000000000000e+00 0.0000000000000000e+00 0.0000000000000000e+00  0.0000000000000000e+00 0.0000000000000000e+00 0.0000000000000000e+00  0.0000000000000000e+00 0.0000000000000000e+00 0.0000000000000000e+00  0.0000000000000000e+00 0.0000000000000000e+00 0.0000000000000000e+00  0.0000000000000000e+00 0.0000000000000000e+00 0.0000000000000000e+00  0.0000000000000000e+00 0.0000000000000000e+00 0.0000000000000000e+00  0.0000000000000000e+00 0.0000000000000000e+00 0.0000000000000000e+00  0.0000000000000000e+00 0.0000000000000000e+00 0.0000000000000000e+00  0.0000000000000000e+00 0.0000000000000000e+00 0.0000000000000000e+00  -1.2588847080083311e-06 -4.8055315075286122e-08 0.0000000000000000e+00  -2.5767132046377526e-06 -9.7397029755503581e-08 0.0000000000000000e+00  -4.0170313799826008e-06 -1.4930036580934744e-07 0.0000000000000000e+00  -5.6506003356876042e-06 -2.0490565659806759e-07 0.0000000000000000e+00  -7.5596639552808800e-06 -2.6508356869547733e-07 0.0000000000000000e+00  -9.8430485352539701e-06 -3.3019660999294725e-07 0.0000000000000000e+00  -1.2622707899442355e-05 -3.9968074449042698e-07 0.0000000000000000e+00  -1.6053014761660980e-05 -4.7131218799869811e-07 0.0000000000000000e+00  -2.0335943823244844e-05 -5.3989352309684606e-07 0.0000000000000000e+00  -2.5750339074416537e-05 -5.9475562487225078e-07 0.0000000000000000e+00  -3.2717776321495578e-05 -6.1447339023640079e-07 0.0000000000000000e+00  -4.1970404834064227e-05 -5.5390530848690693e-07 0.0000000000000000e+00  -5.5023593414591918e-05 -3.0690892805910698e-07 0.0000000000000000e+00  -7.5632650275227908e-05 4.1703825029546260e-07 0.0000000000000000e+00  -1.1472334397805737e-04 2.5510509778331920e-06 0.0000000000000000e+00  -2.0918162751577528e-04 9.5902906003389937e-06 0.0000000000000000e+00  0.0000000000000000e+00 0.0000000000000000e+00 0.0000000000000000e+00  -2.4565789358823642e-06 -9.4738039287596756e-08 0.0000000000000000e+00  -5.0275229280956452e-06 -1.9210313159503647e-07 0.0000000000000000e+00  -7.8360001049481318e-06 -2.9472064526812668e-07 0.0000000000000000e+00  -1.1019148975433949e-05 -4.0500403648647698e-07 0.0000000000000000e+00  -1.4736289522649810e-05 -5.2493299744418270e-07 0.0000000000000000e+00  -1.9178592015062622e-05 -6.5565391656769486e-07 0.0000000000000000e+00  -2.4581054083126853e-05 -7.9677882204333524e-07 0.0000000000000000e+00  -3.1238342323318361e-05 -9.4518185119418536e-07 0.0000000000000000e+00  -3.9527835661264751e-05 -1.0929572533714278e-06 0.0000000000000000e+00  -4.9947589998268755e-05 -1.2239583933416410e-06 0.0000000000000000e+00  -6.3187352296268319e-05 -1.3078962541181960e-06 0.0000000000000000e+00  -8.0273967842097097e-05 -1.2903447523955581e-06 0.0000000000000000e+00  -1.0287686119573594e-04 -1.0774615414479176e-06 0.0000000000000000e+00  -1.3390133931949711e-04 -5.2606608331971346e-07 0.0000000000000000e+00  -1.7824117484126423e-04 4.6165225200567488e-07 0.0000000000000000e+00  -2.4088478253961418e-04 1.0745244973358433e-06 0.0000000000000000e+00  0.0000000000000000e+00 0.0000000000000000e+00 0.0000000000000000e+00  -3.5366332017360024e-06 -1.3866475141845786e-07 0.0000000000000000e+00  -7.2363553245681482e-06 -2.8138262803713996e-07 0.0000000000000000e+00  -1.1274509970364365e-05 -4.3224873140490353e-07 0.0000000000000000e+00  -1.5846317489378711e-05 -5.9516788558009063e-07 0.0000000000000000e+00  -2.1178494933155047e-05 -7.7362513501685035e-07 0.0000000000000000e+00  -2.7542745030866138e-05 -9.7024891231795904e-07 0.0000000000000000e+00  -3.5271831146755737e-05 -1.1860265816112189e-06 0.0000000000000000e+00  -4.4779096453432297e-05 -1.4189591580288781e-06 0.0000000000000000e+00  -5.6582598928222726e-05 -1.6618470766309894e-06 0.0000000000000000e+00  -7.1335571461960198e-05 -1.8988166742167655e-06 0.0000000000000000e+00  -8.9865109286006684e-05 -2.1002733984365581e-06 0.0000000000000000e+00  -1.1321702107670582e-04 -2.2166959088520638e-06 0.0000000000000000e+00  -1.4267969672725767e-04 -2.1745243026402163e-06 0.0000000000000000e+00  -1.7965106360698528e-04 -1.8856735019116496e-06 0.0000000000000000e+00  -2.2482697068830688e-04 -1.2960435864844352e-06 0.0000000000000000e+00  -2.7512736230325799e-04 -4.4147553671296617e-07 0.0000000000000000e+00  0.0000000000000000e+00 0.0000000000000000e+00 0.0000000000000000e+00  -4.4496361367841792e-06 -1.7837533902290734e-07 0.0000000000000000e+00  -9.1015993803420506e-06 -3.6230211510585207e-07 0.0000000000000000e+00  -1.4172897803100792e-05 -5.5745437654589066e-07 0.0000000000000000e+00  -1.9905158596744536e-05 -7.6945216721062144e-07 0.0000000000000000e+00  -2.6579049665878514e-05 -1.0037157508025609e-06 0.0000000000000000e+00  -3.4530986314989266e-05 -1.2651302689099964e-06 0.0000000000000000e+00  -4.4172686022472414e-05 -1.5573870793259007e-06 0.0000000000000000e+00  -5.6013669906440366e-05 -1.8817943714541278e-06 0.0000000000000000e+00  -7.0685674045134031e-05 -2.2352549860386272e-06 0.0000000000000000e+00  -8.8965237458256061e-05 -2.6070352470263853e-06 0.0000000000000000e+00  -1.1178426067453075e-04 -2.9740473656141035e-06 0.0000000000000000e+00  -1.4020244712409315e-04 -3.2950662843649218e-06 0.0000000000000000e+00  -1.7527653563516259e-04 -3.5065793076541500e-06 0.0000000000000000e+00  -2.1767065305127565e-04 -3.5285500697913990e-06 0.0000000000000000e+00  -2.6667734252292652e-04 -3.2991238490461433e-06 0.0000000000000000e+00  -3.1816076092898926e-04 -2.8778624366854107e-06 0.0000000000000000e+00  0.0000000000000000e+00 0.0000000000000000e+00 0.0000000000000000e+00  -5.1561404089501284e-06 -2.1235108838962769e-07 0.0000000000000000e+00  -1.0542119841401034e-05 -4.3175935584443249e-07 0.0000000000000000e+00  -1.6403648442922942e-05 -6.6551312770053478e-07 0.0000000000000000e+00  -2.3014311779042799e-05 -9.2108555790882620e-07 0.0000000000000000e+00  -3.0692114834121308e-05 -1.2061565120953899e-06 0.0000000000000000e+00  -3.9818966811259574e-05 -1.5285094926794832e-06 0.0000000000000000e+00  -5.0863863047029307e-05 -1.8956998812278514e-06 0.0000000000000000e+00  -6.4409861959428962e-05 -2.3143102287455218e-06 0.0000000000000000e+00  -8.1183276313728827e-05 -2.7884694914933836e-06 0.0000000000000000e+00  -1.0207966389094051e-04 -3.3170931210673551e-06 0.0000000000000000e+00  -1.2817303406464746e-04 -3.8890076634890107e-06 0.0000000000000000e+00  -1.6067827679945180e-04 -4.4748870747194999e-06 0.0000000000000000e+00  -2.0080626961747802e-04 -5.0151847261808252e-06 0.0000000000000000e+00  -2.4940215989359128e-04 -5.4048966414568283e-06 0.0000000000000000e+00  -3.0620758315825440e-04 -5.4797582529378605e-06 0.0000000000000000e+00  -3.6864117681112234e-04 -5.0106563447766599e-06 0.0000000000000000e+00  0.0000000000000000e+00 0.0000000000000000e+00 0.0000000000000000e+00  -5.6289677851576304e-06 -2.3908365472265157e-07 0.0000000000000000e+00  -1.1502034430402413e-05 -4.8662675760055250e-07 0.0000000000000000e+00  -1.7878965437497986e-05 -7.5143672044519789e-07 0.0000000000000000e+00  -2.5048761817639806e-05 -1.0428078770341116e-06 0.0000000000000000e+00  -3.3347424913421192e-05 -1.3707680707592768e-06 0.0000000000000000e+00  -4.3179596822003420e-05 -1.7463071904126683e-06 0.0000000000000000e+00  -5.5045525944772067e-05 -2.1815478093153443e-06 0.0000000000000000e+00  -6.9574545078051781e-05 -2.6897507725377183e-06 0.0000000000000000e+00  -8.7565148151626837e-05 -3.2848857773530942e-06 0.0000000000000000e+00  -1.1002879106693564e-04 -3.9801223557002668e-06 0.0000000000000000e+00  -1.3822794900604529e-04 -4.7837911364444584e-06 0.0000000000000000e+00  -1.7368622898911902e-04 -5.6897980173119352e-06 0.0000000000000000e+00  -2.1812763165224750e-04 -6.6568886675508537e-06 0.0000000000000000e+00  -2.7327787313063929e-04 -7.5681108165444955e-06 0.0000000000000000e+00  -3.4045794503303063e-04 -8.1611131689095652e-06 0.0000000000000000e+00  -4.1998292175251313e-04 -7.9272506329655760e-06 0.0000000000000000e+00  0.0000000000000000e+00 0.0000000000000000e+00 0.0000000000000000e+00  -5.8547083621931325e-06 -2.5718837726724798e-07 0.0000000000000000e+00  -1.1953910276523756e-05 -5.2399588320580643e-07 0.0000000000000000e+00  -1.8556073744806644e-05 -8.1048843471403637e-07 0.0000000000000000e+00  -2.5947879939388739e-05 -1.1275230763472099e-06 0.0000000000000000e+00  -3.4461886571483959e-05 -1.4872294568149853e-06 0.0000000000000000e+00  -4.4499028114075509e-05 -1.9036044282088305e-06 0.0000000000000000e+00  -5.6558463743172772e-05 -2.3932813156419931e-06 0.0000000000000000e+00  -7.1277960768662858e-05 -2.9765330929752627e-06 0.0000000000000000e+00  -8.9488484131239527e-05 -3.6784923527614956e-06 0.0000000000000000e+00  -1.1228622439066167e-04 -4.5302520889205947e-06 0.0000000000000000e+00  -1.4112241905410669e-04 -5.5685186536721121e-06 0.0000000000000000e+00  -1.7790350241536396e-04 -6.8298604647280513e-06 0.0000000000000000e+00  -2.2507919875173907e-04 -8.3296331388012809e-06 0.0000000000000000e+00  -2.8567913760345543e-04 -1.0004764236161340e-05 0.0000000000000000e+00  -3.6326902120040411e-04 -1.1586380498972713e-05 0.0000000000000000e+00  -4.6190700322134453e-04 -1.2364773965973202e-05 0.0000000000000000e+00  0.0000000000000000e+00 0.0000000000000000e+00 0.0000000000000000e+00  -5.8342119434064037e-06 -2.6554292296732226e-07 0.0000000000000000e+00  -1.1899962049920358e-05 -5.4148200099413288e-07 0.0000000000000000e+00  -1.8439609329672321e-05 -8.3871493243117775e-07 0.0000000000000000e+00  -2.5719909850900797e-05 -1.1691667582175429e-06 0.0000000000000000e+00  -3.4047740722088024e-05 -1.5464549844938254e-06 0.0000000000000000e+00  -4.3791138807927170e-05 -1.9867833019484546e-06 0.0000000000000000e+00  -5.5409203637904835e-05 -2.5102392783312539e-06 0.0000000000000000e+00  -6.9496355684193551e-05 -3.1427879175889631e-06 0.0000000000000000e+00  -8.6849258975605007e-05 -3.9194198107919459e-06 0.0000000000000000e+00  -1.0856829130186949e-04 -4.8890528787140520e-06 0.0000000000000000e+00  -1.3620873726685927e-04 -6.1215147779342895e-06 0.0000000000000000e+00  -1.7199670451957178e-04 -7.7148940078339010e-06 0.0000000000000000e+00  -2.1911482552401987e-04 -9.7939047479213431e-06 0.0000000000000000e+00  -2.8203962001425862e-04 -1.2468588487398789e-05 0.0000000000000000e+00  -3.6690959111176664e-04 -1.5680937585770180e-05 0.0000000000000000e+00  -4.8206441007657782e-04 -1.8834133371962637e-05 0.0000000000000000e+00  0.0000000000000000e+00 0.0000000000000000e+00 0.0000000000000000e+00  -5.5818704188201404e-06 -2.6342314077933444e-07 0.0000000000000000e+00  -1.1370779466860360e-05 -5.3752622006489243e-07 0.0000000000000000e+00  -1.7580200807651595e-05 -8.3348477708442387e-07 0.0000000000000000e+00  -2.4441325903157575e-05 -1.1636125375039759e-06 0.0000000000000000e+00  -3.2214640582716666e-05 -1.5421012545123204e-06 0.0000000000000000e+00  -4.1206194932283156e-05 -1.9860342561361037e-06 0.0000000000000000e+00  -5.1792555436757719e-05 -2.5169138818253792e-06 0.0000000000000000e+00  -6.4461559343402181e-05 -3.1631722811201395e-06 0.0000000000000000e+00  -7.9881389922350569e-05 -3.9646095003117321e-06 0.0000000000000000e+00  -9.9019269445725004e-05 -4.9806421881113208e-06 0.0000000000000000e+00  -1.2334395870410977e-04 -6.3059043476536281e-06 0.0000000000000000e+00  -1.5516130760094758e-04 -8.0987901651601647e-06 0.0000000000000000e+00  -1.9813838195824107e-04 -1.0627109407064517e-05 0.0000000000000000e+00  -2.5804071946945484e-04 -1.4312439188835415e-05 0.0000000000000000e+00  -3.4363177378815253e-04 -1.9659582606506451e-05 0.0000000000000000e+00  -4.6783588713308059e-04 -2.6741447313796962e-05 0.0000000000000000e+00  0.0000000000000000e+00 0.0000000000000000e+00 0.0000000000000000e+00  -5.1235624517702509e-06 -2.5060561558399160e-07 0.0000000000000000e+00  -1.0421211027101159e-05 -5.1162490669212537e-07 0.0000000000000000e+00  -1.6068358505852174e-05 -7.9390183793528237e-07 0.0000000000000000e+00  -2.2249160357833664e-05 -1.1093839138645444e-06 0.0000000000000000e+00  -2.9161826706380694e-05 -1.4718035575107612e-06 0.0000000000000000e+00  -3.7026438337258906e-05 -1.8975700032302193e-06 0.0000000000000000e+00  -4.6098477064877943e-05 -2.4070587808907438e-06 0.0000000000000000e+00  -5.6694912698967147e-05 -3.0267075249958062e-06 0.0000000000000000e+00  -6.9246909798943005e-05 -3.7928966312790007e-06 0.0000000000000000e+00  -8.4407077553588965e-05 -4.7600731153788350e-06 0.0000000000000000e+00  -1.0326452351022846e-04 -6.0193602896362308e-06 0.0000000000000000e+00  -1.2776346002824269e-04 -7.7430949728989133e-06 0.0000000000000000e+00  -1.6147816679770382e-04 -1.0290370515140697e-05 0.0000000000000000e+00  -2.1091351380045042e-04 -1.4434483289899575e-05 0.0000000000000000e+00  -2.8726320199273282e-04 -2.1707894140336713e-05 0.0000000000000000e+00  -4.0825885758410854e-04 -3.4284380592751317e-05 0.0000000000000000e+00  0.0000000000000000e+00 0.0000000000000000e+00 0.0000000000000000e+00  -4.4933157772606928e-06 -2.2741364774530428e-07 0.0000000000000000e+00  -9.1233936540597893e-06 -4.6443038403812321e-07 0.0000000000000000e+00  -1.4023301126635985e-05 -7.2098043860956815e-07 0.0000000000000000e+00  -1.9324963541817307e-05 -1.0079474168568947e-06 0.0000000000000000e+00  -2.5156927253499597e-05 -1.3376916064454669e-06 0.0000000000000000e+00  -3.1640874546101331e-05 -1.7246343375535463e-06 0.0000000000000000e+00  -3.8887708632418419e-05 -2.1859120714013873e-06 0.0000000000000000e+00  -4.6996750635669665e-05 -2.7421246160139505e-06 0.0000000000000000e+00  -5.6068315144086112e-05 -3.4183582735183959e-06 0.0000000000000000e+00  -6.6255663591797189e-05 -4.2464487833527928e-06 0.0000000000000000e+00  -7.7917658937678720e-05 -5.2726540757479893e-06 0.0000000000000000e+00  -9.2009909452362424e-05 -6.5867268929995858e-06 0.0000000000000000e+00  -1.1100917264918336e-04 -8.4293164796572816e-06 0.0000000000000000e+00  -1.4093169381006578e-04 -1.1568532084480908e-05 0.0000000000000000e+00  -1.9492157931234205e-04 -1.8494320802793634e-05 0.0000000000000000e+00  -2.9573717008501337e-04 -3.5741331647741064e-05 0.0000000000000000e+00  0.0000000000000000e+00 0.0000000000000000e+00 0.0000000000000000e+00  -3.7290360099869389e-06 -1.9470003846742216e-07 0.0000000000000000e+00  -7.5575625067318352e-06 -3.9770563463427772e-07 0.0000000000000000e+00  -1.1577458521176817e-05 -6.1754168046055269e-07 0.0000000000000000e+00  -1.5870779341220260e-05 -8.6348639002716354e-07 0.0000000000000000e+00  -2.0500350619715804e-05 -1.1459202332394947e-06 0.0000000000000000e+00  -2.5494581269231129e-05 -1.4765965921910992e-06 0.0000000000000000e+00  -3.0823536132312949e-05 -1.8686538629603663e-06 0.0000000000000000e+00  -3.6363274210924438e-05 -2.3359080240723657e-06 0.0000000000000000e+00  -4.1847840332475406e-05 -2.8903199083461666e-06 0.0000000000000000e+00  -4.6818405675448900e-05 -3.5351914284333356e-06 0.0000000000000000e+00  -5.0611043094094455e-05 -4.2494930442284290e-06 0.0000000000000000e+00  -5.2515369608382807e-05 -4.9582787116271330e-06 0.0000000000000000e+00  -5.2484002933182676e-05 -5.5026225918261552e-06 0.0000000000000000e+00  -5.3463016643756922e-05 -5.7507137684816295e-06 0.0000000000000000e+00  -6.8391613776520985e-05 -6.7518107479398606e-06 0.0000000000000000e+00  -1.3214133127508989e-04 -1.8762553978625557e-05 0.0000000000000000e+00  0.0000000000000000e+00 0.0000000000000000e+00 0.0000000000000000e+00  -2.8679915698618519e-06 -1.5378024005173335e-07 0.0000000000000000e+00  -5.8020817108466059e-06 -3.1416643815549387e-07 0.0000000000000000e+00  -8.8589342481501778e-06 -4.8789883109237457e-07 0.0000000000000000e+00  -1.2080263847493356e-05 -6.8228049936052486e-07 0.0000000000000000e+00  -1.5478849170350000e-05 -9.0541390344753005e-07 0.0000000000000000e+00  -1.9015086849307351e-05 -1.1663404187202948e-06 0.0000000000000000e+00  -2.2557206683696600e-05 -1.4748921905535065e-06 0.0000000000000000e+00  -2.5814169711439201e-05 -1.8407253628943947e-06 0.0000000000000000e+00  -2.8224535564438751e-05 -2.2700214581521296e-06 0.0000000000000000e+00  -2.8779233373863583e-05 -2.7554858681279775e-06 0.0000000000000000e+00  -2.5761222634726612e-05 -3.2471924685380398e-06 0.0000000000000000e+00  -1.6436636907083493e-05 -3.5707252282235439e-06 0.0000000000000000e+00  3.0540055015645600e-06 -3.2123553220085799e-06 0.0000000000000000e+00  3.6610477133543521e-05 -8.1880872454134594e-07 0.0000000000000000e+00  8.2145145064013624e-05 6.7852207102145770e-06 0.0000000000000000e+00  9.6603131634962706e-05 2.7175847128156380e-05 0.0000000000000000e+00  0.0000000000000000e+00 0.0000000000000000e+00 0.0000000000000000e+00  -1.9430084813280940e-06 -1.0634246293998901e-07 0.0000000000000000e+00  -3.9248320067918550e-06 -2.1727945517178194e-07 0.0000000000000000e+00  -5.9757313526086749e-06 -3.3748407208171076e-07 0.0000000000000000e+00  -8.1111828834911430e-06 -4.7202355806989822e-07 0.0000000000000000e+00  -1.0317876665424697e-05 -6.2654877052396489e-07 0.0000000000000000e+00  -1.2529473042466175e-05 -8.0749223641057646e-07 0.0000000000000000e+00  -1.4583396449027259e-05 -1.0223059780518804e-06 0.0000000000000000e+00  -1.6142689142849651e-05 -1.2798387926311462e-06 0.0000000000000000e+00  -1.6553295678555200e-05 -1.5910501522876034e-06 0.0000000000000000e+00  -1.4582458331864642e-05 -1.9699724701001837e-06 0.0000000000000000e+00  -7.9436362178741990e-06 -2.4315412997265729e-06 0.0000000000000000e+00  7.5335179422937011e-06 -2.9645649289712213e-06 0.0000000000000000e+00  3.9199702194909670e-05 -3.3830984376689553e-06 0.0000000000000000e+00  9.8959824312155669e-05 -2.7456641308974953e-06 0.0000000000000000e+00  2.0191054262808523e-04 2.2276904143094030e-06 0.0000000000000000e+00  3.5236064874091257e-04 1.9641181383035972e-05 0.0000000000000000e+00  0.0000000000000000e+00 0.0000000000000000e+00 0.0000000000000000e+00  -9.8035912836443713e-07 -5.4358265751915301e-08 0.0000000000000000e+00  -1.9782919764527703e-06 -1.1107701180485923e-07 0.0000000000000000e+00  -3.0062884993088344e-06 -1.7255571395557936e-07 0.0000000000000000e+00  -4.0676728601886811e-06 -2.4140836013496519e-07 0.0000000000000000e+00  -5.1477852857101058e-06 -3.2059314930777601e-07 0.0000000000000000e+00  -6.1983400054443177e-06 -4.1362707654077158e-07 0.0000000000000000e+00  -7.1085856517819136e-06 -5.2509380441854114e-07 0.0000000000000000e+00  -7.6506799565501742e-06 -6.6215651122415974e-07 0.0000000000000000e+00  -7.3736355876125730e-06 -8.3948148097358657e-07 0.0000000000000000e+00  -5.3929766321557234e-06 -1.0956600295627821e-06 0.0000000000000000e+00  3.0033398528215704e-08 -1.5479996891851458e-06 0.0000000000000000e+00  1.2305724834944998e-05 -2.5715646219483719e-06 0.0000000000000000e+00  3.7887882113532608e-05 -5.3465473337117695e-06 0.0000000000000000e+00  8.7333001838801246e-05 -1.3234632921772464e-05 0.0000000000000000e+00  1.7000039625744142e-04 -3.3344644642539549e-05 0.0000000000000000e+00  2.6909219253473318e-04 -6.9873792919888019e-05 0.0000000000000000e+00  0.0000000000000000e+00 0.0000000000000000e+00 0.0000000000000000e+00  0.0000000000000000e+00 0.0000000000000000e+00 0.0000000000000000e+00  0.0000000000000000e+00 0.0000000000000000e+00 0.0000000000000000e+00  0.0000000000000000e+00 0.0000000000000000e+00 0.0000000000000000e+00  0.0000000000000000e+00 0.0000000000000000e+00 0.0000000000000000e+00  0.0000000000000000e+00 0.0000000000000000e+00 