<?xml version="1.0"?>
<VTKFile type="UnstructuredGrid"  version="0.1"  >
<UnstructuredGrid>
<Piece  NumberOfPoints="289" NumberOfCells="512">
<Points>
<DataArray  type="Float64"  NumberOfComponents="3"  format="ascii">0 0 0  0.0625 0 0  0.125 0 0  0.1875 0 0  0.25 0 0  0.3125 0 0  0.375 0 0  0.4375 0 0  0.5 0 0  0.5625 0 0  0.625 0 0  0.6875 0 0  0.75 0 0  0.8125 0 0  0.875 0 0  0.9375 0 0  1 0 0  0 0.0625 0  0.06253603672438268 0.0624936368038469 0  0.125072872060487 0.06248715946529212 0  0.1876112658191435 0.06248046427625793 0  0.2501518781006666 0.06247347110603468 0  0.3126951945435597 0.06246613871197103 0  0.3752414189051346 0.06245848382117845 0  0.4377903175871907 0.0624506040868265 0  0.5003409952608814 0.06244270329074576 0  0.5628915693480249 0.06243511397094343 0  0.6254386829353247 0.06242830727972994 0  0.6879767166434561 0.06242287180109606 0  0.7504963168015177 0.06241943307440543 0  0.8129810426836613 0.06241847944373548 0  0.8753979490737558 0.06242008252126544 0  0.9376659327030931 0.06242369356363614 0  0.9995334166572842 0.06243008365526317 0  0 0.125 0  0.0625712723589915 0.1249873875884018 0  0.1251441924083782 0.124974535704534 0  0.1877203412228393 0.1249612243134945 0  0.2503011246253188 0.1249472777168627 0  0.312887639322621 0.1249325942269803 0  0.3754804787942562 0.124917184273467 0  0.4380794521255468 0.1249012180577487 0  0.5006831827286546 0.1248850810191818 0  0.5632885439694445 0.1248694297534624 0  0.6258898692699434 0.1248552309194956 0  0.6884778284448215 0.1248437492089386 0  0.7510377464093408 0.1248364272621296 0  0.8135468646031425 0.1248345776339654 0  0.8759695676681969 0.1248388168892225 0  0.938250206223036 0.1248482915221536 0  1.000317894494629 0.1248596556708182 0  0 0.1875 0  0.06260485871489946 0.1874813783542835 0  0.125212298315024 0.1874623711283375 0  0.1878248240897894 0.1874426181937454 0  0.2504447319556729 0.1874218185007978 0  0.3130739410539459 0.187399771722658 0  0.3757137446411073 0.1873764343352657 0  0.4383644439487276 0.1873519938589853 0  0.5010248245063653 0.1873269622673904 0  0.5636914307628975 0.1873022832705351 0  0.6263575954493894 0.1872794352250554 0  0.6890121898086944 0.1872604866145001 0  0.7516380924731045 0.1872480150068219 0  0.8142104822190818 0.1872447122608054 0  0.8766954928362521 0.1872523061170317 0  0.9390515763477237 0.1872689130600383 0  1.00124239440461 0.1872824305804577 0  0 0.25 0  0.06263586654602635 0.2499757558058524 0  0.12527534523089 0.2499509526525158 0  0.1879219883208758 0.2499250583358341 0  0.2505791594048559 0.2498976047271592 0  0.3132498657978637 0.2498682367426311 0  0.3759364943910897 0.249836782761106 0  0.4386404080520578 0.2498033546561977 0  0.5013613534058498 0.2497684848740799 0  0.5640966285411331 0.2497333041466534 0  0.6268399679394299 0.2496997527905041 0  0.6895801350528366 0.2496707942910199 0  0.7522992970578036 0.2496505498710251 0  0.8149714515017353 0.2496441768517274 0  0.8775616304153825 0.2496571463000736 0  0.9400276534718185 0.2496933517616022 0  1.002328037877685 0.2497515218353514 0  0 0.3125 0  0.06266326907797459 0.312470693755508 0  0.1253312673491427 0.3124406262865594 0  0.1880087079672351 0.3124090579941339 0  0.2507001996589852 0.3123753046505149 0  0.3134101182544625 0.3123387860222505 0  0.3761423751140533 0.3122991025848251 0  0.4389000325521936 0.3122561541935691 0  0.5016847050543706 0.3122103178218105 0  0.5644956755831673 0.3121627038577759 0  0.6273286552176077 0.3121155089450424 0  0.6901741344573243 0.3120724714106477 0  0.7530153395634049 0.3120394000409872 0  0.8158259635627015 0.3120246660246232 0  0.8785681815734362 0.3120393917520239 0  0.9411921469179458 0.312096825444209 0  1.003639331487143 0.3122101131245961 0  0 0.375 0  0.06268595187431773 0.3749663946492745 0  0.1253777931939885 0.3749318019630991 0  0.1880814696693978 0.3748952433410196 0  0.2508029731545036 0.3748557698177912 0  0.3135482954520215 0.3748124993916074 0  0.3763232843769755 0.3747646863350727 0  0.4391333480043312 0.3747118417615508 0  0.5019829339122666 0.3746539333005385 0  0.5648746870846236 0.3745917034849949 0  0.6278081661120796 0.3745271607025766 0  0.6907779799365841 0.374464309559172 0  0.7537712124793171 0.3744101878420014 0  0.8167640620875115 0.374376237095833 0  0.8797177974679357 0.374379895377596 0  0.9425745138182935 0.3744459639510166 0  1.005253811183383 0.3746066253742533 0  0 0.4375 0  0.06270275397122156 0.4374630844555595 0  0.1254125267857107 0.4374249446901292 0  0.1881364908774834 0.4373843442035453 0  0.2508820764081253 0.4373400319805429 0  0.3136570505861512 0.4372907551016439 0  0.3764695213083551 0.4372353015854111 0  0.4393278140657985 0.4371725954667733 0  0.5022401447798674 0.4371018798134152 0  0.5652139739820691 0.437023045378746 0  0.6282548778625343 0.4369371965721399 0  0.6913647093716306 0.4368475956957172 0  0.7545387522430235 0.4367611890219534 0  0.8177615051018403 0.4366909732225268 0  0.8810006956219211 0.4366594361239212 0  0.9441991421070344 0.4367030284493655 0  1.00726413510399 0.4368767983474735 0  0 0.5 0  0.06271254189000465 0.4999609995669779 0  0.1254330985712884 0.4999205487396762 0  0.1881699527269458 0.4998771569110987 0  0.2509319015320225 0.4998292584392842 0  0.3137284985685068 0.499775186849069 0  0.3765702627642171 0.49971316944635 0  0.4394688183751665 0.4996413617808955 0  0.5024369017775862 0.4995579575930857 0  0.5654881270001256 0.4994614388062057 0  0.6286363370141335 0.4993510810922978 0  0.6918942760024052 0.4992279184790223 0  0.7552711927221502 0.4990965157464618 0  0.818768815026488 0.4989681153101153 0  0.8823748886069768 0.4988659814822339 0  0.9460530698493386 0.4988338512825887 0  1.009727289529648 0.4989477275783928 0  0 0.5625 0  0.06271431368653169 0.562460365352549 0  0.1254373815022257 0.5624190935287077 0  0.1881783437019418 0.5623744754556587 0  0.2509471288845669 0.5623246566968642 0  0.3137548806730609 0.5622675628121366 0  0.3766144151811845 0.5622008265667882 0  0.4395407036454981 0.5621217267829604 0  0.5025513537330026 0.5620271621919353 0  0.5656670278546866 0.5619137108268798 0  0.6289116822002302 0.5617778797582786 0  0.6923124327636561 0.5616167581807125 0  0.755898752647321 0.5614295010099304 0  0.8197005636288993 0.5612204811419996 0  0.8837445166465431 0.5610056698054743 0  0.9480470733605981 0.5608247894865303 0  1.012601363603511 0.5607621748277116 0  0 0.625 0  0.06270732460586921 0.6249613675944947 0  0.1254237560788059 0.6249209832493249 0  0.188158892031055 0.6248769927619533 0  0.2509233694011864 0.6248273275599369 0  0.3137294731742368 0.6247695781898904 0  0.3765918551810189 0.624700844553903 0  0.4395284024054577 0.6246175563866978 0  0.5025612922355344 0.6245152620423783 0  0.565718265108921 0.6243883965956639 0  0.6290341349455074 0.6242300733555038 0  0.6925525602621744 0.6240320247704771 0  0.7563281608194793 0.623785020689883 0  0.8204292709671978 0.6234805901209352 0  0.8849419921018449 0.6231160620088129 0  0.9499762381620425 0.6227074215493074 0  1.015672450551696 0.622317591838528 0  0 0.6875 0  0.06269121968960419 0.6874641200432836 0  0.1253913947134318 0.6874264767781548 0  0.1881100419311197 0.6873851818409294 0  0.2508578976179775 0.6873380790440204 0  0.3136476719217608 0.687282573791636 0  0.3764949954216908 0.6872154129918159 0  0.4394196510023874 0.6871323894834451 0  0.5024472113727281 0.6870279358994954 0  0.5656112414220117 0.6868945608746596 0  0.6289562890628447 0.6867220672494788 0  0.6925420273720938 0.686496486663126 0  0.7564492793866622 0.6861987079302154 0  0.8207896702551034 0.6858030320623643 0  0.8857231483302099 0.6852769855069967 0  0.9514921059104503 0.6845877818663648 0  1.018482581542753 0.6837314998371583 0  0 0.75 0  0.06266615303445627 0.7499686332577753 0  0.1253405228541301 0.7499356189197589 0  0.1880319051503566 0.749899175234617 0  0.2507503759692223 0.7498572290262736 0  0.3135081180373265 0.7498072207691034 0  0.3763205044892819 0.7497458402126873 0  0.4392075839131124 0.7496686499364968 0  0.5021961719400141 0.7495695316434846 0  0.5653228488515162 0.7494398519317202 0  0.6286383140132984 0.7492671782121717 0  0.692213828130944 0.7490332551368082 0  0.7561511345183715 0.7487107229493869 0  0.8205991909554822 0.7482576350822392 0  0.8857872648477927 0.747608299441587 0  0.9521023391360718 0.7466605139462885 0  1.020269516102602 0.7452827099482678 0  0 0.8125 0  0.06263287012339623 0.8124747911153725 0  0.1252726058794222 0.812448187113799 0  0.1879266014771669 0.8124186676365941 0  0.2506034361176195 0.8123844375926719 0  0.3133136650553491 0.812343237210949 0  0.3760708937531307 0.8122920760774819 0  0.4388933097600138 0.8122268410055294 0  0.5018059379731107 0.8121416975610695 0  0.5648440311235238 0.8120281527065313 0  0.6280582395575665 0.8118735520519469 0  0.6915225820423777 0.8116586056324464 0  0.7553469426372933 0.8113531549033433 0  0.8196976782216455 0.8109084656343607 0  0.8848373767834473 0.8102417703466025 0  0.9512321312735376 0.8092012633381016 0  1.019975162473846 0.8074794084415587 0  0 0.875 0  0.06259273070205441 0.8749823412501838 0  0.1251904113487388 0.8749636678284518 0  0.1877983982929693 0.874942867789733 0  0.2504229678920001 0.8749186144028867 0  0.3130719471959368 0.8748892143086847 0  0.3757555940491707 0.874852390452124 0  0.4384878929084575 0.874804954941985 0  0.5012885333951101 0.8747422986744102 0  0.5641860095807056 0.8746575754901227 0  0.6272225603354797 0.8745403738194856 0  0.6904621112662285 0.8743745199424636 0  0.754002978950134 0.8741343755574758 0  0.8179976702804824 0.8737783313678538 0  0.8826823723535583 0.8732360239154962 0  0.9484254486184515 0.8723766148037477 0  1.015942009768785 0.8708984320435218 0  0 0.9375 0  0.06254765643486011 0.9374909038623255 0  0.1250979093378609 0.9374812730659542 0  0.1876535773385599 0.9374705196857059 0  0.2502179851032168 0.9374579377171459 0  0.312795316869404 0.9374426184544461 0  0.3753911196448225 0.9374233279544203 0  0.4380130619385216 0.93739
[...]
<PointData  Vectors="f_54"> 
<DataArray  type="Float64"  Name="f_54"  NumberOfComponents="3" format="ascii">0.0000000000000000e+00 0.0000000000000000e+00 0.0000000000000000e+00  0.0000000000000000e+00 0.0000000000000000e+00 0.0000000000000000e+00  0.0000000000000000e+00 0.0000000000000000e+00 0.0000000000000000e+00  0.0000000000000000e+00 0.0000000000000000e+00 0.0000000000000000e+00  0.0000000000000000e+00 0.0000000000000000e+00 0.0000000000000000e+00  0.0000000000000000e+00 0.0000000000000000e+00 0.0000000000000000e+00  0.0000000000000000e+00 0.0000000000000000e+00 0.0000000000000000e+00  0.0000000000000000e+00 0.0000000000000000e+00 0.0000000000000000e+00  0.0000000000000000e+00 0.0000000000000000e+00 0.0000000000000000e+00  0.0000000000000000e+00 0.0000000000000000e+00 0.0000000000000000e+00  0.0000000000000000e+00 0.0000000000000000e+00 0.0000000000000000e+00  0.0000000000000000e+00 0.0000000000000000e+00 0.0000000000000000e+00  0.0000000000000000e+00 0.0000000000000000e+00 0.0000000000000000e+00  0.0000000000000000e+00 0.0000000000000000e+00 0.0000000000000000e+00  0.0000000000000000e+00 0.0000000000000000e+00 0.0000000000000000e+00  0.0000000000000000e+00 0.0000000000000000e+00 0.0000000000000000e+00  0.0000000000000000e+00 0.0000000000000000e+00 0.0000000000000000e+00  0.0000000000000000e+00 0.0000000000000000e+00 0.0000000000000000e+00  4.4536348174616486e-06 -1.2174238561537449e-07 0.0000000000000000e+00  9.0509057253849574e-06 -2.4754393751177005e-07 0.0000000000000000e+00  1.3938108608344492e-05 -3.8148232786922709e-07 0.0000000000000000e+00  1.9264676555170543e-05 -5.2758163777677773e-07 0.0000000000000000e+00  2.5183819647541543e-05 -6.8967367688114895e-07 0.0000000000000000e+00  3.1851946289354151e-05 -8.7109497249584534e-07 0.0000000000000000e+00  3.9426495363462589e-05 -1.0741149404605185e-06 0.0000000000000000e+00  4.8062184535042603e-05 -1.2989449763740373e-06 0.0000000000000000e+00  5.7906997436075998e-05 -1.5421203167575603e-06 0.0000000000000000e+00  6.9103254297779414e-05 -1.7939804371443890e-06 0.0000000000000000e+00  8.1811078786582815e-05 -2.0349075729745336e-06 0.0000000000000000e+00  9.6308122311476418e-05 -2.2299524005550721e-06 0.0000000000000000e+00  1.1333706126992159e-04 -2.3217831374543748e-06 0.0000000000000000e+00  1.3527587663753865e-04 -2.2248140333066491e-06 0.0000000000000000e+00  1.7017195087111380e-04 -1.8434376376281908e-06 0.0000000000000000e+00  2.4611060559793932e-04 -1.2547793459543628e-06 0.0000000000000000e+00  0.0000000000000000e+00 0.0000000000000000e+00 0.0000000000000000e+00  8.7679935413590402e-06 -2.3954500739183166e-07 0.0000000000000000e+00  1.7822193060827416e-05 -4.8723393331396105e-07 0.0000000000000000e+00  2.7454444771699300e-05 -7.5128702832342679e-07 0.0000000000000000e+00  3.7963735699627977e-05 -1.0399111495810903e-06 0.0000000000000000e+00  4.9657921574815445e-05 -1.3610931815754182e-06 0.0000000000000000e+00  6.2852922067587147e-05 -1.7220949097397717e-06 0.0000000000000000e+00  7.7868300770427804e-05 -2.1284514095574517e-06 0.0000000000000000e+00  9.5018265305587318e-05 -2.5821818024470143e-06 0.0000000000000000e+00  1.1459799270895731e-04 -3.0788016149186917e-06 0.0000000000000000e+00  1.3686799219683550e-04 -3.6025884386274759e-06 0.0000000000000000e+00  1.6204647022717941e-04 -4.1193926677430847e-06 0.0000000000000000e+00  1.9033565283085451e-04 -4.5659342821575721e-06 0.0000000000000000e+00  2.2203431817225891e-04 -4.8328422206239126e-06 0.0000000000000000e+00  2.5778507619949746e-04 -4.7295312594878099e-06 0.0000000000000000e+00  2.9865337131866518e-04 -3.8714869963185496e-06 0.0000000000000000e+00  3.4319209793166682e-04 -1.1922881636977463e-06 0.0000000000000000e+00  0.0000000000000000e+00 0.0000000000000000e+00 0.0000000000000000e+00  1.2799748234772861e-05 -3.4930285075321891e-07 0.0000000000000000e+00  2.6025099667063850e-05 -7.1082615236903948e-07 0.0000000000000000e+00  4.0110868004824742e-05 -1.0969934224629809e-06 0.0000000000000000e+00  5.5504676478577639e-05 -1.5204230048077987e-06 0.0000000000000000e+00  7.2670768101947315e-05 -1.9937860533315981e-06 0.0000000000000000e+00  9.2090056773237107e-05 -2.5292949254584153e-06 0.0000000000000000e+00  1.1425436155323677e-04 -3.1375567735931912e-06 0.0000000000000000e+00  1.3965209314843174e-04 -3.8253842728818989e-06 0.0000000000000000e+00  1.6874186808054728e-04 -4.5919658975563097e-06 0.0000000000000000e+00  2.0190953645653038e-04 -5.4225978972006205e-06 0.0000000000000000e+00  2.3940212251456883e-04 -6.2791127803296973e-06 0.0000000000000000e+00  2.8122525377310281e-04 -7.0866773342912705e-06 0.0000000000000000e+00  3.2696363125470659e-04 -7.7193842342338501e-06 0.0000000000000000e+00  3.7538795876340230e-04 -7.9982287876750610e-06 0.0000000000000000e+00  4.2342313680282734e-04 -7.7619412922941360e-06 0.0000000000000000e+00  4.6345388474033504e-04 -7.2847660112961174e-06 0.0000000000000000e+00  0.0000000000000000e+00 0.0000000000000000e+00 0.0000000000000000e+00  1.6408998624565340e-05 -4.4692674971327412e-07 0.0000000000000000e+00  3.3376927805262144e-05 -9.1003393371854697e-07 0.0000000000000000e+00  5.1476296208036811e-05 -1.4059122293040191e-06 0.0000000000000000e+00  7.1300434755161571e-05 -1.9517588115826243e-06 0.0000000000000000e+00  9.3470975380532525e-05 -2.5654706228065941e-06 0.0000000000000000e+00  1.1864084352987724e-04 -3.2653914098722629e-06 0.0000000000000000e+00  1.4748985967486886e-04 -4.0694261362948305e-06 0.0000000000000000e+00  1.8070852648649212e-04 -4.9930427047409939e-06 0.0000000000000000e+00  2.1896315643471170e-04 -6.0453854098955896e-06 0.0000000000000000e+00  2.6283142543697931e-04 -7.2223196604368903e-06 0.0000000000000000e+00  3.1268998224629044e-04 -8.4947865157142536e-06 0.0000000000000000e+00  3.6852085394811670e-04 -9.7906746936043653e-06 0.0000000000000000e+00  4.2957261701266072e-04 -1.0969340602760771e-05 0.0000000000000000e+00  4.9375315181978254e-04 -1.1791342964156469e-05 0.0000000000000000e+00  5.5654807649355934e-04 -1.1890444334250074e-05 0.0000000000000000e+00  6.0928010564147551e-04 -1.0726669402856620e-05 0.0000000000000000e+00  0.0000000000000000e+00 0.0000000000000000e+00 0.0000000000000000e+00  1.9462250545336306e-05 -5.2845419660154287e-07 0.0000000000000000e+00  3.9606701748161709e-05 -1.0767352376759202e-06 0.0000000000000000e+00  6.1134361928547992e-05 -1.6653542480359386e-06 0.0000000000000000e+00  8.4777765909859384e-05 -2.3160235177554780e-06 0.0000000000000000e+00  1.1131414711341159e-04 -3.0521564109306265e-06 0.0000000000000000e+00  1.4157434633773076e-04 -3.8991625245839893e-06 0.0000000000000000e+00  1.7644425318312615e-04 -4.8843061828776199e-06 0.0000000000000000e+00  2.1685353647387878e-04 -6.0356778302640862e-06 0.0000000000000000e+00  2.6374308630193802e-04 -7.3794337517303052e-06 0.0000000000000000e+00  3.1799714036219489e-04 -8.9337758017256842e-06 0.0000000000000000e+00  3.8031717191860329e-04 -1.0697015348418602e-05 0.0000000000000000e+00  4.5100045944658756e-04 -1.2625328262769320e-05 0.0000000000000000e+00  5.2956574613135534e-04 -1.4593343568696808e-05 0.0000000000000000e+00  6.1414679883796050e-04 -1.6327436367059106e-05 0.0000000000000000e+00  7.0058089099573684e-04 -1.7297060390054272e-05 0.0000000000000000e+00  7.8123920034585165e-04 -1.6543523301110348e-05 0.0000000000000000e+00  0.0000000000000000e+00 0.0000000000000000e+00 0.0000000000000000e+00  2.1836461749039438e-05 -5.9024786343639462e-07 0.0000000000000000e+00  4.4463126712723103e-05 -1.2033813146098472e-06 0.0000000000000000e+00  6.8694938030018084e-05 -1.8632696828772942e-06 0.0000000000000000e+00  9.5391552050054143e-05 -2.5956751900963055e-06 0.0000000000000000e+00  1.2547828947342022e-04 -3.4292796524008090e-06 0.0000000000000000e+00  1.5996429203218109e-04 -4.3967668577070518e-06 0.0000000000000000e+00  1.9995519483675798e-04 -5.5358865043827216e-06 0.0000000000000000e+00  2.4665554706640452e-04 -6.8902574514606731e-06 0.0000000000000000e+00  3.0135279680092516e-04 -8.5092914968401877e-06 0.0000000000000000e+00  3.6536919083978445e-04 -1.0445812752101640e-05 0.0000000000000000e+00  4.3995957233602121e-04 -1.2748296351467928e-05 0.0000000000000000e+00  5.2612125439101547e-04 -1.5441429883249061e-05 0.0000000000000000e+00  6.2426817839406914e-04 -1.8482800031587473e-05 0.0000000000000000e+00  7.3371186613860188e-04 -2.1673651521816651e-05 0.0000000000000000e+00  8.5190217976052046e-04 -2.4487899106311533e-05 0.0000000000000000e+00  9.7343132483271766e-04 -2.5773119314138473e-05 0.0000000000000000e+00  0.0000000000000000e+00 0.0000000000000000e+00 0.0000000000000000e+00  2.3424276302814831e-05 -6.2926964472236627e-07 0.0000000000000000e+00  4.7725186121953632e-05 -1.2835853975812865e-06 0.0000000000000000e+00  7.3810310011897731e-05 -1.9892373799284740e-06 0.0000000000000000e+00  1.0264670110922384e-04 -2.7750517536170628e-06 0.0000000000000000e+00  1.3529123323950090e-04 -3.6739546712643978e-06 0.0000000000000000e+00  1.7292089576818781e-04 -4.7249281290078792e-06 0.0000000000000000e+00  2.1686174010394693e-04 -5.9755422991676550e-06 0.0000000000000000e+00  2.6861357950364468e-04 -7.4852467418264415e-06 0.0000000000000000e+00  3.2986481177060898e-04 -9.3294734186710561e-06 0.0000000000000000e+00  4.0248725744176906e-04 -1.1604107818098754e-05 0.0000000000000000e+00  4.8849396662495716e-04 -1.4428462466253528e-05 0.0000000000000000e+00  5.8993309837759844e-04 -1.7941335409552606e-05 0.0000000000000000e+00  7.0867895715265783e-04 -2.2276679790789088e-05 0.0000000000000000e+00  8.4607031750106036e-04 -2.7488698208946119e-05 0.0000000000000000e+00  1.0023411852351234e-03 -3.3364707564211291e-05 0.0000000000000000e+00  1.1757841415671046e-03 -3.9010599643425003e-05 0.0000000000000000e+00  0.0000000000000000e+00 0.0000000000000000e+00 0.0000000000000000e+00  2.4140305566257887e-05 -6.4338924149989639e-07 0.0000000000000000e+00  4.9215151876389099e-05 -1.3128052182997908e-06 0.0000000000000000e+00  7.6195829212825423e-05 -2.0356666169696764e-06 0.0000000000000000e+00  1.0612782519103010e-04 -2.8423468105091041e-06 0.0000000000000000e+00  1.4017116310169323e-04 -3.7681309502780854e-06 0.0000000000000000e+00  1.7964441888870382e-04 -4.8558786251383707e-06 0.0000000000000000e+00  2.2607327424742718e-04 -6.1598746029959406e-06 0.0000000000000000e+00  2.8124382354233890e-04 -7.7516169664020319e-06 0.0000000000000000e+00  3.4725955004927793e-04 -9.7286670353004067e-06 0.0000000000000000e+00  4.2659841582166273e-04 -1.2228098131711423e-05 0.0000000000000000e+00  5.2216214192012307e-04 -1.5446191086633937e-05 0.0000000000000000e+00  6.3730267698414308e-04 -1.9664752880497583e-05 0.0000000000000000e+00  7.7580075335056411e-04 -2.5278906898796583e-05 0.0000000000000000e+00  9.4176001784191472e-04 -3.2804781513770968e-05 0.0000000000000000e+00  1.1393735680217791e-03 -4.2805163093152137e-05 0.0000000000000000e+00  1.3725282265834552e-03 -5.5586589113884580e-05 0.0000000000000000e+00  0.0000000000000000e+00 0.0000000000000000e+00 0.0000000000000000e+00  2.3927995555688970e-05 -6.3166198984297491e-07 0.0000000000000000e+00  4.8813080718927868e-05 -1.2889743734975217e-06 0.0000000000000000e+00  7.5653647582125106e-05 -1.9989572438720948e-06 0.0000000000000000e+00  1.0553484826841305e-04 -2.7916277683859091e-06 0.0000000000000000e+00  1.3967804173347704e-04 -3.7020504988762639e-06 0.0000000000000000e+00  1.7949806994177649e-04 -4.7732486788498071e-06 0.0000000000000000e+00  2.2667182379973661e-04 -6.0606700753177553e-06 0.0000000000000000e+00  2.8322229104525801e-04 -7.6394388789002875e-06 0.0000000000000000e+00  3.5162312526627079e-04 -9.6166051042614556e-06 0.0000000000000000e+00  4.3492953085261677e-04 -1.2152337896108590e-05 0.0000000000000000e+00  5.3694143895608565e-04 -1.5496928948635986e-05 0.0000000000000000e+00  6.6240366302838989e-04 -2.0054902614110104e-05 0.0000000000000000e+00  8.1724400940344207e-04 -2.6492744099645097e-05 0.0000000000000000e+00  1.0088458553202671e-03 -3.5908174690597094e-05 0.0000000000000000e+00  1.2463618396562025e-03 -5.0062353050918134e-05 0.0000000000000000e+00  1.5411620059931350e-03 -7.1615177746961055e-05 0.0000000000000000e+00  0.0000000000000000e+00 0.0000000000000000e+00 0.0000000000000000e+00  2.2766314565027701e-05 -5.9450081757692026e-07 0.0000000000000000e+00  4.6471179676076131e-05 -1.2129084021383862e-06 0.0000000000000000e+00  7.2096885573980353e-05 -1.8802905796293332e-06 0.0000000000000000e+00  1.0072057462583915e-04 -2.6243170657268995e-06 0.0000000000000000e+00  1.3357022369710875e-04 -3.4770145247120986e-06 0.0000000000000000e+00  1.7209223940722502e-04 -4.4772637992122673e-06 0.0000000000000000e+00  2.1803669645378425e-04 -5.6747097816885182e-06 0.0000000000000000e+00  2.7356855956632299e-04 -7.1363902266424803e-06 0.0000000000000000e+00  3.4141674290738696e-04 -8.9587060690919244e-06 0.0000000000000000e+00  4.2507805127441311e-04 -1.1290095898161388e-05 0.0000000000000000e+00  5.2910041803502761e-04 -1.4375484273579741e-05 0.0000000000000000e+00  6.5947966576182363e-04 -1.8645327769828635e-05 0.0000000000000000e+00  8.2421594304588660e-04 -2.4895501326143940e-05 0.0000000000000000e+00  1.0340905940657242e-03 -3.4647552695780055e-05 0.0000000000000000e+00  1.3037571320918273e-03 -5.0847131074654443e-05 0.0000000000000000e+00  1.6533940307153503e-03 -7.9137791767310147e-05 0.0000000000000000e+00  0.0000000000000000e+00 0.0000000000000000e+00 0.0000000000000000e+00  2.0675279834970111e-05 -5.3368118456057043e-07 0.0000000000000000e+00  4.2225920841389058e-05 -1.0883363568835072e-06 0.0000000000000000e+00  6.5570632820058491e-05 -1.6857477927639798e-06 0.0000000000000000e+00  9.1724558052238918e-05 -2.3495447710931397e-06 0.0000000000000000e+00  1.2185764458187622e-04 -3.1063192460886860e-06 0.0000000000000000e+00  1.5736719763075031e-04 -3.9870737737163103e-06 0.0000000000000000e+00  1.9997257324321307e-04 -5.0293409135689189e-06 0.0000000000000000e+00  2.5184370454949938e-04 -6.2807206403917233e-06 0.0000000000000000e+00  3.1578128654685504e-04 -7.8055563359285624e-06 0.0000000000000000e+00  3.9547657023050915e-04 -9.6988391570054539e-06 0.0000000000000000e+00  4.9589548503919684e-04 -1.2117298162591072e-05 0.0000000000000000e+00  6.2385943971631039e-04 -1.5352410954598857e-05 0.0000000000000000e+00  7.8893954112449970e-04 -2.0007691137446481e-05 0.0000000000000000e+00  1.0048480026352224e-03 -2.7437810801829591e-05 0.0000000000000000e+00  1.2916023641680479e-03 -4.0836140613427633e-05 0.0000000000000000e+00  1.6788883121813577e-03 -6.7821470699441636e-05 0.0000000000000000e+00  0.0000000000000000e+00 0.0000000000000000e+00 0.0000000000000000e+00  1.7719288264620291e-05 -4.5215839943294253e-07 0.0000000000000000e+00  3.6205630631744169e-05 -9.2149887429791232e-07 0.0000000000000000e+00  5.6265816978253797e-05 -1.4256101610871759e-06 0.0000000000000000e+00  7.8796829825692857e-05 -1.9830270585210286e-06 0.0000000000000000e+00  1.0484138778173560e-04 -2.6135580397516848e-06 0.0000000000000000e+00  1.3565831941630288e-04 -3.3383790720190544e-06 0.0000000000000000e+00  1.7281645544164659e-04 -4.1796873122433658e-06 0.0000000000000000e+00  2.1832521731950870e-04 -5.1595848504332044e-06 0.0000000000000000e+00  2.7482284147804521e-04 -6.2977455876315030e-06 0.0000000000000000e+00  3.4585694346656422e-04 -7.6075375516784581e-06 0.0000000000000000e+00  4.3631746574562764e-04 -9.0915526426608325e-06 0.0000000000000000e+00  5.5313067535282302e-04 -1.0743424645565404e-05 0.0000000000000000e+00  7.0641955209420164e-04 -1.2586602589571362e-05 0.0000000000000000e+00  9.1152983101955754e-04 -1.4873920046187995e-05 0.0000000000000000e+00  1.1926832017309611e-03 -1.8941111674306443e-05 0.0000000000000000e+00  1.5895047205328617e-03 -3.0622907589338562e-05 0.0000000000000000e+00  0.0000000000000000e+00 0.0000000000000000e+00 0.0000000000000000e+00  1.4007366209275850e-05 -3.5373459227694389e-07 0.0000000000000000e+00  2.8631574463251390e-05 -7.2039152355334870e-07 0.0000000000000000e+00  4.4522404374084068e-05 -1.1129653755814448e-06 0.0000000000000000e+00  6.2405552144214691e-05 -1.5446265493186126e-06 0.0000000000000000e+00  8.3129859767388953e-05 -2.0283955294397013e-06 0.0000000000000000e+00  1.0772781768529261e-04 -2.5761147764893852e-06 0.0000000000000000e+00  1.3749723129673563e-04 -3.1960171099940212e-06 0.0000000000000000e+00  1.7411615422931734e-04 -3.8875112123178678e-06 0.0000000000000000e+00  2.1981060888279333e-04 -4.6304249445543784e-06 0.0000000000000000e+00  2.7760824420656907e-04 -5.3630782811838238e-06 0.0000000000000000e+00  3.5173787470773829e-04 -5.9374166170732723e-06 0.0000000000000000e+00  4.4829261251316219e-04 -6.0258711217958933e-06 0.0000000000000000e+00  5.7641342118550250e-04 -4.9241531229440930e-06 0.0000000000000000e+00  7.5062174821446579e-04 -1.1300624594719105e-06 0.0000000000000000e+00  9.9594811287480149e-04 8.4900931633638643e-06 0.0000000000000000e+00  1.3589446163246410e-03 2.9262150168220844e-05 0.0000000000000000e+00  0.0000000000000000e+00 0.0000000000000000e+00 0.0000000000000000e+00  9.6898047477606664e-06 -2.4266608435210236e-07 0.0000000000000000e+00  1.9811310721821002e-05 -4.9386601307203836e-07 0.0000000000000000e+00  3.0819660146638123e-05 -7.6202698188620759e-07 0.0000000000000000e+00  4.3224611890152884e-05 -1.0553324255392320e-06 0.0000000000000000e+00  5.7624657443212273e-05 -1.3811167896145881e-06 0.0000000000000000e+00  7.4750896437797827e-05 -1.7444277024333949e-06 0.0000000000000000e+00  9.5526409010628338e-05 -2.1449000877338613e-06 0.0000000000000000e+00  1.2114980414129914e-04 -2.5702061309345090e-06 0.0000000000000000e+00  1.5321661997606955e-04 -2.9824674562543495e-06 0.0000000000000000e+00  1.9390097583628474e-04 -3.2898790111073879e-06 0.0000000000000000e+00  2.4623603889639266e-04 -3.2862253759008930e-06 0.0000000000000000e+00  3.1456584996554065e-04 -2.5171940800339651e-06 0.0000000000000000e+00  4.0533321859873093e-04 3.3389957959633556e-08 0.0000000000000000e+00  5.2873364250439331e-04 6.7577128980583348e-06 0.0000000000000000e+00  7.0384758359423193e-04 2.3928301491863408e-05 0.0000000000000000e+00  9.8593609994700637e-04 7.2050859284001473e-05 0.0000000000000000e+00  0.0000000000000000e+00 0.0000000000000000e+00 0.0000000000000000e+00  4.9511429452407498e-06 -1.2332447677809710e-07 0.0000000000000000e+00  1.0124180439083414e-05 -2.5086373724933110e-07 0.0000000000000000e+00  1.5753110890853625e-05 -3.8672185956884518e-07 0.0000000000000000e+00  2.2100317399253749e-05 -5.3474643834254313e-07 0.0000000000000000e+00  2.9474280979173088e-05 -6.9808235155915500e-07 0.0000000000000000e+00  3.8252318564014109e-05 -8.7817580302249425e-07 0.0000000000000000e+00  4.8911204133642505e-05 -1.0726616813581066e-06 0.0000000000000000e+00  6.2069829390218130e-05 -1.2709829505993467e-06 0.0000000000000000e+00  7.8549981632448039e-05 -1.4453607223148773e-06 0.0000000000000000e+00  9.9463714346753577e-05 -1.5321180538108522e-06 0.0000000000000000e+00  1.2633672733114700e-04 -1.3927872160432557e-06 0.0000000000000000e+00  1.6126567428064744e-04 -7.3286635883626763e-07 0.0000000000000000e+00  2.0702720109473104e-04 1.0650118129287969e-06 0.0000000000000000e+00  2.6661783722829350e-04 5.2528012047699272e-06 0.0000000000000000e+00  3.3936934219184654e-04 1.4049164894402918e-05 0.0000000000000000e+00  3.9909973238908989e-04 2.8936460152536689e-05 0.0000000000000000e+00  0.0000000000000000e+00 0.0000000000000000e+00 0.0000000000000000e+00  0.0000000000000000e+00 0.0000000000000000e+00 0.0000000000000000e+00  0.0000000000000000e+00 0.0000000000000000e+00 0.0000000000000000e+00  0.0000000000000000e+00 0.0000000000000000e+00 0.0000000000000000e+00  0.0000000000000000e+00 0.0000000000000000e+00 0.0000000000000000e+00  0.0000000000000000e+00 0.0000000000000000e+00 0.0000000000000000e+00  0.0000000000000000e+00 0.0000000000000000e+00 0.0000000000000000e+00  0.0000000000000000e+00 0.0000000000000000e+00 0.0000000000000000e+00  0.0000000000000000e+00 0.0000000000000000e+00 0.00000000000000