<?xml version="1.0"?>
<VTKFile type="UnstructuredGrid"  version="0.1"  >
<UnstructuredGrid>
<Piece  NumberOfPoints="289" NumberOfCells="512">
<Points>
<DataArray  type="Float64"  NumberOfComponents="3"  format="ascii">0 0 0  0.0625 0 0  0.125 0 0  0.1875 0 0  0.25 0 0  0.3125 0 0  0.375 0 0  0.4375 0 0  0.5 0 0  0.5625 0 0  0.625 0 0  0.6875 0 0  0.75 0 0  0.8125 0 0  0.875 0 0  0.9375 0 0  1 0 0  0 0.0625 0  0.06258610108191572 0.06249153262000493 0  0.1251748936773839 0.06248287231480391 0  0.1877691100786605 0.06247383405217936 0  0.2503715205128488 0.0624642526051142 0  0.3129849338381573 0.06245399676147357 0  0.3756121750415249 0.06244298861247137 0  0.438256034093637 0.06243122905036457 0  0.5009191893831328 0.06241882943097429 0  0.5636041354530312 0.06240604673806516 0  0.6263132202501253 0.06239331408033146 0  0.6890491121374276 0.06238124650294689 0  0.7518166517688295 0.06237057311504276 0  0.8146290172341801 0.06236185869922627 0  0.8775276108747518 0.06235455207733141 0  0.9406475464497808 0.06234355210347767 0  1.004443754107414 0.06230614135011685 0  0 0.125 0  0.06266959473244192 0.124983254035151 0  0.1253445704416818 0.1249661123855652 0  0.1880303988913395 0.1249481934315559 0  0.2507326509900663 0.1249291515248189 0  0.3134570115177902 0.1249087037625969 0  0.3762092477912219 0.1248866674321473 0  0.4389951167189513 0.1248630111668665 0  0.501820201954627 0.1248379212933244 0  0.5646896972065112 0.1248118811554765 0  0.6276082158235192 0.124785753877564 0  0.6905798547613897 0.1247608470214503 0  0.7536090371560339 0.1247389259664919 0  0.8167030708989966 0.1247221715375163 0  0.8798769883525341 0.1247133590582525 0  0.9431542831784497 0.1247180893319367 0  1.006514605966796 0.124758221174307 0  0 0.1875 0  0.06274778315843701 0.1874753680847474 0  0.1255036017930666 0.1874501206363767 0  0.1882756462261676 0.1874236589643832 0  0.2510723046533003 0.1873954292173834 0  0.3139022137695776 0.1873649581264942 0  0.3767742420055119 0.1873319055512173 0  0.4396973741844402 0.1872961399216175 0  0.5026804613807268 0.1872578418493232 0  0.5657317970286344 0.1872176380227557 0  0.628858479083888 0.1871767595418853 0  0.6920654996124476 0.1871372015228344 0  0.7553543759606082 0.1871018241814488 0  0.8187205661101566 0.1870742487852725 0  0.8821468947229077 0.1870581302172551 0  0.9455846006552637 0.1870542616839831 0  1.008903989891842 0.1870486693050678 0  0 0.25 0  0.0628180104810149 0.2499680954516859 0  0.1256466250591146 0.2499353348130101 0  0.1884966843339151 0.2499008765736489 0  0.2513793748828048 0.2498639218986415 0  0.3143063472565621 0.2498237533225027 0  0.3772897527765234 0.2497797962708536 0  0.4403421525642851 0.2497317135961945 0  0.503476231790667 0.2496795446670605 0  0.5667042189191814 0.2496239004963449 0  0.6300368490907293 0.249566222435701 0  0.6934815840755738 0.2495090989854706 0  0.7570395137774593 0.2494566028666317 0  0.8206997205085165 0.2494145383302804 0  0.8844286316759049 0.2493903479486335 0  0.9481503145955767 0.2493922730548699 0  1.011715130513701 0.2494280755688702 0  0 0.3125 0  0.06287771183083626 0.3124616771538315 0  0.1257684361957005 0.3124222387228458 0  0.1886855225032064 0.3123805749981558 0  0.2516428700333383 0.3123356023938663 0  0.3146551526210204 0.3122862963764935 0  0.3777379638815164 0.3122317517182633 0  0.4409078291060385 0.3121712846229547 0  0.5041819986382816 0.312104596056286 0  0.5675778851359814 0.3120320212377733 0  0.6311119168588856 0.3119548954234668 0  0.6947974205025486 0.3118760675873472 0  0.7586408745339817 0.3118005846468517 0  0.8226354594837331 0.3117365386161549 0  0.8867504284066964 0.3116960104876889 0  0.9509152636768687 0.3116959919603959 0  1.015001281168046 0.311759244556239 0  0 0.375 0  0.06292448546510229 0.3749563726684335 0  0.125864131441224 0.3749113599757078 0  0.1888345517096011 0.3748635665012628 0  0.2518521666278529 0.3748115898614628 0  0.3149345758785906 0.3747540367742941 0  0.3781008753881176 0.3746895674087786 0  0.4413718712727114 0.3746169857512103 0  0.5047701102742913 0.3745354023635125 0  0.5683195906815619 0.3744445085341978 0  0.632044926336484 0.3743450182489933 0  0.6959695899163102 0.3742393564300567 0  0.7601126459856925 0.3741326951416053 0  0.8244831321826382 0.3740344531729826 0  0.8890711544445083 0.3739603534850164 0  0.9538353891861449 0.3739350260080339 0  1.018688948729886 0.3739948299464822 0  0 0.4375 0  0.06295619125956306 0.437452451222363 0  0.1259293061680327 0.4374032534069878 0  0.1889368465860548 0.4373507245655692 0  0.2519974149973154 0.4372931262801579 0  0.3151312696712802 0.4372286506499587 0  0.3783608714231894 0.4371554308870326 0  0.4417113979926052 0.4370715934789491 0  0.5052111769674272 0.4369753814278692 0  0.5688919467771014 0.4368653968642378 0  0.6327887882437478 0.4367410409226831 0  0.6969394641692428 0.4366032734112384 0  0.7613827516354917 0.4364558769534008 0  0.8261551650979746 0.4363074827789259 0  0.8912853378939023 0.4361746632812132 0  0.9567854918625704 0.4360863315095044 0  1.022640202183396 0.4360893873778403 0  0 0.5 0  0.06297107421506429 0.4999501754301806 0  0.1259603094828984 0.4998984680736334 0  0.1889865662626455 0.4998429340908641 0  0.2520701082511669 0.4997815108446848 0  0.3152333568998489 0.4997119635836122 0  0.378501704917075 0.4996318442130027 0  0.4419044027018603 0.4995384756292022 0  0.5054755249386002 0.4994289871490395 0  0.569255014581054 0.4993004479167291 0  0.6332897874599339 0.499150182320458 0  0.6976348607877729 0.4989764144444498 0  0.7623544346416536 0.4987794900751922 0  0.8275227809119584 0.4985640706514949 0  0.8932246242022206 0.4983428465467931 0  0.9595543945475336 0.4981422983257455 0  1.026613560479706 0.4980103489500415 0  0 0.5625 0  0.06296790548901242 0.5624497775768071 0  0.1259545399137579 0.5623974979941285 0  0.1889794331055965 0.5623410131185957 0  0.2520637894705239 0.5622779880984207 0  0.3152314322425003 0.5622058007874305 0  0.3785098845635108 0.5621214350155197 0  0.4419316481531613 0.5620213713848421 0  0.5055357592229306 0.5619014879914226 0  0.5693697370579495 0.5617570010229579 0  0.6334921103016885 0.5615825098565829 0  0.6979758386167485 0.5613722786312457 0  0.7629131783066072 0.5611210134888202 0  0.8284228673640723 0.5608256191558257 0  0.8946607633981392 0.560488744386566 0  0.9618347794694474 0.5601251063478379 0  1.0302238098422 0.5597704434119253 0  0 0.625 0  0.0629461269640692 0.6249514303703779 0  0.125910753223043 0.6249007200969867 0  0.188913243336828 0.6248456106460889 0  0.2519748308169685 0.6247835941492101 0  0.3151197105083119 0.6247117658856288 0  0.3783763424774136 0.6246266481041312 0  0.4417790745604029 0.6245239745958028 0  0.5053702361076534 0.624398426640374 0  0.5692029404359809 0.6242433168276692 0  0.6333450020500726 0.6240502348539775 0  0.6978847205666089 0.6238087153474851 0  0.7629399849128391 0.6235061015833013 0  0.8286734693591878 0.6231280493299688 0  0.8953187322004565 0.6226606947467485 0  0.9632238318676483 0.6220963488217367 0  1.032917618161675 0.6214434406470799 0  0 0.6875 0  0.06290597991772476 0.6874552157002513 0  0.1258293411552799 0.6874083266719051 0  0.1887883415347798 0.6873570919430473 0  0.2518031811568394 0.6872989767387512 0  0.314897169408308 0.6872309679514332 0  0.3780981602088845 0.6871493387601418 0  0.4414403982452513 0.6870493359123567 0  0.5049669831305335 0.6869247539975433 0  0.5687332766571016 0.6867673488423653 0  0.6328118175939804 0.6865660282843089 0  0.6972998404004854 0.6863057505238538 0  0.7623317486207426 0.6859660895082981 0  0.8281018600876836 0.6855196156220288 0  0.8949092290811558 0.6849310258685777 0  0.963247414856114 0.6841606016203736 0  1.033968469710114 0.6831803394412601 0  0 0.75 0  0.0628485954529201 0.7499610964200689 0  0.1257125330629275 0.74992026309281 0  0.1886079779338348 0.7498754293999632 0  0.2515529554590039 0.7498242168257087 0  0.3145684937037532 0.7497637373240723 0  0.3776800601883937 0.7496903248556005 0  0.4409194528266564 0.7495991604844904 0  0.5043273741781477 0.7494837320673537 0  0.5679570367540995 0.7493350384699564 0  0.6318793745616998 0.7491403981763707 0  0.6961909558928953 0.7488816408309905 0  0.7610271025111092 0.7485323316695504 0  0.8265869713171476 0.7480535231931814 0  0.8931904373685912 0.7473877132257239 0  0.9614233169968973 0.7464539193778806 0  1.032486889544281 0.7451706646864842 0  0 0.8125 0  0.06277602521919945 0.8124688969388713 0  0.1255644735731478 0.8124361835609328 0  0.1883784680260003 0.8124001212091099 0  0.2512327376100352 0.8123586880334711 0  0.3141446214672742 0.8123093878530139 0  0.3771353545263296 0.8122489879676282 0  0.4402317898618154 0.812173140621284 0  0.5034687757123234 0.8120758173707645 0  0.5668924956131883 0.8119484427311262 0  0.6305652088339156 0.8117785403505801 0  0.694572042666166 0.8115475756391183 0  0.7590310728622538 0.8112274335726106 0  0.8241104984214368 0.810774463689684 0  0.8900698366334177 0.810118971548708 0  0.9574095249022804 0.8091468940951551 0  1.027553503189391 0.8076844924925293 0  0 0.875 0  0.06269119619239356 0.8749782979983137 0  0.1253911400887212 0.8749554370272173 0  0.1881090904881598 0.874930159987366 0  0.2508554919017691 0.8749009918253695 0  0.313642726976292 0.8748660892377171 0  0.3764860949967254 0.8748230301393757 0  0.4394051443925841 0.8747685025236576 0  0.5024255385399905 0.8746978276518828 0  0.5655816947157869 0.8746042099460062 0  0.6289204655844353 0.8744775325304591 0  0.6925059796412466 0.8743023879727962 0  0.7564249460685121 0.874054785271061 0  0.8207890375694972 0.8736963780426389 0  0.8857250096635659 0.8731631117882166 0  0.9513507110638201 0.8723375116255903 0  1.018016044262201 0.8709600850555218 0  0 0.9375 0  0.06259778258036097 0.9374888492221571 0  0.1252000833543507 0.9374770917111542 0  0.1878116907959957 0.9374640674819837 0  0.2504380246908136 0.9374489978008225 0  0.3130855415865542 0.937430902161258 0  0.375762269140321 0.9374084803714172 0  0.4384785456616336 0.9
[...]
<PointData  Vectors="f_54"> 
<DataArray  type="Float64"  Name="f_54"  NumberOfComponents="3" format="ascii">0.0000000000000000e+00 0.0000000000000000e+00 0.0000000000000000e+00  0.0000000000000000e+00 0.0000000000000000e+00 0.0000000000000000e+00  0.0000000000000000e+00 0.0000000000000000e+00 0.0000000000000000e+00  0.0000000000000000e+00 0.0000000000000000e+00 0.0000000000000000e+00  0.0000000000000000e+00 0.0000000000000000e+00 0.0000000000000000e+00  0.0000000000000000e+00 0.0000000000000000e+00 0.0000000000000000e+00  0.0000000000000000e+00 0.0000000000000000e+00 0.0000000000000000e+00  0.0000000000000000e+00 0.0000000000000000e+00 0.0000000000000000e+00  0.0000000000000000e+00 0.0000000000000000e+00 0.0000000000000000e+00  0.0000000000000000e+00 0.0000000000000000e+00 0.0000000000000000e+00  0.0000000000000000e+00 0.0000000000000000e+00 0.0000000000000000e+00  0.0000000000000000e+00 0.0000000000000000e+00 0.0000000000000000e+00  0.0000000000000000e+00 0.0000000000000000e+00 0.0000000000000000e+00  0.0000000000000000e+00 0.0000000000000000e+00 0.0000000000000000e+00  0.0000000000000000e+00 0.0000000000000000e+00 0.0000000000000000e+00  0.0000000000000000e+00 0.0000000000000000e+00 0.0000000000000000e+00  0.0000000000000000e+00 0.0000000000000000e+00 0.0000000000000000e+00  0.0000000000000000e+00 0.0000000000000000e+00 0.0000000000000000e+00  9.2048115088902340e-08 -6.7983216572667140e-08 0.0000000000000000e+00  2.1183930998933179e-07 -1.3781565468974013e-07 0.0000000000000000e+00  3.9141997979398330e-07 -2.1139168639185112e-07 0.0000000000000000e+00  6.7194156220729265e-07 -2.9066825070964669e-07 0.0000000000000000e+00  1.1096892446617556e-06 -3.7773038139301052e-07 0.0000000000000000e+00  1.7841410711534642e-06 -4.7491252567612410e-07 0.0000000000000000e+00  2.8093344006656364e-06 -5.8502562611363403e-07 0.0000000000000000e+00  4.3507705435414797e-06 -7.1178012763792626e-07 0.0000000000000000e+00  6.6523349701875071e-06 -8.6057774826463081e-07 0.0000000000000000e+00  1.0083404120002349e-05 -1.0400489574815452e-06 0.0000000000000000e+00  1.5231785025215467e-05 -1.2653198709215188e-06 0.0000000000000000e+00  2.3113186820407577e-05 -1.5660546408185467e-06 0.0000000000000000e+00  3.5708588086314581e-05 -2.0099421859182769e-06 0.0000000000000000e+00  5.7513231126893865e-05 -2.7821959213244269e-06 0.0000000000000000e+00  1.0050633466712718e-04 -4.4864793552381593e-06 0.0000000000000000e+00  2.0215784494821552e-04 -9.4178169770373397e-06 0.0000000000000000e+00  0.0000000000000000e+00 0.0000000000000000e+00 0.0000000000000000e+00  1.5665537345608185e-07 -1.3428874414013354e-07 0.0000000000000000e+00  3.6478727779151078e-07 -2.7227320417357967e-07 0.0000000000000000e+00  6.8399480283727600e-07 -4.1772837780448734e-07 0.0000000000000000e+00  1.1911063594140462e-06 -5.7453130624881246e-07 0.0000000000000000e+00  1.9915692319174608e-06 -7.4676726108199694e-07 0.0000000000000000e+00  3.2345715716181924e-06 -9.3892772159702693e-07 0.0000000000000000e+00  5.1340046696622123e-06 -1.1562838525040290e-06 0.0000000000000000e+00  7.9985576536975015e-06 -1.4055773858499217e-06 0.0000000000000000e+00  1.2276668587670086e-05 -1.6962596938640392e-06 0.0000000000000000e+00  1.8627278126168702e-05 -2.0426361815481226e-06 0.0000000000000000e+00  2.8038702521793741e-05 -2.4674064231301640e-06 0.0000000000000000e+00  4.2041697561194909e-05 -3.0069301177052611e-06 0.0000000000000000e+00  6.3104527764575732e-05 -3.7161785115081598e-06 0.0000000000000000e+00  9.5323919533787542e-05 -4.6559533879541466e-06 0.0000000000000000e+00  1.4521789013045803e-04 -5.7587945879258585e-06 0.0000000000000000e+00  2.1978019549859386e-04 -6.0086803318111777e-06 0.0000000000000000e+00  0.0000000000000000e+00 0.0000000000000000e+00 0.0000000000000000e+00  1.7015733230965052e-07 -1.9705089392474154e-07 0.0000000000000000e+00  4.0769828364991398e-07 -3.9962602055602144e-07 0.0000000000000000e+00  7.9095067457655387e-07 -6.1334357046322516e-07 0.0000000000000000e+00  1.4215656271358173e-06 -8.4392324315399791e-07 0.0000000000000000e+00  2.4399344669356042e-06 -1.0972884635926813e-06 0.0000000000000000e+00  4.0455312257168064e-06 -1.3797616835183466e-06 0.0000000000000000e+00  6.5245966005192529e-06 -1.6984498122502459e-06 0.0000000000000000e+00  1.0288334757022611e-05 -2.0619854738847903e-06 0.0000000000000000e+00  1.5925840194011970e-05 -2.4818784591827645e-06 0.0000000000000000e+00  2.4277171625984446e-05 -2.9748052762139745e-06 0.0000000000000000e+00  3.6532223734348839e-05 -3.5660962836515697e-06 0.0000000000000000e+00  5.4355100519524870e-05 -4.2941182250538836e-06 0.0000000000000000e+00  8.0001604874497056e-05 -5.2134847071539176e-06 0.0000000000000000e+00  1.1627310251092727e-04 -6.3921058835295849e-06 0.0000000000000000e+00  1.6575343407935816e-04 -7.9059461963403203e-06 0.0000000000000000e+00  2.2783151830424290e-04 -9.9675798679072409e-06 0.0000000000000000e+00  0.0000000000000000e+00 0.0000000000000000e+00 0.0000000000000000e+00  1.1677538100253838e-07 -2.5442588624090357e-07 0.0000000000000000e+00  3.0614767264566426e-07 -5.1618673635212270e-07 0.0000000000000000e+00  6.5308825587753281e-07 -7.9270755378406867e-07 0.0000000000000000e+00  1.2691558630800221e-06 -1.0914772067079918e-06 0.0000000000000000e+00  2.3101918694832310e-06 -1.4200967605741630e-06 0.0000000000000000e+00  3.9997127290428810e-06 -1.7863779929853671e-06 0.0000000000000000e+00  6.6605175101595440e-06 -2.1985797430272324e-06 0.0000000000000000e+00  1.0757295277373582e-05 -2.6659535919837439e-06 0.0000000000000000e+00  1.6952718621634573e-05 -3.1998949542970330e-06 0.0000000000000000e+00  2.6177467663145473e-05 -3.8161416916250497e-06 0.0000000000000000e+00  3.9707922414454990e-05 -4.5385321843060200e-06 0.0000000000000000e+00  5.9226917912599525e-05 -5.4045493531743366e-06 0.0000000000000000e+00  8.6797714338507795e-05 -6.4716349108040865e-06 0.0000000000000000e+00  1.2458253805212321e-04 -7.8200245837354071e-06 0.0000000000000000e+00  1.7396930810472159e-04 -9.5402058532378474e-06 0.0000000000000000e+00  2.3368016245961542e-04 -1.1662393181331021e-05 0.0000000000000000e+00  0.0000000000000000e+00 0.0000000000000000e+00 0.0000000000000000e+00  -8.5643158370365615e-09 -3.0459419093390905e-07 0.0000000000000000e+00  4.8459974498313318e-08 -6.1832918570680787e-07 0.0000000000000000e+00  2.4882002311086767e-07 -9.5042597252147225e-07 0.0000000000000000e+00  6.9674161403215730e-07 -1.3101229305332876e-06 0.0000000000000000e+00  1.5408973187340846e-06 -1.7066335763571124e-06 0.0000000000000000e+00  2.9985559235241502e-06 -2.1490616458179145e-06 0.0000000000000000e+00  5.3886679356706671e-06 -2.6463177934769927e-06 0.0000000000000000e+00  9.1768625147950475e-06 -3.2071758413701397e-06 0.0000000000000000e+00  1.5034768193221019e-05 -3.8407891221300372e-06 0.0000000000000000e+00  2.3913403244345602e-05 -4.5583101368687953e-06 0.0000000000000000e+00  3.7122949373134694e-05 -5.3767577412255384e-06 0.0000000000000000e+00  5.6394305638872761e-05 -6.3268971814754237e-06 0.0000000000000000e+00  8.3865086996478405e-05 -7.4672691557041009e-06 0.0000000000000000e+00  1.2188281319202385e-04 -8.9054536096678451e-06 0.0000000000000000e+00  1.7248087222808135e-04 -1.0822223367729101e-05 0.0000000000000000e+00  2.3648342123382842e-04 -1.3479007542753190e-05 0.0000000000000000e+00  0.0000000000000000e+00 0.0000000000000000e+00 0.0000000000000000e+00  -1.9876898426745096e-07 -3.4575026371124751e-07 0.0000000000000000e+00  -3.5110027498778796e-07 -7.0245379878903941e-07 0.0000000000000000e+00  -4.0036996584153248e-07 -1.0811526496031628e-06 0.0000000000000000e+00  -2.6725954128463928e-07 -1.4929056209278155e-06 0.0000000000000000e+00  1.6626585822230203e-07 -1.9486552234274462e-06 0.0000000000000000e+00  1.0793159328836014e-06 -2.4589135614845836e-06 0.0000000000000000e+00  2.7439831710228317e-06 -3.0332172730980101e-06 0.0000000000000000e+00  5.5707762432836463e-06 -3.6793667188037742e-06 0.0000000000000000e+00  1.0171990444842010e-05 -4.4026580917406709e-06 0.0000000000000000e+00  1.7446632793850450e-05 -5.2057915803885346e-06 0.0000000000000000e+00  2.8686756655902908e-05 -6.0911680148558832e-06 0.0000000000000000e+00  4.5695682787534013e-05 -7.0692868352086581e-06 0.0000000000000000e+00  7.0891441391079932e-05 -8.1803640681207820e-06 0.0000000000000000e+00  1.0734814803517104e-04 -9.5410013232657943e-06 0.0000000000000000e+00  1.5872947403296414e-04 -1.1431826876882013e-05 0.0000000000000000e+00  2.2915679234999592e-04 -1.4440507617400893e-05 0.0000000000000000e+00  0.0000000000000000e+00 0.0000000000000000e+00 0.0000000000000000e+00  -4.3472363062249595e-07 -3.7609349758146864e-07 0.0000000000000000e+00  -8.5248126352199496e-07 -7.6494442026535071e-07 0.0000000000000000e+00  -1.2297911946994666e-06 -1.1794579665694917e-06 0.0000000000000000e+00  -1.5279472698160545e-06 -1.6326753367078728e-06 0.0000000000000000e+00  -1.6813445559841191e-06 -2.1376121064839486e-06 0.0000000000000000e+00  -1.5799337928152185e-06 -2.7067601540986740e-06 0.0000000000000000e+00  -1.0421537378969183e-06 -3.3510543508263422e-06 0.0000000000000000e+00  2.2702317161385155e-07 -4.0780642831893967e-06 0.0000000000000000e+00  2.7006406145683542e-06 -4.8892250748564425e-06 0.0000000000000000e+00  7.1274359292761115e-06 -5.7762870322255577e-06 0.0000000000000000e+00  1.4675828148065627e-05 -6.7183536390293615e-06 0.0000000000000000e+00  2.7138393479829116e-05 -7.6839720802952045e-06 0.0000000000000000e+00  4.7208253040881501e-05 -8.6497109046214233e-06 0.0000000000000000e+00  7.8832245407774106e-05 -9.6603069187551887e-06 0.0000000000000000e+00  1.2764589550856063e-04 -1.0977779369347229e-05 0.0000000000000000e+00  2.0153761576419103e-04 -1.3394363401815526e-05 0.0000000000000000e+00  0.0000000000000000e+00 0.0000000000000000e+00 0.0000000000000000e+00  -6.8715776406685468e-07 -3.9384481831300715e-07 0.0000000000000000e+00  -1.3936032564372374e-06 -8.0216984038479668e-07 0.0000000000000000e+00  -2.1371979733197755e-06 -1.2397421577948867e-06 0.0000000000000000e+00  -2.9313052926828470e-06 -1.7217770048845626e-06 0.0000000000000000e+00  -3.7798755354314747e-06 -2.2638902090488734e-06 0.0000000000000000e+00  -4.6681916284198880e-06 -2.8816062726460769e-06 0.0000000000000000e+00  -5.5456948127631423e-06 -3.5890553272279742e-06 0.0000000000000000e+00  -6.2946617305441483e-06 -4.3962587885243250e-06 0.0000000000000000e+00  -6.6740177140736009e-06 -5.3040956414852520e-06 0.0000000000000000e+00  -6.2203021041623724e-06 -6.2957862776918108e-06 0.0000000000000000e+00  -4.0767981537773027e-06 -7.3240260456178004e-06 0.0000000000000000e+00  1.2929800444799695e-06 -8.2952315707099031e-06 0.0000000000000000e+00  1.2567080667993119e-05 -9.0605073120281945e-06 0.0000000000000000e+00  3.4270316406414756e-05 -9.4450578933076373e-06 0.0000000000000000e+00  7.3780887019421322e-05 -9.3977400280026256e-06 0.0000000000000000e+00  1.4268094511535537e-04 -9.4349978886048284e-06 0.0000000000000000e+00  0.0000000000000000e+00 0.0000000000000000e+00 0.0000000000000000e+00  -9.2019113164442310e-07 -3.9731955152029023e-07 0.0000000000000000e+00  -1.8977005376519862e-06 -8.1060141466238587e-07 0.0000000000000000e+00  -2.9943688986322704e-06 -1.2563260111553757e-06 0.0000000000000000e+00  -4.2804582853435177e-06 -1.7519632466612746e-06 0.0000000000000000e+00  -5.8385064160239266e-06 -2.3162521152175335e-06 0.0000000000000000e+00  -7.7658010952962181e-06 -2.9690684421082349e-06 0.0000000000000000e+00  -1.0173031230282802e-05 -3.7304179373045236e-06 0.0000000000000000e+00  -1.3173700519580343e-05 -4.6176453191293193e-06 0.0000000000000000e+00  -1.6853036398818197e-05 -5.6391326932012184e-06 0.0000000000000000e+00  -2.1194005437817474e-05 -6.7813543311939430e-06 0.0000000000000000e+00  -2.5917966268389821e-05 -7.9840244027077938e-06 0.0000000000000000e+00  -3.0164058691634087e-05 -9.0958123302142052e-06 0.0000000000000000e+00  -3.1883379500027086e-05 -9.8042476641929458e-06 0.0000000000000000e+00  -2.6774711024914034e-05 -9.5506266064318909e-06 0.0000000000000000e+00  -6.5855913688342920e-06 -7.5080616648879294e-06 0.0000000000000000e+00  4.3284841158441966e-05 -2.8811386181750931e-06 0.0000000000000000e+00  0.0000000000000000e+00 0.0000000000000000e+00 0.0000000000000000e+00  -1.0962984345273975e-06 -3.8508358447746769e-07 0.0000000000000000e+00  -2.2837956884477836e-06 -7.8711637117676893e-07 0.0000000000000000e+00  -3.6641610472564878e-06 -1.2238665389892940e-06 0.0000000000000000e+00  -5.3607889035549689e-06 -1.7148189148330813e-06 0.0000000000000000e+00  -7.5323842373134043e-06 -2.2820070865209625e-06 0.0000000000000000e+00  -1.0389525993777192e-05 -2.9506869028596619e-06 0.0000000000000000e+00  -1.4214324639153784e-05 -3.7494866029413845e-06 0.0000000000000000e+00  -1.9381246679072334e-05 -4.7091436787070715e-06 0.0000000000000000e+00  -2.6372063222743661e-05 -5.8577764347096890e-06 0.0000000000000000e+00  -3.5765976217493785e-05 -7.2081082829304926e-06 0.0000000000000000e+00  -4.8159870237777724e-05 -8.7266948602884937e-06 0.0000000000000000e+00  -6.3919966225033735e-05 -1.0264378698922654e-05 0.0000000000000000e+00  -8.2565895885316229e-05 -1.1407776693548713e-05 0.0000000000000000e+00  -1.0143297563252919e-04 -1.1187222624841931e-05 0.0000000000000000e+00  -1.1312061707747167e-04 -7.5923440753192628e-06 0.0000000000000000e+00  -1.0140814102519918e-04 2.9071949367713494e-06 0.0000000000000000e+00  0.0000000000000000e+00 0.0000000000000000e+00 0.0000000000000000e+00  -1.1821518022921751e-06 -3.5620131298207120e-07 0.0000000000000000e+00  -2.4792497881681044e-06 -7.2952032466395641e-07 0.0000000000000000e+00  -4.0215732833677228e-06 -1.1381983417381487e-06 0.0000000000000000e+00  -5.9723722237358755e-06 -1.6029550954567824e-06 0.0000000000000000e+00  -8.5503862473558403e-06 -2.1485036312392834e-06 0.0000000000000000e+00  -1.2060412573957533e-05 -2.8053793076199670e-06 0.0000000000000000e+00  -1.6935838103109001e-05 -3.6120829078582193e-06 0.0000000000000000e+00  -2.3797540750190027e-05 -4.6172383595328739e-06 0.0000000000000000e+00  -3.3532496158958587e-05 -5.8805855267406603e-06 0.0000000000000000e+00  -4.7389126893825332e-05 -7.4691827627182767e-06 0.0000000000000000e+00  -6.7065206551848578e-05 -9.4385638598845023e-06 0.0000000000000000e+00  -9.4703847054800926e-05 -1.1770841142770151e-05 0.0000000000000000e+00  -1.3255872872520077e-04 -1.4194945901453782e-05 0.0000000000000000e+00  -1.8173904183400950e-04 -1.5696563673558858e-05 0.0000000000000000e+00  -2.3883143947513099e-04 -1.3276531682691415e-05 0.0000000000000000e+00  -2.8890806076891713e-04 6.8709977438513474e-07 0.0000000000000000e+00  0.0000000000000000e+00 0.0000000000000000e+00 0.0000000000000000e+00  -1.1544954546758988e-06 -3.1054950029816679e-07 0.0000000000000000e+00  -2.4326226597963100e-06 -6.3724558144707095e-07 0.0000000000000000e+00  -3.9760147262590531e-06 -9.9756689038648647e-07 0.0000000000000000e+00  -5.9658260014378943e-06 -1.4120236483840761e-06 0.0000000000000000e+00  -8.6511677565094427e-06 -1.9062713830794317e-06 0.0000000000000000e+00  -1.2389990689443485e-05 -2.5140930889698296e-06 0.0000000000000000e+00  -1.7710379449756888e-05 -3.2817997640501567e-06 0.0000000000000000e+00  -2.5404425792257629e-05 -4.2748457392219871e-06 0.0000000000000000e+00  -3.6673045112503705e-05 -5.5876897250229764e-06 0.0000000000000000e+00  -5.3347654901987616e-05 -7.3577257819035293e-06 0.0000000000000000e+00  -7.8218094971047522e-05 -9.7817308192710954e-06 0.0000000000000000e+00  -1.1547230903518252e-04 -1.3122157460081275e-05 0.0000000000000000e+00  -1.7111902704078794e-04 -1.7645658247863983e-05 0.0000000000000000e+00  -2.5275142491512257e-04 -2.3258534748410158e-05 0.0000000000000000e+00  -3.6639689784975527e-04 -2.7898938253934598e-05 0.0000000000000000e+00  -5.0564541670034739e-04 -2.1363613782387266e-05 0.0000000000000000e+00  0.0000000000000000e+00 0.0000000000000000e+00 0.0000000000000000e+00  -1.0049745337394438e-06 -2.4912879983499920e-07 0.0000000000000000e+00  -2.1244788063043539e-06 -5.1207840303035951e-07 0.0000000000000000e+00  -3.4906893964541413e-06 -8.0401199292736337e-07 0.0000000000000000e+00  -5.2750677997722309e-06 -1.1432097486787020e-06 0.0000000000000000e+00  -7.7176469485079513e-06 -1.5534258937593602e-06 0.0000000000000000e+00  -1.1170759260808886e-05 -2.0674986502329765e-06 0.0000000000000000e+00  -1.6167778971523474e-05 -2.7332342610567296e-06 0.0000000000000000e+00  -2.3534986188411975e-05 -3.6234275753948957e-06 0.0000000000000000e+00  -3.4578571056462886e-05 -4.8535306537277312e-06 0.0000000000000000e+00  -5.1404399465963378e-05 -6.6137571384831538e-06 0.0000000000000000e+00  -7.7474019612058041e-05 -9.2289729599601617e-06 0.0000000000000000e+00  -1.1857438758890515e-04 -1.3272607008767155e-05 0.0000000000000000e+00  -1.8445432667254561e-04 -1.9782773888405702e-05 0.0000000000000000e+00  -2.9120358693714951e-04 -3.0635615166546081e-05 0.0000000000000000e+00  -4.6243293237983592e-04 -4.8789881524845073e-05 0.0000000000000000e+00  -7.1187327067359478e-04 -7.3208486768830411e-05 0.0000000000000000e+00  0.0000000000000000e+00 0.0000000000000000e+00 0.0000000000000000e+00  -7.4280565062588002e-07 -1.7427209171785034e-07 0.0000000000000000e+00  -1.5735956055956873e-06 -3.5868041542797314e-07 0.0000000000000000e+00  -2.5943934837286862e-06 -5.6445714720904756e-07 0.0000000000000000e+00  -3.9387598563273439e-06 -8.0541114885744335e-07 0.0000000000000000e+00  -5.7958488686641368e-06 -1.0999735438405031e-06 0.0000000000000000e+00  -8.4472072133998987e-06 -1.4744752713935324e-06 0.0000000000000000e+00  -1.2326394576610172e-05 -1.9687632934192096e-06 0.0000000000000000e+00  -1.8119803093140994e-05 -2.6463175327575562e-06 0.0000000000000000e+00  -2.6943919280363623e-05 -3.6132898353019421e-06 0.0000000000000000e+00  -4.0669852978113705e-05 -5.0559253998298768e-06 0.0000000000000000e+00  -6.2544186243769392e-05 -7.3177013962811334e-06 0.0000000000000000e+00  -9.8433905952710418e-05 -1.1067696041869857e-05 0.0000000000000000e+00  -1.5944199365457672e-04 -1.7697430170719589e-05 0.0000000000000000e+00  -2.6761997017677038e-04 -3.0371957206515292e-05 0.0000000000000000e+00  -4.6876193777842858e-04 -5.7412144520855093e-05 0.0000000000000000e+00  -8.6403099108260987e-04 -1.2766274185141505e-04 0.0000000000000000e+00  0.0000000000000000e+00 0.0000000000000000e+00 0.0000000000000000e+00  -3.9444532545511993e-07 -8.9647804209642918e-08 0.0000000000000000e+00  -8.3655384535015689e-07 -1.8465420915024699e-07 0.0000000000000000e+00  -1.3817221080177779e-06 -2.9099155335577439e-07 0.0000000000000000e+00  -2.1028003104909510e-06 -4.1608455078983339e-07 0.0000000000000000e+00  -3.1035556603201436e-06 -5.6999145897951957e-07 0.0000000000000000e+00  -4.5395116862256341e-06 -7.6733656762368585e-07 0.0000000000000000e+00  -6.6522150281015520e-06 -1.0306929155114192e-06 0.0000000000000000e+00  -9.8282986571945356e-06 -1.3968061786354270e-06 0.0000000000000000e+00  -1.4706012893748438e-05 -1.9285430123970111e-06 0.0000000000000000e+00  -2.2377262008374072e-05 -2.7387468153768160e-06 0.0000000000000000e+00  -3.4793965043759271e-05 -4.0396118828943482e-06 0.0000000000000000e+00  -5.5644056704122881e-05 -6.2477605981108556e-06 0.0000000000000000e+00  -9.2393956563251251e-05 -1.0208660144008710e-05 0.0000000000000000e+00  -1.6142378062557945e-04 -1.7639032812931580e-05 0.0000000000000000e+00  -3.0120204143970977e-04 -3.1628441151267652e-05 0.0000000000000000e+00  -5.9677904004979895e-04 -5.4192681927619874e-05 0.0000000000000000e+00  0.0000000000000000e+00 0.0000000000000000e+00 0.0000000000000000e+00  0.0000000000000000e+00 0.0000000000000000e+00 0.0000000000000000e+00  0.0000000000000000e+00 0.0000000000000000e+00 0.0000000000000000e+00  0.0000000000000000e+00 0.0000000000000000e+00 0.0000000000000000e+00  0.0000000000000000e+00 0.0000000000000000e+00 0.0000000000000000e+00  0.0000000000000000e+00 0.0000000000000000e+00 0.0000000000000000e+00  0.0000000000000000e+00 0.0000000000000000e+00 0.000000000000