<?xml version="1.0"?>
<VTKFile type="UnstructuredGrid"  version="0.1"  >
<UnstructuredGrid>
<Piece  NumberOfPoints="289" NumberOfCells="512">
<Points>
<DataArray  type="Float64"  NumberOfComponents="3"  format="ascii">0 0 0  0.0625 0 0  0.125 0 0  0.1875 0 0  0.25 0 0  0.3125 0 0  0.375 0 0  0.4375 0 0  0.5 0 0  0.5625 0 0  0.625 0 0  0.6875 0 0  0.75 0 0  0.8125 0 0  0.875 0 0  0.9375 0 0  1 0 0  0 0.0625 0  0.0625720792440428 0.06248323257186519 0  0.1251469239942585 0.06246612963224023 0  0.1877274286256439 0.06244837426537326 0  0.2503167099241249 0.06242969882228914 0  0.312918236158315 0.06240991706832654 0  0.3755359824552396 0.06238896432870712 0  0.438174637536026 0.06236694531176815 0  0.500839916385091 0.06234418466166609 0  0.5635391066930387 0.06232126604724608 0  0.6262821660007699 0.06229902711701777 0  0.6890841994034549 0.06227843826012749 0  0.7519716216548574 0.06226019620658962 0  0.8149988100458105 0.06224357478349076 0  0.878296678984044 0.06222305473314487 0  0.942225450159748 0.06217721254256238 0  1.007901913457805 0.06202721436264912 0  0 0.125 0  0.06264142350888482 0.1249667877202861 0  0.1252882944841163 0.1249328793421072 0  0.1879463162639867 0.124897613047528 0  0.2506216388326901 0.1248604193671546 0  0.3133211167895528 0.1248208836470353 0  0.3760526152527737 0.1247788269054832 0  0.438825402066323 0.1247344069358746 0  0.501650701457074 0.12468823444296 0  0.5645425666933284 0.1246414850154267 0  0.6275194131203455 0.1245959623323379 0  0.6906069535466172 0.1245540267447298 0  0.7538440915249138 0.1245182529579005 0  0.8172946586055336 0.1244906987481969 0  0.8810683121537055 0.1244722025285213 0  0.945342586257798 0.1244654469396789 0  1.010295863633725 0.1245023302172358 0  0 0.1875 0  0.06270534956367996 0.187451030613814 0  0.1254186367756253 0.1874009595187504 0  0.1881481718436601 0.1873487288551439 0  0.2509029248292008 0.1872934028458502 0  0.3136929029162186 0.1872342555839455 0  0.3765295877228414 0.1871708910847762 0  0.439426468020336 0.1871034036169943 0  0.502399722817973 0.1870325799778979 0  0.5654691433504555 0.1869601311987684 0  0.6286594302586626 0.1868889132091172 0  0.6920020292357412 0.1868230456351149 0  0.7555374876832635 0.1867677520479677 0  0.8193172043986591 0.1867285893598953 0  0.8833991124475915 0.1867093312991885 0  0.9478186633688265 0.1867060575138264 0  1.012488716934682 0.1866860100247343 0  0 0.25 0  0.06276137694252634 0.2499363707426626 0  0.1255328864041054 0.2498711761189223 0  0.1883251328676468 0.2498028943732106 0  0.2511495731742283 0.2497301336206355 0  0.3140190004189473 0.2496517347690998 0  0.3769480959089927 0.2495669232277874 0  0.4399540757133913 0.2494755278447134 0  0.5030574547146861 0.2493782838320721 0  0.5662829288967868 0.2492772281108207 0  0.6296602988712181 0.2491761733996396 0  0.6932251263759664 0.2490811994342329 0  0.7570181878092423 0.2490010062823482 0  0.8210812332863616 0.2489468049643668 0  0.8854432115699257 0.248931140533067 0  0.950085833071447 0.2489647719811345 0  1.014876217693247 0.2490520337116447 0  0 0.3125 0  0.06280732529826942 0.3124232743228356 0  0.1256265886776669 0.3123444595940451 0  0.1884702766657405 0.3122614965098683 0  0.2513518918306116 0.3121724321516998 0  0.3142865303180645 0.3120755207768265 0  0.3772915406316403 0.3119693893896874 0  0.440387289868555 0.3118532999544219 0  0.5035980493405408 0.3117275473077171 0  0.5669529648762022 0.3115940366352893 0  0.630486953140226 0.3114570797866267 0  0.6942410729566991 0.3113244214655712 0  0.7582613008847113 0.3112084285962076 0  0.8225935009601252 0.3111272104346733 0  0.8872707999831421 0.3111051527799259 0  0.9522890377721611 0.31117201447938 0  1.017571809250922 0.3113596496773192 0  0 0.375 0  0.06284140140178 0.3749122656494153 0  0.1256960769391725 0.3748218718083317 0  0.1885778976473176 0.3747261581760784 0  0.2515018755888803 0.3746225079977276 0  0.3144848186307476 0.3745084216794449 0  0.3775460895156282 0.3743816652286928 0  0.4407085117591859 0.3742405386062366 0  0.5039994614751476 0.3740843285638801 0  0.5674521574609644 0.3739140357416611 0  0.6311070772400713 0.3737334925679048 0  0.6950132207095876 0.3735510028558278 0  0.7592285260955346 0.3733816007537374 0  0.8238180705914504 0.3732498737195904 0  0.8888480308124413 0.3731929067366222 0  0.9543739546725155 0.3732621747364982 0  1.020426521533724 0.3735221656598647 0  0 0.4375 0  0.06286227370721396 0.4374039133135074 0  0.1257386263911142 0.4373045818323068 0  0.1886437495758229 0.4371987116668988 0  0.2515935490006483 0.4370829465338449 0  0.3146058503265105 0.4369538829901544 0  0.3777012373559382 0.4368081577901868 0  0.4409040957785927 0.4366426603887428 0  0.504243963458455 0.4364549562332142 0  0.5677573228805944 0.4362440568616119 0  0.6314900011164831 0.436011744984815 0  0.6955003359331469 0.4357647520279843 0  0.7598631613090053 0.4355181580493434 0  0.8246743885114159 0.4353003312478873 0  0.8900555669491738 0.435159296865586 0  0.9561579217405189 0.4351692301861677 0  1.023167921380645 0.4354336248727961 0  0 0.5 0  0.06286913155346935 0.4998987980939296 0  0.1257525779879001 0.4997938028431956 0  0.1886652462977908 0.4996811082170774 0  0.2516232652775458 0.4995566008995969 0  0.3146447011088522 0.4994158845730333 0  0.377750425071197 0.4992542545923278 0  0.4409652380913272 0.4990667724141843 0  0.504319427190716 0.498848530784112 0  0.5678510529807062 0.4985952737697525 0  0.6316094749466064 0.4983046596977064 0  0.6956609388817585 0.4979786529592791 0  0.7600974614349393 0.4976278077290606 0  0.8250505995068815 0.4972784713029674 0  0.8907116139379314 0.4969837852795588 0  0.9573587536751386 0.4968377136932095 0  1.0253927819181 0.4969863545099917 0  0 0.5625 0  0.06286172437717075 0.5623974615828994 0  0.1257374221108518 0.5622906867337794 0  0.1886416026755249 0.5621752543438989 0  0.2515899310168271 0.5620463671001912 0  0.3145998990056265 0.5618986589812776 0  0.3776916425869049 0.561726009521647 0  0.4408890223252965 0.5615213934221904 0  0.5042211900555291 0.5612768336633259 0  0.5677250768954881 0.5609836061304623 0  0.631449654580312 0.5606330027166315 0  0.6954635958175885 0.5602182698074935 0  0.7598692645125122 0.5597389162720621 0  0.8248277906437174 0.5592095417004261 0  0.8906015326266868 0.5586764317261682 0  0.957619207737384 0.5582445285885352 0  1.02656409796462 0.5581092774317526 0  0 0.625 0  0.06284037529592951 0.624900338302081 0  0.1256938284919846 0.624796180833872 0  0.1885738885664406 0.6246827782008931 0  0.2514951039180655 0.6245548382126805 0  0.3144736134826591 0.6244062076632536 0  0.3775278193861537 0.6242294991886109 0  0.4406792538899317 0.6240156525754372 0  0.5039538398872336 0.6237534401747511 0  0.5673839926707954 0.6234289804419714 0  0.6310125777988601 0.6230254608860329 0  0.694900990097595 0.6225236098124066 0  0.7591462186958845 0.6219042778617032 0  0.8239166155063929 0.6211564251814811 0  0.8895231973107256 0.6202978855074032 0  0.9565474934818664 0.6194217397711274 0  1.026034771324149 0.6187730761667714 0  0 0.6875 0  0.0628059645394603 0.6874076787908832 0  0.125623610977357 0.6873108616650367 0  0.1884649710936423 0.6872047476982557 0  0.2513429104365908 0.6870838636660306 0  0.3142715582214541 0.6869416373846785 0  0.3772667612154149 0.6867698488429002 0  0.4403465854705862 0.6865578975797684 0  0.503531943147106 0.6862918087922316 0  0.5668475914292928 0.6859528904869195 0  0.6303242498304626 0.6855159792585813 0  0.6940039749375924 0.6849473733400994 0  0.7579546325614721 0.6842031904934878 0  0.8223085270259182 0.6832311861045974 0  0.8873604934055918 0.6819870018419509 0  0.9537906812007748 0.6805002751264532 0  1.02306338658157 0.6790599542681078 0  0 0.75 0  0.06275988200656542 0.749919475862774 0  0.1255296247921812 0.7498347716954314 0  0.188319338151645 0.7497413831713063 0  0.2511397623388877 0.7496340771591588 0  0.3140025475803654 0.7495064042413209 0  0.3769204719089736 0.749350035669536 0  0.4399075280259678 0.7491538162515554 0  0.5029787601531243 0.7489023672191568 0  0.566149685560459 0.7485739789743692 0  0.6294352088848441 0.7481373811480031 0  0.6928486071005291 0.747546742283006 0  0.7564041575853487 0.7467339750075391 0  0.8201381601222686 0.7455976885370299 0  0.8842010485062636 0.743993052176965 0  0.9491858140976996 0.7417630964708943 0  1.016921375799708 0.7390866424349193 0  0 0.8125 0  0.06270395381262474 0.812435409378933 0  0.1254156078656826 0.8123672931018141 0  0.1881428252741193 0.8122918244631662 0  0.2508939101814709 0.8122044912843138 0  0.3136777635283061 0.8120996206499996 0  0.3765039213824014 0.8119697089196432 0  0.4393823343719184 0.8118044249709702 0  0.5023225929533276 0.8115890707427612 0  0.5653319917009048 0.8113021318542656 0  0.6284112223975192 0.8109112670621471 0  0.6915454533109379 0.8103665118781508 0  0.7546874701993715 0.8095881899359011 0  0.81773228197494 0.8084438689368793 0  0.8805117695498824 0.8067008284528302 0  0.94302115967695 0.8039271431333163 0  1.007399237189143 0.7994101283775741 0  0 0.875 0  0.06264035279557492 0.874954824842795 0  0.1252859906287709 0.8749070935652192 0  0.1879422960691236 0.8748540172933638 0  0.2506149330417016 0.8747922726373738 0  0.313309925661127 0.8747176222366901 0  0.3760336215774837 0.8746243676397291 0  0.4387923924244471 0.8745045154133685 0  0.5015917393147894 0.8743464569355763 0  0.5644340403069912 0.8741328171265735 0  0.6273131444315919 0.8738368603896988 0  0.6902014908557449 0.8734163220594851 0  0.7530192029815873 0.8728023555470492 0  0.8155596027773431 0.8718777432545451 0  0.8773129003529874 0.8704241985128662 0  0.9370817123868792 0.8679506615937569 0  0.992363782390309 0.8629647257624877 0  0 0.9375 0  0.06257150483961114 0.9374767568316936 0  0.1251457031342189 0.9374521702953871 0  0.1877253361050466 0.9374247701536438 0  0.2503132881083261 0.9373927933946978 0  0.31291262534935 0.9373539735611861 0  0.3755265721907537 0.9373052331225638 0  0.4381583418219764 0.9372422083992814 0  
[...]
<PointData  Vectors="f_54"> 
<DataArray  type="Float64"  Name="f_54"  NumberOfComponents="3" format="ascii">0.0000000000000000e+00 0.0000000000000000e+00 0.0000000000000000e+00  0.0000000000000000e+00 0.0000000000000000e+00 0.0000000000000000e+00  0.0000000000000000e+00 0.0000000000000000e+00 0.0000000000000000e+00  0.0000000000000000e+00 0.0000000000000000e+00 0.0000000000000000e+00  0.0000000000000000e+00 0.0000000000000000e+00 0.0000000000000000e+00  0.0000000000000000e+00 0.0000000000000000e+00 0.0000000000000000e+00  0.0000000000000000e+00 0.0000000000000000e+00 0.0000000000000000e+00  0.0000000000000000e+00 0.0000000000000000e+00 0.0000000000000000e+00  0.0000000000000000e+00 0.0000000000000000e+00 0.0000000000000000e+00  0.0000000000000000e+00 0.0000000000000000e+00 0.0000000000000000e+00  0.0000000000000000e+00 0.0000000000000000e+00 0.0000000000000000e+00  0.0000000000000000e+00 0.0000000000000000e+00 0.0000000000000000e+00  0.0000000000000000e+00 0.0000000000000000e+00 0.0000000000000000e+00  0.0000000000000000e+00 0.0000000000000000e+00 0.0000000000000000e+00  0.0000000000000000e+00 0.0000000000000000e+00 0.0000000000000000e+00  0.0000000000000000e+00 0.0000000000000000e+00 0.0000000000000000e+00  0.0000000000000000e+00 0.0000000000000000e+00 0.0000000000000000e+00  0.0000000000000000e+00 0.0000000000000000e+00 0.0000000000000000e+00  -3.5715132549813817e-06 -1.3566810880479474e-07 0.0000000000000000e+00  -7.2313288745973065e-06 -2.7052670006582676e-07 0.0000000000000000e+00  -1.1066933479474612e-05 -4.0317651620944176e-07 0.0000000000000000e+00  -1.5159637399926446e-05 -5.3084890366541162e-07 0.0000000000000000e+00  -1.9579661246944095e-05 -6.4863344091899061e-07 0.0000000000000000e+00  -2.4378726609411059e-05 -7.4864812810471975e-07 0.0000000000000000e+00  -2.9578970572700179e-05 -8.1923414387075252e-07 0.0000000000000000e+00  -3.5156605836203992e-05 -8.4438082602389779e-07 0.0000000000000000e+00  -4.1018009181055512e-05 -8.0378251872947488e-07 0.0000000000000000e+00  -4.6964369464524329e-05 -6.7420519002581610e-07 0.0000000000000000e+00  -5.2637409837884480e-05 -4.3314863507005689e-07 0.0000000000000000e+00  -5.7429590073881387e-05 -6.5886208191833956e-08 0.0000000000000000e+00  -6.0317689168081813e-05 4.2405704740233550e-07 0.0000000000000000e+00  -5.9507955132644814e-05 1.0064120223563302e-06 0.0000000000000000e+00  -5.1558210606298233e-05 1.6470377428611669e-06 0.0000000000000000e+00  -2.8831354912007703e-05 2.5140924540024002e-06 0.0000000000000000e+00  0.0000000000000000e+00 0.0000000000000000e+00 0.0000000000000000e+00  -7.0611273304214420e-06 -2.7237765739919930e-07 0.0000000000000000e+00  -1.4302637706848788e-05 -5.4380501274874489e-07 0.0000000000000000e+00  -2.1903898548143630e-05 -8.1218351762011892e-07 0.0000000000000000e+00  -3.0033578985395664e-05 -1.0727218642329430e-06 0.0000000000000000e+00  -3.8840774902011509e-05 -1.3163617352898746e-06 0.0000000000000000e+00  -4.8441292393667756e-05 -1.5280066447028446e-06 0.0000000000000000e+00  -5.8896810096978675e-05 -1.6846627337925956e-06 0.0000000000000000e+00  -7.0183951578802235e-05 -1.7538314578923205e-06 0.0000000000000000e+00  -8.2149153908529180e-05 -1.6928900292008235e-06 0.0000000000000000e+00  -9.4443068909415436e-05 -1.4508266825859727e-06 0.0000000000000000e+00  -1.0642369097407812e-04 -9.7463168351796319e-07 0.0000000000000000e+00  -1.1700702764005699e-04 -2.2394986925586705e-07 0.0000000000000000e+00  -1.2441947269758140e-04 8.0044661898836718e-07 0.0000000000000000e+00  -1.2574660006368888e-04 2.0043888752529708e-06 0.0000000000000000e+00  -1.1603057398242004e-04 3.0973213696106446e-06 0.0000000000000000e+00  -8.6347959674956681e-05 3.3305982781268379e-06 0.0000000000000000e+00  0.0000000000000000e+00 0.0000000000000000e+00 0.0000000000000000e+00  -1.0374826478021418e-05 -4.1017629254108616e-07 0.0000000000000000e+00  -2.1027924578215008e-05 -8.2056319406744312e-07 0.0000000000000000e+00  -3.2237468827739146e-05 -1.2297524178930166e-06 0.0000000000000000e+00  -4.4269534302769277e-05 -1.6324761024517040e-06 0.0000000000000000e+00  -5.7367111608452828e-05 -2.0172260733229385e-06 0.0000000000000000e+00  -7.1732294131307740e-05 -2.3633978190341366e-06 0.0000000000000000e+00  -8.7498419562706837e-05 -2.6379836451893536e-06 0.0000000000000000e+00  -1.0468810041358279e-04 -2.7921211429486093e-06 0.0000000000000000e+00  -1.2315193229069487e-04 -2.7583405582072608e-06 0.0000000000000000e+00  -1.4248102987498369e-04 -2.4503126466642873e-06 0.0000000000000000e+00  -1.6188395361360787e-04 -1.7685063124638146e-06 0.0000000000000000e+00  -1.8001428354402142e-04 -6.1773573030846520e-07 0.0000000000000000e+00  -1.9472891185414500e-04 1.0534098142472159e-06 0.0000000000000000e+00  -2.0275571065982349e-04 3.1749716014017095e-06 0.0000000000000000e+00  -1.9929533491070938e-04 5.4146476707245708e-06 0.0000000000000000e+00  -1.7787429375821847e-04 6.9481912136004253e-06 0.0000000000000000e+00  0.0000000000000000e+00 0.0000000000000000e+00 0.0000000000000000e+00  -1.3413153059016581e-05 -5.4780809358287767e-07 0.0000000000000000e+00  -2.7208799203237397e-05 -1.0988311275133544e-06 0.0000000000000000e+00  -4.1771773253683683e-05 -1.6543647705997888e-06 0.0000000000000000e+00  -5.7477767288851595e-05 -2.2110155283498704e-06 0.0000000000000000e+00  -7.4682864939282605e-05 -2.7576012299684299e-06 0.0000000000000000e+00  -9.3704797153869345e-05 -3.2711436378061485e-06 0.0000000000000000e+00  -1.1479190756150905e-04 -3.7117380084457742e-06 0.0000000000000000e+00  -1.3807480041132871e-04 -4.0163052048144999e-06 0.0000000000000000e+00  -1.6349455599317286e-04 -4.0917545182584085e-06 0.0000000000000000e+00  -1.9070050845255309e-04 -3.8091813824905654e-06 0.0000000000000000e+00  -2.1891046383130646e-04 -3.0028283849042974e-06 0.0000000000000000e+00  -2.4672829119693184e-04 -1.4812717486643681e-06 0.0000000000000000e+00  -2.7192208121950564e-04 9.3564471069691146e-07 0.0000000000000000e+00  -2.9119293398422396e-04 4.3321171902468833e-06 0.0000000000000000e+00  -3.0004480123107938e-04 8.5343493858060074e-06 0.0000000000000000e+00  -2.9307066759758028e-04 1.2851410640527097e-05 0.0000000000000000e+00  0.0000000000000000e+00 0.0000000000000000e+00 0.0000000000000000e+00  -1.6070955248508048e-05 -6.8218796636819694e-07 0.0000000000000000e+00  -3.2633386983492401e-05 -1.3728001830516975e-06 0.0000000000000000e+00  -5.0185321928113055e-05 -2.0783167408235467e-06 0.0000000000000000e+00  -6.9223832835405347e-05 -2.8002867665306646e-06 0.0000000000000000e+00  -9.0238335511055786e-05 -3.5317733234068245e-06 0.0000000000000000e+00  -1.1369489352964529e-04 -4.2523583079900669e-06 0.0000000000000000e+00  -1.4000684346625810e-04 -4.9210916691405485e-06 0.0000000000000000e+00  -1.6948566874999571e-04 -5.4667652490811605e-06 0.0000000000000000e+00  -2.0226463697024043e-04 -5.7751263295973557e-06 0.0000000000000000e+00  -2.3818687220255092e-04 -5.6734718066841701e-06 0.0000000000000000e+00  -2.7665052690858624e-04 -4.9151599580115042e-06 0.0000000000000000e+00  -3.1640904289399459e-04 -3.1711118072282658e-06 0.0000000000000000e+00  -3.5533887551595581e-04 -4.4000405506906944e-08 0.0000000000000000e+00  -3.9021893874586740e-04 4.8651148743596618e-06 0.0000000000000000e+00  -4.1662692101714939e-04 1.1790388494010185e-05 0.0000000000000000e+00  -4.2914273256805795e-04 2.0477703576567362e-05 0.0000000000000000e+00  0.0000000000000000e+00 0.0000000000000000e+00 0.0000000000000000e+00  -1.8239202239570372e-05 -8.0806165469234564e-07 0.0000000000000000e+00  -3.7079552639682194e-05 -1.6320282198734400e-06 0.0000000000000000e+00  -5.7134773704081216e-05 -2.4862196914612530e-06 0.0000000000000000e+00  -7.9031413273750151e-05 -3.3806511366501574e-06 0.0000000000000000e+00  -1.0340954963990785e-04 -4.3175297858158068e-06 0.0000000000000000e+00  -1.3091482846259729e-04 -5.2858247757020946e-06 0.0000000000000000e+00  -1.6217666812637377e-04 -6.2527975080229473e-06 0.0000000000000000e+00  -1.9776540326692130e-04 -7.1509686233256749e-06 0.0000000000000000e+00  -2.3811871719609675e-04 -7.8585740022246831e-06 0.0000000000000000e+00  -2.8342560928609490e-04 -8.1714321430783561e-06 0.0000000000000000e+00  -3.3345598244809746e-04 -7.7651141755804410e-06 0.0000000000000000e+00  -3.8732898697719110e-04 -6.1501808196308312e-06 0.0000000000000000e+00  -4.4322883187778946e-04 -2.6334113953891811e-06 0.0000000000000000e+00  -4.9810853172558851e-04 3.6809189711849523e-06 0.0000000000000000e+00  -5.4746726710453190e-04 1.3781381015000899e-05 0.0000000000000000e+00  -5.8531016948218243e-04 2.8426256830630702e-05 0.0000000000000000e+00  0.0000000000000000e+00 0.0000000000000000e+00 0.0000000000000000e+00  -1.9809218500055068e-05 -9.1796221651534711e-07 0.0000000000000000e+00  -4.0323227377388626e-05 -1.8612322853705807e-06 0.0000000000000000e+00  -6.2267014201726944e-05 -2.8543521098456230e-06 0.0000000000000000e+00  -8.6397409596355361e-05 -3.9192761022012989e-06 0.0000000000000000e+00  -1.1351493193068919e-04 -5.0726845564948384e-06 0.0000000000000000e+00  -1.4446874712175856e-04 -6.3211535587999379e-06 0.0000000000000000e+00  -1.8014957300463316e-04 -7.6526385482846411e-06 0.0000000000000000e+00  -2.2146235847539717e-04 -9.0217900773965106e-06 0.0000000000000000e+00  -2.6926641932552368e-04 -1.0325187688742718e-05 0.0000000000000000e+00  -3.2426574596586987e-04 -1.1360623906690603e-05 0.0000000000000000e+00  -3.8682798026839127e-04 -1.1762535854918508e-05 0.0000000000000000e+00  -4.5671125448954147e-04 -1.0905414219048589e-05 0.0000000000000000e+00  -5.3269183357273402e-04 -7.7736513623052793e-06 0.0000000000000000e+00  -6.1212232744348356e-04 -8.2040638985596068e-07 0.0000000000000000e+00  -6.9050654075446987e-04 1.2107000475192073e-05 0.0000000000000000e+00  -7.6119532540966026e-04 3.3615919699861985e-05 0.0000000000000000e+00  0.0000000000000000e+00 0.0000000000000000e+00 0.0000000000000000e+00  -2.0679419830025897e-05 -1.0025765280962747e-06 0.0000000000000000e+00  -4.2152100874146410e-05 -2.0409357892582277e-06 0.0000000000000000e+00  -6.5240175816299594e-05 -3.1513687493142357e-06 0.0000000000000000e+00  -9.0820585111172676e-05 -4.3704348915260042e-06 0.0000000000000000e+00  -1.1985137680088966e-04 -5.7340201325651593e-06 0.0000000000000000e+00  -1.5339482267402420e-04 -7.2745589898858101e-06 0.0000000000000000e+00  -1.9263311437306592e-04 -9.0147613511949207e-06 0.0000000000000000e+00  -2.3886853215170176e-04 -1.0954798125852653e-05 0.0000000000000000e+00  -2.9349371315361188e-04 -1.3047394866246372e-05 0.0000000000000000e+00  -3.5790831996711654e-04 -1.5150907278256066e-05 0.0000000000000000e+00  -4.3334648988691633e-04 -1.6943302937837329e-05 0.0000000000000000e+00  -5.2056916954113864e-04 -1.7769902412730478e-05 0.0000000000000000e+00  -6.1937995062097222e-04 -1.6388671579196242e-05 0.0000000000000000e+00  -7.2796898447233921e-04 -1.0584986292773409e-05 0.0000000000000000e+00  -8.4220055257148117e-04 3.3097560663436135e-06 0.0000000000000000e+00  -9.5506552315529757e-04 3.0818283134615520e-05 0.0000000000000000e+00  0.0000000000000000e+00 0.0000000000000000e+00 0.0000000000000000e+00  -2.0764284097945554e-05 -1.0515997218744300e-06 0.0000000000000000e+00  -4.2384245048358117e-05 -2.1491773759135008e-06 0.0000000000000000e+00  -6.5753222720480573e-05 -3.3408221810066112e-06 0.0000000000000000e+00  -9.1843847003170761e-05 -4.6786396361833604e-06 0.0000000000000000e+00  -1.2175094218460104e-04 -6.2204244269346510e-06 0.0000000000000000e+00  -1.5673714663261298e-04 -8.0304940713413270e-06 0.0000000000000000e+00  -1.9827946582654673e-04 -1.0178475959445460e-05 0.0000000000000000e+00  -2.4811090718047192e-04 -1.2733405743502746e-05 0.0000000000000000e+00  -3.0824350262646663e-04 -1.5747498205636498e-05 0.0000000000000000e+00  -3.8094487142105400e-04 -1.9217719638882952e-05 0.0000000000000000e+00  -4.6861723908155517e-04 -2.3000527562864661e-05 0.0000000000000000e+00  -5.7349582736742363e-04 -2.6630107236348725e-05 0.0000000000000000e+00  -6.9705723357231530e-04 -2.8946449602101290e-05 0.0000000000000000e+00  -8.3906298246562688e-04 -2.7383229181905270e-05 0.0000000000000000e+00  -9.9638096347187699e-04 -1.6766264130302894e-05 0.0000000000000000e+00  -1.1621969632019963e-03 1.2296067201619859e-05 0.0000000000000000e+00  0.0000000000000000e+00 0.0000000000000000e+00 0.0000000000000000e+00  -2.0004857451461850e-05 -1.0550710650715610e-06 0.0000000000000000e+00  -4.0890344271882503e-05 -2.1643146484790653e-06 0.0000000000000000e+00  -6.3582338479490532e-05 -3.3856846819796735e-06 0.0000000000000000e+00  -8.9108398311876606e-05 -4.7851939654578480e-06 0.0000000000000000e+00  -1.1865728167899571e-04 -6.4416907075702581e-06 0.0000000000000000e+00  -1.5364903913358489e-04 -8.4524146669827304e-06 0.0000000000000000e+00  -1.9581829940657175e-04 -1.0939243961127094e-05 0.0000000000000000e+00  -2.4731062227892526e-04 -1.4054751137433670e-05 0.0000000000000000e+00  -3.1078460076793468e-04 -1.7985082019904907e-05 0.0000000000000000e+00  -3.8949579882589054e-04 -2.2941189243628119e-05 0.0000000000000000e+00  -4.8730389352946902e-04 -2.9115760076379242e-05 0.0000000000000000e+00  -6.0847941892968520e-04 -3.6546699571113195e-05 0.0000000000000000e+00  -7.5708699624379744e-04 -4.4737157234909604e-05 0.0000000000000000e+00  -9.3564843986616169e-04 -5.1678824162254802e-05 0.0000000000000000e+00  -1.1430422984827636e-03 -5.1616728124311694e-05 0.0000000000000000e+00  -1.3726559706036760e-03 -3.1023047937455089e-05 0.0000000000000000e+00  0.0000000000000000e+00 0.0000000000000000e+00 0.0000000000000000e+00  -1.8379610468290337e-05 -1.0050577322072587e-06 0.0000000000000000e+00  -3.7617147810909904e-05 -2.0686718537874675e-06 0.0000000000000000e+00  -5.8620566140645219e-05 -3.2545555986490998e-06 0.0000000000000000e+00  -8.2415291870072737e-05 -4.6379386675884523e-06 0.0000000000000000e+00  -1.1021722272078125e-04 -6.3132344469556122e-06 0.0000000000000000e+00  -1.4352499036458525e-04 -8.4043393164375061e-06 0.0000000000000000e+00  -1.8424027697928107e-04 -1.1079017564749561e-05 0.0000000000000000e+00  -2.3482581546925359e-04 -1.4569336088332192e-05 0.0000000000000000e+00  -2.9850847852314153e-04 -1.9200563241919765e-05 0.0000000000000000e+00  -3.7952323661728793e-04 -2.5430402701601861e-05 0.0000000000000000e+00  -4.8335765540041370e-04 -3.3895090727112807e-05 0.0000000000000000e+00  -6.1686303708020375e-04 -4.5434133241908032e-05 0.0000000000000000e+00  -7.8788590738110916e-04 -6.0966875954806179e-05 0.0000000000000000e+00  -1.0036890879148448e-03 -8.0728830639552804e-05 0.0000000000000000e+00  -1.2673168051551304e-03 -1.0120813569880272e-04 0.0000000000000000e+00  -1.5739516960931177e-03 -1.0694411728822619e-04 0.0000000000000000e+00  0.0000000000000000e+00 0.0000000000000000e+00 0.0000000000000000e+00  -1.5913995789975920e-05 -8.9741244888416552e-07 0.0000000000000000e+00  -3.2608678960619169e-05 -1.8524468788464492e-06 0.0000000000000000e+00  -5.0915131388307131e-05 -2.9285903897153964e-06 0.0000000000000000e+00  -7.1786454067780453e-05 -4.2027722892626882e-06 0.0000000000000000e+00  -9.6377325549518985e-05 -5.7748588976993729e-06 0.0000000000000000e+00  -1.2615015071288941e-04 -7.7812289297708300e-06 0.0000000000000000e+00  -1.6302323226883043e-04 -1.0415238486830715e-05 0.0000000000000000e+00  -2.0958292073556720e-04 -1.3959270805543266e-05 0.0000000000000000e+00  -2.6938976392592586e-04 -1.8836625089009770e-05 0.0000000000000000e+00  -3.4741442874883016e-04 -2.5698402190249824e-05 0.0000000000000000e+00  -4.5062793839803126e-04 -3.5573916683305184e-05 0.0000000000000000e+00  -5.8869574235552685e-04 -5.0136251556924850e-05 0.0000000000000000e+00  -7.7444787800242212e-04 -7.2152012245453644e-05 0.0000000000000000e+00  -1.0229233653677469e-03 -1.0602318947061487e-04 0.0000000000000000e+00  -1.3454168835481100e-03 -1.5664556370669023e-04 0.0000000000000000e+00  -1.7400255954202986e-03 -2.1115702709375642e-04 0.0000000000000000e+00  0.0000000000000000e+00 0.0000000000000000e+00 0.0000000000000000e+00  -1.2686755981766865e-05 -7.3322718837825609e-07 0.0000000000000000e+00  -2.6020925615776197e-05 -1.5170267215227039e-06 0.0000000000000000e+00  -4.0695102284365252e-05 -2.4076133884886447e-06 0.0000000000000000e+00  -5.7513645941575506e-05 -3.4743366927747938e-06 0.0000000000000000e+00  -7.7468395259272453e-05 -4.8092562673788471e-06 0.0000000000000000e+00  -1.0184402452926495e-04 -6.5412399698132573e-06 0.0000000000000000e+00  -1.3237298859700402e-04 -8.8578735491139785e-06 0.0000000000000000e+00  -1.7147232632004156e-04 -1.2040882972765818e-05 0.0000000000000000e+00  -2.2261547260092688e-04 -1.6525601704766733e-05 0.0000000000000000e+00  -2.9092592420736243e-04 -2.3005564066266972e-05 0.0000000000000000e+00  -3.8412757993169794e-04 -3.2629024869343525e-05 0.0000000000000000e+00  -5.1402905251787443e-04 -4.7403960017822481e-05 0.0000000000000000e+00  -6.9863973595382515e-04 -7.1131363252969487e-05 0.0000000000000000e+00  -9.6427991562797564e-04 -1.1179273978306695e-04 0.0000000000000000e+00  -1.3427391065465439e-03 -1.8812787509791371e-04 0.0000000000000000e+00  -1.8184762164254638e-03 -3.4962245984350774e-04 0.0000000000000000e+00  0.0000000000000000e+00 0.0000000000000000e+00 0.0000000000000000e+00  -8.8310667441654303e-06 -5.1959260660876982e-07 0.0000000000000000e+00  -1.8125625944919900e-05 -1.0768013232632877e-06 0.0000000000000000e+00  -2.8381313424012900e-05 -1.7136763445653152e-06 0.0000000000000000e+00  -4.0181462831088749e-05 -2.4826833234525588e-06 0.0000000000000000e+00  -5.4254805073037667e-05 -3.4544056609451915e-06 0.0000000000000000e+00  -7.1561120605253040e-05 -4.7289943665480516e-06 0.0000000000000000e+00  -9.3422087414495077e-05 -6.4540182010135159e-06 0.0000000000000000e+00  -1.2173103413317605e-04 -8.8530621058650096e-06 0.0000000000000000e+00  -1.5930319689573972e-04 -1.2272292452745425e-05 0.0000000000000000e+00  -2.1048271135870318e-04 -1.7257158860027249e-05 0.0000000000000000e+00  -2.8223068796968156e-04 -2.4681289500927381e-05 0.0000000000000000e+00  -3.8613178255012941e-04 -3.5978519273372782e-05 0.0000000000000000e+00  -5.4216863008321823e-04 -5.3654465725147905e-05 0.0000000000000000e+00  -7.8592162429883927e-04 -8.2877594874702313e-05 0.0000000000000000e+00  -1.1829007377369720e-03 -1.3784309470812574e-04 0.0000000000000000e+00  -1.8630193517228978e-03 -2.6720129191533089e-04 0.0000000000000000e+00  0.0000000000000000e+00 0.0000000000000000e+00 0.0000000000000000e+00  -4.5291398077002181e-06 -2.6938282865233515e-07 0.0000000000000000e+00  -9.2997925263838902e-06 -5.5880308901531778e-07 0.0000000000000000e+00  -1.4571795855055558e-05 -8.9072511287760823e-07 0.0000000000000000e+00  -2.0651382197849557e-05 -1.2933395332764846e-06 0.0000000000000000e+00  -2.7924035998979804e-05 -1.8048131964474702e-06 0.0000000000000000e+00  -3.6902496736082822e-05 -2.4795976220870043e-06 0.0000000000000000e+00  -4.8301779410791763e-05 -3.3981476621972541e-06 0.0000000000000000e+00  -6.3162939538503952e-05 -4.6819545492512778e-06 0.0000000000000000e+00  -8.3067451169782221e-05 -6.5158710531663790e-06 0.0000000000000000e+00  -1.1052628917082534e-04 -9.1764758756146469e-06 0.0000000000000000e+00  -1.4971689705768059e-04 -1.3046741138976091e-05 0.0000000000000000e+00  -2.0791812013646772e-04 -1.8515296344677623e-05 0.0000000000000000e+00  -2.9823978529499765e-04 -2.5326910381082241e-05 0.0000000000000000e+00  -4.4379433043752908e-04 -2.9748558955804273e-05 0.0000000000000000e+00  -6.7677722944769667e-04 -1.4993487104189751e-05 0.0000000000000000e+00  -9.9456976316460079e-04 6.3240854996542693e-05 0.0000000000000000e+00  0.0000000000000000e+00 0.0000000000000000e+00 0.0000000000000000e+00  0.0000000000000000e+00 0.0000000000000000e+00 0.0000000000000000e+00  0.0000000000000000e+00 0.0000000000000000e+00 0.0000000000000000e+00  0.0000000000000000e+00 0.0000000000000000e+00 0.0000000000000000e+00  0.0000000000000000e+00 0.0000000000000000e+00 0.0000000000000000e+00  0.0000000000000000e+00 0.0000000000000000e+00 0.00