<?xml version="1.0"?>
<VTKFile type="UnstructuredGrid"  version="0.1"  >
<UnstructuredGrid>
<Piece  NumberOfPoints="289" NumberOfCells="512">
<Points>
<DataArray  type="Float64"  NumberOfComponents="3"  format="ascii">0 0 0  0.0625 0 0  0.125 0 0  0.1875 0 0  0.25 0 0  0.3125 0 0  0.375 0 0  0.4375 0 0  0.5 0 0  0.5625 0 0  0.625 0 0  0.6875 0 0  0.75 0 0  0.8125 0 0  0.875 0 0  0.9375 0 0  1 0 0  0 0.0625 0  0.06252488194921925 0.06249775903239198 0  0.1250509749303633 0.06249547807580413 0  0.1875795687783543 0.06249312051013505 0  0.2501121224447756 0.0624906570120488 0  0.3126503700138732 0.06248806991153807 0  0.375196458079304 0.06248535806617408 0  0.4377531379515121 0.06248254169693269 0  0.5003240582223326 0.06247966560246193 0  0.562914256150512 0.06247679714265991 0  0.6255310805198274 0.06247401107205379 0  0.6881861401239696 0.0624713426053592 0  0.7508999141000379 0.06246865773703669 0  0.8137138934648374 0.06246527356198477 0  0.8767259637217648 0.06245869269440931 0  0.9402043248323251 0.06243977586271021 0  1.00499876352621 0.06237200110058585 0  0 0.125 0  0.0625485590334441 0.1249955544663832 0  0.1250994625878797 0.1249910251423587 0  0.1876552060227949 0.1249863346634382 0  0.2502186078359159 0.1249814197377832 0  0.3127930099467174 0.1249762399331929 0  0.3753825324618036 0.1249707880592261 0  0.4379924185267915 0.1249651015369361 0  0.5006295314666727 0.1249592725659929 0  0.5633031238090579 0.1249534520722537 0  0.6260261239122762 0.1249478378104619 0  0.6888174624031611 0.1249426309439624 0  0.7517065406112231 0.1249379444651851 0  0.8147419855349061 0.1249336920334688 0  0.8780076768147498 0.124929799959778 0  0.9416427600676437 0.1249288328810903 0  1.005804365328506 0.1249523483855591 0  0 0.1875 0  0.06256990172775269 0.1874934302666385 0  0.1251431300450749 0.1874867259440453 0  0.187723221149685 0.1874797611833343 0  0.2503141592217527 0.1874724296360506 0  0.3129206500088095 0.1874646575043477 0  0.3755484606224511 0.1874564201380445 0  0.4382048601229213 0.1874477622958364 0  0.5008992100931132 0.1874388205258548 0  0.5636437783636365 0.1874298429928241 0  0.6264548839842077 0.1874211967392302 0  0.6893545120444567 0.1874133441789658 0  0.7523724672072529 0.1874067591333776 0  0.8155485652537765 0.1874017323856804 0  0.8789319127879673 0.1873979276021354 0  0.9425661002617394 0.1873929372004235 0  1.006428580485928 0.187375022916407 0  0 0.25 0  0.06258793235150917 0.2499914373868224 0  0.1251799615739592 0.2499826799549129 0  0.1877804352827834 0.2499735425994804 0  0.2503942359287186 0.249963862543 0  0.313027103615489 0.249953515792114 0  0.375686029406253 0.2499424399591955 0  0.4383797472324268 0.2499306651924229 0  0.5011193518161479 0.2499183538237758 0  0.5639190579991263 0.2499058466354512 0  0.6267970723366271 0.2498937080894972 0  0.6897764166558198 0.2498827525809669 0  0.7528851926944257 0.2498740160618104 0  0.8161549086461921 0.2498686082067933 0  0.8796135618504834 0.2498673367393462 0  0.9432667909357749 0.2498699897843773 0  1.007058161139581 0.2498748288903137 0  0 0.3125 0  0.0626018841600984 0.3124896361514641 0  0.1252083813664025 0.3124790067517509 0  0.1878243764005082 0.3124678548640715 0  0.2504553330406502 0.3124559444706003 0  0.3131076423120929 0.3124430783029069 0  0.375789044162978 0.3124291253000662 0  0.4385091479418017 0.3124140619035882 0  0.5012800690515216 0.3123980316117029 0  0.5641171713406806 0.312381426192201 0  0.6270398313701683 0.3123649879452174 0  0.6900719712482198 0.3123499222859652 0  0.7532417539089712 0.3123379889004831 0  0.8165791842951091 0.3123315030970872 0  0.8801093943923682 0.3123331322225419 0  0.9438386768500339 0.3123453673479232 0  1.00773224743164 0.312369756723273 0  0 0.375 0  0.06261124236456843 0.3749880972673668 0  0.1252273382594979 0.3749758487807014 0  0.1878534124077082 0.3749629135025989 0  0.250495167169563 0.3749489639429143 0  0.3131592322107412 0.374933701795428 0  0.3758535922032887 0.3749168860074247 0  0.4385881234366401 0.3748983804003443 0  0.5013752672826629 0.3748782304518164 0  0.5642308501762231 0.3748567812917652 0  0.6271750058828289 0.374834849559687 0  0.6902330303761447 0.3748139561799337 0  0.7534357507979442 0.3747966063670952 0  0.8168185762372226 0.3747865516856191 0  0.880417891201052 0.3747888662863772 0  0.9442632840274199 0.3748095016111676 0  1.008365354611233 0.3748537494484352 0  0 0.4375 0  0.06261576475531087 0.4374869007346086 0  0.1252363485087284 0.4374733699133798 0  0.1878668187770924 0.4374589735315799 0  0.2505127718430694 0.4374432765176625 0  0.3131806571294775 0.4374258510717812 0  0.3758781832703516 0.4374062984374422 0  0.4386148485362079 0.4373842937029672 0  0.50140265103061 0.4373596686913512 0  0.5642570461459158 0.4373325558043829 0  0.6271982206510157 0.4373036252532294 0  0.6902527229232899 0.4372744557380909 0  0.7534553861929134 0.437248072677053 0  0.8168512442615281 0.4372296398945468 0  0.8804967113788499 0.4372271434016799 0  0.9444587265983251 0.4372515778555882 0  1.008810153101521 0.437315604483078 0  0 0.5 0  0.06261548072386072 0.4999861319419939 0  0.1252354944726908 0.4999717481103722 0  0.1878647787321172 0.4999563199509366 0  0.2505085036082612 0.4999392958911807 0  0.3131725401643725 0.4999200963385383 0  0.3758638056832361 0.4998981197812099 0  0.4385907390842699 0.4998727702580237 0  0.5013639927508342 0.4998435246727217 0  0.56419748095892 0.4998100724112816 0  0.6271100075669592 0.4997725822175593 0  0.6901278075749716 0.4997321838816254 0  0.7532884518072334 0.4996917891217229 0  0.8166465783855249 0.4996573858565787 0  0.8802815687964012 0.4996398259653459 0  0.9443061174472432 0.4996566649496419 0  1.008872279030534 0.4997324543968206 0  0 0.5625 0  0.0626106682361261 0.5624858744937288 0  0.1252253777121581 0.5624711609667781 0  0.1878483120676784 0.5624552460832359 0  0.2504839500484057 0.5624374660243699 0  0.31313724558804 0.5624170825374101 0  0.3758138626883314 0.5623932633121869 0  0.4385205171552137 0.5623650742454561 0  0.5012655254934504 0.5623315001686747 0  0.564059753452544 0.5622915284815062 0  0.6269183262406545 0.5622443647208978 0  0.6898637559619226 0.5621899135683386 0  0.7529315984641565 0.5621297705007245 0  0.8161803152283771 0.5620691333941041 0  0.8797072886228756 0.5620201823372829 0  0.9436717165941493 0.5620072188087042 0  1.008320186389793 0.5620721544867348 0  0 0.625 0  0.0626018095938955 0.6249861998869266 0  0.1252070268664914 0.624971764087227 0  0.1878191291396664 0.6249560188085623 0  0.2504417252023858 0.624938210947225 0  0.3130786210279958 0.6249174620623731 0  0.3757338957037787 0.6248927156125239 0  0.4384120172541314 0.6248626780038101 0  0.5011180744956765 0.6248257599003629 0  0.5638583048855937 0.6247800389338959 0  0.6266413221301523 0.6247233001749823 0  0.6894809102774577 0.624653293078521 0  0.7524021536952966 0.6245685306318144 0  0.8154542593989835 0.6244703589157876 0  0.8787356494823868 0.6243677888343727 0  0.942438127509184 0.6242875624284295 0  1.006911165990926 0.6242911264850756 0  0 0.6875 0  0.06258952936130743 0.6874871550155612 0  0.125181765795024 0.6874736641209606 0  0.1877794140406772 0.6874588329871437 0  0.2503851464190655 0.687441863932686 0  0.3130015453365025 0.6874217893747814 0  0.3756309932062284 0.6873973853450023 0  0.4382754934438043 0.6873670551886506 0  0.5009364241822948 0.6873286717084262 0  0.5636142893140529 0.6872793670029225 0  0.6263087140291524 0.6872152717474184 0  0.6890194165988731 0.6871312565006537 0  0.7517501008860181 0.6870208984037074 0  0.8145200670227813 0.6868774296873841 0  0.8773943910382741 0.6866979930709448 0  0.9405535032891207 0.686497634016476 0  1.004427070643312 0.6863465336348239 0  0 0.75 0  0.06257452165105659 0.7499887494484014 0  0.1251510562011013 0.7499768905549207 0  0.1877315569621578 0.7499637616484196 0  0.2503178137112334 0.74994858530222 0  0.3129112906845611 0.7499303888192169 0  0.3755128475603022 0.7499078935579605 0  0.4381222680363636 0.7498793527495541 0  0.500737485146181 0.7498423055841675 0  0.5633533526545352 0.7497931953664217 0  0.625959805556082 0.7497267669543748 0  0.6885394257850123 0.7496351109310624 0  0.7510652782107982 0.7495061811016737 0  0.8135029867867133 0.7493217468143473 0  0.8758310635130135 0.7490559747790143 0  0.9381220976603836 0.7486827371465068 0  1.000779979964658 0.7482328693486865 0  0 0.8125 0  0.06255747807569338 0.8124909452017981 0  0.125116339151576 0.812481372307051 0  0.1876778767167526 0.812470712611601 0  0.2502431535044034 0.8124582863224391 0  0.3128127841427787 0.8124432230158769 0  0.375386560338683 0.8124243463254107 0  0.4379627959162781 0.812399996869174 0  0.5005371768012482 0.8123677487751393 0  0.5631007321578801 0.8123239394112285 0  0.6256362404538919 0.8122628601832088 0  0.6881118782222559 0.8121753026145219 0  0.750470251761606 0.8120457989509063 0  0.8126110046868862 0.8118470217508852 0  0.8743714009165298 0.8115276459900972 0  0.9355506303955271 0.8109858353001062 0  0.9962620040557723 0.8100294971292392 0  0 0.875 0  0.06253903020648309 0.8749936519158271 0  0.1250789070797976 0.874986925832642 0  0.1876203916310119 0.8749794041552069 0  0.2501640277966357 0.8749705817598343 0  0.3127099394207473 0.8749598017524591 0  0.3752574764861665 0.8749461602274862 0  0.4378045814077408 0.8749283566097457 0  0.5003466310347342 0.8749044486405101 0  0.5628742722147394 0.8748714375494719 0  0.6253692616852656 0.8748245424958137 0  0.6877961991736997 0.8747558825810675 0  0.7500854657333663 0.8746519492746601 0  0.812096571771825 0.8744882900980683 0  0.8735365962055103 0.8742163720332015 0  0.9337778325930731 0.8737223637978381 0  0.9915072249217323 0.8726526434743506 0  0 0.9375 0  0.0625197192769041 0.9374967296548012 0  0.1250398366599203 0.9374932600666845 0  0.1875606988755926 0.9374893703257516 0  0.250082523183397 0.9374847914583433 0  0.3126052762823309 0.9374791707354365 0  0.3751284617754082 0.9374720182651316 0  0.4376507341466123 0.9374626224706721 
[...]
<PointData  Vectors="f_54"> 
<DataArray  type="Float64"  Name="f_54"  NumberOfComponents="3" format="ascii">0.0000000000000000e+00 0.0000000000000000e+00 0.0000000000000000e+00  0.0000000000000000e+00 0.0000000000000000e+00 0.0000000000000000e+00  0.0000000000000000e+00 0.0000000000000000e+00 0.0000000000000000e+00  0.0000000000000000e+00 0.0000000000000000e+00 0.0000000000000000e+00  0.0000000000000000e+00 0.0000000000000000e+00 0.0000000000000000e+00  0.0000000000000000e+00 0.0000000000000000e+00 0.0000000000000000e+00  0.0000000000000000e+00 0.0000000000000000e+00 0.0000000000000000e+00  0.0000000000000000e+00 0.0000000000000000e+00 0.0000000000000000e+00  0.0000000000000000e+00 0.0000000000000000e+00 0.0000000000000000e+00  0.0000000000000000e+00 0.0000000000000000e+00 0.0000000000000000e+00  0.0000000000000000e+00 0.0000000000000000e+00 0.0000000000000000e+00  0.0000000000000000e+00 0.0000000000000000e+00 0.0000000000000000e+00  0.0000000000000000e+00 0.0000000000000000e+00 0.0000000000000000e+00  0.0000000000000000e+00 0.0000000000000000e+00 0.0000000000000000e+00  0.0000000000000000e+00 0.0000000000000000e+00 0.0000000000000000e+00  0.0000000000000000e+00 0.0000000000000000e+00 0.0000000000000000e+00  0.0000000000000000e+00 0.0000000000000000e+00 0.0000000000000000e+00  0.0000000000000000e+00 0.0000000000000000e+00 0.0000000000000000e+00  -4.5346798855591380e-06 -7.3792430377017768e-08 0.0000000000000000e+00  -9.1949795151823302e-06 -1.4758087250827333e-07 0.0000000000000000e+00  -1.4105515934376369e-05 -2.2102741508750934e-07 0.0000000000000000e+00  -1.9387523912867841e-05 -2.9307915751294032e-07 0.0000000000000000e+00  -2.5155527728897039e-05 -3.6152572647199121e-07 0.0000000000000000e+00  -3.1511974234551712e-05 -4.2246614624377655e-07 0.0000000000000000e+00  -3.8539146012881437e-05 -4.6967954460106008e-07 0.0000000000000000e+00  -4.6287883633358642e-05 -4.9392281649879072e-07 0.0000000000000000e+00  -5.4763360282049553e-05 -4.8220660407082354e-07 0.0000000000000000e+00  -6.3910222071354838e-05 -4.1706107791078122e-07 0.0000000000000000e+00  -7.3605369405929359e-05 -2.7541455195118385e-07 0.0000000000000000e+00  -8.3684833229046883e-05 -2.4889737302682852e-08 0.0000000000000000e+00  -9.4091230299156174e-05 3.9213959149374807e-07 0.0000000000000000e+00  -1.0544397114427619e-04 1.1267146874741320e-06 0.0000000000000000e+00  -1.2118930138880964e-04 2.7136371704925993e-06 0.0000000000000000e+00  -1.5652902128231324e-04 7.4043537504275991e-06 0.0000000000000000e+00  0.0000000000000000e+00 0.0000000000000000e+00 0.0000000000000000e+00  -8.9470441990892917e-06 -1.4764096527745559e-07 0.0000000000000000e+00  -1.8147204794139377e-05 -2.9561647818945203e-07 0.0000000000000000e+00  -2.7852262333717334e-05 -4.4362702979940659e-07 0.0000000000000000e+00  -3.8308679457476427e-05 -5.9000697324597048e-07 0.0000000000000000e+00  -4.9751710124053045e-05 -7.3085891759423915e-07 0.0000000000000000e+00  -6.2395402212707586e-05 -8.5898584996508559e-07 0.0000000000000000e+00  -7.6416931144459533e-05 -9.6259679156337475e-07 0.0000000000000000e+00  -9.1933787075021791e-05 -1.0238294049296051e-06 0.0000000000000000e+00  -1.0897288723547110e-04 -1.0172564495187269e-06 0.0000000000000000e+00  -1.2743223839441751e-04 -9.0874534138143643e-07 0.0000000000000000e+00  -1.4703925357496518e-04 -6.5535809489969175e-07 0.0000000000000000e+00  -1.6731618940113435e-04 -2.0762703059319103e-07 0.0000000000000000e+00  -1.8756927746261601e-04 4.8194976375580092e-07 0.0000000000000000e+00  -2.0688975625280976e-04 1.4265028922413014e-06 0.0000000000000000e+00  -2.2387069968254105e-04 2.4513761437222454e-06 0.0000000000000000e+00  -2.3388688375082964e-04 2.3705559813223207e-06 0.0000000000000000e+00  0.0000000000000000e+00 0.0000000000000000e+00 0.0000000000000000e+00  -1.3109155772053377e-05 -2.2119757409192852e-07 0.0000000000000000e+00  -2.6601472740456774e-05 -4.4371681305851429e-07 0.0000000000000000e+00  -4.0859700068629941e-05 -6.6801815805729628e-07 0.0000000000000000e+00  -5.6262082166918022e-05 -8.9268648920633093e-07 0.0000000000000000e+00  -7.3175433477461774e-05 -1.1131951651812055e-06 0.0000000000000000e+00  -9.1942120537254137e-05 -1.3203198556119072e-06 0.0000000000000000e+00  -1.1285830728444369e-04 -1.4981217834749149e-06 0.0000000000000000e+00  -1.3614045913532514e-04 -1.6215046157533833e-06 0.0000000000000000e+00  -1.6187687647043595e-04 -1.6535451704224760e-06 0.0000000000000000e+00  -1.8996099051698793e-04 -1.5432124201374229e-06 0.0000000000000000e+00  -2.2000283015297713e-04 -1.2249306739932587e-06 0.0000000000000000e+00  -2.5121186925431462e-04 -6.2315139264244282e-07 0.0000000000000000e+00  -2.8222876415962830e-04 3.3138755677466704e-07 0.0000000000000000e+00  -3.1082564932738633e-04 1.6604158983925946e-06 0.0000000000000000e+00  -3.3322462035314312e-04 3.2543941033553037e-06 0.0000000000000000e+00  -3.4247073972245695e-04 4.8060903765806032e-06 0.0000000000000000e+00  0.0000000000000000e+00 0.0000000000000000e+00 0.0000000000000000e+00  -1.6890583541611126e-05 -2.9346505144954801e-07 0.0000000000000000e+00  -3.4296252686087554e-05 -5.9012006812449301e-07 0.0000000000000000e+00  -5.2734378923055212e-05 -8.9218388476720263e-07 0.0000000000000000e+00  -7.2722573888704759e-05 -1.1997254797030991e-06 0.0000000000000000e+00  -9.4773055903508028e-05 -1.5091644111522913e-06 0.0000000000000000e+00  -1.1937929345131583e-04 -1.8112380564190258e-06 0.0000000000000000e+00  -1.4699115527500129e-04 -2.0882420747500508e-06 0.0000000000000000e+00  -1.7797382257097677e-04 -2.3103931320352747e-06 0.0000000000000000e+00  -2.1254457605207069e-04 -2.4313241858502105e-06 0.0000000000000000e+00  -2.5068022446756149e-04 -2.3831480026436205e-06 0.0000000000000000e+00  -2.9198601315053735e-04 -2.0724862285894473e-06 0.0000000000000000e+00  -3.3551299465709150e-04 -1.3808172734227944e-06 0.0000000000000000e+00  -3.7950192831843435e-04 -1.7604086079860366e-07 0.0000000000000000e+00  -4.2101462959760028e-04 1.6526123874939401e-06 0.0000000000000000e+00  -4.5540386696591931e-04 4.1201123261262466e-06 0.0000000000000000e+00  -4.7569154522061479e-04 7.0200691603696018e-06 0.0000000000000000e+00  0.0000000000000000e+00 0.0000000000000000e+00 0.0000000000000000e+00  -2.0159150751039173e-05 -3.6256685036130546e-07 0.0000000000000000e+00  -4.0964631325137536e-05 -7.3118747201856925e-07 0.0000000000000000e+00  -6.3069899441878496e-05 -1.1109975924870388e-06 0.0000000000000000e+00  -8.7138225732259184e-05 -1.5050474206643238e-06 0.0000000000000000e+00  -1.1384140720749442e-04 -1.9127239939710106e-06 0.0000000000000000e+00  -1.4384987110119149e-04 -2.3274554654507641e-06 0.0000000000000000e+00  -1.7780944091463338e-04 -2.7333406504826068e-06 0.0000000000000000e+00  -2.1629835871721709e-04 -3.1002724664893200e-06 0.0000000000000000e+00  -2.5975603549686281e-04 -3.3771034599554567e-06 0.0000000000000000e+00  -3.0837255043203931e-04 -3.4825713070805890e-06 0.0000000000000000e+00  -3.6192546972013776e-04 -3.2943576970871965e-06 0.0000000000000000e+00  -4.1954896894498030e-04 -2.6383655237948112e-06 0.0000000000000000e+00  -4.7942205541499363e-04 -1.2839990507401637e-06 0.0000000000000000e+00  -5.3837604278312949e-04 1.0419481504882407e-06 0.0000000000000000e+00  -5.9147119650391686e-04 4.5996785710666874e-06 0.0000000000000000e+00  -6.3173895013692353e-04 9.5023246240223973e-06 0.0000000000000000e+00  0.0000000000000000e+00 0.0000000000000000e+00 0.0000000000000000e+00  -2.2783564548799241e-05 -4.2563555197006390e-07 0.0000000000000000e+00  -4.6339177067451167e-05 -8.6113381166026826e-07 0.0000000000000000e+00  -7.1453120532555923e-05 -1.3156923029532337e-06 0.0000000000000000e+00  -9.8936271178231511e-05 -1.7969178418528054e-06 0.0000000000000000e+00  -1.2963071697464688e-04 -2.3094485382949821e-06 0.0000000000000000e+00  -1.6440807064130447e-04 -2.8527403473284617e-06 0.0000000000000000e+00  -2.0415420652300547e-04 -3.4174941507018261e-06 0.0000000000000000e+00  -2.4973270306489207e-04 -3.9799479872152577e-06 0.0000000000000000e+00  -3.0191596659398848e-04 -4.4929164864369713e-06 0.0000000000000000e+00  -3.6126899641773352e-04 -4.8720773838931506e-06 0.0000000000000000e+00  -4.2796680288532469e-04 -4.9758033662572037e-06 0.0000000000000000e+00  -5.0152484388785547e-04 -4.5774458284158646e-06 0.0000000000000000e+00  -5.8042775373271535e-04 -3.3318598082647280e-06 0.0000000000000000e+00  -6.6166572966374737e-04 -7.4589829572188127e-07 0.0000000000000000e+00  -7.4024757674240077e-04 3.8206327302428929e-06 0.0000000000000000e+00  -8.0886997037167368e-04 1.1070657610106026e-05 0.0000000000000000e+00  0.0000000000000000e+00 0.0000000000000000e+00 0.0000000000000000e+00  -2.4638303697353195e-05 -4.7886565512429532e-07 0.0000000000000000e+00  -5.0161583802823409e-05 -9.7209552306149919e-07 0.0000000000000000e+00  -7.7478185065907199e-05 -1.4938527099683747e-06 0.0000000000000000e+00  -1.0754063980985094e-04 -2.0576770680878048e-06 0.0000000000000000e+00  -1.4136383807634187e-04 -2.6756592003455254e-06 0.0000000000000000e+00  -1.8003683474170171e-04 -3.3568201543786490e-06 0.0000000000000000e+00  -2.2472320897765855e-04 -4.1040838656481221e-06 0.0000000000000000e+00  -2.7664170355240616e-04 -4.9088006185462971e-06 0.0000000000000000e+00  -3.3701415294412217e-04 -5.7410538956445592e-06 0.0000000000000000e+00  -4.0696126033237258e-04 -6.5328180742343466e-06 0.0000000000000000e+00  -4.8731910246112157e-04 -7.1493458625452504e-06 0.0000000000000000e+00  -5.7834270174754129e-04 -7.3422421866886015e-06 0.0000000000000000e+00  -6.7926394395508970e-04 -6.6770554405367082e-06 0.0000000000000000e+00  -7.8769214821086859e-04 -4.4334769375388566e-06 0.0000000000000000e+00  -8.9890363732153197e-04 5.0255741523221404e-07 0.0000000000000000e+00  -1.0051639820266014e-03 9.6836970266674231e-06 0.0000000000000000e+00  0.0000000000000000e+00 0.0000000000000000e+00 0.0000000000000000e+00  -2.5610880384054172e-05 -5.1776733231747676e-07 0.0000000000000000e+00  -5.2197441846524776e-05 -1.0546262433705873e-06 0.0000000000000000e+00  -8.0769198497485794e-05 -1.6301109333140182e-06 0.0000000000000000e+00  -1.1240285717991347e-04 -2.2645204903125006e-06 0.0000000000000000e+00  -1.4827515139101698e-04 -2.9790081264296306e-06 0.0000000000000000e+00  -1.8969323752359655e-04 -3.7951524379661087e-06 0.0000000000000000e+00  -2.3811886814993803e-04 -4.7334845906594845e-06 0.0000000000000000e+00  -2.9517893310904381e-04 -5.8099409746684401e-06 0.0000000000000000e+00  -3.6264894170200866e-04 -7.0282251665640807e-06 0.0000000000000000e+00  -4.4238655316163267e-04 -8.3641703526463432e-06 0.0000000000000000e+00  -5.3617852417184514e-04 -9.7346915462235114e-06 0.0000000000000000e+00  -6.4544721512474522e-04 -1.0937915760642251e-05 0.0000000000000000e+00  -7.7074778000078381e-04 -1.1542375587552371e-05 0.0000000000000000e+00  -9.1099091227824446e-04 -1.0695517731313558e-05 0.0000000000000000e+00  -1.0623804301129213e-03 -6.8312054949918753e-06 0.0000000000000000e+00  -1.2171875276330119e-03 2.6785406732774210e-06 0.0000000000000000e+00  0.0000000000000000e+00 0.0000000000000000e+00 0.0000000000000000e+00  -2.5611220262122471e-05 -5.3763241766106963e-07 0.0000000000000000e+00  -5.2255724008506319e-05 -1.0986602757967378e-06 0.0000000000000000e+00  -8.1011226102448966e-05 -1.7076598355102474e-06 0.0000000000000000e+00  -1.1304649529147719e-04 -2.3916037295198592e-06 0.0000000000000000e+00  -1.4967060681359402e-04 -3.1811311222056172e-06 0.0000000000000000e+00  -1.9238572450634009e-04 -4.1118219679398956e-06 0.0000000000000000e+00  -2.4294240447922223e-04 -5.2252740776714748e-06 0.0000000000000000e+00  -3.0339312895028838e-04 -6.5694185892800398e-06 0.0000000000000000e+00  -3.7613339565810997e-04 -8.1966572068745579e-06 0.0000000000000000e+00  -4.6390787643125922e-04 -1.0156420217657802e-05 0.0000000000000000e+00  -5.6973854633233134e-04 -1.2474200236665142e-05 0.0000000000000000e+00  -6.9669864640707331e-04 -1.5099071911419994e-05 0.0000000000000000e+00  -8.4741096924544892e-04 -1.7781028208268005e-05 0.0000000000000000e+00  -1.0231075373863441e-03 -1.9802817851362329e-05 0.0000000000000000e+00  -1.2221109846143154e-03 -1.9447551752606398e-05 0.0000000000000000e+00  -1.4378194433492424e-03 -1.3105011870120493e-05 0.0000000000000000e+00  0.0000000000000000e+00 0.0000000000000000e+00 0.0000000000000000e+00  -2.4582437630198782e-05 -5.3418090194249078e-07 0.0000000000000000e+00  -5.0211587922532074e-05 -1.0948913274760157e-06 0.0000000000000000e+00  -7.7987673899134681e-05 -1.7105412981326467e-06 0.0000000000000000e+00  -1.0912303979530741e-04 -2.4135154377021287e-06 0.0000000000000000e+00  -1.4500728314245968e-04 -3.2426676693834436e-06 0.0000000000000000e+00  -1.8728345105759888e-04 -4.2464873001924806e-06 0.0000000000000000e+00  -2.3793867193958694e-04 -5.4872571273548178e-06 0.0000000000000000e+00  -2.9941097389362791e-04 -7.0465626810643280e-06 0.0000000000000000e+00  -3.7470942694864905e-04 -9.0323872663470517e-06 0.0000000000000000e+00  -4.6753362704434159e-04 -1.1587256682837413e-05 0.0000000000000000e+00  -5.8235426904492988e-04 -1.4893960239453479e-05 0.0000000000000000e+00  -7.2436770712947364e-04 -1.9165808111147061e-05 0.0000000000000000e+00  -8.9914815766761345e-04 -2.4580137878954634e-05 0.0000000000000000e+00  -1.1116840445989857e-03 -3.1038691655535576e-05 0.0000000000000000e+00  -1.3643597914434109e-03 -3.7471832054685298e-05 0.0000000000000000e+00  -1.6536119720126116e-03 -4.0175889067057070e-05 0.0000000000000000e+00  0.0000000000000000e+00 0.0000000000000000e+00 0.0000000000000000e+00  -2.2511770640814412e-05 -5.0430264794167316e-07 0.0000000000000000e+00  -4.6029972627213303e-05 -1.0363902401028998e-06 0.0000000000000000e+00  -7.1620186551488865e-05 -1.6264358614381212e-06 0.0000000000000000e+00  -1.0047401728330135e-04 -2.3097563092788175e-06 0.0000000000000000e+00  -1.3398643262885763e-04 -3.1302687014313555e-06 0.0000000000000000e+00  -1.7385203946791415e-04 -4.1452202690767618e-06 0.0000000000000000e+00  -2.2218921124747437e-04 -5.4320445503058491e-06 0.0000000000000000e+00  -2.8170264462673881e-04 -7.0987601284143498e-06 0.0000000000000000e+00  -3.5589529934083923e-04 -9.3003589560318981e-06 0.0000000000000000e+00  -4.4933626849976560e-04 -1.2265424532218782e-05 0.0000000000000000e+00  -5.6797337757452313e-04 -1.6339831321048733e-05 0.0000000000000000e+00  -7.1942857318209471e-04 -2.2055793356438807e-05 0.0000000000000000e+00  -9.1308873257475525e-04 -3.0222902144865528e-05 0.0000000000000000e+00  -1.1595292658297029e-03 -4.1962967366525625e-05 0.0000000000000000e+00  -1.4683221356259451e-03 -5.8299387474985120e-05 0.0000000000000000e+00  -1.8430123012016222e-03 -7.8015527904911277e-05 0.0000000000000000e+00  0.0000000000000000e+00 0.0000000000000000e+00 0.0000000000000000e+00  -1.9439980001485034e-05 -4.4676119037545025e-07 0.0000000000000000e+00  -3.9786398789419904e-05 -9.2016805607152542e-07 0.0000000000000000e+00  -6.2005205296069709e-05 -1.4494397312331622e-06 0.0000000000000000e+00  -8.7190790579166555e-05 -2.0693897749508800e-06 0.0000000000000000e+00  -1.1664833807345021e-04 -2.8242952972641481e-06 0.0000000000000000e+00  -1.5200131950579833e-04 -3.7733361819456037e-06 0.0000000000000000e+00  -1.9533847387823695e-04 -4.9987239064376045e-06 0.0000000000000000e+00  -2.4942071724606227e-04 -6.6185072440286143e-06 0.0000000000000000e+00  -3.1797691091426175e-04 -8.8078935925966013e-06 0.0000000000000000e+00  -4.0612733123074059e-04 -1.1837080238191920e-05 0.0000000000000000e+00  -5.2097973559913561e-04 -1.6143193325220793e-05 0.0000000000000000e+00  -6.7242621517771609e-04 -2.2475845752356360e-05 0.0000000000000000e+00  -8.7407085067408934e-04 -3.2201303500301746e-05 0.0000000000000000e+00  -1.1438670128847386e-03 -4.7914481551803284e-05 0.0000000000000000e+00  -1.5029738123737721e-03 -7.4385031914855565e-05 0.0000000000000000e+00  -1.9689402632412424e-03 -1.1767318520943062e-04 0.0000000000000000e+00  0.0000000000000000e+00 0.0000000000000000e+00 0.0000000000000000e+00  -1.5467244417783660e-05 -3.6270570082658373e-07 0.0000000000000000e+00  -3.1680673536280868e-05 -7.4833250152639831e-07 0.0000000000000000e+00  -4.9439789860072075e-05 -1.1821738827252457e-06 0.0000000000000000e+00  -6.9660317498229375e-05 -1.6946972991687691e-06 0.0000000000000000e+00  -9.3451334814584732e-05 -2.3251368532154400e-06 0.0000000000000000e+00  -1.2221971229477540e-04 -3.1265264126174164e-06 0.0000000000000000e+00  -1.5781941526931903e-04 -4.1731164400556342e-06 0.0000000000000000e+00  -2.0277331539902824e-04 -5.5717443427038789e-06 0.0000000000000000e+00  -2.6061216137901515e-04 -7.4800684762784529e-06 0.0000000000000000e+00  -3.3640357570131131e-04 -1.0137904293962369e-05 0.0000000000000000e+00  -4.3758920369728159e-04 -1.3927410956610966e-05 0.0000000000000000e+00  -5.7531441096212972e-04 -1.9507747870932912e-05 0.0000000000000000e+00  -7.6650474588432565e-04 -2.8168314221459208e-05 0.0000000000000000e+00  -1.0368821359439512e-03 -4.2877526379670228e-05 0.0000000000000000e+00  -1.4241638108088179e-03 -7.1682522983275551e-05 0.0000000000000000e+00  -1.9737086834700091e-03 -1.4013936174703481e-04 0.0000000000000000e+00  0.0000000000000000e+00 0.0000000000000000e+00 0.0000000000000000e+00  -1.0753670389074645e-05 -2.5585991616626804e-07 0.0000000000000000e+00  -2.2039237606481633e-05 -5.2853189876962132e-07 0.0000000000000000e+00  -3.4428950231189147e-05 -8.3663513441323692e-07 0.0000000000000000e+00  -4.8583644975265720e-05 -1.2027277152128028e-06 0.0000000000000000e+00  -6.5313055936975297e-05 -1.6560093264286371e-06 0.0000000000000000e+00  -8.5659684844558248e-05 -2.2360104580228164e-06 0.0000000000000000e+00  -1.1102264668605146e-04 -2.9977324542518736e-06 0.0000000000000000e+00  -1.4334897887153473e-04 -4.0186741649046168e-06 0.0000000000000000e+00  -1.8544034682994848e-04 -5.4077355161217885e-06 0.0000000000000000e+00  -2.4146153182584500e-04 -7.3143058456709258e-06 0.0000000000000000e+00  -3.1781141509543018e-04 -9.9311336229303207e-06 0.0000000000000000e+00  -4.2466712116288749e-04 -1.3474478616369150e-05 0.0000000000000000e+00  -5.7883909335655962e-04 -1.8115153436237601e-05 0.0000000000000000e+00  -8.0939190053653566e-04 -2.3889164383837611e-05 0.0000000000000000e+00  -1.1698963072842160e-03 -3.1074220733348111e-05 0.0000000000000000e+00  -1.7695856595625315e-03 -4.3637959924459198e-05 0.0000000000000000e+00  0.0000000000000000e+00 0.0000000000000000e+00 0.0000000000000000e+00  -5.5131036649576346e-06 -1.3232255554277404e-07 0.0000000000000000e+00  -1.1303021065254345e-05 -2.7353477003993944e-07 0.0000000000000000e+00  -1.7668325751482305e-05 -4.3349858246000205e-07 0.0000000000000000e+00  -2.4955572591786693e-05 -6.2419102616429151e-07 0.0000000000000000e+00  -3.3592485687455111e-05 -8.6113203001932891e-07 0.0000000000000000e+00  -4.4134886274014662e-05 -1.1652695760866407e-06 0.0000000000000000e+00  -5.7337397132477941e-05 -1.5654062593261833e-06 0.0000000000000000e+00  -7.4265306183021382e-05 -2.1008736003843184e-06 0.0000000000000000e+00  -9.6478987059287692e-05 -2.8227368488680219e-06 0.0000000000000000e+00  -1.2634915594822408e-04 -3.7869151505358578e-06 0.0000000000000000e+00  -1.6761158760250365e-04 -5.0161575367187994e-06 0.0000000000000000e+00  -2.2635323477501856e-04 -6.3525837216189631e-06 0.0000000000000000e+00  -3.1269163795060470e-04 -6.9367569845041286e-06 0.0000000000000000e+00  -4.4304016513893688e-04 -3.4418422449947069e-06 0.0000000000000000e+00  -6.3969465757427282e-04 1.5539255963603111e-05 0.0000000000000000e+00  -9.0927559438061566e-04 8.3751778025938846e-05 0.0000000000000000e+00  0.0000000000000000e+00 0.0000000000000000e+00 0.0000000000000000e+00  0.0000000000000000e+00 0.0000000000000000e+00 0.0000000000000000e+00  0.0000000000000000e+00 0.0000000000000000e+00 0.0000000000000000e+00  0.0000000000000000e+00 0.0000000000000000e+00 0.0000000000000000e+00  0.0000000000000000e+00 0.0000000000000000e+00 0.0000000000000000e+00  0.0000000000000000e+00 0.0000000000000000e+00 0