<?xml version="1.0"?>
<VTKFile type="UnstructuredGrid"  version="0.1"  >
<UnstructuredGrid>
<Piece  NumberOfPoints="289" NumberOfCells="512">
<Points>
<DataArray  type="Float64"  NumberOfComponents="3"  format="ascii">0 0 0  0.0625 0 0  0.125 0 0  0.1875 0 0  0.25 0 0  0.3125 0 0  0.375 0 0  0.4375 0 0  0.5 0 0  0.5625 0 0  0.625 0 0  0.6875 0 0  0.75 0 0  0.8125 0 0  0.875 0 0  0.9375 0 0  1 0 0  0 0.0625 0  0.06261083049570132 0.06247739977446153 0  0.1252254819740646 0.06245431570885036 0  0.1878479248905709 0.06243028308824848 0  0.2504823273091156 0.06240489582703472 0  0.3131331611954347 0.06237784612326325 0  0.3758053207332423 0.062348975766611 0  0.4385042738509815 0.0623183398480741 0  0.5012363000066612 0.06228627828911756 0  0.5640089466455541 0.06225347934329129 0  0.6268320411051006 0.06222099561236145 0  0.6897201470668396 0.06219012097261724 0  0.7526989355555777 0.06216190684184118 0  0.8158227409514535 0.06213571425750511 0  0.8792259976922437 0.06210488826536504 0  0.943283928419221 0.0620426294269829 0  1.009157757168925 0.06185078556212813 0  0 0.125 0  0.06271794133130366 0.1249552633349296 0  0.1254434708447537 0.1249095281813394 0  0.188184478462569 0.1248618304301259 0  0.2509492672890363 0.1248113143458701 0  0.3137467752790297 0.1247573087016208 0  0.3765868174217628 0.1246994288586675 0  0.4394803787799976 0.1246377094073121 0  0.5024400289590941 0.1245727643553388 0  0.5654806196146575 0.1245059557152024 0  0.6286206287500412 0.1244395204131481 0  0.6918849498821475 0.1243765526166579 0  0.755310783849712 0.1243206692926706 0  0.8189596107083249 0.1242751942850645 0  0.8829381924358669 0.1242423367822586 0  0.9474177431122222 0.1242269065303276 0  1.012549292938108 0.1242694444500501 0  0 0.1875 0  0.06281754134824288 0.1874341134398886 0  0.1256462799788226 0.1873666600452245 0  0.1884978626181071 0.1872961147590747 0  0.251384578664802 0.1872210921625394 0  0.3143197013280775 0.187140451299231 0  0.3773178490163366 0.1870534442585768 0  0.4403953884608799 0.1869599217453322 0  0.503570922258763 0.1868606032037235 0  0.5668659419957049 0.1867574046761506 0  0.6303057841101756 0.1866537870255365 0  0.6939210564688131 0.1865550291019646 0  0.7577494863611216 0.1864682268327325 0  0.8218368362179138 0.1864016232987381 0  0.8862305670625462 0.1863623532589841 0  0.9509453838755664 0.1863494658087768 0  1.015851730306687 0.1863276233493282 0  0 0.25 0  0.06290601719531132 0.2499145251267909 0  0.125826570774103 0.2498268479426652 0  0.1887767835361317 0.2497348030835176 0  0.2517726624964405 0.2496363667581184 0  0.3148315652823535 0.2495297756366995 0  0.3779726843623747 0.2494137092505549 0  0.4412175545978583 0.2492875623452195 0  0.5045905833794296 0.249151834815825 0  0.5681195782810073 0.2490086620832509 0  0.6318361654345699 0.2488624902559367 0  0.6957757439562768 0.2487208540698997 0  0.7599759335817138 0.2485951161815465 0  0.8244707495925893 0.2485008284376089 0  0.8892740722452892 0.2484570104496336 0  0.9543405494652661 0.2484831804594823 0  1.019492792576229 0.2485942037349757 0  0 0.3125 0  0.06298003952459399 0.3123971380863911 0  0.1259775660190438 0.3122913724385801 0  0.1890107738631698 0.3121798149714623 0  0.252098993162421 0.3120596808185018 0  0.3152632916797758 0.3119283980402479 0  0.3785271020751834 0.3117837981818018 0  0.4419168729619021 0.3116244297298969 0  0.5054627201862745 0.3114500490788649 0  0.5691989985692356 0.3112623566680736 0  0.6331645778060903 0.3110660533858839 0  0.6974022934401253 0.3108702798640954 0  0.7619563861808351 0.3106904394616358 0  0.8268655468726326 0.3105502431965935 0  0.8921476150298407 0.3104834917968115 0  0.9577719289767704 0.3105346550861162 0  1.023623274246092 0.3107570264121485 0  0 0.375 0  0.06303667438483361 0.3748826544790974 0  0.1260932740659162 0.3747616585652807 0  0.1891905313048239 0.3746333367314836 0  0.252350568320867 0.3744940295513923 0  0.3155976452978022 0.3743401623305929 0  0.3789589595856214 0.3741684028665233 0  0.4424655072388576 0.373975964032668 0  0.5061530017532481 0.3737611335519798 0  0.5700628020416462 0.3735241507736835 0  0.6342426991394191 0.3732685973318051 0  0.6987471894516682 0.3730035146400816 0  0.7636364445946541 0.3727464719552239 0  0.8289725685326287 0.3725277026285525 0  0.8948112975709872 0.372395057849665 0  0.9611885558021849 0.3724187451696416 0  1.028107536987914 0.3726936755686274 0  0 0.4375 0  0.06307350091366073 0.4373718174898945 0  0.1261687277903423 0.4372392363843348 0  0.1893082853133738 0.4370977723539566 0  0.2525164090202602 0.4369428189728973 0  0.3158198608963825 0.4367696376268868 0  0.3792489196818634 0.4365734282642258 0  0.4428385095378588 0.4363495423126103 0  0.5066295220868647 0.4360939389698444 0  0.5706704002448068 0.435804049968678 0  0.6350190600556279 0.4354803149224362 0  0.6997452096252149 0.4351287826841176 0  0.7649330518366599 0.434765318235027 0  0.8306842291038474 0.4344219984281826 0  0.8971208876796926 0.4341559306467304 0  0.9643897874484439 0.4340594875423446 0  1.032672868856484 0.4342686040343949 0  0 0.5 0  0.06308873358956799 0.4998653674322571 0  0.1262002362395269 0.4997256535566235 0  0.1893581930639022 0.4995756147276517 0  0.2525881230504983 0.4994097036028976 0  0.3159184052424749 0.4992219434330576 0  0.3793814499899948 0.4990058523878262 0  0.4430151010463587 0.4987544703633928 0  0.5068644068978576 0.4984605873030377 0  0.5709840001383101 0.4981173555159819 0  0.6354415067158362 0.4977196142980688 0  0.7003227169955641 0.4972664984380919 0  0.7657397183947855 0.4967662679317886 0  0.8318437740659198 0.4962447074767359 0  0.8988452906594326 0.4957584342458913 0  0.9670439139446189 0.495412570411559 0  1.036875412605768 0.4953756651518229 0  0 0.5625 0  0.06308134254898344 0.5623639752886036 0  0.1261856359872763 0.5622223380856171 0  0.1893367451719244 0.5620692297874884 0  0.2525605055899406 0.5618982833561436 0  0.3158858400674872 0.5617023555691274 0  0.3793460610783084 0.561473254693841 0  0.4429804784179087 0.5612014881218638 0  0.5068365229376393 0.5608760946604231 0  0.5709727889848754 0.5604847087950047 0  0.6354637928888541 0.560014172615774 0  0.7004080166850685 0.559452349860299 0  0.7659421897184737 0.5587924546593445 0  0.8322668870192342 0.5580423607713145 0  0.8996909399594977 0.557242782881692 0  0.9687034587520126 0.556497489734624 0  1.040083377157136 0.5560077983123454 0  0 0.625 0  0.06305116041198305 0.6248681581580015 0  0.1261245175602494 0.6247304192130838 0  0.1892431393460841 0.6245805625529949 0  0.252432109481114 0.6244116638728034 0  0.3157196750209561 0.6242156805331996 0  0.3791385955169359 0.6239829602270991 0  0.4427278209555826 0.6237016513207816 0  0.5065347288648447 0.6233570094164892 0  0.5706183914840013 0.6229306426941645 0  0.6350549033964876 0.622399867055815 0  0.6999470694466317 0.6217376740494009 0  0.7654434787693755 0.6209146635623013 0  0.831777256213394 0.6199064141390035 0  0.8993429100299035 0.6187145124351746 0  0.9688363556869272 0.6174157946552352 0  1.04147952503663 0.6162402736202376 0  0 0.6875 0  0.06299896058913701 0.6873781865148283 0  0.1260183944879822 0.6872505266318608 0  0.1890795658503568 0.6871107957824276 0  0.2522056917223062 0.686951920570644 0  0.3154230514667206 0.6867654430145602 0  0.3787622853225301 0.6865408334062927 0  0.4422599819557231 0.6862645746527642 0  0.5059607248301303 0.6859189183639753 0  0.5699199553400377 0.6854801915525894 0  0.6342085346754455 0.6849165376762227 0  0.698921343956777 0.6841850984277401 0  0.764196201234318 0.6832292195605939 0  0.8302593890228661 0.6819785601632655 0  0.8975363302494692 0.6803637371610826 0  0.9668978101436922 0.6783875482538686 0  1.040108589999386 0.6763371465846716 0  0 0.75 0  0.06292649157917232 0.7498939981925651 0  0.1258707818310431 0.7497825999807906 0  0.1888513486592552 0.7496600145831087 0  0.2518884455001786 0.7495195475389952 0  0.3150051062190748 0.749353003004129 0  0.3782283087068687 0.749149878344245 0  0.4415903476681567 0.7488962256644979 0  0.5051304628990974 0.7485729916745216 0  0.5688967842160546 0.7481535455634833 0  0.6329488071001017 0.747599941867492 0  0.6973614061322508 0.7468572106021218 0  0.7622347150579609 0.7458446265063196 0  0.8277266640275994 0.7444429166691138 0  0.8941680239022529 0.7424802858561071 0  0.9624482227277881 0.7397537942935059 0  1.034861573343289 0.7363947453706152 0  0 0.8125 0  0.06283645470152215 0.8124151369218877 0  0.125687158014284 0.812325748141159 0  0.1885669008690612 0.8122269466144498 0  0.2514919585300655 0.8121130056878079 0  0.31448093223057 0.8119767852143113 0  0.3775557188561611 0.8118089323588551 0  0.4407426188534058 0.8115967092327544 0  0.5040735165900189 0.8113222117197502 0  0.5675868735993947 0.8109595921418788 0  0.6313278367015812 0.8104706291191109 0  0.6953459403846393 0.8097974780421605 0  0.759688082853393 0.8088503599158091 0  0.8243879947917336 0.8074854122012368 0  0.8894872378987534 0.8054620187883661 0  0.9553337310526981 0.8023628039607016 0  1.024909374906312 0.7975872572908945 0  0 0.875 0  0.06273241827290185 0.87494073247916 0  0.1254747959676406 0.874878197256151 0  0.1882374755554403 0.8748088495620441 0  0.2510318825369367 0.8747284948934326 0  0.3138711477741489 0.8746318347722652 0  0.3767708340510981 0.8745118200089771 0  0.4397497701065755 0.8743586785708166 0  0.5028309064726941 0.8741583999055149 0  0.5660418380760303 0.8738903086761081 0  0.6294138640394364 0.8735231003075503 0  0.6929762929740296 0.8730082368525484 0  0.7567368630793695 0.8722685911416221 0  0.8206244501651537 0.8711771642394268 0  0.8843398777489287 0.8695076772516596 0  0.9470394887719181 0.866776879406661 0  1.007048969010927 0.8615923975009837 0  0 0.9375 0  0.06261866798687801 0.9374695341783613 0  0.1252424629104717 0.9374373552883599 0  0.1878767133751815 0.9374015998958362 0  0.2505273283911638 0.9373600500562147 0  0.3132011392558517 0.937309882010368 0  0.3759063121785914 0.9372473033746712 0  0.4386528470275913 0.937166
[...]
<PointData  Vectors="f_54"> 
<DataArray  type="Float64"  Name="f_54"  NumberOfComponents="3" format="ascii">0.0000000000000000e+00 0.0000000000000000e+00 0.0000000000000000e+00  0.0000000000000000e+00 0.0000000000000000e+00 0.0000000000000000e+00  0.0000000000000000e+00 0.0000000000000000e+00 0.0000000000000000e+00  0.0000000000000000e+00 0.0000000000000000e+00 0.0000000000000000e+00  0.0000000000000000e+00 0.0000000000000000e+00 0.0000000000000000e+00  0.0000000000000000e+00 0.0000000000000000e+00 0.0000000000000000e+00  0.0000000000000000e+00 0.0000000000000000e+00 0.0000000000000000e+00  0.0000000000000000e+00 0.0000000000000000e+00 0.0000000000000000e+00  0.0000000000000000e+00 0.0000000000000000e+00 0.0000000000000000e+00  0.0000000000000000e+00 0.0000000000000000e+00 0.0000000000000000e+00  0.0000000000000000e+00 0.0000000000000000e+00 0.0000000000000000e+00  0.0000000000000000e+00 0.0000000000000000e+00 0.0000000000000000e+00  0.0000000000000000e+00 0.0000000000000000e+00 0.0000000000000000e+00  0.0000000000000000e+00 0.0000000000000000e+00 0.0000000000000000e+00  0.0000000000000000e+00 0.0000000000000000e+00 0.0000000000000000e+00  0.0000000000000000e+00 0.0000000000000000e+00 0.0000000000000000e+00  0.0000000000000000e+00 0.0000000000000000e+00 0.0000000000000000e+00  0.0000000000000000e+00 0.0000000000000000e+00 0.0000000000000000e+00  -7.4838112294462345e-07 -1.2377457061736360e-07 0.0000000000000000e+00  -1.4937142582903079e-06 -2.4928346442752054e-07 0.0000000000000000e+00  -2.2292647549211058e-06 -3.7815697379546433e-07 0.0000000000000000e+00  -2.9391829033535474e-06 -5.1164314485296897e-07 0.0000000000000000e+00  -3.5922595350034349e-06 -6.5044808186643093e-07 0.0000000000000000e+00  -4.1333506881090775e-06 -7.9465634445327022e-07 0.0000000000000000e+00  -4.4710648462382848e-06 -9.4385460608537844e-07 0.0000000000000000e+00  -4.4593407856362851e-06 -1.0977126302922361e-06 0.0000000000000000e+00  -3.8683192602505082e-06 -1.2575388390742814e-06 0.0000000000000000e+00  -2.3343640102627565e-06 -1.4299186894293915e-06 0.0000000000000000e+00  7.3582076028922780e-07 -1.6350844643815989e-06 0.0000000000000000e+00  6.3750935671707748e-06 -1.9273166200947232e-06 0.0000000000000000e+00  1.6581673951714812e-05 -2.4504372662366468e-06 0.0000000000000000e+00  3.5811489517159013e-05 -3.6097272570534406e-06 0.0000000000000000e+00  7.5755484255553689e-05 -6.6788714944238992e-06 0.0000000000000000e+00  1.7332983110648271e-04 -1.6343636582661305e-05 0.0000000000000000e+00  0.0000000000000000e+00 0.0000000000000000e+00 0.0000000000000000e+00  -1.5018690398884554e-06 -2.4616399702334367e-07 0.0000000000000000e+00  -3.0019306448647230e-06 -4.9602771939935884e-07 0.0000000000000000e+00  -4.4915466168077719e-06 -7.5307038013595351e-07 0.0000000000000000e+00  -5.9450075627089055e-06 -1.0199780465031346e-06 0.0000000000000000e+00  -7.3077828641732126e-06 -1.2982670056591722e-06 0.0000000000000000e+00  -8.4803851832829322e-06 -1.5879996419144002e-06 0.0000000000000000e+00  -9.2954092132561761e-06 -1.8877824968184441e-06 0.0000000000000000e+00  -9.4839982422781440e-06 -2.1954377752609790e-06 0.0000000000000000e+00  -8.6253572178305477e-06 -2.5100909808143949e-06 0.0000000000000000e+00  -6.0673331645248402e-06 -2.8370139510000669e-06 0.0000000000000000e+00  -7.9390868061067176e-07 -3.1975168691842428e-06 0.0000000000000000e+00  8.8103391496560912e-06 -3.6473483581802085e-06 0.0000000000000000e+00  2.5396665558380336e-05 -4.3061412099816223e-06 0.0000000000000000e+00  5.3435272423381026e-05 -5.3820578659113410e-06 0.0000000000000000e+00  1.0026739567567746e-04 -7.0512065026471158e-06 0.0000000000000000e+00  1.7496528476986255e-04 -8.3166365238527569e-06 0.0000000000000000e+00  0.0000000000000000e+00 0.0000000000000000e+00 0.0000000000000000e+00  -2.2585460693000201e-06 -3.6510438810775650e-07 0.0000000000000000e+00  -4.5245222106810250e-06 -7.3630960445563729e-07 0.0000000000000000e+00  -6.7964890624529835e-06 -1.1193692919349267e-06 0.0000000000000000e+00  -9.0503957273193433e-06 -1.5188134681909561e-06 0.0000000000000000e+00  -1.1223870947881251e-05 -1.9372726236031980e-06 0.0000000000000000e+00  -1.3194587781518522e-05 -2.3747927317507695e-06 0.0000000000000000e+00  -1.4749726145867120e-05 -2.8283102392653556e-06 0.0000000000000000e+00  -1.5542539369349874e-05 -3.2916737902892090e-06 0.0000000000000000e+00  -1.5030520470231126e-05 -3.7569535780447205e-06 0.0000000000000000e+00  -1.2387582502211200e-05 -4.2182774933584892e-06 0.0000000000000000e+00  -6.3806614090701816e-06 -4.6799181526463307e-06 0.0000000000000000e+00  4.7965047684676326e-06 -5.1701103075498236e-06 0.0000000000000000e+00  2.3714365023027128e-05 -5.7588541150364772e-06 0.0000000000000000e+00  5.3790056088269268e-05 -6.5666970294669331e-06 0.0000000000000000e+00  9.8723110212662561e-05 -7.7317221294547959e-06 0.0000000000000000e+00  1.5966051996528510e-04 -9.3728260530846616e-06 0.0000000000000000e+00  0.0000000000000000e+00 0.0000000000000000e+00 0.0000000000000000e+00  -3.0085092706616954e-06 -4.7810577124688776e-07 0.0000000000000000e+00  -6.0442589709268318e-06 -9.6535108241849516e-07 0.0000000000000000e+00  -9.1251153079022085e-06 -1.4704186795825675e-06 0.0000000000000000e+00  -1.2244207979395057e-05 -2.0003864642200917e-06 0.0000000000000000e+00  -1.5352374876393546e-05 -2.5596975553852593e-06 0.0000000000000000e+00  -1.8333643431025961e-05 -3.1488914637604184e-06 0.0000000000000000e+00  -2.0970482618353871e-05 -3.7631474530657964e-06 0.0000000000000000e+00  -2.2894926232639291e-05 -4.3908862072591093e-06 0.0000000000000000e+00  -2.3521365633255911e-05 -5.0130301067997116e-06 0.0000000000000000e+00  -2.1957841274577135e-05 -5.6040870906195976e-06 0.0000000000000000e+00  -1.6897669762737015e-05 -6.1369530756975681e-06 0.0000000000000000e+00  -6.5089966835468714e-06 -6.5938727856678316e-06 0.0000000000000000e+00  1.1617443400857987e-05 -6.9853792167221380e-06 0.0000000000000000e+00  4.0300073986522187e-05 -7.3756720454189921e-06 0.0000000000000000e+00  8.2021243977724680e-05 -7.9066631695231231e-06 0.0000000000000000e+00  1.3709203347613569e-04 -8.8060299944287802e-06 0.0000000000000000e+00  0.0000000000000000e+00 0.0000000000000000e+00 0.0000000000000000e+00  -3.7314295836679416e-06 -5.8206467097655674e-07 0.0000000000000000e+00  -7.5214442817984960e-06 -1.1771087987718876e-06 0.0000000000000000e+00  -1.1420543271454001e-05 -1.7976168067525070e-06 0.0000000000000000e+00  -1.5456472822203501e-05 -2.4542710544032476e-06 0.0000000000000000e+00  -1.9617314943962035e-05 -3.1546016982369865e-06 0.0000000000000000e+00  -2.3827017056851317e-05 -3.9010599391805513e-06 0.0000000000000000e+00  -2.7909747552532402e-05 -4.6883422647598119e-06 0.0000000000000000e+00  -3.1538818036212257e-05 -5.4999034787100048e-06 0.0000000000000000e+00  -3.4165861918485337e-05 -6.3039014415094085e-06 0.0000000000000000e+00  -3.4927779554045562e-05 -7.0495083109237554e-06 0.0000000000000000e+00  -3.2535354856487164e-05 -7.6659034852384046e-06 0.0000000000000000e+00  -2.5163535240500683e-05 -8.0687362728913961e-06 0.0000000000000000e+00  -1.0396988787947730e-05 -8.1828213824192429e-06 0.0000000000000000e+00  1.4659152465526354e-05 -7.9955044590933186e-06 0.0000000000000000e+00  5.2940693411639913e-05 -7.6621817292555323e-06 0.0000000000000000e+00  1.0658997092592156e-04 -7.6927266622936396e-06 0.0000000000000000e+00  0.0000000000000000e+00 0.0000000000000000e+00 0.0000000000000000e+00  -4.3957529451309244e-06 -6.7311746235123342e-07 0.0000000000000000e+00  -8.8919815769232378e-06 -1.3639178030588416e-06 0.0000000000000000e+00  -1.3584232686501888e-05 -2.0896951736474972e-06 0.0000000000000000e+00  -1.8551752794852143e-05 -2.8661121244678857e-06 0.0000000000000000e+00  -2.3843989327106361e-05 -3.7057096889468197e-06 0.0000000000000000e+00  -2.9459473737965859e-05 -4.6154611565017258e-06 0.0000000000000000e+00  -3.5312983503789948e-05 -5.5928740445738078e-06 0.0000000000000000e+00  -4.1185643468438695e-05 -6.6200544411359206e-06 0.0000000000000000e+00  -4.6651575172666356e-05 -7.6552085260105581e-06 0.0000000000000000e+00  -5.0974839685879730e-05 -8.6215896920582412e-06 0.0000000000000000e+00  -5.2973831374574296e-05 -9.3956143035918128e-06 0.0000000000000000e+00  -5.0860437735308054e-05 -9.8001468419962018e-06 0.0000000000000000e+00  -4.2081683153966413e-05 -9.6180613596795699e-06 0.0000000000000000e+00  -2.3218228551280261e-05 -8.6577132731192371e-06 0.0000000000000000e+00  1.0007224465546218e-05 -6.9260546485326646e-06 0.0000000000000000e+00  6.2693043900114193e-05 -4.9891962307413238e-06 0.0000000000000000e+00  0.0000000000000000e+00 0.0000000000000000e+00 0.0000000000000000e+00  -4.9598395352613371e-06 -7.4659476156286581e-07 0.0000000000000000e+00  -1.0069492072067885e-05 -1.5163194763159532e-06 0.0000000000000000e+00  -1.5478735964153640e-05 -2.3322384921503663e-06 0.0000000000000000e+00  -2.1331910578561879e-05 -3.2165107183337926e-06 0.0000000000000000e+00  -2.7760770658856329e-05 -4.1891241049103949e-06 0.0000000000000000e+00  -3.4870537391765659e-05 -5.2653785415672821e-06 0.0000000000000000e+00  -4.2714657733950500e-05 -6.4512560387270638e-06 0.0000000000000000e+00  -5.1251502918477948e-05 -7.7353796708523233e-06 0.0000000000000000e+00  -6.0273142392918153e-05 -9.0757387796630442e-06 0.0000000000000000e+00  -6.9292748290603092e-05 -1.0379019863487533e-05 0.0000000000000000e+00  -7.7374385851240304e-05 -1.1471106667177299e-05 0.0000000000000000e+00  -8.2889872280238354e-05 -1.2061371255293564e-05 0.0000000000000000e+00  -8.3196398831591607e-05 -1.1715677543619617e-05 0.0000000000000000e+00  -7.4245575093186239e-05 -9.8817506947861263e-06 0.0000000000000000e+00  -5.0132474657794501e-05 -6.0633681713117989e-06 0.0000000000000000e+00  -2.4719549754134529e-06 -3.1117244843288867e-07 0.0000000000000000e+00  0.0000000000000000e+00 0.0000000000000000e+00 0.0000000000000000e+00  -5.3751542626608366e-06 -7.9715295953894017e-07 0.0000000000000000e+00  -1.0951759407276596e-05 -1.6232479157114859e-06 0.0000000000000000e+00  -1.6937478079082257e-05 -2.5077420136212792e-06 0.0000000000000000e+00  -2.3549143992397708e-05 -3.4805874831561444e-06 0.0000000000000000e+00  -3.1014825091215001e-05 -4.5717245131678100e-06 0.0000000000000000e+00  -3.9571263937798752e-05 -5.8092927948256652e-06 0.0000000000000000e+00  -4.9452443158043919e-05 -7.2154353115444714e-06 0.0000000000000000e+00  -6.0861653272336100e-05 -8.7977029110106224e-06 0.0000000000000000e+00  -7.3913833342091278e-05 -1.0532638106049374e-05 0.0000000000000000e+00  -8.8526217104313598e-05 -1.2335966087610710e-05 0.0000000000000000e+00  -1.0422313498770967e-04 -1.4011223249202741e-05 0.0000000000000000e+00  -1.1980736420603186e-04 -1.5167555728208361e-05 0.0000000000000000e+00  -1.3284390296239447e-04 -1.5104635409154549e-05 0.0000000000000000e+00  -1.3891802570681843e-04 -1.2695594057474526e-05 0.0000000000000000e+00  -1.3066754620545091e-04 -6.3872619202996004e-06 0.0000000000000000e+00  -9.6531222244615358e-05 5.4080855002583106e-06 0.0000000000000000e+00  0.0000000000000000e+00 0.0000000000000000e+00 0.0000000000000000e+00  -5.5913995900992061e-06 -8.1915349855761387e-07 0.0000000000000000e+00  -1.1431361702588805e-05 -1.6727493793024623e-06 0.0000000000000000e+00  -1.7781568639155949e-05 -2.5965578925540392e-06 0.0000000000000000e+00  -2.4929759737154625e-05 -3.6288774556847950e-06 0.0000000000000000e+00  -3.3203255440249919e-05 -4.8113898581777775e-06 0.0000000000000000e+00  -4.2981807907625505e-05 -6.1891514700518946e-06 0.0000000000000000e+00  -5.4707025506739438e-05 -7.8086458144145570e-06 0.0000000000000000e+00  -6.8881778033464701e-05 -9.7116649478597229e-06 0.0000000000000000e+00  -8.6045455220798292e-05 -1.1920493695216481e-05 0.0000000000000000e+00  -1.0669687443609509e-04 -1.4405434494937745e-05 0.0000000000000000e+00  -1.3111216329768065e-04 -1.7017516576473508e-05 0.0000000000000000e+00  -1.5896750478522020e-04 -1.9355606160820865e-05 0.0000000000000000e+00  -1.8863399210003299e-04 -2.0520313788792933e-05 0.0000000000000000e+00  -2.1600470608148804e-04 -1.8708703575755136e-05 0.0000000000000000e+00  -2.3283122248599780e-04 -1.0700013871405754e-05 0.0000000000000000e+00  -2.2475846560923496e-04 8.4134801301167107e-06 0.0000000000000000e+00  0.0000000000000000e+00 0.0000000000000000e+00 0.0000000000000000e+00  -5.5631961291676348e-06 -8.0732358271694836e-07 0.0000000000000000e+00  -1.1409781467042836e-05 -1.6533397923219325e-06 0.0000000000000000e+00  -1.7842825380055487e-05 -2.5789960668224585e-06 0.0000000000000000e+00  -2.5208213974994061e-05 -3.6301564379424383e-06 0.0000000000000000e+00  -3.3920504119690132e-05 -4.8602934256152136e-06 0.0000000000000000e+00  -4.4493784923881984e-05 -6.3332531568842701e-06 0.0000000000000000e+00  -5.7578033713842051e-05 -8.1255792975258435e-06 0.0000000000000000e+00  -7.3998593370764353e-05 -1.0326880954233933e-05 0.0000000000000000e+00  -9.4789195015972761e-05 -1.3034350422928817e-05 0.0000000000000000e+00  -1.2119226052085648e-04 -1.6331923920087701e-05 0.0000000000000000e+00  -1.5456419605900434e-04 -2.0231425531657179e-05 0.0000000000000000e+00  -1.9605198290116566e-04 -2.4522744986449961e-05 0.0000000000000000e+00  -2.4578568610907124e-04 -2.8414262356798964e-05 0.0000000000000000e+00  -3.0119755274022009e-04 -2.9727082761265924e-05 0.0000000000000000e+00  -3.5419970687953573e-04 -2.3335338075959954e-05 0.0000000000000000e+00  -3.8777727742735069e-04 9.3503980512916630e-07 0.0000000000000000e+00  0.0000000000000000e+00 0.0000000000000000e+00 0.0000000000000000e+00  -5.2575670570667882e-06 -7.5766050716504263e-07 0.0000000000000000e+00  -1.0813529094036993e-05 -1.5559512598799016e-06 0.0000000000000000e+00  -1.6990929119367471e-05 -2.4385913686066796e-06 0.0000000000000000e+00  -2.4169079557031629e-05 -3.4564405278304084e-06 0.0000000000000000e+00  -3.2820364195134270e-05 -4.6721153006124257e-06 0.0000000000000000e+00  -4.3558635150095427e-05 -6.1659789888239330e-06 0.0000000000000000e+00  -5.7204556525911133e-05 -8.0440504438460535e-06 0.0000000000000000e+00  -7.4873449970759735e-05 -1.0448182073465563e-05 0.0000000000000000e+00  -9.8088480920780223e-05 -1.3567861239840045e-05 0.0000000000000000e+00  -1.2891026926468231e-04 -1.7649469397199834e-05 0.0000000000000000e+00  -1.7003766134849260e-04 -2.2987568799153457e-05 0.0000000000000000e+00  -2.2473643179715474e-04 -2.9847584269509666e-05 0.0000000000000000e+00  -2.9621468321757306e-04 -3.8159168529680857e-05 0.0000000000000000e+00  -3.8557958270985968e-04 -4.6482890991879275e-05 0.0000000000000000e+00  -4.8712953695655262e-04 -4.8912057042541259e-05 0.0000000000000000e+00  -5.8216960858144869e-04 -2.8430284496693487e-05 0.0000000000000000e+00  0.0000000000000000e+00 0.0000000000000000e+00 0.0000000000000000e+00  -4.6611202474531470e-06 -6.6844654205980432e-07 0.0000000000000000e+00  -9.6099675530281510e-06 -1.3761968132311833e-06 0.0000000000000000e+00  -1.5161033113692656e-05 -2.1661330299585814e-06 0.0000000000000000e+00  -2.1691816230806099e-05 -3.0896805615419702e-06 0.0000000000000000e+00  -2.9686353735347993e-05 -4.2128479264601881e-06 0.0000000000000000e+00  -3.9796095601626655e-05 -5.6248827269996695e-06 0.0000000000000000e+00  -5.2928831724065859e-05 -7.4513030519842424e-06 0.0000000000000000e+00  -7.0381448207598669e-05 -9.8741002028449388e-06 0.0000000000000000e+00  -9.4038825676889310e-05 -1.3163554541680100e-05 0.0000000000000000e+00  -1.2666606778079207e-04 -1.7728398332366627e-05 0.0000000000000000e+00  -1.7231104578340078e-04 -2.4192770421513401e-05 0.0000000000000000e+00  -2.3676188643150951e-04 -3.3501336115628470e-05 0.0000000000000000e+00  -3.2771712479128532e-04 -4.6993194016410484e-05 0.0000000000000000e+00  -4.5334682614659442e-04 -6.6024813155646716e-05 0.0000000000000000e+00  -6.1495908684708735e-04 -8.8657442374227068e-05 0.0000000000000000e+00  -7.9360621753096858e-04 -9.2140658263762680e-05 0.0000000000000000e+00  0.0000000000000000e+00 0.0000000000000000e+00 0.0000000000000000e+00  -3.7855571076094196e-06 -5.4115140181170373e-07 0.0000000000000000e+00  -7.8198275998514993e-06 -1.1164570611435596e-06 0.0000000000000000e+00  -1.2376627787967315e-05 -1.7635815516028126e-06 0.0000000000000000e+00  -1.7790121272087964e-05 -2.5287349478325168e-06 0.0000000000000000e+00  -2.4498198632794290e-05 -3.4730456485471172e-06 0.0000000000000000e+00  -3.3105824544271174e-05 -4.6821915326622866e-06 0.0000000000000000e+00  -4.4482702321850964e-05 -6.2818241197466838e-06 0.0000000000000000e+00  -5.9919468276449647e-05 -8.4633177593587190e-06 0.0000000000000000e+00  -8.1384170288403433e-05 -1.1528317447188003e-05 0.0000000000000000e+00  -1.1195087550072384e-04 -1.5968688423226435e-05 0.0000000000000000e+00  -1.5651870665361761e-04 -2.2616311221637943e-05 0.0000000000000000e+00  -2.2298799791042030e-04 -3.2939205828420467e-05 0.0000000000000000e+00  -3.2399884689362704e-04 -4.9664269369970981e-05 0.0000000000000000e+00  -4.7860942348290343e-04 -7.8138286135053642e-05 0.0000000000000000e+00  -7.0882480578266156e-04 -1.2881262340706939e-04 0.0000000000000000e+00  -9.8224900022822188e-04 -2.0869254633723282e-04 0.0000000000000000e+00  0.0000000000000000e+00 0.0000000000000000e+00 0.0000000000000000e+00  -2.6701180019128995e-06 -3.8095676383013665e-07 0.0000000000000000e+00  -5.5232167294587911e-06 -7.8716685004688431e-07 0.0000000000000000e+00  -8.7617283432000534e-06 -1.2466829694976283e-06 0.0000000000000000e+00  -1.2635502715845147e-05 -1.7944534172206174e-06 0.0000000000000000e+00  -1.7476818887960066e-05 -2.4776221096740509e-06 0.0000000000000000e+00  -2.3753016058464401e-05 -3.3637622172577872e-06 0.0000000000000000e+00  -3.2150626959277140e-05 -4.5544448649512206e-06 0.0000000000000000e+00  -4.3716300234823425e-05 -6.2085566991670424e-06 0.0000000000000000e+00  -6.0102774669724881e-05 -8.5838088266757751e-06 0.0000000000000000e+00  -8.4015624763044048e-05 -1.2113263782506257e-05 0.0000000000000000e+00  -1.2005620074712455e-04 -1.7552413670150103e-05 0.0000000000000000e+00  -1.7636394655849667e-04 -2.6279825095885594e-05 0.0000000000000000e+00  -2.6786698272804213e-04 -4.0983661353435229e-05 0.0000000000000000e+00  -4.2261707720782208e-04 -6.7574512539808745e-05 0.0000000000000000e+00  -6.9376208102564063e-04 -1.2219401944909373e-04 0.0000000000000000e+00  -1.1889016552789626e-03 -2.6312061998214650e-04 0.0000000000000000e+00  0.0000000000000000e+00 0.0000000000000000e+00 0.0000000000000000e+00  -1.3799316850588107e-06 -1.9667901920089919e-07 0.0000000000000000e+00  -2.8566092276306381e-06 -4.0675534047927782e-07 0.0000000000000000e+00  -4.5373251653689543e-06 -6.4516842034794132e-07 0.0000000000000000e+00  -6.5552903828205155e-06 -9.3068028374659579e-07 0.0000000000000000e+00  -9.0890369806083497e-06 -1.2888522792578627e-06 0.0000000000000000e+00  -1.2392029763478243e-05 -1.7567179438436779e-06 0.0000000000000000e+00  -1.6840918467623603e-05 -2.3905456640456871e-06 0.0000000000000000e+00  -2.3018410104987159e-05 -3.2792108752468754e-06 0.0000000000000000e+00  -3.1862897192702890e-05 -4.5677566330013326e-06 0.0000000000000000e+00  -4.4953244766882159e-05 -6.4991100047226153e-06 0.0000000000000000e+00  -6.5082471345106159e-05 -9.4854288103779613e-06 0.0000000000000000e+00  -9.7480277979455354e-05 -1.4211747297831607e-05 0.0000000000000000e+00  -1.5251634019939215e-04 -2.1678927397456343e-05 0.0000000000000000e+00  -2.5137671839765412e-04 -3.2536703246069283e-05 0.0000000000000000e+00  -4.3300830301008954e-04 -4.2756727608275106e-05 0.0000000000000000e+00  -7.2671822423706273e-04 -3.1370397864160359e-05 0.0000000000000000e+00  0.0000000000000000e+00 0.0000000000000000e+00 0.0000000000000000e+00  0.0000000000000000e+00 0.0000000000000000e+00 0.0000000000000000e+00  0.0000000000000000e+00 0.0000000000000000e+00 0.0000000000000000e+00  0.0000000000000000e+00 0.0000000000000000e+00 0.0000000000000000e+00  0.0000000000000000e+00 0.0000000000000000e+00 0.0000000000000000e+00  0.0000000000000000e+00 0.0000000000000000e+00 0.00