<?xml version="1.0"?>
<VTKFile type="UnstructuredGrid"  version="0.1"  >
<UnstructuredGrid>
<Piece  NumberOfPoints="289" NumberOfCells="512">
<Points>
<DataArray  type="Float64"  NumberOfComponents="3"  format="ascii">0 0 0  0.0625 0 0  0.125 0 0  0.1875 0 0  0.25 0 0  0.3125 0 0  0.375 0 0  0.4375 0 0  0.5 0 0  0.5625 0 0  0.625 0 0  0.6875 0 0  0.75 0 0  0.8125 0 0  0.875 0 0  0.9375 0 0  1 0 0  0 0.0625 0  0.06247021164113536 0.06247849424460351 0  0.1249403164240424 0.06245661844218812 0  0.1874102937619748 0.06243403448821119 0  0.2498803900500269 0.06241048768095309 0  0.3123512991544486 0.06238586024645458 0  0.3748244083297544 0.06236023764014904 0  0.4373021466488174 0.06233398777506875 0  0.499788496301813 0.06230784733067687 0  0.5622897801168542 0.06228299847085918 0  0.6248159680822994 0.06226110137935238 0  0.6873830817796768 0.06224422100072783 0  0.7500181981062445 0.0622345498628802 0  0.8127712147267936 0.06223378511524092 0  0.875745538993701 0.06224196928784054 0  0.9391845560958091 0.062255628199561 0  1.003726684611673 0.06226783327367807 0  0 0.125 0  0.06244054589547728 0.1249573455776583 0  0.1248807641194828 0.1249139096113515 0  0.1873204898637174 0.1248689699438441 0  0.2497600649591993 0.1248219617306091 0  0.31220068340739 0.1247725815739744 0  0.3746448640569598 0.1247209206026055 0  0.4370971180172536 0.1246676299847395 0  0.4995649120677862 0.1246141123026922 0  0.5620600971186028 0.1245627128377418 0  0.6246011137043197 0.124516850990082 0  0.6872165914201618 0.124480979397384 0  0.7499515828044339 0.1244601913667522 0  0.8128787671576926 0.1244592608488523 0  0.8761179767283246 0.1244810967437902 0  0.9398636084903499 0.1245257885613175 0  1.00438991918724 0.1245954780086476 0  0 0.1875 0  0.06241128075597815 0.187436973160723 0  0.1248217860747451 0.1873726774246073 0  0.1872309559059257 0.1873059212320083 0  0.2496389109578053 0.1872357236504582 0  0.3120469236297646 0.1871614612823494 0  0.3744580668258671 0.1870830654280658 0  0.4368781270508078 0.1870012820365663 0  0.4993168957384858 0.1869179969579325 0  0.5617899939390921 0.1868366063389444 0  0.6243214438865249 0.1867623664622125 0  0.6869472639963896 0.1867025725772571 0  0.7497203358257586 0.1866662634104726 0  0.8127162679191959 0.1866628563671719 0  0.8760376524485742 0.1866984357590045 0  0.9398068498777314 0.186766294518685 0  1.004122161638707 0.1868206001085508 0  0 0.25 0  0.06238292034430983 0.2499178710924035 0  0.1247643093582987 0.2498338863370232 0  0.1871428674056728 0.2497462700222788 0  0.2495180515526626 0.2496534765527131 0  0.3118906136572107 0.2495543644279487 0  0.3742633553891117 0.249448445999673 0  0.4366421995144938 0.249336241447736 0  0.4990376941674086 0.2492197619660024 0  0.5614670737869981 0.2491031315850555 0  0.6239569692103242 0.2489933156124498 0  0.6865467210154292 0.2489008319769087 0  0.7492918388599477 0.2488401389330631 0  0.8122661038510156 0.2488290558418458 0  0.8755585137355429 0.2488860190482436 0  0.939257359986264 0.2490233662782483 0  1.003410747082997 0.249236008991877 0  0 0.3125 0  0.06235626274057105 0.3124006311472177 0  0.1247098965651969 0.3122987131673979 0  0.187058475302621 0.3121917589303672 0  0.2494002820979892 0.3120774827102625 0  0.3117348424211696 0.3119539746698792 0  0.3740637027929817 0.3118199761463423 0  0.4363915709725142 0.3116753054598609 0  0.4987279518834962 0.311521494860724 0  0.5610894112774294 0.3113627048567318 0  0.6235025355125945 0.3112069685547427 0  0.6860074502767197 0.3110677565368863 0  0.7486612748487157 0.3109656878227236 0  0.8115399461117608 0.3109298612732874 0  0.8747354375547267 0.3109976676005274 0  0.9383444020060113 0.3112111540801353 0  1.002447052007447 0.3116076018053878 0  0 0.375 0  0.0623324207085867 0.3748859484137854 0  0.124660799326013 0.3747685648708679 0  0.1869812168636835 0.3746445357457482 0  0.2492902764893029 0.3745106593977334 0  0.3115855472526013 0.3743639824311368 0  0.3738662689572789 0.3742020526075711 0  0.4361344580989131 0.3740233596225652 0  0.4983965950477581 0.3738280667574052 0  0.5606661033602203 0.3736191778146724 0  0.622966815813175 0.3734043269604926 0  0.6853374835632497 0.3731983969180713 0  0.7478370058358501 0.37302709335071 0  0.8105493258801379 0.3729312845758318 0  0.873585977176329 0.372971126228878 0  0.937083988447397 0.3732275397824193 0  1.00119964576215 0.3737967175354386 0  0 0.4375 0  0.06231278667954322 0.437374603550296 0  0.1246198954800786 0.4372450482420389 0  0.1869156405545727 0.4371071229690643 0  0.2491945267316731 0.4369565727453766 0  0.3114515095597472 0.4367891482880752 0  0.3736825068144025 0.4366007677336456 0  0.435885327268249 0.4363878744418771 0  0.4980612651728984 0.4361481290307611 0  0.5602177181608881 0.4358816600871295 0  0.622372304761532 0.4355932261221342 0  0.6845590274618238 0.4352958068305363 0  0.7468369166850325 0.4350162863161115 0  0.8093010876057942 0.4348038131748492 0  0.8720951033923809 0.434740645993429 0  0.9354225016894168 0.4349530943930558 0  0.9995567736345952 0.4356163898471558 0  0 0.5 0  0.06229893781510902 0.4998674167742501 0  0.1245904997031151 0.4997298795861868 0  0.1868671255261456 0.4995822887301163 0  0.2491209839629708 0.4994192850720703 0  0.3113439506543537 0.499235162588913 0  0.3735277836404594 0.499023857968164 0  0.4356646716422995 0.4987790940571331 0  0.497748465340861 0.4984948221132117 0  0.5597771235357436 0.498166232389078 0  0.6217572458925775 0.4977918242012725 0  0.6837120224441943 0.497377400810795 0  0.7456943913341824 0.4969434182292441 0  0.8078072592445289 0.4965377448972367 0  0.8702314733141953 0.4962558858709816 0  0.9332591921161942 0.4962681786299732 0  0.9973283735631538 0.4968457563282729 0  0 0.5625 0  0.06229248247555477 0.5623651722322948 0  0.1245760473141243 0.5622247292436524 0  0.1868413875805933 0.5620728045345671 0  0.2490783741520692 0.5619030206840462 0  0.3112756658603083 0.5617082259029037 0  0.3734203986470301 0.5614802382939288 0  0.4354980964528226 0.5612096384974959 0  0.4974931178267648 0.5608857120417136 0  0.5593902836308994 0.5604967715716367 0  0.6211789429976325 0.5600313609916467 0  0.6828617849682305 0.5594814082332218 0  0.7444722823958463 0.5588495197199179 0  0.8061063882116889 0.5581646372332346 0  0.8679741765227886 0.5575130036936241 0  0.9304712985625395 0.5570916406169476 0  0.9942554515142449 0.5572799236379553 0  0 0.625 0  0.06229485706257926 0.6248685172088227 0  0.1245796659047728 0.624731008206203 0  0.1868437837217073 0.6245810954655874 0  0.2490751806181045 0.6244116442999736 0  0.3112596351636883 0.624214312287777 0  0.3733798201705241 0.6239790111762682 0  0.4354143209467904 0.6236932569126686 0  0.497336783764374 0.6233414056820499 0  0.5591157580124831 0.6229038442077866 0  0.6207166095522669 0.6223564032930435 0  0.6821085932575803 0.6216708120593032 0  0.7432834912694029 0.6208184703397327 0  0.8042977812225156 0.6197835453479515 0  0.8653565621144741 0.618599904461461 0  0.9269545269850401 0.617439341461072 0  0.9900613679833536 0.6167709039032807 0  0 0.6875 0  0.0623070926051468 0.6873778479724614 0  0.1246036717256136 0.6872496206059059 0  0.1868784636944243 0.6871088182005678 0  0.2491183362308498 0.6869479956963521 0  0.3113071067259568 0.6867581553665977 0  0.3734240042706071 0.6865279537370454 0  0.4354416544976975 0.6862426199106543 0  0.4973235084868071 0.6858824412743799 0  0.5590208661818036 0.6854206193708912 0  0.6204703624788944 0.6848202600515695 0  0.6815947535100045 0.6840303718231386 0  0.7423148156814043 0.6829815632401554 0  0.8025916889942385 0.6815858187148344 0  0.8625414806937526 0.6797591956976126 0  0.9226849172530877 0.677534842930179 0  0.9843287125536884 0.6753797228951908 0  0 0.75 0  0.06232958274816139 0.7498932011053908 0  0.1246490564196718 0.7497807226601046 0  0.1869474702905189 0.7496564350534619 0  0.2492117590702215 0.7495131849912968 0  0.3114252931402992 0.7493421069375655 0  0.3735658599402978 0.7491316795283535 0  0.4356027364804795 0.7488663622066194 0  0.4974923743296745 0.7485245464582438 0  0.5591720879980192 0.7480753698966799 0  0.6205512243086284 0.7474735868952639 0  0.6815003416787965 0.7466510082294776 0  0.741843375034784 0.7455018156952548 0  0.801373098698323 0.7438577683042426 0  0.859958210702638 0.7414541867810207 0  0.9179386311744303 0.7379497429473356 0  0.9768914109907149 0.7336524904024361 0  0 0.8125 0  0.06236189591966414 0.8124141733233056 0  0.1247150581508759 0.8123235396187959 0  0.1870499504095736 0.8122228765674289 0  0.2493549846569861 0.8121060046367302 0  0.311615045642843 0.8119651257014969 0  0.3738093276595397 0.8117898937601061 0  0.4359079846700154 0.8115660376903799 0  0.4978667503548412 0.8112732387521265 0  0.5596180787964109 0.8108817397875763 0  0.6210563477466665 0.8103466877471599 0  0.6820132384714199 0.8095980895040805 0  0.7422185597459796 0.8085213191695722 0  0.8012477117499937 0.806914864254983 0  0.8585005789212378 0.8043881901332423 0  0.9135019148380662 0.8000900184066604 0  0.9686073578217569 0.7918219463411104 0  0 0.875 0  0.06240267918794596 0.874939891610808 0  0.1247989268409883 0.8748762910833207 0  0.1871816815166764 0.8748053873779026 0  0.2495422532632605 0.8747226285031391 0  0.311869114650887 0.8746222025705587 0  0.3741460672057362 0.8744963017441026 0  0.4363492789917663 0.8743340277690314 0  0.4984422608356274 0.8741197200534532 0  0.5603669735550948 0.8738303648010664 0  0.6220274180312164 0.873431548103251 0  0.6832580808740316 0.8728710375916217 0  0.743760846511469 0.8720679163168259 0  0.8029748197273832 0.8708900584709124 0  0.8598049469840281 0.8690885868407821 0  0.9120851071573223 0.8660521598697007 0  0.9557532724412645 0.8597936910562812 0  0 0.9375 0  0.06244969386039197 0.9374690479141841 0  0.1248959806661624 0.9374362585453864 0  0.1873351088825723 0.9373996216672503 0  0.2497624304088813 0.9373567235493822 0  0.3121717240476142 0.9373044628995842 0  0.3745541514512342 0.9372386477507195 0  0.4368965331013833 0.937153
[...]
<PointData  Vectors="f_54"> 
<DataArray  type="Float64"  Name="f_54"  NumberOfComponents="3" format="ascii">0.0000000000000000e+00 0.0000000000000000e+00 0.0000000000000000e+00  0.0000000000000000e+00 0.0000000000000000e+00 0.0000000000000000e+00  0.0000000000000000e+00 0.0000000000000000e+00 0.0000000000000000e+00  0.0000000000000000e+00 0.0000000000000000e+00 0.0000000000000000e+00  0.0000000000000000e+00 0.0000000000000000e+00 0.0000000000000000e+00  0.0000000000000000e+00 0.0000000000000000e+00 0.0000000000000000e+00  0.0000000000000000e+00 0.0000000000000000e+00 0.0000000000000000e+00  0.0000000000000000e+00 0.0000000000000000e+00 0.0000000000000000e+00  0.0000000000000000e+00 0.0000000000000000e+00 0.0000000000000000e+00  0.0000000000000000e+00 0.0000000000000000e+00 0.0000000000000000e+00  0.0000000000000000e+00 0.0000000000000000e+00 0.0000000000000000e+00  0.0000000000000000e+00 0.0000000000000000e+00 0.0000000000000000e+00  0.0000000000000000e+00 0.0000000000000000e+00 0.0000000000000000e+00  0.0000000000000000e+00 0.0000000000000000e+00 0.0000000000000000e+00  0.0000000000000000e+00 0.0000000000000000e+00 0.0000000000000000e+00  0.0000000000000000e+00 0.0000000000000000e+00 0.0000000000000000e+00  0.0000000000000000e+00 0.0000000000000000e+00 0.0000000000000000e+00  0.0000000000000000e+00 0.0000000000000000e+00 0.0000000000000000e+00  -2.6866697540943089e-06 -1.4062768460197673e-07 0.0000000000000000e+00  -5.4652831312255478e-06 -2.8404482658767032e-07 0.0000000000000000e+00  -8.4316266900107454e-06 -4.3287704769918200e-07 0.0000000000000000e+00  -1.1685776951974887e-05 -5.8918947512009101e-07 0.0000000000000000e+00  -1.5334239477896432e-05 -7.5407360651316494e-07 0.0000000000000000e+00  -1.9492081873964154e-05 -9.2705824429563221e-07 0.0000000000000000e+00  -2.4285380540485623e-05 -1.1052660194545580e-06 0.0000000000000000e+00  -2.9854995356478194e-05 -1.2822134711552934e-06 0.0000000000000000e+00  -3.6364553891917696e-05 -1.4460914569823148e-06 0.0000000000000000e+00  -4.4020602984114952e-05 -1.5771589608711386e-06 0.0000000000000000e+00  -5.3127215021139248e-05 -1.6431510197116653e-06 0.0000000000000000e+00  -6.4240211667930221e-05 -1.5889101613252450e-06 0.0000000000000000e+00  -7.8623984403489641e-05 -1.3062979323519295e-06 0.0000000000000000e+00  -9.9693460878258445e-05 -5.3046435914449888e-07 0.0000000000000000e+00  -1.3794983208826320e-04 1.5592656753646459e-06 0.0000000000000000e+00  -2.2984475141974844e-04 8.0450096294913741e-06 0.0000000000000000e+00  0.0000000000000000e+00 0.0000000000000000e+00 0.0000000000000000e+00  -5.2769485696580613e-06 -2.7823322033036064e-07 0.0000000000000000e+00  -1.0735456714657001e-05 -5.6229391534647062e-07 0.0000000000000000e+00  -1.6564605308285896e-05 -8.5772803108888477e-07 0.0000000000000000e+00  -2.2962146523672262e-05 -1.1690742808796200e-06 0.0000000000000000e+00  -3.0138755728031083e-05 -1.4991066478256244e-06 0.0000000000000000e+00  -3.8322072562549946e-05 -1.8477391608445724e-06 0.0000000000000000e+00  -4.7760771285057391e-05 -2.2104454007290379e-06 0.0000000000000000e+00  -5.8729591411255580e-05 -2.5760216052500351e-06 0.0000000000000000e+00  -7.1538034399329487e-05 -2.9234959003946627e-06 0.0000000000000000e+00  -8.6549751260354532e-05 -3.2179427109053942e-06 0.0000000000000000e+00  -1.0422969908359179e-04 -3.4048679978140601e-06 0.0000000000000000e+00  -1.2525800879451641e-04 -3.4027754735215128e-06 0.0000000000000000e+00  -1.5078938557572382e-04 -3.0949160846395731e-06 0.0000000000000000e+00  -1.8296440140974123e-04 -2.3344244120928616e-06 0.0000000000000000e+00  -2.2547274302029237e-04 -1.0660639693225964e-06 0.0000000000000000e+00  -2.8111583818219094e-04 -2.1430705930806669e-07 0.0000000000000000e+00  0.0000000000000000e+00 0.0000000000000000e+00 0.0000000000000000e+00  -7.6795867219766287e-06 -4.0968861338291904e-07 0.0000000000000000e+00  -1.5625901490098120e-05 -8.2869268557967149e-07 0.0000000000000000e+00  -2.4116575358890659e-05 -1.2660137554094975e-06 0.0000000000000000e+00  -3.3442517182013018e-05 -1.7294126144977535e-06 0.0000000000000000e+00  -4.3914327478074307e-05 -2.2244357543649532e-06 0.0000000000000000e+00  -5.5868109080601561e-05 -2.7529642696300219e-06 0.0000000000000000e+00  -6.9670437351727603e-05 -3.3110692380222629e-06 0.0000000000000000e+00  -8.5722335963593456e-05 -3.8859306298498319e-06 0.0000000000000000e+00  -1.0446238996678216e-04 -4.4515904471532262e-06 0.0000000000000000e+00  -1.2636962797419604e-04 -4.9634410774965820e-06 0.0000000000000000e+00  -1.5196676692842053e-04 -5.3517769514181066e-06 0.0000000000000000e+00  -1.8181955592546774e-04 -5.5159133899522033e-06 0.0000000000000000e+00  -2.1650052377972836e-04 -5.3234155163353036e-06 0.0000000000000000e+00  -2.5637265618509562e-04 -4.6257969746439704e-06 0.0000000000000000e+00  -3.0066409488813882e-04 -3.3075854410638692e-06 0.0000000000000000e+00  -3.4429789594682647e-04 -1.2958777811013392e-06 0.0000000000000000e+00  0.0000000000000000e+00 0.0000000000000000e+00 0.0000000000000000e+00  -9.8081638810042039e-06 -5.3142963291014011e-07 0.0000000000000000e+00  -1.9961511384016358e-05 -1.0762108968262471e-06 0.0000000000000000e+00  -3.0819122961911023e-05 -1.6474641310505716e-06 0.0000000000000000e+00  -4.2758361082510442e-05 -2.2571305599244166e-06 0.0000000000000000e+00  -5.6183708435225638e-05 -2.9149648470909321e-06 0.0000000000000000e+00  -7.1534683518103455e-05 -3.6269443376993152e-06 0.0000000000000000e+00  -8.9292067249748167e-05 -4.3928014239941383e-06 0.0000000000000000e+00  -1.0998107024150761e-04 -5.2023182380471870e-06 0.0000000000000000e+00  -1.3416887831802006e-04 -6.0299928152460586e-06 0.0000000000000000e+00  -1.6245141512120649e-04 -6.8277971616828444e-06 0.0000000000000000e+00  -1.9541799905135112e-04 -7.5162377596476994e-06 0.0000000000000000e+00  -2.3356731631499637e-04 -7.9752920697726512e-06 0.0000000000000000e+00  -2.7711066664989149e-04 -8.0399396335247055e-06 0.0000000000000000e+00  -3.2551320097413239e-04 -7.5112641697625460e-06 0.0000000000000000e+00  -3.7646799875878142e-04 -6.2048688117880406e-06 0.0000000000000000e+00  -4.2389276244468105e-04 -4.0817353271634708e-06 0.0000000000000000e+00  0.0000000000000000e+00 0.0000000000000000e+00 0.0000000000000000e+00  -1.1583546527141361e-05 -6.3936629218895948e-07 0.0000000000000000e+00  -2.3581533896049871e-05 -1.2966251192828116e-06 0.0000000000000000e+00  -3.6424831511634621e-05 -1.9896508397452914e-06 0.0000000000000000e+00  -5.0568089594159614e-05 -2.7355493631950022e-06 0.0000000000000000e+00  -6.6501468519040722e-05 -3.5498454510388637e-06 0.0000000000000000e+00  -8.4761510122561905e-05 -4.4450424550578534e-06 0.0000000000000000e+00  -1.0594016932532049e-04 -5.4281853515566360e-06 0.0000000000000000e+00  -1.3069005965577645e-04 -6.4969061492188502e-06 0.0000000000000000e+00  -1.5972209691165630e-04 -7.6332475740907393e-06 0.0000000000000000e+00  -1.9378803011215116e-04 -8.7944099702003500e-06 0.0000000000000000e+00  -2.3363298859663574e-04 -9.8996341045756742e-06 0.0000000000000000e+00  -2.7988877094159892e-04 -1.0813157962467489e-05 0.0000000000000000e+00  -3.3285218552926016e-04 -1.1325425001873754e-05 0.0000000000000000e+00  -3.9205199721490720e-04 -1.1139760903004886e-05 0.0000000000000000e+00  -4.5547428981896129e-04 -9.8805386227033679e-06 0.0000000000000000e+00  -5.1839619640292904e-04 -7.1488128664344897e-06 0.0000000000000000e+00  0.0000000000000000e+00 0.0000000000000000e+00 0.0000000000000000e+00  -1.2936504704892706e-05 -7.2893487211093103e-07 0.0000000000000000e+00  -2.6344772303303595e-05 -1.4805990520175304e-06 0.0000000000000000e+00  -4.0714973237604192e-05 -2.2780424584500965e-06 0.0000000000000000e+00  -5.6566934199333424e-05 -3.1443155587476188e-06 0.0000000000000000e+00  -7.4465249746998485e-05 -4.1021081726413959e-06 0.0000000000000000e+00  -9.5034153574275338e-05 -5.1728202386251990e-06 0.0000000000000000e+00  -1.1897144361219926e-04 -6.3746609823266738e-06 0.0000000000000000e+00  -1.4705988075071320e-04 -7.7191207937769603e-06 0.0000000000000000e+00  -1.8017282112863916e-04 -9.2047566256316283e-06 0.0000000000000000e+00  -2.1926771604306245e-04 -1.0806630818644763e-05 0.0000000000000000e+00  -2.6535537606183559e-04 -1.2458963934434471e-05 0.0000000000000000e+00  -3.1942297699990809e-04 -1.4027857898198242e-05 0.0000000000000000e+00  -3.8227373909059816e-04 -1.5271157757966887e-05 0.0000000000000000e+00  -4.5422999173178486e-04 -1.5785541425627007e-05 0.0000000000000000e+00  -5.3464905976194474e-04 -1.4949509605534246e-05 0.0000000000000000e+00  -6.2127512830725947e-04 -1.1885823075184923e-05 0.0000000000000000e+00  0.0000000000000000e+00 0.0000000000000000e+00 0.0000000000000000e+00  -1.3810491272354482e-05 -7.9531368362720409e-07 0.0000000000000000e+00  -2.8135210863461350e-05 -1.6181137334701871e-06 0.0000000000000000e+00  -4.3508100043331181e-05 -2.4966404311072562e-06 0.0000000000000000e+00  -6.0498598577656648e-05 -3.4602061888562405e-06 0.0000000000000000e+00  -7.9730382901573238e-05 -4.5395307006588319e-06 0.0000000000000000e+00  -1.0190097889688470e-04 -5.7667106827027669e-06 0.0000000000000000e+00  -1.2780226333276428e-04 -7.1744827897842583e-06 0.0000000000000000e+00  -1.5834146074801089e-04 -8.7941303141964700e-06 0.0000000000000000e+00  -1.9456145297224521e-04 -1.0650800964916745e-05 0.0000000000000000e+00  -2.3765770110306762e-04 -1.2753931245272405e-05 0.0000000000000000e+00  -2.8898624228808546e-04 -1.5078608958419076e-05 0.0000000000000000e+00  -3.5005226410969760e-04 -1.7530782982338094e-05 0.0000000000000000e+00  -4.2246139361384091e-04 -1.9885554292789690e-05 0.0000000000000000e+00  -5.0780928936996724e-04 -2.1685570840053788e-05 0.0000000000000000e+00  -6.0749338458978533e-04 -2.2091557319654845e-05 0.0000000000000000e+00  -7.2248478634080629e-04 -1.9695205749018971e-05 0.0000000000000000e+00  0.0000000000000000e+00 0.0000000000000000e+00 0.0000000000000000e+00  -1.4164494331646030e-05 -8.3380154218074174e-07 0.0000000000000000e+00  -2.8867915758680380e-05 -1.6992539442723279e-06 0.0000000000000000e+00  -4.4669404906724220e-05 -2.6292298314195668e-06 0.0000000000000000e+00  -6.2168738653310804e-05 -3.6589126471761694e-06 0.0000000000000000e+00  -8.2028446213823210e-05 -4.8269967994797244e-06 0.0000000000000000e+00  -1.0499815483869621e-04 -6.1768736953896208e-06 0.0000000000000000e+00  -1.3194212595808461e-04 -7.7576629486713576e-06 0.0000000000000000e+00  -1.6387120672125646e-04 -9.6247015299765132e-06 0.0000000000000000e+00  -2.0198086991808336e-04 -1.1838538325139474e-05 0.0000000000000000e+00  -2.4769772030263981e-04 -1.4460223924109726e-05 0.0000000000000000e+00  -3.0273779292598336e-04 -1.7538000570526726e-05 0.0000000000000000e+00  -3.6918082349168341e-04 -2.1075112265039269e-05 0.0000000000000000e+00  -4.4956458404212587e-04 -2.4958751908164052e-05 0.0000000000000000e+00  -5.4700267630562499e-04 -2.8816086121032621e-05 0.0000000000000000e+00  -6.6533954290689276e-04 -3.1752634401040899e-05 0.0000000000000000e+00  -8.0942126667866467e-04 -3.1947213594435200e-05 0.0000000000000000e+00  0.0000000000000000e+00 0.0000000000000000e+00 0.0000000000000000e+00  -1.3975756868605479e-05 -8.4032688667796606e-07 0.0000000000000000e+00  -2.8494787869879592e-05 -1.7152915318381230e-06 0.0000000000000000e+00  -4.4120180553086714e-05 -2.6611729393867508e-06 0.0000000000000000e+00  -6.1459290551142535e-05 -3.7177570588136328e-06 0.0000000000000000e+00  -8.1188370635409173e-05 -4.9304194280118551e-06 0.0000000000000000e+00  -1.0408065782567800e-04 -6.3526350240839536e-06 0.0000000000000000e+00  -1.3103974537264626e-04 -8.0491013329109500e-06 0.0000000000000000e+00  -1.6314097861748128e-04 -1.0099635701764874e-05 0.0000000000000000e+00  -2.0168532018548360e-04 -1.2603798819940592e-05 0.0000000000000000e+00  -2.4827328262982826e-04 -1.5685419992149792e-05 0.0000000000000000e+00  -3.0491215229731030e-04 -1.9493866109939327e-05 0.0000000000000000e+00  -3.7417901922377712e-04 -2.4192622637362951e-05 0.0000000000000000e+00  -4.5947513968916311e-04 -2.9910400361457115e-05 0.0000000000000000e+00  -5.6542009605681394e-04 -3.6596716964549003e-05 0.0000000000000000e+00  -6.9844994014068684e-04 -4.3665191142283902e-05 0.0000000000000000e+00  -8.6782903101212633e-04 -4.9233385438385887e-05 0.0000000000000000e+00  0.0000000000000000e+00 0.0000000000000000e+00 0.0000000000000000e+00  -1.3242061008762764e-05 -8.1202056676679508e-07 0.0000000000000000e+00  -2.7009507512012242e-05 -1.6599273588813125e-06 0.0000000000000000e+00  -4.1846226211867115e-05 -2.5815303227003335e-06 0.0000000000000000e+00  -5.8341753321870225e-05 -3.6190536927028048e-06 0.0000000000000000e+00  -7.7156984795978033e-05 -4.8219136571934626e-06 0.0000000000000000e+00  -9.9054096481698055e-05 -6.2503237604813975e-06 0.0000000000000000e+00  -1.2493297993426369e-04 -7.9802669392574397e-06 0.0000000000000000e+00  -1.5587777560629773e-04 -1.0110682544768095e-05 0.0000000000000000e+00  -1.9321960477525796e-04 -1.2774187156325758e-05 0.0000000000000000e+00  -2.3862669038254527e-04 -1.6153200766692038e-05 0.0000000000000000e+00  -2.9424345182411612e-04 -2.0503417559627869e-05 0.0000000000000000e+00  -3.6292113501956014e-04 -2.6183905311466102e-05 0.0000000000000000e+00  -4.4862208987083270e-04 -3.3680455377084493e-05 0.0000000000000000e+00  -5.5713816233365562e-04 -4.3565920686745180e-05 0.0000000000000000e+00  -6.9727861606467059e-04 -5.6229633633346841e-05 0.0000000000000000e+00  -8.8255248003384860e-04 -7.0941878042052027e-05 0.0000000000000000e+00  0.0000000000000000e+00 0.0000000000000000e+00 0.0000000000000000e+00  -1.1983238338217691e-05 -7.4775600132676680e-07 0.0000000000000000e+00  -2.4450914209872079e-05 -1.5304816574817805e-06 0.0000000000000000e+00  -3.7903840874824204e-05 -2.3851477064526454e-06 0.0000000000000000e+00  -5.2887103093562519e-05 -3.3535435822154514e-06 0.0000000000000000e+00  -7.0015062796203485e-05 -4.4853656053386920e-06 0.0000000000000000e+00  -9.0000644937947020e-05 -5.8423273007953227e-06 0.0000000000000000e+00  -1.1369110695270122e-04 -7.5040324986340071e-06 0.0000000000000000e+00  -1.4211362451224088e-04 -9.5769325473578326e-06 0.0000000000000000e+00  -1.7653638272665189e-04 -1.2208847597122591e-05 0.0000000000000000e+00  -2.1855614260427359e-04 -1.5613794386115344e-05 0.0000000000000000e+00  -2.7023581510777757e-04 -2.0116028077454331e-05 0.0000000000000000e+00  -3.3434678522032942e-04 -2.6228841332827449e-05 0.0000000000000000e+00  -4.1484975230308404e-04 -3.4789966963486368e-05 0.0000000000000000e+00  -5.1793862803772015e-04 -4.7160254243718725e-05 0.0000000000000000e+00  -6.5428744147437445e-04 -6.5366951403882350e-05 0.0000000000000000e+00  -8.4239294813719589e-04 -9.2342920811510013e-05 0.0000000000000000e+00  0.0000000000000000e+00 0.0000000000000000e+00 0.0000000000000000e+00  -1.0241611318354261e-05 -6.4854967390147768e-07 0.0000000000000000e+00  -2.0904153056895600e-05 -1.3287894267052295e-06 0.0000000000000000e+00  -3.2422185378555824e-05 -2.0742606089266600e-06 0.0000000000000000e+00  -4.5270236662114919e-05 -2.9231200625436225e-06 0.0000000000000000e+00  -5.9985271486114564e-05 -3.9210530845977081e-06 0.0000000000000000e+00  -7.7192855194786408e-05 -5.1250853773155029e-06 0.0000000000000000e+00  -9.7638562665267341e-05 -6.6089154017235235e-06 0.0000000000000000e+00  -1.2222660049930766e-04 -8.4709220427613935e-06 0.0000000000000000e+00  -1.5206854306449850e-04 -1.0847254561851673e-05 0.0000000000000000e+00  -1.8854768982648270e-04 -1.3935433128449107e-05 0.0000000000000000e+00  -2.3341276883261357e-04 -1.8041196528428431e-05 0.0000000000000000e+00  -2.8894177735395635e-04 -2.3678653543877117e-05 0.0000000000000000e+00  -3.5830861842183924e-04 -3.1793096218804570e-05 0.0000000000000000e+00  -4.4661101831404621e-04 -4.4254606698499389e-05 0.0000000000000000e+00  -5.6423049091455996e-04 -6.4781493094116918e-05 0.0000000000000000e+00  -7.3751084694626879e-04 -9.6847218147473816e-05 0.0000000000000000e+00  0.0000000000000000e+00 0.0000000000000000e+00 0.0000000000000000e+00  -8.0811829871839917e-06 -5.1773346729969942e-07 0.0000000000000000e+00  -1.6499170430122884e-05 -1.0615928074627339e-06 0.0000000000000000e+00  -2.5601257614746034e-05 -1.6592120583572360e-06 0.0000000000000000e+00  -3.5767657115148920e-05 -2.3420796189764553e-06 0.0000000000000000e+00  -4.7429835090623357e-05 -3.1478527712820190e-06 0.0000000000000000e+00  -6.1091561462692340e-05 -4.1231765260543545e-06 0.0000000000000000e+00  -7.7353305651987108e-05 -5.3271774800756943e-06 0.0000000000000000e+00  -9.6940028611347331e-05 -6.8358254316897028e-06 0.0000000000000000e+00  -1.2073108048389461e-04 -8.7475617781238514e-06 0.0000000000000000e+00  -1.4978841105660516e-04 -1.1191695723308970e-05 0.0000000000000000e+00  -1.8537614088618153e-04 -1.4345697866906716e-05 0.0000000000000000e+00  -2.2896635104404362e-04 -1.8484629483277737e-05 0.0000000000000000e+00  -2.8226103526746252e-04 -2.4145471879535575e-05 0.0000000000000000e+00  -3.4745866590590201e-04 -3.2703573755489600e-05 0.0000000000000000e+00  -4.2902782754096052e-04 -4.8633491775440120e-05 0.0000000000000000e+00  -5.4546248349029655e-04 -9.2841419821191646e-05 0.0000000000000000e+00  0.0000000000000000e+00 0.0000000000000000e+00 0.0000000000000000e+00  -5.5855363666844358e-06 -3.6085850447558665e-07 0.0000000000000000e+00  -1.1406471975555749e-05 -7.4033311250262466e-07 0.0000000000000000e+00  -1.7705347171604281e-05 -1.1580842117216695e-06 0.0000000000000000e+00  -2.4748244463946449e-05 -1.6364838906645686e-06 0.0000000000000000e+00  -3.2837790125306929e-05 -2.2021199403385197e-06 0.0000000000000000e+00  -4.2327837082126403e-05 -2.8873731759386856e-06 0.0000000000000000e+00  -5.3639739480137883e-05 -3.7317319930325389e-06 0.0000000000000000e+00  -6.7278812260692140e-05 -4.7818130184526503e-06 0.0000000000000000e+00  -8.3846317130116164e-05 -6.0873969220150314e-06 0.0000000000000000e+00  -1.0403484566918733e-04 -7.6870353992649989e-06 0.0000000000000000e+00  -1.2857930886772681e-04 -9.5689764664015200e-06 0.0000000000000000e+00  -1.5810829127422586e-04 -1.1579307618032056e-05 0.0000000000000000e+00  -1.9281386644208844e-04 -1.3233193006149872e-05 0.0000000000000000e+00  -2.3192704979582089e-04 -1.3399918114826527e-05 0.0000000000000000e+00  -2.7356515119935818e-04 -1.0051745440151229e-05 0.0000000000000000e+00  -3.1846039439631152e-04 -1.7540707475258130e-06 0.0000000000000000e+00  0.0000000000000000e+00 0.0000000000000000e+00 0.0000000000000000e+00  -2.8545351361788920e-06 -1.8535240224357330e-07 0.0000000000000000e+00  -5.8303539920194632e-06 -3.8039779588635649e-07 0.0000000000000000e+00  -9.0523958403632434e-06 -5.9535976287718498e-07 0.0000000000000000e+00  -1.2657978858371013e-05 -8.4185038987544229e-07 0.0000000000000000e+00  -1.6803621025039375e-05 -1.1335800042406545e-06 0.0000000000000000e+00  -2.1672676593597726e-05 -1.4869573844721344e-06 0.0000000000000000e+00  -2.7483521582209163e-05 -1.9211394337037992e-06 0.0000000000000000e+00  -3.4496834407223528e-05 -2.4562357313843103e-06 0.0000000000000000e+00  -4.3017236470679198e-05 -3.1060618940223649e-06 0.0000000000000000e+00  -5.3375556405126803e-05 -3.8555653072480405e-06 0.0000000000000000e+00  -6.5853251535046502e-05 -4.5962141055273644e-06 0.0000000000000000e+00  -8.0443708994103866e-05 -4.9497657891879836e-06 0.0000000000000000e+00  -9.6180888983468020e-05 -3.8201031741407751e-06 0.0000000000000000e+00  -1.0949922622016068e-04 1.5540741080131281e-06 0.0000000000000000e+00  -1.1160031097127083e-04 1.6512056187402825e-05 0.0000000000000000e+00  -9.0979888921914211e-05 4.4884839758620733e-05 0.0000000000000000e+00  0.0000000000000000e+00 0.0000000000000000e+00 0.0000000000000000e+00  0.0000000000000000e+00 0.0000000000000000e+00 0.0000000000000000e+00  0.0000000000000000e+00 0.0000000000000000e+00 0.0000000000000000e+00  0.0000000000000000e+00 0.0000000000000000e+00 0.0000000000000000e+00  0.0000000000000000e+00 0.0000000000000000e+00 0.0000000000000000e+00  0.0000000000000000e+00 0.00