<?xml version="1.0"?>
<VTKFile type="UnstructuredGrid"  version="0.1"  >
<UnstructuredGrid>
<Piece  NumberOfPoints="289" NumberOfCells="512">
<Points>
<DataArray  type="Float64"  NumberOfComponents="3"  format="ascii">0 0 0  0.0625 0 0  0.125 0 0  0.1875 0 0  0.25 0 0  0.3125 0 0  0.375 0 0  0.4375 0 0  0.5 0 0  0.5625 0 0  0.625 0 0  0.6875 0 0  0.75 0 0  0.8125 0 0  0.875 0 0  0.9375 0 0  1 0 0  0 0.0625 0  0.06250565832113357 0.06247095840495119 0  0.1250124807107348 0.06244140831756943 0  0.1875217617397995 0.06241087869606229 0  0.250035142660229 0.06237900631432707 0  0.3125548372479158 0.06234560453875438 0  0.3750839325449246 0.06231074807083804 0  0.4376268131303659 0.06227487308827095 0  0.5001897956376453 0.06223888349710833 0  0.5627821491149564 0.06220423762147419 0  0.6254178968234144 0.06217296003182912 0  0.688119373048361 0.06214746930861885 0  0.7509251207026422 0.06213000523356958 0  0.8139094837408108 0.06212117836392884 0  0.8772361429477999 0.06211636207206474 0  0.9413169691491688 0.06209577939550318 0  1.007323245631591 0.06199479974741803 0  0 0.125 0  0.06251013662661893 0.124942398018568 0  0.1250224539850986 0.1248837239629699 0  0.1875393842064426 0.1248229752336688 0  0.2500640278096332 0.1247593529139212 0  0.3126005905360539 0.1246923960762734 0  0.3751549640330479 0.1246221530287919 0  0.4377355356189644 0.1245493931109961 0  0.500354365656777 0.1244758485400787 0  0.5630289820370149 0.1244044484481187 0  0.6257852787908289 0.1243394586783383 0  0.6886625146099162 0.1242863631758548 0  0.7517224462318277 0.1242512211121053 0  0.8150664374349368 0.1242391890158391 0  0.8788658601230132 0.1242523513110858 0  0.9434027578699303 0.1242900170617089 0  1.009050714980808 0.1243686531346752 0  0 0.1875 0  0.06251247875907467 0.1874148964603397 0  0.1250278545028185 0.1873280573893394 0  0.1875493700636044 0.1872378371616769 0  0.2500811913234244 0.1871428633283303 0  0.3126290124121477 0.1870422269161209 0  0.3752008577069623 0.1869357380850866 0  0.4378081825836023 0.1868242630358128 0  0.5004674152099516 0.1867101445619934 0  0.5632021461821421 0.1865976784742878 0  0.6260462689020941 0.1864935582980639 0  0.689048479504503 0.1864070914957429 0  0.7522784910670246 0.1863498001321679 0  0.8158343806754741 0.1863336713045461 0  0.8798462877476836 0.1863665123480756 0  0.9444582523608694 0.1864401059347706 0  1.009740328050409 0.1864951099240834 0  0 0.25 0  0.06251203247290613 0.2498891295138772 0  0.1250272568100178 0.249775729118197 0  0.1875492649514365 0.2496573604776824 0  0.2500827246643261 0.249531883980643 0  0.3126340915405013 0.2493976850253588 0  0.375212556241758 0.2492540001835052 0  0.4378313357896169 0.249101380795996 0  0.5005094370327294 0.2489423273153007 0  0.5632740254472539 0.2487821081032371 0  0.6261634826921468 0.2486297242442115 0  0.6892310244837476 0.248498867283422 0  0.7525481063829177 0.2484084895789367 0  0.8162051589254455 0.2483821873972799 0  0.8803033900345079 0.2484448868592022 0  0.9449248319873272 0.248614465002789 0  1.010063552306583 0.2488872749648432 0  0 0.3125 0  0.06250855371857768 0.3123659002929358 0  0.1250201007985021 0.3122283365123225 0  0.1875380387380316 0.3120839115792487 0  0.2500668653640636 0.3119294893499246 0  0.3126129235712916 0.3117624222452403 0  0.3751854112375927 0.311580912968534 0  0.4377977778649711 0.3113845767602603 0  0.5004696431301595 0.3111752857345769 0  0.5632293540950667 0.3109583856057137 0  0.6261171898623499 0.3107443596004466 0  0.689188908170891 0.3105509365705519 0  0.7525186014809165 0.3104054285767595 0  0.8161984223941928 0.3103466243087824 0  0.8803306395371384 0.3104247454747233 0  0.945006177087648 0.3106968917155064 0  1.010269185537246 0.3112148039577359 0  0 0.375 0  0.06250226196332262 0.3748461460729725 0  0.1250068152272444 0.3746877762142867 0  0.1875163028792835 0.3745203845979669 0  0.2500343460523579 0.3743396080767784 0  0.3125662359710055 0.3741414040336577 0  0.3751199128140356 0.3739223846087638 0  0.437707380247678 0.3736804030988026 0  0.5003467412187154 0.3734155314697682 0  0.5630650578994929 0.3731316241732981 0  0.6259021851445083 0.372838722138438 0  0.6889155018025522 0.3725565742358194 0  0.7521849137556069 0.3723194443205929 0  0.8158165063028158 0.3721819294003595 0  0.8799420605188769 0.3722244364056415 0  0.9447119010220015 0.3725550695486982 0  1.010284228633078 0.3733025055322859 0  0 0.4375 0  0.06249383822530025 0.4373309144146701 0  0.1249888221143075 0.4371562035390874 0  0.1874863383573027 0.4369701609678266 0  0.2499884738278407 0.4367670159631163 0  0.3124985569393926 0.4365409970554994 0  0.375021987161085 0.436286547395558 0  0.4375675377181817 0.4359988057580717 0  0.5001494057536959 0.4356745407780878 0  0.5627903998471067 0.4353138429311975 0  0.6255267723494253 0.4349230510087185 0  0.6884152483430991 0.4345196076308796 0  0.7515426136320528 0.4341397122523236 0  0.8150375760325345 0.4338494751569382 0  0.8790835084848884 0.4337591131042988 0  0.9439303321080611 0.4340367171819005 0  1.009908423372859 0.4349136786895743 0  0 0.5 0  0.06248436155180394 0.4998213020064411 0  0.1249684120731487 0.4996359127098707 0  0.1874519168749161 0.4994369390149016 0  0.249934915690764 0.4992171360001925 0  0.3124180060598294 0.4989687886645453 0  0.3749028723030429 0.4986837000380401 0  0.4373932684888735 0.4983533916182053 0  0.4998968212921336 0.497969716056427 0  0.5624282807113371 0.4975262532203935 0  0.625015250866648 0.4970211637859028 0  0.6877079771786828 0.4964626810790808 0  0.7505952981171227 0.4958791659043688 0  0.8138288915687087 0.4953364015365517 0  0.8776565697606289 0.4949644738249576 0  0.9424626328280176 0.494992457796229 0  1.008815418409353 0.4957786157046132 0  0 0.5625 0  0.06247518403262614 0.5623183542940259 0  0.1249484877852565 0.5621291308128911 0  0.1874179032972132 0.5619244136372555 0  0.2498811581651933 0.5616955980149595 0  0.3123356391108681 0.5614330371174281 0  0.3747784483659274 0.5611257033876598 0  0.4372067781032159 0.5607609239648026 0  0.4996189986333071 0.5603243361314565 0  0.562017267867937 0.5598003915397946 0  0.6244132368515504 0.5591741219980456 0  0.686839748847189 0.5584356738504007 0  0.7493733997818636 0.5575906902156481 0  0.8121748710120328 0.5566823819141504 0  0.8755535852326236 0.5558344486174378 0  0.9400559015614501 0.5553223655286935 0  1.006564052400352 0.5556611572204867 0  0 0.625 0  0.06246775075843127 0.6248229316403572 0  0.124932184494178 0.6246377346327024 0  0.1873896409080366 0.6244358126790251 0  0.2498356145911134 0.6242075487507784 0  0.3122642518464365 0.6239417000611218 0  0.374667785036121 0.6236246796793476 0  0.4370359865033739 0.6232396981842869 0  0.499355924930293 0.6227657763240345 0  0.5616127802435362 0.622176751006115 0  0.6237935325550266 0.6214407039186227 0  0.6858975782780216 0.6205210653067839 0  0.7479626617272828 0.6193828172094934 0  0.8101215818858338 0.6180127356403053 0  0.8727118750776166 0.6164748766317824 0  0.9364517998980761 0.6150377516717767 0  1.002663057165578 0.6143801897953405 0  0 0.6875 0  0.0624633806979769 0.687335557483745 0  0.1249223967679794 0.6871629214105273 0  0.1873721535493782 0.6869733358180149 0  0.2498063966139436 0.6867567680866543 0  0.3122165893344181 0.6865010905213402 0  0.3745906720250647 0.6861910140152259 0  0.4369113915022345 0.6858066405969298 0  0.4991541720885392 0.6853214547900693 0  0.5612848200570253 0.6846995230748554 0  0.6232583346555046 0.6838916695618187 0  0.6850227845268063 0.682830670847543 0  0.7465390164019198 0.6814269577856908 0  0.8078427132339002 0.6795723560339537 0  0.8692048294605463 0.6771827149642492 0  0.9314581279278735 0.6743874745621025 0  0.9964314566465956 0.6719997894119959 0  0 0.75 0  0.06246303689024851 0.749856273378258 0  0.1249212699726608 0.749704886993823 0  0.1873692536184327 0.7495375854703074 0  0.2497998606883038 0.7493447275232363 0  0.3122030566340711 0.7491143536303863 0  0.3745641069646481 0.7488309073498607 0  0.4368608650822401 0.7484733888614946 0  0.4990596392465664 0.7480125885125848 0  0.5611090180652665 0.747406813813476 0  0.6229312399798249 0.746595093427779 0  0.6844122851257191 0.7454860562665256 0  0.7453983257738326 0.743939425791193 0  0.8057283727298035 0.7417364355457879 0  0.8654034480888135 0.7385460867071141 0  0.925183712860722 0.7339992159269958 0  0.9873904271248507 0.7289300659185486 0  0 0.8125 0  0.06246712660336226 0.8123845315402901 0  0.1249297464052398 0.8122625799132727 0  0.1873827120443045 0.8121271123919331 0  0.2498191747698012 0.8119697968429376 0  0.3122292829119466 0.8117801013809564 0  0.3745981758034063 0.8115440238492854 0  0.4369027322485917 0.8112422008855971 0  0.4991061313932023 0.8108469837223684 0  0.5611485676253212 0.8103177599579866 0  0.6229312672576728 0.8095931686536864 0  0.6842893424056666 0.8085774086333171 0  0.7449486040459087 0.807114151877269 0  0.8044714791256502 0.8049315858089136 0  0.8622624408806884 0.8015152709653059 0  0.9180677456912654 0.7957983150585919 0  0.976455452833445 0.785337425972284 0  0 0.875 0  0.06247537853724665 0.8749191543200833 0  0.124947275929796 0.8748335993200639 0  0.1874116982358604 0.8747382035792859 0  0.2498632761322568 0.8746268276119648 0  0.3122941802134154 0.8744916138061902 0  0.374692392777365 0.8743219708619162 0  0.4370387838651429 0.8741030476791812 0  0.4993019335741622 0.8738133702533466 0  0.5614285801435983 0.8734211143249778 0  0.6233252864210804 0.8728781460272881 0  0.684821918607477 0.8721102807518651 0  0.7455966824442255 0.8710002008384771 0  0.8050202153240149 0.8693510743883546 0  0.8618385643457919 0.8667806513361146 0  0.9135925558917973 0.8623350657437995 0  0.9558780997672399 0.8530343819969454 0  0 0.9375 0  0.06248683815516805 0.9374583803047852 0  0.1249717915755316 0.9374142838225289 0  0.1874526946870324 0.937365004934994 0  0.2499266234910068 0.9373072885283867 0  0.3123892892641461 0.9372369400289071 0  0.3748340574151016 0.937148265285188 0  0.4372502523504009 0.937
[...]
<PointData  Vectors="f_54"> 
<DataArray  type="Float64"  Name="f_54"  NumberOfComponents="3" format="ascii">0.0000000000000000e+00 0.0000000000000000e+00 0.0000000000000000e+00  0.0000000000000000e+00 0.0000000000000000e+00 0.0000000000000000e+00  0.0000000000000000e+00 0.0000000000000000e+00 0.0000000000000000e+00  0.0000000000000000e+00 0.0000000000000000e+00 0.0000000000000000e+00  0.0000000000000000e+00 0.0000000000000000e+00 0.0000000000000000e+00  0.0000000000000000e+00 0.0000000000000000e+00 0.0000000000000000e+00  0.0000000000000000e+00 0.0000000000000000e+00 0.0000000000000000e+00  0.0000000000000000e+00 0.0000000000000000e+00 0.0000000000000000e+00  0.0000000000000000e+00 0.0000000000000000e+00 0.0000000000000000e+00  0.0000000000000000e+00 0.0000000000000000e+00 0.0000000000000000e+00  0.0000000000000000e+00 0.0000000000000000e+00 0.0000000000000000e+00  0.0000000000000000e+00 0.0000000000000000e+00 0.0000000000000000e+00  0.0000000000000000e+00 0.0000000000000000e+00 0.0000000000000000e+00  0.0000000000000000e+00 0.0000000000000000e+00 0.0000000000000000e+00  0.0000000000000000e+00 0.0000000000000000e+00 0.0000000000000000e+00  0.0000000000000000e+00 0.0000000000000000e+00 0.0000000000000000e+00  0.0000000000000000e+00 0.0000000000000000e+00 0.0000000000000000e+00  0.0000000000000000e+00 0.0000000000000000e+00 0.0000000000000000e+00  -3.8270598250896182e-06 -2.3363131440798285e-07 0.0000000000000000e+00  -7.7698139954317833e-06 -4.6993165453598613e-07 0.0000000000000000e+00  -1.1948139865055540e-05 -7.1109627621577794e-07 0.0000000000000000e+00  -1.6483360785618752e-05 -9.5786026231353054e-07 0.0000000000000000e+00  -2.1498459065769322e-05 -1.2085371425546484e-06 0.0000000000000000e+00  -2.7117549679979368e-05 -1.4577724220992915e-06 0.0000000000000000e+00  -3.3464632559272801e-05 -1.6949250008501427e-06 0.0000000000000000e+00  -4.0662236799147122e-05 -1.9019931423004551e-06 0.0000000000000000e+00  -4.8832191640788317e-05 -2.0509541986100666e-06 0.0000000000000000e+00  -5.8105206505536006e-05 -2.1000917613262471e-06 0.0000000000000000e+00  -6.8658659419385353e-05 -1.9876233968120441e-06 0.0000000000000000e+00  -8.0840677944891596e-05 -1.6161379026282682e-06 0.0000000000000000e+00  -9.5565029835319854e-05 -8.0340136292145630e-07 0.0000000000000000e+00  -1.1560834162926471e-04 8.9398839132969991e-07 0.0000000000000000e+00  -1.5018906773014407e-04 4.8642207185743857e-06 0.0000000000000000e+00  -2.3346043596957509e-04 1.6431743515195638e-05 0.0000000000000000e+00  0.0000000000000000e+00 0.0000000000000000e+00 0.0000000000000000e+00  -7.5355812333584401e-06 -4.6441462916185240e-07 0.0000000000000000e+00  -1.5302118332824730e-05 -9.3486467556363543e-07 0.0000000000000000e+00  -2.3538897759153392e-05 -1.4165195947396519e-06 0.0000000000000000e+00  -3.2488811235181439e-05 -1.9118194315024065e-06 0.0000000000000000e+00  -4.2399105880683092e-05 -2.4186426636807031e-06 0.0000000000000000e+00  -5.3520518103991922e-05 -2.9278899867549239e-06 0.0000000000000000e+00  -6.6104484377602362e-05 -3.4203040618880153e-06 0.0000000000000000e+00  -8.0398701844635752e-05 -3.8623910212147322e-06 0.0000000000000000e+00  -9.6642826094527041e-05 -4.2013919937736445e-06 0.0000000000000000e+00  -1.1506974908733161e-04 -4.3593378635402941e-06 0.0000000000000000e+00  -1.3592625788796023e-04 -4.2261894575342199e-06 0.0000000000000000e+00  -1.5954449336106233e-04 -3.6518607013088640e-06 0.0000000000000000e+00  -1.8652505214527453e-04 -2.4382885562111670e-06 0.0000000000000000e+00  -2.1809490076723573e-04 -3.5078477908780555e-07 0.0000000000000000e+00  -2.5633752043832106e-04 2.7000781145642834e-06 0.0000000000000000e+00  -3.0094822104873557e-04 5.3126339583027638e-06 0.0000000000000000e+00  0.0000000000000000e+00 0.0000000000000000e+00 0.0000000000000000e+00  -1.1007055644535478e-05 -6.8876649652948568e-07 0.0000000000000000e+00  -2.2358859243940239e-05 -1.3882221217510080e-06 0.0000000000000000e+00  -3.4412514792822101e-05 -2.1079585148201240e-06 0.0000000000000000e+00  -4.7532176459974513e-05 -2.8539533624449072e-06 0.0000000000000000e+00  -6.2090965572337821e-05 -3.6260580774997606e-06 0.0000000000000000e+00  -7.8470277215924504e-05 -4.4145784094086468e-06 0.0000000000000000e+00  -9.7055492334122118e-05 -5.1956350246547851e-06 0.0000000000000000e+00  -1.1822713789739731e-04 -5.9250624028265441e-06 0.0000000000000000e+00  -1.4234673020759378e-04 -6.5308338596236283e-06 0.0000000000000000e+00  -1.6973676880555809e-04 -6.9045633351243525e-06 0.0000000000000000e+00  -2.0065347403282199e-04 -6.8939039322926199e-06 0.0000000000000000e+00  -2.3524365354462654e-04 -6.3005707103171606e-06 0.0000000000000000e+00  -2.7344380874511255e-04 -4.8958405020441189e-06 0.0000000000000000e+00  -3.1465420662893514e-04 -2.4832087134871947e-06 0.0000000000000000e+00  -3.5661516133540935e-04 9.2710050551816501e-07 0.0000000000000000e+00  -3.9190221166414781e-04 4.8031543469476361e-06 0.0000000000000000e+00  0.0000000000000000e+00 0.0000000000000000e+00 0.0000000000000000e+00  -1.4125156068160327e-05 -9.0183935058875461e-07 0.0000000000000000e+00  -2.8705667870094915e-05 -1.8207064557393893e-06 0.0000000000000000e+00  -4.4213097435419330e-05 -2.7725352318436068e-06 0.0000000000000000e+00  -6.1131352492704589e-05 -3.7693430420417102e-06 0.0000000000000000e+00  -7.9960814938154977e-05 -4.8163471637880820e-06 0.0000000000000000e+00  -1.0121899919463417e-04 -5.9078369853381095e-06 0.0000000000000000e+00  -1.2543601413142686e-04 -7.0212776956855648e-06 0.0000000000000000e+00  -1.5314248477184324e-04 -8.1091174298630796e-06 0.0000000000000000e+00  -1.8484649877578826e-04 -9.0879571902341682e-06 0.0000000000000000e+00  -2.2099378861342522e-04 -9.8254070768934273e-06 0.0000000000000000e+00  -2.6189948963453328e-04 -1.0126672792203360e-05 0.0000000000000000e+00  -3.0762451053004152e-04 -9.7268041293062920e-06 0.0000000000000000e+00  -3.5773103549288068e-04 -8.3025211473126393e-06 0.0000000000000000e+00  -4.1076499983102080e-04 -5.5320719168277716e-06 0.0000000000000000e+00  -4.6316671395391280e-04 -1.2517951642886511e-06 0.0000000000000000e+00  -5.0728499127198809e-04 4.2321103487774064e-06 0.0000000000000000e+00  0.0000000000000000e+00 0.0000000000000000e+00 0.0000000000000000e+00  -1.6777825716382298e-05 -1.0971471800793855e-06 0.0000000000000000e+00  -3.4115762944838140e-05 -2.2194565182023927e-06 0.0000000000000000e+00  -5.2593769855639784e-05 -3.3912967150998780e-06 0.0000000000000000e+00  -7.2811730179459951e-05 -4.6335842751089926e-06 0.0000000000000000e+00  -9.5397234808096071e-05 -5.9609796501061373e-06 0.0000000000000000e+00  -1.2100949265316997e-04 -7.3775496949247628e-06 0.0000000000000000e+00  -1.5033714156936843e-04 -8.8700911678205477e-06 0.0000000000000000e+00  -1.8408669035822024e-04 -1.0398087266774937e-05 0.0000000000000000e+00  -2.2295660981413090e-04 -1.1879116556163107e-05 0.0000000000000000e+00  -2.6758900485972524e-04 -1.3168722764716669e-05 0.0000000000000000e+00  -3.1848474820687602e-04 -1.4034905750625474e-05 0.0000000000000000e+00  -3.7585571696911491e-04 -1.4130733139872806e-05 0.0000000000000000e+00  -4.3936442752613627e-04 -1.2976060677484712e-05 0.0000000000000000e+00  -5.0766565232177171e-04 -9.9729057870738390e-06 0.0000000000000000e+00  -5.7764531964922886e-04 -4.4967913532965777e-06 0.0000000000000000e+00  -6.4338088156880747e-04 3.8865762398642778e-06 0.0000000000000000e+00  0.0000000000000000e+00 0.0000000000000000e+00 0.0000000000000000e+00  -1.8860228265118547e-05 -1.2664813330825245e-06 0.0000000000000000e+00  -3.8375650940958102e-05 -2.5677953982027329e-06 0.0000000000000000e+00  -5.9224694530525357e-05 -3.9386108634293034e-06 0.0000000000000000e+00  -8.2115711145922188e-05 -5.4115067159629067e-06 0.0000000000000000e+00  -1.0780007619108674e-04 -7.0148436247434391e-06 0.0000000000000000e+00  -1.3708172669275266e-04 -8.7689850203234435e-06 0.0000000000000000e+00  -1.7082080610528552e-04 -1.0679797004839564e-05 0.0000000000000000e+00  -2.0992788472237880e-04 -1.2727801132928383e-05 0.0000000000000000e+00  -2.5534348427577036e-04 -1.4850575479209992e-05 0.0000000000000000e+00  -3.0799509946432792e-04 -1.6915089396487313e-05 0.0000000000000000e+00  -3.6872014705481657e-04 -1.8676072031828610e-05 0.0000000000000000e+00  -4.3813769299621365e-04 -1.9717567243477726e-05 0.0000000000000000e+00  -5.1644443757162142e-04 -1.9380351604856362e-05 0.0000000000000000e+00  -6.0310582499371326e-04 -1.6692133413295926e-05 0.0000000000000000e+00  -6.9643258343868460e-04 -1.0342446196165648e-05 0.0000000000000000e+00  -7.9313457642763276e-04 1.2293165487467918e-06 0.0000000000000000e+00  0.0000000000000000e+00 0.0000000000000000e+00 0.0000000000000000e+00  -2.0278702381030014e-05 -1.4001952876416331e-06 0.0000000000000000e+00  -4.1292982595889084e-05 -2.8457470694105642e-06 0.0000000000000000e+00  -6.3804702517860699e-05 -4.3827861738609695e-06 0.0000000000000000e+00  -8.8617763447557040e-05 -6.0576241350062564e-06 0.0000000000000000e+00  -1.1659811982785789e-04 -7.9159856300912558e-06 0.0000000000000000e+00  -1.4869138800581151e-04 -1.0000805805653038e-05 0.0000000000000000e+00  -1.8593602758484970e-04 -1.2347428721204844e-05 0.0000000000000000e+00  -2.2946886372177851e-04 -1.4974163983268875e-05 0.0000000000000000e+00  -2.8051817413711656e-04 -1.7864636673971482e-05 0.0000000000000000e+00  -3.4037792462722390e-04 -2.0935879540402826e-05 0.0000000000000000e+00  -4.1035571173976846e-04 -2.3982491546235903e-05 0.0000000000000000e+00  -4.9168815895385019e-04 -2.6583154706293043e-05 0.0000000000000000e+00  -5.8542396395813527e-04 -2.7954807299134352e-05 0.0000000000000000e+00  -6.9229173625116175e-04 -2.6750234208167447e-05 0.0000000000000000e+00  -8.1260639614455759e-04 -2.0826600073224109e-05 0.0000000000000000e+00  -9.4634381496277195e-04 -7.0525528593239582e-06 0.0000000000000000e+00  0.0000000000000000e+00 0.0000000000000000e+00 0.0000000000000000e+00  -2.0955717233299118e-05 -1.4879035210558090e-06 0.0000000000000000e+00  -4.2706628064676372e-05 -3.0314416643607440e-06 0.0000000000000000e+00  -6.6076803492116519e-05 -4.6881767448014115e-06 0.0000000000000000e+00  -9.1945744884893284e-05 -6.5188440250131994e-06 0.0000000000000000e+00  -1.2127652196528822e-04 -8.5885840968635833e-06 0.0000000000000000e+00  -1.5514353468209211e-04 -1.0967406439103082e-05 0.0000000000000000e+00  -1.9475857548533447e-04 -1.3728979896515175e-05 0.0000000000000000e+00  -2.4149265058609750e-04 -1.6945859496585419e-05 0.0000000000000000e+00  -2.9688951487778353e-04 -2.0677256499466051e-05 0.0000000000000000e+00  -3.6266565859620857e-04 -2.4941494818435877e-05 0.0000000000000000e+00  -4.4069227302221282e-04 -2.9657845367849444e-05 0.0000000000000000e+00  -5.3296155185558812e-04 -3.4529817514397175e-05 0.0000000000000000e+00  -6.4156025387654468e-04 -3.8825173258334148e-05 0.0000000000000000e+00  -7.6871855866529745e-04 -4.0998618614675255e-05 0.0000000000000000e+00  -9.1707920044885175e-04 -3.8131063940846024e-05 0.0000000000000000e+00  -1.0904350729052325e-03 -2.5230880442694324e-05 0.0000000000000000e+00  0.0000000000000000e+00 0.0000000000000000e+00 0.0000000000000000e+00  -2.0835625908856634e-05 -1.5195778515126955e-06 0.0000000000000000e+00  -4.2498611194211275e-05 -3.1034058109527125e-06 0.0000000000000000e+00  -6.5847144036187987e-05 -4.8188552856431386e-06 0.0000000000000000e+00  -9.1808117790587748e-05 -6.7397610096725329e-06 0.0000000000000000e+00  -1.2141387170003613e-04 -8.9500335621761475e-06 0.0000000000000000e+00  -1.5584142238207570e-04 -1.1547598839211945e-05 0.0000000000000000e+00  -1.9645396725563444e-04 -1.4648470380709917e-05 0.0000000000000000e+00  -2.4484317831694353e-04 -1.8390109956849021e-05 0.0000000000000000e+00  -3.0286897262442162e-04 -2.2931559305191521e-05 0.0000000000000000e+00  -3.7269155621731513e-04 -2.8443667512147365e-05 0.0000000000000000e+00  -4.5679087384768670e-04 -3.5072803916673376e-05 0.0000000000000000e+00  -5.5797799095956416e-04 -4.2839128730404314e-05 0.0000000000000000e+00  -6.7943787993738573e-04 -5.1385963956733503e-05 0.0000000000000000e+00  -8.2493409565590273e-04 -5.9430121515318463e-05 0.0000000000000000e+00  -9.9948733386958418e-04 -6.3731424162753725e-05 0.0000000000000000e+00  -1.2112134700268948e-03 -5.7479150983346576e-05 0.0000000000000000e+00  0.0000000000000000e+00 0.0000000000000000e+00 0.0000000000000000e+00  -1.9890786677781010e-05 -1.4869362542814558e-06 0.0000000000000000e+00  -4.0607059000239935e-05 -3.0435412934419987e-06 0.0000000000000000e+00  -6.3006179334715426e-05 -4.7436063299597410e-06 0.0000000000000000e+00  -8.8025460570027373e-05 -6.6703489472899319e-06 0.0000000000000000e+00  -1.1672691108896714e-04 -8.9223037513366582e-06 0.0000000000000000e+00  -1.5034804906715628e-04 -1.1620821655593170e-05 0.0000000000000000e+00  -1.9036018701372963e-04 -1.4920026417469716e-05 0.0000000000000000e+00  -2.3853440675148180e-04 -1.9020276550082751e-05 0.0000000000000000e+00  -2.9701306331282449e-04 -2.4186052417716291e-05 0.0000000000000000e+00  -3.6838080278851787e-04 -3.0767531233991637e-05 0.0000000000000000e+00  -4.5572523444829805e-04 -3.9218046896372578e-05 0.0000000000000000e+00  -5.6268172883703553e-04 -5.0075679260824750e-05 0.0000000000000000e+00  -6.9349774326826600e-04 -6.3805991862057917e-05 0.0000000000000000e+00  -8.5330444032392884e-04 -8.0225740475916435e-05 0.0000000000000000e+00  -1.0491205099426360e-03 -9.6987087899839749e-05 0.0000000000000000e+00  -1.2922109758883758e-03 -1.0670568930739574e-04 0.0000000000000000e+00  0.0000000000000000e+00 0.0000000000000000e+00 0.0000000000000000e+00  -1.8127397786924135e-05 -1.3849215635999152e-06 0.0000000000000000e+00  -3.7038835702242481e-05 -2.8403660820898858e-06 0.0000000000000000e+00  -5.7550013977652026e-05 -4.4415536645977668e-06 0.0000000000000000e+00  -8.0563490997417780e-05 -6.2750798084098630e-06 0.0000000000000000e+00  -1.0711939766776119e-04 -8.4463789928558651e-06 0.0000000000000000e+00  -1.3845617718353663e-04 -1.1089816516625604e-05 0.0000000000000000e+00  -1.7608501161252480e-04 -1.4383219023363695e-05 0.0000000000000000e+00  -2.2188103951982020e-04 -1.8569909639980071e-05 0.0000000000000000e+00  -2.7819208775493989e-04 -2.3993591545118772e-05 0.0000000000000000e+00  -3.4795952797310480e-04 -3.1155157849531666e-05 0.0000000000000000e+00  -4.3483402702668573e-04 -4.0804860823231027e-05 0.0000000000000000e+00  -5.4325449535563364e-04 -5.4080254285411105e-05 0.0000000000000000e+00  -6.7847312736107695e-04 -7.2650379474348921e-05 0.0000000000000000e+00  -8.4671009991548558e-04 -9.8560643657617661e-05 0.0000000000000000e+00  -1.0566381146120693e-03 -1.3243329750839436e-04 0.0000000000000000e+00  -1.3239809339221000e-03 -1.7051363659882572e-04 0.0000000000000000e+00  0.0000000000000000e+00 0.0000000000000000e+00 0.0000000000000000e+00  -1.5590198524221108e-05 -1.2129940549524599e-06 0.0000000000000000e+00  -3.1880090308781544e-05 -2.4919030114474276e-06 0.0000000000000000e+00  -4.9599096409533959e-05 -3.9073287910832953e-06 0.0000000000000000e+00  -6.9563638874035446e-05 -5.5416560716338799e-06 0.0000000000000000e+00  -9.2730039198877828e-05 -7.4968832227983951e-06 0.0000000000000000e+00  -1.2026103675105933e-04 -9.9053709982593497e-06 0.0000000000000000e+00  -1.5361236833149653e-04 -1.2945610696620688e-05 0.0000000000000000e+00  -1.9464695810981962e-04 -1.6866876861425206e-05 0.0000000000000000e+00  -2.4578386027348560e-04 -2.2030554127905464e-05 0.0000000000000000e+00  -3.1018363713383989e-04 -2.8984859557784957e-05 0.0000000000000000e+00  -3.9195352179578069e-04 -3.8609726155947793e-05 0.0000000000000000e+00  -4.9631085523736500e-04 -5.2410645148817867e-05 0.0000000000000000e+00  -6.2956228594317307e-04 -7.3113525121405618e-05 0.0000000000000000e+00  -7.9871748543655185e-04 -1.0575152006232781e-04 0.0000000000000000e+00  -1.0114415700117139e-03 -1.5842915421751687e-04 0.0000000000000000e+00  -1.2929494915591591e-03 -2.2096385736385571e-04 0.0000000000000000e+00  0.0000000000000000e+00 0.0000000000000000e+00 0.0000000000000000e+00  -1.2365062468462775e-05 -9.7595166441044745e-07 0.0000000000000000e+00  -2.5302612418575819e-05 -2.0075524946606902e-06 0.0000000000000000e+00  -3.9410763827111848e-05 -3.1545213779868929e-06 0.0000000000000000e+00  -5.5365965945105941e-05 -4.4870631726220504e-06 0.0000000000000000e+00  -7.3972475840883273e-05 -6.0927226727009064e-06 0.0000000000000000e+00  -9.6227407758876996e-05 -8.0855512321715295e-06 0.0000000000000000e+00  -1.2341031214348024e-04 -1.0618955854779888e-05 0.0000000000000000e+00  -1.5721001167587025e-04 -1.3904538062079083e-05 0.0000000000000000e+00  -1.9990594208538440e-04 -1.8241670613564392e-05 0.0000000000000000e+00  -2.5462384691142266e-04 -2.4069821534843385e-05 0.0000000000000000e+00  -3.2567671610248753e-04 -3.2078271058173113e-05 0.0000000000000000e+00  -4.1895255274702328e-04 -4.3477286963520062e-05 0.0000000000000000e+00  -5.4214530151279808e-04 -6.0739060184816605e-05 0.0000000000000000e+00  -7.0415672617641658e-04 -8.9726489179867228e-05 0.0000000000000000e+00  -9.1153166015145459e-04 -1.4662489063992863e-04 0.0000000000000000e+00  -1.1457226710112306e-03 -2.9978165203209959e-04 0.0000000000000000e+00  0.0000000000000000e+00 0.0000000000000000e+00 0.0000000000000000e+00  -8.5785031930494449e-06 -6.8406840215455851e-07 0.0000000000000000e+00  -1.7563778051875712e-05 -1.4084494060032579e-06 0.0000000000000000e+00  -2.7381688657536460e-05 -2.2164174678298429e-06 0.0000000000000000e+00  -3.8518032057656300e-05 -3.1589931431649440e-06 0.0000000000000000e+00  -5.1557657580477627e-05 -4.2998081305993490e-06 0.0000000000000000e+00  -6.7237910138257640e-05 -5.7211700163572946e-06 0.0000000000000000e+00  -8.6525946971497924e-05 -7.5313684517221579e-06 0.0000000000000000e+00  -1.1073540521279773e-04 -9.8722590553238128e-06 0.0000000000000000e+00  -1.4170788923092723e-04 -1.2923472124282308e-05 0.0000000000000000e+00  -1.8210060263154065e-04 -1.6893627977094501e-05 0.0000000000000000e+00  -2.3584325720451651e-04 -2.1979727245043955e-05 0.0000000000000000e+00  -3.0884639951688381e-04 -2.8279015606432282e-05 0.0000000000000000e+00  -4.1002168340096136e-04 -3.5737408686226456e-05 0.0000000000000000e+00  -5.5248020393277534e-04 -4.4677064938878039e-05 0.0000000000000000e+00  -7.5391980100859282e-04 -5.8621954777442241e-05 0.0000000000000000e+00  -1.0331287028322088e-03 -9.2839861100342259e-05 0.0000000000000000e+00  0.0000000000000000e+00 0.0000000000000000e+00 0.0000000000000000e+00  -4.3933089570966271e-06 -3.5249129801958335e-07 0.0000000000000000e+00  -8.9981784473745842e-06 -7.2616225689914645e-07 0.0000000000000000e+00  -1.4036465522972375e-05 -1.1437428812337421e-06 0.0000000000000000e+00  -1.9762778715575446e-05 -1.6320471107875634e-06 0.0000000000000000e+00  -2.6486386971073576e-05 -2.2244251439692844e-06 0.0000000000000000e+00  -3.4602006631562946e-05 -2.9635359121956510e-06 0.0000000000000000e+00  -4.4635996367573234e-05 -3.9037837263166127e-06 0.0000000000000000e+00  -5.7319374205882601e-05 -5.1107583904947082e-06 0.0000000000000000e+00  -7.3708133194931165e-05 -6.6487669771553710e-06 0.0000000000000000e+00  -9.5386922078482590e-05 -8.5282408885654004e-06 0.0000000000000000e+00  -1.2481152189427848e-04 -1.0525794871016237e-05 0.0000000000000000e+00  -1.6582683319015150e-04 -1.1616873548807639e-05 0.0000000000000000e+00  -2.2409960402120551e-04 -8.3274314099454633e-06 0.0000000000000000e+00  -3.0565439321593652e-04 9.1998481242075045e-06 0.0000000000000000e+00  -4.0716156533203641e-04 6.1286579955318086e-05 0.0000000000000000e+00  -4.9513972869062186e-04 1.5944329124660493e-04 0.0000000000000000e+00  0.0000000000000000e+00 0.0000000000000000e+00 0.0000000000000000e+00  0.0000000000000000e+00 0.0000000000000000e+00 0.0000000000000000e+00  0.0000000000000000e+00 0.0000000000000000e+00 0.0000000000000000e+00  0.0000000000000000e+00 0.0000000000000000e+00 0.0000000000000000e+00  0.0000000000000000e+00 0.0000000000000000e+00 0.0000000000000000e+00  0.0000000000000000e+00 0.0000000000