<?xml version="1.0"?>
<VTKFile type="UnstructuredGrid"  version="0.1"  >
<UnstructuredGrid>
<Piece  NumberOfPoints="289" NumberOfCells="512">
<Points>
<DataArray  type="Float64"  NumberOfComponents="3"  format="ascii">0 0 0  0.0625 0 0  0.125 0 0  0.1875 0 0  0.25 0 0  0.3125 0 0  0.375 0 0  0.4375 0 0  0.5 0 0  0.5625 0 0  0.625 0 0  0.6875 0 0  0.75 0 0  0.8125 0 0  0.875 0 0  0.9375 0 0  1 0 0  0 0.0625 0  0.06254922755210038 0.06247971064379777 0  0.1250999283940861 0.06245904627775689 0  0.1876535950011086 0.06243765892428282 0  0.2502117322047719 0.06241527225433626 0  0.3127758571049428 0.06239172851234791 0  0.3753474932727988 0.06236704778456329 0  0.4379281637146697 0.06234150052922306 0  0.5005193981915875 0.06231568934867426 0  0.5631227960319571 0.06229062675833581 0  0.625740245245481 0.06226778004668247 0  0.688374543385565 0.06224903066783245 0  0.7510310297571806 0.0622364664959074 0  0.8137217645133548 0.0622319086447732 0  0.8764759800645957 0.062236147983917 0  0.9393640173626926 0.0622484683440201 0  1.002531470959743 0.06227286825626593 0  0 0.125 0  0.06259696484310256 0.1249597820043614 0  0.1251968854226181 0.1249187781735666 0  0.1878027641733218 0.1248762525627534 0  0.2504176472700678 0.124831603577406 0  0.313044636540354 0.1247844547733802 0  0.3756868924229417 0.1247347730994628 0  0.4383476358972532 0.1246830191884643 0  0.5010301752060623 0.1246303262322877 0  0.5637380211289843 0.1245786876877874 0  0.6264752322934493 0.1245311043624819 0  0.6892472838357521 0.1244915928948911 0  0.7520630181994136 0.1244648913193972 0  0.8149385603975016 0.1244556473703985 0  0.8779038408988371 0.1244670024693804 0  0.9410090905233707 0.1244993279531718 0  1.004320776052228 0.1245518802389991 0  0 0.1875 0  0.0626417397430257 0.1874406317583104 0  0.1252879098048058 0.1873800019824447 0  0.1879430239733629 0.1873169131731166 0  0.2506116928837244 0.1872503457262611 0  0.3132986593398008 0.1871795847953348 0  0.3760088198124627 0.1871043936917107 0  0.4387472373974196 0.1870252469848005 0  0.501519166304749 0.1869436291163372 0  0.5643301352552832 0.1868623863289103 0  0.6271861807089059 0.1867860812726441 0  0.6900943703155791 0.1867212235383681 0  0.753063742882105 0.1866761015872421 0  0.8161064608919341 0.1866596361015127 0  0.8792376754600757 0.1866779234811892 0  0.942469549788206 0.1867248384783399 0  1.005793105435429 0.1867552119292215 0  0 0.25 0  0.06268209594331761 0.2499227415703849 0  0.125370061307738 0.2498436618040338 0  0.188069895208545 0.2497610038420964 0  0.2507877708314716 0.2496732013587854 0  0.3135301068787986 0.2495790265103665 0  0.3763036191690824 0.2494778063585472 0  0.439115350319698 0.249369735062743 0  0.5019726809384086 0.2492563083513464 0  0.5648833317711894 0.2491408970101725 0  0.6278553625282317 0.2490294457428696 0  0.6908971254146733 0.2489312105160145 0  0.7540169499046475 0.2488592900002842 0  0.8172218374730204 0.2488303923215939 0  0.8805134282108641 0.2488627104079938 0  0.9438783622951676 0.2489700448949146 0  1.007271623392031 0.2491510683246839 0  0 0.3125 0  0.06271661148300992 0.3124066753803613 0  0.1254404564965 0.3123108817272554 0  0.188178953409765 0.312210196312051 0  0.2509397980418231 0.3121023564011932 0  0.3137310870276012 0.3119854038845131 0  0.3765614184298762 0.3118579187616474 0  0.4394399610843976 0.3117193866757808 0  0.5023764814962367 0.3115707577448639 0  0.5653813072212399 0.3114152643677707 0  0.6284651736216523 0.3112595650369358 0  0.6916388127390021 0.311115248051784 0  0.7549119386635871 0.3110006200463826 0  0.8182909068959197 0.3109424449086947 0  0.8817739051571838 0.3109768012409899 0  0.9453429464981777 0.3111475137704279 0  1.008955743847889 0.3115000847577363 0  0 0.375 0  0.06274392958082516 0.374893082204297 0  0.1254963293991195 0.3747829769530597 0  0.1882659168395068 0.37466650263871 0  0.2510618161484854 0.3745405538559147 0  0.3138937519303929 0.3744022082766584 0  0.3767722250100365 0.374248933736461 0  0.4397086623113847 0.374078957492152 0  0.5027155286144007 0.3738918888021525 0  0.5658063780161805 0.3736897266966371 0  0.628995795158549 0.373478435103541 0  0.6922991069972682 0.373270313956852 0  0.7557316001993822 0.3730873954065288 0  0.8193067464027888 0.3729659486107186 0  0.8830327634304005 0.3729617015590028 0  0.9469073185788591 0.3731543698213025 0  1.010912561918911 0.3736485057502898 0  0 0.4375 0  0.06276280554127034 0.437382678135531 0  0.1255351252666657 0.4372614219424297 0  0.1883267864718322 0.437132239451483 0  0.2511481741575395 0.4369910740958434 0  0.3140105117732359 0.4368338320841216 0  0.3769261398988581 0.4366565033279809 0  0.4399087938093167 0.4364554460601412 0  0.5029738855326226 0.4362279509974428 0  0.5661388061154808 0.4359732752729337 0  0.6294232795375213 0.4356944520556307 0  0.6928498142414254 0.4354013478126989 0  0.7564442897302518 0.4351156379204799 0  0.8202366445273485 0.4348784979245044 0  0.8842614729616022 0.4347615601044806 0  0.9485582187404495 0.4348805171314574 0  1.013171219758067 0.4354084042230932 0  0 0.5 0  0.06277217173866215 0.4998762036776359 0  0.125554632381301 0.4997477660197501 0  0.1883580482002093 0.4996099054240689 0  0.2511938049022654 0.4994575850013797 0  0.3140743865815743 0.4992854184297301 0  0.3770137769874449 0.4990876372854045 0  0.4400279002263325 0.4988581813426265 0  0.5031351387038054 0.4985910274008625 0  0.566357014804987 0.4982809706593282 0  0.6297192243856687 0.4979252490954162 0  0.6932533967938228 0.4975267078274349 0  0.7570002446436617 0.4970996969324568 0  0.8210150889790618 0.4966805732932603 0  0.8853768214664913 0.4963451870339998 0  0.9502006724858904 0.4962348226576704 0  1.015653898406326 0.4965873991299877 0  0 0.5625 0  0.06277121935840663 0.5623743557556189 0  0.1255531500695194 0.5622434932278213 0  0.1883569366497863 0.5621019617111614 0  0.2511945992673658 0.5619438358511873 0  0.3140795111608912 0.5617624687625139 0  0.3770269265783815 0.5615502473036459 0  0.4400545927208581 0.5612983799590961 0  0.5031835157409169 0.560996793703639 0  0.5664390436437619 0.5606343114624239 0  0.6298526451791752 0.5601994788565494 0  0.6934652234047768 0.5596828153806428 0  0.7573336688874736 0.5590820879363584 0  0.8215437057908604 0.5584137654019223 0  0.8862334685742324 0.5577362424318506 0  0.9516319952269277 0.5571920579376386 0  1.018112545887157 0.5570706022773735 0  0 0.625 0  0.06275949107477509 0.6248776987515321 0  0.1255296816399221 0.6247498339273237 0  0.188321744289696 0.624610522841666 0  0.2511478570974576 0.6244531953512684 0  0.3140217666717605 0.6242701866231596 0  0.3769594284209148 0.6240522528228656 0  0.4399797662061458 0.6237879881239309 0  0.5031056334362227 0.623463138281268 0  0.5663651717277245 0.6230598562214672 0  0.6297940690130828 0.6225560809106464 0  0.6934399823204701 0.6219255776356287 0  0.7573721350037075 0.6211401129005019 0  0.8217025927931381 0.6201776589373282 0  0.8866311812973092 0.6190463277313193 0  0.952530212013173 0.6178436695616305 0  1.020079640381393 0.6168678860013822 0  0 0.6875 0  0.06273697402946274 0.6873865649855516 0  0.1254841308364568 0.6872675493040895 0  0.1882521428692745 0.6871369901325699 0  0.2510527678217395 0.6869880752756949 0  0.3138994711664737 0.6868126018774682 0  0.3768081489223157 0.6866002762437196 0  0.4397979910548969 0.6863377714684888 0  0.5028925465986934 0.6860074316146536 0  0.566121129341816 0.6855854784954911 0  0.6295209722243319 0.6850395574561438 0  0.6931413962702307 0.6843255276159182 0  0.7570537786064528 0.6833838651550892 0  0.8213778269311629 0.6821381318900557 0  0.8863499566252233 0.6805065130949597 0  0.9524818529539389 0.6784691425257829 0  1.020861471647765 0.6762861752526396 0  0 0.75 0  0.06270417848402447 0.7499009607393831 0  0.1254174719836259 0.7497967233620255 0  0.1881494707620266 0.7496816855807947 0  0.2509108548361552 0.7495493284962795 0  0.313714036236903 0.7493916042518457 0  0.3765739224299676 0.7491981040030415 0  0.4395088365898729 0.7489548711154413 0  0.5025416156601347 0.7486426528098927 0  0.5657008848899281 0.748234263286455 0  0.6290225343728569 0.7476905255088137 0  0.6925518004256956 0.7469538959216658 0  0.7563483352905376 0.7459382466111053 0  0.8205048552591284 0.7445124661594854 0  0.8852197434237203 0.7424770073140655 0  0.9510536652504906 0.7395591011316527 0  1.019485232003209 0.735734125774076 0  0 0.8125 0  0.06266218549213891 0.8124204972452032 0  0.1253318594442485 0.8123366055773831 0  0.1880169325104083 0.8122435627386854 0  0.2507263093355018 0.8121357482548119 0  0.3134704944684272 0.8120060916058605 0  0.3762623374673869 0.8118452426320166 0  0.4391179587498379 0.811640347115856 0  0.5020578603327395 0.8113731760491423 0  0.5651081050041808 0.8110171921213877 0  0.628301132578986 0.8105328383090006 0  0.6916751004579932 0.8098597483488348 0  0.7552696590516708 0.808903277792876 0  0.8191173478916309 0.8075094325973647 0  0.8832513447133716 0.8054131262986477 0  0.9479038709851332 0.8021214125614627 0  1.015237194586835 0.7966658085866607 0  0 0.875 0  0.06261264776649555 0.8749443652359105 0  0.1252306427131326 0.8748855467041834 0  0.1878596563109093 0.8748200730563499 0  0.2505061381693672 0.8747438060085932 0  0.3131778095814942 0.8746514706349854 0  0.3758842982428241 0.8745359836509506 0  0.4386379724226711 0.8743874409169262 0  0.501455012313001 0.874191538050213 0  0.5643566402292333 0.8739270482069683 0  0.6273700059842736 0.8735617261850913 0  0.6905268590791113 0.8730455632227964 0  0.753854046864859 0.8722994068876854 0  0.8173383181882184 0.8711941904198602 0  0.8808183402901568 0.8695037092457226 0  0.9436998516439126 0.8667532122848958 0  1.00442927049922 0.8615840175383438 0  0 0.9375 0  0.0625577321534873 0.9374713657952748 0  0.1251182603299937 0.9374410578390788 0  0.187684561073276 0.9374072459407983 0  0.2502600492387928 0.9373677352448928 0  0.3128488674232188 0.9373197061510252 0  0.3754562763132909 0.9372593378132167 0  0.4380892026940156 0.937181232965621
[...]
<PointData  Vectors="f_54"> 
<DataArray  type="Float64"  Name="f_54"  NumberOfComponents="3" format="ascii">0.0000000000000000e+00 0.0000000000000000e+00 0.0000000000000000e+00  0.0000000000000000e+00 0.0000000000000000e+00 0.0000000000000000e+00  0.0000000000000000e+00 0.0000000000000000e+00 0.0000000000000000e+00  0.0000000000000000e+00 0.0000000000000000e+00 0.0000000000000000e+00  0.0000000000000000e+00 0.0000000000000000e+00 0.0000000000000000e+00  0.0000000000000000e+00 0.0000000000000000e+00 0.0000000000000000e+00  0.0000000000000000e+00 0.0000000000000000e+00 0.0000000000000000e+00  0.0000000000000000e+00 0.0000000000000000e+00 0.0000000000000000e+00  0.0000000000000000e+00 0.0000000000000000e+00 0.0000000000000000e+00  0.0000000000000000e+00 0.0000000000000000e+00 0.0000000000000000e+00  0.0000000000000000e+00 0.0000000000000000e+00 0.0000000000000000e+00  0.0000000000000000e+00 0.0000000000000000e+00 0.0000000000000000e+00  0.0000000000000000e+00 0.0000000000000000e+00 0.0000000000000000e+00  0.0000000000000000e+00 0.0000000000000000e+00 0.0000000000000000e+00  0.0000000000000000e+00 0.0000000000000000e+00 0.0000000000000000e+00  0.0000000000000000e+00 0.0000000000000000e+00 0.0000000000000000e+00  0.0000000000000000e+00 0.0000000000000000e+00 0.0000000000000000e+00  0.0000000000000000e+00 0.0000000000000000e+00 0.0000000000000000e+00  4.6477771346418833e-06 -2.8201520097555646e-08 0.0000000000000000e+00  9.4390901473010812e-06 -5.9836021556890881e-08 0.0000000000000000e+00  1.4521476320528020e-05 -9.8679663972366377e-08 0.0000000000000000e+00  2.0044260629879532e-05 -1.4916178638712316e-07 0.0000000000000000e+00  2.6158484439652939e-05 -2.1667869004233605e-07 0.0000000000000000e+00  3.3015459232209546e-05 -3.0785730674030656e-07 0.0000000000000000e+00  4.0763540555670676e-05 -4.3069515359491084e-07 0.0000000000000000e+00  4.9543085167138089e-05 -5.9445420847350645e-07 0.0000000000000000e+00  5.9480800120587515e-05 -8.0915147861668348e-07 0.0000000000000000e+00  7.0688450413927779e-05 -1.0845620690961276e-06 0.0000000000000000e+00  8.3282074511041061e-05 -1.4291487745753519e-06 0.0000000000000000e+00  9.7472268004390251e-05 -1.8513390400697450e-06 0.0000000000000000e+00  1.1388813393452169e-04 -2.3730314478898465e-06 0.0000000000000000e+00  1.3468704661077867e-04 -3.0936619502509487e-06 0.0000000000000000e+00  1.6745276563122282e-04 -4.4583358602914837e-06 0.0000000000000000e+00  2.3967360787740567e-04 -8.3825655885899077e-06 0.0000000000000000e+00  0.0000000000000000e+00 0.0000000000000000e+00 0.0000000000000000e+00  9.1565037268585853e-06 -5.3002809760504022e-08 0.0000000000000000e+00  1.8600089564536117e-05 -1.1256702877581778e-07 0.0000000000000000e+00  2.8626038007838298e-05 -1.8594087205504067e-07 0.0000000000000000e+00  3.9534278107030872e-05 -2.8170371213715301e-07 0.0000000000000000e+00  5.1629796691177944e-05 -4.1043562988784039e-07 0.0000000000000000e+00  6.5220215392295202e-05 -5.8532553298462890e-07 0.0000000000000000e+00  8.0609413659503556e-05 -8.2258015093662379e-07 0.0000000000000000e+00  9.8086233930615448e-05 -1.1413717174934875e-06 0.0000000000000000e+00  1.1790818277289641e-04 -1.5628948276673509e-06 0.0000000000000000e+00  1.4028270899952232e-04 -2.1079259577724015e-06 0.0000000000000000e+00  1.6535531173602486e-04 -2.7921772377998223e-06 0.0000000000000000e+00  1.9322802866625542e-04 -3.6187275673659516e-06 0.0000000000000000e+00  2.2405395159354180e-04 -4.5657687574062315e-06 0.0000000000000000e+00  2.5824046252296835e-04 -5.5570368834984395e-06 0.0000000000000000e+00  2.9642171283673474e-04 -6.3297757264379255e-06 0.0000000000000000e+00  3.3619939158737328e-04 -5.6963345072736813e-06 0.0000000000000000e+00  0.0000000000000000e+00 0.0000000000000000e+00 0.0000000000000000e+00  1.3379969610479584e-05 -7.1270573771369495e-08 0.0000000000000000e+00  2.7189133615998016e-05 -1.5159585502641563e-07 0.0000000000000000e+00  4.1869385924777685e-05 -2.5104738086066180e-07 0.0000000000000000e+00  5.7872117888775447e-05 -3.8172183606419181e-07 0.0000000000000000e+00  7.5660240993139795e-05 -5.5883091658974666e-07 0.0000000000000000e+00  9.5705994964314259e-05 -8.0180071881019120e-07 0.0000000000000000e+00  1.1848244271337293e-04 -1.1352217966137847e-06 0.0000000000000000e+00  1.4444600208698960e-04 -1.5892867104235237e-06 0.0000000000000000e+00  1.7400675229909191e-04 -2.1990120944779664e-06 0.0000000000000000e+00  2.0748245893521426e-04 -3.0010140504850599e-06 0.0000000000000000e+00  2.4503028529321909e-04 -4.0258440986823436e-06 0.0000000000000000e+00  2.8654246287717353e-04 -5.2828967233804931e-06 0.0000000000000000e+00  3.3146204465109595e-04 -6.7339185636901884e-06 0.0000000000000000e+00  3.7836933427237018e-04 -8.2524524495271933e-06 0.0000000000000000e+00  4.2387589105049716e-04 -9.5877715073992871e-06 0.0000000000000000e+00  4.5970845477806099e-04 -1.0514884197350855e-05 0.0000000000000000e+00  0.0000000000000000e+00 0.0000000000000000e+00 0.0000000000000000e+00  1.7174101229871262e-05 -8.0521155784331231e-08 0.0000000000000000e+00  3.4915656323434972e-05 -1.7162602623197511e-07 0.0000000000000000e+00  5.3809705907647243e-05 -2.8519912243480507e-07 0.0000000000000000e+00  7.4458427231256473e-05 -4.3580420892182700e-07 0.0000000000000000e+00  9.7486532454000752e-05 -6.4224731725654974e-07 0.0000000000000000e+00  1.2354152106365673e-04 -9.2933854219867802e-07 0.0000000000000000e+00  1.5328578929530085e-04 -1.3297618884373140e-06 0.0000000000000000e+00  1.8737626084104877e-04 -1.8857215779662605e-06 0.0000000000000000e+00  2.2642512150995232e-04 -2.6495655389428647e-06 0.0000000000000000e+00  2.7093171349867548e-04 -3.6817296437702540e-06 0.0000000000000000e+00  3.2116884526173158e-04 -5.0428691933461349e-06 0.0000000000000000e+00  3.7699215655727467e-04 -6.7746892280026775e-06 0.0000000000000000e+00  4.3750887212245826e-04 -8.8606581312544804e-06 0.0000000000000000e+00  5.0047725239015287e-04 -1.1154046545721543e-05 0.0000000000000000e+00  5.6121598471180678e-04 -1.3257484537251598e-05 0.0000000000000000e+00  6.1084374497820133e-04 -1.4320522901081657e-05 0.0000000000000000e+00  0.0000000000000000e+00 0.0000000000000000e+00 0.0000000000000000e+00  2.0399684999539386e-05 -7.9249676385511337e-08 0.0000000000000000e+00  4.1497463406749076e-05 -1.6935004673030207e-07 0.0000000000000000e+00  6.4014289003909157e-05 -2.8263584229301797e-07 0.0000000000000000e+00  8.8699171930026245e-05 -4.3461788497331403e-07 0.0000000000000000e+00  1.1634021727685238e-04 -6.4600457419989650e-07 0.0000000000000000e+00  1.4777047467813930e-04 -9.4523363940363811e-07 0.0000000000000000e+00  1.8386515159463123e-04 -1.3716179151644396e-06 0.0000000000000000e+00  2.2552485700261859e-04 -1.9790327268955048e-06 0.0000000000000000e+00  2.7363659105503587e-04 -2.8396333294589373e-06 0.0000000000000000e+00  3.2899951183375107e-04 -4.0461145742015098e-06 0.0000000000000000e+00  3.9219488692039477e-04 -5.7090320373526350e-06 0.0000000000000000e+00  4.6336713524935394e-04 -7.9419472610424520e-06 0.0000000000000000e+00  5.4186364098144442e-04 -1.0820697762722343e-05 0.0000000000000000e+00  6.2565900150659767e-04 -1.4293276363730446e-05 0.0000000000000000e+00  7.1049437247121619e-04 -1.8004675470067753e-05 0.0000000000000000e+00  7.8879126995430474e-04 -2.0993282447918224e-05 0.0000000000000000e+00  0.0000000000000000e+00 0.0000000000000000e+00 0.0000000000000000e+00  2.2926361862480810e-05 -6.7222994285430698e-08 0.0000000000000000e+00  4.6668508397363441e-05 -1.4409134434565648e-07 0.0000000000000000e+00  7.2070603915868871e-05 -2.4174535185200448e-07 0.0000000000000000e+00  1.0001901894609001e-04 -3.7466829071674239e-07 0.0000000000000000e+00  1.3146144356179765e-04 -5.6301837856830534e-07 0.0000000000000000e+00  1.6742199387547989e-04 -8.3584968325032833e-07 0.0000000000000000e+00  2.0900911328603443e-04 -1.2356436532129836e-06 0.0000000000000000e+00  2.5741098582213108e-04 -1.8246087135131783e-06 0.0000000000000000e+00  3.1386997473211272e-04 -2.6930700141801956e-06 0.0000000000000000e+00  3.7962285110565642e-04 -3.9696505097511380e-06 0.0000000000000000e+00  4.5578691159423409e-04 -5.8311573762066173e-06 0.0000000000000000e+00  5.4316367777446409e-04 -8.5057977029728236e-06 0.0000000000000000e+00  6.4192390155969384e-04 -1.2254255579846527e-05 0.0000000000000000e+00  7.5113765404303406e-04 -1.7296105687170741e-05 0.0000000000000000e+00  8.6813924902931277e-04 -2.3621465763084557e-05 0.0000000000000000e+00  9.8779079259253316e-04 -3.0591349588891844e-05 0.0000000000000000e+00  0.0000000000000000e+00 0.0000000000000000e+00 0.0000000000000000e+00  2.4638059536033791e-05 -4.5680711519804388e-08 0.0000000000000000e+00  5.0189805716815149e-05 -9.8283254018823907e-08 0.0000000000000000e+00  7.7602750961309691e-05 -1.6599233950378101e-07 0.0000000000000000e+00  1.0788322393416694e-04 -2.5998256920766821e-07 0.0000000000000000e+00  1.4212567288066538e-04 -3.9673081452878633e-07 0.0000000000000000e+00  1.8154051329861780e-04 -6.0153551897853774e-07 0.0000000000000000e+00  2.2747838440113715e-04 -9.1403144696413387e-07 0.0000000000000000e+00  2.8144675298065388e-04 -1.3968767909150249e-06 0.0000000000000000e+00  3.4511181273831816e-04 -2.1492865538459773e-06 0.0000000000000000e+00  4.2027431003792789e-04 -3.3275277494709220e-06 0.0000000000000000e+00  5.0880243278718731e-04 -5.1743034541137555e-06 0.0000000000000000e+00  6.1249967860848469e-04 -8.0565695033089562e-06 0.0000000000000000e+00  7.3288517937872115e-04 -1.2503157264082616e-05 0.0000000000000000e+00  8.7087816073877988e-04 -1.9212788258428682e-05 0.0000000000000000e+00  1.0264216492813863e-03 -2.8959843454165437e-05 0.0000000000000000e+00  1.1981592063683814e-03 -4.2250668829781059e-05 0.0000000000000000e+00  0.0000000000000000e+00 0.0000000000000000e+00 0.0000000000000000e+00  2.5439765998833578e-05 -1.7369037882095638e-08 0.0000000000000000e+00  5.1863367805286703e-05 -3.7615889013308726e-08 0.0000000000000000e+00  8.0293344203589078e-05 -6.4366344062649362e-08 0.0000000000000000e+00  1.1182856153060253e-04 -1.0322757051257446e-07 0.0000000000000000e+00  1.4768494274407365e-04 -1.6357529320317285e-07 0.0000000000000000e+00  1.8923856803405495e-04 -2.6162363007270187e-07 0.0000000000000000e+00  2.3807089926995275e-04 -4.2582382070600797e-07 0.0000000000000000e+00  2.9601449104043882e-04 -7.0641426571446414e-07 0.0000000000000000e+00  3.6519520193432486e-04 -1.1922719203091916e-06 0.0000000000000000e+00  4.4806331656006083e-04 -2.0403688385058386e-06 0.0000000000000000e+00  5.4740135306294790e-04 -3.5262985735464767e-06 0.0000000000000000e+00  6.6629272662112912e-04 -6.1279900401885003e-06 0.0000000000000000e+00  8.0803988454212561e-04 -1.0655986355833692e-05 0.0000000000000000e+00  9.7605077756660378e-04 -1.8434056690330385e-05 0.0000000000000000e+00  1.1738032270340332e-03 -3.1497982876342022e-05 0.0000000000000000e+00  1.4051957186435534e-03 -5.2715138060974538e-05 0.0000000000000000e+00  0.0000000000000000e+00 0.0000000000000000e+00 0.0000000000000000e+00  2.5265217914150039e-05 1.3668179927730421e-08 0.0000000000000000e+00  5.1548344250140243e-05 2.9332437119709325e-08 0.0000000000000000e+00  7.9909668480948015e-05 4.9013810997804081e-08 0.0000000000000000e+00  1.1150194864670840e-04 7.4406858277803236e-08 0.0000000000000000e+00  1.4762238155493278e-04 1.0620268480527447e-07 0.0000000000000000e+00  1.8977168806856467e-04 1.4246409565091626e-07 0.0000000000000000e+00  2.3972269063757243e-04 1.7506116715600992e-07 0.0000000000000000e+00  2.9960036374680331e-04 1.8219227442237455e-07 0.0000000000000000e+00  3.7197422503399102e-04 1.1306466402146287e-07 0.0000000000000000e+00  4.5996161300052816e-04 -1.4302905658653788e-07 0.0000000000000000e+00  5.6733665398455205e-04 -8.1840521644359088e-07 0.0000000000000000e+00  6.9863621415750237e-04 -2.3882753755289507e-06 0.0000000000000000e+00  8.5925950788431221e-04 -5.8032475578521306e-06 0.0000000000000000e+00  1.0556023409143444e-03 -1.2914869701526896e-05 0.0000000000000000e+00  1.2954357140404743e-03 -2.7196263744062355e-05 0.0000000000000000e+00  1.5892308295948176e-03 -5.4858151072322962e-05 0.0000000000000000e+00  0.0000000000000000e+00 0.0000000000000000e+00 0.0000000000000000e+00  2.4084735110470785e-05 4.2586214834768562e-08 0.0000000000000000e+00  4.9177786040063998e-05 9.2106118254696755e-08 0.0000000000000000e+00  7.6331644164717550e-05 1.5643703906777245e-07 0.0000000000000000e+00  1.0670329898725253e-04 2.4520656315274776e-07 0.0000000000000000e+00  1.4161542171182601e-04 3.7070046339561499e-07 0.0000000000000000e+00  1.8262966815273108e-04 5.4861755883453083e-07 0.0000000000000000e+00  2.3163760150287488e-04 7.9818829721975184e-07 0.0000000000000000e+00  2.9097587988440499e-04 1.1404085790728671e-06 0.0000000000000000e+00  3.6357339472987965e-04 1.5913643146814944e-06 0.0000000000000000e+00  4.5313835538784655e-04 2.1434837218741016e-06 0.0000000000000000e+00  5.6439195660006177e-04 2.7178551098527610e-06 0.0000000000000000e+00  7.0335208203986044e-04 3.0480341537797984e-06 0.0000000000000000e+00  8.7767153484321269e-04 2.4037764702296672e-06 0.0000000000000000e+00  1.0970734548833485e-03 -1.0467386184881779e-06 0.0000000000000000e+00  1.3741291616774075e-03 -1.1623683517978362e-05 0.0000000000000000e+00  1.7263501780399868e-03 -3.8871285789946844e-05 0.0000000000000000e+00  0.0000000000000000e+00 0.0000000000000000e+00 0.0000000000000000e+00  2.1912146539200235e-05 6.4502881740465453e-08 0.0000000000000000e+00  4.4773804792808743e-05 1.4000918937550293e-07 0.0000000000000000e+00  6.9577945688794785e-05 2.3933646828149692e-07 0.0000000000000000e+00  9.7427161929388613e-05 3.7910787557853873e-07 0.0000000000000000e+00  1.2960000749784220e-04 5.8237765460664570e-07 0.0000000000000000e+00  1.6763377094357443e-04 8.8219612556517482e-07 0.0000000000000000e+00  2.1343232180489444e-04 1.3265324328984191e-06 0.0000000000000000e+00  2.6941086071554933e-04 1.9849324400322730e-06 0.0000000000000000e+00  3.3869374956424714e-04 2.9568575231156138e-06 0.0000000000000000e+00  4.2538688670475160e-04 4.3799017025040039e-06 0.0000000000000000e+00  5.3495131655259705e-04 6.4300967384852460e-06 0.0000000000000000e+00  6.7470796146952214e-04 9.2869122416108918e-06 0.0000000000000000e+00  8.5450498078806141e-04 1.2972131175745520e-05 0.0000000000000000e+00  1.0876038647870435e-03 1.6771913568515124e-05 0.0000000000000000e+00  1.3920448863223396e-03 1.7412246186094468e-05 0.0000000000000000e+00  1.7938573565904118e-03 4.7608162658158251e-06 0.0000000000000000e+00  0.0000000000000000e+00 0.0000000000000000e+00 0.0000000000000000e+00  1.8809598011540944e-05 7.5417643705803606e-08 0.0000000000000000e+00  3.8458503125134542e-05 1.6414222709290114e-07 0.0000000000000000e+00  5.9825818228072018e-05 2.8188603522190845e-07 0.0000000000000000e+00  8.3896202568219425e-05 4.4963785449766896e-07 0.0000000000000000e+00  1.1182546970580301e-04 6.9763063223923604e-07 0.0000000000000000e+00  1.4502510012592935e-04 1.0712658358487370e-06 0.0000000000000000e+00  1.8527667057478239e-04 1.6403735913553786e-06 0.0000000000000000e+00  2.3489254890174234e-04 2.5141023540711995e-06 0.0000000000000000e+00  2.9694762524720242e-04 3.8653740651205410e-06 0.0000000000000000e+00  3.7561965384692256e-04 5.9717701891085501e-06 0.0000000000000000e+00  4.7669413206445871e-04 9.2846131538960827e-06 0.0000000000000000e+00  6.0831330644849264e-04 1.4543724823780018e-05 0.0000000000000000e+00  7.8207476569231663e-04 2.2945126090057538e-05 0.0000000000000000e+00  1.0146154775391759e-03 3.6224051654585934e-05 0.0000000000000000e+00  1.3299674556952186e-03 5.5450509573961070e-05 0.0000000000000000e+00  1.7656969936760971e-03 7.0529498389588675e-05 0.0000000000000000e+00  0.0000000000000000e+00 0.0000000000000000e+00 0.0000000000000000e+00  1.4889073765371396e-05 7.3091125342178592e-08 0.0000000000000000e+00  3.0458069762260353e-05 1.5940331510316419e-07 0.0000000000000000e+00  4.7419987957244674e-05 2.7468158330552446e-07 0.0000000000000000e+00  6.6578985481877375e-05 4.4033875015469331e-07 0.0000000000000000e+00  8.8888185630223263e-05 6.8789890028329138e-07 0.0000000000000000e+00  1.1552599458521954e-04 1.0659047926883119e-06 0.0000000000000000e+00  1.4800252612039773e-04 1.6512110874465048e-06 0.0000000000000000e+00  1.8831445392350686e-04 2.5681061742306053e-06 0.0000000000000000e+00  2.3917828300318384e-04 4.0217583101105809e-06 0.0000000000000000e+00  3.0439241676229352e-04 6.3590064294944461e-06 0.0000000000000000e+00  3.8941412514670136e-04 1.0184707784765199e-05 0.0000000000000000e+00  5.0229973248823283e-04 1.6600823856785971e-05 0.0000000000000000e+00  6.5526131404268777e-04 2.7744372689145120e-05 0.0000000000000000e+00  8.6724339131194668e-04 4.8120243079564391e-05 0.0000000000000000e+00  1.1677477679288982e-03 8.8143086723138273e-05 0.0000000000000000e+00  1.5920245518199828e-03 1.7290491729852285e-04 0.0000000000000000e+00  0.0000000000000000e+00 0.0000000000000000e+00 0.0000000000000000e+00  1.0309746147850864e-05 5.7650285339106588e-08 0.0000000000000000e+00  2.1097978681419338e-05 1.2590503509254490e-07 0.0000000000000000e+00  3.2866814395335389e-05 2.1745891311419568e-07 0.0000000000000000e+00  4.6185308536793661e-05 3.4976147934776345e-07 0.0000000000000000e+00  6.1732481798124249e-05 5.4882093543873444e-07 0.0000000000000000e+00  8.0355061373369520e-05 8.5521617232740173e-07 0.0000000000000000e+00  1.0314962094036809e-04 1.3340650848829669e-06 0.0000000000000000e+00  1.3158503409074236e-04 2.0920544698329292e-06 0.0000000000000000e+00  1.6769262860869208e-04 3.3072210652281254e-06 0.0000000000000000e+00  2.1437312273915216e-04 5.2822666685155526e-06 0.0000000000000000e+00  2.7591202199370179e-04 8.5430724695997819e-06 0.0000000000000000e+00  3.5888452108706739e-04 1.4031543676910055e-05 0.0000000000000000e+00  4.7384887323963161e-04 2.3531958882472964e-05 0.0000000000000000e+00  6.3894613063022879e-04 4.0854253764938755e-05 0.0000000000000000e+00  8.8992004911016981e-04 7.6231466832693646e-05 0.0000000000000000e+00  1.3206264517059668e-03 1.6649077597788884e-04 0.0000000000000000e+00  0.0000000000000000e+00 0.0000000000000000e+00 0.0000000000000000e+00  5.2707904958672596e-06 3.1720599489905630e-08 0.0000000000000000e+00  1.0788339391151897e-05 6.9328691246170025e-08 0.0000000000000000e+00  1.6811635715458748e-05 1.1989006042935960e-07 0.0000000000000000e+00  2.3634928373207947e-05 1.9316769035939707e-07 0.0000000000000000e+00  3.1610530010933332e-05 3.0379475655508826e-07 0.0000000000000000e+00  4.1179655666787953e-05 4.7472105005572286e-07 0.0000000000000000e+00  5.2916692361168634e-05 7.4291408336601899e-07 0.0000000000000000e+00  6.7595889293950280e-05 1.1689614300878356e-06 0.0000000000000000e+00  8.6296098217289230e-05 1.8532054841838509e-06 0.0000000000000000e+00  1.1057140093838458e-04 2.9618710998148595e-06 0.0000000000000000e+00  1.4273637379433554e-04 4.7640809296809971e-06 0.0000000000000000e+00  1.8633885173271648e-04 7.6584458795058501e-06 0.0000000000000000e+00  2.4683963366931011e-04 1.2050983374067058e-05 0.0000000000000000e+00  3.3183908289551907e-04 1.7411763381876331e-05 0.0000000000000000e+00  4.4610551267938871e-04 1.7882661999443974e-05 0.0000000000000000e+00  5.6420967497417245e-04 -9.2707539315045556e-06 0.0000000000000000e+00  0.0000000000000000e+00 0.0000000000000000e+00 0.0000000000000000e+00  0.0000000000000000e+00 0.0000000000000000e+00 0.0000000000000000e+00  0.0000000000000000e+00 0.0000000000000000e+00 0.0000000000000000e+00  0.0000000000000000e+00 0.0000000000000000e+00 0.0000000000000000e+00  0.0000000000000000e+00 0.0000000000000000e+00 0.0000000000000000e+00  0.0000000000000000e+00 0.0000000000000000e+00 0.0000000000000000e+00  0.0000000000000000e+00 0.0000000000000000e+00 0.0000000000000000e+00  0.0000000000000000e+00 0.0000000000000000e+00 0.0000000000000000e+00  0.0000000000000000e+00 0.0000000000000000e+00 0.0000000000000000e+00  0.0000000000000000e+00 0.0000000000000000e+00 0.0000000000000000e+00  0.00000000000