<?xml version="1.0"?>
<VTKFile type="UnstructuredGrid"  version="0.1"  >
<UnstructuredGrid>
<Piece  NumberOfPoints="289" NumberOfCells="512">
<Points>
<DataArray  type="Float64"  NumberOfComponents="3"  format="ascii">0 0 0  0.0625 0 0  0.125 0 0  0.1875 0 0  0.25 0 0  0.3125 0 0  0.375 0 0  0.4375 0 0  0.5 0 0  0.5625 0 0  0.625 0 0  0.6875 0 0  0.75 0 0  0.8125 0 0  0.875 0 0  0.9375 0 0  1 0 0  0 0.0625 0  0.06257956478067234 0.06248588039554843 0  0.1251615019422257 0.0624714755180866 0  0.1877482142200195 0.06245651721248874 0  0.2503421055323045 0.06244078098050819 0  0.3129455618680329 0.06242411554681541 0  0.3755609069504594 0.0624064812697361 0  0.4381903263410864 0.06238799869799461 0  0.5008357607813803 0.0623690057646716 0  0.5634987903346816 0.0623501165291251 0  0.6261805873389124 0.06233226420209523 0  0.6888821696723795 0.06231669381745385 0  0.7516056164465498 0.06230484104621677 0  0.8143581615097912 0.06229798115068032 0  0.8771648085119113 0.06229640384947917 0  0.9401060319203732 0.06229748049076338 0  1.003425122017329 0.06229209376732191 0  0 0.125 0  0.06265680089828361 0.1249720394962444 0  0.1253183633312063 0.1249434869356806 0  0.1879895201372043 0.1249137815089642 0  0.250675134071372 0.1248824433661471 0  0.3133800763078758 0.1248491302300858 0  0.3761091570886646 0.1248137131303721 0  0.4388669939359132 0.1247763755341226 0  0.5016578110020592 0.1247377358292622 0  0.5644851868268734 0.1246989838631048 0  0.6273518252246 0.1246620046656644 0  0.6902595478912917 0.1246294330104707 0  0.7532099358439704 0.1246045429119992 0  0.8162063141280234 0.1245908597216849 0  0.8792573125184074 0.1245915641443916 0  0.9423771159731876 0.1246098800082004 0  1.005553943264909 0.1246561128706442 0  0 0.1875 0  0.06272930992016032 0.1874587872670998 0  0.1254657705233621 0.1874166370818432 0  0.188216659782001 0.1873726512850011 0  0.250989356245676 0.1873260367810382 0  0.3137913396496088 0.1872761832732932 0  0.3766301233825115 0.1872227723001598 0  0.4395130916372629 0.1871659275983678 0  0.5024472140447567 0.1871064134235765 0  0.5654386160449578 0.1870458780440591 0  0.6284919951440632 0.1869871182365283 0  0.6916098770477568 0.1869342963458159 0  0.7547916244013688 0.1868929519980365 0  0.8180316695088889 0.186869457055009 0  0.8813148911055587 0.1868690577822037 0  0.9446031588359707 0.186889981232488 0  1.007802662834065 0.1869047640909814 0  0 0.25 0  0.06279470340642554 0.2499464717682305 0  0.1255989096910178 0.2498916116532383 0  0.1884223229873787 0.2498341257952763 0  0.2512748722444375 0.2497728288514024 0  0.3141667667797702 0.2497067322386347 0  0.3771084696938178 0.2496351767607068 0  0.4401105484736962 0.2495580283262462 0  0.5031833495603577 0.2494759564368753 0  0.566336424223477 0.2493908116453251 0  0.6295775958366309 0.2493061037735098 0  0.6929114710748032 0.2492275445228355 0  0.7563369770907319 0.249163531539794 0  0.8198429866692217 0.2491252714981053 0  0.8834000914542572 0.2491259082957864 0  0.9469455170274147 0.2491776125825124 0  1.010360064315014 0.249286324680054 0  0 0.3125 0  0.06285063571885263 0.3124354891629079 0  0.1257130269097951 0.3123692027641415 0  0.1885992229606464 0.312299389694064 0  0.2515216827104603 0.3122243828705095 0  0.3144934250374489 0.3121426816383845 0  0.3775280962876426 0.312053089670273 0  0.4406399059574128 0.3119549372867522 0  0.5038433592254106 0.3118484258142908 0  0.5671526773768993 0.3117351407142513 0  0.6305807312077814 0.3116187854532579 0  0.6941371908254103 0.3115061792074194 0  0.7578253744355661 0.3114085171893231 0  0.8216369313966446 0.3113427755821887 0  0.8855431768026065 0.3113329110400835 0  0.9494824440175428 0.3114101744815881 0  1.013346564023097 0.3116116163369179 0  0 0.375 0  0.06289486227531735 0.3749262835278119 0  0.1258035416352584 0.374850311826903 0  0.188740257896624 0.3747698262544734 0  0.2517198840221092 0.37468259435212 0  0.314758234657164 0.3745864644096515 0  0.3778722897998487 0.374479480212645 0  0.4410803086888236 0.3743600935060418 0  0.5044017630221697 0.3742275298858374 0  0.5678569767270971 0.3740823900825094 0  0.6314662906984562 0.3739276036011451 0  0.6952484581601348 0.3737698917700968 0  0.759217803679955 0.3736219266980286 0  0.8233794700105358 0.3735053491382274 0  0.8877220092982574 0.3734546447642913 0  0.9522071865139019 0.3735214424081529 0  1.016759054111576 0.3737779534263266 0  0 0.4375 0  0.06292532781733394 0.4374193332933241 0  0.1258662240975219 0.4373359246189149 0  0.1888387784020343 0.4372469864325182 0  0.2518600235223689 0.4371496650790698 0  0.3149483999758931 0.4370410420071918 0  0.3781241963320108 0.4369181884490385 0  0.4414099389973558 0.4367783137962657 0  0.5048306856240792 0.4366190742161719 0  0.5684141472812501 0.4364391512169574 0  0.632190521462622 0.4362392784262697 0  0.6961918542215215 0.4360239979671245 0  0.7604506587560312 0.4358045665450923 0  0.8249974071435662 0.4356035723413791 0  0.8898564434494484 0.4354618434461822 0  0.9550400241518018 0.4354478564104542 0  1.02054090769428 0.4356688208536733 0  0 0.5 0  0.06294028482607739 0.4999151222362891 0  0.1258974382312669 0.4998270533147358 0  0.1888889670011084 0.4997325029881475 0  0.2519336320386975 0.499627993848123 0  0.3150521123128752 0.4995097847241198 0  0.3782677057940034 0.4993738258083229 0  0.441607073755918 0.4992157782727933 0  0.5051010316069132 0.4990311601368089 0  0.5687853914622087 0.4988157326860509 0  0.6327018781911922 0.4985663358031038 0  0.69689918604936 0.4982825451962688 0  0.7614343301322758 0.4979697982131024 0  0.8263745630613434 0.4976450374047043 0  0.8918001903581474 0.4973463381152253 0  0.9578084845363115 0.4971478746517007 0  1.024518822032976 0.497179602747568 0  0 0.5625 0  0.06293843613164243 0.5624140950793926 0  0.1258944389797499 0.5623246445660467 0  0.1888863150829452 0.5622279453139664 0  0.2519339192310544 0.5621199712335421 0  0.3150595175590567 0.5619962020618359 0  0.3782887619427902 0.5618514469692278 0  0.4416518240396664 0.5616796758624315 0  0.5051847566723652 0.5614738936431338 0  0.5689311967949457 0.5612261387503741 0  0.6329446327646787 0.5609277816351801 0  0.697291694835817 0.5605704914107822 0  0.7620573899481713 0.5601486268032395 0  0.8273539656585351 0.5596645490853014 0  0.8933360102004635 0.5591395621958241 0  0.9602248185678647 0.5586342540858081 0  1.028344307028916 0.5582797318368234 0  0 0.625 0  0.06291908878781192 0.6249166008662606 0  0.1258556978400368 0.624829459417594 0  0.1888281573056586 0.6247346218756572 0  0.2518565771468275 0.6246276828759985 0  0.3149638786300242 0.6245035176180758 0  0.378177013258737 0.6243559617993163 0  0.4415284604670248 0.624177421563367 0  0.5050581363117025 0.6239584009640589 0  0.5688159347580634 0.6236869531207417 0  0.6328653298647178 0.6233481145768155 0  0.6972889493587702 0.6229235250613669 0  0.762198109385374 0.622391810677738 0  0.8277504918231541 0.6217312844385263 0  0.8941838103694643 0.6209288795323508 0  0.9618771966117616 0.6200035220428534 0  1.031451983489508 0.6190519319471013 0  0 0.6875 0  0.06288229971755301 0.687422830903599 0  0.1257812161388014 0.687341938999763 0  0.1887141985646498 0.6872533518480365 0  0.2517005970278312 0.6871525504819744 0  0.314762798620105 0.6870341231249766 0  0.3779276163563655 0.6868913196270342 0  0.441228057570661 0.6867154542484596 0  0.5047056521023053 0.6864950856247674 0  0.5684136283177724 0.6862148775831058 0  0.6324214765591353 0.6858540164385607 0  0.6968220873042777 0.6853840511772413 0  0.7617443718043545 0.6847661335461258 0  0.8273787000985556 0.6839483010768476 0  0.8940327052638597 0.6828664431196612 0  0.9622525290595731 0.6814641739110179 0  1.033055054058154 0.6797715638865066 0  0 0.75 0  0.06282898907036 0.749932761304873 0  0.1256727751683221 0.7498620775761365 0  0.1885469500199753 0.7497842422131509 0  0.2514689735001767 0.7496949664473466 0  0.3144593207465511 0.7495889939599827 0  0.3775429234865063 0.7494595821960186 0  0.4407510559799452 0.7492977698660456 0  0.5041238703936068 0.7490913088884927 0  0.5677138761483833 0.7488230706746715 0  0.631590841922216 0.74846862062504 0  0.6958491028801297 0.7479924492818073 0  0.7606199184660225 0.7473419750845466 0  0.8260973229485881 0.7464378239485155 0  0.8926055512322667 0.7451586984518758 0  0.9607944574070584 0.7433269893696551 0  1.032112518998454 0.7407947011513829 0  0 0.8125 0  0.06276099625881272 0.8124461119254578 0  0.1255340693257735 0.8123893290632913 0  0.1883319838588731 0.8123265163733383 0  0.2511691572316535 0.8122539980398422 0  0.3140626996242528 0.8121671884685076 0  0.3770337544944078 0.8120600807510264 0  0.4401092987089154 0.8119245005873493 0  0.5033246144765562 0.8117489808635913 0  0.566726702942777 0.8115170222306575 0  0.6303789481730995 0.8112043485196744 0  0.6943673397884513 0.8107744755643812 0  0.7588087392904835 0.8101713076339107 0  0.8238640000945027 0.8093060185284691 0  0.8897754775090364 0.8080315734310661 0  0.9570497273168485 0.8060880471201515 0  1.027531313024498 0.8029828643237087 0  0 0.875 0  0.06268105743347724 0.8749623327659489 0  0.1253706752523773 0.8749225721823405 0  0.1880779251552596 0.8748784403517224 0  0.250813126338004 0.8748272408546989 0  0.3135886488260994 0.8747655671526263 0  0.3764199747095106 0.8746888902186722 0  0.4393271641244807 0.8745909441033083 0  0.5023369286155971 0.8744627787440772 0  0.5654855669186942 0.8742912658569252 0  0.6288229857551929 0.8740567048112314 0  0.6924176252036378 0.8737289429011544 0  0.7563604471082594 0.8732609901441237 0  0.820760809906628 0.8725779500872523 0  0.8857134773838373 0.8715543752277352 0  0.9512035044064621 0.8699510284914241 0  1.017145647747036 0.8671756143199839 0  0 0.9375 0  0.06259269209984163 0.9374806252955068 0  0.1251898276348314 0.9374601517473338 0  0.1877961248042325 0.9374373801612637 0  0.2504169784121372 0.9374108827482494 0  0.3130589044002997 0.9373788417523806 0  0.3757301405701482 0.9373388182757612 0  0.4384415006896579 0.9372874027267
[...]
<PointData  Vectors="f_54"> 
<DataArray  type="Float64"  Name="f_54"  NumberOfComponents="3" format="ascii">0.0000000000000000e+00 0.0000000000000000e+00 0.0000000000000000e+00  0.0000000000000000e+00 0.0000000000000000e+00 0.0000000000000000e+00  0.0000000000000000e+00 0.0000000000000000e+00 0.0000000000000000e+00  0.0000000000000000e+00 0.0000000000000000e+00 0.0000000000000000e+00  0.0000000000000000e+00 0.0000000000000000e+00 0.0000000000000000e+00  0.0000000000000000e+00 0.0000000000000000e+00 0.0000000000000000e+00  0.0000000000000000e+00 0.0000000000000000e+00 0.0000000000000000e+00  0.0000000000000000e+00 0.0000000000000000e+00 0.0000000000000000e+00  0.0000000000000000e+00 0.0000000000000000e+00 0.0000000000000000e+00  0.0000000000000000e+00 0.0000000000000000e+00 0.0000000000000000e+00  0.0000000000000000e+00 0.0000000000000000e+00 0.0000000000000000e+00  0.0000000000000000e+00 0.0000000000000000e+00 0.0000000000000000e+00  0.0000000000000000e+00 0.0000000000000000e+00 0.0000000000000000e+00  0.0000000000000000e+00 0.0000000000000000e+00 0.0000000000000000e+00  0.0000000000000000e+00 0.0000000000000000e+00 0.0000000000000000e+00  0.0000000000000000e+00 0.0000000000000000e+00 0.0000000000000000e+00  0.0000000000000000e+00 0.0000000000000000e+00 0.0000000000000000e+00  0.0000000000000000e+00 0.0000000000000000e+00 0.0000000000000000e+00  2.9631387933992567e-06 -1.1195338634631810e-07 0.0000000000000000e+00  6.0371646622531209e-06 -2.2909787026453261e-07 0.0000000000000000e+00  9.3382213997240184e-06 -3.5693828782276990e-07 0.0000000000000000e+00  1.2990430116901867e-05 -5.0150448230480570e-07 0.0000000000000000e+00  1.7130319413911455e-05 -6.6960462215652126e-07 0.0000000000000000e+00  2.1911839778315450e-05 -8.6904243298083719e-07 0.0000000000000000e+00  2.7512573093853942e-05 -1.1087488419304758e-06 0.0000000000000000e+00  3.4142587966132575e-05 -1.3987461488494918e-06 0.0000000000000000e+00  4.2059620124143122e-05 -1.7498453062732778e-06 0.0000000000000000e+00  5.1600324325226554e-05 -2.1730679856533100e-06 0.0000000000000000e+00  6.3254550510333081e-05 -2.6793359470858205e-06 0.0000000000000000e+00  7.7861085171252746e-05 -3.2822825687148494e-06 0.0000000000000000e+00  9.7167323022181269e-05 -4.0161066241802705e-06 0.0000000000000000e+00  1.2555439587500300e-04 -5.0163227136026566e-06 0.0000000000000000e+00  1.7578043361069902e-04 -6.8602887648114479e-06 0.0000000000000000e+00  2.8988200234146539e-04 -1.2034078211100292e-05 0.0000000000000000e+00  0.0000000000000000e+00 0.0000000000000000e+00 0.0000000000000000e+00  5.8218046354686166e-06 -2.1896088202186848e-07 0.0000000000000000e+00  1.1862679922309185e-05 -4.4809546921196949e-07 0.0000000000000000e+00  1.8352058751306215e-05 -6.9820767388839889e-07 0.0000000000000000e+00  2.5535343591615573e-05 -9.8118002870642696e-07 0.0000000000000000e+00  3.3682664649711598e-05 -1.3105146025895421e-06 0.0000000000000000e+00  4.3098532579667684e-05 -1.7018279071232468e-06 0.0000000000000000e+00  5.4133111002980901e-05 -2.1732061530930923e-06 0.0000000000000000e+00  6.7196665889156625e-05 -2.7452371169244970e-06 0.0000000000000000e+00  8.2780811017816439e-05 -3.4403996172260522e-06 0.0000000000000000e+00  1.0149511960335568e-04 -4.2813083373717628e-06 0.0000000000000000e+00  1.2413904869295941e-04 -5.2870647621126160e-06 0.0000000000000000e+00  1.5185307690172102e-04 -6.4663813368933120e-06 0.0000000000000000e+00  1.8643230607579106e-04 -7.8030944435631043e-06 0.0000000000000000e+00  2.3088723314756868e-04 -9.2112644358553068e-06 0.0000000000000000e+00  2.8987091122248724e-04 -1.0332781157235209e-05 0.0000000000000000e+00  3.6609335208241867e-04 -9.4887364821414497e-06 0.0000000000000000e+00  0.0000000000000000e+00 0.0000000000000000e+00 0.0000000000000000e+00  8.4666771752715220e-06 -3.1600156691546600e-07 0.0000000000000000e+00  1.7254066401407987e-05 -6.4668142198518766e-07 0.0000000000000000e+00  2.6697937859880020e-05 -1.0076554002208843e-06 0.0000000000000000e+00  3.7157856338584987e-05 -1.4161969672800962e-06 0.0000000000000000e+00  4.9030066560872113e-05 -1.8921161528490521e-06 0.0000000000000000e+00  6.2761304708569375e-05 -2.4586394013566705e-06 0.0000000000000000e+00  7.8863875833405794e-05 -3.1431867202903552e-06 0.0000000000000000e+00  9.7932416151225225e-05 -3.9778004507686629e-06 0.0000000000000000e+00  1.2066291919318408e-04 -4.9987200492771131e-06 0.0000000000000000e+00  1.4787462490901534e-04 -6.2441308147293854e-06 0.0000000000000000e+00  1.8053378283307414e-04 -7.7482804678012385e-06 0.0000000000000000e+00  2.1976859637256284e-04 -9.5286635365385391e-06 0.0000000000000000e+00  2.6682270106184172e-04 -1.1560496770101389e-05 0.0000000000000000e+00  3.2274310896505736e-04 -1.3731015400269297e-05 0.0000000000000000e+00  3.8714022401055144e-04 -1.5786403891230259e-05 0.0000000000000000e+00  4.5436709069668422e-04 -1.7481066223417088e-05 0.0000000000000000e+00  0.0000000000000000e+00 0.0000000000000000e+00 0.0000000000000000e+00  1.0795376735071103e-05 -3.9855122297391061e-07 0.0000000000000000e+00  2.2002786092748983e-05 -8.1553126424866672e-07 0.0000000000000000e+00  3.4053407776600309e-05 -1.2705810620001729e-06 0.0000000000000000e+00  4.7409783423099179e-05 -1.7855689366783949e-06 0.0000000000000000e+00  6.2582724029140277e-05 -2.3858496679749950e-06 0.0000000000000000e+00  8.0149204222989940e-05 -3.1016506133661340e-06 0.0000000000000000e+00  1.0077113522150953e-04 -3.9695387323634391e-06 0.0000000000000000e+00  1.2521416517834356e-04 -5.0337761940321083e-06 0.0000000000000000e+00  1.5436398498332076e-04 -6.3470674170456462e-06 0.0000000000000000e+00  1.8923374575253961e-04 -7.9695880546473517e-06 0.0000000000000000e+00  2.3094698733926243e-04 -9.9640001953189043e-06 0.0000000000000000e+00  2.8065847314783453e-04 -1.2381963572583435e-05 0.0000000000000000e+00  3.3932452843080574e-04 -1.5233880519842729e-05 0.0000000000000000e+00  4.0712928757790387e-04 -1.8427833722859283e-05 0.0000000000000000e+00  4.8221225009045619e-04 -2.1654789808900630e-05 0.0000000000000000e+00  5.5833425397724653e-04 -2.4162710626838102e-05 0.0000000000000000e+00  0.0000000000000000e+00 0.0000000000000000e+00 0.0000000000000000e+00  1.2716358383148997e-05 -4.6286127505669289e-07 0.0000000000000000e+00  2.5922090310868742e-05 -9.4688353830719692e-07 0.0000000000000000e+00  4.0129033656944983e-05 -1.4746445927874436e-06 0.0000000000000000e+00  5.5887573166461981e-05 -2.0714356771347036e-06 0.0000000000000000e+00  7.3807576837563589e-05 -2.7668959293714046e-06 0.0000000000000000e+00  9.4580776510877482e-05 -3.5969739719870057e-06 0.0000000000000000e+00  1.1900444364688652e-04 -4.6063105682417987e-06 0.0000000000000000e+00  1.4800511715583843e-04 -5.8510654181780593e-06 0.0000000000000000e+00  1.8265876951114777e-04 -7.4020075705664911e-06 0.0000000000000000e+00  2.2419880496858620e-04 -9.3471859917719280e-06 0.0000000000000000e+00  2.7399313319947732e-04 -1.1792361218251436e-05 0.0000000000000000e+00  3.3345207010782501e-04 -1.4854986275663160e-05 0.0000000000000000e+00  4.0379534339840144e-04 -1.8642803263361153e-05 0.0000000000000000e+00  4.8556260749095011e-04 -2.3199424410616862e-05 0.0000000000000000e+00  5.7774032582144056e-04 -2.8384392499294566e-05 0.0000000000000000e+00  6.7654584540490783e-04 -3.3633011352376912e-05 0.0000000000000000e+00  0.0000000000000000e+00 0.0000000000000000e+00 0.0000000000000000e+00  1.4152629035711529e-05 -5.0622224060315132e-07 0.0000000000000000e+00  2.8854536820145196e-05 -1.0351013844215611e-06 0.0000000000000000e+00  4.4679839869079086e-05 -1.6108002543356389e-06 0.0000000000000000e+00  6.2247691205672467e-05 -2.2604902929819921e-06 0.0000000000000000e+00  8.2247169737992000e-05 -3.0162691445441514e-06 0.0000000000000000e+00  1.0546464111927703e-04 -3.9176331655201294e-06 0.0000000000000000e+00  1.3281402564423669e-04 -5.0147999440908939e-06 0.0000000000000000e+00  1.6536960943088082e-04 -6.3732644276446643e-06 0.0000000000000000e+00  2.0439923452394225e-04 -8.0800450587810138e-06 0.0000000000000000e+00  2.5139196462857125e-04 -1.0252030960230408e-05 0.0000000000000000e+00  3.0806720513806005e-04 -1.3046408689332478e-05 0.0000000000000000e+00  3.7634024335629022e-04 -1.6671692788235996e-05 0.0000000000000000e+00  4.5820297435304096e-04 -2.1394052768349466e-05 0.0000000000000000e+00  5.5546815499425998e-04 -2.7524866455654413e-05 0.0000000000000000e+00  6.6935430267441194e-04 -3.5357839045149623e-05 0.0000000000000000e+00  8.0002094916455276e-04 -4.4994149052142621e-05 0.0000000000000000e+00  0.0000000000000000e+00 0.0000000000000000e+00 0.0000000000000000e+00  1.5045193296384320e-05 -5.2717698492606870e-07 0.0000000000000000e+00  3.0679044357798497e-05 -1.0771459600988880e-06 0.0000000000000000e+00  4.7516286967135483e-05 -1.6741366862151625e-06 0.0000000000000000e+00  6.6221916643524026e-05 -2.3453793059265653e-06 0.0000000000000000e+00  8.7539575897545475e-05 -3.1231030945988330e-06 0.0000000000000000e+00  1.1232387305767356e-04 -4.0472610983968751e-06 0.0000000000000000e+00  1.4157818598867594e-04 -5.1694717897983221e-06 0.0000000000000000e+00  1.7649953900971717e-04 -6.5589612315669377e-06 0.0000000000000000e+00  2.1853187799326118e-04 -8.3117645900604615e-06 0.0000000000000000e+00  2.6942812245291103e-04 -1.0565179212181451e-05 0.0000000000000000e+00  3.3131921036249311e-04 -1.3520488892482886e-05 0.0000000000000000e+00  4.0678470296936635e-04 -1.7478125940637741e-05 0.0000000000000000e+00  4.9891605178115073e-04 -2.2889869779033367e-05 0.0000000000000000e+00  6.1136854084091095e-04 -3.0429981848928644e-05 0.0000000000000000e+00  7.4843458739933726e-04 -4.1076128767474051e-05 0.0000000000000000e+00  9.1528467311184267e-04 -5.6163765759030632e-05 0.0000000000000000e+00  0.0000000000000000e+00 0.0000000000000000e+00 0.0000000000000000e+00  1.5356058003862652e-05 -5.2563772619655945e-07 0.0000000000000000e+00  3.1317167461632084e-05 -1.0728570370199011e-06 0.0000000000000000e+00  4.8514384203790740e-05 -1.6644323005289530e-06 0.0000000000000000e+00  6.7632238658400760e-05 -2.3257526084251189e-06 0.0000000000000000e+00  8.9439537526452204e-05 -3.0866076703548034e-06 0.0000000000000000e+00  1.1482558826043213e-04 -3.9837163199274681e-06 0.0000000000000000e+00  1.4484470249916418e-04 -5.0645823864607817e-06 0.0000000000000000e+00  1.8077299058964839e-04 -6.3937144534107908e-06 0.0000000000000000e+00  2.2418327175997515e-04 -8.0630902812847561e-06 0.0000000000000000e+00  2.7704668976896295e-04 -1.0210319352755255e-05 0.0000000000000000e+00  3.4187372075852526e-04 -1.3050858322749185e-05 0.0000000000000000e+00  4.2191319610476274e-04 -1.6935855951575324e-05 0.0000000000000000e+00  5.2143690889952304e-04 -2.2456148789370686e-05 0.0000000000000000e+00  6.4615409765675944e-04 -3.0627034762377062e-05 0.0000000000000000e+00  8.0384432046294769e-04 -4.3208766966361843e-05 0.0000000000000000e+00  1.0054365178308767e-03 -6.3251107431581624e-05 0.0000000000000000e+00  0.0000000000000000e+00 0.0000000000000000e+00 0.0000000000000000e+00  1.5070530482962679e-05 -5.0286189601106155e-07 0.0000000000000000e+00  3.0738026561700941e-05 -1.0249323849934003e-06 0.0000000000000000e+00  4.7623993119054761e-05 -1.5862104183149415e-06 0.0000000000000000e+00  6.6403891542694617e-05 -2.2085570270501765e-06 0.0000000000000000e+00  8.7838609701668596e-05 -2.9169497612867990e-06 0.0000000000000000e+00  1.1281233358876146e-04 -3.7412778408144638e-06 0.0000000000000000e+00  1.4238069191573573e-04 -4.7191668671385981e-06 0.0000000000000000e+00  1.7783524282984531e-04 -5.9007787282711219e-06 0.0000000000000000e+00  2.2079426165251770e-04 -7.3574704381204116e-06 0.0000000000000000e+00  2.7333658424225370e-04 -9.1981542880533729e-06 0.0000000000000000e+00  3.3820683632391270e-04 -1.1601357382163100e-05 0.0000000000000000e+00  4.1913917766571755e-04 -1.4879885071683131e-05 0.0000000000000000e+00  5.2137495112085743e-04 -1.9614031847644407e-05 0.0000000000000000e+00  6.5248867657087832e-04 -2.6929061100205142e-05 0.0000000000000000e+00  8.2369668147888988e-04 -3.9072157967876398e-05 0.0000000000000000e+00  1.0519894070587827e-03 -6.0599383696261443e-05 0.0000000000000000e+00  0.0000000000000000e+00 0.0000000000000000e+00 0.0000000000000000e+00  1.4198489440357807e-05 -4.6126129742951329e-07 0.0000000000000000e+00  2.8961163342870496e-05 -9.3853662269779566e-07 0.0000000000000000e+00  4.4873974465659852e-05 -1.4481358235772138e-06 0.0000000000000000e+00  6.2574158410600447e-05 -2.0072314579596423e-06 0.0000000000000000e+00  8.2780171436230179e-05 -2.6343428704153945e-06 0.0000000000000000e+00  1.0632803705933149e-04 -3.3499565699523797e-06 0.0000000000000000e+00  1.3421822775997225e-04 -4.1774683149609854e-06 0.0000000000000000e+00  1.6767993827866202e-04 -5.1448770942001283e-06 0.0000000000000000e+00  2.0826482485919844e-04 -6.2882326057698604e-06 0.0000000000000000e+00  2.5799231341032993e-04 -7.6592062276117129e-06 0.0000000000000000e+00  3.1958777414056163e-04 -9.3425403206365923e-06 0.0000000000000000e+00  3.9689072557738084e-04 -1.1497791051939444e-05 0.0000000000000000e+00  4.9557336376427274e-04 -1.4462539971995256e-05 0.0000000000000000e+00  6.2440744906319125e-04 -1.9014495206385034e-05 0.0000000000000000e+00  7.9743470014497766e-04 -2.7044434922061711e-05 0.0000000000000000e+00  1.0375286463314480e-03 -4.3258006348561757e-05 0.0000000000000000e+00  0.0000000000000000e+00 0.0000000000000000e+00 0.0000000000000000e+00  1.2774341181280517e-05 -4.0405577881414612e-07 0.0000000000000000e+00  2.6056636911031537e-05 -8.2055317517249254e-07 0.0000000000000000e+00  4.0372834016180410e-05 -1.2617442589427281e-06 0.0000000000000000e+00  5.6294415132006760e-05 -1.7397125568766544e-06 0.0000000000000000e+00  7.4464600582129084e-05 -2.2660289964511866e-06 0.0000000000000000e+00  9.5629828971009745e-05 -2.8510514923411505e-06 0.0000000000000000e+00  1.2067986889537907e-04 -3.5026332312514173e-06 0.0000000000000000e+00  1.5070227066733011e-04 -4.2238793056028208e-06 0.0000000000000000e+00  1.8706175000317629e-04 -5.0094055227573306e-06 0.0000000000000000e+00  2.3152558141601402e-04 -5.8393350347964074e-06 0.0000000000000000e+00  2.8647924715034459e-04 -6.6702777573281287e-06 0.0000000000000000e+00  3.5532845398949527e-04 -7.4241088576128699e-06 0.0000000000000000e+00  4.4329810663697476e-04 -7.9844611035001497e-06 0.0000000000000000e+00  5.5907382707864981e-04 -8.2523572373288925e-06 0.0000000000000000e+00  7.1810715752942966e-04 -8.4795320880440315e-06 0.0000000000000000e+00  9.4857802821256721e-04 -1.0622575994590602e-05 0.0000000000000000e+00  0.0000000000000000e+00 0.0000000000000000e+00 0.0000000000000000e+00  1.0855515660994431e-05 -3.3482745910939095e-07 0.0000000000000000e+00  2.2141983166350175e-05 -6.7859938421623252e-07 0.0000000000000000e+00  3.4304048511921201e-05 -1.0397047439524690e-06 0.0000000000000000e+00  4.7823716796083466e-05 -1.4255502409366586e-06 0.0000000000000000e+00  6.3241153750541690e-05 -1.8415585848339433e-06 0.0000000000000000e+00  8.1178781380520875e-05 -2.2894045181990770e-06 0.0000000000000000e+00  1.0237036109841374e-04 -2.7638907830716124e-06 0.0000000000000000e+00  1.2769773499846885e-04 -3.2473972149133559e-06 0.0000000000000000e+00  1.5824020225642895e-04 -3.6999054255364671e-06 0.0000000000000000e+00  1.9534753490770630e-04 -4.0406678088321805e-06 0.0000000000000000e+00  2.4076457114406883e-04 -4.1133608723295032e-06 0.0000000000000000e+00  2.9688495750016539e-04 -3.6169299070797094e-06 0.0000000000000000e+00  3.6735943407575677e-04 -1.9623481417140067e-06 0.0000000000000000e+00  4.5871796039159571e-04 2.0286212218658080e-06 0.0000000000000000e+00  5.8482612803102761e-04 1.0688671686471734e-05 0.0000000000000000e+00  7.7748812951669057e-04 2.7698949732128694e-05 0.0000000000000000e+00  0.0000000000000000e+00 0.0000000000000000e+00 0.0000000000000000e+00  8.5195796471185059e-06 -2.5706811493087804e-07 0.0000000000000000e+00  1.7376171450642408e-05 -5.2001543077655595e-07 0.0000000000000000e+00  2.6916212094460356e-05 -7.9400323551318330e-07 0.0000000000000000e+00  3.7513934228551227e-05 -1.0828137225552579e-06 0.0000000000000000e+00  4.9586054250459826e-05 -1.3875487003796951e-06 0.0000000000000000e+00  6.3607616162264253e-05 -1.7043993003372590e-06 0.0000000000000000e+00  8.0128792859036457e-05 -2.0207443479729368e-06 0.0000000000000000e+00  9.9791549341905482e-05 -2.3082432573103053e-06 0.0000000000000000e+00  1.2334325519398304e-04 -2.5104138466142151e-06 0.0000000000000000e+00  1.5164116598981957e-04 -2.5197114070809003e-06 0.0000000000000000e+00  1.8563827304237041e-04 -2.1334508761935353e-06 0.0000000000000000e+00  2.2634823534599114e-04 -9.6334626501028950e-07 0.0000000000000000e+00  2.7486434235750686e-04 1.7692320699108422e-06 0.0000000000000000e+00  3.3293220975923107e-04 7.7640255921992605e-06 0.0000000000000000e+00  4.0655575955282755e-04 2.1275604648265873e-05 0.0000000000000000e+00  5.2361969148617031e-04 5.5367067209901795e-05 0.0000000000000000e+00  0.0000000000000000e+00 0.0000000000000000e+00 0.0000000000000000e+00  5.8602789933871999e-06 -1.7382398843887587e-07 0.0000000000000000e+00  1.1951249238890409e-05 -3.5107005388061025e-07 0.0000000000000000e+00  1.8509236997346320e-05 -5.3451291104561734e-07 0.0000000000000000e+00  2.5788515446624176e-05 -7.2564590080256810e-07 0.0000000000000000e+00  3.4070173082723715e-05 -9.2350919256812291e-07 0.0000000000000000e+00  4.3670673466960171e-05 -1.1227131489958915e-06 0.0000000000000000e+00  5.4948721823156114e-05 -1.3100310572462253e-06 0.0000000000000000e+00  6.8306906404293628e-05 -1.4584791291694641e-06 0.0000000000000000e+00  8.4179602437494714e-05 -1.5169816620553877e-06 0.0000000000000000e+00  1.0298691562006686e-04 -1.3922475684200120e-06 0.0000000000000000e+00  1.2500660462114394e-04 -9.1681067621930311e-07 0.0000000000000000e+00  1.5005075057239917e-04 2.0800333519209800e-07 0.0000000000000000e+00  1.7669729071648668e-04 2.5182266255485481e-06 0.0000000000000000e+00  2.0067849927351972e-04 7.0180852228371605e-06 0.0000000000000000e+00  2.1305970671599286e-04 1.5935454808146492e-05 0.0000000000000000e+00  2.1098829313866632e-04 3.6969746011155490e-05 0.0000000000000000e+00  0.0000000000000000e+00 0.0000000000000000e+00 0.0000000000000000e+00  2.9829807235248577e-06 -8.7520550455747046e-08 0.0000000000000000e+00  6.0827526151641577e-06 -1.7657717019371690e-07 0.0000000000000000e+00  9.4186347142896889e-06 -2.6832708317754962e-07 0.0000000000000000e+00  1.3118540818092263e-05 -3.6316880322605328e-07 0.0000000000000000e+00  1.7322952752786344e-05 -4.6006084561732698e-07 0.0000000000000000e+00  2.2188271073447944e-05 -5.5538724851528267e-07 0.0000000000000000e+00  2.7888311367373523e-05 -6.4103327578087627e-07 0.0000000000000000e+00  3.4610941935304585e-05 -7.0112447416556868e-07 0.0000000000000000e+00  4.2542549234213733e-05 -7.0658265177416164e-07 0.0000000000000000e+00  5.1821985986872285e-05 -6.0639256670720269e-07 0.0000000000000000e+00  6.2415420088883538e-05 -3.1504259688161729e-07 0.0000000000000000e+00  7.3773590896602034e-05 2.9927799636064471e-07 0.0000000000000000e+00  8.3842323369413279e-05 1.3947185869936175e-06 0.0000000000000000e+00  8.6006967045565278e-05 2.9503597524999022e-06 0.0000000000000000e+00  5.9509323740359975e-05 3.7043360101894879e-06 0.0000000000000000e+00  -5.2486561127684125e-05 -2.6411495353745976e-06 0.0000000000000000e+00  0.0000000000000000e+00 0.0000000000000000e+00 0.0000000000000000e+00  0.0000000000000000e+00 0.0000000000000000e+00 0.0000000000000000e+00  0.0000000000000000e+00 0.0000000000000000e+00 0.0000000000000000e+00  0.0000000000000000e+00 0.0000000000000000e+00 0.0000000000000000e+00  0.0000000000000000e+00 0.0000000000000000e+00 0.0000000000000000e+00  0.0000000000000000e+00 0.0000000000000000e+00 0.0000000000000000e+00  0.0000000000000000e+00 0.0000000000000000e+00 0.0000000000000000e+00  0.0000000000000000e+00 0.0000000000000000e+00 0.0000000000000000e+00  0.0000000000000000e+00 0.0000000000000000e+00 0.0000000000000000e+0