<?xml version="1.0"?>
<VTKFile type="UnstructuredGrid"  version="0.1"  >
<UnstructuredGrid>
<Piece  NumberOfPoints="289" NumberOfCells="512">
<Points>
<DataArray  type="Float64"  NumberOfComponents="3"  format="ascii">0 0 0  0.0625 0 0  0.125 0 0  0.1875 0 0  0.25 0 0  0.3125 0 0  0.375 0 0  0.4375 0 0  0.5 0 0  0.5625 0 0  0.625 0 0  0.6875 0 0  0.75 0 0  0.8125 0 0  0.875 0 0  0.9375 0 0  1 0 0  0 0.0625 0  0.06257299564727682 0.06249854554032726 0  0.1251482266405957 0.06249704513407946 0  0.1877279441323894 0.06249545265290789 0  0.2503144208263444 0.0624937219806875 0  0.3129099475719429 0.06249180770188641 0  0.3755168142794892 0.06248966671915822 0  0.4381372749572136 0.06248726125915634 0  0.5007735079153602 0.06248456375631372 0  0.5634276115141785 0.06248156385175413 0  0.6261017523398943 0.06247827644531317 0  0.688798790487957 0.06247474462945025 0  0.7515243101770254 0.0624710115912832 0  0.8142928829104554 0.06246695596219024 0  0.8771478773733219 0.06246154692060346 0  0.9402281926471991 0.06244956357738145 0  1.004014127010752 0.06240657599432326 0  0 0.125 0  0.06264383734893512 0.1249971348853636 0  0.1252921424199457 0.124994177707609 0  0.1879494211710551 0.1249910357608728 0  0.2506202360323406 0.1249876157552958 0  0.3133092043047451 0.1249838248032283 0  0.376020961027902 0.1249795731911533 0  0.4387600786728182 0.1249747799271858 0  0.5015309476562281 0.1249693823539114 0  0.5643376515563411 0.1249633513936829 0  0.6271839404696753 0.1249567142120451 0  0.6900735572696121 0.1249495869438129 0  0.7530114719859711 0.1249422272424854 0  0.8160070425298565 0.1249351626855197 0  0.8790800582378997 0.1249297122221941 0  0.9422647656841815 0.1249306054721813 0  1.005563973303066 0.1249596221930268 0  0 0.1875 0  0.06271029132003704 0.1874958141874866 0  0.1254272595346591 0.1874914904245979 0  0.1881576548125859 0.1874868891606017 0  0.2509083449478971 0.1874818685590779 0  0.3136863279308383 0.1874762850194877 0  0.3764986852340788 0.1874699961014728 0  0.4393524525579052 0.1874628673409714 0  0.5022543862093467 0.1874547851034927 0  0.5652106116671385 0.1874456784931222 0  0.6282261596489874 0.1874355544295246 0  0.691304416879398 0.1874245513161501 0  0.7544464853304285 0.187413017846305 0  0.8176501105129215 0.1874016187202094 0  0.880906397999384 0.1873914082448805 0  0.9441879211372838 0.1873833390827038 0  1.007411999313097 0.1873735118543402 0  0 0.25 0  0.0627701479115339 0.2499946293408429 0  0.12554912547961 0.2499890759796867 0  0.1883458892776635 0.249983154024454 0  0.2511696145923194 0.2499766721576926 0  0.3140297449011923 0.2499694326269071 0  0.3769359597482471 0.2499612328053758 0  0.4398980186971261 0.249951871126377 0  0.5029254258832552 0.2499411602076125 0  0.5660268420249019 0.249928951482233 0  0.6292091435115991 0.2499151776823736 0  0.6924759734922362 0.249899921756492 0  0.7558254961190155 0.2498835215772875 0  0.819246731727217 0.2498667133008774 0  0.8827131301865564 0.2498507877445492 0  0.9461710294597556 0.2498376817392237 0  1.009521571333289 0.2498302017905672 0  0 0.3125 0  0.06282125507630928 0.3124936250683146 0  0.1256533837747575 0.3124870253734651 0  0.188507463615995 0.3124799707360722 0  0.2513949435294777 0.3124722209192746 0  0.3143277641219372 0.3124635218809088 0  0.3773183836464261 0.3124536041187221 0  0.4403796512762067 0.3124421848630225 0  0.5035244420679242 0.3124289771441403 0  0.5667649282332625 0.3124137108776857 0  0.6301113037847618 0.3123961744647382 0  0.6935696965111774 0.3123762903365145 0  0.7571388851911129 0.3123542442474502 0  0.8208053059525504 0.3123306947980629 0  0.8845358092202269 0.3123070964031147 0  0.9482682422164365 0.3122861923990808 0  1.011902650225623 0.3122728605176464 0  0 0.375 0  0.06286157095015707 0.3749928433644524 0  0.1257358742461475 0.3749854248068052 0  0.1886359480482642 0.3749774742900693 0  0.2515754115091016 0.3749687059139324 0  0.3145686978610218 0.3749588103463933 0  0.3776311985522399 0.3749474481191371 0  0.4407792528448516 0.3749342449529784 0  0.5040298788508113 0.3749187915146462 0  0.5674000844146937 0.3749006523654462 0  0.6309055146406018 0.3748793932593665 0  0.6945580871837271 0.3748546438428034 0  0.7583621549665565 0.3748262261762786 0  0.8223086882883125 0.3747944000132343 0  0.8863671728229607 0.374760301267686 0  0.9504757773750561 0.3747266608025162 0  1.014532431200729 0.3746987914211038 0  0 0.4375 0  0.06288924037396852 0.4374923212878445 0  0.125792784417621 0.4374843511035421 0  0.1887253649905667 0.4374757870267842 0  0.251702556772112 0.4374663045185792 0  0.3147411654756394 0.4374555449137285 0  0.3778595581569466 0.4374431023815554 0  0.4410778757966865 0.4374285098110549 0  0.5044180244461692 0.4374112242448917 0  0.5679032702140787 0.4373906141719638 0  0.6315571569733804 0.4373659549810424 0  0.6954013188772112 0.4373364478311329 0  0.7594515860193423 0.4373012961249494 0  0.8237116426985047 0.4372599109359591 0  0.888163550646856 0.4372123822387132 0  0.9527549744188636 0.4371604491430049 0  1.017384221291228 0.4371092997123763 0  0 0.5 0  0.06290269695254759 0.4999920882651586 0  0.1258208571594013 0.4999838659795822 0  0.1887705079719885 0.4999750091446203 0  0.251768810664458 0.4999651659888183 0  0.3148346402786053 0.4999539406997365 0  0.3779891643534073 0.499940873929155 0  0.4412563866090092 0.4999254183504606 0  0.504663578544619 0.4999069070252024 0  0.5682414467240007 0.4998845120021548 0  0.6320237575817527 0.4998571914161921 0  0.6960459413674154 0.4998236282124805 0  0.7603419022358793 0.4997821797319809 0  0.8249378805874127 0.4997309013193041 0  0.8898418359527556 0.4996678119807563 0  0.9550266909879378 0.4995917898029082 0  1.020406326698561 0.499504876524385 0  0 0.5625 0  0.06290078707955218 0.5624921632436972 0  0.1258176488496496 0.5624840098756745 0  0.1887673539016194 0.5624752081672726 0  0.2517680927961105 0.5624653947217561 0  0.314840262180468 0.5624541551094356 0  0.3780073306094937 0.5624409994214392 0  0.4412967971244564 0.5624253293719716 0  0.5047412254299308 0.5624063915146018 0  0.5683792766333654 0.5623832076668323 0  0.6322565432975683 0.562354468231101 0  0.6964257578220554 0.5623183670733344 0  0.7609455320384821 0.5622723521985923 0  0.8258760834380341 0.5622127818040151 0  0.8912693512136032 0.5621345624094903 0  0.9571496548077372 0.562031130703902 0  1.023480356998409 0.5618958391803477 0  0 0.625 0  0.06288290581596058 0.6249925521608771 0  0.1257818180737665 0.6249847963917342 0  0.1887135398556665 0.6249764091926572 0  0.2516965320220343 0.6249670341904884 0  0.3147518825498687 0.6249562617141744 0  0.3779044547850015 0.6249436024959254 0  0.4411842878598602 0.6249284512656648 0  0.5046283260193942 0.6249100328053717 0  0.5682825396654926 0.6248873167172827 0  0.632204439698192 0.6248588746807004 0  0.6964658131061868 0.6248226296625856 0  0.7611550875634718 0.6247754015570589 0  0.8263778123048583 0.6247120809665984 0  0.8922519208514937 0.6246241868951211 0  0.9588913693856115 0.6244976568939008 0  1.026368199206206 0.624310657218229 0  0 0.6875 0  0.0628491277300573 0.687493246231226 0  0.1257134096621074 0.6874862084653485 0  0.1886088483372914 0.6874785880396985 0  0.2515532335520641 0.6874700552716855 0  0.3145672370165324 0.687460230396588 0  0.3776757782100786 0.6874486593327203 0  0.4409098035162058 0.6874347806105592 0  0.5043086707949233 0.6874178768424462 0  0.567923397112271 0.6873969976411198 0  0.6318210979061104 0.6873708261526416 0  0.6960909794555199 0.6873374265953419 0  0.7608521148290962 0.6872937265810811 0  0.8262625870588119 0.6872343877663694 0  0.8925275555200859 0.6871492580942887 0  0.9598985604963198 0.6870176409808685 0  1.028645532781619 0.6867959630068782 0  0 0.75 0  0.06280031044177999 0.7499942214443672 0  0.125614086177237 0.749988197214841 0  0.1884556205440438 0.7499816690738595 0  0.2513409685005079 0.7499743523135226 0  0.3142890656617565 0.7499659201239336 0  0.3773231804424783 0.7499559847545678 0  0.4404728979931889 0.7499440737691476 0  0.5037769345278089 0.7499295987264274 0  0.5672872426139863 0.7499118112529555 0  0.6310751262238521 0.7498897349295116 0  0.6952404846770133 0.7498620416463228 0  0.7599258843181383 0.7498267779428708 0  0.8253378367595331 0.7497806390468902 0  0.8917777846588584 0.7497168051808749 0  0.9596818611087422 0.7496182297762402 0  1.029651559184513 0.7494376619761746 0  0 0.8125 0  0.06273814660822538 0.8124954394281712 0  0.1254872531931811 0.8124906838141215 0  0.1882590033914548 0.8124855284566385 0  0.2510666318628441 0.8124797484793672 0  0.3139259371004557 0.8124730877007496 0  0.3768566343569753 0.8124652465928316 0  0.4398842690036951 0.8124558699785169 0  0.503043042848878 0.8124445368478599 0  0.5663801406664353 0.8124307587104665 0  0.6299625685910751 0.8124140022023962 0  0.6938883049114016 0.8123937727955574 0  0.7583050825085267 0.8123698419887312 0  0.823443167749812 0.8123427781578461 0  0.8896747932283744 0.8123149145026065 0  0.9576247126959966 0.8122903856258997 0  1.028354505287472 0.8122604938567052 0  0 0.875 0  0.06266514318540543 0.8749968495320934 0  0.1253380301071017 0.8749935640463811 0  0.1880269413898892 0.8749900021155392 0  0.2507413143044875 0.8749860090707925 0  0.3134925125233021 0.8749814103007524 0  0.376294874772141 0.8749760051386246 0  0.4391672326897925 0.8749695632850101 0  0.5021352143393307 0.8749618288231255 0  0.5652348851111865 0.8749525443208974 0  0.6285187308766118 0.874941525941182 0  0.6920659016042294 0.8749288689967 0  0.7560005963472654 0.8749155034396715 0  0.820527127047609 0.8749047767566256 0  0.8860032897461162 0.8749074819728923 0  0.9531227834628978 0.8749605675665435 0  1.02356039570253 0.8752128707899232 0  0 0.9375 0  0.0625845157957681 0.9374983917464611 0  0.1251730371325791 0.9374967145991652 0  0.1877698548329558 0.9374948965148369 0  0.2503798760579828 0.937492859004999 0  0.3130090387553437 0.9374905141183898 0  0.3756648822767128 0.9374877621794888 0  0.4383573836007474 0.937484491
[...]
<PointData  Vectors="f_54"> 
<DataArray  type="Float64"  Name="f_54"  NumberOfComponents="3" format="ascii">0.0000000000000000e+00 0.0000000000000000e+00 0.0000000000000000e+00  0.0000000000000000e+00 0.0000000000000000e+00 0.0000000000000000e+00  0.0000000000000000e+00 0.0000000000000000e+00 0.0000000000000000e+00  0.0000000000000000e+00 0.0000000000000000e+00 0.0000000000000000e+00  0.0000000000000000e+00 0.0000000000000000e+00 0.0000000000000000e+00  0.0000000000000000e+00 0.0000000000000000e+00 0.0000000000000000e+00  0.0000000000000000e+00 0.0000000000000000e+00 0.0000000000000000e+00  0.0000000000000000e+00 0.0000000000000000e+00 0.0000000000000000e+00  0.0000000000000000e+00 0.0000000000000000e+00 0.0000000000000000e+00  0.0000000000000000e+00 0.0000000000000000e+00 0.0000000000000000e+00  0.0000000000000000e+00 0.0000000000000000e+00 0.0000000000000000e+00  0.0000000000000000e+00 0.0000000000000000e+00 0.0000000000000000e+00  0.0000000000000000e+00 0.0000000000000000e+00 0.0000000000000000e+00  0.0000000000000000e+00 0.0000000000000000e+00 0.0000000000000000e+00  0.0000000000000000e+00 0.0000000000000000e+00 0.0000000000000000e+00  0.0000000000000000e+00 0.0000000000000000e+00 0.0000000000000000e+00  0.0000000000000000e+00 0.0000000000000000e+00 0.0000000000000000e+00  0.0000000000000000e+00 0.0000000000000000e+00 0.0000000000000000e+00  1.3803571158355520e-06 -6.3776504798834089e-08 0.0000000000000000e+00  2.8194308005717832e-06 -1.2994084560810023e-07 0.0000000000000000e+00  4.3789755450458173e-06 -2.0096345595186649e-07 0.0000000000000000e+00  6.1268041931839025e-06 -2.7946970893120150e-07 0.0000000000000000e+00  8.1403567222229123e-06 -3.6831558222084676e-07 0.0000000000000000e+00  1.0511054214584223e-05 -4.7065917976598518e-07 0.0000000000000000e+00  1.3350081731613047e-05 -5.9002627973714937e-07 0.0000000000000000e+00  1.6796967199044406e-05 -7.3037590218344199e-07 0.0000000000000000e+00  2.1034177246636211e-05 -8.9620817208328789e-07 0.0000000000000000e+00  2.6315873136845172e-05 -1.0928935189371142e-06 0.0000000000000000e+00  3.3032648844065910e-05 -1.3278928384093576e-06 0.0000000000000000e+00  4.1874297074182317e-05 -1.6153156232338360e-06 0.0000000000000000e+00  5.4278973348132946e-05 -1.9929511247802664e-06 0.0000000000000000e+00  7.3783941861768274e-05 -2.5873949622227291e-06 0.0000000000000000e+00  1.1046545009837278e-04 -3.8749483979892668e-06 0.0000000000000000e+00  1.9732309181443145e-04 -7.8218291000437725e-06 0.0000000000000000e+00  0.0000000000000000e+00 0.0000000000000000e+00 0.0000000000000000e+00  2.7052475079241909e-06 -1.2531463401843192e-07 0.0000000000000000e+00  5.5255344897328605e-06 -2.5534957207429242e-07 0.0000000000000000e+00  8.5818477628132134e-06 -3.9499312797393826e-07 0.0000000000000000e+00  1.2007031650337172e-05 -5.4945113601812087e-07 0.0000000000000000e+00  1.5952687224712520e-05 -7.2440382749819578e-07 0.0000000000000000e+00  2.0597391884484949e-05 -9.2615440292560499e-07 0.0000000000000000e+00  2.6157117397417051e-05 -1.1617580109913030e-06 0.0000000000000000e+00  3.2899493359532052e-05 -1.4391139662835553e-06 0.0000000000000000e+00  4.1165375978444372e-05 -1.7670032870213731e-06 0.0000000000000000e+00  5.1405424239499013e-05 -2.1550686264166562e-06 0.0000000000000000e+00  6.4249045198182031e-05 -2.6137546959603680e-06 0.0000000000000000e+00  8.0643603063481768e-05 -3.1540132352953969e-06 0.0000000000000000e+00  1.0213767045663871e-04 -3.7843884301970689e-06 0.0000000000000000e+00  1.3140095697944742e-04 -4.4888298076805769e-06 0.0000000000000000e+00  1.7277903213456291e-04 -5.0876413892402578e-06 0.0000000000000000e+00  2.3020368127763685e-04 -4.4470993383825176e-06 0.0000000000000000e+00  0.0000000000000000e+00 0.0000000000000000e+00 0.0000000000000000e+00  3.9182994644966552e-06 -1.8227889983591738e-07 0.0000000000000000e+00  8.0027576730499706e-06 -3.7147454910479604e-07 0.0000000000000000e+00  1.2428082768006367e-05 -5.7475917161651611e-07 0.0000000000000000e+00  1.7386042933427818e-05 -7.9979363334956027e-07 0.0000000000000000e+00  2.3095258698603001e-05 -1.0549748033594755e-06 0.0000000000000000e+00  2.9812556509240473e-05 -1.3496764245707643e-06 0.0000000000000000e+00  3.7846561782577959e-05 -1.6944626611339106e-06 0.0000000000000000e+00  4.7574407386605267e-05 -2.1012272893241333e-06 0.0000000000000000e+00  5.9462768152209132e-05 -2.5831599325457527e-06 0.0000000000000000e+00  7.4094827179980530e-05 -3.1543348578649838e-06 0.0000000000000000e+00  9.2204375184380308e-05 -3.8284866794063754e-06 0.0000000000000000e+00  1.1471278376516476e-04 -4.6160172646404868e-06 0.0000000000000000e+00  1.4273745304791758e-04 -5.5172621777100194e-06 0.0000000000000000e+00  1.7743613856901680e-04 -6.5097648271273195e-06 0.0000000000000000e+00  2.1922019107852370e-04 -7.5430174492922091e-06 0.0000000000000000e+00  2.6509294274236478e-04 -8.7000460674612146e-06 0.0000000000000000e+00  0.0000000000000000e+00 0.0000000000000000e+00 0.0000000000000000e+00  4.9683971235764012e-06 -2.3247196263929382e-07 0.0000000000000000e+00  1.0146336617340448e-05 -4.7383725223300336e-07 0.0000000000000000e+00  1.5754071354587964e-05 -7.3333164892872330e-07 0.0000000000000000e+00  2.2033299468722156e-05 -1.0208561460419474e-06 0.0000000000000000e+00  2.9259393222294579e-05 -1.3473260824513338e-06 0.0000000000000000e+00  3.7755349875198495e-05 -1.7250297100086628e-06 0.0000000000000000e+00  4.7907849407615351e-05 -2.1679782781800076e-06 0.0000000000000000e+00  6.0185348711287887e-05 -2.6921946146164024e-06 0.0000000000000000e+00  7.5156974731692384e-05 -3.3158105259562905e-06 0.0000000000000000e+00  9.3508117346654786e-05 -4.0586795288243291e-06 0.0000000000000000e+00  1.1604172956019086e-04 -4.9408744104781108e-06 0.0000000000000000e+00  1.4363799335530771e-04 -5.9787956407143881e-06 0.0000000000000000e+00  1.7710770144691869e-04 -7.1765649100930762e-06 0.0000000000000000e+00  2.1679764838716459e-04 -8.5091671131767896e-06 0.0000000000000000e+00  2.6168491431371592e-04 -9.8927808186983008e-06 0.0000000000000000e+00  3.0766807143860561e-04 -1.1123442422534430e-05 0.0000000000000000e+00  0.0000000000000000e+00 0.0000000000000000e+00 0.0000000000000000e+00  5.8122040546470558e-06 -2.7391864480170224e-07 0.0000000000000000e+00  1.1867467418695146e-05 -5.5840233949432857e-07 0.0000000000000000e+00  1.8421167476472417e-05 -8.6443978075489908e-07 0.0000000000000000e+00  2.5753512248173497e-05 -1.2038567277821232e-06 0.0000000000000000e+00  3.4183777213730292e-05 -1.5897734437258932e-06 0.0000000000000000e+00  4.4086613236820371e-05 -2.0371044060409291e-06 0.0000000000000000e+00  5.5910806350597443e-05 -2.5631047801529835e-06 0.0000000000000000e+00  7.0200141025946074e-05 -3.1879457470476757e-06 0.0000000000000000e+00  8.7614232280681741e-05 -3.9352427419289257e-06 0.0000000000000000e+00  1.0894317419068845e-04 -4.8323200847965734e-06 0.0000000000000000e+00  1.3510141634881544e-04 -5.9096753926356305e-06 0.0000000000000000e+00  1.6706985844389328e-04 -7.1984247133073490e-06 0.0000000000000000e+00  2.0572664962896625e-04 -8.7231554178956884e-06 0.0000000000000000e+00  2.5146813172126115e-04 -1.0485097197438956e-05 0.0000000000000000e+00  3.0350065692952305e-04 -1.2425916979675210e-05 0.0000000000000000e+00  3.5878605447021511e-04 -1.4353948272212032e-05 0.0000000000000000e+00  0.0000000000000000e+00 0.0000000000000000e+00 0.0000000000000000e+00  6.4162788826614321e-06 -3.0495078994007697e-07 0.0000000000000000e+00  1.3097644927866521e-05 -6.2175238194677433e-07 0.0000000000000000e+00  2.0322433341141961e-05 -9.6274671241362392e-07 0.0000000000000000e+00  2.8395948681148993e-05 -1.3412622191927307e-06 0.0000000000000000e+00  3.7666191143562060e-05 -1.7721722144975429e-06 0.0000000000000000e+00  4.8542298162156799e-05 -2.2725380139542355e-06 0.0000000000000000e+00  6.1516548471496205e-05 -2.8623791481883599e-06 0.0000000000000000e+00  7.7190335251942958e-05 -3.5656248164790687e-06 0.0000000000000000e+00  9.6303218026168560e-05 -4.4113087832321453e-06 0.0000000000000000e+00  1.1976103958433007e-04 -5.4350502415152638e-06 0.0000000000000000e+00  1.4865248283903458e-04 -6.6807435911179499e-06 0.0000000000000000e+00  1.8423103598783406e-04 -8.2019682362554897e-06 0.0000000000000000e+00  2.2781941283370338e-04 -1.0061463990392405e-05 0.0000000000000000e+00  2.8056926914776591e-04 -1.2324124823731074e-05 0.0000000000000000e+00  3.4299793785839841e-04 -1.5032730927393117e-05 0.0000000000000000e+00  4.1426359046365903e-04 -1.8145175501413264e-05 0.0000000000000000e+00  0.0000000000000000e+00 0.0000000000000000e+00 0.0000000000000000e+00  6.7586795581448129e-06 -3.2428799073446811e-07 0.0000000000000000e+00  1.3791996886056765e-05 -6.6125720290845395e-07 0.0000000000000000e+00  2.1387949133641030e-05 -1.0241250892287333e-06 0.0000000000000000e+00  2.9862053137088608e-05 -1.4272015217748409e-06 0.0000000000000000e+00  3.9573759114387624e-05 -1.8865207168652135e-06 0.0000000000000000e+00  5.0946358194940949e-05 -2.4205936007484076e-06 0.0000000000000000e+00  6.4492067518089174e-05 -3.0513599679896418e-06 0.0000000000000000e+00  8.0844324177895208e-05 -3.8054739025155473e-06 0.0000000000000000e+00  1.0079946858487059e-04 -4.7161576291973072e-06 0.0000000000000000e+00  1.2536941867197446e-04 -5.8260406803188460e-06 0.0000000000000000e+00  1.5584452370981887e-04 -7.1916931527820535e-06 0.0000000000000000e+00  1.9385955716001986e-04 -8.8909213085888434e-06 0.0000000000000000e+00  2.4144284580202732e-04 -1.1033963875131360e-05 0.0000000000000000e+00  3.0100574383564853e-04 -1.3778172581321515e-05 0.0000000000000000e+00  3.7519518187047028e-04 -1.7338751410882943e-05 0.0000000000000000e+00  4.6648205914698445e-04 -2.1966415569193457e-05 0.0000000000000000e+00  0.0000000000000000e+00 0.0000000000000000e+00 0.0000000000000000e+00  6.8299350582666463e-06 -3.3110639126153608e-07 0.0000000000000000e+00  1.3931376107136992e-05 -6.7522041230814926e-07 0.0000000000000000e+00  2.1588363951180571e-05 -1.0459023029799196e-06 0.0000000000000000e+00  3.0111076169430088e-05 -1.4578504072789333e-06 0.0000000000000000e+00  3.9851716504584249e-05 -1.9275616837037730e-06 0.0000000000000000e+00  5.1224413220314407e-05 -2.4741234039738652e-06 0.0000000000000000e+00  6.4731663896964450e-05 -3.1202288831444941e-06 0.0000000000000000e+00  8.1001242245757043e-05 -3.8935878503082362e-06 0.0000000000000000e+00  1.0083965575594794e-04 -4.8290716914363168e-06 0.0000000000000000e+00  1.2531143119436349e-04 -5.9723031546353973e-06 0.0000000000000000e+00  1.5585759599466467e-04 -7.3861864763276486e-06 0.0000000000000000e+00  1.9447045045885311e-04 -9.1634609114927578e-06 0.0000000000000000e+00  2.4394087142594960e-04 -1.1451240925093907e-05 0.0000000000000000e+00  3.0817869153027346e-04 -1.4497659561803172e-05 0.0000000000000000e+00  3.9255628380819907e-04 -1.8733227957634945e-05 0.0000000000000000e+00  5.0411029202224373e-04 -2.4888140057576373e-05 0.0000000000000000e+00  0.0000000000000000e+00 0.0000000000000000e+00 0.0000000000000000e+00  6.6332395916953188e-06 -3.2508675106692029e-07 0.0000000000000000e+00  1.3522879130828797e-05 -6.6298239757580001e-07 0.0000000000000000e+00  2.0936077724518144e-05 -1.0270349560928260e-06 0.0000000000000000e+00  2.9162663235731624e-05 -1.4317114256907039e-06 0.0000000000000000e+00  3.8528947144176221e-05 -1.8932369463799099e-06 0.0000000000000000e+00  4.9415317293363323e-05 -2.4303433847307803e-06 0.0000000000000000e+00  6.2280512229773632e-05 -3.0651949327475237e-06 0.0000000000000000e+00  7.7697698031826539e-05 -3.8246131911464663e-06 0.0000000000000000e+00  9.6411557698753670e-05 -4.7418626579022568e-06 0.0000000000000000e+00  1.1943292011215174e-04 -5.8596197722754017e-06 0.0000000000000000e+00  1.4819989775029628e-04 -7.2357046025090401e-06 0.0000000000000000e+00  1.8485377375721538e-04 -8.9556345140816048e-06 0.0000000000000000e+00  2.3270250648770182e-04 -1.1162219334590364e-05 0.0000000000000000e+00  2.9696225130783203e-04 -1.4126549717042131e-05 0.0000000000000000e+00  3.8584090421347420e-04 -1.8412921632760952e-05 0.0000000000000000e+00  5.1189013797285925e-04 -2.5232876188979913e-05 0.0000000000000000e+00  0.0000000000000000e+00 0.0000000000000000e+00 0.0000000000000000e+00  6.1837414511976563e-06 -3.0643499558243810e-07 0.0000000000000000e+00  1.2598455689368425e-05 -6.2496336453192963e-07 0.0000000000000000e+00  1.9483315783758510e-05 -9.6817883332666279e-07 0.0000000000000000e+00  2.7094869967029248e-05 -1.3497200992344375e-06 0.0000000000000000e+00  3.5717220767232569e-05 -1.7848513756889289e-06 0.0000000000000000e+00  4.5674677044279273e-05 -2.2911109237742240e-06 0.0000000000000000e+00  5.7349192324082979e-05 -2.8890408638313051e-06 0.0000000000000000e+00  7.1207218901457492e-05 -3.6029949062217410e-06 0.0000000000000000e+00  8.7845441941200280e-05 -4.4619960239861127e-06 0.0000000000000000e+00  1.0807480512075533e-04 -5.5006243933091443e-06 0.0000000000000000e+00  1.3308219900883090e-04 -6.7601753664089262e-06 0.0000000000000000e+00  1.6474742714348006e-04 -8.2917257846324339e-06 0.0000000000000000e+00  2.0626021732849677e-04 -1.0168430995938374e-05 0.0000000000000000e+00  2.6328065556075245e-04 -1.2534249483700347e-05 0.0000000000000000e+00  3.4597596327062450e-04 -1.5777239988431334e-05 0.0000000000000000e+00  4.7220251609707639e-04 -2.1075338871481102e-05 0.0000000000000000e+00  0.0000000000000000e+00 0.0000000000000000e+00 0.0000000000000000e+00  5.5068944055930227e-06 -2.7587331925191238e-07 0.0000000000000000e+00  1.1211461737182678e-05 -5.6264190058191775e-07 0.0000000000000000e+00  1.7316618073935445e-05 -8.7164496463437960e-07 0.0000000000000000e+00  2.4036325311799418e-05 -1.2151558752771150e-06 0.0000000000000000e+00  3.1601087293904050e-05 -1.6068906328616025e-06 0.0000000000000000e+00  4.0263625097661449e-05 -2.0625531093014980e-06 0.0000000000000000e+00  5.0305340462896083e-05 -2.6003864983826413e-06 0.0000000000000000e+00  6.2045414827199724e-05 -3.2416112422271856e-06 0.0000000000000000e+00  7.5857652829056373e-05 -4.0104023929061211e-06 0.0000000000000000e+00  9.2208470855439581e-05 -4.9325030600062819e-06 0.0000000000000000e+00  1.1174996677646148e-04 -6.0302808627029881e-06 0.0000000000000000e+00  1.3555139864855495e-04 -7.3093365999727969e-06 0.0000000000000000e+00  1.6566560249925839e-04 -8.7274739504033440e-06 0.0000000000000000e+00  2.0646265373967720e-04 -1.0136646800093130e-05 0.0000000000000000e+00  2.6756041919226501e-04 -1.1229255702213603e-05 0.0000000000000000e+00  3.6954549743493280e-04 -1.1753893082778419e-05 0.0000000000000000e+00  0.0000000000000000e+00 0.0000000000000000e+00 0.0000000000000000e+00  4.6360174647139276e-06 -2.3460541619641715e-07 0.0000000000000000e+00  9.4314111882802633e-06 -4.7847870950446456e-07 0.0000000000000000e+00  1.4547991894973900e-05 -7.4126381190853126e-07 0.0000000000000000e+00  2.0152476102215946e-05 -1.0334050944929624e-06 0.0000000000000000e+00  2.6417289994939674e-05 -1.3665881298528552e-06 0.0000000000000000e+00  3.3518908225570820e-05 -1.7542213719350538e-06 0.0000000000000000e+00  4.1631939730356704e-05 -2.2119388374606628e-06 0.0000000000000000e+00  5.0916239542242370e-05 -2.7580187184613806e-06 0.0000000000000000e+00  6.1493352509346192e-05 -3.4133560619154257e-06 0.0000000000000000e+00  7.3408904647071445e-05 -4.1998617113496441e-06 0.0000000000000000e+00  8.6584259359165258e-05 -5.1338733245396543e-06 0.0000000000000000e+00  1.0079138420515896e-04 -6.2043216312785682e-06 0.0000000000000000e+00  1.1579526376086911e-04 -7.3050763532552236e-06 0.0000000000000000e+00  1.3215881740187083e-04 -8.0331140830581799e-06 0.0000000000000000e+00  1.5415203116008212e-04 -7.1233023789161237e-06 0.0000000000000000e+00  1.9790843953698851e-04 -1.1219115392316297e-06 0.0000000000000000e+00  0.0000000000000000e+00 0.0000000000000000e+00 0.0000000000000000e+00  3.6094241073156091e-06 -1.8426250653651270e-07 0.0000000000000000e+00  7.3377011368277290e-06 -3.7580323482696753e-07 0.0000000000000000e+00  1.1304013491684777e-05 -5.8219851705952305e-07 0.0000000000000000e+00  1.5627810833356357e-05 -8.1166934886921026e-07 0.0000000000000000e+00  2.0426182238721852e-05 -1.0734548521879122e-06 0.0000000000000000e+00  2.5806819457012155e-05 -1.3782599424656271e-06 0.0000000000000000e+00  3.1852722265949292e-05 -1.7388231154237783e-06 0.0000000000000000e+00  3.8591527468686889e-05 -2.1706716558873517e-06 0.0000000000000000e+00  4.5936076525846995e-05 -2.6931418413599565e-06 0.0000000000000000e+00  5.3570945065921839e-05 -3.3306324416021618e-06 0.0000000000000000e+00  6.0737986712433701e-05 -4.1133082555601506e-06 0.0000000000000000e+00  6.5839665827818056e-05 -5.0727070464357062e-06 0.0000000000000000e+00  6.5753298544042480e-05 -6.2101839730408537e-06 0.0000000000000000e+00  5.4905018947110127e-05 -7.3345917538924298e-06 0.0000000000000000e+00  2.5429811194536910e-05 -7.2754513080668123e-06 0.0000000000000000e+00  -2.4258470344360638e-05 -1.2481088194815093e-07 0.0000000000000000e+00  0.0000000000000000e+00 0.0000000000000000e+00 0.0000000000000000e+00  2.4676477955060761e-06 -1.2683564896088339e-07 0.0000000000000000e+00  5.0135145387018900e-06 -2.5867708225260326e-07 0.0000000000000000e+00  7.7151062372675943e-06 -4.0073841708649662e-07 0.0000000000000000e+00  1.0647954291036544e-05 -5.5869188742477956e-07 0.0000000000000000e+00  1.3881784419079659e-05 -7.3895183714897936e-07 0.0000000000000000e+00  1.7472014086041993e-05 -9.4905493146409320e-07 0.0000000000000000e+00  2.1442193844907945e-05 -1.1982416869968985e-06 0.0000000000000000e+00  2.5748745134354712e-05 -1.4984824560433552e-06 0.0000000000000000e+00  3.0210263175939765e-05 -1.8665417478959774e-06 0.0000000000000000e+00  3.4363571191955865e-05 -2.3285903873155943e-06 0.0000000000000000e+00  3.7162370493822254e-05 -2.9313327508742310e-06 0.0000000000000000e+00  3.6322586638580645e-05 -3.7703916330398770e-06 0.0000000000000000e+00  2.6839543074683224e-05 -5.0657159803881448e-06 0.0000000000000000e+00  -2.4888608179529663e-06 -7.3662783670429845e-06 0.0000000000000000e+00  -7.7069097875159383e-05 -1.2085133262368956e-05 0.0000000000000000e+00  -2.4873132796064153e-04 -2.2374259586227862e-05 0.0000000000000000e+00  0.0000000000000000e+00 0.0000000000000000e+00 0.0000000000000000e+00  1.2513103907381968e-06 -6.4595755346770315e-08 0.0000000000000000e+00  2.5411964476538199e-06 -1.3173561818510799e-07 0.0000000000000000e+00  3.9075400796815164e-06 -2.0407056856027724e-07 0.0000000000000000e+00  5.3864542723903053e-06 -2.8448950926971604e-07 0.0000000000000000e+00  7.0096159805267670e-06 -3.7627464783476943e-07 0.0000000000000000e+00  8.7986347579307737e-06 -4.8332586741097776e-07 0.0000000000000000e+00  1.0753590514215644e-05 -6.1054201895862517e-07 0.0000000000000000e+00  1.2829932868291378e-05 -7.6457848923138712e-07 0.0000000000000000e+00  1.4891392319267200e-05 -9.5555691041294760e-07 0.0000000000000000e+00  1.6611179990202437e-05 -1.2013096720912252e-06 0.0000000000000000e+00  1.7254972935578729e-05 -1.5387271043695592e-06 0.0000000000000000e+00  1.5172244509632210e-05 -2.0561762074846262e-06 0.0000000000000000e+00  6.4930791964114861e-06 -2.9929179323502591e-06 0.0000000000000000e+00  -1.8634573417487878e-05 -5.0714241423455259e-06 0.0000000000000000e+00  -8.8749151692011423e-05 -1.0740750529937190e-05 0.0000000000000000e+00  -3.0283528443086189e-04 -2.9544128815162767e-05 0.0000000000000000e+00  0.0000000000000000e+00 0.0000000000000000e+00 0.0000000000000000e+00  0.0000000000000000e+00 0.0000000000000000e+00 0.0000000000000000e+00  0.0000000000000000e+00 0.0000000000000000e+00 0.0000000000000000e+00  0.0000000000000000e+00 0.0000000000000000e+00 0.0000000000000000e+00  0.0000000000000000e+00 0.0000000000000000e+00 0.0000000000000000e+00  0.0000000000000000e+00 0.0000000000000000e+00 0.0000000000000000e+00  0.0000000000000000e+00 0.0000000000000000e+00 0.0000000000000000e+00  0.0000000000000000e+00 0.0000000000000000e+00 0.0000000000000000e+00  0.0000000000000000e+00 0.0000000000000000e+00