<?xml version="1.0"?>
<VTKFile type="UnstructuredGrid"  version="0.1"  >
<UnstructuredGrid>
<Piece  NumberOfPoints="289" NumberOfCells="512">
<Points>
<DataArray  type="Float64"  NumberOfComponents="3"  format="ascii">0 0 0  0.0625 0 0  0.125 0 0  0.1875 0 0  0.25 0 0  0.3125 0 0  0.375 0 0  0.4375 0 0  0.5 0 0  0.5625 0 0  0.625 0 0  0.6875 0 0  0.75 0 0  0.8125 0 0  0.875 0 0  0.9375 0 0  1 0 0  0 0.0625 0  0.06245639764669326 0.06247781768562325 0  0.1249121322921069 0.06245524907445632 0  0.1873665945980979 0.06243194019187816 0  0.2498193931337482 0.06240762233476384 0  0.3122705070389445 0.06238216715516991 0  0.3747204998201398 0.06235565540310325 0  0.4371708273039822 0.06232845997873374 0  0.4996242905538975 0.0623013382115223 0  0.5620857228194139 0.06227551803568269 0  0.624563088874485 0.06225274636671848 0  0.6870693978475516 0.06223524586139851 0  0.749626414766199 0.06222550673909912 0  0.8122727348623676 0.0622258598301026 0  0.8750830407934589 0.06223797800978978 0  0.9382159365513867 0.06226352955625119 0  1.002023967945708 0.06231489605372222 0  0 0.125 0  0.06241349973259449 0.124956009957985 0  0.1248255849391533 0.1249112051038662 0  0.1872349411281774 0.1248648305690993 0  0.2496406647423789 0.1248162920001345 0  0.3120425550100076 0.1247652624362543 0  0.3744415260971703 0.124711819745991 0  0.4368402021904075 0.1246566189906284 0  0.4992437863113361 0.1246010943682693 0  0.561661347476751 0.1245476665451586 0  0.6241077794405661 0.1244998982223629 0  0.6866069082678722 0.1244624895146832 0  0.7491966707163785 0.1244409388644406 0  0.8119380439298229 0.1244406497425791 0  0.8749301315485469 0.124465372793633 0  0.9383321514618131 0.1245154821749703 0  1.002384615409233 0.1245870785202723 0  0 0.1875 0  0.06237212326033494 0.1874350134259356 0  0.1247419011816507 0.1873687063203803 0  0.1871071150563405 0.1872998358638341 0  0.2494660886480299 0.1872273734349225 0  0.311818082388871 0.1871506547857041 0  0.3741638577838636 0.1870695825828231 0  0.4365064956276711 0.1869848949920476 0  0.4988525783857691 0.1868985043433679 0  0.5612138861240841 0.1868138876215768 0  0.6236098099977945 0.1867364650782309 0  0.6860707497587094 0.1866738174140037 0  0.7486427665536199 0.1866354342942488 0  0.8113934357983785 0.1866313804057611 0  0.8744173519059265 0.1866685489229393 0  0.9378353879986376 0.1867410479139496 0  1.00177434877545 0.1868042531732068 0  0 0.25 0  0.06233326145865849 0.2499153409076976 0  0.1246630067735443 0.2498287544930271 0  0.1869858425752641 0.2497383933144306 0  0.2492989564372842 0.2496426427383939 0  0.3116005576690106 0.2495402978536608 0  0.3738905263490442 0.2494308184810583 0  0.436171369550844 0.2493146920498247 0  0.4984496053953651 0.2491939311680506 0  0.5607377120107871 0.2490727177116927 0  0.6230567687623221 0.248958164092469 0  0.6854398290911834 0.248861069705933 0  0.7479357746799364 0.2487963631205411 0  0.810612649018329 0.2487825704740955 0  0.8735578401998084 0.248839064725345 0  0.9368698288620967 0.2489791762603252 0  1.000634300859286 0.2491982105176367 0  0 0.3125 0  0.06229813006521508 0.3123976042512193 0  0.1245913177333921 0.3122925670482164 0  0.1868747012070577 0.3121823075968006 0  0.2491439211615945 0.312064446980959 0  0.311395538103167 0.3119369843019321 0  0.3736276834358551 0.3117985757789293 0  0.4358410593295083 0.3116489679205262 0  0.4980404273447687 0.3114896475025003 0  0.5602367376766938 0.3113247778099068 0  0.6224500176035015 0.3111624784649378 0  0.6847129945845124 0.3110164455930287 0  0.7470750659178342 0.3109077444858321 0  0.8096055086493721 0.3108662515447881 0  0.872393764281694 0.3109305922425579 0  0.9355439680635562 0.3111445959440075 0  0.9991632232649399 0.3115478195789779 0  0 0.375 0  0.06226816929848911 0.3748825194723774 0  0.1245297556141872 0.3747615938817913 0  0.186778171705156 0.3746337937202043 0  0.2490071232693686 0.3744957985218665 0  0.3112109218762191 0.3743445325942368 0  0.3733850407271537 0.3741774189598728 0  0.4355270482881797 0.3739928239080074 0  0.4976380991676237 0.3737907972386613 0  0.5597252029679267 0.3735742563135582 0  0.6218044998257869 0.3733508082219749 0  0.6839056831451724 0.37313542742819 0  0.7460774238128886 0.372954137117477 0  0.8083930672936165 0.3728485350683628 0  0.8709550909794838 0.3728802239819032 0  0.9338965805472139 0.3731327450381528 0  0.9973802729249428 0.3737066644176446 0  0 0.4375 0  0.06224499376904968 0.437370887897186 0  0.1244816533799597 0.4372374847647275 0  0.1867015130776345 0.4370954429395922 0  0.2488960584374476 0.4369403637206021 0  0.3110568464837787 0.4367678435679939 0  0.373175851113431 0.4365736329433244 0  0.435246187405207 0.4363539923470241 0  0.49726344906613 0.4361063850203206 0  0.559228002708215 0.4358307336905234 0  0.6211487080755126 0.4355316004727365 0  0.6830486259879662 0.4352218224714439 0  0.7449732193573793 0.4349282968904621 0  0.8070011502511523 0.4347005635206389 0  0.8692568698184882 0.4346221065956231 0  0.9319231900953105 0.434822150773169 0  0.9952530372988005 0.4354819420846467 0  0 0.5 0  0.06223028739131303 0.4998635485061966 0  0.1244505441359274 0.4997219955346075 0  0.1866504448875606 0.4995700879577987 0  0.2488191597724798 0.4994023016813856 0  0.3109451934814538 0.4992127477245429 0  0.3730163894603969 0.4989951545279221 0  0.4350202547250913 0.4987430029426377 0  0.4969448852546824 0.4984499586148365 0  0.558780978723695 0.4981108716197048 0  0.6205257418246029 0.4977238368582661 0  0.6821899390290874 0.4972941893351595 0  0.7438097887070858 0.4968418906025253 0  0.8054655251236078 0.4964144385387022 0  0.8673074186979085 0.4961075393168565 0  0.9295871384710046 0.4960934266173008 0  0.9926899559315496 0.4966491351266508 0  0 0.5625 0  0.062225646199208 0.5623613003260383 0  0.1244398359831761 0.5622168283713416 0  0.1866306350713472 0.5620605535164153 0  0.2487850782822994 0.5618859189024303 0  0.3108886550853087 0.5616855688358385 0  0.3729248419090983 0.5614510817950483 0  0.4348747994443646 0.5611727483768658 0  0.4967175066775343 0.5608394933489206 0  0.5584309038291639 0.5604391684351632 0  0.6199951768218642 0.5599597122130024 0  0.6814002877018939 0.5593922361887216 0  0.7426613330030548 0.5587382260123881 0  0.8038469660137498 0.558025106313678 0  0.8651262737131067 0.5573372825645069 0  0.9268340585664392 0.5568704880690496 0  0.9895394762033438 0.5570067168437057 0  0 0.625 0  0.06223237953025363 0.6248647996242691 0  0.1244523913744651 0.6247234140397949 0  0.1866470130949806 0.6245692990973776 0  0.2488016687949799 0.6243951357024641 0  0.3108993292078436 0.6241923683804886 0  0.3729194789853522 0.6239506534478202 0  0.4348369718176894 0.6236571905088717 0  0.4966209285604025 0.6232959317793508 0  0.5582341578080068 0.6228467310264618 0  0.6196343124287832 0.6222846879052708 0  0.6807795574196887 0.6215804772593567 0  0.7416445834569534 0.62070388244095 0  0.8022579649735149 0.6196364268990346 0  0.8627777749909046 0.6184074670267983 0  0.9236200812592334 0.6171813830303599 0  0.9856293539730356 0.6164182147293634 0  0 0.6875 0  0.0622512896100815 0.6873744440489089 0  0.1244900500698982 0.687242660642954 0  0.1867029625501344 0.6870979904647536 0  0.2488747375472051 0.6869328103495645 0  0.3109868681557273 0.6867379147350491 0  0.3730160330453536 0.686501708463808 0  0.4349320092095107 0.686209106398859 0  0.4966949911736049 0.6858399929394347 0  0.5582524051437432 0.6853670385996249 0  0.6195359374642615 0.6847526250976697 0  0.6804612701640436 0.6839447207182916 0  0.7409375595749748 0.682872308785578 0  0.8009042915273499 0.6814444985530771 0  0.8604338643770066 0.6795714502609336 0  0.9199576813826983 0.6772726515854172 0  0.9806186757332824 0.6749827078720366 0  0 0.75 0  0.06228246023377613 0.749890262863192 0  0.124553159889659 0.7497747101623606 0  0.1867994945572733 0.7496470695400071 0  0.2490066890874785 0.7495000276128015 0  0.3111563361760102 0.7493245310735339 0  0.3732243866320055 0.7491088305199858 0  0.4351782632737853 0.7488371014128009 0  0.496972632276979 0.7484873757587829 0  0.5585432245332433 0.7480283322510661 0  0.6197981376664536 0.7474141381567249 0  0.6806069414242903 0.7465758516133036 0  0.7407918886647189 0.7454066619989899 0  0.8001395504127696 0.7437368319799605 0  0.8584954236062147 0.7412985109074435 0  0.9161212695610271 0.7377402223061881 0  0.9743701342737657 0.7333303763673499 0  0 0.8125 0  0.06232509428592791 0.8124118364721428 0  0.1246402030580403 0.8123187547550228 0  0.1869345542906664 0.8122154159037449 0  0.2491953129990489 0.8120955091780231 0  0.3114061284521346 0.8119510821639702 0  0.3735450352292929 0.8117716015120949 0  0.4355812433192948 0.8115425642012762 0  0.4974700313330265 0.811243363173112 0  0.5591443870733969 0.8108438888180267 0  0.6205010747360683 0.8102988818442822 0  0.6813773925425294 0.8095379559559394 0  0.7415138560740587 0.8084463249230379 0  0.8005030153470165 0.8068231217098834 0  0.857764457451757 0.8042804110993887 0  0.9128164924717771 0.7999723805303873 0  0.9678205964917659 0.7917005125212571 0  0 0.875 0  0.0623774428102298 0.874938267099314 0  0.1247476170982831 0.8748729632256038 0  0.1871026460395186 0.8748001946514219 0  0.2494330371904168 0.8747153161379759 0  0.3117265103866945 0.8746124059002502 0  0.3739662490527449 0.8744835224876447 0  0.4361281154343643 0.8743176022981703 0  0.4981759825684756 0.8740987795222963 0  0.5600535396187987 0.8738037901061678 0  0.6216692370196476 0.8733979328008195 0  0.6828673293093751 0.8728287062392618 0  0.7433696284723533 0.8720151661165942 0  0.8026537376106541 0.8708261990804371 0  0.8596935078304412 0.8690174905913191 0  0.9124255526316624 0.8659917208357415 0  0.9568581311867568 0.8597918563687339 0  0 0.9375 0  0.06243686036486849 0.9374682147614571 0  0.1248698948372411 0.9374345512712222 0  0.1872949476541279 0.9373969563249713 0  0.2497069803763037 0.9373529676186979 0  0.3120994221952049 0.9372994264401893 0  0.3744631853748244 0.9372320706808663 0  0.4367850663098529 0
[...]
<PointData  Vectors="f_54"> 
<DataArray  type="Float64"  Name="f_54"  NumberOfComponents="3" format="ascii">0.0000000000000000e+00 0.0000000000000000e+00 0.0000000000000000e+00  0.0000000000000000e+00 0.0000000000000000e+00 0.0000000000000000e+00  0.0000000000000000e+00 0.0000000000000000e+00 0.0000000000000000e+00  0.0000000000000000e+00 0.0000000000000000e+00 0.0000000000000000e+00  0.0000000000000000e+00 0.0000000000000000e+00 0.0000000000000000e+00  0.0000000000000000e+00 0.0000000000000000e+00 0.0000000000000000e+00  0.0000000000000000e+00 0.0000000000000000e+00 0.0000000000000000e+00  0.0000000000000000e+00 0.0000000000000000e+00 0.0000000000000000e+00  0.0000000000000000e+00 0.0000000000000000e+00 0.0000000000000000e+00  0.0000000000000000e+00 0.0000000000000000e+00 0.0000000000000000e+00  0.0000000000000000e+00 0.0000000000000000e+00 0.0000000000000000e+00  0.0000000000000000e+00 0.0000000000000000e+00 0.0000000000000000e+00  0.0000000000000000e+00 0.0000000000000000e+00 0.0000000000000000e+00  0.0000000000000000e+00 0.0000000000000000e+00 0.0000000000000000e+00  0.0000000000000000e+00 0.0000000000000000e+00 0.0000000000000000e+00  0.0000000000000000e+00 0.0000000000000000e+00 0.0000000000000000e+00  0.0000000000000000e+00 0.0000000000000000e+00 0.0000000000000000e+00  0.0000000000000000e+00 0.0000000000000000e+00 0.0000000000000000e+00  -3.9911355608923483e-07 -9.0383071378470615e-09 0.0000000000000000e+00  -8.3545329486326312e-07 -1.8843260840725803e-08 0.0000000000000000e+00  -1.3504389935378175e-06 -3.0257011217063023e-08 0.0000000000000000e+00  -1.9937856343489128e-06 -4.4261605050455277e-08 0.0000000000000000e+00  -2.8285972464786933e-06 -6.2043422127181154e-08 0.0000000000000000e+00  -3.9376945048492877e-06 -8.5037425409684282e-08 0.0000000000000000e+00  -5.4319088676359393e-06 -1.1491685125071728e-07 0.0000000000000000e+00  -7.4617163010380451e-06 -1.5345559281087131e-07 0.0000000000000000e+00  -1.0235294678143804e-05 -2.0211391577984938e-07 0.0000000000000000e+00  -1.4050770858902715e-05 -2.6102912109086323e-07 0.0000000000000000e+00  -1.9363680188933193e-05 -3.2665278470448706e-07 0.0000000000000000e+00  -2.6950129421192175e-05 -3.8590288829428098e-07 0.0000000000000000e+00  -3.8351633853670769e-05 -3.9975114527373393e-07 0.0000000000000000e+00  -5.7218021253420024e-05 -2.4952820061406312e-07 0.0000000000000000e+00  -9.3767498141200529e-05 4.6447238134849507e-07 0.0000000000000000e+00  -1.8113092752996274e-04 3.2664666906092582e-06 0.0000000000000000e+00  0.0000000000000000e+00 0.0000000000000000e+00 0.0000000000000000e+00  -7.6014249594510721e-07 -1.7290550187785667e-08 0.0000000000000000e+00  -1.5906487474351714e-06 -3.6041559441656334e-08 0.0000000000000000e+00  -2.5698149066421590e-06 -5.7863242815239438e-08 0.0000000000000000e+00  -3.7917225297711404e-06 -8.4650090869562239e-08 0.0000000000000000e+00  -5.3759041360450243e-06 -1.1872379736550983e-07 0.0000000000000000e+00  -7.4792404792619004e-06 -1.6295600389234699e-07 0.0000000000000000e+00  -1.0311185491690513e-05 -2.2082133676640345e-07 0.0000000000000000e+00  -1.4154059466273492e-05 -2.9627453483131252e-07 0.0000000000000000e+00  -1.9391765618452698e-05 -3.9324605114996620e-07 0.0000000000000000e+00  -2.6554288700420653e-05 -5.1438628164788078e-07 0.0000000000000000e+00  -3.6394950645885421e-05 -6.5844778958444770e-07 0.0000000000000000e+00  -5.0039104839698886e-05 -8.1549389076025827e-07 0.0000000000000000e+00  -6.9285215080321864e-05 -9.5994604201615975e-07 0.0000000000000000e+00  -9.7183868913502586e-05 -1.0495481044728713e-06 0.0000000000000000e+00  -1.3881258060794281e-04 -1.0901324731457290e-06 0.0000000000000000e+00  -1.9990544634820203e-04 -1.6341991608173477e-06 0.0000000000000000e+00  0.0000000000000000e+00 0.0000000000000000e+00 0.0000000000000000e+00  -1.0497463873067590e-06 -2.4058167626404727e-08 0.0000000000000000e+00  -2.1953744418381981e-06 -5.0128256143274703e-08 0.0000000000000000e+00  -3.5436152218909274e-06 -8.0440595624308610e-08 0.0000000000000000e+00  -5.2230363553098189e-06 -1.1765438190200722e-07 0.0000000000000000e+00  -7.3974213202383355e-06 -1.6509727744842460e-07 0.0000000000000000e+00  -1.0282135174533595e-05 -2.2701546617866884e-07 0.0000000000000000e+00  -1.4164589346158499e-05 -3.0879578819315727e-07 0.0000000000000000e+00  -1.9430033032523354e-05 -4.1706336230950427e-07 0.0000000000000000e+00  -2.6594115295652281e-05 -5.5945730007842742e-07 0.0000000000000000e+00  -3.6344026099795973e-05 -7.4373564263699110e-07 0.0000000000000000e+00  -4.9590116419405113e-05 -9.7569074779250587e-07 0.0000000000000000e+00  -6.7526675003751872e-05 -1.2553264346093382e-06 0.0000000000000000e+00  -9.1680022891108120e-05 -1.5712680980037257e-06 0.0000000000000000e+00  -1.2383186659839358e-04 -1.8946266743078167e-06 0.0000000000000000e+00  -1.6538340243748499e-04 -2.1684769262675981e-06 0.0000000000000000e+00  -2.1483727568582863e-04 -2.2057942257637965e-06 0.0000000000000000e+00  0.0000000000000000e+00 0.0000000000000000e+00 0.0000000000000000e+00  -1.2423337437065035e-06 -2.8787664445629365e-08 0.0000000000000000e+00  -2.5956051162569196e-06 -5.9929632200006326e-08 0.0000000000000000e+00  -4.1833999230485649e-06 -9.6051743555448710e-08 0.0000000000000000e+00  -6.1552235531336433e-06 -1.4033402589910131e-07 0.0000000000000000e+00  -8.7025404017084851e-06 -1.9685396923236747e-07 0.0000000000000000e+00  -1.2078507557262455e-05 -2.7100101927611270e-07 0.0000000000000000e+00  -1.6622529180382732e-05 -3.6996263238254637e-07 0.0000000000000000e+00  -2.2790336904581290e-05 -5.0323722513414560e-07 0.0000000000000000e+00  -3.1189173535466693e-05 -6.8303483043884935e-07 0.0000000000000000e+00  -4.2614960687020118e-05 -9.2425358022703971e-07 0.0000000000000000e+00  -5.8082071146060191e-05 -1.2434573560633673e-06 0.0000000000000000e+00  -7.8821677999416941e-05 -1.6560008477539888e-06 0.0000000000000000e+00  -1.0619015953521976e-04 -2.1704672732517492e-06 0.0000000000000000e+00  -1.4135099117954859e-04 -2.7807688506226954e-06 0.0000000000000000e+00  -1.8444287557423534e-04 -3.4613199724695940e-06 0.0000000000000000e+00  -2.3279079216483346e-04 -4.1960787692450694e-06 0.0000000000000000e+00  0.0000000000000000e+00 0.0000000000000000e+00 0.0000000000000000e+00  -1.3229591084424745e-06 -3.1138561696998975e-08 0.0000000000000000e+00  -2.7595652366862588e-06 -6.4710118616787045e-08 0.0000000000000000e+00  -4.4365593521514588e-06 -1.0344222049785822e-07 0.0000000000000000e+00  -6.5082288538482410e-06 -1.5068907291741512e-07 0.0000000000000000e+00  -9.1738664655955550e-06 -2.1085864714417876e-07 0.0000000000000000e+00  -1.2699772753235866e-05 -2.8998978438908858e-07 0.0000000000000000e+00  -1.7447287635902778e-05 -3.9654416649875555e-07 0.0000000000000000e+00  -2.3907817733795699e-05 -5.4246893600285955e-07 0.0000000000000000e+00  -3.2744274117817980e-05 -7.4452574724373938e-07 0.0000000000000000e+00  -4.4834604254770357e-05 -1.0256998406334238e-06 0.0000000000000000e+00  -6.1305093960270848e-05 -1.4160739117788216e-06 0.0000000000000000e+00  -8.3525256177855483e-05 -1.9517126781632740e-06 0.0000000000000000e+00  -1.1300728778471857e-04 -2.6687809560100027e-06 0.0000000000000000e+00  -1.5110765559445545e-04 -3.5887143599657854e-06 0.0000000000000000e+00  -1.9837987956661024e-04 -4.6903141427300540e-06 0.0000000000000000e+00  -2.5345518018717245e-04 -5.8680000616917198e-06 0.0000000000000000e+00  0.0000000000000000e+00 0.0000000000000000e+00 0.0000000000000000e+00  -1.2892206134456768e-06 -3.1038392144466937e-08 0.0000000000000000e+00  -2.6817720979570047e-06 -6.4297137887150536e-08 0.0000000000000000e+00  -4.2929900230626357e-06 -1.0226877965773688e-07 0.0000000000000000e+00  -6.2644289917851177e-06 -1.4805262994150000e-07 0.0000000000000000e+00  -8.7811868834502427e-06 -2.0580755145123602e-07 0.0000000000000000e+00  -1.2094735764448863e-05 -2.8142572490311775e-07 0.0000000000000000e+00  -1.6553571911742281e-05 -3.8357224260888886e-07 0.0000000000000000e+00  -2.2644001692490354e-05 -5.2529577203109499e-07 0.0000000000000000e+00  -3.1042566997674037e-05 -7.2645968123731324e-07 0.0000000000000000e+00  -4.2678897365695851e-05 -1.0171739713803571e-06 0.0000000000000000e+00  -5.8801265023881403e-05 -1.4419776478110044e-06 0.0000000000000000e+00  -8.1024076543016570e-05 -2.0632076510312948e-06 0.0000000000000000e+00  -1.1131452538652384e-04 -2.9589589945039533e-06 0.0000000000000000e+00  -1.5184720196346777e-04 -4.2055988784335652e-06 0.0000000000000000e+00  -2.0463963858032580e-04 -5.8280401086907056e-06 0.0000000000000000e+00  -2.7092848466379410e-04 -7.6979437635393263e-06 0.0000000000000000e+00  0.0000000000000000e+00 0.0000000000000000e+00 0.0000000000000000e+00  -1.1519022131429487e-06 -2.8709638473746835e-08 0.0000000000000000e+00  -2.3845568396738128e-06 -5.9151413719632972e-08 0.0000000000000000e+00  -3.7879919029797817e-06 -9.3252621196666541e-08 0.0000000000000000e+00  -5.4737186540986945e-06 -1.3340498686868176e-07 0.0000000000000000e+00  -7.5899045868242235e-06 -1.8284582595328433e-07 0.0000000000000000e+00  -1.0342792714110984e-05 -2.4628403657536628e-07 0.0000000000000000e+00  -1.4027796067639034e-05 -3.3098190092220582e-07 0.0000000000000000e+00  -1.9074792699148561e-05 -4.4866138318638604e-07 0.0000000000000000e+00  -2.6113149946866097e-05 -6.1884471905936803e-07 0.0000000000000000e+00  -3.6062106308189412e-05 -8.7452281329349968e-07 0.0000000000000000e+00  -5.0249575261338449e-05 -1.2711205444126058e-06 0.0000000000000000e+00  -7.0554070140987381e-05 -1.8987771326675615e-06 0.0000000000000000e+00  -9.9546390144135394e-05 -2.8939971366343963e-06 0.0000000000000000e+00  -1.4058025567324946e-04 -4.4363828068704611e-06 0.0000000000000000e+00  -1.9776338346530001e-04 -6.6974646404295256e-06 0.0000000000000000e+00  -2.7578903049466709e-04 -9.6899596295100379e-06 0.0000000000000000e+00  0.0000000000000000e+00 0.0000000000000000e+00 0.0000000000000000e+00  -9.3412802975976887e-07 -2.4652173670680728e-08 0.0000000000000000e+00  -1.9165639130719536e-06 -5.0342953344594415e-08 0.0000000000000000e+00  -3.0005673585743977e-06 -7.8178972357787226e-08 0.0000000000000000e+00  -4.2525275959195083e-06 -1.0946598123488911e-07 0.0000000000000000e+00  -5.7624966410936457e-06 -1.4590040910838306e-07 0.0000000000000000e+00  -7.6608849159385229e-06 -1.8993989801892747e-07 0.0000000000000000e+00  -1.0145691683971360e-05 -2.4556429372741611e-07 0.0000000000000000e+00  -1.3527151954758988e-05 -3.1987579842338352e-07 0.0000000000000000e+00  -1.8300300544196607e-05 -4.2646078291348776e-07 0.0000000000000000e+00  -2.5260531997486512e-05 -5.9230453112899280e-07 0.0000000000000000e+00  -3.5681519878223207e-05 -8.7140123658382219e-07 0.0000000000000000e+00  -5.1574987128813353e-05 -1.3695237515440288e-06 0.0000000000000000e+00  -7.6039402105716625e-05 -2.2831896799384612e-06 0.0000000000000000e+00  -1.1366903246566812e-04 -3.9434854438588375e-06 0.0000000000000000e+00  -1.7094705554914936e-04 -6.8178696080911749e-06 0.0000000000000000e+00  -2.5659045047927461e-04 -1.1365376886720507e-05 0.0000000000000000e+00  0.0000000000000000e+00 0.0000000000000000e+00 0.0000000000000000e+00  -6.6885541271556571e-07 -1.9570463120012400e-08 0.0000000000000000e+00  -1.3477884495445949e-06 -3.9402851105697808e-08 0.0000000000000000e+00  -2.0462132873194153e-06 -5.9673844475367899e-08 0.0000000000000000e+00  -2.7750521954582383e-06 -8.0417607965268718e-08 0.0000000000000000e+00  -3.5499461543957444e-06 -1.0143236430261734e-07 0.0000000000000000e+00  -4.3990368508292726e-06 -1.2219156272053190e-07 0.0000000000000000e+00  -5.3797954841917800e-06 -1.4185100935000944e-07 0.0000000000000000e+00  -6.6131430846976751e-06 -1.5965160644259854e-07 0.0000000000000000e+00  -8.3495334840715575e-06 -1.7656831711437439e-07 0.0000000000000000e+00  -1.1091951507702578e-05 -2.0041136846583913e-07 0.0000000000000000e+00  -1.5815581366621663e-05 -2.5964377705429058e-07 0.0000000000000000e+00  -2.4340875068357566e-05 -4.3721741664240778e-07 0.0000000000000000e+00  -3.9924032392679236e-05 -9.4462480463229189e-07 0.0000000000000000e+00  -6.8093925565517431e-05 -2.2578450536752086e-06 0.0000000000000000e+00  -1.1764550720169258e-04 -5.2859207715812803e-06 0.0000000000000000e+00  -2.0160332893224758e-04 -1.1354332058889295e-05 0.0000000000000000e+00  0.0000000000000000e+00 0.0000000000000000e+00 0.0000000000000000e+00  -3.9468445059886535e-07 -1.4248863701912182e-08 0.0000000000000000e+00  -7.6097041695444757e-07 -2.8051351225673483e-08 0.0000000000000000e+00  -1.0635507689356889e-06 -4.0737899445585832e-08 0.0000000000000000e+00  -1.2549688856354574e-06 -5.1173869413600636e-08 0.0000000000000000e+00  -1.2692710322696339e-06 -5.7368546487633073e-08 0.0000000000000000e+00  -1.0166689996826554e-06 -5.5848427853741169e-08 0.0000000000000000e+00  -3.8224938457756388e-07 -4.0639771490282828e-08 0.0000000000000000e+00  7.6408150507572681e-07 -1.6893798261484069e-09 0.0000000000000000e+00  2.5309926137210950e-06 7.7253747850172521e-08 0.0000000000000000e+00  4.9114318720234447e-06 2.2027734936910054e-07 0.0000000000000000e+00  7.5717180567251959e-06 4.5591689503474136e-07 0.0000000000000000e+00  9.4197099802384550e-06 7.9361738264343403e-07 0.0000000000000000e+00  7.7877019620797161e-06 1.1374666547870578e-06 0.0000000000000000e+00  -2.9634249027285616e-06 1.0383678715293904e-06 0.0000000000000000e+00  -3.3433913938864581e-05 -8.5382181263781858e-07 0.0000000000000000e+00  -1.0133136104343172e-04 -7.4935501584452339e-06 0.0000000000000000e+00  0.0000000000000000e+00 0.0000000000000000e+00 0.0000000000000000e+00  -1.5024278734750985e-07 -9.3984594102647854e-09 0.0000000000000000e+00  -2.3973424331493567e-07 -1.7850364069992865e-08 0.0000000000000000e+00  -1.9498750065517494e-07 -2.4108821237713944e-08 0.0000000000000000e+00  8.3055912452278838e-08 -2.6273937598651316e-08 0.0000000000000000e+00  7.3576811952899747e-07 -2.1220299349454894e-08 0.0000000000000000e+00  1.9679460727003998e-06 -3.6060587351899849e-09 0.0000000000000000e+00  4.0736461161849668e-06 3.5954036684976450e-08 0.0000000000000000e+00  7.4642805758149848e-06 1.1436501644446840e-07 0.0000000000000000e+00  1.2689279905618594e-05 2.6268310963326271e-07 0.0000000000000000e+00  2.0422571813618786e-05 5.3831987623788083e-07 0.0000000000000000e+00  3.1350395972589627e-05 1.0452279235529092e-06 0.0000000000000000e+00  4.5817101771314288e-05 1.9580574964691681e-06 0.0000000000000000e+00  6.2932324734626274e-05 3.5124077510409734e-06 0.0000000000000000e+00  7.8595029895101411e-05 5.7900409713968613e-06 0.0000000000000000e+00  8.1833493250448055e-05 7.7093413882126940e-06 0.0000000000000000e+00  5.0873077675425972e-05 4.6643437449287909e-06 0.0000000000000000e+00  0.0000000000000000e+00 0.0000000000000000e+00 0.0000000000000000e+00  3.2196612842436678e-08 -5.5172593442410857e-09 0.0000000000000000e+00  1.4525579054856299e-07 -9.8774524833965810e-09 0.0000000000000000e+00  4.3686536189120299e-07 -1.1633008521980720e-08 0.0000000000000000e+00  1.0403606476737964e-06 -8.7060992894558532e-09 0.0000000000000000e+00  2.1502850970192069e-06 2.1394821822387895e-09 0.0000000000000000e+00  4.0583851288812093e-06 2.6211341330543863e-08 0.0000000000000000e+00  7.2053611212726603e-06 7.2651111528101748e-08 0.0000000000000000e+00  1.2254434664094839e-05 1.5814766621665155e-07 0.0000000000000000e+00  2.0191138720036570e-05 3.1525431669102288e-07 0.0000000000000000e+00  3.2444021276002624e-05 6.1160606660164928e-07 0.0000000000000000e+00  5.0988343713461502e-05 1.1942163188373571e-06 0.0000000000000000e+00  7.8302352823707381e-05 2.3873253873434154e-06 0.0000000000000000e+00  1.1680283252280715e-04 4.8860020443200333e-06 0.0000000000000000e+00  1.6676867724607340e-04 1.0029991690183322e-05 0.0000000000000000e+00  2.2027220489631235e-04 1.9482899776650439e-05 0.0000000000000000e+00  2.4970471589120922e-04 2.6952152666578359e-05 0.0000000000000000e+00  0.0000000000000000e+00 0.0000000000000000e+00 0.0000000000000000e+00  1.3277622098937826e-07 -2.8101915821426552e-09 0.0000000000000000e+00  3.4982635206083015e-07 -4.5378608356831796e-09 0.0000000000000000e+00  7.5331691905063163e-07 -3.8931385587678002e-09 0.0000000000000000e+00  1.4845465968218172e-06 8.3663118129483246e-10 0.0000000000000000e+00  2.7537445470363580e-06 1.2051707002411243e-08 0.0000000000000000e+00  4.8848660547119866e-06 3.3183121913591779e-08 0.0000000000000000e+00  8.3856111896483508e-06 6.9216902476535567e-08 0.0000000000000000e+00  1.4058669318435047e-05 1.2778569805920664e-07 0.0000000000000000e+00  2.3178537024313969e-05 2.2228291943002825e-07 0.0000000000000000e+00  3.7767532765428731e-05 3.8216898557814923e-07 0.0000000000000000e+00  6.1005142530219618e-05 6.8767538954884885e-07 0.0000000000000000e+00  9.7759804363708246e-05 1.3823771776232536e-06 0.0000000000000000e+00  1.5502065685304897e-04 3.2181605975843766e-06 0.0000000000000000e+00  2.4124388854461598e-04 8.4575315997555812e-06 0.0000000000000000e+00  3.6091049529052754e-04 2.3868443573843413e-05 0.0000000000000000e+00  4.8569111213978277e-04 7.4450236116053230e-05 0.0000000000000000e+00  0.0000000000000000e+00 0.0000000000000000e+00 0.0000000000000000e+00  1.4840295523032383e-07 -1.1961104124473893e-09 0.0000000000000000e+00  3.6639646588821536e-07 -1.5904749912362755e-09 0.0000000000000000e+00  7.3871676306749693e-07 -2.7894647030577775e-10 0.0000000000000000e+00  1.3839135418951064e-06 3.8089645099637965e-09 0.0000000000000000e+00  2.4812454943952308e-06 1.1868647344906729e-08 0.0000000000000000e+00  4.3129893862901125e-06 2.4871894836196900e-08 0.0000000000000000e+00  7.3343866587896305e-06 4.2410440299535932e-08 0.0000000000000000e+00  1.2292931867425660e-05 5.9526451283325369e-08 0.0000000000000000e+00  2.0436317138539780e-05 5.8790665570775695e-08 0.0000000000000000e+00  3.3880381209984641e-05 -8.0028822879852540e-09 0.0000000000000000e+00  5.6263728225732693e-05 -2.5760633385337715e-07 0.0000000000000000e+00  9.3898478709158591e-05 -9.3635897664292479e-07 0.0000000000000000e+00  1.5769184294016494e-04 -2.4527390687891100e-06 0.0000000000000000e+00  2.6582856337823503e-04 -5.1134996020022686e-06 0.0000000000000000e+00  4.4482435419187881e-04 -7.8360851043085347e-06 0.0000000000000000e+00  7.1679063855883279e-04 -4.3136389063324773e-06 0.0000000000000000e+00  0.0000000000000000e+00 0.0000000000000000e+00 0.0000000000000000e+00  9.4025362353061212e-08 -3.8873563345515929e-10 0.0000000000000000e+00  2.2742173949479047e-07 -3.6037337277669620e-10 0.0000000000000000e+00  4.4830495133394906e-07 5.3213486075706366e-10 0.0000000000000000e+00  8.2455907106133618e-07 2.7513540867089687e-09 0.0000000000000000e+00  1.4600270291144436e-06 6.6265625960875084e-09 0.0000000000000000e+00  2.5207547701134860e-06 1.1820124203252042e-08 0.0000000000000000e+00  4.2799988569451759e-06 1.5720913804234835e-08 0.0000000000000000e+00  7.1985217140830198e-06 8.8344859475984814e-09 0.0000000000000000e+00  1.2072464438491425e-05 -3.8367902105965408e-08 0.0000000000000000e+00  2.0312316991445216e-05 -2.1339678704211457e-07 0.0000000000000000e+00  3.4473315105715412e-05 -7.7286225918118949e-07 0.0000000000000000e+00  5.9230619974526666e-05 -2.4689366855650588e-06 0.0000000000000000e+00  1.0291560304946549e-04 -7.4774847935995259e-06 0.0000000000000000e+00  1.7857057829670568e-04 -2.1712449962113605e-05 0.0000000000000000e+00  2.9803755237264005e-04 -5.8321699635890881e-05 0.0000000000000000e+00  4.4274501051721072e-04 -1.3122732842450199e-04 0.0000000000000000e+00  0.0000000000000000e+00 0.0000000000000000e+00 0.0000000000000000e+00  0.0000000000000000e+00 0.0000000000000000e+00 0.0000000000000000e+00  0.0000000000000000e+00 0.0000000000000000e+00 0.0000000000000000e+00  0.0000000000000000e+00 0.0000000000000000e+00 0.0000000000000000e+00  0.0000000000000000e+00 0.0000000000000000e+00 0.0000000000000000e+00  0.0000000000000000e+00 0.0000000000000000e+00 0.0000000000000000e+00  0.0000000000000000e+00 0.0000000000000000e+00 0.0000000000000000e+00  0.0000000000000000e+