<?xml version="1.0"?>
<VTKFile type="UnstructuredGrid"  version="0.1"  >
<UnstructuredGrid>
<Piece  NumberOfPoints="289" NumberOfCells="512">
<Points>
<DataArray  type="Float64"  NumberOfComponents="3"  format="ascii">0 0 0  0.0625 0 0  0.125 0 0  0.1875 0 0  0.25 0 0  0.3125 0 0  0.375 0 0  0.4375 0 0  0.5 0 0  0.5625 0 0  0.625 0 0  0.6875 0 0  0.75 0 0  0.8125 0 0  0.875 0 0  0.9375 0 0  1 0 0  0 0.0625 0  0.06258993456539337 0.06247223529560435 0  0.1251827765988145 0.06244392057552718 0  0.1877815241113249 0.06241453426938479 0  0.2503892757577361 0.06238364201060793 0  0.3130092815408996 0.06235095481246912 0  0.3756449971908017 0.06231640390401937 0  0.4383001578580647 0.06228023393151819 0  0.5009789120852073 0.06224310982650841 0  0.5636861171935286 0.0622062198258117 0  0.6264280452165892 0.06217133294833279 0  0.6892141313955112 0.0621407247405425 0  0.7520614454866179 0.06211680057582319 0  0.8150065848476805 0.06210106398989614 0  0.8781386827069957 0.06209160056093346 0  0.9416942561261651 0.06207686457744507 0  1.006332267815638 0.062022297972739 0  0 0.125 0  0.06267699326308003 0.1249449920780048 0  0.125359785778626 0.1248888388531986 0  0.1880543649209319 0.124830446675598 0  0.2507669418197558 0.1247688842641888 0  0.313504065582945 0.1247034947860387 0  0.3762727443887858 0.1246340447980817 0  0.4390805977722623 0.1245609173239105 0  0.5019361003147101 0.1244853465739418 0  0.5648490545377823 0.1244096711521429 0  0.6278315955471322 0.1243375432999093 0  0.6909003687683521 0.1242739649549342 0  0.7540811626891318 0.1242249284340681 0  0.8174182041090845 0.124196386600889 0  0.8809902190378429 0.1241926336331213 0  0.9449265594797354 0.1242165482835844 0  1.0093697314509 0.1242838304896083 0  0 0.1875 0  0.06275827603500164 0.1874188782944707 0  0.1255251668102133 0.1873359359410388 0  0.1883095762473796 0.1872494163556199 0  0.2511207769650047 0.1871577749824473 0  0.3139685970682216 0.1870598344793575 0  0.3768636101233077 0.1869550017702023 0  0.439817347010318 0.1868435661680815 0  0.5028425734227371 0.1867270901519971 0  0.5659537221203698 0.186608884037109 0  0.6291676388981416 0.1864945106261837 0  0.692504868982627 0.1863921748338184 0  0.7559916185935712 0.1863126754442618 0  0.8196616839378837 0.1862682259914747 0  0.8835543357873789 0.1862684998764587 0  0.9476950487367536 0.1863090276596257 0  1.012031935279727 0.1863343611106386 0  0 0.25 0  0.06283097596547448 0.2498945801015618 0  0.1256732340891319 0.2497865623967599 0  0.1885384469626181 0.249673408722882 0  0.2514388236188134 0.2495528019154491 0  0.3143873795239622 0.2494228237894003 0  0.3773982023394122 0.2492822227967736 0  0.4404867181654597 0.2491308092232491 0  0.5036699676773828 0.2489700177416517 0  0.5669669002921374 0.2488036698378074 0  0.630398661408388 0.2486389386260165 0  0.6939887048238582 0.2484874394638379 0  0.7577621079714238 0.2483661905410464 0  0.821742272072961 0.2482978125561517 0  0.8859406550881459 0.2483086178876612 0  0.9503316976133966 0.2484222226835505 0  1.014806434687594 0.2486472674592384 0  0 0.3125 0  0.06289244130737912 0.3123728818690861 0  0.1257986005814026 0.3122422854578575 0  0.1887326846185434 0.3121047650920325 0  0.2517096287873266 0.3119570490244297 0  0.3147454659555332 0.3117962078350766 0  0.3778576892306963 0.3116199370613961 0  0.4410656029974394 0.3114270144090935 0  0.5043906467583994 0.3112180108231893 0  0.567856646562966 0.3109963546581982 0  0.6314898665599852 0.3107698592360597 0  0.695318526630984 0.310552801478307 0  0.7593709917395493 0.3103685292477175 0  0.8236709801131633 0.3102522786308763 0  0.8882270415494328 0.3102532728003347 0  0.9530137818983276 0.3104342664720915 0  1.017948913224937 0.3108660759029385 0  0 0.375 0  0.06294024899591391 0.3748546659173133 0  0.1258963242168388 0.3747048953932219 0  0.1888846325673379 0.3745462308950822 0  0.2519225243730395 0.3743742738222392 0  0.3150287803056461 0.3741847987305151 0  0.3782241041210808 0.3739739934749421 0  0.4415316189700718 0.3737389053932422 0  0.5049773555993116 0.3734782139812174 0  0.568590695732515 0.373193508901119 0  0.6324046701854602 0.3728913287586358 0  0.6964558640881522 0.372586296987997 0  0.7607833883432055 0.3723057243293847 0  0.8254259224058561 0.3720959008902291 0  0.8904155005233524 0.3720297344806636 0  0.9557676564763108 0.372214178624301 0  1.021472319653686 0.3727942901906698 0  0 0.4375 0  0.06297229369182403 0.4373408854871066 0  0.1259620867056973 0.4371763562710729 0  0.1889875392501333 0.4370008959295165 0  0.252067983664278 0.4368088608784743 0  0.3152245451045607 0.436594487756682 0  0.3784807965510428 0.4363520146382507 0  0.441863465246153 0.4360760039064001 0  0.5054032159958317 0.435762014426139 0  0.5691355516628194 0.4354078697764228 0  0.6331018916815211 0.4350159268923088 0  0.6973509060490586 0.4345969811356925 0  0.7619401723627679 0.434176728682758 0  0.8269381687200258 0.4338058984831059 0  0.8924266075345865 0.4335748367797646 0  0.958503702886102 0.4336317753654843 0  1.025292000078544 0.4342013228153592 0  0 0.5 0  0.06298689397777696 0.4998325066033765 0  0.1259924096186498 0.4996586901557444 0  0.1890358916776523 0.4994720237955543 0  0.2521380819323371 0.4992656072779463 0  0.3153218777534081 0.4990320162386587 0  0.3786131649384023 0.4987632211275057 0  0.4420417714656778 0.498450649602878 0  0.5056426267555544 0.4980855342051625 0  0.5694572935511497 0.4976598131203521 0  0.633536205132684 0.4971680818307773 0  0.6979422420590419 0.4966115001934279 0  0.7627567627213486 0.4960052256236504 0  0.8280898216921794 0.4953918358224133 0  0.8940968557258452 0.4948637315377803 0  0.9610044276290245 0.4945956266131571 0  1.029149725734814 0.4948804495130826 0  0 0.5625 0  0.06298291256266803 0.5623304188365469 0  0.1259849024000174 0.5621537924915972 0  0.1890258075630956 0.5619627606911152 0  0.2521270591747942 0.5617493120060645 0  0.3153125642108267 0.5615044391091457 0  0.3786097035567155 0.561217786629436 0  0.4420505191342469 0.5608773238000097 0  0.5056732299487591 0.5604691293796922 0  0.5695243727034934 0.5599774938477933 0  0.6336622100453801 0.5593857935060996 0  0.6981627691315069 0.5586791202991583 0  0.7631312141328472 0.5578507499262005 0  0.8287233659071569 0.556916640296053 0  0.8951846037413468 0.5559452828276972 0  0.9629146455125973 0.5551110709427682 0  1.032566898492711 0.5547668358934416 0  0 0.625 0  0.06295988121002426 0.6248353213673938 0  0.1259385237182482 0.6246631902406685 0  0.188955457409427 0.6244757369649165 0  0.2520319436478157 0.6242641767253202 0  0.315191949453584 0.6240182657396061 0  0.378463269006114 0.6237256505716344 0  0.4418788773057949 0.623371076763518 0  0.5054786739018166 0.6229354402785502 0  0.5693119664640029 0.6223947226686193 0  0.6334415317870836 0.6217190161846236 0  0.6979512691574775 0.620872302029435 0  0.7629620879698561 0.6198149004209613 0  0.8286658176537646 0.618513905090184 0  0.8953947026237175 0.616975232639291 0  0.9637500364924129 0.615323595106575 0  1.034811582561238 0.613938829853954 0  0 0.6875 0  0.06291811515689455 0.6873475981987458 0  0.1258538248304204 0.6871877711824343 0  0.1888254663454964 0.6870126053833413 0  0.2518531602199263 0.6868130771398563 0  0.3149598267888266 0.6865783471754389 0  0.3781723698423518 0.6862948485008661 0  0.4415231018969013 0.6859450586620213 0  0.5050515289257461 0.6855058093620343 0  0.5688067507302751 0.6849459404336342 0  0.6328511730475804 0.6842230724342674 0  0.6972675648039489 0.6832793520508496 0  0.762175313753754 0.6820366427503575 0  0.8277717143191685 0.6803945994387128 0  0.8944360019842835 0.678248010770498 0  0.9629593684446079 0.6755910232603966 0  1.034971107881367 0.672841848348513 0  0 0.75 0  0.06285879767133903 0.7498672029594083 0  0.1257331349891381 0.7497275284969952 0  0.188639232012697 0.7495735906587065 0  0.251595029474376 0.7493968205955853 0  0.3146211860824863 0.7491866809861488 0  0.3777422549339665 0.7489296025035665 0  0.4409880939776116 0.7486074726742362 0  0.5043955498380857 0.7481954185698222 0  0.5680104369572435 0.7476584763280257 0  0.6318899116416841 0.7469464863412302 0  0.6961059893527001 0.7459861017505953 0  0.7607540935925873 0.7446680022805759 0  0.8259831402127819 0.7428263521725078 0  0.8921089495520212 0.7402094467507533 0  0.9600085363464248 0.7364769972127077 0  1.031814037887593 0.7317135792259021 0  0 0.8125 0  0.06278401437289759 0.8123935772009552 0  0.1255806466447217 0.8122813738821099 0  0.1884030922103009 0.8121571449043535 0  0.2512660652259169 0.8120135476281971 0  0.314186700662931 0.8118413909925646 0  0.3771856442981153 0.8116285884954209 0  0.4402883797290252 0.8113586220477899 0  0.5035267812136516 0.8110082106247378 0  0.5669406986694018 0.8105436832776712 0  0.6305789226838773 0.8099152103591045 0  0.6944979298519172 0.8090473775044472 0  0.7587556256342861 0.8078230954660689 0  0.8234000663005437 0.8060540096274602 0  0.8884869431478719 0.8034203782724421 0  0.9543863454157007 0.7993424204300801 0  1.024424548457523 0.7927629852945565 0  0 0.875 0  0.06269671962504553 0.8749256244137404 0  0.1254023628354867 0.8748470700410408 0  0.1881262825751567 0.874759802956066 0  0.250878990661342 0.8746584418585986 0  0.3136728691997939 0.8745361665915035 0  0.3765230636173114 0.8743838773615978 0  0.4394486216009401 0.8741889357649887 0  0.5024738960068005 0.8739332152707646 0  0.5656300290061964 0.8735900151818896 0  0.6289556530442563 0.8731191067819927 0  0.6924938458760975 0.8724587037277411 0  0.7562763321286254 0.8715121694267798 0  0.8202699643345054 0.8701239265926236 0  0.8842256667984409 0.8680226707726468 0  0.9473345981508411 0.8646305123035773 0  1.007809695628173 0.8582824560993692 0  0 0.9375 0  0.06260062376416219 0.9374617543908562 0  0.125205880306367 0.9374213171662098 0  0.1878206366761042 0.9373763045110043 0  0.2504504008123074 0.9373238713146932 0  0.3131017297011343 0.9372603852400134 0  0.375782765382417 0.9371809577103138 0  0.4385039641427582 0.93707873164583
[...]
<PointData  Vectors="f_95-0"> 
<DataArray  type="Float64"  Name="f_95-0"  NumberOfComponents="3" format="ascii">0.0000000000000000e+00 0.0000000000000000e+00 0.0000000000000000e+00  8.9040922067443380e-04 -1.7792700753156997e-02 0.0000000000000000e+00  2.4919608003934851e-03 -3.8618330047958518e-02 0.0000000000000000e+00  4.4218685151215858e-03 -5.6984453531571798e-02 0.0000000000000000e+00  6.6679525025484920e-03 -7.0710516356786102e-02 0.0000000000000000e+00  9.1549069086234273e-03 -7.9242610979790407e-02 0.0000000000000000e+00  1.1809099438282499e-02 -8.2932838214156507e-02 0.0000000000000000e+00  1.4550826527266886e-02 -8.2547966677751092e-02 0.0000000000000000e+00  1.7295430518455217e-02 -7.8965277669066331e-02 0.0000000000000000e+00  1.9952850844193321e-02 -7.3003167144927550e-02 0.0000000000000000e+00  2.2426024174165535e-02 -6.5346449863832395e-02 0.0000000000000000e+00  2.4607197385398880e-02 -5.6531082102631920e-02 0.0000000000000000e+00  2.6375673231290159e-02 -4.6964893406103825e-02 0.0000000000000000e+00  2.7560744201248683e-02 -3.6938395121718266e-02 0.0000000000000000e+00  2.7937964941612641e-02 -2.6725807435807217e-02 0.0000000000000000e+00  2.7712271520725241e-02 -1.6597140249105320e-02 0.0000000000000000e+00  1.3122619138811777e-02 -1.2974982015925682e-02 0.0000000000000000e+00  0.0000000000000000e+00 0.0000000000000000e+00 0.0000000000000000e+00  7.4439619690360836e-04 -1.9215041319738675e-02 0.0000000000000000e+00  2.3522235866532985e-03 -4.0484705978989205e-02 0.0000000000000000e+00  4.3880741546325833e-03 -5.9207824473590971e-02 0.0000000000000000e+00  6.7786562872692675e-03 -7.3206150201125211e-02 0.0000000000000000e+00  9.4332005899959177e-03 -8.1924848569165584e-02 0.0000000000000000e+00  1.2273264206730673e-02 -8.5712259510841285e-02 0.0000000000000000e+00  1.5212939507969297e-02 -8.5332984747512775e-02 0.0000000000000000e+00  1.8162520426308636e-02 -8.1661534600490276e-02 0.0000000000000000e+00  2.1027147779539981e-02 -7.5511657450876596e-02 0.0000000000000000e+00  2.3705664281403280e-02 -6.7560762999598248e-02 0.0000000000000000e+00  2.6089628979070006e-02 -5.8333342355942223e-02 0.0000000000000000e+00  2.8060019388408977e-02 -4.8212978694632085e-02 0.0000000000000000e+00  2.9477395044608157e-02 -3.7461782406582753e-02 0.0000000000000000e+00  3.0249487707014112e-02 -2.6233627097080957e-02 0.0000000000000000e+00  2.9755973953244651e-02 -1.4405993684659120e-02 0.0000000000000000e+00  3.0329149478978103e-02 -4.5257372748464400e-03 0.0000000000000000e+00  0.0000000000000000e+00 0.0000000000000000e+00 0.0000000000000000e+00  6.2276150614086533e-04 -2.0477700987789251e-02 0.0000000000000000e+00  2.2448514576434669e-03 -4.2447795622137172e-02 0.0000000000000000e+00  4.5212448861745814e-03 -6.1642553281238854e-02 0.0000000000000000e+00  7.2817145915552162e-03 -7.5985874126939176e-02 0.0000000000000000e+00  1.0393531768860440e-02 -8.4939926905789123e-02 0.0000000000000000e+00  1.3750976168405780e-02 -8.8856794284740220e-02 0.0000000000000000e+00  1.7248754163112570e-02 -8.8502647789104785e-02 0.0000000000000000e+00  2.0781590977202214e-02 -8.4750781260522684e-02 0.0000000000000000e+00  2.4240217520924076e-02 -7.8411465630093644e-02 0.0000000000000000e+00  2.7511276032418222e-02 -7.0157521121799307e-02 0.0000000000000000e+00  3.0479778388869592e-02 -6.0509200573700739e-02 0.0000000000000000e+00  3.3036232693484616e-02 -4.9849096573355955e-02 0.0000000000000000e+00  3.5095929251948633e-02 -3.8446945880176213e-02 0.0000000000000000e+00  3.6608400080223681e-02 -2.6481379526684893e-02 0.0000000000000000e+00  3.7747075389363519e-02 -1.4160648070120914e-02 0.0000000000000000e+00  3.8400015563585133e-02 -2.2944047995573954e-03 0.0000000000000000e+00  0.0000000000000000e+00 0.0000000000000000e+00 0.0000000000000000e+00  6.2061660294448172e-04 -2.1690227693899011e-02 0.0000000000000000e+00  2.3689889476151906e-03 -4.4591791761991600e-02 0.0000000000000000e+00  5.0061623720920245e-03 -6.4457810023062043e-02 0.0000000000000000e+00  8.3141311994980246e-03 -7.9284111231621449e-02 0.0000000000000000e+00  1.2116481574645392e-02 -8.8569577935816088e-02 0.0000000000000000e+00  1.6267664061977376e-02 -9.2684304561741232e-02 0.0000000000000000e+00  2.0633339624639709e-02 -9.2401435393184753e-02 0.0000000000000000e+00  2.5082403007706235e-02 -8.8594633885289945e-02 0.0000000000000000e+00  2.9480375820649128e-02 -8.2071391358979867e-02 0.0000000000000000e+00  3.3689363480434241e-02 -7.3502710684859265e-02 0.0000000000000000e+00  3.7573668419379792e-02 -6.3413747763688133e-02 0.0000000000000000e+00  4.1014168923497830e-02 -5.2207213320747473e-02 0.0000000000000000e+00  4.3929063359863851e-02 -4.0200288401905850e-02 0.0000000000000000e+00  4.6314398248233218e-02 -2.7673049934520293e-02 0.0000000000000000e+00  4.8198928559704896e-02 -1.4889460506543006e-02 0.0000000000000000e+00  4.9581635125621470e-02 -2.2322445059065527e-03 0.0000000000000000e+00  0.0000000000000000e+00 0.0000000000000000e+00 0.0000000000000000e+00  6.9305023232874420e-04 -2.3001077203577310e-02 0.0000000000000000e+00  2.7015133542468324e-03 -4.7039388025484630e-02 0.0000000000000000e+00  5.8239912094157735e-03 -6.7793010641844328e-02 0.0000000000000000e+00  9.8253352179180371e-03 -8.3280514075523226e-02 0.0000000000000000e+00  1.4496329038046070e-02 -9.3036389243932829e-02 0.0000000000000000e+00  1.9655539532889402e-02 -9.7454836718379748e-02 0.0000000000000000e+00  2.5136794479378683e-02 -9.7319233246746753e-02 0.0000000000000000e+00  3.0776404830178062e-02 -9.3503430675478658e-02 0.0000000000000000e+00  3.6404655740677541e-02 -8.6810302578203810e-02 0.0000000000000000e+00  4.1844784259199706e-02 -7.7908258655652235e-02 0.0000000000000000e+00  4.6919795726921364e-02 -6.7330438032386850e-02 0.0000000000000000e+00  5.1469307982135420e-02 -5.5508259748589944e-02 0.0000000000000000e+00  5.5374088679791003e-02 -4.2817995677721453e-02 0.0000000000000000e+00  5.8581937870792425e-02 -2.9617199845347345e-02 0.0000000000000000e+00  6.1101257793826642e-02 -1.6239841033099112e-02 0.0000000000000000e+00  6.3040844606410296e-02 -2.8968798629236377e-03 0.0000000000000000e+00  0.0000000000000000e+00 0.0000000000000000e+00 0.0000000000000000e+00  8.1060622151031038e-04 -2.4504626631798233e-02 0.0000000000000000e+00  3.1679937812764607e-03 -4.9898179422761854e-02 0.0000000000000000e+00  6.8670504230972087e-03 -7.1758802629193805e-02 0.0000000000000000e+00  1.1660137071265822e-02 -8.8105201367853825e-02 0.0000000000000000e+00  1.7316724567696527e-02 -9.8500475809066720e-02 0.0000000000000000e+00  2.3629813308587648e-02 -1.0336176722472575e-01 0.0000000000000000e+00  3.0404349073055410e-02 -1.0348067121240860e-01 0.0000000000000000e+00  3.7441813403917924e-02 -9.9726402942998338e-02 0.0000000000000000e+00  4.4529843431376823e-02 -9.2890667703978483e-02 0.0000000000000000e+00  5.1439707320089297e-02 -8.3632635285924184e-02 0.0000000000000000e+00  5.7932897973460948e-02 -7.2488162825282601e-02 0.0000000000000000e+00  6.3779836700205664e-02 -5.9914590251462826e-02 0.0000000000000000e+00  6.8788013598656952e-02 -4.6346357297634984e-02 0.0000000000000000e+00  7.2850544275682105e-02 -3.2232677332674868e-02 0.0000000000000000e+00  7.5982395369535577e-02 -1.8012467336260975e-02 0.0000000000000000e+00  7.8428709886201320e-02 -3.9973165689070741e-03 0.0000000000000000e+00  0.0000000000000000e+00 0.0000000000000000e+00 0.0000000000000000e+00  9.4663741187674653e-04 -2.6254818170251316e-02 0.0000000000000000e+00  3.6873880282145156e-03 -5.3230137045983915e-02 0.0000000000000000e+00  7.9945995902331122e-03 -7.6414644856496350e-02 0.0000000000000000e+00  1.3610163035449844e-02 -9.3825630767674292e-02 0.0000000000000000e+00  2.0294110604327457e-02 -1.0505029123046536e-01 0.0000000000000000e+00  2.7825762109800898e-02 -1.1052302505600867e-01 0.0000000000000000e+00  3.5988092021379724e-02 -1.1103565099087956e-01 0.0000000000000000e+00  4.4549552139490550e-02 -1.0744247261249192e-01 0.0000000000000000e+00  5.3251741927412166e-02 -1.0051229103232229e-01 0.0000000000000000e+00  6.1805342176040196e-02 -9.0882311933546817e-02 0.0000000000000000e+00  6.9895471341595697e-02 -7.9077727421175317e-02 0.0000000000000000e+00  7.7200111849236946e-02 -6.5570248815443322e-02 0.0000000000000000e+00  8.3424573240104452e-02 -5.0852088395135456e-02 0.0000000000000000e+00  8.8378130127653762e-02 -3.5493361140971999e-02 0.0000000000000000e+00  9.2053195332103724e-02 -2.0139642067795598e-02 0.0000000000000000e+00  9.4869957659663801e-02 -5.3214391276262237e-03 0.0000000000000000e+00  0.0000000000000000e+00 0.0000000000000000e+00 0.0000000000000000e+00  1.0777535069879593e-03 -2.8259487926364991e-02 0.0000000000000000e+00  4.1801799403914271e-03 -5.7033648070807609e-02 0.0000000000000000e+00  9.0541137027462491e-03 -8.1748398050787333e-02 0.0000000000000000e+00  1.5439014121928579e-02 -1.0042974238983382e-01 0.0000000000000000e+00  2.3099131135692751e-02 -1.1268763091410786e-01 0.0000000000000000e+00  3.1813272352856359e-02 -1.1896512991191467e-01 0.0000000000000000e+00  4.1352033274176483e-02 -1.2004141110481675e-01 0.0000000000000000e+00  5.1456226865276629e-02 -1.1674102833921340e-01 0.0000000000000000e+00  6.1823254995670450e-02 -1.0979397657072647e-01 0.0000000000000000e+00  7.2101996092179155e-02 -9.9797732803520792e-02 0.0000000000000000e+00  8.1894837984002711e-02 -8.7246497783307023e-02 0.0000000000000000e+00  9.0770853267416435e-02 -7.2605715638548382e-02 0.0000000000000000e+00  9.8300677976990297e-02 -5.6412583424238834e-02 0.0000000000000000e+00  1.0414904217390036e-01 -3.9377867000271828e-02 0.0000000000000000e+00  1.0819941159492270e-01 -2.2443325862151576e-02 0.0000000000000000e+00  1.1095786237551554e-01 -6.5248302919734980e-03 0.0000000000000000e+00  0.0000000000000000e+00 0.0000000000000000e+00 0.0000000000000000e+00  1.1830137880013308e-03 -3.0485288498615423e-02 0.0000000000000000e+00  4.5706017723977947e-03 -6.1240821654488693e-02 0.0000000000000000e+00  9.8918214914428121e-03 -8.7665481673580001e-02 0.0000000000000000e+00  1.6897261092252522e-02 -1.0781037013649515e-01 0.0000000000000000e+00  2.5371060230500262e-02 -1.2130801829320377e-01 0.0000000000000000e+00  3.5105973170397542e-02 -1.2859894741080233e-01 0.0000000000000000e+00  4.5871731541646657e-02 -1.3043316250082607e-01 0.0000000000000000e+00  5.7390382813318701e-02 -1.2758771018765622e-01 0.0000000000000000e+00  6.9323210036216221e-02 -1.2073605424494500e-01 0.0000000000000000e+00  8.1265364988250835e-02 -1.1041691892992830e-01 0.0000000000000000e+00  9.2742964048755192e-02 -9.7069045473076460e-02 0.0000000000000000e+00  1.0321505705230906e-01 -8.1114988959335443e-02 0.0000000000000000e+00  1.1209010191868733e-01 -6.3093001202020660e-02 0.0000000000000000e+00  1.1880223541592676e-01 -4.3835623924960779e-02 0.0000000000000000e+00  1.2297337652067482e-01 -2.4637864694995511e-02 0.0000000000000000e+00  1.2493477938917238e-01 -6.9692648241334899e-03 0.0000000000000000e+00  0.0000000000000000e+00 0.0000000000000000e+00 0.0000000000000000e+00  1.2452869811596268e-03 -3.2862125448946587e-02 0.0000000000000000e+00  4.7933653803614480e-03 -6.5719004621215646e-02 0.0000000000000000e+00  1.0367149938431531e-02 -9.3983945060710047e-02 0.0000000000000000e+00  1.7743133252189715e-02 -1.1575253181191435e-01 0.0000000000000000e+00  2.6741354315453540e-02 -1.3067959409606561e-01 0.0000000000000000e+00  3.7183542584922846e-02 -1.3918973152227057e-01 0.0000000000000000e+00  4.8851652141883570e-02 -1.4198491900796106e-01 0.0000000000000000e+00  6.1461289719197849e-02 -1.3977611682137517e-01 0.0000000000000000e+00  7.4651490793932754e-02 -1.3316455297211283e-01 0.0000000000000000e+00  8.7981807991313554e-02 -1.2261480258548588e-01 0.0000000000000000e+00  1.0092851082494896e-01 -1.0848403163538023e-01 0.0000000000000000e+00  1.1286571735090863e-01 -9.1103941312644071e-02 0.0000000000000000e+00  1.2303444023084931e-01 -7.0944143752854627e-02 0.0000000000000000e+00  1.3056443443809723e-01 -4.8868353763303417e-02 0.0000000000000000e+00  1.3462167059824731e-01 -2.6458132188701283e-02 0.0000000000000000e+00  1.3490554186909084e-01 -5.7860935241108649e-03 0.0000000000000000e+00  0.0000000000000000e+00 0.0000000000000000e+00 0.0000000000000000e+00  1.2558866546298723e-03 -3.5293226509957060e-02 0.0000000000000000e+00  4.8083023207997509e-03 -7.0281911979078834e-02 0.0000000000000000e+00  1.0378774970356466e-02 -1.0043898221052130e-01 0.0000000000000000e+00  1.7778905539489409e-02 -1.2392749152880238e-01 0.0000000000000000e+00  2.6878361913480680e-02 -1.4042554120207223e-01 0.0000000000000000e+00  3.7542942471278012e-02 -1.5032769548498068e-01 0.0000000000000000e+00  4.9581693089392739e-02 -1.5426816842365890e-01 0.0000000000000000e+00  6.2719036090120014e-02 -1.5287441146470915e-01 0.0000000000000000e+00  7.6589725256239735e-02 -1.4666430815609735e-01 0.0000000000000000e+00  9.0745522363520181e-02 -1.3602085165355143e-01 0.0000000000000000e+00  1.0465623241320773e-01 -1.2120814295148610e-01 0.0000000000000000e+00  1.1766552659208349e-01 -1.0243240739556207e-01 0.0000000000000000e+00  1.2891785035407113e-01 -7.9973955250847051e-02 0.0000000000000000e+00  1.3724218277582254e-01 -5.4488465528939434e-02 0.0000000000000000e+00  1.4111915803341143e-01 -2.7648197634159290e-02 0.0000000000000000e+00  1.3911043605002507e-01 -2.2224113886896340e-03 0.0000000000000000e+00  0.0000000000000000e+00 0.0000000000000000e+00 0.0000000000000000e+00  1.2224333524209145e-03 -3.7675923470896468e-02 0.0000000000000000e+00  4.6228440129934354e-03 -7.4713980959769208e-02 0.0000000000000000e+00  9.9020111503655226e-03 -1.0670003570203632e-01 0.0000000000000000e+00  1.6902942902149082e-02 -1.3189858510649094e-01 0.0000000000000000e+00  2.5555472030564751e-02 -1.5001807126381611e-01 0.0000000000000000e+00  3.5785559154264880e-02 -1.6141066104045881e-01 0.0000000000000000e+00  4.7446772507976666e-02 -1.6662360012666996e-01 0.0000000000000000e+00  6.0290221770695880e-02 -1.6618495969230501e-01 0.0000000000000000e+00  7.3966950600932335e-02 -1.6052249870494820e-01 0.0000000000000000e+00  8.8049000581556250e-02 -1.4994375372147542e-01 0.0000000000000000e+00  1.0204076165771721e-01 -1.3463598264029872e-01 0.0000000000000000e+00  1.1535294670008910e-01 -1.1466167015202539e-01 0.0000000000000000e+00  1.2720627334282061e-01 -8.9996148740168508e-02 0.0000000000000000e+00  1.3621675443206213e-01 -6.0884342442722117e-02 0.0000000000000000e+00  1.4015930838380938e-01 -2.8698844782952471e-02 0.0000000000000000e+00  1.3589414598184990e-01 3.8779794229662243e-03 0.0000000000000000e+00  0.0000000000000000e+00 0.0000000000000000e+00 0.0000000000000000e+00  1.1777735455524166e-03 -3.9936955437548792e-02 0.0000000000000000e+00  4.3138896194244592e-03 -7.8809311764361817e-02 0.0000000000000000e+00  9.0221917316098115e-03 -1.1240222782967479e-01 0.0000000000000000e+00  1.5159461867611097e-02 -1.3914481014981386e-01 0.0000000000000000e+00  2.2727212220130834e-02 -1.5879611638821167e-01 0.0000000000000000e+00  3.1730914277170758e-02 -1.7165711971961065e-01 0.0000000000000000e+00  4.2089044800624746e-02 -1.7816995326837909e-01 0.0000000000000000e+00  5.3600156701921545e-02 -1.7874814056418445e-01 0.0000000000000000e+00  6.5952126951582354e-02 -1.7372411835489152e-01 0.0000000000000000e+00  7.8752830589467804e-02 -1.6334226817375525e-01 0.0000000000000000e+00  9.1567698995431185e-02 -1.4774544707586562e-01 0.0000000000000000e+00  1.0395965002566809e-01 -1.2691599238475490e-01 0.0000000000000000e+00  1.1536616244754759e-01 -1.0061148241605068e-01 0.0000000000000000e+00  1.2462785815325783e-01 -6.8339303243321076e-02 0.0000000000000000e+00  1.2939093127431567e-01 -2.9981912993107405e-02 0.0000000000000000e+00  1.2482847698358311e-01 1.1321817260525432e-02 0.0000000000000000e+00  0.0000000000000000e+00 0.0000000000000000e+00 0.0000000000000000e+00  1.1813512853015415e-03 -4.2072812971060733e-02 0.0000000000000000e+00  4.0188505030921990e-03 -8.2411040481814551e-02 0.0000000000000000e+00  7.9183415958740729e-03 -1.1718445100039605e-01 0.0000000000000000e+00  1.2736828717452828e-02 -1.4510759891875230e-01 0.0000000000000000e+00  1.8569961585549088e-02 -1.6602449715682885e-01 0.0000000000000000e+00  2.5523726445861247e-02 -1.8017659547559214e-01 0.0000000000000000e+00  3.3600305804086794e-02 -1.8788388704829329e-01 0.0000000000000000e+00  4.2666780842292515e-02 -1.8943177760569943e-01 0.0000000000000000e+00  5.2467959637499957e-02 -1.8504937507823369e-01 0.0000000000000000e+00  6.2657728597915657e-02 -1.7491792539543938e-01 0.0000000000000000e+00  7.2857131858447194e-02 -1.5916781299629340e-01 0.0000000000000000e+00  8.2716372353887679e-02 -1.3783094235569837e-01 0.0000000000000000e+00  9.1941471701735264e-02 -1.1061494336885727e-01 0.0000000000000000e+00  1.0036213145761926e-01 -7.6321283033024448e-02 0.0000000000000000e+00  1.0618889303879310e-01 -3.2929451161286830e-02 0.0000000000000000e+00  1.0008978895602361e-01 1.7651675071604606e-02 0.0000000000000000e+00  0.0000000000000000e+00 0.0000000000000000e+00 0.0000000000000000e+00  1.2753992116189999e-03 -4.4172840924230287e-02 0.0000000000000000e+00  3.8128859413021432e-03 -8.5415983772416881e-02 0.0000000000000000e+00  6.6923394124764907e-03 -1.2072393181700201e-01 0.0000000000000000e+00  9.8171739551280324e-03 -1.4927855434000734e-01 0.0000000000000000e+00  1.3408395720960907e-02 -1.7102928850394847e-01 0.0000000000000000e+00  1.7673200184755943e-02 -1.8614059230265789e-01 0.0000000000000000e+00  2.2696426616693882e-02 -1.9479764972975694e-01 0.0000000000000000e+00  2.8424820496122521e-02 -1.9715307978785232e-01 0.0000000000000000e+00  3.4682960836115155e-02 -1.9332664591199400e-01 0.0000000000000000e+00  4.1195780798863400e-02 -1.8342126993123084e-01 0.0000000000000000e+00  4.7618576446450012e-02 -1.6754037905460784e-01 0.0000000000000000e+00  5.3561528640701114e-02 -1.4577620980277423e-01 0.0000000000000000e+00  5.8844081318405746e-02 -1.1806206423938687e-01 0.0000000000000000e+00  6.3782558004920470e-02 -8.3859105452373781e-02 0.0000000000000000e+00  6.8690596232786880e-02 -4.0592623478523771e-02 0.0000000000000000e+00  7.2943639372929039e-02 1.4451800447766106e-02 0.0000000000000000e+00  0.0000000000000000e+00 0.0000000000000000e+00 0.0000000000000000e+00  1.2875089320152125e-03 -4.6234260095788376e-02 0.0000000000000000e+00  3.2493497828747684e-03 -8.7611597372240779e-02 0.0000000000000000e+00  4.8324848816079539e-03 -1.2274607521378759e-01 0.0000000000000000e+00  6.1231257866151741e-03 -1.5135902983393146e-01 0.0000000000000000e+00  7.4176728986547844e-03 -1.7345766337832527e-01 0.0000000000000000e+00  8.9413986560577512e-03 -1.8910685100016447e-01 0.0000000000000000e+00  1.0806270048003611e-02 -1.9836543646997132e-01 0.0000000000000000e+00  1.3019870718795774e-02 -2.0127532247453264e-01 0.0000000000000000e+00  1.5503477688619391e-02 -1.9786483880349034e-01 0.0000000000000000e+00  1.8101110176445844e-02 -1.8815675671482393e-01 0.0000000000000000e+00  2.0568136153511715e-02 -1.7218014857590835e-01 0.0000000000000000e+00  2.2566346750122483e-02 -1.4997207244593153e-01 0.0000000000000000e+00  2.3728930896396477e-02 -1.2162705491668363e-01 0.0000000000000000e+00  2.3468739713385346e-02 -8.7264311121319105e-02 0.0000000000000000e+00  2.3182807245401223e-02 -4.6268492584448352e-02 0.0000000000000000e+00  1.9480076272700327e-02 1.3767180354818634e-03 0.0000000000000000e+00  0.0000000000000000e+00 -3.4192300978935618e-18 0.0000000000000000e+00  0.0000000000000000e+00 -4.7403339514166414e-02 0.0000000000000000e+00  0.0000000000000000e+00 -8.8486233759777308e-02 0.0000000000000000e+00  0.0000000000000000e+00 -1.2324868273683268e-01 0.0000000000000000e+00  0.0000000000000000e+00 -1.5169068644533251e-01 0.0000000000000000e+00  0.0000000000000000e+00 -1.7381224488527686e-01 0.0000000000000000e+00  0.0000000000000000e+00 -1.8961335805666565e-01 0.0000000000000000e+00  0.0000000000000000e+00 -1.9909402595949893e-01 0.0000000000000000e+00  0.0000000000000000e+00 -2.022