<?xml version="1.0"?>
<VTKFile type="UnstructuredGrid"  version="0.1"  >
<UnstructuredGrid>
<Piece  NumberOfPoints="289" NumberOfCells="512">
<Points>
<DataArray  type="Float64"  NumberOfComponents="3"  format="ascii">0 0 0  0.0625 0 0  0.125 0 0  0.1875 0 0  0.25 0 0  0.3125 0 0  0.375 0 0  0.4375 0 0  0.5 0 0  0.5625 0 0  0.625 0 0  0.6875 0 0  0.75 0 0  0.8125 0 0  0.875 0 0  0.9375 0 0  1 0 0  0 0.0625 0  0.06253118473333395 0.06247247279971962 0  0.1250642731656526 0.06244445008977913 0  0.1876013217218722 0.06241547016998647 0  0.2501447323355696 0.06238516860969321 0  0.3126974727973779 0.06235334027264967 0  0.3752633650692297 0.06232001555565828 0  0.4378474890630634 0.06228554987400688 0  0.5004567903852885 0.06225071689302451 0  0.5631010775596444 0.06221677959559928 0  0.6257948368061874 0.06218548226036725 0  0.6885609355622456 0.06215884547115723 0  0.7514390980851452 0.06213851078305418 0  0.8145074637539625 0.06212401437759764 0  0.877942779723364 0.06210815468611841 0  0.942203160478277 0.06206304276359734 0  1.008637722061998 0.06189248636520859 0  0 0.125 0  0.06256044394700482 0.1249454133292712 0  0.1251245514925903 0.1248897856318263 0  0.1876962826411059 0.1248321385997646 0  0.2502802695252818 0.1247716776952195 0  0.3128822452321219 0.1247079134360413 0  0.3755096019925756 0.124640815912575 0  0.4381721599177122 0.1245710052282443 0  0.5008832833974907 0.124499967021094 0  0.5636616005210968 0.1244302558642202 0  0.6265338361185251 0.1243656020812116 0  0.6895398179087163 0.1243107607899974 0  0.7527418366020863 0.1242708408027724 0  0.8162424709574435 0.124249817054876 0  0.8802163824371276 0.1242484978393896 0  0.9449509952575804 0.124266033485971 0  1.010806685528184 0.1243281120770909 0  0 0.1875 0  0.06258605700819241 0.1874193797368836 0  0.1251772382238558 0.1873370825147359 0  0.1877790820902621 0.1872515124844897 0  0.2503980697222294 0.18716132016886 0  0.3130422252294186 0.1870655745834315 0  0.3757218904292057 0.1869639947131739 0  0.4384507671067517 0.1868572544117967 0  0.5012473598867949 0.1867473620828144 0  0.5641370175354811 0.1866380883865768 0  0.6271548664252039 0.1865353599661642 0  0.6903500277466699 0.1864474376480306 0  0.753791408808432 0.186384527930298 0  0.8175742239645082 0.186357177092167 0  0.881821488292186 0.18637210357542 0  0.9466590834892121 0.1864215938733094 0  1.012108121549151 0.186450664598939 0  0 0.25 0  0.06260661058203795 0.2498950189985669 0  0.1252193776010995 0.2497876067684012 0  0.1878449500743542 0.2496754144484967 0  0.2504911039769189 0.2495563620956771 0  0.3131674613268254 0.2494288435768769 0  0.3758864152944254 0.249292022747685 0  0.4386643562478814 0.249146255067791 0  0.5015233089250292 0.2489936648220713 0  0.5644930894530199 0.2488388902965264 0  0.6276140281591601 0.2486899624738196 0  0.6909400604515274 0.2485591811244049 0  0.7545412613433956 0.2484636529529022 0  0.8185030061726749 0.2484247924017619 0  0.8829146825760477 0.2484654734072331 0  0.947833609310307 0.2486027908917767 0  1.013205761433172 0.2488357527735409 0  0 0.3125 0  0.06262111351764857 0.3123730931198913 0  0.1252488992795452 0.3122428747285264 0  0.1878905511402071 0.3121060928285773 0  0.2505544651951214 0.3119597288809856 0  0.3132510153968614 0.3118012038498659 0  0.3759935613987254 0.3116287073066239 0  0.4387997924103669 0.3114417104286861 0  0.5016935176815442 0.311241737482471 0  0.5647069857129023 0.3110334785286576 0  0.6278836899724075 0.3108263127769033 0  0.6912812746592306 0.3106362438551205 0  0.7549733682466205 0.3104880623894276 0  0.8190476545304329 0.3104171482458367 0  0.8835952344080623 0.3104696039773821 0  0.9486850035113112 0.3106984549470923 0  1.014323046954652 0.3111531021677928 0  0 0.375 0  0.06262907014752772 0.3748544849681966 0  0.1252647761029421 0.3747046728230304 0  0.1879142486572082 0.3745462732724366 0  0.2505857701608422 0.3743751200454232 0  0.3132895349920472 0.3741873311842403 0  0.3760386650395519 0.3739796133337284 0  0.4388506095257141 0.3737497979670038 0  0.5017490865651894 0.3734977367654713 0  0.5647667297274521 0.3732267344009632 0  0.6279485351325134 0.3729457500462256 0  0.6913559629730994 0.3726726202197599 0  0.7550709792308509 0.3724384580159656 0  0.8191983147928982 0.3722929879587913 0  0.8838630791391366 0.372309609838761 0  0.9492012901124908 0.3725872771193339 0  1.015347180605342 0.3732442835745186 0  0 0.4375 0  0.06263050498448408 0.4373401759798107 0  0.1252670811801371 0.4371750196538091 0  0.1879162099795567 0.4369991209598488 0  0.2505853372729341 0.4368070025170507 0  0.3132835346697414 0.4365931747902516 0  0.3760224244957849 0.4363523316157609 0  0.4388175348346579 0.4360797910058011 0  0.5016903297485575 0.4357723533234161 0  0.5646712624817233 0.4354298548379272 0  0.6278043043100976 0.435057849436804 0  0.6911534415108505 0.4346720447692982 0  0.7548114643023205 0.4343052690783833 0  0.818910799169508 0.434017584612272 0  0.8836351972574455 0.4339090979276 0  0.9492310205732687 0.4341322649004672 0  1.016021890323922 0.4348963455816558 0  0 0.5 0  0.06262593478628159 0.4998311895914542 0  0.1252569353382812 0.4996560553366738 0  0.1878983379872827 0.49946808347453 0  0.2505561221217742 0.499260426916325 0  0.3132373766169222 0.4990257927156173 0  0.3759510022424409 0.4987564288876009 0  0.4387088435289638 0.4984443089515373 0  0.5015275885946785 0.4980816987943226 0  0.5644320207362192 0.4976624463079157 0  0.6274605925630988 0.4971846076211991 0  0.6906748333815965 0.4966554759897213 0  0.7541746766262972 0.4961007346711914 0  0.8181219798117675 0.4955800976997089 0  0.8827735145835527 0.4952114370260626 0  0.9485225731976854 0.4952015399938426 0  1.015951018657165 0.4958716755371473 0  0 0.5625 0  0.06261628683219506 0.5623284984715629 0  0.1252363400971357 0.5621498512360737 0  0.1878640150076176 0.5619565955029172 0  0.2505033784683606 0.5617406226004548 0  0.3131588856606011 0.5614928480334969 0  0.3758357026216932 0.5612028969625283 0  0.438540353203848 0.5608588618539467 0  0.5012820648876714 0.5604472697313434 0  0.5640755765294885 0.5599535652394795 0  0.6269469070392006 0.5593637663109563 0  0.6899448802612677 0.5586686660615717 0  0.7531632008590554 0.5578733575065628 0  0.8167801450636742 0.5570172919501503 0  0.8811232871663197 0.5562129440740835 0  0.946760877594406 0.5557094252600981 0  1.014611973715883 0.555968979447646 0  0 0.625 0  0.06260276677978945 0.624832900664254 0  0.1252078992509758 0.6246581481350063 0  0.1878176527033879 0.6244676507473484 0  0.250434008992626 0.6242523619709387 0  0.3130584948267289 0.6240017162951814 0  0.3756919811915239 0.623702962349434 0  0.4383345531797024 0.6233403716375903 0  0.5009857265514361 0.6228943390425752 0  0.5636457316710148 0.6223404991226873 0  0.626319591836525 0.6216492718651322 0  0.6890278817673892 0.6207870123092034 0  0.7518323231987647 0.6197219123791521 0  0.814891596851438 0.6184427513850593 0  0.8785705177906025 0.61700948637443 0  0.9436198795528074 0.6156681576420248 0  1.01141342662705 0.6150349824351365 0  0 0.6875 0  0.06258668709576433 0.6873448787342701 0  0.1251744483355951 0.6871820510209314 0  0.1877640671599135 0.6870032823786297 0  0.2503556033258676 0.6867991436658085 0  0.312947846748087 0.6865582466990586 0  0.3755375317611314 0.6862662510176251 0  0.4381182291645224 0.685904521336134 0  0.5006789092096332 0.6854482766513834 0  0.5632024641874277 0.6848640358481014 0  0.6256653923234284 0.6841061856760531 0  0.6880423817961264 0.6831127912439116 0  0.7503260813752433 0.6818021593967426 0  0.8125878395605954 0.6800772512131192 0  0.8751354620868127 0.6778661324120205 0  0.9388430580528117 0.6752955136905915 0  1.005614741316766 0.6731308022915181 0  0 0.75 0  0.06256927762851032 0.7498644647948334 0  0.1251386362402229 0.7497217295290818 0  0.1877077458638083 0.7495640337529762 0  0.250275243535431 0.7493823180855681 0  0.3128379093183378 0.7491653504682801 0  0.3753893874842835 0.748898528664501 0  0.4379181550490543 0.7485621537364103 0  0.5004043031192872 0.7481288515135019 0  0.5628145765538249 0.7475596132370235 0  0.6250952775800362 0.7467975604967535 0  0.6871640587778453 0.7457578954925106 0  0.7489076117552965 0.7443115297990147 0  0.810213371727188 0.7422597193695563 0  0.8711319581265308 0.7393076147654479 0  0.9324593533174742 0.7351407705414738 0  0.9966325112117752 0.7305020033804333 0  0 0.8125 0  0.06255151076792939 0.8123911398446059 0  0.1251025311777502 0.8122761875147203 0  0.1876521331320789 0.8121485325561384 0  0.2501982782053422 0.8120003440516601 0  0.3127368980901225 0.8118217231414173 0  0.375260400894301 0.8115995048247489 0  0.4377551412887168 0.8113154710139939 0  0.5001970288829657 0.8109435827195762 0  0.562543783143895 0.8104455519459777 0  0.6247211944107699 0.8097634994713894 0  0.6865991009667884 0.8088071698388241 0  0.747952000917764 0.8074300090366532 0  0.8084077650140652 0.8053799511847568 0  0.8674484258622563 0.8021884010941122 0  0.9248742589874009 0.7969110511634283 0  0.9850341354096822 0.7875929483326826 0  0 0.875 0  0.06253397976637474 0.8749237950793157 0  0.1250673415610417 0.8748431655289413 0  0.1875991073763207 0.87475328779421 0  0.2501273791956301 0.8746483894959236 0  0.3126485590256137 0.8745210780176558 0  0.375156045981433 0.8743613753509478 0  0.4376379424709562 0.8741552574328814 0  0.5000728524839178 0.8738823703476333 0  0.5624218925240601 0.8735123808962069 0  0.6246129187223639 0.8729990452242858 0  0.686508237366411 0.8722703473109222 0  0.7478365284773868 0.8712111027789829 0  0.8080474994878541 0.869626845109961 0  0.8660085747583933 0.8671433434811048 0  0.9194326360591902 0.8628455926293286 0  0.9641070894450948 0.8538925498310214 0  0 0.9375 0  0.06251686439127331 0.9374607741706131 0  0.1250333354176289 0.9374192215324961 0  0.1875488215403952 0.9373727987105915 0  0.2500622221680243 0.9373184443765415 0  0.3125714924131903 0.9372522092283356 0  0.3750729074413469 0.9371687202284167 0  0.437559744327351 0.9370603668946
[...]
<PointData  Vectors="f_95-0"> 
<DataArray  type="Float64"  Name="f_95-0"  NumberOfComponents="3" format="ascii">0.0000000000000000e+00 0.0000000000000000e+00 0.0000000000000000e+00  -4.4814872678059647e-04 3.2008398413786596e-02 0.0000000000000000e+00  -1.2825410424333456e-03 5.9956028336400471e-02 0.0000000000000000e+00  -2.3178763491291713e-03 8.0868619725762092e-02 0.0000000000000000e+00  -3.5477509150294616e-03 9.4259012459385227e-02 0.0000000000000000e+00  -4.9324823304226668e-03 1.0081920463030616e-01 0.0000000000000000e+00  -6.4374903890481432e-03 1.0176172541239858e-01 0.0000000000000000e+00  -8.0294386369857054e-03 9.8402470747447027e-02 0.0000000000000000e+00  -9.6744082700865180e-03 9.1932011131650532e-02 0.0000000000000000e+00  -1.1334484248600771e-02 8.3317756000326412e-02 0.0000000000000000e+00  -1.2964029916814911e-02 7.3290266898954487e-02 0.0000000000000000e+00  -1.4505170303207674e-02 6.2375399452649374e-02 0.0000000000000000e+00  -1.5885878179320797e-02 5.0948040106304535e-02 0.0000000000000000e+00  -1.6994520601603242e-02 3.9269270341988238e-02 0.0000000000000000e+00  -1.7665700725892939e-02 2.7572681477675158e-02 0.0000000000000000e+00  -1.7984548975551618e-02 1.6223021840225949e-02 0.0000000000000000e+00  -8.9793612828346532e-03 9.1548627149412257e-03 0.0000000000000000e+00  0.0000000000000000e+00 0.0000000000000000e+00 0.0000000000000000e+00  -3.9899086655023836e-04 3.2758875906823429e-02 0.0000000000000000e+00  -1.2947347482683530e-03 6.0964401847289566e-02 0.0000000000000000e+00  -2.4666167689686093e-03 8.2091098903895210e-02 0.0000000000000000e+00  -3.8651052680710209e-03 9.5649734097922753e-02 0.0000000000000000e+00  -5.4363078643339877e-03 1.0233570342651835e-01 0.0000000000000000e+00  -7.1400620031482872e-03 1.0336418501416667e-01 0.0000000000000000e+00  -8.9383632849918768e-03 1.0005205908258163e-01 0.0000000000000000e+00  -1.0793440326072285e-02 9.3586915089130515e-02 0.0000000000000000e+00  -1.2663023909956030e-02 8.4928536402109275e-02 0.0000000000000000e+00  -1.4496364941016427e-02 7.4795146918305216e-02 0.0000000000000000e+00  -1.6231388411220054e-02 6.3695299737431904e-02 0.0000000000000000e+00  -1.7791572437951417e-02 5.1974803551298396e-02 0.0000000000000000e+00  -1.9075482295457340e-02 3.9858193480383622e-02 0.0000000000000000e+00  -2.0009309904550274e-02 2.7474027988487328e-02 0.0000000000000000e+00  -2.0160500928187816e-02 1.4746128349790768e-02 0.0000000000000000e+00  -2.0596197411608268e-02 3.4049812800544350e-03 0.0000000000000000e+00  0.0000000000000000e+00 0.0000000000000000e+00 0.0000000000000000e+00  -4.0738841534922594e-04 3.3507566408499487e-02 0.0000000000000000e+00  -1.4800576706201142e-03 6.2165371319843066e-02 0.0000000000000000e+00  -3.0051772606762926e-03 8.3600824319588235e-02 0.0000000000000000e+00  -4.8574107402204244e-03 9.7383915671564555e-02 0.0000000000000000e+00  -6.9460927798093439e-03 1.0423026186014851e-01 0.0000000000000000e+00  -9.2086295736518182e-03 1.0536607528263041e-01 0.0000000000000000e+00  -1.1591955345588137e-02 1.0211289664302318e-01 0.0000000000000000e+00  -1.4045421531916943e-02 9.5655817507468779e-02 0.0000000000000000e+00  -1.6512603526401874e-02 8.6946011977710486e-02 0.0000000000000000e+00  -1.8926751235990882e-02 7.6688900432446264e-02 0.0000000000000000e+00  -2.1209500022653271e-02 6.5378072757594635e-02 0.0000000000000000e+00  -2.3273681296411219e-02 5.3344640890196943e-02 0.0000000000000000e+00  -2.5033363972672296e-02 4.0800959517298438e-02 0.0000000000000000e+00  -2.6404387145578363e-02 2.7865584433990662e-02 0.0000000000000000e+00  -2.7337081476708609e-02 1.4594477325025987e-02 0.0000000000000000e+00  -2.7730312000227332e-02 1.3389067310288002e-03 0.0000000000000000e+00  0.0000000000000000e+00 0.0000000000000000e+00 0.0000000000000000e+00  -5.0840456015806962e-04 3.4391812823613768e-02 0.0000000000000000e+00  -1.8987344132338744e-03 6.3716054833076852e-02 0.0000000000000000e+00  -3.9519341497750169e-03 8.5620209694343363e-02 0.0000000000000000e+00  -6.4822162413987897e-03 9.9732691324285097e-02 0.0000000000000000e+00  -9.3559498549735075e-03 1.0680979244591467e-01 0.0000000000000000e+00  -1.2478467295840227e-02 1.0810183649269520e-01 0.0000000000000000e+00  -1.5773834950031738e-02 1.0493945821314531e-01 0.0000000000000000e+00  -1.9169778816691269e-02 9.8504686141111464e-02 0.0000000000000000e+00  -2.2585346332731394e-02 8.9737231324569358e-02 0.0000000000000000e+00  -2.5924769899835397e-02 7.9327357753557107e-02 0.0000000000000000e+00  -2.9077454259994945e-02 6.7755629456257752e-02 0.0000000000000000e+00  -3.1926030084625211e-02 5.5349461217003071e-02 0.0000000000000000e+00  -3.4359103287413026e-02 4.2335071036148669e-02 0.0000000000000000e+00  -3.6294906337797000e-02 2.8873019583698672e-02 0.0000000000000000e+00  -3.7663564332648954e-02 1.5042044759765574e-02 0.0000000000000000e+00  -3.8435467847598472e-02 9.6440905605478511e-04 0.0000000000000000e+00  0.0000000000000000e+00 0.0000000000000000e+00 0.0000000000000000e+00  -6.6694454947229084e-04 3.5535181548214979e-02 0.0000000000000000e+00  -2.4957350364754436e-03 6.5762124746698514e-02 0.0000000000000000e+00  -5.2186844552680450e-03 8.8326892141167457e-02 0.0000000000000000e+00  -8.6005126062219904e-03 1.0291246722594058e-01 0.0000000000000000e+00  -1.2468069673998298e-02 1.1032837642268230e-01 0.0000000000000000e+00  -1.6695329052017829e-02 1.1185842023766088e-01 0.0000000000000000e+00  -2.1180118420048182e-02 1.0884507673437835e-01 0.0000000000000000e+00  -2.5821871921433211e-02 1.0246465982948282e-01 0.0000000000000000e+00  -3.0505109284195905e-02 9.3639570237099304e-02 0.0000000000000000e+00  -3.5090788658936015e-02 8.3038558587996802e-02 0.0000000000000000e+00  -3.9416236975215152e-02 7.1125536554247137e-02 0.0000000000000000e+00  -4.3306033934458796e-02 5.8226864929158177e-02 0.0000000000000000e+00  -4.6592977497509354e-02 4.4593920342673371e-02 0.0000000000000000e+00  -4.9151979910988124e-02 3.0438383122215789e-02 0.0000000000000000e+00  -5.0917494462984526e-02 1.5920563902702592e-02 0.0000000000000000e+00  -5.1967725799864674e-02 1.0744254144386593e-03 0.0000000000000000e+00  0.0000000000000000e+00 0.0000000000000000e+00 0.0000000000000000e+00  -8.5676216351680389e-04 3.7012860635149032e-02 0.0000000000000000e+00  -3.1945507166318663e-03 6.8408609103480025e-02 0.0000000000000000e+00  -6.6780666819416853e-03 9.1849069134278177e-02 0.0000000000000000e+00  -1.1027801908312941e-02 1.0708303717561342e-01 0.0000000000000000e+00  -1.6039441351183233e-02 1.1498297068847163e-01 0.0000000000000000e+00  -2.1561791576378199e-02 1.1687089703878414e-01 0.0000000000000000e+00  -2.7466828458308973e-02 1.1409977713455778e-01 0.0000000000000000e+00  -3.3621417433318465e-02 1.0783351189023857e-01 0.0000000000000000e+00  -3.9866631651372962e-02 9.8966925115079957e-02 0.0000000000000000e+00  -4.6005840612425700e-02 8.8135381700706852e-02 0.0000000000000000e+00  -5.1802954196983733e-02 7.5774896491085750e-02 0.0000000000000000e+00  -5.6995015278578337e-02 6.2203436143288722e-02 0.0000000000000000e+00  -6.1321033520087172e-02 4.7699809324429299e-02 0.0000000000000000e+00  -6.4581079292047774e-02 3.2553875520834018e-02 0.0000000000000000e+00  -6.6695989315913917e-02 1.7051488425962449e-02 0.0000000000000000e+00  -6.7849302961678612e-02 1.3080472732722676e-03 0.0000000000000000e+00  0.0000000000000000e+00 0.0000000000000000e+00 0.0000000000000000e+00  -1.0539957309164145e-03 3.8859375061488059e-02 0.0000000000000000e+00  -3.9176952744785281e-03 7.1706388718296557e-02 0.0000000000000000e+00  -8.1893082897973885e-03 9.6255833420501022e-02 0.0000000000000000e+00  -1.3557140944315094e-02 1.1234322574028084e-01 0.0000000000000000e+00  -1.9799494170113247e-02 1.2091243203260063e-01 0.0000000000000000e+00  -2.6749453609288227e-02 1.2332320832340585e-01 0.0000000000000000e+00  -3.4256144407273398e-02 1.2093192304017748e-01 0.0000000000000000e+00  -4.2151342805601504e-02 1.1487849036857545e-01 0.0000000000000000e+00  -5.0225252969057665e-02 1.0601543588440653e-01 0.0000000000000000e+00  -5.8211271752809206e-02 9.4926888404895396e-02 0.0000000000000000e+00  -6.5780379541030998e-02 8.1999980544640402e-02 0.0000000000000000e+00  -7.2550311754005267e-02 6.7524896911122331e-02 0.0000000000000000e+00  -7.8119544544277220e-02 5.1802528968694091e-02 0.0000000000000000e+00  -8.2155111922378898e-02 3.5225889463624670e-02 0.0000000000000000e+00  -8.4504421971681246e-02 1.8287898332921416e-02 0.0000000000000000e+00  -8.5448359864960133e-02 1.3150309712820754e-03 0.0000000000000000e+00  0.0000000000000000e+00 0.0000000000000000e+00 0.0000000000000000e+00  -1.2354252321787813e-03 4.1066096098244270e-02 0.0000000000000000e+00  -4.5852037953584722e-03 7.5642768964174448e-02 0.0000000000000000e+00  -9.5999428378203498e-03 1.0154619277809927e-01 0.0000000000000000e+00  -1.5959545969421830e-02 1.1872226614287276e-01 0.0000000000000000e+00  -2.3444967646409357e-02 1.2819061545698410e-01 0.0000000000000000e+00  -3.1885726785306871e-02 1.3134113128374375e-01 0.0000000000000000e+00  -4.1112259743002914e-02 1.2951999681418888e-01 0.0000000000000000e+00  -5.0919393262362556e-02 1.2382712029039691e-01 0.0000000000000000e+00  -6.1041284607122492e-02 1.1505446606816545e-01 0.0000000000000000e+00  -7.1133909944705156e-02 1.0371184357526896e-01 0.0000000000000000e+00  -8.0761058863028007e-02 9.0108570853062953e-02 0.0000000000000000e+00  -8.9391863042405637e-02 7.4473902504231318e-02 0.0000000000000000e+00  -9.6430313754737040e-02 5.7099534204680294e-02 0.0000000000000000e+00  -1.0131849053175029e-01 3.8483503423953978e-02 0.0000000000000000e+00  -1.0371182342780812e-01 1.9416929995247873e-02 0.0000000000000000e+00  -1.0389366042652962e-01 6.3906958837347335e-04 0.0000000000000000e+00  0.0000000000000000e+00 0.0000000000000000e+00 0.0000000000000000e+00  -1.3758394019306641e-03 4.3579884212158901e-02 0.0000000000000000e+00  -5.1090285408564749e-03 8.0134948030072789e-02 0.0000000000000000e+00  -1.0739517304258504e-02 1.0763865364597873e-01 0.0000000000000000e+00  -1.7975093019726749e-02 1.2616744493431020e-01 0.0000000000000000e+00  -2.6625295737399586e-02 1.3681181608944068e-01 0.0000000000000000e+00  -3.6529664298639603e-02 1.4097417835150874e-01 0.0000000000000000e+00  -4.7503265966119708e-02 1.3996961788190104e-01 0.0000000000000000e+00  -5.9301687205382821e-02 1.3483841302589111e-01 0.0000000000000000e+00  -7.1600602420239440e-02 1.2629326227754234e-01 0.0000000000000000e+00  -8.3977199981760453e-02 1.1474859230573037e-01 0.0000000000000000e+00  -9.5886924677917901e-02 1.0040264422691582e-01 0.0000000000000000e+00  -1.0664123750906083e-01 8.3362226248164320e-02 0.0000000000000000e+00  -1.1539851289727783e-01 6.3834598650320290e-02 0.0000000000000000e+00  -1.2124501121471663e-01 4.2395336625386269e-02 0.0000000000000000e+00  -1.2345499392935162e-01 2.0212576372583113e-02 0.0000000000000000e+00  -1.2209241774008081e-01 -1.3321918550111018e-03 0.0000000000000000e+00  0.0000000000000000e+00 0.0000000000000000e+00 0.0000000000000000e+00  -1.4467484321700039e-03 4.6297830141289083e-02 0.0000000000000000e+00  -5.3907031849927236e-03 8.5021080480521150e-02 0.0000000000000000e+00  -1.1417140956365320e-02 1.1435902914360577e-01 0.0000000000000000e+00  -1.9309003246807066e-02 1.3452775265822747e-01 0.0000000000000000e+00  -2.8933867023772479e-02 1.4666850258310765e-01 0.0000000000000000e+00  -4.0153748735263402e-02 1.5216533329444032e-01 0.0000000000000000e+00  -5.2768747703995290e-02 1.5227309721346727e-01 0.0000000000000000e+00  -6.6491035951954366e-02 1.4795108662171119e-01 0.0000000000000000e+00  -8.0935365525497072e-02 1.3981998430798590e-01 0.0000000000000000e+00  -9.5607088201867529e-02 1.2818587094890396e-01 0.0000000000000000e+00  -1.0988037132418879e-01 1.1310038432212305e-01 0.0000000000000000e+00  -1.2293015329602047e-01 9.4482458155317861e-02 0.0000000000000000e+00  -1.3364459608767881e-01 7.2361348325206326e-02 0.0000000000000000e+00  -1.4064472559421523e-01 4.7236400542626011e-02 0.0000000000000000e+00  -1.4254920825782638e-01 2.0563712544784295e-02 0.0000000000000000e+00  -1.3878395141695038e-01 -5.2667021499920906e-03 0.0000000000000000e+00  0.0000000000000000e+00 0.0000000000000000e+00 0.0000000000000000e+00  -1.4180442382123060e-03 4.9062489384454379e-02 0.0000000000000000e+00  -5.3277696135292530e-03 9.0053881081709294e-02 0.0000000000000000e+00  -1.1433616159248539e-02 1.2143024546830275e-01 0.0000000000000000e+00  -1.9646901649870593e-02 1.4353621922022858e-01 0.0000000000000000e+00  -2.9921464567726125e-02 1.5752293472773057e-01 0.0000000000000000e+00  -4.2150167018570502e-02 1.6470945783940255e-01 0.0000000000000000e+00  -5.6114279475504146e-02 1.6625277114642037e-01 0.0000000000000000e+00  -7.1474150885992363e-02 1.6301009856292176e-01 0.0000000000000000e+00  -8.7779219872741870e-02 1.5550588514675306e-01 0.0000000000000000e+00  -1.0448120992009402e-01 1.4394172441090541e-01 0.0000000000000000e+00  -1.2091507598512241e-01 1.2822942074090543e-01 0.0000000000000000e+00  -1.3618340962407030e-01 1.0806916943561384e-01 0.0000000000000000e+00  -1.4903637242739418e-01 8.3086071707336284e-02 0.0000000000000000e+00  -1.5759488125219859e-01 5.3314001724237774e-02 0.0000000000000000e+00  -1.5935722186096976e-01 2.0401299482706962e-02 0.0000000000000000e+00  -1.5233616068242389e-01 -1.1695232190756381e-02 0.0000000000000000e+00  0.0000000000000000e+00 0.0000000000000000e+00 0.0000000000000000e+00  -1.2647563091428857e-03 5.1664575629241621e-02 0.0000000000000000e+00  -4.8358399021926155e-03 9.4905149269093145e-02 0.0000000000000000e+00  -1.0619476002085218e-02 1.2847121939732589e-01 0.0000000000000000e+00  -1.8703470525930611e-02 1.5279595143201724e-01 0.0000000000000000e+00  -2.9148149023625808e-02 1.6897612549814420e-01 0.0000000000000000e+00  -4.1879600124147799e-02 1.7820379091895569e-01 0.0000000000000000e+00  -5.6652985360758405e-02 1.8149290857637448e-01 0.0000000000000000e+00  -7.3065956114937533e-02 1.7957718006253123e-01 0.0000000000000000e+00  -9.0598454473338128e-02 1.7288940598978259e-01 0.0000000000000000e+00  -1.0865828728060994e-01 1.6156383097985744e-01 0.0000000000000000e+00  -1.2657448628622539e-01 1.4542761044649433e-01 0.0000000000000000e+00  -1.4355899781855108e-01 1.2393131540748342e-01 0.0000000000000000e+00  -1.5849193742318474e-01 9.6177177652166088e-02 0.0000000000000000e+00  -1.6901143267995544e-01 6.1607105129267196e-02 0.0000000000000000e+00  -1.7148498464354320e-01 2.1272412731820373e-02 0.0000000000000000e+00  -1.6149364099510907e-01 -2.0414701439836244e-02 0.0000000000000000e+00  0.0000000000000000e+00 0.0000000000000000e+00 0.0000000000000000e+00  -9.8207013282084290e-04 5.3864320931423362e-02 0.0000000000000000e+00  -3.8938309754400768e-03 9.9194362570832154e-02 0.0000000000000000e+00  -8.9089211474652381e-03 1.3501499497712244e-01 0.0000000000000000e+00  -1.6315884073054874e-02 1.6177670885716181e-01 0.0000000000000000e+00  -2.6286386292863523e-02 1.8043923884452873e-01 0.0000000000000000e+00  -3.8777052161190574e-02 1.9199599945480744e-01 0.0000000000000000e+00  -5.3512573169332611e-02 1.9726865211371933e-01 0.0000000000000000e+00  -7.0024807682070825e-02 1.9684437446180819e-01 0.0000000000000000e+00  -8.7721318374245447e-02 1.9107306629119511e-01 0.0000000000000000e+00  -1.0595497356891212e-01 1.8006988534189483e-01 0.0000000000000000e+00  -1.2409248268830972e-01 1.6366182108375446e-01 0.0000000000000000e+00  -1.4159179407645989e-01 1.4126636114929403e-01 0.0000000000000000e+00  -1.5759045352853052e-01 1.1180761278908172e-01 0.0000000000000000e+00  -1.7041427145145119e-01 7.3172085705533838e-02 0.0000000000000000e+00  -1.7620065219588490e-01 2.3099945143855619e-02 0.0000000000000000e+00  -1.6652182556746309e-01 -2.9563575501924139e-02 0.0000000000000000e+00  0.0000000000000000e+00 0.0000000000000000e+00 0.0000000000000000e+00  -6.1126551043761410e-04 5.5446802803062412e-02 0.0000000000000000e+00  -2.6142706131000483e-03 1.0255595682152900e-01 0.0000000000000000e+00  -6.4486602682091920e-03 1.4055614490418869e-01 0.0000000000000000e+00  -1.2580185328957329e-02 1.6983004023282203e-01 0.0000000000000000e+00  -2.1276552823394190e-02 1.9111528013423276e-01 0.0000000000000000e+00  -3.2521518759865559e-02 2.0513867389426063e-01 0.0000000000000000e+00  -4.6020185416308354e-02 2.1248520185019540e-01 0.0000000000000000e+00  -6.1260087908314567e-02 2.1357279593984307e-01 0.0000000000000000e+00  -7.7593020523176265e-02 2.0866687855426067e-01 0.0000000000000000e+00  -9.4324961515653977e-02 1.9788964045276825e-01 0.0000000000000000e+00  -1.1085540521566763e-01 1.8118198270938110e-01 0.0000000000000000e+00  -1.2672644102085467e-01 1.5818427922806455e-01 0.0000000000000000e+00  -1.4164065422198943e-01 1.2769006399530858e-01 0.0000000000000000e+00  -1.5608385600667260e-01 8.6842203483075670e-02 0.0000000000000000e+00  -1.6638140108766961e-01 3.0778515424027167e-02 0.0000000000000000e+00  -1.5447340829485753e-01 -3.4014938054452805e-02 0.0000000000000000e+00  0.0000000000000000e+00 0.0000000000000000e+00 0.0000000000000000e+00  -2.6826736016028987e-04 5.6329985612533530e-02 0.0000000000000000e+00  -1.3134290933419137e-03 1.0474809483152388e-01 0.0000000000000000e+00  -3.7007804451519000e-03 1.4463074307475204e-01 0.0000000000000000e+00  -7.9909826619969215e-03 1.7623328583731074e-01 0.0000000000000000e+00  -1.4507765584812662e-02 2.0000673942285613e-01 0.0000000000000000e+00  -2.3259933305751886e-02 2.1636956682662289e-01 0.0000000000000000e+00  -3.3971625376201242e-02 2.2564904284438364e-01 0.0000000000000000e+00  -4.6153734589178201e-02 2.2808124464941615e-01 0.0000000000000000e+00  -5.9180161712086621e-02 2.2383168198410489e-01 0.0000000000000000e+00  -7.2373829222127040e-02 2.1301573859844161e-01 0.0000000000000000e+00  -8.5107015231800878e-02 1.9570567054300572e-01 0.0000000000000000e+00  -9.6911360652758849e-02 1.7183966967680181e-01 0.0000000000000000e+00  -1.0826465594820167e-01 1.4097688943209269e-01 0.0000000000000000e+00  -1.2030633071880859e-01 1.0227459029575983e-01 0.0000000000000000e+00  -1.3351624601710516e-01 5.2430090013513335e-02 0.0000000000000000e+00  -1.5385271170862727e-01 -1.3781393838465775e-02 0.0000000000000000e+00  0.0000000000000000e+00 0.0000000000000000e+00 0.0000000000000000e+00  -1.2730705708798200e-04 5.6660914557605128e-02 0.0000000000000000e+00  -4.4744700113676447e-04 1.0575841064913145e-01 0.0000000000000000e+00  -1.3928019607161554e-03 1.4693529238578151e-01 0.0000000000000000e+00  -3.4640227125835969e-03 1.8029638179726173e-01 0.0000000000000000e+00  -6.9410823771688850e-03 2.0599665923472024e-01 0.0000000000000000e+00  -1.1846258904466245e-02 2.2417070670921532e-01 0.0000000000000000e+00  -1.7994194030131229e-02 2.3492078062007538e-01 0.0000000000000000e+00  -2.5049134609759011e-02 2.3832217224923233e-01 0.0000000000000000e+00  -3.2575478173407904e-02 2.3443445095953006e-01 0.0000000000000000e+00  -4.0080732207587323e-02 2.2331811151791575e-01 0.0000000000000000e+00  -4.7041807188794096e-02 2.0505177988534087e-01 0.0000000000000000e+00  -5.3064636075365178e-02 1.7972505475087941e-01 0.0000000000000000e+00  -5.7999670260245176e-02 1.4764238899528354e-01 0.0000000000000000e+00  -6.1477693480527965e-02 1.0888160751505781e-01 0.0000000000000000e+00  -6.8482073542833699e-02 6.2758627293236072e-02 0.0000000000000000e+00  -5.4954817098707767e-02 8.9551595449089590e-03 0.0000000000000000e+00  0.0000000000000000e+00 0.0000000000000000e+00 0.0000000000000000e+00  0.0000000000000000e+00 5.6752919597383607e-02 0.0000000000000000e+00  0.0000000000000000e+00 1.0593878324844942e-01 0.0000000000000000e+00  0.0000000000000000e+00 1.4755759095319737e-01 0.0000000000000000e+00  0.0000000000000000e+00 1.8160934271162754e-01 0.0000000000000000e+00  0.0000000000000000e+00 2.0809403852373989e-01 0.0000000000000000e+00  0.0000000000000000e+00 2.2701167838953443e-01 0.0000000000000000e+00  0.0000000000000000e+00 2.3836226230901117e-01 0.0000000000000000e+00  0.0000000000000000e+00 2.