<?xml version="1.0"?>
<VTKFile type="UnstructuredGrid"  version="0.1"  >
<UnstructuredGrid>
<Piece  NumberOfPoints="289" NumberOfCells="512">
<Points>
<DataArray  type="Float64"  NumberOfComponents="3"  format="ascii">0 0 0  0.0625 0 0  0.125 0 0  0.1875 0 0  0.25 0 0  0.3125 0 0  0.375 0 0  0.4375 0 0  0.5 0 0  0.5625 0 0  0.625 0 0  0.6875 0 0  0.75 0 0  0.8125 0 0  0.875 0 0  0.9375 0 0  1 0 0  0 0.0625 0  0.06249688100473336 0.06249718550506748 0  0.12499418537732 0.06249432598609015 0  0.1874924192829578 0.06249138171269055 0  0.2499922742866806 0.06248832445528012 0  0.3124947507584104 0.06248514458273394 0  0.375001323980904 0.06248185941509359 0  0.437514179746097 0.06247852243872919 0  0.5000365662265891 0.06247523185708649 0  0.5625733556792505 0.06247213484985913 0  0.6251320265906813 0.06246942000338388 0  0.6877245899697784 0.06246728238061809 0  0.7503718799800455 0.0624658254409311 0  0.8131143875442406 0.06246479709636929 0  0.8760429703657837 0.06246278962056317 0  0.9393957555810666 0.06245435745922142 0  1.003900422675418 0.06241813416099432 0  0 0.125 0  0.0624933352017314 0.1249944122692524 0  0.1249874313298233 0.1249887286849202 0  0.1874832043916095 0.1249828634152388 0  0.2499819179590426 0.1249767526061297 0  0.3124854140309056 0.1249703684367705 0  0.3749964214891611 0.1249637363224376 0  0.43751898596057 0.1249569550424176 0  0.5000590899994317 0.1249502177060328 0  0.5626255845270315 0.1249438280680211 0  0.625231664771266 0.1249382010851695 0  0.6878973697127525 0.1249338288549622 0  0.7506541047764899 0.1249311882832493 0  0.8135531527632317 0.1249305958924976 0  0.8766811025070665 0.1249322378823976 0  0.940180720676986 0.1249378223106656 0  1.004230891918066 0.1249614937524192 0  0 0.1875 0  0.06248903178386845 0.187491731351657 0  0.1249790000192665 0.187483305313615 0  0.1874710481764542 0.1874745779842638 0  0.2499667847152783 0.1874654355224157 0  0.3124685919501505 0.1874558145107615 0  0.3749800358982764 0.1874457283609445 0  0.4375064264221799 0.1874353006704925 0  0.500055593136439 0.1874248044558405 0  0.5626389668331768 0.1874147021362257 0  0.6252730898297767 0.1874056736260638 0  0.6879817095356584 0.1873986069420392 0  0.7507985603832603 0.1873945040473909 0  0.8137704814607346 0.1873942126719636 0  0.8769584975855631 0.187397764869203 0  0.9404275884893518 0.1874024724575205 0  1.004198066612088 0.1873954138715399 0  0 0.25 0  0.06248380209339908 0.2499892045101515 0  0.1249684990498576 0.2499781757649505 0  0.1874552169948515 0.2499666953330553 0  0.249945604042974 0.2499545786990825 0  0.3124421799141197 0.2499417002378769 0  0.3749488006148524 0.2499280280739195 0  0.437471288015905 0.2499136720481984 0  0.5000182791125807 0.2498989468646222 0  0.5626023446470004 0.2498844491808884 0  0.6252413912815992 0.2498711398205591 0  0.6879602456288654 0.2498604068595859 0  0.7507920021630538 0.2498540564338775 0  0.8137779322418399 0.2498541275761835 0  0.8769630003763684 0.249862350447125 0  0.9403808590048778 0.2498790296444182 0  1.004019403223577 0.2499017990229535 0  0 0.3125 0  0.0624776929731564 0.312486907760186 0  0.1249559959047458 0.3124734906089617 0  0.187435741884882 0.3124594366876647 0  0.2499182725725021 0.3124444654828709 0  0.3124057871894039 0.3124283540833123 0  0.3749018149834853 0.312410977470004 0  0.4374118641453895 0.3123923694142755 0  0.4999443022100795 0.3123728114826006 0  0.5625115083098839 0.3123529572165227 0  0.6251312805547269 0.3123339943194365 0  0.6878283315973717 0.312317834842941 0  0.7506353729111935 0.3123072937027455 0  0.8135926495939224 0.3123061585972172 0  0.8767437819980426 0.3123189666392761 0  0.9401248082584185 0.3123502294109817 0  1.003744345816869 0.3124029532385144 0  0 0.375 0  0.06247099128136255 0.3749849327608827 0  0.1249420719854447 0.374969434858352 0  0.1874135120411211 0.374953082923995 0  0.2498860009892985 0.3749354737993701 0  0.3123609517287578 0.3749162467463145 0  0.3748409307395707 0.3748951228298736 0  0.4373302765001035 0.3748719717414466 0  0.4998359793530345 0.3748469205309402 0  0.562368897597438 0.3748205236739472 0  0.6249453554172902 0.3747940177451561 0  0.6875890688277121 0.3747696814188783 0  0.7503331127703395 0.3747513002873858 0  0.8132212054031689 0.3747446719424469 0  0.8763069535012703 0.3747579418440566 0  0.9396491940374463 0.3748012943902979 0  1.00330213420317 0.3748851220836617 0  0 0.4375 0  0.06246421502062479 0.4374833850526307 0  0.1249278071928581 0.4374662253364971 0  0.1873902578292996 0.4374479731905648 0  0.2498513036447318 0.4374280801459239 0  0.3123111474130514 0.4374060079365222 0  0.3747707875276688 0.4373812569807403 0  0.4372325387879371 0.4373534252645802 0  0.4997008479899321 0.4373223185919232 0  0.5621835472869137 0.4372881455347687 0  0.6246937274730775 0.437251847716337 0  0.6872524280242562 0.4372156357851277 0  0.7498922765222946 0.4371838114071295 0  0.8126619690401135 0.437163919761304 0  0.8756309369106058 0.4371681124059275 0  0.9388926403433628 0.4372141630325335 0  1.002563948166899 0.4373247365469901 0  0 0.5 0  0.06245806916116919 0.4999823782763181 0  0.1249146907869706 0.4999640995645889 0  0.1873684162232109 0.4999444897611577 0  0.2498178212036379 0.4999228435147348 0  0.3122615747356594 0.4998984160996626 0  0.3746985993816839 0.4998704283658474 0  0.4371283982246946 0.499838097433883 0  0.4995516775985796 0.4998007166851929 0  0.5619714827362789 0.4997578281029812 0  0.6243951990736133 0.4997095637108616 0  0.6868379600391635 0.499657287309369 0  0.7493282107738538 0.4996047442762329 0  0.8119162707219636 0.4995599997678017 0  0.8746863635204335 0.4995384011944958 0  0.9377710998872931 0.4995663257246175 0  1.00136428790982 0.4996839782764374 0  0 0.5625 0  0.06245336718283419 0.5624820239480963 0  0.1249044593864771 0.5624632949105766 0  0.187350876644605 0.5624430260758063 0  0.2497899663898363 0.5624203626073848 0  0.3122187083899907 0.5623943476801749 0  0.3746336345129723 0.5623638915273815 0  0.4370308415100143 0.5623277511972405 0  0.499406222070385 0.5622845391355629 0  0.5617561676252587 0.5622328004281727 0  0.6240792316067286 0.5621712431806484 0  0.6863796483905216 0.5620992960731283 0  0.748674238135065 0.5620183381294961 0  0.8110050316476338 0.5619342392323483 0  0.873460432563582 0.5618622334897391 0  0.936206357684803 0.5618352205409678 0  0.9995226098410218 0.5619148921973015 0  0 0.625 0  0.06245092338990206 0.6249824172030216 0  0.1248988706411251 0.6249640185049422 0  0.1873406150873884 0.6249439377318059 0  0.2497723910123791 0.6249212035466197 0  0.3121895719090871 0.6248946768916477 0  0.3745862956060777 0.6248629766609158 0  0.4369550472117314 0.6248243911718404 0  0.499286266998755 0.6247767776246199 0  0.561568180768742 0.6247174651326628 0  0.6237873365690701 0.6246432129496063 0  0.6859309283794305 0.6245503687830849 0  0.7479931544405888 0.6244356058455101 0  0.8099899193760772 0.6242981760031366 0  0.8719891255213688 0.6241458271723355 0  0.9341656514909477 0.624008571473792 0  0.9968834311669045 0.6239653198940464 0  0 0.6875 0  0.06245142659020871 0.6874836200723944 0  0.1248994328017336 0.687466411008141 0  0.187340243170555 0.6874474807736438 0  0.2497692986101341 0.6874258027721597 0  0.3121807406601976 0.6874001283714393 0  0.3745667344501195 0.6873688716750493 0  0.4369165639123168 0.6873299510233221 0  0.499215442511228 0.6872805656115277 0  0.5614430455330517 0.6872168783748552 0  0.6235719800993265 0.6871335733692175 0  0.6855669955554036 0.6870232808139529 0  0.7473872296366817 0.6868760036690628 0  0.8089973101492076 0.6866792391316283 0  0.8704006173363419 0.6864214261067459 0  0.9317204362400473 0.6861072089799648 0  0.9933598073798068 0.6858054628876007 0  0 0.75 0  0.0624553122449089 0.7499856450511513 0  0.124907125363789 0.7499705101415234 0  0.1873515262629809 0.7499537471246691 0  0.2497836738064914 0.7499343598954189 0  0.312197149673388 0.7499111030544163 0  0.3745830474884806 0.749882341006059 0  0.4369286438297514 0.749845840987404 0  0.4992154264214309 0.7497984564589661 0  0.5614161708545847 0.7497356256232156 0  0.6234907023798669 0.7496505497992507 0  0.6853801315300805 0.7495328029109661 0  0.7470003131658118 0.7493659282109415 0  0.8082389373738554 0.7491233802439882 0  0.8689725624507183 0.7487628611540729 0  0.9291539263840911 0.7482263205483305 0  0.9890848178695901 0.747498399055646 0  0 0.8125 0  0.06246265590278725 0.8124884425097392 0  0.1249221603064648 0.8124762219553466 0  0.187374954717439 0.8124626115045132 0  0.2498165581269973 0.8124467447381962 0  0.312240893320395 0.8124275171407526 0  0.3746392979699118 0.8124034452918544 0  0.4369989980716835 0.8123724539186811 0  0.4993006737994564 0.8123315399655214 0  0.5615144875843645 0.812276221438652 0  0.623593494114021 0.8121995906910833 0  0.6854626175907621 0.8120905851204279 0  0.7470003989877085 0.8119305532753096 0  0.8080104876812814 0.8116857035251108 0  0.8681865379103343 0.8112887459750804 0  0.9271203395737713 0.8105912726437809 0  0.9846717773603602 0.809243193571882 0  0 0.875 0  0.06247311283498056 0.8749918954556624 0  0.1249438405269102 0.8749833079509115 0  0.187409471740112 0.8749737052131916 0  0.2498665501574907 0.8749624465123901 0  0.3123103140446347 0.8749487050134628 0  0.3747338482146621 0.8749313556946512 0  0.437126725263692 0.8749088050998631 0  0.499472736261855 0.8748787243690204 0  0.5617459616842183 0.8748376214885148 0  0.6239037210804084 0.8747801437406088 0  0.6858734322113356 0.8746979132568807 0  0.747527077441034 0.8745774766680453 0  0.8086292592304143 0.8743961692310181 0  0.8687264021507104 0.8741112547733472 0  0.9269036340584039 0.8736210615567691 0  0.9812967403804175 0.8725851417810218 0  0 0.9375 0  0.0624859244460487 0.9374958240173459 0  0.1249705645110434 0.9374913937093389 0  0.1874524544595768 0.9374864279602151 0  0.2499297125356748 0.9374805866184091 0  0.3123997225854714 0.9374734280598177 0  0.3748586438794527 0.9374643479868872 0  0.4373006091129013 0.93745248739765
[...]
<PointData  Vectors="f_95-0"> 
<DataArray  type="Float64"  Name="f_95-0"  NumberOfComponents="3" format="ascii">0.0000000000000000e+00 0.0000000000000000e+00 0.0000000000000000e+00  -6.2396280165141586e-04 3.1330860877171629e-02 0.0000000000000000e+00  -1.7535917113218732e-03 5.8488323030419252e-02 0.0000000000000000e+00  -3.1216315381713171e-03 7.8577785269027964e-02 0.0000000000000000e+00  -4.7086681590278248e-03 9.1281718618873561e-02 0.0000000000000000e+00  -6.4570090866321716e-03 9.7394664556728516e-02 0.0000000000000000e+00  -8.3177915995488114e-03 9.8162314472225246e-02 0.0000000000000000e+00  -1.0244171608436490e-02 9.4878725367033928e-02 0.0000000000000000e+00  -1.2188652699449909e-02 8.8678352642016803e-02 0.0000000000000000e+00  -1.4098961500261365e-02 8.0457844962537453e-02 0.0000000000000000e+00  -1.5913545747636031e-02 7.0877748400795054e-02 0.0000000000000000e+00  -1.7556201526686223e-02 6.0404699617737756e-02 0.0000000000000000e+00  -1.8933248274074308e-02 4.9369919850027727e-02 0.0000000000000000e+00  -1.9904189621002124e-02 3.8005066502482691e-02 0.0000000000000000e+00  -2.0279608428733893e-02 2.6537324651407942e-02 0.0000000000000000e+00  -2.0212927868438951e-02 1.5209873403272607e-02 0.0000000000000000e+00  -9.7085613331237934e-03 9.1904491872212002e-03 0.0000000000000000e+00  0.0000000000000000e+00 0.0000000000000000e+00 0.0000000000000000e+00  -5.4503765538134778e-04 3.2321040987692957e-02 0.0000000000000000e+00  -1.7356228268554700e-03 5.9788035926018578e-02 0.0000000000000000e+00  -3.2496497629312384e-03 8.0123573769471379e-02 0.0000000000000000e+00  -5.0142250624859320e-03 9.3016426473126954e-02 0.0000000000000000e+00  -6.9559387717847490e-03 9.9267291463849563e-02 0.0000000000000000e+00  -9.0207838610705821e-03 1.0012437320777061e-01 0.0000000000000000e+00  -1.1157443745264166e-02 9.6881951809991498e-02 0.0000000000000000e+00  -1.3315064011009434e-02 9.0670620851351344e-02 0.0000000000000000e+00  -1.5437798706031415e-02 8.2378532145338662e-02 0.0000000000000000e+00  -1.7460184590637261e-02 7.2652973607962384e-02 0.0000000000000000e+00  -1.9303525314255294e-02 6.1942175478411590e-02 0.0000000000000000e+00  -2.0871245713871271e-02 5.0547502841404079e-02 0.0000000000000000e+00  -2.2039681557489640e-02 3.8668227262118930e-02 0.0000000000000000e+00  -2.2713927467616784e-02 2.6429171780133397e-02 0.0000000000000000e+00  -2.2379042747932898e-02 1.3768553673379725e-02 0.0000000000000000e+00  -2.2568032254050800e-02 2.5542567489067005e-03 0.0000000000000000e+00  0.0000000000000000e+00 0.0000000000000000e+00 0.0000000000000000e+00  -5.2499417425809535e-04 3.3287467369789284e-02 0.0000000000000000e+00  -1.8760784693588640e-03 6.1289872988272015e-02 0.0000000000000000e+00  -3.7495623783510958e-03 8.1971147977094108e-02 0.0000000000000000e+00  -5.9794441049545862e-03 9.5108281188521396e-02 0.0000000000000000e+00  -8.4500174667148844e-03 1.0152905797646364e-01 0.0000000000000000e+00  -1.1082829371976048e-02 1.0249407237152959e-01 0.0000000000000000e+00  -1.3811207029229427e-02 9.9302359767887732e-02 0.0000000000000000e+00  -1.6572315358881682e-02 9.3081874892471300e-02 0.0000000000000000e+00  -1.9298061094813735e-02 8.4712144381674556e-02 0.0000000000000000e+00  -2.1910048654693742e-02 7.4827607906373717e-02 0.0000000000000000e+00  -2.4317414364781176e-02 6.3861099902907961e-02 0.0000000000000000e+00  -2.6418402875414394e-02 5.2098543183442737e-02 0.0000000000000000e+00  -2.8110672056118915e-02 3.9727282031973253e-02 0.0000000000000000e+00  -2.9289050127823499e-02 2.6867965322299368e-02 0.0000000000000000e+00  -2.9955301171285441e-02 1.3647271765402459e-02 0.0000000000000000e+00  -2.9985641380174635e-02 5.8477731627655407e-04 0.0000000000000000e+00  0.0000000000000000e+00 0.0000000000000000e+00 0.0000000000000000e+00  -6.1251467801754183e-04 3.4361832412505518e-02 0.0000000000000000e+00  -2.2615486521537441e-03 6.3135622089764615e-02 0.0000000000000000e+00  -4.6568695014845415e-03 8.4336385543554229e-02 0.0000000000000000e+00  -7.5653431905962076e-03 9.7826344522023989e-02 0.0000000000000000e+00  -1.0823341318594181e-02 1.0448577437237563e-01 0.0000000000000000e+00  -1.4316683777504252e-02 1.0560403619871529e-01 0.0000000000000000e+00  -1.7954726071446957e-02 1.0249121951297774e-01 0.0000000000000000e+00  -2.1653656477468218e-02 9.6273658083109129e-02 0.0000000000000000e+00  -2.5323321185472921e-02 8.7821026505682076e-02 0.0000000000000000e+00  -2.8860734340228227e-02 7.7754074912220403e-02 0.0000000000000000e+00  -3.2149008526761252e-02 6.6492942143375200e-02 0.0000000000000000e+00  -3.5062866600132941e-02 5.4317860011843848e-02 0.0000000000000000e+00  -3.7478110906509224e-02 4.1425342304304794e-02 0.0000000000000000e+00  -3.9295428948955310e-02 2.7977232398954104e-02 0.0000000000000000e+00  -4.0421180850530626e-02 1.4119535909875724e-02 0.0000000000000000e+00  -4.0777230818799019e-02 1.1700766735451801e-04 0.0000000000000000e+00  0.0000000000000000e+00 0.0000000000000000e+00 0.0000000000000000e+00  -7.6316246143051344e-04 3.5681508063942234e-02 0.0000000000000000e+00  -2.8346542805330029e-03 6.5466859432510946e-02 0.0000000000000000e+00  -5.8854325269565863e-03 8.7386845778984160e-02 0.0000000000000000e+00  -9.6336749520462249e-03 1.0137648821491647e-01 0.0000000000000000e+00  -1.3873980088908102e-02 1.0838113334051645e-01 0.0000000000000000e+00  -1.8457900957387550e-02 1.0973012321986682e-01 0.0000000000000000e+00  -2.3267156725115638e-02 1.0674936882448821e-01 0.0000000000000000e+00  -2.8189944934155099e-02 1.0056308176749450e-01 0.0000000000000000e+00  -3.3104247549574001e-02 9.2027659746063417e-02 0.0000000000000000e+00  -3.7869316620497050e-02 8.1746322741770752e-02 0.0000000000000000e+00  -4.2324512105313447e-02 7.0124376683479220e-02 0.0000000000000000e+00  -4.6295429558365513e-02 5.7437073901015712e-02 0.0000000000000000e+00  -4.9606254859612640e-02 4.3892762377240928e-02 0.0000000000000000e+00  -5.2095228010611158e-02 2.9678573326119107e-02 0.0000000000000000e+00  -5.3617301737775763e-02 1.4982365935019145e-02 0.0000000000000000e+00  -5.4084765000940185e-02 -5.4673096512919323e-05 0.0000000000000000e+00  0.0000000000000000e+00 0.0000000000000000e+00 0.0000000000000000e+00  -9.4761007509213172e-04 3.7326582140605545e-02 0.0000000000000000e+00  -3.5136753832796012e-03 6.8387527494772823e-02 0.0000000000000000e+00  -7.3058801088372394e-03 9.1243062235773428e-02 0.0000000000000000e+00  -1.2000499143021525e-02 1.0590748634253835e-01 0.0000000000000000e+00  -1.7360520813414354e-02 1.1339931169485172e-01 0.0000000000000000e+00  -2.3210641149426604e-02 1.1509301004799159e-01 0.0000000000000000e+00  -2.9405294325067048e-02 1.1233037578183293e-01 0.0000000000000000e+00  -3.5799937790746951e-02 1.0622900628145078e-01 0.0000000000000000e+00  -4.2231481560048044e-02 9.7624923051238960e-02 0.0000000000000000e+00  -4.8507955372897850e-02 8.7095782819921364e-02 0.0000000000000000e+00  -5.4406589715586130e-02 7.5024126897940760e-02 0.0000000000000000e+00  -5.9680040320908435e-02 6.1673031606302026e-02 0.0000000000000000e+00  -6.4070022922742956e-02 4.7255945410262873e-02 0.0000000000000000e+00  -6.7331309301760525e-02 3.1987027702828345e-02 0.0000000000000000e+00  -6.9256739451738852e-02 1.6094658030706165e-02 0.0000000000000000e+00  -6.9750269774875862e-02 -2.3506855455152241e-04 0.0000000000000000e+00  0.0000000000000000e+00 0.0000000000000000e+00 0.0000000000000000e+00  -1.1403631218492149e-03 3.9334841954824853e-02 0.0000000000000000e+00  -4.2182679182224949e-03 7.1948690523097422e-02 0.0000000000000000e+00  -8.7767518165697989e-03 9.5969478928359178e-02 0.0000000000000000e+00  -1.4462095065685038e-02 1.1151001527252055e-01 0.0000000000000000e+00  -2.1020462373882807e-02 1.1966882479219372e-01 0.0000000000000000e+00  -2.8259884642876421e-02 1.2186443293431877e-01 0.0000000000000000e+00  -3.6010279246196854e-02 1.1944797521417304e-01 0.0000000000000000e+00  -4.4090847724338009e-02 1.1352066820442114e-01 0.0000000000000000e+00  -5.2288902688595165e-02 1.0488684617369354e-01 0.0000000000000000e+00  -6.0348780514480109e-02 9.4086294247658173e-02 0.0000000000000000e+00  -6.7968912150805930e-02 8.1465532651626635e-02 0.0000000000000000e+00  -7.4806629186812051e-02 6.7262234907006779e-02 0.0000000000000000e+00  -8.0493457057076070e-02 5.1685760622406110e-02 0.0000000000000000e+00  -8.4668552396562680e-02 3.4979359910215307e-02 0.0000000000000000e+00  -8.7027816530666990e-02 1.7449377530168061e-02 0.0000000000000000e+00  -8.7433491641450006e-02 -6.1293235406278447e-04 0.0000000000000000e+00  0.0000000000000000e+00 0.0000000000000000e+00 0.0000000000000000e+00  -1.3175376294639932e-03 4.1698804032903457e-02 0.0000000000000000e+00  -4.8675626481723116e-03 7.6137664473982083e-02 0.0000000000000000e+00  -1.0146786909504008e-02 1.0156319217936929e-01 0.0000000000000000e+00  -1.6795651191102969e-02 1.1821001025005050e-01 0.0000000000000000e+00  -2.4564379492914578e-02 1.2725959127773781e-01 0.0000000000000000e+00  -3.3256905004339719e-02 1.3016564802456757e-01 0.0000000000000000e+00  -4.2682224893953249e-02 1.2827450767385698e-01 0.0000000000000000e+00  -5.2619799319391029e-02 1.2265565680793583e-01 0.0000000000000000e+00  -6.2799528803370766e-02 1.1406663398661088e-01 0.0000000000000000e+00  -7.2891753015842900e-02 1.0299393782551483e-01 0.0000000000000000e+00  -8.2503003873696898e-02 8.9731133447328415e-02 0.0000000000000000e+00  -9.1177021325933721e-02 7.4471060544151771e-02 0.0000000000000000e+00  -9.8406859144249195e-02 5.7399712841933279e-02 0.0000000000000000e+00  -1.0367030282466674e-01 3.8783951321031393e-02 0.0000000000000000e+00  -1.0650386804459035e-01 1.9033344295940977e-02 0.0000000000000000e+00  -1.0665707991650228e-01 -1.3833354725002506e-03 0.0000000000000000e+00  0.0000000000000000e+00 0.0000000000000000e+00 0.0000000000000000e+00  -1.4534320021555786e-03 4.4365526204511965e-02 0.0000000000000000e+00  -5.3727796030743321e-03 8.0871987637488568e-02 0.0000000000000000e+00  -1.1246775262628211e-02 1.0794383291308186e-01 0.0000000000000000e+00  -1.8748009058880556e-02 1.2595773862691556e-01 0.0000000000000000e+00  -2.7658041404032302e-02 1.3617156684316117e-01 0.0000000000000000e+00  -3.7790834601203180e-02 1.4005441365633206e-01 0.0000000000000000e+00  -4.8937245748963618e-02 1.3892485581288369e-01 0.0000000000000000e+00  -6.0832521854685503e-02 1.3379999531179712e-01 0.0000000000000000e+00  -7.3141922765085132e-02 1.2537352259840645e-01 0.0000000000000000e+00  -8.5454646376535062e-02 1.1406347826409576e-01 0.0000000000000000e+00  -9.7280004397436504e-02 1.0009191229441386e-01 0.0000000000000000e+00  -1.0804054078462903e-01 8.3578833185977405e-02 0.0000000000000000e+00  -1.1706893111281735e-01 6.4652575164896586e-02 0.0000000000000000e+00  -1.2362899908238813e-01 4.3576385659916436e-02 0.0000000000000000e+00  -1.2701127171893808e-01 2.0864893721540597e-02 0.0000000000000000e+00  -1.2673172348858455e-01 -2.7539375140344380e-03 0.0000000000000000e+00  0.0000000000000000e+00 0.0000000000000000e+00 0.0000000000000000e+00  -1.5184141764838165e-03 4.7230840352412748e-02 0.0000000000000000e+00  -5.6327695233009799e-03 8.5989580195311222e-02 0.0000000000000000e+00  -1.1883856309168042e-02 1.1494086344366669e-01 0.0000000000000000e+00  -2.0027271884070375e-02 1.3461200079350444e-01 0.0000000000000000e+00  -2.9907580424187907e-02 1.4631445268528639e-01 0.0000000000000000e+00  -4.1362241972158882e-02 1.5149843330945692e-01 0.0000000000000000e+00  -5.4164255521218271e-02 1.5142208935301824e-01 0.0000000000000000e+00  -6.7998290301339165e-02 1.4702532815063685e-01 0.0000000000000000e+00  -8.2457743623024132e-02 1.3892215172379052e-01 0.0000000000000000e+00  -9.7048556618599027e-02 1.2745115672708890e-01 0.0000000000000000e+00  -1.1119046377986558e-01 1.1274808343644362e-01 0.0000000000000000e+00  -1.2419493513554267e-01 9.4834363908763736e-02 0.0000000000000000e+00  -1.3523903061623072e-01 7.3731570465236818e-02 0.0000000000000000e+00  -1.4333950623814570e-01 4.9617136311973481e-02 0.0000000000000000e+00  -1.4743423100482742e-01 2.3050101915570300e-02 0.0000000000000000e+00  -1.4661350421409830e-01 -4.8759782844073028e-03 0.0000000000000000e+00  0.0000000000000000e+00 0.0000000000000000e+00 0.0000000000000000e+00  -1.4797523329593823e-03 5.0132779064602950e-02 0.0000000000000000e+00  -5.5381042245666078e-03 9.1240279674569338e-02 0.0000000000000000e+00  -1.1849834549218227e-02 1.2228176383022751e-01 0.0000000000000000e+00  -2.0312531811274535e-02 1.4392143539375915e-01 0.0000000000000000e+00  -3.0864819908431668e-02 1.5747886101690770e-01 0.0000000000000000e+00  -4.3377264858889680e-02 1.6433417155647700e-01 0.0000000000000000e+00  -5.7601630730699356e-02 1.6564285427618156e-01 0.0000000000000000e+00  -7.3163527602482389e-02 1.6224046498651731e-01 0.0000000000000000e+00  -8.9577783642895592e-02 1.5464944308115630e-01 0.0000000000000000e+00  -1.0627103811077250e-01 1.4312831547418492e-01 0.0000000000000000e+00  -1.2259109031122074e-01 1.2773119954762865e-01 0.0000000000000000e+00  -1.3777926121901354e-01 1.0836806078101741e-01 0.0000000000000000e+00  -1.5092885359475261e-01 8.4874764029271688e-02 0.0000000000000000e+00  -1.6082396252974790e-01 5.7208101147830030e-02 0.0000000000000000e+00  -1.6595870755485925e-01 2.5847791751269503e-02 0.0000000000000000e+00  -1.6470027786956382e-01 -7.6942597440102286e-03 0.0000000000000000e+00  0.0000000000000000e+00 0.0000000000000000e+00 0.0000000000000000e+00  -1.3076259512296636e-03 5.2851236508934814e-02 0.0000000000000000e+00  -4.9913844801906188e-03 9.6287064322745766e-02 0.0000000000000000e+00  -1.0956544333905003e-02 1.2958794528224538e-01 0.0000000000000000e+00  -1.9298201312097644e-02 1.5350730929849676e-01 0.0000000000000000e+00  -3.0071401916889274e-02 1.6930096510278120e-01 0.0000000000000000e+00  -4.3182572564123965e-02 1.7821167385682671e-01 0.0000000000000000e+00  -5.8356128188849610e-02 1.8124294608152011e-01 0.0000000000000000e+00  -7.5150980000221870e-02 1.7909855816899903e-01 0.0000000000000000e+00  -9.3000086060709530e-02 1.7220335226481218e-01 0.0000000000000000e+00  -1.1125631224261923e-01 1.6075065754187701e-01 0.0000000000000000e+00  -1.2921813820584710e-01 1.4474210209641503e-01 0.0000000000000000e+00  -1.4614210544396081e-01 1.2399269930332156e-01 0.0000000000000000e+00  -1.6116044528524681e-01 9.8146740971770147e-02 0.0000000000000000e+00  -1.7296567341385369e-01 6.6838116752618748e-02 0.0000000000000000e+00  -1.7975421662341631e-01 3.0028802750422273e-02 0.0000000000000000e+00  -1.7877711104839392e-01 -1.0646595538048698e-02 0.0000000000000000e+00  0.0000000000000000e+00 0.0000000000000000e+00 0.0000000000000000e+00  -9.9014274044405097e-04 5.5125730829937339e-02 0.0000000000000000e+00  -3.9534143878661911e-03 1.0073142208718049e-01 0.0000000000000000e+00  -9.1118003391404689e-03 1.3638948569563941e-01 0.0000000000000000e+00  -1.6788656738070364e-02 1.6285449688852616e-01 0.0000000000000000e+00  -2.7159180421959674e-02 1.8122438360630194e-01 0.0000000000000000e+00  -4.0160912897955557e-02 1.9252819379072880e-01 0.0000000000000000e+00  -5.5487500346745128e-02 1.9756716456139875e-01 0.0000000000000000e+00  -7.2633102589847759e-02 1.9688852661585163e-01 0.0000000000000000e+00  -9.0955653942308465e-02 1.9081811837800586e-01 0.0000000000000000e+00  -1.0974239864712862e-01 1.7950686358965731e-01 0.0000000000000000e+00  -1.2826819616607746e-01 1.6295587114331064e-01 0.0000000000000000e+00  -1.4586685442337216e-01 1.4099353814433924e-01 0.0000000000000000e+00  -1.6182569306088404e-01 1.1319632100262528e-01 0.0000000000000000e+00  -1.7529995538995408e-01 7.8633543157613561e-02 0.0000000000000000e+00  -1.8457881495819942e-01 3.6096122240722374e-02 0.0000000000000000e+00  -1.8562560443427284e-01 -1.2193502296423670e-02 0.0000000000000000e+00  0.0000000000000000e+00 0.0000000000000000e+00 0.0000000000000000e+00  -5.6171785729089636e-04 5.6709774278784542e-02 0.0000000000000000e+00  -2.5222201994074627e-03 1.0418133681602444e-01 0.0000000000000000e+00  -6.4420451100081705e-03 1.4217097127660691e-01 0.0000000000000000e+00  -1.2848790305324714e-02 1.7131898100120330e-01 0.0000000000000000e+00  -2.2015217244836949e-02 1.9246623605968557e-01 0.0000000000000000e+00  -3.3901364363176499e-02 2.0635806375885299e-01 0.0000000000000000e+00  -4.8180395091227096e-02 2.1355356705520626e-01 0.0000000000000000e+00  -6.4308581226245373e-02 2.1442657591232045e-01 0.0000000000000000e+00  -8.1603054861344254e-02 2.0920311695221469e-01 0.0000000000000000e+00  -9.9315780350309649e-02 1.9800630051337978e-01 0.0000000000000000e+00  -1.1671107895071271e-01 1.8088681849210472e-01 0.0000000000000000e+00  -1.3315565288184805e-01 1.5781202826007126e-01 0.0000000000000000e+00  -1.4819439570497445e-01 1.2850186388590346e-01 0.0000000000000000e+00  -1.6199340630018899e-01 9.2013853293217665e-02 0.0000000000000000e+00  -1.7372300861810705e-01 4.6301049352717290e-02 0.0000000000000000e+00  -1.7898823406137815e-01 -9.4767699534168016e-03 0.0000000000000000e+00  0.0000000000000000e+00 0.0000000000000000e+00 0.0000000000000000e+00  -1.4221024763170134e-04 5.7486667513536108e-02 0.0000000000000000e+00  -1.0314525043472794e-03 1.0637072844861052e-01 0.0000000000000000e+00  -3.4342666112881447e-03 1.4645346728569850e-01 0.0000000000000000e+00  -7.9825588453222261e-03 1.7816063646294358e-01 0.0000000000000000e+00  -1.4993646429241598e-02 2.0200082047662801e-01 0.0000000000000000e+00  -2.4443005582857235e-02 2.1839704993162468e-01 0.0000000000000000e+00  -3.6021373857373744e-02 2.2765487304266716e-01 0.0000000000000000e+00  -4.9218329301551580e-02 2.2997546786286616e-01 0.0000000000000000e+00  -6.3398420176958944e-02 2.2548570973880355e-01 0.0000000000000000e+00  -7.7863990992623089e-02 2.1427443346109021e-01 0.0000000000000000e+00  -9.1908415011412059e-02 1.9643129223565131e-01 0.0000000000000000e+00  -1.0488477287311931e-01 1.7207729385191978e-01 0.0000000000000000e+00  -1.1641385693679795e-01 1.4135801477026061e-01 0.0000000000000000e+00  -1.2676631372371708e-01 1.0433798362859666e-01 0.0000000000000000e+00  -1.3674580286753354e-01 5.9641853242792704e-02 0.0000000000000000e+00  -1.5084902207490483e-01 2.2823610219125570e-03 0.0000000000000000e+00  0.0000000000000000e+00 0.0000000000000000e+00 0.0000000000000000e+00  4.5923757410835304e-05 5.7607355470991044e-02 0.0000000000000000e+00  -6.0392706953905945e-05 1.0730298170384456e-01 0.0000000000000000e+00  -9.7421406580646991e-04 1.4892255919989431e-01 0.0000000000000000e+00  -3.2358386008118629e-03 1.8263281721111380e-01 0.0000000000000000e+00  -7.1023545027086923e-03 2.0860543167415274e-01 0.0000000000000000e+00  -1.2560297809862089e-02 2.2697424928869897e-01 0.0000000000000000e+00  -1.9395670854626797e-02 2.3783287316219007e-01 0.0000000000000000e+00  -2.7261226614748939e-02 2.4124299001766358e-01 0.0000000000000000e+00  -3.5729284277709446e-02 2.3724683351790454e-01 0.0000000000000000e+00  -4.4326931752876289e-02 2.2588344698142496e-01 0.0000000000000000e+00  -5.2549983839864416e-02 2.0721121431186384e-01 0.0000000000000000e+00  -5.9872627160632262e-02 1.8134283108323099e-01 0.0000000000000000e+00  -6.5718482579134610e-02 1.4853927565309141e-01 0.0000000000000000e+00  -6.9477656416838951e-02 1.0928082779745781e-01 0.0000000000000000e+00  -7.1786531519293734e-02 6.4500019906691866e-02 0.0000000000000000e+00  -6.6466768253878691e-02 4.7510417555192306e-03 0.0000000000000000e+00  0.0000000000000000e+00 6.8374291540572648e-18 0.0000000000000000e+00  0.0000000000000000e+00 5.7555893597384084e-02 0.0000000000000000e+00  0.0000000000000000e+00 1.0743766804845029e-01 0.0000000000000000e+00  0.0000000000000000e+00 1.4964532335319863e-01 0.0000000000000000e+00  0.0000000000000000e+00 1.8417885951162907e-01 0.0000000000000000e+00  0.0000000000000000e+00 2.1103827652374166e-01 0.0000000000000000e+00  0.0000000000000000e+00 2.3022357438953636e-01 0.0000000000000000e+00  0.0000000000000000e+00 2.4173475310901318e-01 0.0000000000000000e+00  0.0000000000000000e+00 