<?xml version="1.0"?>
<VTKFile type="UnstructuredGrid"  version="0.1"  >
<UnstructuredGrid>
<Piece  NumberOfPoints="289" NumberOfCells="512">
<Points>
<DataArray  type="Float64"  NumberOfComponents="3"  format="ascii">0 0 0  0.0625 0 0  0.125 0 0  0.1875 0 0  0.25 0 0  0.3125 0 0  0.375 0 0  0.4375 0 0  0.5 0 0  0.5625 0 0  0.625 0 0  0.6875 0 0  0.75 0 0  0.8125 0 0  0.875 0 0  0.9375 0 0  1 0 0  0 0.0625 0  0.06253116734232667 0.06247189837137213 0  0.125063461067125 0.06244328579304877 0  0.1875980374945779 0.06241368608930247 0  0.2501361376750561 0.06238272390367054 0  0.3126791418072237 0.06235019029745136 0  0.3752286447914107 0.0623161253114002 0  0.4377865735144656 0.06228091856289703 0  0.5003553871876942 0.06224542195331585 0  0.5629384470414621 0.06221105555994925 0  0.6255407441677731 0.06217986574694589 0  0.6881704215804152 0.06215446101850371 0  0.7508421551451937 0.062137708710278 0  0.8135851009665108 0.0621320471679794 0  0.8764622911385035 0.06213836446841049 0  0.9396171602540772 0.0621552966450038 0  1.003363642469772 0.06218866973246987 0  0 0.125 0  0.06256117985774587 0.1249442792763278 0  0.1251245900029846 0.1248874850460828 0  0.1876925261460025 0.1248286078537508 0  0.2502674613479605 0.1247668276389508 0  0.3128521601667176 0.1247016409726115 0  0.375449835495112 0.1246330263210617 0  0.4380643860067317 0.1245616534564408 0  0.5007007856762608 0.1244891316524313 0  0.5633657633577475 0.1244182683178929 0  0.6260690427676454 0.1243532681300623 0  0.6888256726580836 0.1242997354117445 0  0.7516604508208569 0.1242642520827828 0  0.8146161269609088 0.124253240200102 0  0.877767210686523 0.124271010645552 0  0.9412373098917262 0.124318091106512 0  1.005205680518914 0.1243935119332281 0  0 0.1875 0  0.06258897186469543 0.1874177184804498 0  0.1251812095262583 0.1873337080696886 0  0.187780081695962 0.1872463216638257 0  0.2503892226100511 0.1871541636507946 0  0.3130127002713962 0.1870562682555482 0  0.3756552412369584 0.186952342941779 0  0.4383225560687695 0.1868430950551893 0  0.5010218405853842 0.1867306493650188 0  0.5637625798869903 0.1866190386090903 0  0.6265578612381536 0.1865146951497091 0  0.6894264964205301 0.1864267661623402 0  0.7523962696782605 0.1863668723844395 0  0.815508199804176 0.186347516158776 0  0.8788198307391942 0.1863773199165455 0  0.9424006854160485 0.1864480784515343 0  1.006307846661915 0.1864974912299905 0  0 0.25 0  0.06261355109542154 0.249892882919526 0  0.1252312910863528 0.2497832611472048 0  0.1878575480842069 0.2496687112336913 0  0.250496990065158 0.2495470802413899 0  0.3131548353780791 0.2494166946103361 0  0.3758371247177806 0.2492766655474144 0  0.4385510958491771 0.249127329345442 0  0.5013057222995811 0.2489708597713081 0  0.5641124996440335 0.2488120754384751 0  0.6269865710912239 0.2486594212623889 0  0.6899482244979364 0.2485259980015375 0  0.7530245267929129 0.2484302885292912 0  0.8162500974426536 0.2483957784625627 0  0.8796643737990987 0.2484478410584426 0  0.943300489776752 0.2486051243632938 0  1.007161524991597 0.2488634962546752 0  0 0.3125 0  0.06263402762895999 0.3123705564575482 0  0.1252730170612391 0.3122377059934255 0  0.1879221020276011 0.3120980973688187 0  0.2505868115327471 0.311948608238509 0  0.3132733095069066 0.3117865505163094 0  0.3759886958659954 0.3116100019972766 0  0.4387414062429804 0.3114183286360934 0  0.5015417595843662 0.3112129791033322 0  0.5644027067816103 0.3109986476579989 0  0.6273408045112048 0.3107848984428943 0  0.690377319958897 0.3105882908286347 0  0.7535390617585659 0.3104348737568865 0  0.8168579165885494 0.3103625099631298 0  0.8803672697899803 0.3104217093010329 0  0.9440936603138488 0.3106725368930145 0  1.008046855863204 0.3111744439336612 0  0 0.375 0  0.06264963764295782 0.3748516439560202 0  0.1253048306487435 0.3746988758126398 0  0.1879713334870994 0.3745372834674648 0  0.2506553305064777 0.3743625667694923 0  0.3133636923438605 0.37417069087132 0  0.3761042929305751 0.3739581831159145 0  0.4388864260070753 0.3737226628053355 0  0.5017213756020782 0.3734637357184056 0  0.5646232069370329 0.3731844441168082 0  0.6276098329930047 0.3728935337790979 0  0.6907043345884805 0.3726088579809344 0  0.7539362997955786 0.3723622110234061 0  0.8173425559848991 0.372205602272378 0  0.880966275258829 0.3722181568909483 0  0.94485394414318 0.3725112024819463 0  1.009053275621901 0.3732269623662922 0  0 0.4375 0  0.06265976382192855 0.4373371461351846 0  0.1253254772557567 0.4371688310843349 0  0.1880033087786609 0.4369895066926463 0  0.2506998703097912 0.4367935386382608 0  0.3134224777902111 0.4365752483985192 0  0.3761794710044853 0.4363290904301359 0  0.4389806399515327 0.4360500669952276 0  0.5018378381091669 0.4357345509062441 0  0.5647659143205397 0.435381796969119 0  0.6277841639800277 0.4349965938615251 0  0.6909185686340156 0.4345937479432976 0  0.7542051068831669 0.4342053557604937 0  0.8176942803162894 0.4338919122960192 0  0.881456639871451 0.4337576914526601 0  0.9455888400737368 0.4339687107584295 0  1.010221244237574 0.4347680590434079 0  0 0.5 0  0.06266395503218739 0.499828099712429 0  0.125334043105673 0.4996497413931799 0  0.1880166268171635 0.4994582670326902 0  0.2507185057397126 0.4992466627896709 0  0.3134471667831795 0.4990074292772569 0  0.3762110868924543 0.49873254197426 0  0.4390201439011134 0.4984135930294683 0  0.5018862501974947 0.4980422875633914 0  0.5648244396862113 0.4976116179361777 0  0.6278548504428014 0.4971183106917625 0  0.6910063940600251 0.4965676122234893 0  0.7543233805968419 0.4959822305778562 0  0.8178767946985296 0.495418210027714 0  0.881781762614535 0.4949909651610211 0  0.9462213104645176 0.4949124217183744 0  1.011475184033021 0.4955320877528306 0  0 0.5625 0  0.06266194716501963 0.5623254818328981 0  0.1253299952379575 0.5621436885518761 0  0.188010475746248 0.5619470191839582 0  0.2507101341138888 0.5617272056672539 0  0.3134363544230312 0.5614749661875481 0  0.376197416685408 0.5611796636160695 0  0.439002838262432 0.5608290159845901 0  0.5018639290351853 0.5604089771482829 0  0.5647948707889835 0.5599040557843005 0  0.6278150227363939 0.5592986563095496 0  0.6909539330977553 0.5585806853903557 0  0.754261900010569 0.557750015454559 0  0.8178308234787809 0.5568369325806612 0  0.881831469062475 0.5559393956466936 0  0.9465711881162959 0.5552891546982121 0  1.012567906955009 0.5553446115217641 0  0 0.625 0  0.06265368525825271 0.6248300849004962 0  0.1253132232815593 0.6246524014328173 0  0.1879846902321127 0.6244587372951275 0  0.2506745435621861 0.6242399105587083 0  0.3133898097222032 0.6239851945264254 0  0.3761382684373993 0.6236816331539629 0  0.4389286557776451 0.6233132178946645 0  0.5017709761236764 0.6228599248805681 0  0.5646772101052991 0.6222966952161288 0  0.6276632226795906 0.6215926712975498 0  0.6907539223106541 0.6207116182768013 0  0.7539964459688442 0.6196161043268174 0  0.8174912431443032 0.618282327394575 0  0.8814577343885992 0.6167427385395367 0  0.9463527397036745 0.6151891885103085 0  1.013045357710786 0.6141535653669867 0  0 0.6875 0  0.06263934491305549 0.6873423765615414 0  0.1252840793930362 0.6871769524245591 0  0.1879398037727631 0.6869953977626883 0  0.2506124671184664 0.6867881828999179 0  0.3133085175243242 0.6865438120934986 0  0.3760350051926396 0.6862478294283507 0  0.4387996051973808 0.6858814767976401 0  0.5016105374913079 0.6854198438257307 0  0.5644764649039626 0.6848293051441632 0  0.6274068691238707 0.6840640265376546 0  0.6904147751510095 0.6830614844921684 0  0.7535276623611398 0.6817378735700848 0  0.8168226289152134 0.6799883481305968 0  0.8805234106510342 0.6777137025346296 0  0.9452168906177839 0.6749561632505677 0  1.012228839662452 0.6722876228425642 0  0 0.75 0  0.06261934938431132 0.749862367662578 0  0.1252434102703779 0.7497174646105796 0  0.1878770890814749 0.7495574625484067 0  0.2505256150107457 0.7493732381030789 0  0.3131946668383985 0.7491535059046468 0  0.3758904220432258 0.7488836364562065 0  0.4386194358192613 0.7485439631248594 0  0.5013881747419746 0.7481072761438554 0  0.5642019146402856 0.7475350205684554 0  0.6270626632317006 0.7467714001813897 0  0.6899662955420826 0.7457340287554387 0  0.7529022374402287 0.7442988209962579 0  0.8158720872456269 0.7422758550653195 0  0.8789901514045491 0.7393775195521888 0  0.9428643050444455 0.7352389597083706 0  1.009177799414324 0.7301583472938952 0  0 0.8125 0  0.06259437788611329 0.8123895156761042 0  0.1251925744436067 0.8122728909909258 0  0.1877985824418275 0.8121434721985791 0  0.2504166932014621 0.8119933940291204 0  0.3130516197582266 0.8118127430895863 0  0.3757085473189705 0.8115883815594809 0  0.4383929947671423 0.8113022052997998 0  0.5011102142571012 0.8109284721939604 0  0.5638635098176732 0.8104295910969632 0  0.6266501257925264 0.8097493044825045 0  0.6894519811619174 0.80880125973043 0  0.7522167598495921 0.8074487575294497 0  0.8148271787080568 0.805465593772365 0  0.8770914709567994 0.8024517496286578 0  0.9390325296906045 0.7976400554226598 0  1.00383850413885 0.7895113643529804 0  0 0.875 0  0.06256536042901488 0.8749226897700382 0  0.1251334375892985 0.8748409258248833 0  0.1877070890598482 0.874749860218503 0  0.2502894274740144 0.8746437050520607 0  0.3128839446454929 0.8745150702983731 0  0.3754946035671554 0.8743540150461369 0  0.4381258170281156 0.8741466154817883 0  0.5007820866170466 0.8738727298350378 0  0.5634666911802959 0.873502431220867 0  0.6261777835411365 0.8729902266934447 0  0.6888974827964318 0.8722655604467662 0  0.7515621635006132 0.8712167200084555 0  0.8139832088388274 0.8696603746031928 0  0.8756436257385166 0.8672653084857244 0  0.9352190415827774 0.8632833189255497 0  0.9896770751928382 0.8554370062274487 0  0 0.9375 0  0.06253345455839211 0.9374602151917756 0  0.1250683365604071 0.9374180900677239 0  0.1876061582529718 0.9373710704805507 0  0.2501485939325175 0.9373160894284344 0  0.3126975740032739 0.9372492015936971 0  0.3752553874704797 0.9371650539841997 0  0.4378247738107826 0.9370560779
[...]
<PointData  Vectors="f_95-0"> 
<DataArray  type="Float64"  Name="f_95-0"  NumberOfComponents="3" format="ascii">0.0000000000000000e+00 0.0000000000000000e+00 0.0000000000000000e+00  4.0074538951019741e-04 -3.8090441691444626e-02 0.0000000000000000e+00  1.1346794279116117e-03 -6.6155705231691994e-02 0.0000000000000000e+00  2.0399418116728374e-03 -8.4034285987910157e-02 0.0000000000000000e+00  3.0890517972189317e-03 -9.3215593315186640e-02 0.0000000000000000e+00  4.2310909542719807e-03 -9.5654987330074520e-02 0.0000000000000000e+00  5.4246690507724618e-03 -9.3256131395947781e-02 0.0000000000000000e+00  6.6354837830852652e-03 -8.7616019680634968e-02 0.0000000000000000e+00  7.8345222224250697e-03 -7.9943303930440732e-02 0.0000000000000000e+00  8.9947644537972226e-03 -7.1077166151187005e-02 0.0000000000000000e+00  1.0087553353924266e-02 -6.1556476777103207e-02 0.0000000000000000e+00  1.1078531544014902e-02 -5.1705061595899646e-02 0.0000000000000000e+00  1.1924535915462263e-02 -4.1713893750038963e-02 0.0000000000000000e+00  1.2553513308554446e-02 -3.1696905878966002e-02 0.0000000000000000e+00  1.2871160310514591e-02 -2.1776437137767429e-02 0.0000000000000000e+00  1.3060119355272785e-02 -1.2009007138815296e-02 0.0000000000000000e+00  6.4296458903918110e-03 -6.0966187758509944e-03 0.0000000000000000e+00  0.0000000000000000e+00 0.0000000000000000e+00 0.0000000000000000e+00  3.7493018418317532e-04 -3.8745989781464395e-02 0.0000000000000000e+00  1.2134374819519891e-03 -6.7043931241711846e-02 0.0000000000000000e+00  2.3005107417290917e-03 -8.5095324810630618e-02 0.0000000000000000e+00  3.5654703019281147e-03 -9.4390946600694844e-02 0.0000000000000000e+00  4.9418639082226745e-03 -9.6894988139669513e-02 0.0000000000000000e+00  6.3811682966049849e-03 -9.4520017161548564e-02 0.0000000000000000e+00  7.8431956877509576e-03 -8.8870233870537135e-02 0.0000000000000000e+00  9.2936609445744920e-03 -8.1157792978401019e-02 0.0000000000000000e+00  1.0699747143037789e-02 -7.2221305503734595e-02 0.0000000000000000e+00  1.2026424364891748e-02 -6.2595162961188694e-02 0.0000000000000000e+00  1.3233556954040254e-02 -5.2594571066733806e-02 0.0000000000000000e+00  1.4272019326108889e-02 -4.2393824021311609e-02 0.0000000000000000e+00  1.5077820811478180e-02 -3.2086582524075973e-02 0.0000000000000000e+00  1.5596867023316453e-02 -2.1722026034553213e-02 0.0000000000000000e+00  1.5455854792131121e-02 -1.1228216457888678e-02 0.0000000000000000e+00  1.5896810267406428e-02 -1.8536511001673087e-03 0.0000000000000000e+00  0.0000000000000000e+00 0.0000000000000000e+00 0.0000000000000000e+00  4.3230404894238514e-04 -3.9488004343464903e-02 0.0000000000000000e+00  1.5405697003992346e-03 -6.8215122773045686e-02 0.0000000000000000e+00  3.0787473476732311e-03 -8.6533401253756748e-02 0.0000000000000000e+00  4.8957826722132603e-03 -9.5996421198657672e-02 0.0000000000000000e+00  6.8861187082308005e-03 -9.8595865302597049e-02 0.0000000000000000e+00  8.9776531672153825e-03 -9.6261725183664174e-02 0.0000000000000000e+00  1.1113429671663864e-02 -9.0608460337828045e-02 0.0000000000000000e+00  1.3243724813397544e-02 -8.2851665104057642e-02 0.0000000000000000e+00  1.5318724874340316e-02 -7.3828160703109824e-02 0.0000000000000000e+00  1.7284743956365804e-02 -6.4067143545649116e-02 0.0000000000000000e+00  1.9083040793119569e-02 -5.3876651267775175e-02 0.0000000000000000e+00  2.0651509767090737e-02 -4.3423116130249434e-02 0.0000000000000000e+00  2.1931175720592527e-02 -3.2792443732846108e-02 0.0000000000000000e+00  2.2863436076087266e-02 -2.2025789240758174e-02 0.0000000000000000e+00  2.3514085159493464e-02 -1.1197850863132176e-02 0.0000000000000000e+00  2.3781841306963234e-02 -8.2824103444606781e-04 0.0000000000000000e+00  0.0000000000000000e+00 0.0000000000000000e+00 0.0000000000000000e+00  5.8176238831236457e-04 -4.0450272406520549e-02 0.0000000000000000e+00  2.1043171493184132e-03 -6.9841533869991632e-02 0.0000000000000000e+00  4.2739223067429048e-03 -8.8587468209591971e-02 0.0000000000000000e+00  6.8691105998607413e-03 -9.8319673580212888e-02 0.0000000000000000e+00  9.7396169121750815e-03 -1.0108105012816647e-01 0.0000000000000000e+00  1.2781814679930718e-02 -9.8831492561724688e-02 0.0000000000000000e+00  1.5914856258360293e-02 -9.3198909375651048e-02 0.0000000000000000e+00  1.9064844778002365e-02 -8.5400868708946198e-02 0.0000000000000000e+00  2.2154281994645003e-02 -7.6269410672458585e-02 0.0000000000000000e+00  2.5097994847039312e-02 -6.6326562778761075e-02 0.0000000000000000e+00  2.7804309643285587e-02 -5.5875028880196076e-02 0.0000000000000000e+00  3.0181912175738755e-02 -4.5082495082460608e-02 0.0000000000000000e+00  3.2150759734391944e-02 -3.4048611073824800e-02 0.0000000000000000e+00  3.3667288766135214e-02 -2.2857811170654899e-02 0.0000000000000000e+00  3.4702842580614304e-02 -1.1614700333099390e-02 0.0000000000000000e+00  3.5202197589143003e-02 -5.8662229729270475e-04 0.0000000000000000e+00  0.0000000000000000e+00 0.0000000000000000e+00 0.0000000000000000e+00  7.7777609038334446e-04 -4.1747757879260279e-02 0.0000000000000000e+00  2.8141363129260007e-03 -7.2059386097505368e-02 0.0000000000000000e+00  5.7336679762488635e-03 -9.1424036706089021e-02 0.0000000000000000e+00  9.2562803701397856e-03 -1.0156424627566085e-01 0.0000000000000000e+00  1.3192460193493778e-02 -1.0459114064586822e-01 0.0000000000000000e+00  1.7409142594427919e-02 -1.0250321987056212e-01 0.0000000000000000e+00  2.1798827719970604e-02 -9.6942442522667496e-02 0.0000000000000000e+00  2.6256523999976317e-02 -8.9124138205091311e-02 0.0000000000000000e+00  3.0666495377547450e-02 -7.9869717450139807e-02 0.0000000000000000e+00  3.4898077822215788e-02 -6.9689253003326249e-02 0.0000000000000000e+00  3.8808991662600351e-02 -5.8878985388052724e-02 0.0000000000000000e+00  4.2256509495338594e-02 -4.7612858881918713e-02 0.0000000000000000e+00  4.5115654027303199e-02 -3.6016922361839433e-02 0.0000000000000000e+00  4.7299977341696324e-02 -2.4219363443834775e-02 0.0000000000000000e+00  4.8763475360341368e-02 -1.2369548620906175e-02 0.0000000000000000e+00  4.9516114240292647e-02 -6.1629260754991505e-04 0.0000000000000000e+00  0.0000000000000000e+00 0.0000000000000000e+00 0.0000000000000000e+00  9.9075376882753032e-04 -4.3432915727868185e-02 0.0000000000000000e+00  3.5803175822096277e-03 -7.4944409398790213e-02 0.0000000000000000e+00  7.3053876476794604e-03 -9.5141569912917681e-02 0.0000000000000000e+00  1.1839223580648803e-02 -1.0586255782821662e-01 0.0000000000000000e+00  1.6965304457617458e-02 -1.0930012775034943e-01 0.0000000000000000e+00  2.2528941386026763e-02 -1.0749424736498588e-01 0.0000000000000000e+00  2.8396261041099696e-02 -1.0209604311040613e-01 0.0000000000000000e+00  3.4425334229600361e-02 -9.4309539964605824e-02 0.0000000000000000e+00  4.0451246866983342e-02 -8.4935439033734184e-02 0.0000000000000000e+00  4.6282363270713313e-02 -7.4463113247898352e-02 0.0000000000000000e+00  5.1705670497011684e-02 -6.3176715230317163e-02 0.0000000000000000e+00  5.6502559187791755e-02 -5.1255652117691002e-02 0.0000000000000000e+00  6.0473552612954090e-02 -3.8858184153440098e-02 0.0000000000000000e+00  6.3479601077957817e-02 -2.6175522741406873e-02 0.0000000000000000e+00  6.5475309012174132e-02 -1.3431551078833884e-02 0.0000000000000000e+00  6.6563217017813522e-02 -8.4063237020638888e-04 0.0000000000000000e+00  0.0000000000000000e+00 0.0000000000000000e+00 0.0000000000000000e+00  1.1961447824763750e-03 -4.5513906992213575e-02 0.0000000000000000e+00  4.3223017331737446e-03 -7.8511267380638294e-02 0.0000000000000000e+00  8.8435567460521738e-03 -9.9774089300220262e-02 0.0000000000000000e+00  1.4409229386425174e-02 -1.1128625135774244e-01 0.0000000000000000e+00  2.0795750163723304e-02 -1.1533089231274425e-01 0.0000000000000000e+00  2.7838365927113730e-02 -1.1398414566811434e-01 0.0000000000000000e+00  3.5378641224194471e-02 -1.0889344278629316e-01 0.0000000000000000e+00  4.3231703171317769e-02 -1.0123617970438373e-01 0.0000000000000000e+00  5.1171596467346786e-02 -9.1777707445559867e-02 0.0000000000000000e+00  5.8929476249303912e-02 -8.0973564812756013e-02 0.0000000000000000e+00  6.6200928261327091e-02 -6.9083846003156466e-02 0.0000000000000000e+00  7.2663828403521674e-02 -5.6285709268769919e-02 0.0000000000000000e+00  7.8010605943288777e-02 -4.2775662319834554e-02 0.0000000000000000e+00  8.2020399444586986e-02 -2.8840443524356777e-02 0.0000000000000000e+00  8.4632947303398223e-02 -1.4864865965634461e-02 0.0000000000000000e+00  8.6113764012301586e-02 -1.2228568532299279e-03 0.0000000000000000e+00  0.0000000000000000e+00 0.0000000000000000e+00 0.0000000000000000e+00  1.3697850723394908e-03 -4.7954286240477609e-02 0.0000000000000000e+00  4.9577644496090400e-03 -8.2709373932896457e-02 0.0000000000000000e+00  1.0194726773923716e-02 -1.0528764370418899e-01 0.0000000000000000e+00  1.6744340752342653e-02 -1.1784650389123076e-01 0.0000000000000000e+00  2.4404389074850746e-02 -1.2275871640005115e-01 0.0000000000000000e+00  3.3014485855062489e-02 -1.2211951624035648e-01 0.0000000000000000e+00  4.2393248928669545e-02 -1.1754972066678075e-01 0.0000000000000000e+00  5.2305265985938168e-02 -1.1017812773601833e-01 0.0000000000000000e+00  6.2450929820952156e-02 -1.0071590709278051e-01 0.0000000000000000e+00  7.2469441051162709e-02 -8.9567397220567016e-02 0.0000000000000000e+00  8.1945838555238015e-02 -7.6951867666484125e-02 0.0000000000000000e+00  9.0425744817930143e-02 -6.3029952903442002e-02 0.0000000000000000e+00  9.7451272852112567e-02 -4.8028874217559185e-02 0.0000000000000000e+00  1.0265891474358003e-01 -3.2356317608946271e-02 0.0000000000000000e+00  1.0590839934040164e-01 -1.6665764608985740e-02 0.0000000000000000e+00  1.0764598049350814e-01 -1.6713335848462174e-03 0.0000000000000000e+00  0.0000000000000000e+00 0.0000000000000000e+00 0.0000000000000000e+00  1.4830020300358013e-03 -5.0669525927495636e-02 0.0000000000000000e+00  5.3895959612134583e-03 -8.7415368596981777e-02 0.0000000000000000e+00  1.1178081723755291e-02 -1.1157097686699828e-01 0.0000000000000000e+00  1.8581980290862679e-02 -1.2548483282010589e-01 0.0000000000000000e+00  2.7456392901520209e-02 -1.3160157379468820e-01 0.0000000000000000e+00  3.7660534210078138e-02 -1.3200192501449726e-01 0.0000000000000000e+00  4.8989090110935767e-02 -1.2824527001995131e-01 0.0000000000000000e+00  6.1145837829403957e-02 -1.2138345019614236e-01 0.0000000000000000e+00  7.3745068419006923e-02 -1.1205265592239579e-01 0.0000000000000000e+00  8.6322063447737907e-02 -1.0059033037522787e-01 0.0000000000000000e+00  9.8339474362239762e-02 -8.7156472691951870e-02 0.0000000000000000e+00  1.0919527536629488e-01 -7.1858809389495917e-02 0.0000000000000000e+00  1.1823533939529472e-01 -5.4912209770665583e-02 0.0000000000000000e+00  1.2484561105983863e-01 -3.6857285707736179e-02 0.0000000000000000e+00  1.2866302947309885e-01 -1.8741009898664250e-02 0.0000000000000000e+00  1.3020386301837769e-01 -1.8610633834012715e-03 0.0000000000000000e+00  0.0000000000000000e+00 0.0000000000000000e+00 0.0000000000000000e+00  1.4994737577110721e-03 -5.3516050553769179e-02 0.0000000000000000e+00  5.4982498048483739e-03 -9.2418464201872302e-02 0.0000000000000000e+00  1.1574269618524351e-02 -1.1842001124929631e-01 0.0000000000000000e+00  1.9602887341431136e-02 -1.3405555959800972e-01 0.0000000000000000e+00  2.9536116373277722e-02 -1.4179749562735244e-01 0.0000000000000000e+00  4.1264544006571209e-02 -1.4365715181275659e-01 0.0000000000000000e+00  5.4552661010251136e-02 -1.4108482291267305e-01 0.0000000000000000e+00  6.9029927001875005e-02 -1.3502267466261866e-01 0.0000000000000000e+00  8.4211571724913822e-02 -1.2601489038808855e-01 0.0000000000000000e+00  9.9522811612363940e-02 -1.1432293701296067e-01 0.0000000000000000e+00  1.1431487094942726e-01 -1.0002567272219093e-01 0.0000000000000000e+00  1.2784564540219551e-01 -8.3135297947511996e-02 0.0000000000000000e+00  1.3922502145886073e-01 -6.3803522460021633e-02 0.0000000000000000e+00  1.4747932418920290e-01 -4.2619924995367625e-02 0.0000000000000000e+00  1.5178138826120421e-01 -2.0994778191315865e-02 0.0000000000000000e+00  1.5232514059501068e-01 -1.1201233686377586e-03 0.0000000000000000e+00  0.0000000000000000e+00 0.0000000000000000e+00 0.0000000000000000e+00  1.3756948085046736e-03 -5.6278351546976232e-02 0.0000000000000000e+00  5.1460492373527145e-03 -9.7406401004259499e-02 0.0000000000000000e+00  1.1135786695877260e-02 -1.2552291638304411e-01 0.0000000000000000e+00  1.9444423917246944e-02 -1.4330443186870448e-01 0.0000000000000000e+00  3.0155307653565413e-02 -1.5317058373942632e-01 0.0000000000000000e+00  4.3192536156590029e-02 -1.5698454694301522e-01 0.0000000000000000e+00  5.8276946403403716e-02 -1.5602887547949562e-01 0.0000000000000000e+00  7.4946945935753656e-02 -1.5110306179213601e-01 0.0000000000000000e+00  9.2606714072037563e-02 -1.4264948354199208e-01 0.0000000000000000e+00  1.1057816100320379e-01 -1.3085697454794221e-01 0.0000000000000000e+00  1.2812895295803978e-01 -1.1573313903150367e-01 0.0000000000000000e+00  1.4441204353966608e-01 -9.7182122405567686e-02 0.0000000000000000e+00  1.5838597993353190e-01 -7.5115874711929806e-02 0.0000000000000000e+00  1.6867251552953347e-01 -4.9823231369283787e-02 0.0000000000000000e+00  1.7348876167677299e-01 -2.3026999613112026e-02 0.0000000000000000e+00  1.7193295485283208e-01 1.5492548022051965e-03 0.0000000000000000e+00  0.0000000000000000e+00 0.0000000000000000e+00 0.0000000000000000e+00  1.0679159672791812e-03 -5.8663485888519280e-02 0.0000000000000000e+00  4.2034341050646894e-03 -1.0196515424767638e-01 0.0000000000000000e+00  9.6360257056121446e-03 -1.3245783272127865e-01 0.0000000000000000e+00  1.7764944897264053e-02 -1.5285144998555369e-01 0.0000000000000000e+00  2.8819048601358990e-02 -1.6538920735965745e-01 0.0000000000000000e+00  4.2741806796416024e-02 -1.7168708090249746e-01 0.0000000000000000e+00  5.9190716422472034e-02 -1.7279713103658845e-01 0.0000000000000000e+00  7.7598575427082261e-02 -1.6934746353918920e-01 0.0000000000000000e+00  9.7255270958903725e-02 -1.6167819103157102e-01 0.0000000000000000e+00  1.1738965116035562e-01 -1.4993470751111748e-01 0.0000000000000000e+00  1.3720934153912712e-01 -1.3410333474088168e-01 0.0000000000000000e+00  1.5589812647960213e-01 -1.1395583320870790e-01 0.0000000000000000e+00  1.7250104416316411e-01 -8.9020461914579241e-02 0.0000000000000000e+00  1.8515573532961999e-01 -5.9170025118213843e-02 0.0000000000000000e+00  1.9095085884552249e-01 -2.5907982170259417e-02 0.0000000000000000e+00  1.8673658190151263e-01 7.0766654781548423e-03 0.0000000000000000e+00  0.0000000000000000e+00 0.0000000000000000e+00 0.0000000000000000e+00  5.5100560249051551e-04 -6.0318209392558525e-02 0.0000000000000000e+00  2.6117078233315262e-03 -1.0561366041776049e-01 0.0000000000000000e+00  6.9781081811814867e-03 -1.3872054282483279e-01 0.0000000000000000e+00  1.4382617407923293e-02 -1.6218781930296861e-01 0.0000000000000000e+00  2.5173181286824227e-02 -1.7792052477380413e-01 0.0000000000000000e+00  3.9279046954998516e-02 -1.8718373573474320e-01 0.0000000000000000e+00  5.6277136395777985e-02 -1.9074640205016624e-01 0.0000000000000000e+00  7.5497689292849016e-02 -1.8904758753108253e-01 0.0000000000000000e+00  9.6131285482075085e-02 -1.8233319451119107e-01 0.0000000000000000e+00  1.1732152305077140e-01 -1.7074159857166038e-01 0.0000000000000000e+00  1.3825278793809362e-01 -1.5430240219061367e-01 0.0000000000000000e+00  1.5826713068002682e-01 -1.3281664015657074e-01 0.0000000000000000e+00  1.7660962067597807e-01 -1.0569910419800940e-01 0.0000000000000000e+00  1.9175311666836367e-01 -7.1537963791166018e-02 0.0000000000000000e+00  2.0048043381588099e-01 -2.8935085462320615e-02 0.0000000000000000e+00  1.9614558763818374e-01 1.5052082096976853e-02 0.0000000000000000e+00  0.0000000000000000e+00 0.0000000000000000e+00 0.0000000000000000e+00  -1.4234501346852588e-04 -6.0899411111238574e-02 0.0000000000000000e+00  5.0230670477837064e-04 -1.0790614564882552e-01 0.0000000000000000e+00  3.3846295246078794e-03 -1.4380249040954768e-01 0.0000000000000000e+00  9.5045693912706765e-03 -1.7069658033239374e-01 0.0000000000000000e+00  1.9245351832843961e-02 -1.8998631604758373e-01 0.0000000000000000e+00  3.2477433947839252e-02 -2.0251008205344612e-01 0.0000000000000000e+00  4.8702959258314020e-02 -2.0873400121624358e-01 0.0000000000000000e+00  6.7193705315967481e-02 -2.0891141718161410e-01 0.0000000000000000e+00  8.7096469190983489e-02 -2.0320153571566102e-01 0.0000000000000000e+00  1.0751367461173555e-01 -1.9174501534368099e-01 0.0000000000000000e+00  1.2761869681228766e-01 -1.7468130103249641e-01 0.0000000000000000e+00  1.4675485076543701e-01 -1.5207328800900416e-01 0.0000000000000000e+00  1.6453927446050107e-01 -1.2336356730841902e-01 0.0000000000000000e+00  1.8147759841533898e-01 -8.6014642956526444e-02 0.0000000000000000e+00  1.9470471924894980e-01 -3.5253887172871638e-02 0.0000000000000000e+00  1.8475520115068947e-01 2.4934454481332642e-02 0.0000000000000000e+00  0.0000000000000000e+00 0.0000000000000000e+00 0.0000000000000000e+00  -8.4304287951695212e-04 -6.0234977149243564e-02 0.0000000000000000e+00  -1.6031789695751756e-03 -1.0862183454938527e-01 0.0000000000000000e+00  -3.2557384482908197e-04 -1.4731777082217676e-01 0.0000000000000000e+00  4.0328351411087517e-03 -1.7768823186025343e-01 0.0000000000000000e+00  1.1757738260785015e-02 -2.0051676129061710e-01 0.0000000000000000e+00  2.2637007174832854e-02 -2.1621472744583911e-01 0.0000000000000000e+00  3.6158491586858493e-02 -2.2498391199633114e-01 0.0000000000000000e+00  5.1645645634608627e-02 -2.2692637911428132e-01 0.0000000000000000e+00  6.8331244668264624e-02 -2.2212034837546921e-01 0.0000000000000000e+00  8.5397798239803341e-02 -2.1067719484156594e-01 0.0000000000000000e+00  1.0200970090358061e-01 -1.9279467795203561e-01 0.0000000000000000e+00  1.1734374404355435e-01 -1.6875705045671510e-01 0.0000000000000000e+00  1.3124751441740115e-01 -1.3872568566772062e-01 0.0000000000000000e+00  1.4474815453186426e-01 -1.0225964293827373e-01 0.0000000000000000e+00  1.5918398300105843e-01 -5.3812911333934801e-02 0.0000000000000000e+00  1.7639213425374606e-01 1.8588650638948229e-02 0.0000000000000000e+00  0.0000000000000000e+00 0.0000000000000000e+00 0.0000000000000000e+00  -1.0963903444420598e-03 -5.8647468110474513e-02 0.0000000000000000e+00  -2.5083208329968491e-03 -1.0808034258277516e-01 0.0000000000000000e+00  -2.4161155176318084e-03 -1.4918277742987066e-01 0.0000000000000000e+00  -1.3303148156563102e-04 -1.8245284720863794e-01 0.0000000000000000e+00  4.4209636028442467e-03 -2.0812473155568056e-01 0.0000000000000000e+00  1.1015516417419841e-02 -2.2630106727969912e-01 0.0000000000000000e+00  1.9273104178615375e-02 -2.3702270338409373e-01 0.0000000000000000e+00  2.8751182936012660e-02 -2.4030654329663226e-01 0.0000000000000000e+00  3.8970026268902939e-02 -2.3616990038848168e-01 0.0000000000000000e+00  4.9406171143160905e-02 -2.2465336458500837e-01 0.0000000000000000e+00  5.9439180048496486e-02 -2.0585190007418300e-01 0.0000000000000000e+00  6.8339269349356746e-02 -1.7994008307217194e-01 0.0000000000000000e+00  7.5230626644806092e-02 -1.4738879878436548e-01 0.0000000000000000e+00  7.8438623221152401e-02 -1.0865854911560945e-01 0.0000000000000000e+00  8.1361907846097120e-02 -6.2230184874194940e-02 0.0000000000000000e+00  6.8255104420512108e-02 -2.6126400293110912e-03 0.0000000000000000e+00  0.0000000000000000e+00 0.0000000000000000e+00 0.0000000000000000e+00  0.0000000000000000e+00 -5.7555893597381294e-02 0.0000000000000000e+00  0.0000000000000000e+00 -1.0743766804844508e-01 0.0000000000000000e+00  0.0000000000000000e+00 -1.4964532335319136e-01 0.0000000000000000e+00  0.0000000000000000e+00 -1.8417885951162014e-01 0.0000000000000000e+00  0.0000000000000000e+00 -2.1103827652373142e-01 0.0000000000000000e+00  0.0000000000000000e+00 -2.3022357438952518e-01 0.0000000000000000e+00  0.0000000000000000e+00 -2.4173475310900144e-01 0.0000000000000000e+00  0.0000000000000000e+00