<?xml version="1.0"?>
<VTKFile type="UnstructuredGrid"  version="0.1"  >
<UnstructuredGrid>
<Piece  NumberOfPoints="289" NumberOfCells="512">
<Points>
<DataArray  type="Float64"  NumberOfComponents="3"  format="ascii">0 0 0  0.0625 0 0  0.125 0 0  0.1875 0 0  0.25 0 0  0.3125 0 0  0.375 0 0  0.4375 0 0  0.5 0 0  0.5625 0 0  0.625 0 0  0.6875 0 0  0.75 0 0  0.8125 0 0  0.875 0 0  0.9375 0 0  1 0 0  0 0.0625 0  0.06248706747149849 0.06247935947453322 0  0.1249745639012916 0.06245836349334997 0  0.1874630220869425 0.06243668716742065 0  0.2499532554040343 0.06241408483079557 0  0.3124465434042465 0.06239044063970742 0  0.3749448806430891 0.0623658308821105 0  0.437451326587354 0.06234059774433437 0  0.499970521055992 0.06231542823252399 0  0.562509491649378 0.06229142089837465 0  0.6250790335316632 0.0622701041026522 0  0.6876963472501203 0.06225333849919383 0  0.7503907504394303 0.06224298448168514 0  0.8132176108490343 0.06224011283555592 0  0.8762959917016556 0.06224325724456539 0  0.9399191853006557 0.06224426348987539 0  1.004903129936786 0.06221846848466828 0  0 0.125 0  0.06247369972850582 0.1249590602352324 0  0.1249481359397035 0.1249173700194016 0  0.1874242429061734 0.1248742358369178 0  0.249903490814631 0.1248291138349823 0  0.3123882422917673 0.1247817084969555 0  0.3748822307976402 0.1247320981557084 0  0.4373912280697234 0.1246808900411012 0  0.4999240047452084 0.124629397507021 0  0.5624937646008403 0.12457981280664 0  0.6251203964168547 0.1245353151014773 0  0.6878342399473115 0.1245000007203901 0  0.7506827879191457 0.1244784559841424 0  0.813743020458838 0.1244747647882016 0  0.877143171309966 0.1244910153052491 0  0.9410922734198943 0.1245270681517175 0  1.005871631365544 0.1245904973338844 0  0 0.1875 0  0.06245963631289052 0.1874395043893454 0  0.1249200744472797 0.1873777909714715 0  0.187382383491359 0.1873137163189956 0  0.249848362310199 0.1872463378756939 0  0.3123210292237036 0.1871750536276879 0  0.3748052804209023 0.1870997889266728 0  0.4373087999722023 0.1870212417400574 0  0.4998433321083481 0.1869411876031636 0  0.5624264689145376 0.1868628232942632 0  0.6250841672276534 0.1867910840776111 0  0.6878542703566953 0.1867327880970085 0  0.750791254644061 0.1866963170568094 0  0.8139717516333727 0.1866902708947485 0  0.8774974876605761 0.1867198965926718 0  0.9414830902752633 0.1867780201655607 0  1.005996014803758 0.1868190468947358 0  0 0.25 0  0.06244486035201588 0.2499211655605331 0  0.1248902545667088 0.2498405507700301 0  0.1873370165704505 0.2497564527475724 0  0.2497868118720501 0.2496673888247719 0  0.3122427057476919 0.2495722626513939 0  0.3747099359090525 0.2494706020877956 0  0.4371969819938653 0.2493628954531139 0  0.499717038357672 0.2492510489805461 0  0.5622899977122403 0.2491389729120945 0  0.6249450095753515 0.2490332635663468 0  0.6877235095893591 0.2489438612397554 0  0.7506821301857298 0.2488843913161001 0  0.8138936734790508 0.2488715812606785 0  0.8774416142303424 0.2489226323854375 0  0.9413989552804453 0.2490488791962848 0  1.005778929477612 0.2492453343433571 0  0 0.3125 0  0.06242967748211572 0.3124046107658293 0  0.1248592409293893 0.3123067766839513 0  0.1872888633885184 0.312204113480626 0  0.2497195355728092 0.3120944306616046 0  0.3121536455789378 0.3119758990121314 0  0.3745957908241516 0.3118473143359477 0  0.4370539289286579 0.31170850458471 0  0.4995409873939803 0.3115609375023529 0  0.5620770401591562 0.3114085905801227 0  0.6246920779609633 0.3112591311415677 0  0.68742916005387 0.3111253940682888 0  0.75034718298653 0.3110269870763639 0  0.8135214396236456 0.310991521204981 0  0.8770385513838646 0.3110543882741393 0  0.9409812389291201 0.3112552791480179 0  1.005401685722777 0.3116292823228961 0  0 0.375 0  0.06241475048927348 0.3748905061446586 0  0.1248283683577098 0.3747778165772495 0  0.1872399436017845 0.37465875471997 0  0.2496492379138261 0.3745302532728701 0  0.3120571977103277 0.3743894862196775 0  0.3744667171669932 0.3742341130192844 0  0.4368837824946966 0.3740627031260135 0  0.4993191632019005 0.3738754389967721 0  0.5617908373913347 0.373675234434472 0  0.6243273063575493 0.373469444655385 0  0.6869717900572051 0.3732723583912086 0  0.7497868755522065 0.3731085835610426 0  0.8128584023760159 0.3730171285212622 0  0.8762963571934769 0.3730552251864976 0  0.9402303308247688 0.3732995638344809 0  1.004800293575229 0.3738408202688275 0  0 0.4375 0  0.06240108149531127 0.4373796004555433 0  0.1247997134639568 0.4372552110205234 0  0.1871935517031047 0.4371227934155411 0  0.2495806392626615 0.43697827010999 0  0.3119597635901207 0.4368175742943561 0  0.3743310600158511 0.4366368086618107 0  0.4366970213932971 0.4364325940304116 0  0.4990641516807685 0.4362027405803343 0  0.5614456035097234 0.4359474563317486 0  0.6238652482688867 0.4356714278647313 0  0.686363683596138 0.4353872613177622 0  0.7490065570335748 0.435120899280291 0  0.8118950698541112 0.4349195364206348 0  0.8751775016434418 0.4348617898082252 0  0.939059657010813 0.4350677579348602 0  1.003813846773177 0.4357029901018456 0  0 0.5 0  0.06238993733150757 0.4998726815159826 0  0.1247759468463576 0.4997406079970474 0  0.1871540412221699 0.4995988860292304 0  0.2495202073960498 0.4994423763352516 0  0.3118705124505053 0.4992656128755422 0  0.3742014107652122 0.4990627980554357 0  0.4365104265002099 0.4988279491165349 0  0.4987975171883695 0.4985553366387183 0  0.5610676422046899 0.4982404756493632 0  0.6233353959739029 0.4978821409089976 0  0.6856330231069658 0.4974862309731217 0  0.7480236015109102 0.4970728303141242 0  0.8106212710747673 0.4966883848303174 0  0.8736192948819251 0.4964248362221772 0  0.9373238751693691 0.4964450255895064 0  1.002190080530963 0.4970062049488576 0  0 0.5625 0  0.06238271838262039 0.5623705040786048 0  0.1247600636126601 0.5622356148429246 0  0.1871264057790122 0.5620896984278255 0  0.249475583032775 0.561926632705681 0  0.3118006692788237 0.561739557114205 0  0.3740938358993994 0.5615206325461957 0  0.4363464542696813 0.5612608526298897 0  0.4985497561036589 0.5609500074838203 0  0.5606966992709602 0.5605770268730372 0  0.6227862999687227 0.560131192795656 0  0.684832751858545 0.5596052530375542 0  0.7468832628747041 0.5590025370860258 0  0.8090503532341932 0.5583520790137682 0  0.8715646046679855 0.5577382490614272 0  0.9348484009170736 0.5573513741192884 0  0.9995976615903269 0.5575541461502584 0  0 0.625 0  0.06238077792738272 0.6248736931848893 0  0.124755002878026 0.6247415938230804 0  0.1871156627584705 0.6245975713035887 0  0.2494546822621505 0.6244347679105691 0  0.3117623004246608 0.6242451672586017 0  0.3740263649868496 0.624019080905357 0  0.4362315957353062 0.6237445323559618 0  0.4983590251733787 0.6234065416586372 0  0.5603861916988992 0.6229863862802585 0  0.6222894782869617 0.6224611151823677 0  0.6840517150575031 0.6218041326161199 0  0.7456815337991326 0.6209890845416873 0  0.8072566699220977 0.6200028586131361 0  0.8690100296777951 0.6188815889788857 0  0.9314749705965868 0.6177956439282153 0  0.995678553361389 0.6172009068549255 0  0 0.6875 0  0.06238520865904766 0.6873826341245347 0  0.1247631875146068 0.6872594236755905 0  0.1871260787543762 0.6871241140439227 0  0.2494645047995538 0.6869695392386334 0  0.3117665727929685 0.6867870367113954 0  0.3740165698763999 0.686565684145121 0  0.4361932339861731 0.6862912610585289 0  0.4982675394096721 0.6859448012854958 0  0.560200167507878 0.6855005577485422 0  0.6219395527980131 0.6849231780393668 0  0.6834233730435426 0.6841640245769811 0  0.7445913763932163 0.6831574166131857 0  0.8054291720231987 0.681821221210747 0  0.8660858665680137 0.6800802676880523 0  0.9271315193266517 0.6779777234463005 0  0.989954325712085 0.6759867864341259 0  0 0.75 0  0.06239662492415195 0.7498973670334337 0  0.1247860430663487 0.7497892658710433 0  0.1871603274713237 0.7496697919098392 0  0.2495097650271768 0.7495320502322745 0  0.3118216021080171 0.7493674886304027 0  0.3740782658160343 0.7491649829516112 0  0.436254741543325 0.7489095153833669 0  0.4983146535096585 0.7485801902612117 0  0.5602044679850222 0.7481471571101067 0  0.6218453244762097 0.7475666828039559 0  0.6831230418901826 0.7467729962423229 0  0.7438812867726654 0.7456644632105834 0  0.8039383365318539 0.7440806447196154 0  0.8631967381893298 0.7417720690180403 0  0.9220482528516462 0.7384254318870584 0  0.9821869700819557 0.7343579664963387 0  0 0.8125 0  0.06241498028648908 0.8124175083989231 0  0.1248235829751525 0.8123303853974341 0  0.187218730385955 0.8122335956812887 0  0.2495915809458329 0.8121211750729017 0  0.3119302293823002 0.8119855867092719 0  0.3742177654821494 0.8118168138779225 0  0.4364292165302976 0.8116010115687036 0  0.4985265616276237 0.8113184227239594 0  0.5604504082857683 0.8109400435012772 0  0.622105915594546 0.8104220617334658 0  0.6833391017958137 0.8096960252811345 0  0.7438987513736244 0.8086499370695859 0  0.8033848717470352 0.8070878056578625 0  0.8612279899548644 0.8046332930643763 0  0.9169899214601603 0.8004786792797723 0  0.9730853537586336 0.7926138152725206 0  0 0.875 0  0.06243946516135166 0.8749422208792523 0  0.1248741636134198 0.8748810754291706 0  0.187298773839734 0.8748128864209276 0  0.2497065618927156 0.8747332558236655 0  0.3120883072890294 0.8746365574215296 0  0.3744306444062395 0.8745152134125035 0  0.4367133379806344 0.8743586115197756 0  0.498904593000048 0.8741514363386712 0  0.560952637575686 0.8738710537993778 0  0.6227699913103329 0.8734833643594672 0  0.6842028589982171 0.872936108365489 0  0.7449693076172444 0.872147371768092 0  0.8045306591838803 0.8709819207760081 0  0.8618218679417676 0.8691843754897591 0  0.9147157044330619 0.8661345555110375 0  0.9591976097693611 0.8598492640809161 0  0 0.9375 0  0.06246852273102773 0.9374702457402001 0  0.1249345018404085 0.9374387198900593 0  0.1873950893760667 0.9374034820140621 0  0.2498466577713159 0.9373621985309604 0  0.3122841976644892 0.9373118641274328 0  0.3747003723508081 0.9372484034740138 0  0.4370839312650608 0.93716607
[...]
<PointData  Vectors="f_95-0"> 
<DataArray  type="Float64"  Name="f_95-0"  NumberOfComponents="3" format="ascii">0.0000000000000000e+00 0.0000000000000000e+00 0.0000000000000000e+00  -6.6277700251570848e-04 1.7371241218321669e-02 0.0000000000000000e+00  -1.8705323017243352e-03 3.7947390921391849e-02 0.0000000000000000e+00  -3.3380980383183128e-03 5.6393015012204076e-02 0.0000000000000000e+00  -5.0636102534943614e-03 7.0373525187035962e-02 0.0000000000000000e+00  -6.9945941547972876e-03 7.9172372864161344e-02 0.0000000000000000e+00  -9.0795874901322318e-03 8.3028918582737504e-02 0.0000000000000000e+00  -1.1262008568608532e-02 8.2659039627647257e-02 0.0000000000000000e+00  -1.3479570857181926e-02 7.8940079050612649e-02 0.0000000000000000e+00  -1.5661864255592871e-02 7.2724011768409536e-02 0.0000000000000000e+00  -1.7727123675517990e-02 6.4745935484211994e-02 0.0000000000000000e+00  -1.9577847132446285e-02 5.5595377382862077e-02 0.0000000000000000e+00  -2.1099058250186833e-02 4.5726952908391343e-02 0.0000000000000000e+00  -2.2129439899551427e-02 3.5467878085975610e-02 0.0000000000000000e+00  -2.2454458097768193e-02 2.5099057822783127e-02 0.0000000000000000e+00  -2.2203993846499091e-02 1.4910326303966569e-02 0.0000000000000000e+00  -1.0522127805023670e-02 1.0144384209443774e-02 0.0000000000000000e+00  0.0000000000000000e+00 0.0000000000000000e+00 0.0000000000000000e+00  -5.5338450129570056e-04 1.8423264647563796e-02 0.0000000000000000e+00  -1.7631583264152350e-03 3.9317325111101434e-02 0.0000000000000000e+00  -3.3117775144204794e-03 5.8036105026048855e-02 0.0000000000000000e+00  -5.1488696365812369e-03 7.2246087250498428e-02 0.0000000000000000e+00  -7.2087235262723384e-03 8.1227650974816587e-02 0.0000000000000000e+00  -9.4358474649651383e-03 8.5213756908301422e-02 0.0000000000000000e+00  -1.1769470547124050e-02 8.4913734986690137e-02 0.0000000000000000e+00  -1.4144488410884309e-02 8.1196287806072145e-02 0.0000000000000000e+00  -1.6487857488635869e-02 7.4901612965170825e-02 0.0000000000000000e+00  -1.8715204802239961e-02 6.6749406163433611e-02 0.0000000000000000e+00  -2.0728261396992485e-02 5.7309717931111261e-02 0.0000000000000000e+00  -2.2411708578651199e-02 4.7006959552394451e-02 0.0000000000000000e+00  -2.3624938779397926e-02 3.6135570345395406e-02 0.0000000000000000e+00  -2.4262774094871663e-02 2.4873635942295729e-02 0.0000000000000000e+00  -2.3807295337352034e-02 1.3161124619913605e-02 0.0000000000000000e+00  -2.3937156028185923e-02 3.0055080192286404e-03 0.0000000000000000e+00  0.0000000000000000e+00 0.0000000000000000e+00 0.0000000000000000e+00  -4.6453091388161822e-04 1.9345007746957976e-02 0.0000000000000000e+00  -1.6954019571247493e-03 4.0763337378332029e-02 0.0000000000000000e+00  -3.4469120783490212e-03 5.9851105512895623e-02 0.0000000000000000e+00  -5.5912925862396205e-03 7.4350394456681526e-02 0.0000000000000000e+00  -8.0272122830745956e-03 8.3553557735810163e-02 0.0000000000000000e+00  -1.0676513450326112e-02 8.7694756721064082e-02 0.0000000000000000e+00  -1.3463627571244068e-02 8.7481110779412452e-02 0.0000000000000000e+00  -1.6312516283467093e-02 8.3774493116409804e-02 0.0000000000000000e+00  -1.9139753973426460e-02 7.7403873678932908e-02 0.0000000000000000e+00  -2.1850633161965293e-02 6.9074534435094523e-02 0.0000000000000000e+00  -2.4338014135886019e-02 5.9340779917627713e-02 0.0000000000000000e+00  -2.6485889830708355e-02 4.8613259720779164e-02 0.0000000000000000e+00  -2.8183262563998307e-02 3.7179547903187386e-02 0.0000000000000000e+00  -2.9329591293175417e-02 2.5223802103629806e-02 0.0000000000000000e+00  -2.9948830959764531e-02 1.2908895199067065e-02 0.0000000000000000e+00  -2.9876093876749145e-02 7.8294973478081336e-04 0.0000000000000000e+00  0.0000000000000000e+00 0.0000000000000000e+00 0.0000000000000000e+00  -4.7263707099893019e-04 2.0244022675429917e-02 0.0000000000000000e+00  -1.8312771846019235e-03 4.2378671250880871e-02 0.0000000000000000e+00  -3.9075431287869614e-03 6.2000577787365792e-02 0.0000000000000000e+00  -6.5311545503808910e-03 7.6901587602388091e-02 0.0000000000000000e+00  -9.5618122196729112e-03 8.6402600113834535e-02 0.0000000000000000e+00  -1.2887545676277623e-02 9.0752672686295624e-02 0.0000000000000000e+00  -1.6409541596948088e-02 9.0662953037927499e-02 0.0000000000000000e+00  -2.0032114174743029e-02 8.6990376853195286e-02 0.0000000000000000e+00  -2.3652042003355918e-02 8.0552230504397776e-02 0.0000000000000000e+00  -2.7152746108292779e-02 7.2038894492515590e-02 0.0000000000000000e+00  -3.0403644781157729e-02 6.1991947175412926e-02 0.0000000000000000e+00  -3.3267528493725960e-02 5.0819205142299283e-02 0.0000000000000000e+00  -3.5613693503638216e-02 3.8825313705487162e-02 0.0000000000000000e+00  -3.7346391849444542e-02 2.6249657434644150e-02 0.0000000000000000e+00  -3.8373729960543147e-02 1.3275452139487970e-02 0.0000000000000000e+00  -3.8624447505911562e-02 1.6120106002204325e-04 0.0000000000000000e+00  0.0000000000000000e+00 0.0000000000000000e+00 0.0000000000000000e+00  -5.4655590583550264e-04 2.1249032605933710e-02 0.0000000000000000e+00  -2.1582733776909762e-03 4.4286776223943974e-02 0.0000000000000000e+00  -4.6880491343785141e-03 6.4629723467807057e-02 0.0000000000000000e+00  -7.9431562244121033e-03 8.0081623287809517e-02 0.0000000000000000e+00  -1.1750573071619811e-02 8.9993686594528541e-02 0.0000000000000000e+00  -1.5966165165116380e-02 9.4637868138399819e-02 0.0000000000000000e+00  -2.0464698573066004e-02 9.4734405110915965e-02 0.0000000000000000e+00  -2.5124763830984598e-02 9.1136001263992072e-02 0.0000000000000000e+00  -2.9814587087828193e-02 8.4645473918335726e-02 0.0000000000000000e+00  -3.4383005051338747e-02 7.5934029526416064e-02 0.0000000000000000e+00  -3.8657373065395906e-02 6.5527202555044045e-02 0.0000000000000000e+00  -4.2450887838291658e-02 5.3829595928578423e-02 0.0000000000000000e+00  -4.5579078692422913e-02 4.1165119388013920e-02 0.0000000000000000e+00  -4.7882004939046721e-02 2.7810377370576417e-02 0.0000000000000000e+00  -4.9231772964633332e-02 1.4003066026896884e-02 0.0000000000000000e+00  -4.9588428455653456e-02 -1.1146563893657851e-04 0.0000000000000000e+00  0.0000000000000000e+00 0.0000000000000000e+00 0.0000000000000000e+00  -6.6364226391600275e-04 2.2450790665084545e-02 0.0000000000000000e+00  -2.6186556632617963e-03 4.6601149681332561e-02 0.0000000000000000e+00  -5.7037769042054655e-03 6.7863397384426843e-02 0.0000000000000000e+00  -9.7047938093473042e-03 8.4036898889188985e-02 0.0000000000000000e+00  -1.4423221184679067e-02 9.4501171311927534e-02 0.0000000000000000e+00  -1.9689618914887411e-02 9.9554058076894311e-02 0.0000000000000000e+00  -2.5353828958438344e-02 9.9926348083240732e-02 0.0000000000000000e+00  -3.1266405808047647e-02 9.6463858875526665e-02 0.0000000000000000e+00  -3.7260699244067046e-02 8.9948366876570360e-02 0.0000000000000000e+00  -4.3139837257972498e-02 8.1022480169256214e-02 0.0000000000000000e+00  -4.8671625355487955e-02 7.0184796424382828e-02 0.0000000000000000e+00  -5.3595021449059796e-02 5.7826249522133930e-02 0.0000000000000000e+00  -5.7639596397660281e-02 4.4282321875198649e-02 0.0000000000000000e+00  -6.0564526205656805e-02 2.9875698628895130e-02 0.0000000000000000e+00  -6.2201069291955569e-02 1.4917889171972343e-02 0.0000000000000000e+00  -6.2546884695594662e-02 -3.7299024750153524e-04 0.0000000000000000e+00  0.0000000000000000e+00 0.0000000000000000e+00 0.0000000000000000e+00  -8.0221235729504442e-04 2.3907231387499062e-02 0.0000000000000000e+00  -3.1455197442129585e-03 4.9397542041256549e-02 0.0000000000000000e+00  -6.8368731899041491e-03 7.1784047375713603e-02 0.0000000000000000e+00  -1.1640632047395738e-02 8.8862649211178854e-02 0.0000000000000000e+00  -1.7341144367179411e-02 1.0004186248887775e-01 0.0000000000000000e+00  -2.3752226082927392e-02 1.0564544212693756e-01 0.0000000000000000e+00  -3.0703688848031960e-02 1.0641195594008218e-01 0.0000000000000000e+00  -3.8019151693768120e-02 1.0317381823241011e-01 0.0000000000000000e+00  -4.5494288022083385e-02 9.6681367323517078e-02 0.0000000000000000e+00  -5.2879618235737398e-02 8.7534067752422534e-02 0.0000000000000000e+00  -5.9870921490151871e-02 7.6185178582628993e-02 0.0000000000000000e+00  -6.6112026441384822e-02 6.2993059999925549e-02 0.0000000000000000e+00  -7.1217462166263970e-02 4.8294298692154902e-02 0.0000000000000000e+00  -7.4830634686794101e-02 3.2468385388554503e-02 0.0000000000000000e+00  -7.6705062577157285e-02 1.5959826844937495e-02 0.0000000000000000e+00  -7.6862431859372624e-02 -8.5943979300776127e-04 0.0000000000000000e+00  0.0000000000000000e+00 0.0000000000000000e+00 0.0000000000000000e+00  -9.4230188596130149e-04 2.5637774382371172e-02 0.0000000000000000e+00  -3.6702606142735138e-03 5.2697286837316760e-02 0.0000000000000000e+00  -7.9547059347071028e-03 7.6412044031720291e-02 0.0000000000000000e+00  -1.3544496251827576e-02 9.4585512548723299e-02 0.0000000000000000e+00  -2.0217487675294594e-02 1.0665876438574341e-01 0.0000000000000000e+00  -2.7780931904815048e-02 1.1297939301071896e-01 0.0000000000000000e+00  -3.6051803627311925e-02 1.1428744049798407e-01 0.0000000000000000e+00  -4.4830701364757489e-02 1.1139232739393685e-01 0.0000000000000000e+00  -5.3877240516221461e-02 1.0499974319715412e-01 0.0000000000000000e+00  -6.2888994616480412e-02 9.5647796199265223e-02 0.0000000000000000e+00  -7.1484992420099536e-02 8.3720733954485912e-02 0.0000000000000000e+00  -7.9200132528344333e-02 6.9516437081751967e-02 0.0000000000000000e+00  -8.5504753245171233e-02 5.3346170569992760e-02 0.0000000000000000e+00  -8.9872544077717956e-02 3.5643341958875079e-02 0.0000000000000000e+00  -9.1903996903078045e-02 1.7037317897994814e-02 0.0000000000000000e+00  -9.1571378606288029e-02 -1.8229354243731353e-03 0.0000000000000000e+00  0.0000000000000000e+00 0.0000000000000000e+00 0.0000000000000000e+00  -1.0651740165963453e-03 2.7625484727685772e-02 0.0000000000000000e+00  -4.1246250773550935e-03 5.6462347719397135e-02 0.0000000000000000e+00  -8.9182103711582389e-03 8.1693653410190539e-02 0.0000000000000000e+00  -1.5190936162321046e-02 1.0114725597159761e-01 0.0000000000000000e+00  -2.2727674869385522e-02 1.1430121122081445e-01 0.0000000000000000e+00  -3.1341005854753655e-02 1.2152245095233399e-01 0.0000000000000000e+00  -4.0843775028773725e-02 1.2354315151624916e-01 0.0000000000000000e+00  -5.1019930694802589e-02 1.2113819825047195e-01 0.0000000000000000e+00  -6.1599410187336980e-02 1.1495520594559537e-01 0.0000000000000000e+00  -7.2234128216917257e-02 1.0545388582579117e-01 0.0000000000000000e+00  -8.2474752184235237e-02 9.2922939921970260e-02 0.0000000000000000e+00  -9.1750676245948432e-02 7.7556385508717005e-02 0.0000000000000000e+00  -9.9367559861364002e-02 5.9589945640634509e-02 0.0000000000000000e+00  -1.0456041607190442e-01 3.9485158155954041e-02 0.0000000000000000e+00  -1.0666524080722563e-01 1.8085920848610569e-02 0.0000000000000000e+00  -1.0545372330820295e-01 -3.5578560008132677e-03 0.0000000000000000e+00  0.0000000000000000e+00 0.0000000000000000e+00 0.0000000000000000e+00  -1.1544181245818619e-03 2.9819053900099840e-02 0.0000000000000000e+00  -4.4457757979721483e-03 6.0593610026140013e-02 0.0000000000000000e+00  -9.5921881228643851e-03 8.7492971888904827e-02 0.0000000000000000e+00  -1.6348966680608937e-02 1.0838958575557107e-01 0.0000000000000000e+00  -2.4523377948777795e-02 1.2280233477912218e-01 0.0000000000000000e+00  -3.3946625775154074e-02 1.3111000989161398e-01 0.0000000000000000e+00  -4.4437364214650034e-02 1.3402459687095383e-01 0.0000000000000000e+00  -5.5771184151105775e-02 1.3227431401307457e-01 0.0000000000000000e+00  -6.7657980158381217e-02 1.2643889240312253e-01 0.0000000000000000e+00  -7.9720381275514507e-02 1.1688803849691402e-01 0.0000000000000000e+00  -9.1469514758664494e-02 1.0379052238592502e-01 0.0000000000000000e+00  -1.0225685002443496e-01 8.7195076653470038e-02 0.0000000000000000e+00  -1.1123241189780497e-01 6.7197088924560083e-02 0.0000000000000000e+00  -1.1734951620518369e-01 4.4179561165423056e-02 0.0000000000000000e+00  -1.1953728764155726e-01 1.9126627277820892e-02 0.0000000000000000e+00  -1.1710925321668016e-01 -6.3118872686514131e-03 0.0000000000000000e+00  0.0000000000000000e+00 0.0000000000000000e+00 0.0000000000000000e+00  -1.1999511839632848e-03 3.2139383384922712e-02 0.0000000000000000e+00  -4.5884227599549583e-03 6.4936342283338541e-02 0.0000000000000000e+00  -9.8656401453821388e-03 9.3589945202049968e-02 0.0000000000000000e+00  -1.6808350432040108e-02 1.1604201138762497e-01 0.0000000000000000e+00  -2.5261951427342146e-02 1.3185632172339323e-01 0.0000000000000000e+00  -3.5091279615361022e-02 1.4141293931762611e-01 0.0000000000000000e+00  -4.6132437422124743e-02 1.4538795975024205e-01 0.0000000000000000e+00  -5.8161833910939834e-02 1.4445067806425976e-01 0.0000000000000000e+00  -7.0880732679442560e-02 1.3910821634255607e-01 0.0000000000000000e+00  -8.3907583806885913e-02 1.2964080064268210e-01 0.0000000000000000e+00  -9.6754961567075748e-02 1.1609919024975256e-01 0.0000000000000000e+00  -1.0875990115094220e-01 9.8362070932913909e-02 0.0000000000000000e+00  -1.1901975632800260e-01 7.6257847277671487e-02 0.0000000000000000e+00  -1.2622292143785568e-01 4.9895221975989258e-02 0.0000000000000000e+00  -1.2871778794068875e-01 2.0296604951514297e-02 0.0000000000000000e+00  -1.2485759628934244e-01 -1.0146745659017123e-02 0.0000000000000000e+00  0.0000000000000000e+00 0.0000000000000000e+00 0.0000000000000000e+00  -1.2057294980589949e-03 3.4495949449661938e-02 0.0000000000000000e+00  -4.5461122051428087e-03 6.9296728702204852e-02 0.0000000000000000e+00  -9.6851975257899545e-03 9.9687189877958979e-02 0.0000000000000000e+00  -1.6422635785052295e-02 1.2371608827088718e-01 0.0000000000000000e+00  -2.4658200724797203e-02 1.4100060963755889e-01 0.0000000000000000e+00  -3.4309103287554654e-02 1.5190891035174411e-01 0.0000000000000000e+00  -4.5243736759962717e-02 1.5706090385920804e-01 0.0000000000000000e+00  -5.7249758449619992e-02 1.5705250761995312e-01 0.0000000000000000e+00  -7.0031996250765380e-02 1.5231787913601638e-01 0.0000000000000000e+00  -8.3225519854630475e-02 1.4306756460088541e-01 0.0000000000000000e+00  -9.6385181075236512e-02 1.2926535281917290e-01 0.0000000000000000e+00  -1.0896150746835984e-01 1.1061505260734195e-01 0.0000000000000000e+00  -1.2016738434459907e-01 8.6645991932313454e-02 0.0000000000000000e+00  -1.2852974464681119e-01 5.7118207993809705e-02 0.0000000000000000e+00  -1.3195924788551527e-01 2.2584240815814900e-02 0.0000000000000000e+00  -1.2745060170501063e-01 -1.4497345799913710e-02 0.0000000000000000e+00  0.0000000000000000e+00 0.0000000000000000e+00 0.0000000000000000e+00  -1.2001843630672095e-03 3.6818546485890766e-02 0.0000000000000000e+00  -4.3766258103450856e-03 7.3472665832264972e-02 0.0000000000000000e+00  -9.0920741483104129e-03 1.0542834032361638e-01 0.0000000000000000e+00  -1.5159083585169243e-02 1.3091165973701183e-01 0.0000000000000000e+00  -2.2553083115402581e-02 1.4961315118709229e-01 0.0000000000000000e+00  -3.1269430268324010e-02 1.6187326893829154e-01 0.0000000000000000e+00  -4.1228915352394077e-02 1.6822857977307779e-01 0.0000000000000000e+00  -5.2244379305148123e-02 1.6918136720938678e-01 0.0000000000000000e+00  -6.4034296554443537e-02 1.6509207645549887e-01 0.0000000000000000e+00  -7.6257391720835510e-02 1.5612884594997326e-01 0.0000000000000000e+00  -8.8551334900309656e-02 1.4222512538309309e-01 0.0000000000000000e+00  -1.0057371313892878e-01 1.2303594865227933e-01 0.0000000000000000e+00  -1.1177819429012423e-01 9.7938518922545750e-02 0.0000000000000000e+00  -1.2122835725409567e-01 6.5856771130466479e-02 0.0000000000000000e+00  -1.2682412441371793e-01 2.5911872268510192e-02 0.0000000000000000e+00  -1.2415235008631299e-01 -1.7580328696129355e-02 0.0000000000000000e+00  0.0000000000000000e+00 0.0000000000000000e+00 0.0000000000000000e+00  -1.2413394988047420e-03 3.9098268461873545e-02 0.0000000000000000e+00  -4.2028802300513703e-03 7.7288458957537609e-02 0.0000000000000000e+00  -8.2206379786526722e-03 1.1042395739000152e-01 0.0000000000000000e+00  -1.3114184656964914e-02 1.3704351551252575e-01 0.0000000000000000e+00  -1.8969522417868766e-02 1.5694404809058690e-01 0.0000000000000000e+00  -2.5891436669581068e-02 1.7041626048013539e-01 0.0000000000000000e+00  -3.3876189379204703e-02 1.7787791665109107e-01 0.0000000000000000e+00  -4.2780027626517864e-02 1.7970992160765809e-01 0.0000000000000000e+00  -5.2346320143917081e-02 1.7618923720659624e-01 0.0000000000000000e+00  -6.2262914206073952e-02 1.6745764383199260e-01 0.0000000000000000e+00  -7.2250966888929125e-02 1.5348729049237800e-01 0.0000000000000000e+00  -8.2109292697289157e-02 1.3402810270404464e-01 0.0000000000000000e+00  -9.1713718249269521e-02 1.0842594806332286e-01 0.0000000000000000e+00  -1.0138840856801364e-01 7.5433840215899356e-02 0.0000000000000000e+00  -1.0955797542933225e-01 3.2958155463966889e-02 0.0000000000000000e+00  -1.0789696910292956e-01 -1.6218947575176307e-02 0.0000000000000000e+00  0.0000000000000000e+00 0.0000000000000000e+00 0.0000000000000000e+00  -1.3744894014290571e-03 4.1416341566583657e-02 0.0000000000000000e+00  -4.0956428681049465e-03 8.0601086475138972e-02 0.0000000000000000e+00  -7.1423194820642352e-03 1.1428204394783409e-01 0.0000000000000000e+00  -1.0392361633460610e-02 1.4151681523223597e-01 0.0000000000000000e+00  -1.4083792294078780e-02 1.6222814059651847e-01 0.0000000000000000e+00  -1.8441979678975026e-02 1.7662168217958146e-01 0.0000000000000000e+00  -2.3547314004102340e-02 1.8495869320350122e-01 0.0000000000000000e+00  -2.9317290590581725e-02 1.8747087369346599e-01 0.0000000000000000e+00  -3.5543413099501667e-02 1.8433326832370209e-01 0.0000000000000000e+00  -4.1958671483237543e-02 1.7565597991184842e-01 0.0000000000000000e+00  -4.8327469595271434e-02 1.6147370186414445e-01 0.0000000000000000e+00  -5.4536793200545240e-02 1.4169381814933998e-01 0.0000000000000000e+00  -6.0944991846453932e-02 1.1599716875732492e-01 0.0000000000000000e+00  -6.8206140569842172e-02 8.3960236911435226e-02 0.0000000000000000e+00  -7.6561783313873130e-02 4.4824144711088976e-02 0.0000000000000000e+00  -9.1668967558854189e-02 -1.7038163892033845e-04 0.0000000000000000e+00  0.0000000000000000e+00 0.0000000000000000e+00 0.0000000000000000e+00  -1.4116674811966161e-03 4.3755995716122438e-02 0.0000000000000000e+00  -3.5691989316903754e-03 8.3138315076437014e-02 0.0000000000000000e+00  -5.2889122647424317e-03 1.1663031651236713e-01 0.0000000000000000e+00  -6.6482649801572697e-03 1.4390369642655379e-01 0.0000000000000000e+00  -7.9809386817125995e-03 1.6495722117854525e-01 0.0000000000000000e+00  -9.5468371760941348e-03 1.7987460684760073e-01 0.0000000000000000e+00  -1.1464157512061431e-02 1.8874858972372549e-01 0.0000000000000000e+00  -1.3713656762242976e-02 1.9166006084711398e-01 0.0000000000000000e+00  -1.6173398198838614e-02 1.8867494012269548e-01 0.0000000000000000e+00  -1.8665536956430230e-02 1.7984857633690249e-01 0.0000000000000000e+00  -2.1009651986396052e-02 1.6523079967333038e-01 0.0000000000000000e+00  -2.3148173717690738e-02 1.4485473414585839e-01 0.0000000000000000e+00  -2.5314767165672013e-02 1.1880989481293490e-01 0.0000000000000000e+00  -2.7892943897155020e-02 8.7216118981847043e-02 0.0000000000000000e+00  -3.3554466836554331e-02 5.0483488918296869e-02 0.0000000000000000e+00  -3.0763215289189582e-02 6.1066709006378983e-03 0.0000000000000000e+00  0.0000000000000000e+00 0.0000000000000000e+00 0.0000000000000000e+00  0.0000000000000000e+00 4.5147260318896723e-02 0.0000000000000000e+00  0.0000000000000000e+00 8.4274885928607213e-02 0.0000000000000000e+00  0.0000000000000000e+00 1.1738287682913148e-01 0.0000000000000000e+00  0.0000000000000000e+00 1.4447123302046952e-01 0.0000000000000000e+00  0.0000000000000000e+00 1.6553995450262132e-01 0.0000000000000000e+00  0.0000000000000000e+00 1.8058904127558689e-01 0.0000000000000000e+00  0.0000000000000000e+00 1.8961849333936626e-01 0.0000000000000000e+00  0.0000000000000000e+0