<?xml version="1.0"?>
<VTKFile type="UnstructuredGrid"  version="0.1"  >
<UnstructuredGrid>
<Piece  NumberOfPoints="289" NumberOfCells="512">
<Points>
<DataArray  type="Float64"  NumberOfComponents="3"  format="ascii">0 0 0  0.0625 0 0  0.125 0 0  0.1875 0 0  0.25 0 0  0.3125 0 0  0.375 0 0  0.4375 0 0  0.5 0 0  0.5625 0 0  0.625 0 0  0.6875 0 0  0.75 0 0  0.8125 0 0  0.875 0 0  0.9375 0 0  1 0 0  0 0.0625 0  0.06249169698684968 0.06248712730150165 0  0.1249830461575693 0.06247403086831181 0  0.1874736748204308 0.06246050732337732 0  0.2499631806109304 0.06244640209300364 0  0.3124511169396589 0.0624316406711345 0  0.3749369801040525 0.0624162671799879 0  0.4374201996536401 0.06240049021568052 0  0.4999001334998487 0.0623847324683556 0  0.5623760657578493 0.06236967441656117 0  0.6248471892638747 0.06235627259761745 0  0.6873124947102989 0.06234572000456452 0  0.7497702685430366 0.06233930646235705 0  0.8122160556989609 0.06233815934231136 0  0.874634429165585 0.06234301993170838 0  0.936964171507791 0.06235512380655924 0  0.9989414070460885 0.06238522417703792 0  0 0.125 0  0.06248372599928206 0.1249744734460842 0  0.124966778286713 0.1249484756215326 0  0.1874484383238052 0.1249215732574156 0  0.2499279358781463 0.1248934252137084 0  0.3124044262819354 0.1248638433305719 0  0.3748769751115424 0.1248328698158733 0  0.437344557548296 0.1248008729508257 0  0.4998060844833522 0.1247686569218653 0  0.5622604734358699 0.1247375701568498 0  0.6247067867250455 0.124709576584635 0  0.6871444512455879 0.1246872226697271 0  0.7495735200307627 0.1246733896755806 0  0.8119947568469883 0.1246706756630629 0  0.874409025152356 0.1246802356681322 0  0.9368170207703257 0.1246998733168748 0  0.9992446640946266 0.1247193981042862 0  0 0.1875 0  0.06247643565878194 0.1874622887568573 0  0.1249519038627426 0.1874238147721659 0  0.1874253773686109 0.1873838652169336 0  0.2498957595870794 0.1873418508444682 0  0.3123618565195263 0.1872973919619679 0  0.374822362761646 0.1872504331854058 0  0.4372758752296175 0.1872013938488118 0  0.4997209584861434 0.1871513548653103 0  0.562156301611874 0.1871022692890273 0  0.6245810304191369 0.1870571566436252 0  0.6869952715309108 0.1870201899778925 0  0.7494011066038877 0.1869964907625593 0  0.811804124553642 0.1869912665580018 0  0.8742160680972382 0.1870075277822301 0  0.9366607059253231 0.1870405660241977 0  0.9991921686939358 0.1870645457889551 0  0 0.25 0  0.06247014354915736 0.2499508671768218 0  0.1249390663576975 0.2499006222296201 0  0.1874054773660478 0.2498482056922424 0  0.2498679991038676 0.2497926936076993 0  0.3123251333251667 0.2497333996443964 0  0.3747752449730056 0.2496700207707231 0  0.4372165822163416 0.2496028424374682 0  0.4996473633273403 0.24953301684088 0  0.5620659809603203 0.2494629184016714 0  0.6244714020435809 0.2493965561831328 0  0.6868638755397209 0.2493399693531943 0  0.7492460951175113 0.2493014244601258 0  0.8116249994078563 0.2492910334956927 0  0.8740144994665556 0.2493190767453292 0  0.936439919768303 0.2493919090681345 0  0.9989461714418154 0.2495046131005147 0  0 0.3125 0  0.06246512032306322 0.3124405598685681 0  0.1249288150036737 0.3123795961757374 0  0.1873895813556259 0.3123156280527741 0  0.2498458112401808 0.3122472941560486 0  0.3122957469090498 0.3121734556723348 0  0.3747374553069789 0.3120933575222559 0  0.437168839597426 0.3120068758977507 0  0.4995877203301684 0.3119148859900933 0  0.5619920381040646 0.3118197864858245 0  0.6243802533926346 0.3117262097207319 0  0.6867520411051724 0.3116419128936961 0  0.7491093852315698 0.3115787575813354 0  0.8114581676960101 0.3115534958488966 0  0.8738103794826068 0.3115877416072955 0  0.9361874419591307 0.3117060329154819 0  0.9986264044328084 0.3119305118421405 0  0 0.375 0  0.06246157484811132 0.3749317789517149 0  0.1249215760247255 0.374861570333084 0  0.1873783495763085 0.3747874037082518 0  0.249830114786486 0.3747073768564198 0  0.31227490626329 0.3746197373206244 0  0.3747105303231591 0.3745230317380335 0  0.4371345533539302 0.3744163634173462 0  0.4995443543445494 0.3742998159633059 0  0.5619372947778308 0.3741751233299893 0  0.6243110848249476 0.3740466910496157 0  0.686664447203864 0.3739230872638298 0  0.7489981824941726 0.373819093447133 0  0.8113167069977102 0.3737582634482848 0  0.8736301020212418 0.3737755619743287 0  0.9359568817836506 0.3739188862067478 0  0.9983285153864362 0.3742470617903904 0  0 0.4375 0  0.06245964147804858 0.4374249876669524 0  0.1249176269958139 0.4373474973859218 0  0.187372220668456 0.4372650261552994 0  0.2498215384661648 0.4371750488927269 0  0.3122634739285959 0.4370750504013899 0  0.37469563021469 0.4369626233111518 0  0.437115273921776 0.4368356799513848 0  0.499519343640504 0.4366928556681168 0  0.5619045758437323 0.4365342276573561 0  0.6242678556581442 0.4363625426175345 0  0.6866069575127591 0.4361852391788928 0  0.7489218915429083 0.4360176469822865 0  0.8112170680973559 0.4358877631506612 0  0.8735043618534754 0.4358427360274686 0  0.9358068785154435 0.4359562199459547 0  0.9981631135151979 0.4363336893174116 0  0 0.5 0  0.06245937116514216 0.4999206739879579 0  0.1249170776346092 0.4998383973471408 0  0.1873713792202979 0.4997501376954834 0  0.249820370422362 0.4996527146645871 0  0.3122618898217692 0.4995427526994473 0  0.3746934243696607 0.4994166808325252 0  0.4371120199548297 0.4992708240170745 0  0.4995142318393889 0.4991016678384645 0  0.5618961945825902 0.4989064446998006 0  0.6242539786356714 0.4986843049986701 0  0.6865845497138222 0.4984385303467851 0  0.7488878583108296 0.4981805456862994 0  0.8111707827588053 0.4979368708150085 0  0.8734535602081148 0.4977603870254498 0  0.9357784301110432 0.4977465942408354 0  0.9982182158991374 0.4980522823421252 0  0 0.5625 0  0.06246072843162895 0.5624193066583364 0  0.1249198613281112 0.5623352674385989 0  0.1873757368416903 0.5622443897241349 0  0.2498265204552322 0.5621428844526516 0  0.3122701018658841 0.5620265161202065 0  0.374703972211102 0.5618904611475747 0  0.4371250846967102 0.5617292001186773 0  0.4995297258509669 0.561536503382385 0  0.5619134872049814 0.561305638208086 0  0.6242715725651086 0.5610300638149817 0  0.6865999805256299 0.5607051562017717 0  0.748898661459071 0.560332042427236 0  0.8111785732551654 0.5599256087191662 0  0.8734752232927739 0.5595302596778536 0  0.9358702053074275 0.5592482074737969 0  0.9985162884882464 0.5592822972386661 0  0 0.625 0  0.062463595907662 0.6249212759285818 0  0.1249257414152473 0.6248389570199596 0  0.1873849342515517 0.624749238774438 0  0.2498395075595725 0.6246478725117179 0  0.312287522905264 0.624529904119251 0  0.3747266278504098 0.6243893668220803 0  0.4371538662018504 0.6242189183324033 0  0.4995654449798132 0.6240094280549656 0  0.5619565230764824 0.62374956120978 0  0.6243212680981292 0.6234255111001987 0  0.6866539002099309 0.6230212903004465 0  0.7489525368036706 0.6225206353265851 0  0.811229847225731 0.6219131579354102 0  0.8735379074065187 0.6212110094933545 0  0.9360167396960608 0.6204889062225462 0  0.9989683991299801 0.6199632307877466 0  0 0.6875 0  0.06246778712775773 0.6874268255280762 0  0.1249343345160225 0.6873500206061322 0  0.1873983699388936 0.6872656973490525 0  0.2498584836570506 0.6871694073392124 0  0.312313031317257 0.6870557839762772 0  0.3747599895563603 0.686918080295938 0  0.4371967326753641 0.6867475483607092 0  0.4996196909462215 0.6865325897116344 0  0.5620238703424639 0.6862575891275375 0  0.624402342616284 0.6859013412158842 0  0.686746302051586 0.6854350481385787 0  0.7490478034216708 0.6848202170041277 0  0.8113114373326769 0.6840081903387739 0  0.8735907781717782 0.6829482826104624 0  0.93608068664695 0.681629229060608 0  0.9992965846358106 0.6802131831376179 0  0 0.75 0  0.06247306669380421 0.7499359866608644 0  0.1249451502695381 0.7498685719883947 0  0.1874152573356518 0.7497940776214702 0  0.2498823014883884 0.7497082111946005 0  0.3123450326451496 0.7496056537185849 0  0.3748019189237362 0.7494794967775191 0  0.4372509342487328 0.7493204363803667 0  0.4996891642178035 0.7491155799957981 0  0.5621120795882601 0.74884663827251 0  0.6245122672534751 0.7484871264485572 0  0.6868775263576168 0.7479979429843806 0  0.7491892851738473 0.7473202572372057 0  0.8114270643792909 0.7463641309893223 0  0.8736023530316682 0.7449925814002015 0  0.9358986445446235 0.7430189810305585 0  0.9990398691149101 0.7403928536450161 0  0 0.8125 0  0.0624791750724492 0.8124485276393143 0  0.1249576431526128 0.8123941696389133 0  0.1874347073695576 0.8123337812500632 0  0.2499096303806691 0.8122636365325852 0  0.3123816025968302 0.8121790240334024 0  0.3748496794668534 0.8120736764032901 0  0.4373126437075601 0.8119389223952186 0  0.4997686883337578 0.8117623802400177 0  0.5622146792990063 0.8115258871670977 0  0.6246444543151788 0.8112021277094413 0  0.6870450011371581 0.8107489523057981 0  0.749388391465403 0.8100992990251082 0  0.8116174023003943 0.809141821804753 0  0.8736345727951335 0.8076793423406229 0  0.9353953581596628 0.8053294528349113 0  0.99786263255237 0.8012787168930328 0  0 0.875 0  0.06248585361637953 0.874963932712812 0  0.124971268062781 0.8749257643656064 0  0.1874558261946651 0.8748831925393119 0  0.2499391140963898 0.8748334596125436 0  0.3124207265461723 0.8747730288421176 0  0.3749002683571361 0.8746971176924753 0  0.4373773312405862 0.874598988736724 0  0.4998513810941645 0.874468833886307 0  0.5623213629871551 0.874291974704774 0  0.6247844681210575 0.8740459029406966 0  0.6872324712553034 0.8736953222280838 0  0.7496410746747596 0.873183584724798 0  0.8119391342343392 0.8724166944757831 0  0.8739202404881249 0.8712270207979166 0  0.9349947290772626 0.8692606230333745 0  0.9935830179171607 0.8655040095491264 0  0 0.9375 0  0.06249286441680056 0.9374814198507019 0  0.1249855278712913 0.9374617322811344 0  0.1874778086607388 0.9374397196871533 0  0.2499695448489434 0.9374139142501545 0  0.312460614961509 0.9373824175046573 0  0.3749509716596502 0.9373426371960448 0  0.4374406928377695 0.9372908824
[...]
<PointData  Vectors="f_95-0"> 
<DataArray  type="Float64"  Name="f_95-0"  NumberOfComponents="3" format="ascii">0.0000000000000000e+00 0.0000000000000000e+00 0.0000000000000000e+00  2.9688390113072116e-04 -3.8604724979889732e-02 0.0000000000000000e+00  8.4561050475457907e-04 -6.5828752067853172e-02 0.0000000000000000e+00  1.5301498275607107e-03 -8.2355253128731862e-02 0.0000000000000000e+00  2.3223083917979057e-03 -9.0142462010584623e-02 0.0000000000000000e+00  3.1784919492628266e-03 -9.1401886770559146e-02 0.0000000000000000e+00  4.0653197764989775e-03 -8.8149004612992757e-02 0.0000000000000000e+00  4.9578732842738846e-03 -8.2002797442165695e-02 0.0000000000000000e+00  5.8371276136157651e-03 -7.4144252026463672e-02 0.0000000000000000e+00  6.6859203107525571e-03 -6.5363142452766060e-02 0.0000000000000000e+00  7.4846334540204463e-03 -5.6144654778942003e-02 0.0000000000000000e+00  8.2066894218130772e-03 -4.6764141840426258e-02 0.0000000000000000e+00  8.8146360313663720e-03 -3.7372344038432322e-02 0.0000000000000000e+00  9.2433467559189242e-03 -2.8052935506981666e-02 0.0000000000000000e+00  9.4115845585423952e-03 -1.8898268687226400e-02 0.0000000000000000e+00  9.4915746853186742e-03 -9.8525062599077191e-03 0.0000000000000000e+00  4.6567247092054870e-03 -4.1133662739576190e-03 0.0000000000000000e+00  0.0000000000000000e+00 0.0000000000000000e+00 0.0000000000000000e+00  2.9277784588037511e-04 -3.9078857157881376e-02 0.0000000000000000e+00  9.5697113239657865e-04 -6.6484077493275548e-02 0.0000000000000000e+00  1.8260258240909572e-03 -8.3149571491224775e-02 0.0000000000000000e+00  2.8337761460402993e-03 -9.1030873240845495e-02 0.0000000000000000e+00  3.9218700437665174e-03 -9.2346407627949087e-02 0.0000000000000000e+00  5.0497828076063525e-03 -8.9119986759859091e-02 0.0000000000000000e+00  6.1871035645196335e-03 -8.2977499427706866e-02 0.0000000000000000e+00  7.3098458729485474e-03 -7.5103311363293276e-02 0.0000000000000000e+00  8.3953139226118773e-03 -6.6286565758858801e-02 0.0000000000000000e+00  9.4176610604112202e-03 -5.7007889817605337e-02 0.0000000000000000e+00  1.0344171558451062e-02 -4.7533953178721118e-02 0.0000000000000000e+00  1.1130632336531891e-02 -3.8000327910927723e-02 0.0000000000000000e+00  1.1716964093965734e-02 -2.8474033534573801e-02 0.0000000000000000e+00  1.2041241625614565e-02 -1.8990433383672671e-02 0.0000000000000000e+00  1.1769801708277414e-02 -9.4999750987758095e-03 0.0000000000000000e+00  1.1850463630382965e-02 -8.2789124278667594e-04 0.0000000000000000e+00  0.0000000000000000e+00 0.0000000000000000e+00 0.0000000000000000e+00  3.7720161423680581e-04 -3.9676806332248252e-02 0.0000000000000000e+00  1.3393799076014093e-03 -6.7438956297285149e-02 0.0000000000000000e+00  2.6698229341888544e-03 -8.4328313707569755e-02 0.0000000000000000e+00  4.2287622357672743e-03 -9.2349602017756605e-02 0.0000000000000000e+00  5.9211268788149658e-03 -9.3746111302964147e-02 0.0000000000000000e+00  7.6846391898268340e-03 -9.0558364568595243e-02 0.0000000000000000e+00  9.4735597613498888e-03 -8.4422082221345854e-02 0.0000000000000000e+00  1.1249624446336995e-02 -7.6524846430284676e-02 0.0000000000000000e+00  1.2974183664749053e-02 -6.7653785221790913e-02 0.0000000000000000e+00  1.4603464820241229e-02 -5.8283759737030767e-02 0.0000000000000000e+00  1.6086073521609231e-02 -4.8672963055278767e-02 0.0000000000000000e+00  1.7362810110878417e-02 -3.8946686563536989e-02 0.0000000000000000e+00  1.8370533561392087e-02 -2.9160471987485660e-02 0.0000000000000000e+00  1.9038411091613847e-02 -1.9337455249304854e-02 0.0000000000000000e+00  1.9421144228630661e-02 -9.5416346330407346e-03 0.0000000000000000e+00  1.9427530267872587e-02 -1.9216409080483960e-04 0.0000000000000000e+00  0.0000000000000000e+00 0.0000000000000000e+00 0.0000000000000000e+00  5.4389749008020938e-04 -4.0530165020672061e-02 0.0000000000000000e+00  1.9457304031736916e-03 -6.8872311999664509e-02 0.0000000000000000e+00  3.9173555078277789e-03 -8.6130003276634420e-02 0.0000000000000000e+00  6.2480501817513195e-03 -9.4379543705678012e-02 0.0000000000000000e+00  8.7998699604565182e-03 -9.5912597944668637e-02 0.0000000000000000e+00  1.1481922430963848e-02 -9.2798285077054385e-02 0.0000000000000000e+00  1.4226871083662404e-02 -8.6685182452905699e-02 0.0000000000000000e+00  1.6974440919319007e-02 -7.8762596029670992e-02 0.0000000000000000e+00  1.9660527757019351e-02 -6.9812581807440530e-02 0.0000000000000000e+00  2.2212167080971189e-02 -6.0301795065265895e-02 0.0000000000000000e+00  2.4546979597354354e-02 -5.0480191796447950e-02 0.0000000000000000e+00  2.6576880282607573e-02 -4.0468119456184656e-02 0.0000000000000000e+00  2.8215617094154526e-02 -3.0324158297299866e-02 0.0000000000000000e+00  2.9401122023368659e-02 -2.0099615644742112e-02 0.0000000000000000e+00  3.0086418198324402e-02 -9.8849354754813636e-03 0.0000000000000000e+00  3.0220945342772674e-02 7.3505267646925234e-05 0.0000000000000000e+00  0.0000000000000000e+00 0.0000000000000000e+00 0.0000000000000000e+00  7.4979090608166886e-04 -4.1742621706527448e-02 0.0000000000000000e+00  2.6792558242032982e-03 -7.0915959495673447e-02 0.0000000000000000e+00  5.4023560532488408e-03 -8.8716948519425604e-02 0.0000000000000000e+00  8.6451230161730223e-03 -9.7316611925816601e-02 0.0000000000000000e+00  1.2230707711439933e-02 -9.9074693758127885e-02 0.0000000000000000e+00  1.6041085095652816e-02 -9.6098169323336868e-02 0.0000000000000000e+00  1.9984713947161063e-02 -9.0049219838675754e-02 0.0000000000000000e+00  2.3973011705709188e-02 -8.2114910029172192e-02 0.0000000000000000e+00  2.7907027720080902e-02 -7.3066806649226809e-02 0.0000000000000000e+00  3.1672629302560554e-02 -6.3358921634293283e-02 0.0000000000000000e+00  3.5142033027011958e-02 -5.3231373536133858e-02 0.0000000000000000e+00  3.8180646131213102e-02 -4.2802191405482991e-02 0.0000000000000000e+00  4.0659274910580225e-02 -3.2140661052869737e-02 0.0000000000000000e+00  4.2466361155207313e-02 -2.1321648367918871e-02 0.0000000000000000e+00  4.3512477960667699e-02 -1.0463428887274763e-02 0.0000000000000000e+00  4.3735256745415771e-02 2.7093877887203265e-04 0.0000000000000000e+00  0.0000000000000000e+00 0.0000000000000000e+00 0.0000000000000000e+00  9.6712049322950739e-04 -4.3357525296881090e-02 0.0000000000000000e+00  3.4533107303499873e-03 -7.3637046240915882e-02 0.0000000000000000e+00  6.9742565511970349e-03 -9.2180565563787745e-02 0.0000000000000000e+00  1.1204854726698646e-02 -1.0128573999904683e-01 0.0000000000000000e+00  1.5940672410217332e-02 -1.0339726684567127e-01 0.0000000000000000e+00  2.1043268049004055e-02 -1.0066416625282926e-01 0.0000000000000000e+00  2.6396636394314391e-02 -9.4757968821015851e-02 0.0000000000000000e+00  3.1877918922662646e-02 -8.6855227439229660e-02 0.0000000000000000e+00  3.7342926814289197e-02 -7.7708248475812092e-02 0.0000000000000000e+00  4.2622673989510279e-02 -6.7751304094496187e-02 0.0000000000000000e+00  4.7527488342027642e-02 -5.7210323890590102e-02 0.0000000000000000e+00  5.1857252854567271e-02 -4.6199865722479867e-02 0.0000000000000000e+00  5.5416415518757707e-02 -3.4801184791708031e-02 0.0000000000000000e+00  5.8034290540382644e-02 -2.3117907860523656e-02 0.0000000000000000e+00  5.9584508374737971e-02 -1.1298993327174101e-02 0.0000000000000000e+00  6.0006080211579382e-02 4.3546207511247756e-04 0.0000000000000000e+00  0.0000000000000000e+00 0.0000000000000000e+00 0.0000000000000000e+00  1.1734235403546738e-03 -4.5376081757532973e-02 0.0000000000000000e+00  4.1931006088452363e-03 -7.7042858590617547e-02 0.0000000000000000e+00  8.4969799907625727e-03 -9.6549493183703192e-02 0.0000000000000000e+00  1.3733113452182408e-02 -1.0635492161247707e-01 0.0000000000000000e+00  1.9689238492868685e-02 -1.0900032102156075e-01 0.0000000000000000e+00  2.6217076834621184e-02 -1.0667279924599046e-01 0.0000000000000000e+00  3.3176835321995606e-02 -1.0104124831788894e-01 0.0000000000000000e+00  4.0404275849828045e-02 -9.3257588003780867e-02 0.0000000000000000e+00  4.7697541889948535e-02 -8.4042218832925453e-02 0.0000000000000000e+00  5.4817192181187989e-02 -7.3799692575563985e-02 0.0000000000000000e+00  6.1493738332851364e-02 -6.2734247757933653e-02 0.0000000000000000e+00  6.7440731148534036e-02 -5.0952688344944187e-02 0.0000000000000000e+00  7.2374015000040773e-02 -3.8550311419401184e-02 0.0000000000000000e+00  7.6046282050023756e-02 -2.5672866641050378e-02 0.0000000000000000e+00  7.8285476647193861e-02 -1.2543861858575450e-02 0.0000000000000000e+00  7.9056692508434140e-02 5.1846840528859176e-04 0.0000000000000000e+00  0.0000000000000000e+00 0.0000000000000000e+00 0.0000000000000000e+00  1.3462716413987026e-03 -4.7758209688755826e-02 0.0000000000000000e+00  4.8221199916006442e-03 -8.1079570613943233e-02 0.0000000000000000e+00  9.8286254815987718e-03 -1.0178958535497848e-01 0.0000000000000000e+00  1.6027422657773811e-02 -1.1253902317843234e-01 0.0000000000000000e+00  2.3227259515578108e-02 -1.1596625390059641e-01 0.0000000000000000e+00  3.1283625008025943e-02 -1.1428005806790187e-01 0.0000000000000000e+00  4.0032881903743774e-02 -1.0912426925034145e-01 0.0000000000000000e+00  4.9259694665733697e-02 -1.0160515690361425e-01 0.0000000000000000e+00  5.8689634832776491e-02 -9.2394707630124986e-02 0.0000000000000000e+00  6.7996009331513591e-02 -8.1855503710901431e-02 0.0000000000000000e+00  7.6811190799538201e-02 -7.0161020573692598e-02 0.0000000000000000e+00  8.4741504786981392e-02 -5.7403523710045111e-02 0.0000000000000000e+00  9.1388584207550569e-02 -4.3689216402578834e-02 0.0000000000000000e+00  9.6397868068156450e-02 -2.9220527946512326e-02 0.0000000000000000e+00  9.9522159065783877e-02 -1.4347757492775292e-02 0.0000000000000000e+00  1.0077149324742758e-01 4.3716134793640087e-04 0.0000000000000000e+00  0.0000000000000000e+00 0.0000000000000000e+00 0.0000000000000000e+00  1.4578947036822285e-03 -5.0418027368617259e-02 0.0000000000000000e+00  5.2470573917504006e-03 -8.5624643335198536e-02 0.0000000000000000e+00  1.0797642976244269e-02 -1.0779588007422748e-01 0.0000000000000000e+00  1.7843483138655941e-02 -1.1979302904565267e-01 0.0000000000000000e+00  2.6251420259246688e-02 -1.2433365240721286e-01 0.0000000000000000e+00  3.5895209088555605e-02 -1.2361388143101942e-01 0.0000000000000000e+00  4.6584289757418768e-02 -1.1921706949443565e-01 0.0000000000000000e+00  5.8038734830942136e-02 -1.1217555945954061e-01 0.0000000000000000e+00  6.9894397138073550e-02 -1.0309400326129248e-01 0.0000000000000000e+00  8.1720293643562522e-02 -9.2281895512778558e-02 0.0000000000000000e+00  9.3035891543217578e-02 -7.9873007344395591e-02 0.0000000000000000e+00  1.0332625541156798e-01 -6.5930018142578484e-02 0.0000000000000000e+00  1.1205231253295041e-01 -5.0554614594559531e-02 0.0000000000000000e+00  1.1870260472862541e-01 -3.4016104339199674e-02 0.0000000000000000e+00  1.2289173780087741e-01 -1.6854393597217104e-02 0.0000000000000000e+00  1.2466203755345828e-01 1.5553530977258938e-04 0.0000000000000000e+00  0.0000000000000000e+00 0.0000000000000000e+00 0.0000000000000000e+00  1.4712749026566400e-03 -5.3210861943501983e-02 0.0000000000000000e+00  5.3475427187091020e-03 -9.0470284364638845e-02 0.0000000000000000e+00  1.1186891367946566e-02 -1.1437646708316000e-01 0.0000000000000000e+00  1.8872347600783979e-02 -1.2799546395944777e-01 0.0000000000000000e+00  2.8370318409979993e-02 -1.3407710353225660e-01 0.0000000000000000e+00  3.9583856543961293e-02 -1.3474722034952674e-01 0.0000000000000000e+00  5.2286685609794464e-02 -1.3147888755805956e-01 0.0000000000000000e+00  6.6116531949871007e-02 -1.2519633994394544e-01 0.0000000000000000e+00  8.0600616188901117e-02 -1.1641900565340549e-01 0.0000000000000000e+00  9.5189418958878613e-02 -1.0539652939254437e-01 0.0000000000000000e+00  1.0928640663092726e-01 -9.2216205277042246e-02 0.0000000000000000e+00  1.2225345232529257e-01 -7.6898391722458631e-02 0.0000000000000000e+00  1.3339491531701761e-01 -5.9518265989574715e-02 0.0000000000000000e+00  1.4199380720858604e-01 -4.0367812614028539e-02 0.0000000000000000e+00  1.4740472068927687e-01 -2.0182031525635493e-02 0.0000000000000000e+00  1.4956718202095159e-01 -2.0934789271978606e-04 0.0000000000000000e+00  0.0000000000000000e+00 0.0000000000000000e+00 0.0000000000000000e+00  1.3395340207945912e-03 -5.5916717487981243e-02 0.0000000000000000e+00  4.9773676285615881e-03 -9.5305355626648144e-02 0.0000000000000000e+00  1.0738860888396446e-02 -1.2123485043560341e-01 0.0000000000000000e+00  1.8746371854050464e-02 -1.3692591516072475e-01 0.0000000000000000e+00  2.9102608983010113e-02 -1.4507332108049181e-01 0.0000000000000000e+00  4.1740786428907800e-02 -1.4764847173138146e-01 0.0000000000000000e+00  5.6382300665427577e-02 -1.4595181160988277e-01 0.0000000000000000e+00  7.2561747094012904e-02 -1.4076310735031086e-01 0.0000000000000000e+00  8.9680310468786134e-02 -1.3250306043353480e-01 0.0000000000000000e+00  1.0706395887929716e-01 -1.2136392558091082e-01 0.0000000000000000e+00  1.2400731169877953e-01 -1.0739900003431303e-01 0.0000000000000000e+00  1.3976766763002016e-01 -9.0587771492646005e-02 0.0000000000000000e+00  1.5354552143390204e-01 -7.0899854690329042e-02 0.0000000000000000e+00  1.6439233115452601e-01 -4.8499206012118747e-02 0.0000000000000000e+00  1.7117495054898299e-01 -2.4293987275501323e-02 0.0000000000000000e+00  1.7331038903965321e-01 -2.4729628641941660e-04 0.0000000000000000e+00  0.0000000000000000e+00 0.0000000000000000e+00 0.0000000000000000e+00  1.0118207537812896e-03 -5.8229450334813956e-02 0.0000000000000000e+00  3.9883696046370005e-03 -9.9709461522051665e-02 0.0000000000000000e+00  9.2013118552719680e-03 -1.2796335886545088e-01 0.0000000000000000e+00  1.7098295483487898e-02 -1.4624423564117553e-01 0.0000000000000000e+00  2.7933716461412062e-02 -1.5705530979841481e-01 0.0000000000000000e+00  4.1653789410180386e-02 -1.6210648137580080e-01 0.0000000000000000e+00  5.7904130104702793e-02 -1.6245846807258854e-01 0.0000000000000000e+00  7.6098966612066610e-02 -1.5871436793158394e-01 0.0000000000000000e+00  9.5506288104658804e-02 -1.5119045098203859e-01 0.0000000000000000e+00  1.1533024883009385e-01 -1.4003857021311047e-01 0.0000000000000000e+00  1.3476826094819835e-01 -1.2531156582993441e-01 0.0000000000000000e+00  1.5304395765897150e-01 -1.0695894203492522e-01 0.0000000000000000e+00  1.6937634964524279e-01 -8.4811081218152368e-02 0.0000000000000000e+00  1.8258946637326665e-01 -5.8819475881043762e-02 0.0000000000000000e+00  1.9103952523032380e-01 -2.9647643749863738e-02 0.0000000000000000e+00  1.9283981847237916e-01 7.1024216476552873e-04 0.0000000000000000e+00  0.0000000000000000e+00 0.0000000000000000e+00 0.0000000000000000e+00  4.5226349413340672e-04 -5.9767888640071001e-02 0.0000000000000000e+00  2.2950987810446714e-03 -1.0318260139332357e-01 0.0000000000000000e+00  6.4402961930457919e-03 -1.3406638072792790e-01 0.0000000000000000e+00  1.3703577997154555e-02 -1.5548096997776237e-01 0.0000000000000000e+00  2.4461286383526792e-02 -1.6955617098298797e-01 0.0000000000000000e+00  3.8632895505001395e-02 -1.7762730944928742e-01 0.0000000000000000e+00  5.5766800683222963e-02 -1.8046013099289171e-01 0.0000000000000000e+00  7.5158871518105644e-02 -1.7846283987033390e-01 0.0000000000000000e+00  9.5961398773955667e-02 -1.7185068756297381e-01 0.0000000000000000e+00  1.1727448443696505e-01 -1.6075617609336956e-01 0.0000000000000000e+00  1.3822300378463243e-01 -1.4527541244720785e-01 0.0000000000000000e+00  1.5805900393899086e-01 -1.2543071287248192e-01 0.0000000000000000e+00  1.7609081403229185e-01 -1.0105325073122245e-01 0.0000000000000000e+00  1.9140660098481801e-01 -7.1463968328042984e-02 0.0000000000000000e+00  2.0228845712117063e-01 -3.5772085723807953e-02 0.0000000000000000e+00  2.0441780072477342e-01 3.0420481640533086e-03 0.0000000000000000e+00  0.0000000000000000e+00 0.0000000000000000e+00 0.0000000000000000e+00  -3.1682393289507351e-04 -6.0144986724175016e-02 0.0000000000000000e+00  8.8393478980438790e-06 -1.0524953909383404e-01 0.0000000000000000e+00  2.6536779544726833e-03 -1.3903761626083047e-01 0.0000000000000000e+00  8.7342262242670679e-03 -1.6404841347768323e-01 0.0000000000000000e+00  1.8652719732789178e-02 -1.8184443070241973e-01 0.0000000000000000e+00  3.2248498080737167e-02 -1.9330389900121239e-01 0.0000000000000000e+00  4.8975503160023637e-02 -1.9887996454121232e-01 0.0000000000000000e+00  6.8057584646211311e-02 -1.9879411821059340e-01 0.0000000000000000e+00  8.8597867415374079e-02 -1.9317100699691464e-01 0.0000000000000000e+00  1.0965376314966835e-01 -1.8212943715291199e-01 0.0000000000000000e+00  1.3030804037161572e-01 -1.6583435615453218e-01 0.0000000000000000e+00  1.4977088382476597e-01 -1.4448907343120412e-01 0.0000000000000000e+00  1.6747509229789315e-01 -1.1809468219656630e-01 0.0000000000000000e+00  1.8361158039388739e-01 -8.5667112729024025e-02 0.0000000000000000e+00  1.9720362160739913e-01 -4.4418927836326276e-02 0.0000000000000000e+00  1.9879390998917126e-01 6.8981196848647243e-03 0.0000000000000000e+00  0.0000000000000000e+00 0.0000000000000000e+00 0.0000000000000000e+00  -1.1191408534703268e-03 -5.9141073576363550e-02 0.0000000000000000e+00  -2.3160363653788080e-03 -1.0566822132370443e-01 0.0000000000000000e+00  -1.2875164854662296e-03 -1.4249224422783285e-01 0.0000000000000000e+00  3.1286443949549445e-03 -1.7125976558334785e-01 0.0000000000000000e+00  1.1207254927313760e-02 -1.9284148898173806e-01 0.0000000000000000e+00  2.2679357988246513e-02 -2.0766074792198475e-01 0.0000000000000000e+00  3.6969212930131536e-02 -2.1590473026618945e-01 0.0000000000000000e+00  5.3347077325180708e-02 -2.1765239602391315e-01 0.0000000000000000e+00  7.1008363217107962e-02 -2.1295578148497285e-01 0.0000000000000000e+00  8.9106467160391195e-02 -2.0189990948091133e-01 0.0000000000000000e+00  1.0676147145813962e-01 -1.8466049603418713e-01 0.0000000000000000e+00  1.2308304394694701e-01 -1.6155934511169676e-01 0.0000000000000000e+00  1.3739673762833199e-01 -1.3305405734521888e-01 0.0000000000000000e+00  1.4991365391677489e-01 -9.9420038056968973e-02 0.0000000000000000e+00  1.6155006918202530e-01 -5.7847205603413471e-02 0.0000000000000000e+00  1.7560740431103000e-01 3.5313929316707657e-03 0.0000000000000000e+00  0.0000000000000000e+00 0.0000000000000000e+00 0.0000000000000000e+00  -1.4216185951704558e-03 -5.7097915941253179e-02 0.0000000000000000e+00  -3.2782458231571930e-03 -1.0480983006733038e-01 0.0000000000000000e+00  -3.3787775735110090e-03 -1.4436234120604510e-01 0.0000000000000000e+00  -9.8310323405300694e-04 -1.7635330754430853e-01 0.0000000000000000e+00  3.9439053389770566e-03 -2.0103939585238845e-01 0.0000000000000000e+00  1.1109084172353642e-02 -2.1852254529565229e-01 0.0000000000000000e+00  2.0078604305213136e-02 -2.2883730054035753e-01 0.0000000000000000e+00  3.0368916066194792e-02 -2.3199325091212930e-01 0.0000000000000000e+00  4.1477085363703564e-02 -2.2799995953078031e-01 0.0000000000000000e+00  5.2873969013185772e-02 -2.1688737620456511e-01 0.0000000000000000e+00  6.3960261487910494e-02 -1.9873289281256415e-01 0.0000000000000000e+00  7.3996619986428105e-02 -1.7370769535600461e-01 0.0000000000000000e+00  8.1959873644293635e-02 -1.4220672417103775e-01 0.0000000000000000e+00  8.6378906740124592e-02 -1.0490480563375724e-01 0.0000000000000000e+00  8.7279074946594454e-02 -6.2244885504487077e-02 0.0000000000000000e+00  8.0491761658484304e-02 -9.0098798051976609e-04 0.0000000000000000e+00  0.0000000000000000e+00 3.4192540885517941e-18 0.0000000000000000e+00  0.0000000000000000e+00 -5.5725967751669318e-02 0.0000000000000000e+00  0.0000000000000000e+00 -1.0402180646978271e-01 0.0000000000000000e+00  0.0000000000000000e+00 -1.4488751615434020e-01 0.0000000000000000e+00  0.0000000000000000e+00 -1.7832309680534178e-01 0.0000000000000000e+00  0.0000000000000000e+00 -2.0432854842278744e-01 0.0000000000000000e+00  0.0000000000000000e+00 -2.2290387100667725e-01 0.0000000000000000e+00  0.0000000000000000e+00 -2.3404906455701111e-01 0.0000000000000000e+00  0.0000000000000000e+00 -2.3