<?xml version="1.0"?>
<VTKFile type="UnstructuredGrid"  version="0.1"  >
<UnstructuredGrid>
<Piece  NumberOfPoints="289" NumberOfCells="512">
<Points>
<DataArray  type="Float64"  NumberOfComponents="3"  format="ascii">0 0 0  0.0625 0 0  0.125 0 0  0.1875 0 0  0.25 0 0  0.3125 0 0  0.375 0 0  0.4375 0 0  0.5 0 0  0.5625 0 0  0.625 0 0  0.6875 0 0  0.75 0 0  0.8125 0 0  0.875 0 0  0.9375 0 0  1 0 0  0 0.0625 0  0.06253515222397758 0.06248171199592075 0  0.1250721072433105 0.06246309046098066 0  0.1876127957374485 0.06244382634692781 0  0.250159415505223 0.06242367390203599 0  0.3127145982044514 0.06240249106927629 0  0.3752816231860594 0.06238028900987307 0  0.4378647122695368 0.06235729001702432 0  0.5004694702238663 0.06233398749874588 0  0.5631036103675437 0.06231119106161569 0  0.6257782942883656 0.06229001979591243 0  0.6885109233636471 0.06227176801697534 0  0.7513316674832889 0.06225748132258383 0  0.8143003957986328 0.06224684233626749 0  0.8775547524767139 0.06223515081577179 0  0.9414584544776131 0.0622040037208555 0  1.00710318008916 0.06208848145688532 0  0 0.125 0  0.06256848629855551 0.124963742801497 0  0.1251404661692855 0.1249267866304594 0  0.1877196820899234 0.1248884781149555 0  0.250310398081028 0.1248482834784303 0  0.3129177249056405 0.1248058675182978 0  0.3755480340317955 0.1247611938970815 0  0.4382095165745777 0.1247146482199328 0  0.5009129837240445 0.1246671764316965 0  0.5636730920926484 0.1246204138399053 0  0.6265103680026409 0.1245767495442211 0  0.6894548188662519 0.1245392224150982 0  0.7525527698892508 0.1245110838738167 0  0.8158800170674662 0.1244948596369278 0  0.8795652940167807 0.1244911914409674 0  0.9438188075208311 0.1245005817274022 0  1.008888476537122 0.1245452564886589 0  0 0.1875 0  0.06259833054485656 0.1874464634558477 0  0.1252016119498626 0.187391804362618 0  0.1878151457679686 0.1873349596755698 0  0.2504449713790001 0.1872750267645744 0  0.3130983243914225 0.1872113755422969 0  0.3757842136642539 0.1871437986911231 0  0.4385141789897725 0.1870727086083122 0  0.5013033170748142 0.1869993810452962 0  0.5641717047062361 0.1869262266060741 0  0.6271464069061179 0.1868570346221727 0  0.690264306149315 0.1867970680565783 0  0.7535758592500779 0.1867527750375441 0  0.8171489116521522 0.1867306780708009 0  0.8810676978373233 0.1867345079840004 0  0.9454096332264149 0.1867577958594718 0  1.010154834718103 0.1867603140997012 0  0 0.25 0  0.06262325381933403 0.2499303024180526 0  0.1252525787348908 0.2498589824382049 0  0.1878944689039204 0.2497844793352877 0  0.2505563138751239 0.2497054076789722 0  0.3132469548873242 0.249620690987758 0  0.3759773813706463 0.2495297541066188 0  0.4387616289248885 0.2494327957099374 0  0.5016179453226979 0.2493311590352474 0  0.564570279279484 0.2492278062914815 0  0.6276500806786273 0.2491278702622132 0  0.6908981838876262 0.2490391886389143 0  0.7543659389679979 0.2489725954123363 0  0.8181132302614801 0.2489415083420579 0  0.8821976753586931 0.2489599719122591 0  0.9466437224273716 0.2490379403035027 0  1.011377613322242 0.2491739383253267 0  0 0.3125 0  0.06264216019863739 0.3124157629285388 0  0.1252910990738153 0.3123293223131061 0  0.1879540536116825 0.3122385219306411 0  0.2506392389912258 0.3121413581122837 0  0.3133564613732212 0.3120361145288955 0  0.3761178911005308 0.3119215764006321 0  0.4389390640470534 0.3117973626679549 0  0.5018401774682917 0.3116644225136018 0  0.5648477145790238 0.3115257461893377 0  0.6279963211762533 0.3113873291112595 0  0.691330570765738 0.3112593818047417 0  0.754905620899185 0.311157658843396 0  0.8187845643700276 0.3111045314511996 0  0.8830285272728576 0.3111290046749471 0  0.9476745633832305 0.3112643645966645 0  1.012701182883999 0.3115419458039874 0  0 0.375 0  0.06265435524328221 0.3749034272033782 0  0.1253157443781841 0.3748040017932134 0  0.1879916522180429 0.3746988836235048 0  0.2506905365772929 0.3745853142313442 0  0.3134224488776688 0.3744607223743971 0  0.376199835694631 0.3743229229328514 0  0.4390386097619297 0.3741704652919354 0  0.5019595943328463 0.3740032113478968 0  0.5649904406578089 0.373823253776002 0  0.628168055324957 0.3736363156366127 0  0.6915413766192448 0.3734537818503529 0  0.7551738922798874 0.3732954499053678 0  0.8191445069094885 0.3731928469138434 0  0.8835444573144752 0.3731923812622751 0  0.9484681223301835 0.3733565455385255 0  1.013999732712953 0.3737599894112411 0  0 0.4375 0  0.06265957860243157 0.4373939423409998 0  0.1253259961505978 0.4372843512394919 0  0.1880064895243331 0.4371676488185924 0  0.2507091654330088 0.4370402144523886 0  0.3134435694407155 0.4368984223766867 0  0.3762214483443943 0.4367387709527037 0  0.439057824860304 0.4365581710035379 0  0.5019725580528431 0.4363545024834891 0  0.5649926336679689 0.4361276137284592 0  0.6281555005682121 0.4358810309001265 0  0.6915137964858072 0.4356247599156758 0  0.7551416881812829 0.4353796504349457 0  0.8191426410446275 0.4351836973968378 0  0.8836576952553112 0.4351000303391302 0  0.9488728948105406 0.4352246583063556 0  1.015026779951218 0.435689152080312 0  0 0.5 0  0.06265799924732725 0.4998879837827193 0  0.1253222399918939 0.4997717822226555 0  0.1879992644507417 0.4996470893027609 0  0.2506962813840533 0.499509382555049 0  0.3134216132306014 0.4993538516238757 0  0.376185323256684 0.4991753926765545 0  0.439000165120268 0.4989687325049075 0  0.5018831014319197 0.4987288004777053 0  0.5648578154025854 0.4984515631225762 0  0.6279589238515317 0.4981357025749632 0  0.6912390087296912 0.497785790567662 0  0.7547800561597099 0.4974179960884209 0  0.8187111508273406 0.4970697476491979 0  0.8832337072358899 0.4968146039818201 0  0.9486536681294603 0.4967814259667803 0  1.015419523562477 0.4971706938686246 0  0 0.5625 0  0.06265017109260204 0.5623861948425163 0  0.1253056759321952 0.5622676636847816 0  0.1879720160680628 0.5621394726047722 0  0.2506550698390835 0.5619962661201826 0  0.3133613448649524 0.5618320534464643 0  0.3760983516656172 0.5616400067225075 0  0.4388752325861921 0.561412308970402 0  0.5017039213721954 0.5611401411214666 0  0.5646013890649915 0.5608140031723134 0  0.6275940667885046 0.5604247792260449 0  0.6907264944931349 0.5599663845544991 0  0.7540777812583936 0.5594416517541408 0  0.8177914075728705 0.5588745147647021 0  0.882124938762256 0.5583332634593741 0  0.9475230051208934 0.5579691493860393 0  1.014707687381711 0.5580644904338796 0  0 0.625 0  0.06263694967301674 0.6248891053765194 0  0.1252781435046523 0.6247731502693925 0  0.1879278427953799 0.6246467820508317 0  0.2505903462440422 0.6245040224091932 0  0.3132699919469509 0.6243378990521274 0  0.3759711662915903 0.6241400124217327 0  0.4386983909619996 0.623900024991094 0  0.5014566920015474 0.6236050859105446 0  0.5642527687840819 0.6232392730087501 0  0.6270981929726057 0.622783313849537 0  0.6900174088182297 0.6222153037225712 0  0.753066420695938 0.6215142819778315 0  0.8163736120835217 0.6206713057743276 0  0.8802214798243412 0.6197187085592815 0  0.9451892692656948 0.6187968389098607 0  1.012355067486009 0.6182686676920329 0  0 0.6875 0  0.06261937607178589 0.6873970385856835 0  0.1252418716776949 0.6872889807045005 0  0.1878704820163597 0.6871703744047313 0  0.250507911714605 0.6870349819331775 0  0.3131563139262847 0.6868752775805161 0  0.3758168805262242 0.6866817970304608 0  0.4384892317076766 0.6864422611019096 0  0.5011706036323156 0.6861403734568645 0  0.5638550301542067 0.68575417146485 0  0.6265333286452959 0.6852538260890728 0  0.6891964217632743 0.6845989676476638 0  0.7518490305897982 0.6837364222282877 0  0.8145516950715003 0.6826023464323875 0  0.8775320224907742 0.6811439525251103 0  0.9414347963875388 0.6794116564472988 0  1.007738068251594 0.677816193790259 0  0 0.75 0  0.06259854231797696 0.7499100208906654 0  0.1251991826276797 0.7498152781289815 0  0.1878037931477327 0.7497106278602689 0  0.2504137136477414 0.7495900685498345 0  0.3130292812050853 0.7494461635339118 0  0.3756490580136743 0.7492692504015035 0  0.438268552722849 0.7490463026059129 0  0.5008781290729676 0.7487592328404817 0  0.5634596914197467 0.7483822970335521 0  0.6259817884271107 0.7478780300650695 0  0.6883936017238761 0.7471907523184839 0  0.7506220304243187 0.7462361054711303 0  0.8125897469244899 0.7448849387042537 0  0.8743172577077105 0.7429456186783818 0  0.9363019917722202 0.7401991752551409 0  1.000367625997803 0.7369195777121139 0  0 0.8125 0  0.06257546091243811 0.8124277137654313 0  0.125152199768266 0.8123513943785082 0  0.1877312326382728 0.812266654876364 0  0.2503129524531997 0.8121682993835295 0  0.3128965712380061 0.8120497597059029 0  0.3754791744546981 0.8119022979180529 0  0.4380540679723088 0.8117138153000863 0  0.50060783936391 0.8114670043493695 0  0.5631150715937928 0.8111363886907996 0  0.6255287809921403 0.8106834183952849 0  0.6877632868421732 0.8100479727503734 0  0.7496649869863146 0.8091326497202471 0  0.8109704370105488 0.8077709896776736 0  0.8712876484203895 0.8056565587660452 0  0.9303575441176543 0.8021752095454284 0  0.9904902346463214 0.7960560539355086 0  0 0.875 0  0.06255096614526223 0.8749493862641624 0  0.1251026248601189 0.8748958412716485 0  0.1876554450269998 0.8748361600953345 0  0.2502093597985519 0.874766506765997 0  0.3127632811423066 0.8746819654709057 0  0.3753142593837542 0.8745758932711963 0  0.4378559652460669 0.8744389355844837 0  0.500375859006793 0.874257475668641 0  0.5628497375127739 0.874011131411682 0  0.6252308534383221 0.8736686305752269 0  0.6874273881673211 0.8731808484520239 0  0.7492541639550356 0.8724684661564969 0  0.8103264560615708 0.8713971924545366 0  0.8698257413090544 0.8697138835389615 0  0.9260087936611126 0.8668265633171482 0  0.9753847426766572 0.860897817946193 0  0 0.9375 0  0.06252567214919524 0.9374739414936967 0  0.1250516448957184 0.9374463404336216 0  0.1875780937361892 0.9374155051585644 0  0.2501048936043656 0.9373793985643906 0  0.3126313454873898 0.9373353896870762 0  0.3751556991083413 0.9372798921389871 0  0.4376742783529415 0.
[...]
<PointData  Vectors="f_95-0"> 
<DataArray  type="Float64"  Name="f_95-0"  NumberOfComponents="3" format="ascii">0.0000000000000000e+00 0.0000000000000000e+00 0.0000000000000000e+00  -2.9277392362427859e-04 3.7456937789611316e-02 0.0000000000000000e+00  -8.5182063493457680e-04 6.7038066197211713e-02 0.0000000000000000e+00  -1.5621205818322349e-03 8.7395965135539488e-02 0.0000000000000000e+00  -2.4142016175849627e-03 9.9156122941093758e-02 0.0000000000000000e+00  -3.3776201870140011e-03 1.0376241140159834e-01 0.0000000000000000e+00  -4.4287543534077545e-03 1.0288003215995599e-01 0.0000000000000000e+00  -5.5484747098634496e-03 9.8052476124509458e-02 0.0000000000000000e+00  -6.7196317577875708e-03 9.0543521152670753e-02 0.0000000000000000e+00  -7.9231385800447671e-03 8.1299204098957495e-02 0.0000000000000000e+00  -9.1339401679048117e-03 7.0979418611825371e-02 0.0000000000000000e+00  -1.0316570936448371e-02 6.0021349112971877e-02 0.0000000000000000e+00  -1.1422817108032023e-02 4.8711940693257356e-02 0.0000000000000000e+00  -1.2370466495407146e-02 3.7238224870938100e-02 0.0000000000000000e+00  -1.3039085872837163e-02 2.5771991923197183e-02 0.0000000000000000e+00  -1.3530619298898761e-02 1.4547597261053912e-02 0.0000000000000000e+00  -6.9019869247202480e-03 6.8810767846285295e-03 0.0000000000000000e+00  0.0000000000000000e+00 0.0000000000000000e+00 0.0000000000000000e+00  -2.8082822569865356e-04 3.7972521397214944e-02 0.0000000000000000e+00  -9.2928558048936954e-04 6.7750064001231153e-02 0.0000000000000000e+00  -1.7959547552608181e-03 8.8266523134865327e-02 0.0000000000000000e+00  -2.8346720442694287e-03 1.0014516149946444e-01 0.0000000000000000e+00  -4.0013335407046990e-03 1.0483665942315527e-01 0.0000000000000000e+00  -5.2663008574633310e-03 1.0401314422530709e-01 0.0000000000000000e+00  -6.6059444347758081e-03 9.9222417583645098e-02 0.0000000000000000e+00  -7.9991733825790050e-03 9.1727844421336566e-02 0.0000000000000000e+00  -9.4222714687484631e-03 8.2469992575432097e-02 0.0000000000000000e+00  -1.0844610793220983e-02 7.2098499901469715e-02 0.0000000000000000e+00  -1.2225494385180641e-02 6.1035517233092688e-02 0.0000000000000000e+00  -1.3510627780494508e-02 4.9543080675689494e-02 0.0000000000000000e+00  -1.4623562368202675e-02 3.7777605937177820e-02 0.0000000000000000e+00  -1.5503780048156947e-02 2.5822321372717272e-02 0.0000000000000000e+00  -1.5777635086454186e-02 1.3602874813999103e-02 0.0000000000000000e+00  -1.6359032523439135e-02 2.4593742282161516e-03 0.0000000000000000e+00  0.0000000000000000e+00 0.0000000000000000e+00 0.0000000000000000e+00  -3.4305588081599532e-04 3.8559433723981254e-02 0.0000000000000000e+00  -1.2416738706800916e-03 6.8705831847220303e-02 0.0000000000000000e+00  -2.5176073138343529e-03 8.9467388086484453e-02 0.0000000000000000e+00  -4.0557912547614641e-03 1.0151407634379679e-01 0.0000000000000000e+00  -5.7775481095210472e-03 1.0631994565495771e-01 0.0000000000000000e+00  -7.6327081502258745e-03 1.0557234995794643e-01 0.0000000000000000e+00  -9.5837798791727404e-03 1.0082664070488581e-01 0.0000000000000000e+00  -1.1597152281094781e-02 9.3345781550184762e-02 0.0000000000000000e+00  -1.3634766913485422e-02 8.4063461817344837e-02 0.0000000000000000e+00  -1.5649297110167298e-02 7.3618048868046473e-02 0.0000000000000000e+00  -1.7582352404397775e-02 6.2417915660780907e-02 0.0000000000000000e+00  -1.9365994056493946e-02 5.0710623748553202e-02 0.0000000000000000e+00  -2.0929307207635504e-02 3.8638442368089311e-02 0.0000000000000000e+00  -2.2194710599973969e-02 2.6269125774812083e-02 0.0000000000000000e+00  -2.3120251371676802e-02 1.3628190462221057e-02 0.0000000000000000e+00  -2.3615195426253018e-02 1.0251799024684201e-03 0.0000000000000000e+00  0.0000000000000000e+00 0.0000000000000000e+00 0.0000000000000000e+00  -4.8828704770797517e-04 3.9360566567555627e-02 0.0000000000000000e+00  -1.7857473361967617e-03 7.0086051977384364e-02 0.0000000000000000e+00  -3.6613226662835035e-03 9.1237373370775879e-02 0.0000000000000000e+00  -5.9342011707964205e-03 1.0354441037030818e-01 0.0000000000000000e+00  -8.4838314588701527e-03 1.0852561999560612e-01 0.0000000000000000e+00  -1.1231460898812716e-02 1.0789546502702957e-01 0.0000000000000000e+00  -1.4118905851863889e-02 1.0322026887466051e-01 0.0000000000000000e+00  -1.7092060455007205e-02 9.5761200353577575e-02 0.0000000000000000e+00  -2.0088747618216173e-02 8.6441674967124849e-02 0.0000000000000000e+00  -2.3032783439776029e-02 7.5886016843842455e-02 0.0000000000000000e+00  -2.5833796000150070e-02 6.4489863276089215e-02 0.0000000000000000e+00  -2.8393791150565756e-02 5.2495046215850535e-02 0.0000000000000000e+00  -3.0617445109782856e-02 4.0051352970620659e-02 0.0000000000000000e+00  -3.2433694186618747e-02 2.7257481641908457e-02 0.0000000000000000e+00  -3.3784938616996614e-02 1.4161644176503705e-02 0.0000000000000000e+00  -3.4632670351583482e-02 8.7354247286244467e-04 0.0000000000000000e+00  0.0000000000000000e+00 0.0000000000000000e+00 0.0000000000000000e+00  -6.8177945195586106e-04 4.0487241098171201e-02 0.0000000000000000e+00  -2.4866542611214275e-03 7.2037759480228822e-02 0.0000000000000000e+00  -5.0992106158450389e-03 9.3758574042871079e-02 0.0000000000000000e+00  -8.2777348839354579e-03 1.0645483323269467e-01 0.0000000000000000e+00  -1.1861327569787391e-02 1.1170698499203638e-01 0.0000000000000000e+00  -1.5742677674571399e-02 1.1126616428812783e-01 0.0000000000000000e+00  -1.9839552638680816e-02 1.0671130007647980e-01 0.0000000000000000e+00  -2.4070788409886423e-02 9.9298087858351619e-02 0.0000000000000000e+00  -2.8340297539199366e-02 8.9933458411191783e-02 0.0000000000000000e+00  -3.2529606838874764e-02 7.9221670452760865e-02 0.0000000000000000e+00  -3.6498602717533947e-02 6.7542704552371297e-02 0.0000000000000000e+00  -4.0095651527396796e-02 5.5135935535430468e-02 0.0000000000000000e+00  -4.3176050535105877e-02 4.2170720170776672e-02 0.0000000000000000e+00  -4.5631257499400633e-02 2.8788270299077986e-02 0.0000000000000000e+00  -4.7400806236354877e-02 1.5102127052618104e-02 0.0000000000000000e+00  -4.8535797836213264e-02 1.1236720111590008e-03 0.0000000000000000e+00  0.0000000000000000e+00 0.0000000000000000e+00 0.0000000000000000e+00  -8.9744358732913947e-04 4.2000273609987829e-02 0.0000000000000000e+00  -3.2637631765463681e-03 7.4653518366659330e-02 0.0000000000000000e+00  -6.6908741378662699e-03 9.7151547130482893e-02 0.0000000000000000e+00  -1.0883274915561432e-02 1.1040042619834414e-01 0.0000000000000000e+00  -1.5647870583469892e-02 1.1605804764620313e-01 0.0000000000000000e+00  -2.0853898200564262e-02 1.1591768459438735e-01 0.0000000000000000e+00  -2.6394490592160008e-02 1.1156837796089551e-01 0.0000000000000000e+00  -3.2156005154040809e-02 1.0425264741468872e-01 0.0000000000000000e+00  -3.7998526483542149e-02 9.4850702852149943e-02 0.0000000000000000e+00  -4.3746666815689166e-02 8.3936179312340167e-02 0.0000000000000000e+00  -4.9190211000272932e-02 7.1864519228948445e-02 0.0000000000000000e+00  -5.4096775777104152e-02 5.8868094937471478e-02 0.0000000000000000e+00  -5.8237063751393599e-02 4.5139739031574033e-02 0.0000000000000000e+00  -6.1433885795169507e-02 3.0885330668462840e-02 0.0000000000000000e+00  -6.3607518001016675e-02 1.6316553414932364e-02 0.0000000000000000e+00  -6.4893612928117322e-02 1.5028529937517457e-03 0.0000000000000000e+00  0.0000000000000000e+00 0.0000000000000000e+00 0.0000000000000000e+00  -1.1123307321596768e-03 4.3918928946407219e-02 0.0000000000000000e+00  -4.0406307800586409e-03 7.7967319467555127e-02 0.0000000000000000e+00  -8.2955829046436665e-03 1.0147377991178225e-01 0.0000000000000000e+00  -1.3545616756345800e-02 1.1547560229719717e-01 0.0000000000000000e+00  -1.9581079954353736e-02 1.2172019719659244e-01 0.0000000000000000e+00  -2.6256690424877882e-02 1.2204218073168310e-01 0.0000000000000000e+00  -3.3442156837303144e-02 1.1803194416974495e-01 0.0000000000000000e+00  -4.0986256853019577e-02 1.1090600002490296e-01 0.0000000000000000e+00  -4.8695091538701898e-02 1.0150330541376310e-01 0.0000000000000000e+00  -5.6321700547796047e-02 9.0351169476754423e-02 0.0000000000000000e+00  -6.3565041308909359e-02 7.7763690275919478e-02 0.0000000000000000e+00  -7.0080985054367897e-02 6.3951719308950286e-02 0.0000000000000000e+00  -7.5511999662016854e-02 4.9128203373050357e-02 0.0000000000000000e+00  -7.9559106230289459e-02 3.3584433610605528e-02 0.0000000000000000e+00  -8.2069338794919247e-02 1.7700602705664484e-02 0.0000000000000000e+00  -8.3249379031387835e-02 1.7154335589600260e-03 0.0000000000000000e+00  0.0000000000000000e+00 0.0000000000000000e+00 0.0000000000000000e+00  -1.3034867313576649e-03 4.6220496020706436e-02 0.0000000000000000e+00  -4.7381522147156982e-03 8.1950082130072710e-02 0.0000000000000000e+00  -9.7637382648431588e-03 1.0671466350808587e-01 0.0000000000000000e+00  -1.6044556329053397e-02 1.2171149149826413e-01 0.0000000000000000e+00  -2.3378113950132996e-02 1.2878174174906187e-01 0.0000000000000000e+00  -3.1616727602494052e-02 1.2979099598128815e-01 0.0000000000000000e+00  -4.0608255084735333e-02 1.2631417324973965e-01 0.0000000000000000e+00  -5.0157945523502626e-02 1.1952360370277409e-01 0.0000000000000000e+00  -6.0007928737307432e-02 1.1019869724589189e-01 0.0000000000000000e+00  -6.9827249002163361e-02 9.8800236122777996e-02 0.0000000000000000e+00  -7.9205948728449466e-02 8.5577579584535379e-02 0.0000000000000000e+00  -8.7658075199251909e-02 7.0693414648563366e-02 0.0000000000000000e+00  -9.4646635206378518e-02 5.4355527359833865e-02 0.0000000000000000e+00  -9.9667115421409852e-02 3.6943896419534772e-02 0.0000000000000000e+00  -1.0238699031638371e-01 1.9085162419739028e-02 0.0000000000000000e+00  -1.0300020503674591e-01 1.3531675292939313e-03 0.0000000000000000e+00  0.0000000000000000e+00 0.0000000000000000e+00 0.0000000000000000e+00  -1.4441721739830535e-03 4.8836934525943891e-02 0.0000000000000000e+00  -5.2646013256715885e-03 8.6502588259412316e-02 0.0000000000000000e+00  -1.0921942014560685e-02 1.1278668300160981e-01 0.0000000000000000e+00  -1.8123887949698759e-02 1.2906678929994148e-01 0.0000000000000000e+00  -2.6706216707818017e-02 1.3726779039332562e-01 0.0000000000000000e+00  -3.6532361743225876e-02 1.3926203940752144e-01 0.0000000000000000e+00  -4.7428035273918451e-02 1.3658240121179818e-01 0.0000000000000000e+00  -5.9146952977135611e-02 1.3033383527029152e-01 0.0000000000000000e+00  -7.1357778831304092e-02 1.2121673043179884e-01 0.0000000000000000e+00  -8.3636585541531291e-02 1.0960655890517487e-01 0.0000000000000000e+00  -9.5456549904700969e-02 9.5660563952978117e-02 0.0000000000000000e+00  -1.0617528147384236e-01 7.9443405110394549e-02 0.0000000000000000e+00  -1.1502577612217366e-01 6.1096681780725838e-02 0.0000000000000000e+00  -1.2118134849259603e-01 4.1062634913116305e-02 0.0000000000000000e+00  -1.2395679476679758e-01 2.0275132780889406e-02 0.0000000000000000e+00  -1.2333301072225090e-01 -1.5431010025074185e-04 0.0000000000000000e+00  0.0000000000000000e+00 0.0000000000000000e+00 0.0000000000000000e+00  -1.5011906287606450e-03 5.1645589801278743e-02 0.0000000000000000e+00  -5.5088500797099036e-03 9.1442678866079583e-02 0.0000000000000000e+00  -1.1562680961736564e-02 1.1951135074034579e-01 0.0000000000000000e+00  -1.9476448700322856e-02 1.3741159803262701e-01 0.0000000000000000e+00  -2.9159766822363074e-02 1.4711961736935625e-01 0.0000000000000000e+00  -4.0498648052627630e-02 1.5047205478206421e-01 0.0000000000000000e+00  -5.3291877235875557e-02 1.4892204577042506e-01 0.0000000000000000e+00  -6.7230117773967313e-02 1.4348062563023323e-01 0.0000000000000000e+00  -8.1897584077265093e-02 1.3475407889827645e-01 0.0000000000000000e+00  -9.6774632257432658e-02 1.2302074195219120e-01 0.0000000000000000e+00  -1.1123255050390828e-01 1.0831783549505486e-01 0.0000000000000000e+00  -1.2448217920852694e-01 9.0559752602094909e-02 0.0000000000000000e+00  -1.3550370593993072e-01 6.9738048980095821e-02 0.0000000000000000e+00  -1.4304669319497287e-01 4.6214495155891849e-02 0.0000000000000000e+00  -1.4581219831826131e-01 2.1154732439221596e-02 0.0000000000000000e+00  -1.4317610357722979e-01 -3.4752525777788212e-03 0.0000000000000000e+00  0.0000000000000000e+00 0.0000000000000000e+00 0.0000000000000000e+00  -1.4349843863574760e-03 5.4457849851213887e-02 0.0000000000000000e+00  -5.3427286855204361e-03 9.6491903798961901e-02 0.0000000000000000e+00  -1.1450225464647027e-02 1.2660430072042494e-01 0.0000000000000000e+00  -1.9750820480704413e-02 1.4650701541093630e-01 0.0000000000000000e+00  -3.0261680273298407e-02 1.5816418946687663e-01 0.0000000000000000e+00  -4.2896201187116678e-02 1.6331265675757856e-01 0.0000000000000000e+00  -5.7414917403904385e-02 1.6327718514838774e-01 0.0000000000000000e+00  -7.3428700670378391e-02 1.5894756475490021e-01 0.0000000000000000e+00  -9.0424173752196343e-02 1.5082851250040052e-01 0.0000000000000000e+00  -1.0779284863522191e-01 1.3910470074699535e-01 0.0000000000000000e+00  -1.2483168461598472e-01 1.2370129542488352e-01 0.0000000000000000e+00  -1.4065560042989858e-01 1.0435639438893211e-01 0.0000000000000000e+00  -1.5410541759396421e-01 8.0719223725422853e-02 0.0000000000000000e+00  -1.6345746237644168e-01 5.2743028590746283e-02 0.0000000000000000e+00  -1.6641066068731142e-01 2.1696571975307437e-02 0.0000000000000000e+00  -1.6100941598346849e-01 -9.1983059570605753e-03 0.0000000000000000e+00  0.0000000000000000e+00 0.0000000000000000e+00 0.0000000000000000e+00  -1.2052502267183170e-03 5.7013240725411495e-02 0.0000000000000000e+00  -4.6416478068675611e-03 1.0127199703840752e-01 0.0000000000000000e+00  -1.0358060126293476e-02 1.3366863181358696e-01 0.0000000000000000e+00  -1.8598850599136803e-02 1.5598607413181537e-01 0.0000000000000000e+00  -2.9510068386749227e-02 1.7007592364337767e-01 0.0000000000000000e+00  -4.3026309722914068e-02 1.7749020287456876e-01 0.0000000000000000e+00  -5.8852522903835164e-02 1.7936865793541751e-01 0.0000000000000000e+00  -7.6500781858526504e-02 1.7645336716192328e-01 0.0000000000000000e+00  -9.5348808323086509e-02 1.6914906791952880e-01 0.0000000000000000e+00  -1.1470128926527055e-01 1.5757919973202361e-01 0.0000000000000000e+00  -1.3380332441097154e-01 1.4160856327114260e-01 0.0000000000000000e+00  -1.5182756559416627e-01 1.2078532056843282e-01 0.0000000000000000e+00  -1.6769804767952151e-01 9.4327172503950271e-02 0.0000000000000000e+00  -1.7926613716730644e-01 6.1617429333316855e-02 0.0000000000000000e+00  -1.8328894512478189e-01 2.3194619404888463e-02 0.0000000000000000e+00  -1.7530189922770181e-01 -1.7310803311252423e-02 0.0000000000000000e+00  0.0000000000000000e+00 0.0000000000000000e+00 0.0000000000000000e+00  -7.8734557286661651e-04 5.8992532092816505e-02 0.0000000000000000e+00  -3.3376034386119208e-03 1.0532910853710110e-01 0.0000000000000000e+00  -8.1582852986788364e-03 1.4021036298188411e-01 0.0000000000000000e+00  -1.5786847444483453e-02 1.6534331272619035e-01 0.0000000000000000e+00  -2.6493001547673797e-02 1.8233277120289149e-01 0.0000000000000000e+00  -4.0214239483078791e-02 1.9244927684667804e-01 0.0000000000000000e+00  -5.6584142070522196e-02 1.9659049101286177e-01 0.0000000000000000e+00  -7.5007560685535421e-02 1.9532735271687063e-01 0.0000000000000000e+00  -9.4749842812992743e-02 1.8897246464608511e-01 0.0000000000000000e+00  -1.1501896177593289e-01 1.7763182438731720e-01 0.0000000000000000e+00  -1.3504079830458976e-01 1.6118978840933892e-01 0.0000000000000000e+00  -1.5416154267861104e-01 1.3919692484472493e-01 0.0000000000000000e+00  -1.7151369799210664e-01 1.1072243363958673e-01 0.0000000000000000e+00  -1.8559672042409203e-01 7.3774486553241675e-02 0.0000000000000000e+00  -1.9292664023641878e-01 2.5933234932030560e-02 0.0000000000000000e+00  -1.8497062477562110e-01 -2.6209438979821070e-02 0.0000000000000000e+00  0.0000000000000000e+00 0.0000000000000000e+00 0.0000000000000000e+00  -2.0805360074085041e-04 6.0076198299244175e-02 0.0000000000000000e+00  -1.5237963873040172e-03 1.0821365448195676e-01 0.0000000000000000e+00  -4.9854795559151101e-03 1.4569349275095106e-01 0.0000000000000000e+00  -1.1391368543931668e-02 1.7394074139501234e-01 0.0000000000000000e+00  -2.1090584871352545e-02 1.9416839704860639e-01 0.0000000000000000e+00  -3.3999763290078595e-02 2.0727925581200846e-01 0.0000000000000000e+00  -4.9684968017193173e-02 2.1388645145303226e-01 0.0000000000000000e+00  -6.7469003583945253e-02 2.1437470142888485e-01 0.0000000000000000e+00  -8.6532767681211209e-02 2.0896746145951303e-01 0.0000000000000000e+00  -1.0600600627347456e-01 1.9777585191510011e-01 0.0000000000000000e+00  -1.2509424041202111e-01 1.8079800603261106e-01 0.0000000000000000e+00  -1.4316215534856255e-01 1.5783410907670611e-01 0.0000000000000000e+00  -1.5979684171950975e-01 1.2799006993282488e-01 0.0000000000000000e+00  -1.7556164847140085e-01 8.8649349975088790e-02 0.0000000000000000e+00  -1.8757334943080220e-01 3.4828095591134686e-02 0.0000000000000000e+00  -1.8022730459106323e-01 -3.0918771312171345e-02 0.0000000000000000e+00  0.0000000000000000e+00 0.0000000000000000e+00 0.0000000000000000e+00  3.8709658613989527e-04 6.0088602705578302e-02 0.0000000000000000e+00  3.7218271899765951e-04 1.0963882298257077e-01 0.0000000000000000e+00  -1.4815611566854380e-03 1.4964164846061218e-01 0.0000000000000000e+00  -6.0796698514932060e-03 1.8103012750911937e-01 0.0000000000000000e+00  -1.3765182407388738e-02 2.0451885367804321e-01 0.0000000000000000e+00  -2.4422365708773680e-02 2.2060407195977111e-01 0.0000000000000000e+00  -3.7600521746371705e-02 2.2960976393374222e-01 0.0000000000000000e+00  -5.2630847662355588e-02 2.3173831470009260e-01 0.0000000000000000e+00  -6.8715705438051389e-02 2.2711930686580484e-01 0.0000000000000000e+00  -8.5003297735881472e-02 2.1585217024188547e-01 0.0000000000000000e+00  -1.0066370271485293e-01 1.9804136397043773e-01 0.0000000000000000e+00  -1.1496155874225832e-01 1.7376571087440257e-01 0.0000000000000000e+00  -1.2792057306121435e-01 1.4287540602599641e-01 0.0000000000000000e+00  -1.4049670086056384e-01 1.0477847603189096e-01 0.0000000000000000e+00  -1.5366453044277714e-01 5.5658039444382135e-02 0.0000000000000000e+00  -1.7428507310601771e-01 -1.3217352999745184e-02 0.0000000000000000e+00  0.0000000000000000e+00 0.0000000000000000e+00 0.0000000000000000e+00  6.2832091634071113e-04 5.9251138462190094e-02 0.0000000000000000e+00  1.3871970813661408e-03 1.0973275223463765e-01 0.0000000000000000e+00  9.3967356946131450e-04 1.5180323618965408e-01 0.0000000000000000e+00  -1.4136422086991069e-03 1.8581183593251357e-01 0.0000000000000000e+00  -5.8933755409461327e-03 2.1198970103709544e-01 0.0000000000000000e+00  -1.2382094546131532e-02 2.3048604489166546e-01 0.0000000000000000e+00  -2.0540927326486661e-02 2.4139488936748454e-01 0.0000000000000000e+00  -2.9894061074786558e-02 2.4477518135222678e-01 0.0000000000000000e+00  -3.9883411138968559e-02 2.4066925394701916e-01 0.0000000000000000e+00  -4.9901227043776156e-02 2.2912419026450254e-01 0.0000000000000000e+00  -5.9289905641936896e-02 2.1021917069193827e-01 0.0000000000000000e+00  -6.7413452526126641e-02 1.8407852981799760e-01 0.0000000000000000e+00  -7.3723928182006654e-02 1.5106030469919143e-01 0.0000000000000000e+00  -7.7279854350437049e-02 1.1153241252022832e-01 0.0000000000000000e+00  -8.2180396338188230e-02 6.4971644799683509e-02 0.0000000000000000e+00  -6.8003982572319058e-02 6.6801392097560032e-03 0.0000000000000000e+00  0.0000000000000000e+00 -6.8374258353449982e-18 0.0000000000000000e+00  0.0000000000000000e+00 5.8593750000000000e-02 0.0000000000000000e+00  0.0000000000000000e+00 1.0937500000000001e-01 0.0000000000000000e+00  0.0000000000000000e+00 1.5234375000000000e-01 0.0000000000000000e+00  0.0000000000000000e+00 1.8750000000000000e-01 0.0000000000000000e+00  0.0000000000000000e+00 2.1484375000000000e-01 0.0000000000000000e+00  0.0000000000000000e+00 2.3437500000000000e-01 0.0000000000000000e+00  0.0000000000000000e+00 2.4609375000000000e-01 0.0000000000000000e+00  0.0000000000000000e+00 2.5000