<?xml version="1.0"?>
<VTKFile type="UnstructuredGrid"  version="0.1"  >
<UnstructuredGrid>
<Piece  NumberOfPoints="289" NumberOfCells="512">
<Points>
<DataArray  type="Float64"  NumberOfComponents="3"  format="ascii">0 0 0  0.0625 0 0  0.125 0 0  0.1875 0 0  0.25 0 0  0.3125 0 0  0.375 0 0  0.4375 0 0  0.5 0 0  0.5625 0 0  0.625 0 0  0.6875 0 0  0.75 0 0  0.8125 0 0  0.875 0 0  0.9375 0 0  1 0 0  0 0.0625 0  0.06256334001660917 0.06246517728773043 0  0.1251296778226192 0.06242969897303602 0  0.1877022114799971 0.06239294360535415 0  0.2502845431118861 0.06235440310984823 0  0.3128809334716542 0.06231375537909338 0  0.3754966320958673 0.06227095391750327 0  0.4381383404646062 0.06222633307400419 0  0.5008149190446973 0.06218071635259868 0  0.5635385755505371 0.06213549314651171 0  0.6263270876669113 0.06209258464812827 0  0.6892084514796309 0.06205412400327199 0  0.752231714183009 0.06202144181860925 0  0.8154948677614858 0.06199227049008316 0  0.8792234138153645 0.06195279060972114 0  0.9440110756196243 0.06185243784848755 0  1.011639919097685 0.06151230573244049 0  0 0.125 0  0.06262367896596309 0.1249309652442844 0  0.1252531955819441 0.1248605590567067 0  0.1878947790165828 0.124787472768134 0  0.2505554527651501 0.1247106114206299 0  0.3132435342177798 0.1246292357388172 0  0.375969277460626 0.1245431443492298 0  0.438745756477317 0.1244528994582229 0  0.501590159412172 0.1243600823623226 0  0.5645258202995472 0.1242675316792797 0  0.6275856501072249 0.1241794555421998 0  0.6908183472724935 0.1241012055638746 0  0.7543002274738019 0.1240383585950571 0  0.8181579977340604 0.123994703368841 0  0.8826094444853758 0.1239695974721571 0  0.948014265781317 0.1239612257032346 0  1.01481094567227 0.1240142204199686 0  0 0.1875 0  0.06267820634833098 0.1873980997785252 0  0.1253647465798697 0.1872940051050032 0  0.1880685080771601 0.1871856010215179 0  0.2507995088417874 0.1870710576521157 0  0.313569604089782 0.186949031432992 0  0.3763933830567693 0.1868189386627842 0  0.439289364404957 0.1866813191186047 0  0.5022816516901067 0.186538292735489 0  0.5654022983878436 0.1863940793301515 0  0.6286947643592838 0.1862554864099434 0  0.6922189833319359 0.1861321547661886 0  0.7560584321190995 0.1860361631145988 0  0.8203280677844578 0.1859802862645323 0  0.8851753587590626 0.185973518500095 0  0.9507453939730679 0.1860096755840067 0  1.017033446233347 0.186029619926781 0  0 0.25 0  0.06272447055338623 0.2498674212988511 0  0.1254592666944068 0.2497316861337174 0  0.1882153840834844 0.2495897148023852 0  0.2510051996105869 0.2494387354302814 0  0.3138433307438895 0.249276522454183 0  0.3767477155395484 0.2491017464384073 0  0.4397410186353366 0.2489144780756351 0  0.5028524887395618 0.2487168861796742 0  0.566120395426347 0.248514151301106 0  0.629595102315702 0.2483155665235529 0  0.6933425359188788 0.2481356867025537 0  0.7574468855611697 0.2479951706569528 0  0.8220089034637371 0.2479205610386767 0  0.8871305454550668 0.2479415448383888 0  0.9528670741874435 0.2480832637618569 0  1.019123192458068 0.2483522875152195 0  0 0.3125 0  0.06276052383396538 0.312339903762843 0  0.1255327396250612 0.3121755428556425 0  0.1883290693289647 0.3120026991274705 0  0.2511634579643562 0.3118174146239035 0  0.3140523233620172 0.3116162287356822 0  0.3770157519814792 0.3113965650193817 0  0.4400790509896743 0.3111573431886333 0  0.503274772763686 0.3108999108585931 0  0.5666452918744592 0.3106294040950273 0  0.6302458626451133 0.3103566380054604 0  0.6941476623444419 0.3101005599174068 0  0.7584393472285955 0.3098910924025494 0  0.8232237354496958 0.3097717238925896 0  0.8886033748200578 0.309800319266229 0  0.9546472432119506 0.3100453506732047 0  1.021340011416548 0.3105738062695784 0  0 0.375 0  0.06278502585295694 0.3748166589981991 0  0.1255824154163141 0.3746278261539659 0  0.1884052586884363 0.3744279918252852 0  0.251268184238796 0.374211769444617 0  0.3141883288645131 0.3739740743217721 0  0.3771865788212537 0.3737104767012599 0  0.4402892187832457 0.3734178370972804 0  0.5035301519314955 0.3730953819984403 0  0.5669538543736417 0.3727464445705322 0  0.6306191387500963 0.3723811674593806 0  0.6946035066327947 0.372020502641929 0  0.759007188529439 0.3717017375577766 0  0.8239547884030268 0.3714852973682499 0  0.8895912335495698 0.3714613715690754 0  0.9560698665237356 0.37175280653144 0  1.023540136556506 0.3725084764861073 0  0 0.4375 0  0.06279729941050412 0.4372989070431148 0  0.1256069299425918 0.4370910457245106 0  0.1884418788385771 0.4368695292710418 0  0.2513165484354676 0.4366273582969104 0  0.3142476622410274 0.4363574695746545 0  0.3772554584537439 0.4360529534278327 0  0.440365349628094 0.4357075675722484 0  0.5036103113950373 0.4353167588045194 0  0.56703437361972 0.4348795366800674 0  0.630697700737767 0.4344017387894604 0  0.6946837908009778 0.4339014730880648 0  0.7591091425671228 0.4334177117583146 0  0.824135159860946 0.433022791791957 0  0.8899813026445417 0.4328381772436307 0  0.9569395280593114 0.4330493390495285 0  1.025399138763148 0.4339108499464939 0  0 0.5 0  0.06279733472164002 0.4997879053432265 0  0.1256063177834356 0.4995678312260742 0  0.1884391202151183 0.4993315480963657 0  0.2513090632331811 0.4990703889984231 0  0.3142313627928641 0.4987750934010056 0  0.3772241434964145 0.4984357687283009 0  0.4403099363860418 0.4980420886807527 0  0.5035180358060291 0.4975839537982455 0  0.5668883670083534 0.4970530330677094 0  0.6304779604588235 0.496445946388451 0  0.6943717619668239 0.495770413740653 0  0.758700209174207 0.4950565119920259 0  0.8236663213097338 0.494375932767776 0  0.8895842594519651 0.4938714332053633 0  0.9569303203498408 0.4937931933827066 0  1.026415568847946 0.4945256732777241 0  0 0.5625 0  0.06278574049270153 0.5622848348848464 0  0.1255819127406206 0.5620606984953704 0  0.1883992871691777 0.5618182215503834 0  0.2512493963711067 0.5615472181566863 0  0.3141450160526991 0.5612362659201408 0  0.3771008341607752 0.5608723013136641 0  0.4401345148707478 0.5604402985401193 0  0.5032685858735493 0.5599231998159004 0  0.5665340237410565 0.5593024749897323 0  0.6299772701491214 0.5585601278730643 0  0.6936739425262696 0.5576838722973019 0  0.757754882859441 0.5566789832701119 0  0.8224528814391964 0.5555933969446887 0  0.8881788329972401 0.5545659317506129 0  0.9556303149605221 0.5539035697666491 0  1.025932679349836 0.5541673459577087 0  0 0.625 0  0.06276364311735866 0.6247906498726991 0  0.1255361349405597 0.6245717315032951 0  0.1883264533684096 0.6243331388014354 0  0.2511438768352229 0.6240635764068767 0  0.3139981215613774 0.6237498574186611 0  0.3768995068032372 0.6233760731061593 0  0.4398592666880897 0.6229226080781836 0  0.5028903429413416 0.622365022612179 0  0.5660095109566728 0.6216729617856304 0  0.6292428802984598 0.6208096228558893 0  0.6926393904655848 0.6197332954186245 0  0.7563020613100163 0.618405064559802 0  0.8204553566017029 0.616813283684128 0  0.8855753147314775 0.6150396243530719 0  0.9525985014271892 0.6134058505708244 0  1.023196477541357 0.6126876944682812 0  0 0.6875 0  0.06273254149709165 0.6873059082553858 0  0.1254721765414677 0.6871022147794728 0  0.1882259297743218 0.6868786785042422 0  0.2510006735452595 0.6866235822535457 0  0.3138029005389164 0.6863227904294515 0  0.3766383035284203 0.6859585262242033 0  0.4395111015479096 0.6855077225697864 0  0.5024231456457612 0.6849397575922924 0  0.5653731921953933 0.684213351092727 0  0.6283578301740377 0.6832724503932512 0  0.6913786317196947 0.6820413659236194 0  0.7544681399971603 0.6804213430245772 0  0.817766467946632 0.6782984214731329 0  0.8817167829187079 0.6756016286250632 0  0.9474541492264598 0.6725454550021904 0  1.017305400088243 0.6702037812738405 0  0 0.75 0  0.06269413456293763 0.7498306107180052 0  0.1253936210137697 0.7496522755705366 0  0.1881035970176618 0.7494553755939578 0  0.2508287043552638 0.749228694480038 0  0.3135725670928093 0.748958346855767 0  0.3763368593416165 0.7486263111016592 0  0.4391196747625813 0.7482083179132222 0  0.5019127678100906 0.7476707065324517 0  0.5646971202035626 0.7469656220491543 0  0.6274365169223094 0.7460235149519867 0  0.6900706114016681 0.74474120939344 0  0.7525164827383461 0.7429628726216574 0  0.8147144727741272 0.7404517824855339 0  0.8768426635623642 0.7368668616051324 0  0.9400801180171853 0.7318931067209823 0  1.007444637286285 0.7266997377847442 0  0 0.8125 0  0.06265014916350219 0.8123640821138917 0  0.1253040584106269 0.8122206116494505 0  0.1879652137089921 0.8120614167381325 0  0.2506364562899502 0.8118768291358818 0  0.3133193300082224 0.811654647347839 0  0.3760128981085407 0.8113786708262902 0  0.4387115700593376 0.8110265146092518 0  0.5014010877479319 0.8105662272833332 0  0.5640510865667114 0.8099508920646475 0  0.6266013615260725 0.8091097179249347 0  0.6889371406678713 0.8079326654791281 0  0.7508480947691121 0.8062420852081905 0  0.8119773655978978 0.8037355214396145 0  0.8718440157536828 0.799860973971087 0  0.9304596297864954 0.7935558298615393 0  0.9940375051335025 0.7830861782538241 0  0 0.875 0  0.06260220262760714 0.8749049281842085 0  0.1252067783155338 0.8748043805909994 0  0.1878158606788782 0.8746924064687491 0  0.2504310151000331 0.8745618941059645 0  0.3130526669632444 0.8744037503365959 0  0.3756790495827373 0.8742057193758123 0  0.4383042098231638 0.8739505910466689 0  0.5009141305737476 0.873613389304791 0  0.5634789709874433 0.873156857709299 0  0.6259370322012857 0.8725240786875155 0  0.6881605976840339 0.8716261295952338 0  0.7498816629679986 0.8703202130576281 0  0.810531243975933 0.8683640857941921 0  0.868911065292466 0.8652880068349543 0  0.9226271898641584 0.859930417729714 0  0.9674994839586568 0.8487286629199295 0  0 0.9375 0  0.06255173123787872 0.9374510899909492 0  0.1251046173764926 0.9373993042121509 0  0.1876596809859276 0.9373415097395192 0  0.2502176296722547 0.9372739409785477 0  0.3127785404316385 0.9371917478920321 0  0.3753412755312913 0.9370883398613131 0  0.4379023592660212 0.93695438354976
[...]
<PointData  Vectors="f_95-0"> 
<DataArray  type="Float64"  Name="f_95-0"  NumberOfComponents="3" format="ascii">0.0000000000000000e+00 0.0000000000000000e+00 0.0000000000000000e+00  -2.6995750808972609e-04 3.8180964417734074e-02 0.0000000000000000e+00  -7.8994549188458234e-04 6.8228714975799146e-02 0.0000000000000000e+00  -1.4557466913937063e-03 8.8876276088651243e-02 0.0000000000000000e+00  -2.2594332212269399e-03 1.0080176021064248e-01 0.0000000000000000e+00  -3.1731673986764757e-03 1.0548952412114365e-01 0.0000000000000000e+00  -4.1757644385970209e-03 1.0463361005929223e-01 0.0000000000000000e+00  -5.2508483370596760e-03 9.9796142771969826e-02 0.0000000000000000e+00  -6.3846474198349440e-03 9.2251326787242183e-02 0.0000000000000000e+00  -7.5624851219483775e-03 8.2949847520667017e-02 0.0000000000000000e+00  -8.7653089343491444e-03 7.2553107115396046e-02 0.0000000000000000e+00  -9.9658043588672640e-03 6.1499244787240885e-02 0.0000000000000000e+00  -1.1126913791802346e-02 5.0078617787581464e-02 0.0000000000000000e+00  -1.2181455000635099e-02 3.8486943454088679e-02 0.0000000000000000e+00  -1.3015855969658702e-02 2.6908638520114513e-02 0.0000000000000000e+00  -1.3695758886159480e-02 1.5714693850740785e-02 0.0000000000000000e+00  -7.2545075730666379e-03 7.7332669785254065e-03 0.0000000000000000e+00  0.0000000000000000e+00 0.0000000000000000e+00 0.0000000000000000e+00  -2.6213094425160048e-04 3.8678245505780695e-02 0.0000000000000000e+00  -8.7218143637416703e-04 6.8921471913502105e-02 0.0000000000000000e+00  -1.6935546640959162e-03 8.9721880438564411e-02 0.0000000000000000e+00  -2.6830881467651991e-03 1.0175610498843903e-01 0.0000000000000000e+00  -3.7996232524010513e-03 1.0651691506847014e-01 0.0000000000000000e+00  -5.0160137925516698e-03 1.0570695056143829e-01 0.0000000000000000e+00  -6.3114186945605420e-03 1.0089397435793919e-01 0.0000000000000000e+00  -7.6680317814547079e-03 9.3352754830851328e-02 0.0000000000000000e+00  -9.0663097453384332e-03 8.4029251431770646e-02 0.0000000000000000e+00  -1.0481211624484055e-02 7.3575231340718444e-02 0.0000000000000000e+00  -1.1879731352211733e-02 6.2414354648730491e-02 0.0000000000000000e+00  -1.3218511200872472e-02 5.0811559564154465e-02 0.0000000000000000e+00  -1.4433799885720286e-02 3.8927638007679864e-02 0.0000000000000000e+00  -1.5484605745163565e-02 2.6850419808984661e-02 0.0000000000000000e+00  -1.6041219993038466e-02 1.4502706580166752e-02 0.0000000000000000e+00  -1.6740048738478026e-02 3.3119632935929544e-03 0.0000000000000000e+00  0.0000000000000000e+00 0.0000000000000000e+00 0.0000000000000000e+00  -3.2847908843229850e-04 3.9250404211871405e-02 0.0000000000000000e+00  -1.1914632752808817e-03 6.9856745344147750e-02 0.0000000000000000e+00  -2.4215431890573531e-03 9.0895455418643870e-02 0.0000000000000000e+00  -3.9090539453958311e-03 1.0308808775829623e-01 0.0000000000000000e+00  -5.5792682571610894e-03 1.0795182091077012e-01 0.0000000000000000e+00  -7.3850221568370310e-03 1.0720586029526112e-01 0.0000000000000000e+00  -9.2917253140526769e-03 1.0242652182978951e-01 0.0000000000000000e+00  -1.1268728957332497e-02 9.4888788291115272e-02 0.0000000000000000e+00  -1.3281323664283215e-02 8.5532088799375974e-02 0.0000000000000000e+00  -1.5286385002765582e-02 7.4997263348063545e-02 0.0000000000000000e+00  -1.7231361093473785e-02 6.3694844187049376e-02 0.0000000000000000e+00  -1.9056827268298118e-02 5.1876406460790975e-02 0.0000000000000000e+00  -2.0703957564467471e-02 3.9690008905727228e-02 0.0000000000000000e+00  -2.2112998667398687e-02 2.7208071623922997e-02 0.0000000000000000e+00  -2.3207628340459523e-02 1.4428271658782955e-02 0.0000000000000000e+00  -2.3930400662297496e-02 1.5755912455946426e-03 0.0000000000000000e+00  0.0000000000000000e+00 0.0000000000000000e+00 0.0000000000000000e+00  -4.7573854440676985e-04 4.0039504717803584e-02 0.0000000000000000e+00  -1.7402188186220872e-03 7.1215239044203515e-02 0.0000000000000000e+00  -3.5703130695059443e-03 9.2634482711424881e-02 0.0000000000000000e+00  -5.7917299095152702e-03 1.0507750268727865e-01 0.0000000000000000e+00  -8.2889507885624235e-03 1.1010620435903605e-01 0.0000000000000000e+00  -1.0987087910946556e-02 1.0946753492965612e-01 0.0000000000000000e+00  -1.3831124974553480e-02 1.0474915705289124e-01 0.0000000000000000e+00  -1.6769522759856367e-02 9.7224189488919047e-02 0.0000000000000000e+00  -1.9742186655485130e-02 8.7821404557983235e-02 0.0000000000000000e+00  -2.2674811656875016e-02 7.7167348111579617e-02 0.0000000000000000e+00  -2.5479448198398282e-02 6.5660464710514052e-02 0.0000000000000000e+00  -2.8062739142757656e-02 5.3549148747432739e-02 0.0000000000000000e+00  -3.0338202589108867e-02 4.0994247012367681e-02 0.0000000000000000e+00  -3.2246891259298978e-02 2.8102658716868682e-02 0.0000000000000000e+00  -3.3749592464788626e-02 1.4898050798821373e-02 0.0000000000000000e+00  -3.4861507450729926e-02 1.4291970799716737e-03 0.0000000000000000e+00  0.0000000000000000e+00 0.0000000000000000e+00 0.0000000000000000e+00  -6.7012142513232103e-04 4.1153846217314972e-02 0.0000000000000000e+00  -2.4432373360073222e-03 7.3142511526750761e-02 0.0000000000000000e+00  -5.0105580998515750e-03 9.5120118327178607e-02 0.0000000000000000e+00  -8.1373127369108681e-03 1.0794229784988676e-01 0.0000000000000000e+00  -1.1668593627469101e-02 1.1323307916573484e-01 0.0000000000000000e+00  -1.5501893701216334e-02 1.1277610280686222e-01 0.0000000000000000e+00  -1.9558580576167318e-02 1.0817123331105598e-01 0.0000000000000000e+00  -2.3759708248252704e-02 1.0068509616049071e-01 0.0000000000000000e+00  -2.8009718651778977e-02 9.1228435135233668e-02 0.0000000000000000e+00  -3.2188829921385137e-02 8.0406202089219669e-02 0.0000000000000000e+00  -3.6154308692874122e-02 6.8601020924885653e-02 0.0000000000000000e+00  -3.9753139906785903e-02 5.6062322292868054e-02 0.0000000000000000e+00  -4.2845270681449270e-02 4.2980073891559362e-02 0.0000000000000000e+00  -4.5344859391213924e-02 2.9521543691866211e-02 0.0000000000000000e+00  -4.7246320326658681e-02 1.5809017058104519e-02 0.0000000000000000e+00  -4.8724782034225679e-02 1.8293585956588865e-03 0.0000000000000000e+00  0.0000000000000000e+00 0.0000000000000000e+00 0.0000000000000000e+00  -8.8570383456911992e-04 4.2651986263607396e-02 0.0000000000000000e+00  -3.2198206576984400e-03 7.5728845977651824e-02 0.0000000000000000e+00  -6.6008343606305435e-03 9.8471307039911526e-02 0.0000000000000000e+00  -1.0740813493623456e-02 1.1183662093965147e-01 0.0000000000000000e+00  -1.5453663174405576e-02 1.1752629494374105e-01 0.0000000000000000e+00  -2.0614440574133138e-02 1.1736562718816632e-01 0.0000000000000000e+00  -2.6120534550766784e-02 1.1296343024780345e-01 0.0000000000000000e+00  -3.1860408122269208e-02 1.0557102888616507e-01 0.0000000000000000e+00  -3.7693156655725188e-02 9.6069233942950513e-02 0.0000000000000000e+00  -4.3438189447362066e-02 8.5028691603979578e-02 0.0000000000000000e+00  -4.8875593659505841e-02 7.2805340495774723e-02 0.0000000000000000e+00  -5.3762001071827492e-02 5.9644669800943829e-02 0.0000000000000000e+00  -5.7864556454824988e-02 4.5774444162732082e-02 0.0000000000000000e+00  -6.1032424743453918e-02 3.1460525978402896e-02 0.0000000000000000e+00  -6.3269103079698061e-02 1.6984989447993704e-02 0.0000000000000000e+00  -6.4909829900653929e-02 2.4327285757494745e-03 0.0000000000000000e+00  0.0000000000000000e+00 0.0000000000000000e+00 0.0000000000000000e+00  -1.0994751893501386e-03 4.4550856444459726e-02 0.0000000000000000e+00  -3.9930318581641909e-03 7.9005429272116484e-02 0.0000000000000000e+00  -8.1989767060003122e-03 1.0274321728118038e-01 0.0000000000000000e+00  -1.3394457919555172e-02 1.1685333865531350e-01 0.0000000000000000e+00  -1.9378004494081384e-02 1.2312658989947940e-01 0.0000000000000000e+00  -2.6011307143840607e-02 1.2342872046639054e-01 0.0000000000000000e+00  -3.3169304132823492e-02 1.1936812605711108e-01 0.0000000000000000e+00  -4.0703326035862859e-02 1.1216693289497447e-01 0.0000000000000000e+00  -4.8417461204462164e-02 1.0265962295691666e-01 0.0000000000000000e+00  -5.6055443021667394e-02 9.1363771080062453e-02 0.0000000000000000e+00  -6.3297619291363683e-02 7.8587186430579575e-02 0.0000000000000000e+00  -6.9773555118142885e-02 6.4552692954047433e-02 0.0000000000000000e+00  -7.5102279166206015e-02 4.9524566044448132e-02 0.0000000000000000e+00  -7.8998315684613574e-02 3.3902066546874957e-02 0.0000000000000000e+00  -8.1404191976588922e-02 1.8223876528630195e-02 0.0000000000000000e+00  -8.2812287125966638e-02 2.8376864906778081e-03 0.0000000000000000e+00  0.0000000000000000e+00 0.0000000000000000e+00 0.0000000000000000e+00  -1.2882811849400356e-03 4.6825375306051804e-02 0.0000000000000000e+00  -4.6829938627044919e-03 8.2940051100088605e-02 0.0000000000000000e+00  -9.6536633961479094e-03 1.0792227621439869e-01 0.0000000000000000e+00  -1.5874983396733506e-02 1.2302113243163613e-01 0.0000000000000000e+00  -2.3153945758162302e-02 1.3012044779989290e-01 0.0000000000000000e+00  -3.1351057219696964e-02 1.3111573252008060e-01 0.0000000000000000e+00  -4.0320722166719329e-02 1.2759789841133151e-01 0.0000000000000000e+00  -4.9871978792381894e-02 1.2074117997539890e-01 0.0000000000000000e+00  -5.9745137549193993e-02 1.1131375056532547e-01 0.0000000000000000e+00  -6.9597330569095464e-02 9.9755392557645275e-02 0.0000000000000000e+00  -7.8990169551644937e-02 8.6294868762357355e-02 0.0000000000000000e+00  -8.7388488992950111e-02 7.1097837409714232e-02 0.0000000000000000e+00  -9.4195927679250793e-02 5.4433643535279214e-02 0.0000000000000000e+00  -9.8880594424607560e-02 3.6842303334423253e-02 0.0000000000000000e+00  -1.0118441547197080e-01 1.9236304302014950e-02 0.0000000000000000e+00  -1.0165232661461622e-01 2.4779751111252881e-03 0.0000000000000000e+00  0.0000000000000000e+00 0.0000000000000000e+00 0.0000000000000000e+00  -1.4251983907516857e-03 4.9405006458127843e-02 0.0000000000000000e+00  -5.1973430019734449e-03 8.7430080202996766e-02 0.0000000000000000e+00  -1.0790091509520729e-02 1.1391740825733629e-01 0.0000000000000000e+00  -1.7923500342153464e-02 1.3029514573048120e-01 0.0000000000000000e+00  -2.6443992627049585e-02 1.3852933212390467e-01 0.0000000000000000e+00  -3.6224174356647452e-02 1.4052089320625641e-01 0.0000000000000000e+00  -4.7097665202538212e-02 1.3781707310707439e-01 0.0000000000000000e+00  -5.8824014101560136e-02 1.3152144453114742e-01 0.0000000000000000e+00  -7.1072661090096259e-02 1.2231547276960227e-01 0.0000000000000000e+00  -8.3408446143569459e-02 1.1053888170295817e-01 0.0000000000000000e+00  -9.5267435542574802e-02 9.6305918548170791e-02 0.0000000000000000e+00  -1.0593342945888135e-01 7.9655120676737329e-02 0.0000000000000000e+00  -1.1452554281725615e-01 6.0772100204991311e-02 0.0000000000000000e+00  -1.2009809005631382e-01 4.0313483532799933e-02 0.0000000000000000e+00  -1.2196235379413474e-01 1.9684905026560940e-02 0.0000000000000000e+00  -1.2046602686404134e-01 5.6389124510847742e-04 0.0000000000000000e+00  0.0000000000000000e+00 0.0000000000000000e+00 0.0000000000000000e+00  -1.4770436146597336e-03 5.2164702149790465e-02 0.0000000000000000e+00  -5.4249905391898189e-03 9.2290033414729453e-02 0.0000000000000000e+00  -1.1400616118400392e-02 1.2054629420448680e-01 0.0000000000000000e+00  -1.9231968564635372e-02 1.3854091782694505e-01 0.0000000000000000e+00  -2.8839888722858309e-02 1.4828873902396411e-01 0.0000000000000000e+00  -4.0119743939251086e-02 1.5165363545321581e-01 0.0000000000000000e+00  -5.2878978081810954e-02 1.5010256587740148e-01 0.0000000000000000e+00  -6.6816613163286312e-02 1.4464370416401792e-01 0.0000000000000000e+00  -8.1522551692265369e-02 1.3585884455779371e-01 0.0000000000000000e+00  -9.6471110122123963e-02 1.2397526826596077e-01 0.0000000000000000e+00  -1.1099856219859969e-01 1.0895122392006421e-01 0.0000000000000000e+00  -1.2422573569793501e-01 9.0616455610823085e-02 0.0000000000000000e+00  -1.3493572318977481e-01 6.8965242818585681e-02 0.0000000000000000e+00  -1.4161548788645820e-01 4.4606665411004526e-02 0.0000000000000000e+00  -1.4279595437169335e-01 1.9363992829522971e-02 0.0000000000000000e+00  -1.3814437358021808e-01 -3.8139866603413715e-03 0.0000000000000000e+00  0.0000000000000000e+00 0.0000000000000000e+00 0.0000000000000000e+00  -1.4046749427150441e-03 5.4914093941435232e-02 0.0000000000000000e+00  -5.2391241617043959e-03 9.7238966067289934e-02 0.0000000000000000e+00  -1.1251810292223718e-02 1.2752121047251616e-01 0.0000000000000000e+00  -1.9451702066646967e-02 1.4751463623780939e-01 0.0000000000000000e+00  -2.9866723760050722e-02 1.5921823901274398e-01 0.0000000000000000e+00  -4.2418405546167708e-02 1.6439472779126182e-01 0.0000000000000000e+00  -5.6875221236316324e-02 1.6438360789493309e-01 0.0000000000000000e+00  -7.2857774670322548e-02 1.6007386756476435e-01 0.0000000000000000e+00  -8.9863731172657918e-02 1.5194528747232078e-01 0.0000000000000000e+00  -1.0729138890869298e-01 1.4011881347315777e-01 0.0000000000000000e+00  -1.2442153096329164e-01 1.2440442594210732e-01 0.0000000000000000e+00  -1.4027231604272852e-01 1.0439025961685730e-01 0.0000000000000000e+00  -1.5342775051837282e-01 7.9600671470766785e-02 0.0000000000000000e+00  -1.6174244689709694e-01 5.0079689885747118e-02 0.0000000000000000e+00  -1.6228006130382691e-01 1.8003129155940729e-02 0.0000000000000000e+00  -1.5320822536186238e-01 -1.1468547852358400e-02 0.0000000000000000e+00  0.0000000000000000e+00 0.0000000000000000e+00 0.0000000000000000e+00  -1.1688257021401610e-03 5.7392444683406450e-02 0.0000000000000000e+00  -4.5184667865075740e-03 1.0189810719447723e-01 0.0000000000000000e+00  -1.0123011933291211e-02 1.3444364113571250e-01 0.0000000000000000e+00  -1.8242663968107843e-02 1.5684554962528127e-01 0.0000000000000000e+00  -2.9032513433520410e-02 1.7098508986678435e-01 0.0000000000000000e+00  -4.2432448997437124e-02 1.7843842633728457e-01 0.0000000000000000e+00  -5.8152212262872642e-02 1.8036210835771568e-01 0.0000000000000000e+00  -7.5711558997227188e-02 1.7750313323369110e-01 0.0000000000000000e+00  -9.4502974328224840e-02 1.7024806795923950e-01 0.0000000000000000e+00  -1.1385313785128522e-01 1.5865891506181545e-01 0.0000000000000000e+00  -1.3301702723781730e-01 1.4246691458605515e-01 0.0000000000000000e+00  -1.5111598168609486e-01 1.2096625987946462e-01 0.0000000000000000e+00  -1.6687082176024981e-01 9.3003721658690253e-02 0.0000000000000000e+00  -1.7742942207301829e-01 5.7883221081976091e-02 0.0000000000000000e+00  -1.7814785204444797e-01 1.7315990735822448e-02 0.0000000000000000e+00  -1.6439519872947031e-01 -2.2508772615986036e-02 0.0000000000000000e+00  0.0000000000000000e+00 0.0000000000000000e+00 0.0000000000000000e+00  -7.4669172518359867e-04 5.9282884210224394e-02 0.0000000000000000e+00  -3.2007199167616036e-03 1.0581655855394746e-01 0.0000000000000000e+00  -7.8964133703879891e-03 1.4082144494689783e-01 0.0000000000000000e+00  -1.5385836507293894e-02 1.6602785787624513e-01 0.0000000000000000e+00  -2.5945216529435735e-02 1.8306379331142467e-01 0.0000000000000000e+00  -3.9513416978108222e-02 1.9322112113150036e-01 0.0000000000000000e+00  -5.5723178453160306e-02 1.9741589923385020e-01 0.0000000000000000e+00  -7.3980700081131973e-02 1.9623121660661155e-01 0.0000000000000000e+00  -9.3562746079587103e-02 1.8997597967482438e-01 0.0000000000000000e+00  -1.1370274788114838e-01 1.7871424406492409e-01 0.0000000000000000e+00  -1.3367458548758221e-01 1.6219590472778095e-01 0.0000000000000000e+00  -1.5287231610024868e-01 1.3967579878937444e-01 0.0000000000000000e+00  -1.7028293545561801e-01 1.0979110349185318e-01 0.0000000000000000e+00  -1.8367095073602427e-01 6.9931173294888571e-02 0.0000000000000000e+00  -1.8801341027654439e-01 1.7273672787627089e-02 0.0000000000000000e+00  -1.7284675754200557e-01 -3.5496642404958402e-02 0.0000000000000000e+00  0.0000000000000000e+00 0.0000000000000000e+00 0.0000000000000000e+00  -1.6774658238161044e-04 6.0272073715751009e-02 0.0000000000000000e+00  -1.3870744958519173e-03 1.0855262988822240e-01 0.0000000000000000e+00  -4.7206659636005776e-03 1.4612583358169848e-01 0.0000000000000000e+00  -1.0978936381886793e-02 1.7442962409245641e-01 0.0000000000000000e+00  -2.0515346123489001e-02 1.9469298606576077e-01 0.0000000000000000e+00  -3.3244405536254372e-02 2.0783536742824552e-01 0.0000000000000000e+00  -4.8725109934060699e-02 2.1448701360122543e-01 0.0000000000000000e+00  -6.6271903714440847e-02 2.1504938647364655e-01 0.0000000000000000e+00  -8.5062705458571183e-02 2.0975743360405680e-01 0.0000000000000000e+00  -1.0424357429735401e-01 1.9870944863193357e-01 0.0000000000000000e+00  -1.2309675896245889e-01 1.8182008502573835e-01 0.0000000000000000e+00  -1.4108820721964632e-01 1.5864351615314473e-01 0.0000000000000000e+00  -1.5788997393785961e-01 1.2754392225674718e-01 0.0000000000000000e+00  -1.7383303609363984e-01 8.4472191497664925e-02 0.0000000000000000e+00  -1.8330689715643633e-01 2.3405401113109642e-02 0.0000000000000000e+00  -1.6259743589503767e-01 -4.4793315071547546e-02 0.0000000000000000e+00  0.0000000000000000e+00 0.0000000000000000e+00 0.0000000000000000e+00  4.1938659708275406e-04 6.0195443181749742e-02 0.0000000000000000e+00  4.8599298013581244e-04 1.0983337431220262e-01 0.0000000000000000e+00  -1.2537342351656609e-03 1.4989484479181303e-01 0.0000000000000000e+00  -5.7149101166051640e-03 1.8131816469573736e-01 0.0000000000000000e+00  -1.3244319779422132e-02 2.0482680306965362e-01 0.0000000000000000e+00  -2.3722867595184976e-02 2.2092697712606804e-01 0.0000000000000000e+00  -3.6689271261772925e-02 2.2995422472056684e-01 0.0000000000000000e+00  -5.1457779474738306e-02 2.3212520855891605e-01 0.0000000000000000e+00  -6.7210416831205988e-02 2.2758615381410813e-01 0.0000000000000000e+00  -8.3088283216881373e-02 2.1644920567329196e-01 0.0000000000000000e+00  -9.8291790592278230e-02 1.9880837151233743e-01 0.0000000000000000e+00  -1.1220828153734369e-01 1.7461295799488499e-01 0.0000000000000000e+00  -1.2549905719047785e-01 1.4329849390008509e-01 0.0000000000000000e+00  -1.3974243244033058e-01 1.0356772595547942e-01 0.0000000000000000e+00  -1.5563238192185699e-01 4.9647026317899981e-02 0.0000000000000000e+00  -1.7374265088618651e-01 -2.7245844003059752e-02 0.0000000000000000e+00  0.0000000000000000e+00 0.0000000000000000e+00 0.0000000000000000e+00  6.4338490855086789e-04 5.9288874046534316e-02 0.0000000000000000e+00  1.4505581936584506e-03 1.0980604930543619e-01 0.0000000000000000e+00  1.0781326442345644e-03 1.5190017486459387e-01 0.0000000000000000e+00  -1.1810877466354086e-03 1.8592200189543931e-01 0.0000000000000000e+00  -5.5516560049220969e-03 2.1210538894174999e-01 0.0000000000000000e+00  -1.1914189947335454e-02 2.3060252635339246e-01 0.0000000000000000e+00  -1.9921434982683239e-02 2.4151107765925234e-01 0.0000000000000000e+00  -2.9081502324595832e-02 2.4489527090834520e-01 0.0000000000000000e+00  -3.8812146728200603e-02 2.4080530210276929e-01 0.0000000000000000e+00  -4.8475421136412136e-02 2.2930104182460009e-01 0.0000000000000000e+00  -5.7380591594169750e-02 2.1047563820664833e-01 0.0000000000000000e+00  -6.4968018123303981e-02 1.8445024788385239e-01 0.0000000000000000e+00  -7.0860263492953393e-02 1.5165399476582192e-01 0.0000000000000000e+00  -7.4228770579638212e-02 1.1186925198025360e-01 0.0000000000000000e+00  -8.1580657105581614e-02 6.3073823928879377e-02 0.0000000000000000e+00  -6.3926807476174324e-02 9.1857494676507289e-03 0.0000000000000000e+00  0.0000000000000000e+00 -6.8374258353449982e-18 0.0000000000000000e+00  0.0000000000000000e+00 5.8593750000000000e-02 0.0000000000000000e+00  0.0000000000000000e+00 1.0937500000000000e-01 0.0000000000000000e+00  0.0000000000000000e+00 1.5234375000000000e-01 0.0000000000000000e+00  0.0000000000000000e+00 1.8750000000000000e-01 0.0000000000000000e+00  0.0000000000000000e+00 2.1484375000000000e-01 0.0000000000000000e+00  0.0000000000000000e+00 2.3437500000000000e-01 0.0000000000000000e+00  0.0000000000000000e+00 2.4609375000000000e-01 0.0000000000000000e+00  0.0000000000000000e+00 2.50000