<?xml version="1.0"?>
<VTKFile type="UnstructuredGrid"  version="0.1"  >
<UnstructuredGrid>
<Piece  NumberOfPoints="289" NumberOfCells="512">
<Points>
<DataArray  type="Float64"  NumberOfComponents="3"  format="ascii">0 0 0  0.0625 0 0  0.125 0 0  0.1875 0 0  0.25 0 0  0.3125 0 0  0.375 0 0  0.4375 0 0  0.5 0 0  0.5625 0 0  0.625 0 0  0.6875 0 0  0.75 0 0  0.8125 0 0  0.875 0 0  0.9375 0 0  1 0 0  0 0.0625 0  0.06245673297528522 0.06247785324715548 0  0.1249127052747077 0.06245531871525183 0  0.1873671934988486 0.06243204057348505 0  0.2498196571588023 0.06240774743889103 0  0.3122698694322528 0.06238230699642524 0  0.3747181033142099 0.06235579426026637 0  0.4371654030580045 0.06232857421933552 0  0.4996139862021899 0.06230139401927514 0  0.5620678533846963 0.06227546986741769 0  0.6245337549657581 0.0622525380835811 0  0.6870228366225164 0.06223481908661001 0  0.7495537223848704 0.06222482809235341 0  0.8121589029528533 0.06222500177692943 0  0.8748989465681953 0.06223737470323985 0  0.9378936642063435 0.0622648875267798 0  1.001371478931958 0.0623248403656359 0  0 0.125 0  0.06241426749521452 0.1249560823936735 0  0.1248269420555325 0.1249113474048256 0  0.1872364999800028 0.1248650368771975 0  0.2496417622988713 0.1248165515683917 0  0.3120421452003989 0.1247655570853597 0  0.3744380202113528 0.1247121202726118 0  0.4368312418815684 0.1246568805346151 0  0.4992259265080909 0.1246012510702674 0  0.561629613297891 0.1245476265333319 0  0.6240550331498859 0.1244995413124299 0  0.6865228982814819 0.1244616722800604 0  0.7490664887215496 0.1244395147831463 0  0.8117394088113117 0.1244385123890951 0  0.8746284326261776 0.124462503040452 0  0.937872429632055 0.1245117801359955 0  1.001688146543523 0.1245805365650407 0  0 0.1875 0  0.06237350099544989 0.1874351251126406 0  0.1247444291125844 0.1873689267954074 0  0.1871102964692029 0.1873001583382997 0  0.2494690670955125 0.1872277849671617 0  0.3118194942043184 0.1871511325993826 0  0.374161613278717 0.1870700886660797 0  0.4364974692229807 0.1869853687084874 0  0.4988321821377394 0.1868988530266666 0  0.5611754946347566 0.1868139757632214 0  0.6235439971764337 0.1867361040004292 0  0.685964290422842 0.1866727594265436 0  0.7484773604731575 0.1866333779445368 0  0.811144191579638 0.1866279948897334 0  0.8740514795469962 0.18666352407823 0  0.9373131530903814 0.1867341951173593 0  1.001059260319017 0.1867959971163777 0  0 0.25 0  0.06233547524153921 0.2499154945234395 0  0.1246672006276759 0.2498290595570199 0  0.1869915014984153 0.2497388443471552 0  0.2493051786792398 0.2496432282593307 0  0.3116058819505738 0.2495409958698085 0  0.3738926738010485 0.2494315895654148 0  0.4361668765341289 0.2493154692596227 0  0.4984333189483403 0.2491946060254686 0  0.5607021195616317 0.2490731217893555 0  0.6229911441606123 0.2489580467817901 0  0.6853292117932113 0.2488600750035265 0  0.7477598899940106 0.2487940121056858 0  0.8103450993850062 0.2487782608570114 0  0.8731664145397813 0.2488321002833757 0  0.9363198674647093 0.2489688216191827 0  0.999898770846132 0.2491836500275357 0  0 0.3125 0  0.0623014111408073 0.312397801711399 0  0.1245976896908777 0.312292961766171 0  0.1868837360645035 0.3121828980562383 0  0.2491548446028716 0.3120652276255532 0  0.3114070493665398 0.3119379407863471 0  0.3736376817835613 0.311799677290277 0  0.435846247495592 0.3116501552119711 0  0.4980357561971692 0.3114908147800954 0  0.5602146558078208 0.3113257462509682 0  0.6223995033090777 0.3111629594295067 0  0.6846183926141076 0.3110159936194092 0  0.7469148583161964 0.3109057058804535 0  0.8093513686426832 0.310861726311334 0  0.8720106399382204 0.3109224463957131 0  0.9349925373193159 0.3111315827096607 0  0.9984065888412146 0.311528877779209 0  0 0.375 0  0.06227270401141905 0.3748827606916212 0  0.1245387289852087 0.3747620793010205 0  0.186791350714588 0.3746345284611561 0  0.2490240403235958 0.3744967876238411 0  0.3112307090295132 0.3743457769305418 0  0.3734061699381841 0.3741789081610815 0  0.4355469405516717 0.373994524383345 0  0.4976525532065697 0.3737926322359262 0  0.5597275843231393 0.3735760734224305 0  0.6217846311812305 0.3733523281798958 0  0.6838484019078958 0.3731361679603669 0  0.7459608500187779 0.3729533105676131 0  0.8081867910526951 0.3728449363573679 0  0.8706187726766712 0.3728721672236014 0  0.9333798161210878 0.3731181805577314 0  0.9966247794943257 0.3736836992513114 0  0 0.4375 0  0.06225087275634966 0.4373711695720326 0  0.1244934541462576 0.437238055228216 0  0.186719294059981 0.4370963161039405 0  0.2489198228291436 0.4369415591902444 0  0.3110864161493523 0.4367693843380439 0  0.3732106570511042 0.4365755408110938 0  0.4352849325860488 0.4363562789560008 0  0.4973035780974995 0.4361090346756729 0  0.5592648859609053 0.4358336710339956 0  0.6211744191074878 0.4355346313761913 0  0.6830501712214792 0.4352245306256299 0  0.7449300925535535 0.4349298754272564 0  0.8068821734036382 0.4346995731239874 0  0.8690164900700507 0.4346162068193443 0  0.9314976971431864 0.4348079887252189 0  0.9945572837811151 0.4354556091994164 0  0 0.5 0  0.06223746101326881 0.4998638631737356 0  0.1244651042506109 0.4997226365248617 0  0.1866728105967591 0.4995710789857752 0  0.2488499284143556 0.4994036790603693 0  0.3109850817492875 0.4992145609042835 0  0.3730661169624739 0.4989974660184779 0  0.4350803238855343 0.4987458861503004 0  0.4970151806217616 0.4984534901870943 0  0.5588600614668363 0.4981151107611272 0  0.6206096470604865 0.497728775757426 0  0.6822701957264919 0.4972996436553205 0  0.7438702923959881 0.4968472759053468 0  0.805477857663892 0.4964183574967644 0  0.8672243308596129 0.4961071307049978 0  0.9293342543380757 0.4960836100574511 0  0.9921559534605444 0.4966223300841229 0  0 0.5625 0  0.06223389381543159 0.5623616359726905 0  0.12445672439286 0.5622175155069583 0  0.1866569697283995 0.562061625001073 0  0.2488221056713264 0.5618874270123578 0  0.310938096584789 0.5616875891997836 0  0.372988914552783 0.5614537192017528 0  0.4349561862880251 0.5611761446165741 0  0.4968192038043671 0.560843836275199 0  0.5585558071481703 0.560444698151816 0  0.6201451630401077 0.559966711069527 0  0.681574370990953 0.5594009661981505 0  0.7428522337610304 0.5587487260207742 0  0.8040351553045965 0.5580366658924155 0  0.865270444053838 0.5573472946290561 0  0.9268573998630039 0.5568724592774543 0  0.9893121182730034 0.5569880624819528 0  0 0.625 0  0.06224130006989216 0.6248651400626015 0  0.1244707889960754 0.6247241137548606 0  0.1866760478540758 0.6245703975503355 0  0.2488431972675627 0.6243966969350863 0  0.3109560476996474 0.6241944879357144 0  0.3729951158696849 0.6239534697405863 0  0.4349365159978532 0.6236609031732988 0  0.496750851202395 0.6233008308982104 0  0.5584025190533287 0.6228532421483981 0  0.6198505120904173 0.6222934351286284 0  0.6810532365612172 0.6215923495377386 0  0.7419827398769495 0.6207200255682408 0  0.8026586547011474 0.6196578995562801 0  0.8632179789232972 0.6184338608605604 0  0.9240353058090296 0.6172070576982556 0  0.9858844706082032 0.6164251767364418 0  0 0.6875 0  0.06226031938716167 0.6873747701298056 0  0.1245087824824516 0.6872433327597551 0  0.1867328155042879 0.6870990505515514 0  0.2489180278236948 0.6869343269801399 0  0.3110470628261083 0.6867399914320108 0  0.3730981222847514 0.6865044978876154 0  0.4350430279965519 0.6862128348367751 0  0.4968447093026003 0.6858450037993064 0  0.5584541661257085 0.6853738716984566 0  0.6198075150538075 0.6847621621868668 0  0.6808253382589763 0.6839584443496864 0  0.7414207647942036 0.6828927156247074 0  0.8015326766240476 0.6814755628372673 0  0.8612201639333239 0.6796183193900454 0  0.920873695745787 0.677337262206876 0  0.9815519364309002 0.6750500742454704 0  0 0.75 0  0.06229092065016172 0.7498905543663273 0  0.1245707950163025 0.7497753120448221 0  0.1868278218026284 0.7496480213581769 0  0.2490482257057343 0.7495013938076363 0  0.3112149320900681 0.7493264083039326 0  0.3733057445350959 0.7491113599697325 0  0.4352907231761377 0.7488404901026795 0  0.4971283277052091 0.748491936107028 0  0.5587597415449452 0.7480345618084084 0  0.6201007909793764 0.7474228918918816 0  0.6810316257333738 0.7465887287352434 0  0.7413879123645539 0.7454268725748049 0  0.800970286207905 0.7437710358432855 0  0.8596305119316199 0.741360136436708 0  0.9176042586594504 0.737851881277343 0  0.9761420351920682 0.7334893920529343 0  0 0.8125 0  0.06233226686696335 0.8124120742956739 0  0.124655210106412 0.8123192461701046 0  0.186958810722554 0.8122161936832921 0  0.2492311937227767 0.8120966259177759 0  0.3114573274346479 0.8119526146510788 0  0.3736171478821455 0.8117736568057345 0  0.4356826910351037 0.8115452878034523 0  0.4976135208896793 0.8112469509432763 0  0.5593492093388073 0.8108486100749472 0  0.6207967010166439 0.8103051434997763 0  0.6818089848913385 0.8095465155168579 0  0.7421502713472123 0.808459009710975 0  0.8014469299671971 0.8068451510255892 0  0.8591600176572172 0.8043275117530988 0  0.9148342928877429 0.8000926797880122 0  0.9705237127340653 0.7920657054229232 0  0 0.875 0  0.06238266256957466 0.8749384352661882 0  0.1247585685716317 0.8748733107395539 0  0.1871204288307531 0.8748007444810804 0  0.249459513319744 0.8747161042893 0  0.3117646133266506 0.8746134825329784 0  0.3740204991471728 0.8744849511317839 0  0.4362054697994972 0.8743194526392102 0  0.4982872459657642 0.8741011026695362 0  0.5602157394204373 0.8738065504324661 0  0.6219096835404784 0.8734008396087413 0  0.6832306445632647 0.8728308357243494 0  0.7439299546466299 0.8720142221162757 0  0.803535571823915 0.8708174483999254 0  0.8611047036965294 0.8689935649265269 0  0.9146960843371305 0.8659478733761801 0  0.9604263133671795 0.8597490952908895 0  0 0.9375 0  0.06243961232285903 0.9374683018653901 0  0.1248756787768543 0.9374347312440295 0  0.1873043669313963 0.9373972408846326 0  0.2497210626945962 0.9373533747119904 0  0.3121198005698001 0.9372999797972358 0  0.3744924057712853 0.9372327966048069 0  0.4368271082870908 0.9
[...]
<PointData  Vectors="f_95-0"> 
<DataArray  type="Float64"  Name="f_95-0"  NumberOfComponents="3" format="ascii">0.0000000000000000e+00 0.0000000000000000e+00 0.0000000000000000e+00  -5.1413045303977595e-04 -2.2805328577776337e-02 0.0000000000000000e+00  -1.4304391797822346e-03 -3.0344096651497950e-02 0.0000000000000000e+00  -2.5170810006302736e-03 -2.8902299712756180e-02 0.0000000000000000e+00  -3.7942124791952229e-03 -2.2873456507607658e-02 0.0000000000000000e+00  -5.2363750199335710e-03 -1.5268230544481195e-02 0.0000000000000000e+00  -6.8075669861841119e-03 -7.9369131308217600e-03 0.0000000000000000e+00  -8.4562110057250593e-03 -1.8465929207491627e-03 0.0000000000000000e+00  -1.0118126506721139e-02 2.6482108618812493e-03 0.0000000000000000e+00  -1.1718776127177926e-02 5.5718298459927597e-03 0.0000000000000000e+00  -1.3174453720848385e-02 7.1467568577792224e-03 0.0000000000000000e+00  -1.4392290010399100e-02 7.6671091140948769e-03 0.0000000000000000e+00  -1.5271284698174728e-02 7.4211135838350281e-03 0.0000000000000000e+00  -1.5687552153192324e-02 6.6396763945786403e-03 0.0000000000000000e+00  -1.5494692985645986e-02 5.5117006593131020e-03 0.0000000000000000e+00  -1.4780736446714083e-02 4.1332124023700598e-03 0.0000000000000000e+00  -6.5608291461783782e-03 5.9978074805270695e-03 0.0000000000000000e+00  0.0000000000000000e+00 0.0000000000000000e+00 0.0000000000000000e+00  -3.7910288084547168e-04 -2.2002889967881672e-02 0.0000000000000000e+00  -1.1733514775435628e-03 -2.9347879082534702e-02 0.0000000000000000e+00  -2.1602104129092897e-03 -2.7733960988922748e-02 0.0000000000000000e+00  -3.3424101295249525e-03 -2.1545188157853237e-02 0.0000000000000000e+00  -4.6948074510452372e-03 -1.3801428115393005e-02 0.0000000000000000e+00  -6.1841360664212069e-03 -6.3688072613445309e-03 0.0000000000000000e+00  -7.7592355268244805e-03 -2.2874334353569479e-04 0.0000000000000000e+00  -9.3575041183860674e-03 4.2518548226041361e-03 0.0000000000000000e+00  -1.0907184897611420e-02 7.0863314217778457e-03 0.0000000000000000e+00  -1.2328747494893618e-02 8.4870599267765877e-03 0.0000000000000000e+00  -1.3535938135225484e-02 8.7386157460379726e-03 0.0000000000000000e+00  -1.4436241458532888e-02 8.1172738192138768e-03 0.0000000000000000e+00  -1.4930782241710874e-02 6.8460628321187836e-03 0.0000000000000000e+00  -1.4954341333980105e-02 5.0742004190914569e-03 0.0000000000000000e+00  -1.4231336366572839e-02 2.7984881672837524e-03 0.0000000000000000e+00  -1.4185803934161339e-02 1.2881875830606274e-03 0.0000000000000000e+00  0.0000000000000000e+00 0.0000000000000000e+00 0.0000000000000000e+00  -1.7326981895320523e-04 -2.1488411500565539e-02 0.0000000000000000e+00  -6.6248164592929305e-04 -2.8579750299825200e-02 0.0000000000000000e+00  -1.3887250820501333e-03 -2.6769757974122670e-02 0.0000000000000000e+00  -2.3419269202868171e-03 -2.0396893907406826e-02 0.0000000000000000e+00  -3.4949043098949314e-03 -1.2492157943693601e-02 0.0000000000000000e+00  -4.8108153019568254e-03 -4.9382070849942495e-03 0.0000000000000000e+00  -6.2367200342306603e-03 1.2708869595315048e-03 0.0000000000000000e+00  -7.7116707590229741e-03 5.7583578458611472e-03 0.0000000000000000e+00  -9.1686820967726464e-03 8.5293324702215463e-03 0.0000000000000000e+00  -1.0536325105233861e-02 9.7891689319312847e-03 0.0000000000000000e+00  -1.1740341188123622e-02 9.8173670598147873e-03 0.0000000000000000e+00  -1.2707927928399716e-02 8.8899108019150925e-03 0.0000000000000000e+00  -1.3380485345092308e-02 7.2404286452355552e-03 0.0000000000000000e+00  -1.3725841092798211e-02 5.0515798087018742e-03 0.0000000000000000e+00  -1.3861952573953588e-02 2.5396344911149411e-03 0.0000000000000000e+00  -1.3640558828912349e-02 1.4856107445399306e-04 0.0000000000000000e+00  0.0000000000000000e+00 0.0000000000000000e+00 0.0000000000000000e+00  5.6587482061008912e-06 -2.1290754665970801e-02 0.0000000000000000e+00  -1.4101302441887849e-04 -2.8139308901868276e-02 0.0000000000000000e+00  -5.3961440001003215e-04 -2.6088906998228266e-02 0.0000000000000000e+00  -1.2102122239964269e-03 -1.9488420969915245e-02 0.0000000000000000e+00  -2.1282062551128264e-03 -1.1386563841726809e-02 0.0000000000000000e+00  -3.2482845656006494e-03 -3.6801897351604494e-03 0.0000000000000000e+00  -4.5128698245667440e-03 2.6275651860029137e-03 0.0000000000000000e+00  -5.8607571988072106e-03 7.1542455842935736e-03 0.0000000000000000e+00  -7.2290214903785767e-03 9.9005788972251294e-03 0.0000000000000000e+00  -8.5536650052854199e-03 1.1068342511834098e-02 0.0000000000000000e+00  -9.7704568885196193e-03 1.0936174667182797e-02 0.0000000000000000e+00  -1.0819134660132443e-02 9.7864201995546008e-03 0.0000000000000000e+00  -1.1651288182613477e-02 7.8733029719248553e-03 0.0000000000000000e+00  -1.2247783846000233e-02 5.4286856544746472e-03 0.0000000000000000e+00  -1.2585313910371449e-02 2.6754547610416991e-03 0.0000000000000000e+00  -1.2627228260132897e-02 -1.4440221978845181e-04 0.0000000000000000e+00  0.0000000000000000e+00 0.0000000000000000e+00 0.0000000000000000e+00  1.5286639199081791e-04 -2.1373968223101020e-02 0.0000000000000000e+00  3.0747062180526630e-04 -2.8038432640846829e-02 0.0000000000000000e+00  2.2334568305577008e-04 -2.5715552741894382e-02 0.0000000000000000e+00  -1.6907219960513460e-04 -1.8838352778033387e-02 0.0000000000000000e+00  -8.5333070810485081e-04 -1.0495202664172382e-02 0.0000000000000000e+00  -1.7774118433863425e-03 -2.5997121836695480e-03 0.0000000000000000e+00  -2.8786985689941143e-03 3.8399887238570246e-03 0.0000000000000000e+00  -4.0953827767435140e-03 8.4409968727748360e-03 0.0000000000000000e+00  -5.3684947552065663e-03 1.1203689900870673e-02 0.0000000000000000e+00  -6.6403522340095118e-03 1.2328581384139531e-02 0.0000000000000000e+00  -7.8528224683658988e-03 1.2093950490264875e-02 0.0000000000000000e+00  -8.9478940963560807e-03 1.0786212653823594e-02 0.0000000000000000e+00  -9.8710688517493102e-03 8.6712603951299358e-03 0.0000000000000000e+00  -1.0570231070041207e-02 5.9911887057848305e-03 0.0000000000000000e+00  -1.0988783009679407e-02 2.9685847396842100e-03 0.0000000000000000e+00  -1.1061246943225684e-02 -2.2836995920227026e-04 0.0000000000000000e+00  0.0000000000000000e+00 0.0000000000000000e+00 0.0000000000000000e+00  2.6617021799224408e-04 -2.1686941317398820e-02 0.0000000000000000e+00  6.5986535391325031e-04 -2.8232420264462828e-02 0.0000000000000000e+00  8.3949970783277065e-04 -2.5623118409199650e-02 0.0000000000000000e+00  6.9546607696432635e-04 -1.8433628423931026e-02 0.0000000000000000e+00  2.3768779499593358e-04 -9.8161942730699767e-03 0.0000000000000000e+00  -4.7725825607658587e-04 -1.7052509750846354e-03 0.0000000000000000e+00  -1.3840636414682072e-03 4.8904256349720778e-03 0.0000000000000000e+00  -2.4236237422243356e-03 9.5930789676411405e-03 0.0000000000000000e+00  -3.5442725794183230e-03 1.2406484711092229e-02 0.0000000000000000e+00  -4.6971108775591104e-03 1.3530627743797201e-02 0.0000000000000000e+00  -5.8307380178561768e-03 1.3240850189339678e-02 0.0000000000000000e+00  -6.8883202872665169e-03 1.1821247286784282e-02 0.0000000000000000e+00  -7.8072837908060595e-03 9.5366484352744814e-03 0.0000000000000000e+00  -8.5189433948469808e-03 6.6267989307874703e-03 0.0000000000000000e+00  -8.9509518323345853e-03 3.3046506386103128e-03 0.0000000000000000e+00  -9.0317063836907359e-03 -2.3906607752588373e-04 0.0000000000000000e+00  0.0000000000000000e+00 0.0000000000000000e+00 0.0000000000000000e+00  3.4681503149342071e-04 -2.2171777510709097e-02 0.0000000000000000e+00  9.1344572290755861e-04 -2.8655757348661413e-02 0.0000000000000000e+00  1.2979134996025394e-03 -2.5765972978785572e-02 0.0000000000000000e+00  1.3747334983824349e-03 -1.8258584708550928e-02 0.0000000000000000e+00  1.1571168154151578e-03 -9.3657212777299922e-03 0.0000000000000000e+00  7.0657199398359803e-04 -1.0425365482862917e-03 0.0000000000000000e+00  8.6226073356639743e-05 5.7081788676140756e-03 0.0000000000000000e+00  -6.5537752460646814e-04 1.0520518960543205e-02 0.0000000000000000e+00  -1.4826961270094138e-03 1.3405338454701834e-02 0.0000000000000000e+00  -2.3641608074185679e-03 1.4562152783937512e-02 0.0000000000000000e+00  -3.2631907594224047e-03 1.4260471885981438e-02 0.0000000000000000e+00  -4.1331526306327433e-03 1.2776294330949513e-02 0.0000000000000000e+00  -4.9166277461802858e-03 1.0365946969754677e-02 0.0000000000000000e+00  -5.5448378082290249e-03 7.2613431459141340e-03 0.0000000000000000e+00  -5.9431777388064934e-03 3.6746841962364530e-03 0.0000000000000000e+00  -6.0275995792905988e-03 -1.9125656843750231e-04 0.0000000000000000e+00  0.0000000000000000e+00 0.0000000000000000e+00 0.0000000000000000e+00  3.9364360313443503e-04 -2.2771043854455431e-02 0.0000000000000000e+00  1.0644484944943857e-03 -2.9239694866433633e-02 0.0000000000000000e+00  1.5969843290403679e-03 -2.6101305253684287e-02 0.0000000000000000e+00  1.8846618969136726e-03 -1.8317724227659458e-02 0.0000000000000000e+00  1.9610452743766345e-03 -9.2026570691249327e-03 0.0000000000000000e+00  1.8946112131660406e-03 -7.2202036432081600e-04 0.0000000000000000e+00  1.7382595075429799e-03 6.1397457722117974e-03 0.0000000000000000e+00  1.5164859303214912e-03 1.1037896802513065e-02 0.0000000000000000e+00  1.2333624319869885e-03 1.3994866172533220e-02 0.0000000000000000e+00  8.8771309837031118e-04 1.5209987839766228e-02 0.0000000000000000e+00  4.8523310646567862e-04 1.4943896171149763e-02 0.0000000000000000e+00  4.4757704048270345e-05 1.3460778820630480e-02 0.0000000000000000e+00  -4.0192736251561903e-04 1.1008123511421910e-02 0.0000000000000000e+00  -8.0956517831444312e-04 7.8097194362695055e-03 0.0000000000000000e+00  -1.1189363226337071e-03 4.0623273852742553e-03 0.0000000000000000e+00  -1.2183615550518682e-03 -4.5929025995578628e-05 0.0000000000000000e+00  0.0000000000000000e+00 0.0000000000000000e+00 0.0000000000000000e+00  3.9828741671756225e-04 -2.3419855721493861e-02 0.0000000000000000e+00  1.0904461406044846e-03 -2.9909322698408531e-02 0.0000000000000000e+00  1.7104277598324841e-03 -2.6594276433384644e-02 0.0000000000000000e+00  2.2185250624248381e-03 -1.8647368258303706e-02 0.0000000000000000e+00  2.6917094905573253e-03 -9.4450770479505061e-03 0.0000000000000000e+00  3.2065982129784861e-03 -9.3873482017912306e-04 0.0000000000000000e+00  3.7925334751105736e-03 5.9269393345920867e-03 0.0000000000000000e+00  4.4294661343772211e-03 1.0841662860416936e-02 0.0000000000000000e+00  5.0674789901868468e-03 1.3844707198255124e-02 0.0000000000000000e+00  5.6497266493973786e-03 1.5134107567135938e-02 0.0000000000000000e+00  6.1294210407804341e-03 1.4959574461733077e-02 0.0000000000000000e+00  6.4766989376940434e-03 1.3578720509194916e-02 0.0000000000000000e+00  6.6674770285883710e-03 1.1237167383540709e-02 0.0000000000000000e+00  6.6825912109706748e-03 8.1430205917806132e-03 0.0000000000000000e+00  6.5308196867288346e-03 4.4511126754729390e-03 0.0000000000000000e+00  6.3522431524981439e-03 2.8620889152432586e-04 0.0000000000000000e+00  0.0000000000000000e+00 0.0000000000000000e+00 0.0000000000000000e+00  3.3951611340428146e-04 -2.4029279567448845e-02 0.0000000000000000e+00  9.3259802418988781e-04 -3.0567198427470858e-02 0.0000000000000000e+00  1.5564011600988231e-03 -2.7209671280483554e-02 0.0000000000000000e+00  2.3040834522244738e-03 -1.9315824699387956e-02 0.0000000000000000e+00  3.3227554077508033e-03 -1.0276064750786275e-02 0.0000000000000000e+00  4.6932465037131865e-03 -1.9805171007442582e-03 0.0000000000000000e+00  6.3995193484984491e-03 4.6985070248771552e-03 0.0000000000000000e+00  8.3479471829354807e-03 9.5022962535140938e-03 0.0000000000000000e+00  1.0403985316440047e-02 1.2491223111156375e-02 0.0000000000000000e+00  1.2426913341014190e-02 1.3859643075556663e-02 0.0000000000000000e+00  1.4296191821347042e-02 1.3845898228163320e-02 0.0000000000000000e+00  1.5907036106720982e-02 1.2700661383013965e-02 0.0000000000000000e+00  1.7144211890103418e-02 1.0672340534487571e-02 0.0000000000000000e+00  1.7878296230163845e-02 7.9921577718739586e-03 0.0000000000000000e+00  1.7982556844285517e-02 4.7851822174220472e-03 0.0000000000000000e+00  1.7565786147663669e-02 9.6871237254926048e-04 0.0000000000000000e+00  0.0000000000000000e+00 0.0000000000000000e+00 0.0000000000000000e+00  1.7715546823486225e-04 -2.4459546807680803e-02 0.0000000000000000e+00  4.8012707544645172e-04 -3.1065189872536314e-02 0.0000000000000000e+00  9.7415188525125135e-04 -2.7893020519391003e-02 0.0000000000000000e+00  1.9716574313369279e-03 -2.0412538742649491e-02 0.0000000000000000e+00  3.7138036510650386e-03 -1.1935124678787308e-02 0.0000000000000000e+00  6.2698024910922516e-03 -4.2166985787085321e-03 0.0000000000000000e+00  9.5444688928493938e-03 1.9864727173575826e-03 0.0000000000000000e+00  1.3332412454267837e-02 6.4857720259399055e-03 0.0000000000000000e+00  1.7378113200679942e-02 9.3644800072119113e-03 0.0000000000000000e+00  2.1428209849378863e-02 1.0805732562984841e-02 0.0000000000000000e+00  2.5261829225206190e-02 1.1019406644393982e-02 0.0000000000000000e+00  2.8678262981247673e-02 1.0243821285224731e-02 0.0000000000000000e+00  3.1487260669834968e-02 8.8090862642615491e-03 0.0000000000000000e+00  3.3380921981350349e-02 7.0786986730746494e-03 0.0000000000000000e+00  3.3887921810070137e-02 5.0832536423705780e-03 0.0000000000000000e+00  3.2874333866159774e-02 2.2573360826548578e-03 0.0000000000000000e+00  0.0000000000000000e+00 0.0000000000000000e+00 0.0000000000000000e+00  -1.5151425156621133e-04 -2.4486231922390432e-02 0.0000000000000000e+00  -4.3235267403213815e-04 -3.1173628328898233e-02 0.0000000000000000e+00  -2.7326370816902856e-04 -2.8549930848350055e-02 0.0000000000000000e+00  9.5563397341915182e-04 -2.2028458525233073e-02 0.0000000000000000e+00  3.5950340607829151e-03 -1.4688772433534426e-02 0.0000000000000000e+00  7.6655853555539178e-03 -8.0531584225318371e-03 0.0000000000000000e+00  1.2946273359364104e-02 -2.7130091429689372e-03 0.0000000000000000e+00  1.9077713486892019e-02 1.2280735200145703e-03 0.0000000000000000e+00  2.5649397887210462e-02 3.8720762841542257e-03 0.0000000000000000e+00  3.2264480934468258e-02 5.3720157466752546e-03 0.0000000000000000e+00  3.8572149927806311e-02 5.8838788805759901e-03 0.0000000000000000e+00  4.4305364734681607e-02 5.6359946414391675e-03 0.0000000000000000e+00  4.9232758706448977e-02 5.0294366704197293e-03 0.0000000000000000e+00  5.2775764655125804e-02 4.5327673500016076e-03 0.0000000000000000e+00  5.4127452388031475e-02 4.4838653382525953e-03 0.0000000000000000e+00  5.2286099037885447e-02 4.4247500162926711e-03 0.0000000000000000e+00  0.0000000000000000e+00 0.0000000000000000e+00 0.0000000000000000e+00  -7.2352776165521770e-04 -2.3771020248946909e-02 0.0000000000000000e+00  -1.9859800932733877e-03 -3.0569469051363429e-02 0.0000000000000000e+00  -2.4248211333451090e-03 -2.9039809889223896e-02 0.0000000000000000e+00  -1.0205349567138399e-03 -2.4228978332497288e-02 0.0000000000000000e+00  2.6257893944393756e-03 -1.8766172361464994e-02 0.0000000000000000e+00  8.4213147977595850e-03 -1.3828002879898002e-02 0.0000000000000000e+00  1.5968310914442771e-02 -9.8017948193320891e-03 0.0000000000000000e+00  2.4723495567332547e-02 -6.7037465216967943e-03 0.0000000000000000e+00  3.4103980422806629e-02 -4.4255641833103867e-03 0.0000000000000000e+00  4.3549299207333851e-02 -2.8635889746322944e-03 0.0000000000000000e+00  5.2571590994049261e-02 -1.9472376753061316e-03 0.0000000000000000e+00  6.0834276015105306e-02 -1.5723917686116054e-03 0.0000000000000000e+00  6.8033544167020482e-02 -1.4181459661588684e-03 0.0000000000000000e+00  7.3876383572330409e-02 -3.0086570733622815e-04 0.0000000000000000e+00  7.7339086572908139e-02 3.5506618070897879e-03 0.0000000000000000e+00  7.5628911830055434e-02 7.1889169732656816e-03 0.0000000000000000e+00  0.0000000000000000e+00 0.0000000000000000e+00 0.0000000000000000e+00  -1.5867584374109997e-03 -2.1885695000794313e-02 0.0000000000000000e+00  -4.2280868757733573e-03 -2.8900532156792686e-02 0.0000000000000000e+00  -5.4823652328693873e-03 -2.9216147278684407e-02 0.0000000000000000e+00  -3.9845017570998799e-03 -2.7018371283899445e-02 0.0000000000000000e+00  6.0145945241773385e-04 -2.4233419249819348e-02 0.0000000000000000e+00  7.9878548227177541e-03 -2.1607088560447373e-02 0.0000000000000000e+00  1.7575186609972100e-02 -1.9318305130934445e-02 0.0000000000000000e+00  2.8650970539429041e-02 -1.7316524699519987e-02 0.0000000000000000e+00  4.0490656313910807e-02 -1.5504833171596151e-02 0.0000000000000000e+00  5.2401103259280095e-02 -1.3835172821120897e-02 0.0000000000000000e+00  6.3759447888895399e-02 -1.2344583201817239e-02 0.0000000000000000e+00  7.4034379333375103e-02 -1.1124488785863359e-02 0.0000000000000000e+00  8.2919548207955940e-02 -1.0015228419451811e-02 0.0000000000000000e+00  9.1057306396199855e-02 -7.9815487111322050e-03 0.0000000000000000e+00  9.7760027178740078e-02 -1.8888040784776948e-03 0.0000000000000000e+00  9.4475278915713987e-02 8.7387192017548115e-03 0.0000000000000000e+00  0.0000000000000000e+00 0.0000000000000000e+00 0.0000000000000000e+00  -2.6034147298818009e-03 -1.8471758774167076e-02 0.0000000000000000e+00  -6.6574115390223417e-03 -2.6002616485019454e-02 0.0000000000000000e+00  -8.6372641039587170e-03 -2.9025544116419208e-02 0.0000000000000000e+00  -7.1423653132294844e-03 -3.0253927883281358e-02 0.0000000000000000e+00  -2.0927655882743965e-03 -3.0739807164456359e-02 0.0000000000000000e+00  5.9962073143369982e-03 -3.0807141434842939e-02 0.0000000000000000e+00  1.6388118475336607e-02 -3.0482335053770855e-02 0.0000000000000000e+00  2.8309722727069810e-02 -2.9695448354278231e-02 0.0000000000000000e+00  4.1016696648074155e-02 -2.8379955743270832e-02 0.0000000000000000e+00  5.3801222995381065e-02 -2.6529086251553688e-02 0.0000000000000000e+00  6.5968486608792662e-02 -2.4237740533598978e-02 0.0000000000000000e+00  7.6822277046176793e-02 -2.1715098816782061e-02 0.0000000000000000e+00  8.5978096602720419e-02 -1.9266195093542490e-02 0.0000000000000000e+00  9.3344070780808280e-02 -1.7217291694469651e-02 0.0000000000000000e+00  9.9321278624203341e-02 -1.3754702869322177e-02 0.0000000000000000e+00  1.1140414943685124e-01 -2.9054678310776105e-03 0.0000000000000000e+00  0.0000000000000000e+00 0.0000000000000000e+00 0.0000000000000000e+00  -2.9879247031022278e-03 -1.3882752658637851e-02 0.0000000000000000e+00  -7.2209323021701754e-03 -2.2500154055723993e-02 0.0000000000000000e+00  -9.0952906261242920e-03 -2.8703242141433053e-02 0.0000000000000000e+00  -7.8368361703152773e-03 -3.3464233059978803e-02 0.0000000000000000e+00  -3.6965516178452131e-03 -3.7077413488686664e-02 0.0000000000000000e+00  2.7604612274835820e-03 -3.9600022664557866e-02 0.0000000000000000e+00  1.0911360598290461e-02 -4.1012877685186550e-02 0.0000000000000000e+00  2.0172627425176736e-02 -4.1280349200864153e-02 0.0000000000000000e+00  3.0015089570440578e-02 -4.0378055273941692e-02 0.0000000000000000e+00  3.9940610681559435e-02 -3.8311493982806449e-02 0.0000000000000000e+00  4.9425604522320338e-02 -3.5135007231650944e-02 0.0000000000000000e+00  5.7884678115042616e-02 -3.0979839902298145e-02 0.0000000000000000e+00  6.4481809304003657e-02 -2.6214077603238906e-02 0.0000000000000000e+00  6.7820460710052613e-02 -2.1334094074659738e-02 0.0000000000000000e+00  6.8632841715551063e-02 -1.7207092322015831e-02 0.0000000000000000e+00  4.8573381497889256e-02 -1.0392991284155646e-02 0.0000000000000000e+00  0.0000000000000000e+00 0.0000000000000000e+00 0.0000000000000000e+00  0.0000000000000000e+00 -1.0979373901501784e-02 0.0000000000000000e+00  0.0000000000000000e+00 -2.0494831282803327e-02 0.0000000000000000e+00  0.0000000000000000e+00 -2.8546372143904639e-02 0.0000000000000000e+00  0.0000000000000000e+00 -3.5133996484805703e-02 0.0000000000000000e+00  0.0000000000000000e+00 -4.0257704305506535e-02 0.0000000000000000e+00  0.0000000000000000e+00 -4.3917495606007134e-02 0.0000000000000000e+00  0.0000000000000000e+00 -4.6113370386307487e-02 0.0000000000000000e+00  0.0000000000000000e