<?xml version="1.0"?>
<VTKFile type="UnstructuredGrid"  version="0.1"  >
<UnstructuredGrid>
<Piece  NumberOfPoints="289" NumberOfCells="512">
<Points>
<DataArray  type="Float64"  NumberOfComponents="3"  format="ascii">0 0 0  0.0625 0 0  0.125 0 0  0.1875 0 0  0.25 0 0  0.3125 0 0  0.375 0 0  0.4375 0 0  0.5 0 0  0.5625 0 0  0.625 0 0  0.6875 0 0  0.75 0 0  0.8125 0 0  0.875 0 0  0.9375 0 0  1 0 0  0 0.0625 0  0.06248981762646682 0.06248854560303344 0  0.1249799647795425 0.06247689492181133 0  0.1874708612601652 0.06246487042255035 0  0.2499631451259092 0.06245233881963853 0  0.3124578164913459 0.06243923925172679 0  0.3749564287539693 0.06242561776196514 0  0.4374613548513699 0.062411667775366 0  0.4999761752168793 0.06239777282118431 0  0.5625062794116823 0.0623845415405728 0  0.6250598881214232 0.06237281457335579 0  0.6876500096601493 0.06236360616466355 0  0.7502987165686034 0.06235791593399671 0  0.8130477434465533 0.06235629127137464 0  0.8759877223093583 0.0623578564251823 0  0.9393463851356564 0.06235789485800636 0  1.003777348410603 0.06234136722401125 0  0 0.125 0  0.06247929676108648 0.1249772806507053 0  0.1249591557944649 0.1249541469637097 0  0.1874403105424326 0.1249302196849656 0  0.2499239095289488 0.1249052032665906 0  0.3124117912093665 0.124878940884714 0  0.3749068494460072 0.1248514839798354 0  0.4374135377421946 0.124823177469778 0  0.4999385854007755 0.1247947559866367 0  0.5624920512120786 0.1247674355176257 0  0.6250889547771679 0.1247429659461569 0  0.6877519770671638 0.1247235811629304 0  0.7505162489690812 0.1247117492383876 0  0.8134381892993516 0.1247096219560917 0  0.8766111753183706 0.1247182868297322 0  0.9401864328152585 0.1247381039118296 0  1.004359956911179 0.1247765047590721 0  0 0.1875 0  0.06246822800694674 0.1874664254518749 0  0.124937061494038 0.1874321783864868 0  0.1874073368705326 0.1873966325464821 0  0.2498804540622273 0.1873592743157443 0  0.3123587529508855 0.1873197808010633 0  0.3748460149769147 0.1872781236147231 0  0.4373481487351794 0.1872347041121731 0  0.4998741352913907 0.1871905198777666 0  0.562437333502408 0.187147349244756 0  0.6250572781488674 0.1871079151039735 0  0.6877621283531935 0.1870759425542274 0  0.7505918488926936 0.1870559418522958 0  0.8136016606359493 0.1870523898779564 0  0.8768630516896881 0.1870675999400928 0  0.9404525349417443 0.1870962747318836 0  1.004402100069026 0.1871094283201075 0  0 0.25 0  0.06245659299637116 0.2499562401902145 0  0.1249135757017647 0.2499114966803229 0  0.1873715974568893 0.2498648348821833 0  0.2498319484433774 0.2498154442566441 0  0.3122969960332804 0.2497627315672785 0  0.3747707733158102 0.2497064535691705 0  0.4372597858300774 0.2496469033095655 0  0.4997741092218816 0.2495851615785154 0  0.5623288443011696 0.2495234154993964 0  0.62494595127771 0.2494653223595028 0  0.6876563400579154 0.2494163456774109 0  0.7505017030391485 0.2493838911975301 0  0.8135346258590228 0.2493768925689065 0  0.876813454151447 0.2494042169154046 0  0.9403848720593846 0.2494710143009043 0  1.004244487681148 0.249573154955218 0  0 0.3125 0  0.06244462727196022 0.3124470374773279 0  0.1248891344247791 0.3123927230356252 0  0.187333651044199 0.3123357450748361 0  0.2497789359332444 0.3122749021210689 0  0.3122268223092647 0.3122091975069711 0  0.3746808369399456 0.3121379873198564 0  0.4371470711508795 0.3120612073073802 0  0.499635388716877 0.3119797093173787 0  0.5621610421746699 0.311895739271754 0  0.624746700928135 0.3118135789804444 0  0.6874247043917752 0.3117403378362443 0  0.7502389251690336 0.3116867900067055 0  0.8132448096026325 0.3116679683214603 0  0.8765049240457595 0.3117029181430486 0  0.9400763384840283 0.3118126518865986 0  1.003988113735031 0.3120152313903847 0  0 0.375 0  0.06243284887462303 0.3749391860288033 0  0.1248647816197388 0.3748766032210281 0  0.1872950783869624 0.3748104998780877 0  0.2497235353383537 0.3747391881576456 0  0.3121508585343944 0.3746611197103237 0  0.3745792460988365 0.3745750238698351 0  0.4370132562513311 0.3744801459955264 0  0.4994610832488967 0.3743766396180793 0  0.5619363773362674 0.3742661863092202 0  0.6244607190340382 0.3741529370213176 0  0.6870667343034247 0.3740448732747702 0  0.7498015218991089 0.37395563975617 0  0.8127294613017915 0.3739067277726021 0  0.8759326345851121 0.3739294728868805 0  0.9395066275243865 0.3740655502099222 0  1.003551002014012 0.3743635240654341 0  0 0.4375 0  0.06242204583032189 0.43743310200995 0  0.1248421497235694 0.4373639931949866 0  0.1872584679545672 0.4372904412667549 0  0.2496694528431415 0.4372101955921861 0  0.312074126187399 0.4371210177061934 0  0.3744725383451415 0.4370207729920458 0  0.4368665323259799 0.4369076286544606 0  0.4992609896232684 0.4367804313738289 0  0.5616658100712801 0.4366393823282437 0  0.6240989596922013 0.436487191708768 0  0.6865909682323035 0.4363309757703763 0  0.7491911793712314 0.4361852258041162 0  0.8119756916814392 0.4360761276635929 0  0.8750561185466106 0.4360470979182968 0  0.9385872069001795 0.4361642143491565 0  1.002771204443431 0.4365179527654573 0  0 0.5 0  0.0624132185230634 0.4999292252333971 0  0.1248233456274371 0.4998558126266291 0  0.1872272500068113 0.4997770508023538 0  0.2496217772158572 0.4996900949234945 0  0.312003828586033 0.4995919244247181 0  0.3743705907009544 0.4994793440905225 0  0.4367200441735112 0.4993490706507469 0  0.4990519764687024 0.4991979833818947 0  0.5613698823390727 0.4990236825799506 0  0.6236843817228047 0.4988256140536619 0  0.6860191268329241 0.498607207131495 0  0.7484205439048111 0.4983797537295521 0  0.8109729054588637 0.498169063769095 0  0.8738195543663992 0.4980259334857025 0  0.9371888129747962 0.498040198946101 0  1.001419927135983 0.4983539718683077 0  0 0.5625 0  0.06240747662494985 0.5624279791920822 0  0.124810739140676 0.5623529629574967 0  0.1872053683883988 0.5622718226449768 0  0.2495865310408457 0.5621811603260496 0  0.3119487968690084 0.562077171647278 0  0.3742860237645794 0.5619555152930787 0  0.4365914161259018 0.5618112126103219 0  0.4988579834306306 0.5616386340773902 0  0.5610798600794747 0.5614316983196692 0  0.623255381886084 0.56118455186257 0  0.6853935707999879 0.5608932870204704 0  0.7475268591899724 0.5605598192716621 0  0.8097343362896249 0.5602000446111569 0  0.8721804783540141 0.5598597638691037 0  0.9351712997958372 0.5596422350164778 0  0.9992193292240079 0.5597457604676987 0  0 0.625 0  0.0624058958519371 0.6249297170073757 0  0.1248066617879444 0.6248562131807937 0  0.1871967936661195 0.6247760769239969 0  0.2495699630096424 0.6246854927697708 0  0.3119185331999861 0.6245800018296829 0  0.3742330081699392 0.6244542171910866 0  0.4365014458211336 0.6243014829826472 0  0.4987089750009747 0.6241134790742652 0  0.5608378043505072 0.6238798127829238 0  0.6228686663072162 0.6235877466583805 0  0.6847858128268439 0.6232224951510182 0  0.7465899986564509 0.6227692527215022 0  0.8083279730289583 0.6222199224940531 0  0.8701525112428444 0.6215915763483731 0  0.9324287911968697 0.6209704496671574 0  0.995886282249885 0.6205955790867598 0  0 0.6875 0  0.06240934786343953 0.6874346594029158 0  0.1248130409744496 0.6873660655518996 0  0.1872049092046872 0.687290731296169 0  0.249577605666422 0.6872046609694812 0  0.311921835981435 0.6871030233879597 0  0.3742253495564394 0.6869797252011025 0  0.4364715995026952 0.6868268300250445 0  0.4986380074018306 0.6866337477976959 0  0.5606939103813603 0.686386092569728 0  0.6225987207753271 0.6860640898070159 0  0.6843020882225885 0.6856404734134868 0  0.7457510836066916 0.6850782161471984 0  0.8069170989337182 0.6843301795122976 0  0.8678712520650315 0.6833492983783953 0  0.9289603669024994 0.6821391587140575 0  0.9911206542124302 0.6809118391095975 0  0 0.75 0  0.06241832636141308 0.7499428348192462 0  0.1248310170996515 0.7498826229264741 0  0.1872318436030494 0.7498160668909564 0  0.2496131944058183 0.7497393149306667 0  0.3119651060108424 0.7496475865015013 0  0.3742738951266123 0.7495346582482666 0  0.4365201495266681 0.7493921199886612 0  0.4986757286574179 0.7492082555515543 0  0.5606993081919844 0.7489663031372343 0  0.6225299900829506 0.7486416614572573 0  0.6840790264509278 0.748197249544457 0  0.7452222305589803 0.747575593283481 0  0.8058047694704101 0.7466854902345281 0  0.8656994018975476 0.7453831557833451 0  0.9250423581539673 0.743474190034349 0  0.98486015370264 0.7409763395175787 0  0 0.8125 0  0.06243280130760519 0.8124540343305898 0  0.1248606135688133 0.8124054860071649 0  0.1872778696896262 0.8123515391749957 0  0.2496776355814779 0.8122888567664258 0  0.3120506061978482 0.8122132178882782 0  0.3743836166877842 0.8121190059994614 0  0.4366573144829233 0.8119984463145564 0  0.4988423910203987 0.8118404239119287 0  0.5608933312690668 0.8116285858913174 0  0.6227378808813827 0.8113381654065611 0  0.6842592527421054 0.8109303524149367 0  0.745266874343414 0.8103414547938113 0  0.8054534072469616 0.8094596606834298 0  0.8643581970599673 0.8080692533341933 0  0.9214920763276355 0.8057033522557746 0  0.9776513620085561 0.8012140519548321 0  0 0.875 0  0.06245213702128741 0.8749677936769141 0  0.1249005418755227 0.8749337088431972 0  0.1873410226839186 0.874895686873297 0  0.2497682903720456 0.8748512639581262 0  0.3121751275414805 0.8747972846539234 0  0.3745511157048221 0.8747294925727663 0  0.4368805644593963 0.8746419157221444 0  0.499138986110257 0.8745259151877013 0  0.5612868489775715 0.8743686849767041 0  0.6232580620969556 0.8741508553307331 0  0.6849378633758135 0.8738425977103746 0  0.7461185440023104 0.8733969761114018 0  0.8064071177988446 0.8727368113750591 0  0.8650267389808791 0.8717199965247182 0  0.920393948632679 0.8700154517523444 0  0.9693588585911062 0.8665621212759645 0  0 0.9375 0  0.06247510435432844 0.9374834107620833 0  0.1249482144618659 0.9374658323874649 0  0.1874170826546042 0.9374461777049301 0  0.2498788532758575 0.937423138274016 0  0.3123295946435128 0.9373950268591634 0  0.3747635702618959 0.9373595516498957 0  0.4371720284561639 0.93731
[...]
<PointData  Vectors="f_95-0"> 
<DataArray  type="Float64"  Name="f_95-0"  NumberOfComponents="3" format="ascii">0.0000000000000000e+00 0.0000000000000000e+00 0.0000000000000000e+00  -5.9266759345114582e-04 2.5573734253954608e-02 0.0000000000000000e+00  -1.6777116110988288e-03 5.0430536470844174e-02 0.0000000000000000e+00  -3.0023674941179238e-03 7.0411595527675008e-02 0.0000000000000000e+00  -4.5587493334666752e-03 8.4165810958951759e-02 0.0000000000000000e+00  -6.2957051940437415e-03 9.1750139018773533e-02 0.0000000000000000e+00  -8.1661384806456221e-03 9.3953586438809300e-02 0.0000000000000000e+00  -1.0121464868834968e-02 9.1841913809635300e-02 0.0000000000000000e+00  -1.2110084928021549e-02 8.6484256611876822e-02 0.0000000000000000e+00  -1.4074042711377882e-02 7.8812134333657219e-02 0.0000000000000000e+00  -1.5945009789218648e-02 6.9569373130340756e-02 0.0000000000000000e+00  -1.7639304314869424e-02 5.9316553573159403e-02 0.0000000000000000e+00  -1.9055380438120963e-02 4.8465170293889977e-02 0.0000000000000000e+00  -2.0045422064540210e-02 3.7300774057339010e-02 0.0000000000000000e+00  -2.0414339711019469e-02 2.6071584366038365e-02 0.0000000000000000e+00  -2.0311358620944225e-02 1.4994347328165800e-02 0.0000000000000000e+00  -9.7011669314914558e-03 9.1885579851388923e-03 0.0000000000000000e+00  0.0000000000000000e+00 0.0000000000000000e+00 0.0000000000000000e+00  -5.0846836218209951e-04 2.6521470801448312e-02 0.0000000000000000e+00  -1.6286716479952086e-03 5.1675566268630478e-02 0.0000000000000000e+00  -3.0693989533132340e-03 7.1907867846710577e-02 0.0000000000000000e+00  -4.7739231345455676e-03 8.5867656494471423e-02 0.0000000000000000e+00  -6.6765287653408030e-03 9.3612119683623651e-02 0.0000000000000000e+00  -8.7250905899011067e-03 9.5928079412954767e-02 0.0000000000000000e+00  -1.0866449041025839e-02 9.3878195674834256e-02 0.0000000000000000e+00  -1.3045666528254061e-02 8.8525477442744249e-02 0.0000000000000000e+00  -1.5201415396594383e-02 8.0791378775232958e-02 0.0000000000000000e+00  -1.7261798470986019e-02 7.1405394532222943e-02 0.0000000000000000e+00  -1.9141074148982206e-02 6.0909128749266961e-02 0.0000000000000000e+00  -2.0735610380636340e-02 4.9684400786137964e-02 0.0000000000000000e+00  -2.1915795224939000e-02 3.7985015501402500e-02 0.0000000000000000e+00  -2.2580712638171817e-02 2.5959088281798590e-02 0.0000000000000000e+00  -2.2218240418079901e-02 1.3537377635724266e-02 0.0000000000000000e+00  -2.2437797284939404e-02 2.5577116107124540e-03 0.0000000000000000e+00  0.0000000000000000e+00 0.0000000000000000e+00 0.0000000000000000e+00  -4.6653391176410967e-04 2.7403690243558796e-02 0.0000000000000000e+00  -1.6930423153927094e-03 5.3066634061241312e-02 0.0000000000000000e+00  -3.4282148001326708e-03 7.3649157837458790e-02 0.0000000000000000e+00  -5.5332882207569482e-03 8.7873721704998103e-02 0.0000000000000000e+00  -7.9039851559710265e-03 9.5815009041987600e-02 0.0000000000000000e+00  -1.0464419942036077e-02 9.8266298760841281e-02 0.0000000000000000e+00  -1.3145939197330803e-02 9.6291566490391375e-02 0.0000000000000000e+00  -1.5881573844787167e-02 9.0949171397227246e-02 0.0000000000000000e+00  -1.8597974824385924e-02 8.3150619603107420e-02 0.0000000000000000e+00  -2.1210730109587118e-02 7.3611620546394682e-02 0.0000000000000000e+00  -2.3622521380054103e-02 6.2857954551563303e-02 0.0000000000000000e+00  -2.5725625467877551e-02 5.1256509742040879e-02 0.0000000000000000e+00  -2.7413676885881998e-02 3.9051179863925291e-02 0.0000000000000000e+00  -2.8583271739250033e-02 2.6390328899394147e-02 0.0000000000000000e+00  -2.9255480443328843e-02 1.3409448841194353e-02 0.0000000000000000e+00  -2.9276388850543688e-02 6.3531661571295060e-04 0.0000000000000000e+00  0.0000000000000000e+00 0.0000000000000000e+00 0.0000000000000000e+00  -5.2476697590663943e-04 2.8347303506975279e-02 0.0000000000000000e+00  -1.9862668340548967e-03 5.4733839350607882e-02 0.0000000000000000e+00  -4.1692668585685405e-03 7.5836446234762087e-02 0.0000000000000000e+00  -6.8797180064609021e-03 9.0437692238668488e-02 0.0000000000000000e+00  -9.9697577788092993e-03 9.8649932199469978e-02 0.0000000000000000e+00  -1.3328725998272582e-02 1.0128743136786240e-01 0.0000000000000000e+00  -1.6863934506670453e-02 9.9421505336363791e-02 0.0000000000000000e+00  -2.0487378982132029e-02 9.4107083594888480e-02 0.0000000000000000e+00  -2.4103753153529590e-02 8.6244613454968769e-02 0.0000000000000000e+00  -2.7604098908736947e-02 7.6535063430665490e-02 0.0000000000000000e+00  -3.0864867996806433e-02 6.5490961526806515e-02 0.0000000000000000e+00  -3.3754484550157580e-02 5.3474379661899316e-02 0.0000000000000000e+00  -3.6145066280210074e-02 4.0741823193479250e-02 0.0000000000000000e+00  -3.7940378749246044e-02 2.7490130919841670e-02 0.0000000000000000e+00  -3.9050166940003045e-02 1.3876070024379633e-02 0.0000000000000000e+00  -3.9396049833947351e-02 1.4698997364841164e-04 0.0000000000000000e+00  0.0000000000000000e+00 0.0000000000000000e+00 0.0000000000000000e+00  -6.4734958297532987e-04 2.9485170260382568e-02 0.0000000000000000e+00  -2.4716278188367455e-03 5.6817257468904252e-02 0.0000000000000000e+00  -5.2416898828090037e-03 7.8637066575139095e-02 0.0000000000000000e+00  -8.7249002833931950e-03 9.3765773688258683e-02 0.0000000000000000e+00  -1.2735026457016308e-02 1.0236136126788785e-01 0.0000000000000000e+00  -1.7127813849727218e-02 1.0526862442068359e-01 0.0000000000000000e+00  -2.1782983304623010e-02 1.0357082781263141e-01 0.0000000000000000e+00  -2.6584774427114089e-02 9.8319174124943842e-02 0.0000000000000000e+00  -3.1406321900371272e-02 9.0399513303818138e-02 0.0000000000000000e+00  -3.6100713607416395e-02 8.0493605859816769e-02 0.0000000000000000e+00  -4.0499396107442354e-02 6.9097721936459203e-02 0.0000000000000000e+00  -4.4419325378756411e-02 5.6569321765842055e-02 0.0000000000000000e+00  -4.7678318227936389e-02 4.3180668473808671e-02 0.0000000000000000e+00  -5.0115422022028566e-02 2.9161142049464496e-02 0.0000000000000000e+00  -5.1595801637486387e-02 1.4714936033668939e-02 0.0000000000000000e+00  -5.2058640972057924e-02 -3.7750881393339630e-05 0.0000000000000000e+00  0.0000000000000000e+00 0.0000000000000000e+00 0.0000000000000000e+00  -8.0860744275734232e-04 3.0903924093288168e-02 0.0000000000000000e+00  -3.0789160719287291e-03 5.9430520907293879e-02 0.0000000000000000e+00  -6.5353555868622711e-03 8.2182093953775334e-02 0.0000000000000000e+00  -1.0910141315132417e-02 9.8016292570548558e-02 0.0000000000000000e+00  -1.5986902902046622e-02 1.0714108347461186e-01 0.0000000000000000e+00  -2.1594517254318754e-02 1.1043614635222128e-01 0.0000000000000000e+00  -2.7585816917238024e-02 1.0899720229928522e-01 0.0000000000000000e+00  -3.3813493245281809e-02 1.0386765924843766e-01 0.0000000000000000e+00  -4.0110964669772306e-02 9.5911345381877178e-02 0.0000000000000000e+00  -4.6280481475058158e-02 8.5781495638737354e-02 0.0000000000000000e+00  -5.2089683549420264e-02 7.3948190268230352e-02 0.0000000000000000e+00  -5.7278490492094651e-02 6.0755171817451652e-02 0.0000000000000000e+00  -6.1576784836878014e-02 4.6483465954817310e-02 0.0000000000000000e+00  -6.4738273832592855e-02 3.1400912501744378e-02 0.0000000000000000e+00  -6.6575842322238232e-02 1.5770985575102536e-02 0.0000000000000000e+00  -6.7050337506232266e-02 -2.2612882456128806e-04 0.0000000000000000e+00  0.0000000000000000e+00 0.0000000000000000e+00 0.0000000000000000e+00  -9.8494063568256855e-04 3.2652067335480935e-02 0.0000000000000000e+00  -3.7335960124160084e-03 6.2639946865247181e-02 0.0000000000000000e+00  -7.9174795795740483e-03 8.6550752852298046e-02 0.0000000000000000e+00  -1.3240153394134443e-02 1.0329065352276136e-01 0.0000000000000000e+00  -1.9466729311142173e-02 1.1312260349675160e-01 0.0000000000000000e+00  -2.6408472393257710e-02 1.1696098929432719e-01 0.0000000000000000e+00  -3.3894979014755605e-02 1.1590907202400605e-01 0.0000000000000000e+00  -4.1745892392289832e-02 1.1099374188281262e-01 0.0000000000000000e+00  -4.9748822128159995e-02 1.0304520891838125e-01 0.0000000000000000e+00  -5.7644882087400290e-02 9.2673868206858967e-02 0.0000000000000000e+00  -6.5122316030314514e-02 8.0306789512375937e-02 0.0000000000000000e+00  -7.1820625831005389e-02 6.6257066705887616e-02 0.0000000000000000e+00  -7.7350796647145392e-02 5.0804198914946704e-02 0.0000000000000000e+00  -8.1344520459053479e-02 3.4261848141119218e-02 0.0000000000000000e+00  -8.3523578713922242e-02 1.7006426117584385e-02 0.0000000000000000e+00  -8.3845355943007904e-02 -6.4404737141227867e-04 0.0000000000000000e+00  0.0000000000000000e+00 0.0000000000000000e+00 0.0000000000000000e+00  -1.1540485691275805e-03 3.4735774766393543e-02 0.0000000000000000e+00  -4.3591649119814561e-03 6.6451097183634178e-02 0.0000000000000000e+00  -9.2419083913071760e-03 9.1754914418993722e-02 0.0000000000000000e+00  -1.5493148186301906e-02 1.0962068775484690e-01 0.0000000000000000e+00  -2.2875779736007847e-02 1.2037050873555009e-01 0.0000000000000000e+00  -3.1195008862457414e-02 1.2494814328563357e-01 0.0000000000000000e+00  -4.0262513555098377e-02 1.2445377488284226e-01 0.0000000000000000e+00  -4.9864843205856567e-02 1.1988461717802328e-01 0.0000000000000000e+00  -5.9740366729135852e-02 1.1202220319576893e-01 0.0000000000000000e+00  -6.9563254822495008e-02 1.0141617488440995e-01 0.0000000000000000e+00  -7.8932545018420092e-02 8.8428977907049983e-02 0.0000000000000000e+00  -8.7369794450580518e-02 7.3317478632694597e-02 0.0000000000000000e+00  -9.4335391555182196e-02 5.6334588430429725e-02 0.0000000000000000e+00  -9.9283871007301322e-02 3.7835787378300845e-02 0.0000000000000000e+00  -1.0177054106855073e-01 1.8354509005930150e-02 0.0000000000000000e+00  -1.0167195827720393e-01 -1.5452382071218264e-03 0.0000000000000000e+00  0.0000000000000000e+00 0.0000000000000000e+00 0.0000000000000000e+00  -1.2929933971523645e-03 3.7119177654525742e-02 0.0000000000000000e+00  -4.8743580546511869e-03 7.0802619125739874e-02 0.0000000000000000e+00  -1.0348614320717150e-02 9.7727411511648640e-02 0.0000000000000000e+00  -1.7419975699351272e-02 1.1695419445870567e-01 0.0000000000000000e+00  -2.5870337940808046e-02 1.2886361562446497e-01 0.0000000000000000e+00  -3.5512229483159123e-02 1.3441646541721744e-01 0.0000000000000000e+00  -4.6145157651812090e-02 1.3469309527598500e-01 0.0000000000000000e+00  -5.7523352269736705e-02 1.3064414178461004e-01 0.0000000000000000e+00  -6.9335323217378564e-02 1.2298635150911466e-01 0.0000000000000000e+00  -8.1188088259812913e-02 1.1219151503864500e-01 0.0000000000000000e+00  -9.2593048535123540e-02 9.8532951627609569e-02 0.0000000000000000e+00  -1.0295118556395076e-01 8.2172046950184832e-02 0.0000000000000000e+00  -1.1154772607897552e-01 6.3289385468659004e-02 0.0000000000000000e+00  -1.1759245599438334e-01 4.2253520404980892e-02 0.0000000000000000e+00  -1.2036385317097707e-01 1.9772577666440656e-02 0.0000000000000000e+00  -1.1950904291061949e-01 -3.2254267123422256e-03 0.0000000000000000e+00  0.0000000000000000e+00 0.0000000000000000e+00 0.0000000000000000e+00  -1.3777362987107519e-03 3.9721904040862538e-02 0.0000000000000000e+00  -5.1934719087004481e-03 7.5559763155061813e-02 0.0000000000000000e+00  -1.1065887904489520e-02 1.0431080999744252e-01 0.0000000000000000e+00  -1.8746528363818793e-02 1.2513833031056565e-01 0.0000000000000000e+00  -2.8060799276723447e-02 1.3847205648395350e-01 0.0000000000000000e+00  -3.8842388409139519e-02 1.4526829027676774e-01 0.0000000000000000e+00  -5.0883784136596208e-02 1.4656415438827775e-01 0.0000000000000000e+00  -6.3907726538837931e-02 1.4324439403826694e-01 0.0000000000000000e+00  -7.7553873066535342e-02 1.3594752992921974e-01 0.0000000000000000e+00  -9.1369587747035838e-02 1.2505539665220541e-01 0.0000000000000000e+00  -1.0479827930187646e-01 1.1073096059435332e-01 0.0000000000000000e+00  -1.1713916059876356e-01 9.3004431647942545e-02 0.0000000000000000e+00  -1.2750955009221562e-01 7.1920322861756480e-02 0.0000000000000000e+00  -1.3483083695996428e-01 4.7750551687706727e-02 0.0000000000000000e+00  -1.3795820866635797e-01 2.1306006776697320e-02 0.0000000000000000e+00  -1.3605588505339947e-01 -5.9398803592773421e-03 0.0000000000000000e+00  0.0000000000000000e+00 0.0000000000000000e+00 0.0000000000000000e+00  -1.3856745498674267e-03 4.2418625821514358e-02 0.0000000000000000e+00  -5.2348561635804734e-03 8.0512210535646653e-02 0.0000000000000000e+00  -1.1225282710737612e-02 1.1124964793178885e-01 0.0000000000000000e+00  -1.9192505855368542e-02 1.3390302859533959e-01 0.0000000000000000e+00  -2.9029857869768444e-02 1.4892989283387550e-01 0.0000000000000000e+00  -4.0604954618939870e-02 1.5725002329083329e-01 0.0000000000000000e+00  -5.3707445720124564e-02 1.5982714881687840e-01 0.0000000000000000e+00  -6.8028706799121194e-02 1.5745956602408670e-01 0.0000000000000000e+00  -8.3161748308290068e-02 1.5069897092272314e-01 0.0000000000000000e+00  -9.8609784623121005e-02 1.3983746902831601e-01 0.0000000000000000e+00  -1.1377856410929732e-01 1.2493201571548214e-01 0.0000000000000000e+00  -1.2792202662854807e-01 1.0585941458012893e-01 0.0000000000000000e+00  -1.4008806814432681e-01 8.2408724148138920e-02 0.0000000000000000e+00  -1.4891435807654352e-01 5.4574724018278967e-02 0.0000000000000000e+00  -1.5267828986733908e-01 2.3150353012024515e-02 0.0000000000000000e+00  -1.4960565749320701e-01 -9.7452014991059998e-03 0.0000000000000000e+00  0.0000000000000000e+00 0.0000000000000000e+00 0.0000000000000000e+00  -1.3028128284116570e-03 4.5046984195763931e-02 0.0000000000000000e+00  -4.9426739814202592e-03 8.5382782171115057e-02 0.0000000000000000e+00  -1.0697637055826510e-02 1.1819137002238086e-01 0.0000000000000000e+00  -1.8517229024921228e-02 1.4284863719219770e-01 0.0000000000000000e+00  -2.8382926999561162e-02 1.5980710506723123e-01 0.0000000000000000e+00  -4.0207486090271104e-02 1.6990818192580295e-01 0.0000000000000000e+00  -5.3782176745108885e-02 1.7400586924112141e-01 0.0000000000000000e+00  -6.8768191390591704e-02 1.7279009817652050e-01 0.0000000000000000e+00  -8.4716280369651439e-02 1.6672256777420744e-01 0.0000000000000000e+00  -1.0109859873350903e-01 1.5602482836886752e-01 0.0000000000000000e+00  -1.1731615008297630e-01 1.4068063530749725e-01 0.0000000000000000e+00  -1.3269692178754453e-01 1.2042002721327449e-01 0.0000000000000000e+00  -1.4637131219817254e-01 9.4765722458677912e-02 0.0000000000000000e+00  -1.5682427056999582e-01 6.3333109795561560e-02 0.0000000000000000e+00  -1.6194017678101438e-01 2.6297762263487408e-02 0.0000000000000000e+00  -1.5845484867106499e-01 -1.4092875885136484e-02 0.0000000000000000e+00  0.0000000000000000e+00 0.0000000000000000e+00 0.0000000000000000e+00  -1.1370795299544603e-03 4.7433039497635159e-02 0.0000000000000000e+00  -4.3244189937893781e-03 8.9856327425737223e-02 0.0000000000000000e+00  -9.4523589159109418e-03 1.2470327174987970e-01 0.0000000000000000e+00  -1.6595629029548628e-02 1.5144426725108037e-01 0.0000000000000000e+00  -2.5837037397451284e-02 1.7048816967935818e-01 0.0000000000000000e+00  -3.7145528993304297e-02 1.8254996373161669e-01 0.0000000000000000e+00  -5.0322709733148965e-02 1.8833334931558948e-01 0.0000000000000000e+00  -6.5007747241471209e-02 1.8839609400309879e-01 0.0000000000000000e+00  -8.0717479907981213e-02 1.8310874951494199e-01 0.0000000000000000e+00  -9.6899411469451080e-02 1.7264948201282307e-01 0.0000000000000000e+00  -1.1298549061936354e-01 1.5698884339970282e-01 0.0000000000000000e+00  -1.2845859988715033e-01 1.3584326636671792e-01 0.0000000000000000e+00  -1.4265733193162583e-01 1.0861077582834980e-01 0.0000000000000000e+00  -1.5465844742375875e-01 7.4072532913500119e-02 0.0000000000000000e+00  -1.6234736858080254e-01 3.0890918016901612e-02 0.0000000000000000e+00  -1.6068431990666612e-01 -1.7184724078924858e-02 0.0000000000000000e+00  0.0000000000000000e+00 0.0000000000000000e+00 0.0000000000000000e+00  -9.3594662979436998e-04 4.9440877648187734e-02 0.0000000000000000e+00  -3.4931933684359279e-03 9.3633278364780831e-02 0.0000000000000000e+00  -7.6217339443969637e-03 1.3030998940336605e-01 0.0000000000000000e+00  -1.3506235688451796e-02 1.5904559966320811e-01 0.0000000000000000e+00  -2.1337320670539894e-02 1.8017067934225037e-01 0.0000000000000000e+00  -3.1152086176533363e-02 1.9422573591657108e-01 0.0000000000000000e+00  -4.2780124601074124e-02 2.0172458307367036e-01 0.0000000000000000e+00  -5.5862385481454599e-02 2.0306891835593577e-01 0.0000000000000000e+00  -6.9905304117469022e-02 1.9853182339749662e-01 0.0000000000000000e+00  -8.4349600931655874e-02 1.8826354218002417e-01 0.0000000000000000e+00  -9.8662420407489668e-02 1.7228621082289541e-01 0.0000000000000000e+00  -1.1240981425268237e-01 1.5045349252732862e-01 0.0000000000000000e+00  -1.2531302459140453e-01 1.2224091173586341e-01 0.0000000000000000e+00  -1.3775555360821296e-01 8.6386455826567066e-02 0.0000000000000000e+00  -1.4842543282166573e-01 4.0430935428105684e-02 0.0000000000000000e+00  -1.5002376032996467e-01 -1.5258578018765040e-02 0.0000000000000000e+00  0.0000000000000000e+00 0.0000000000000000e+00 0.0000000000000000e+00  -7.8530063483196006e-04 5.1048350310249076e-02 0.0000000000000000e+00  -2.6594525438404641e-03 9.6495980257895866e-02 0.0000000000000000e+00  -5.4961275877532809e-03 1.3455275795510319e-01 0.0000000000000000e+00  -9.5640692297946084e-03 1.6495128438848372e-01 0.0000000000000000e+00  -1.5155358349057402e-02 1.8791472622961122e-01 0.0000000000000000e+00  -2.2377485473520781e-02 2.0377070792372898e-01 0.0000000000000000e+00  -3.1112889706491377e-02 2.1281731699456288e-01 0.0000000000000000e+00  -4.1051656658681095e-02 2.1528531679285048e-01 0.0000000000000000e+00  -5.1749229674909643e-02 2.1133944949953726e-01 0.0000000000000000e+00  -6.2694102272106825e-02 2.0109320000218797e-01 0.0000000000000000e+00  -7.3384637930464153e-02 1.8462416113803698e-01 0.0000000000000000e+00  -8.3411979487064566e-02 1.6195928623504366e-01 0.0000000000000000e+00  -9.2791870222174722e-02 1.3299892853920453e-01 0.0000000000000000e+00  -1.0203000636042112e-01 9.7498783441835241e-02 0.0000000000000000e+00  -1.1172553234578428e-01 5.4114631248062796e-02 0.0000000000000000e+00  -1.2856554090741107e-01 1.5856834973758550e-03 0.0000000000000000e+00  0.0000000000000000e+00 0.0000000000000000e+00 0.0000000000000000e+00  -7.0475598477910402e-04 5.2323316939991128e-02 0.0000000000000000e+00  -1.8769198697224654e-03 9.8301889682817473e-02 0.0000000000000000e+00  -3.2480827856513975e-03 1.3706924512446658e-01 0.0000000000000000e+00  -5.1407965809544777e-03 1.6854170499078186e-01 0.0000000000000000e+00  -7.8640325876713959e-03 1.9280721660335634e-01 0.0000000000000000e+00  -1.1548358730297376e-02 2.0997899605708673e-01 0.0000000000000000e+00  -1.6145640501651307e-02 2.2015505301689220e-01 0.0000000000000000e+00  -2.1464944409769360e-02 2.2341154946196259e-01 0.0000000000000000e+00  -2.7217076311562362e-02 2.1980768500289266e-01 0.0000000000000000e+00  -3.3056543042670285e-02 2.0939696798705651e-01 0.0000000000000000e+00  -3.8614713836161364e-02 1.9224292498777990e-01 0.0000000000000000e+00  -4.3572363475205968e-02 1.6842971799927012e-01 0.0000000000000000e+00  -4.7750612636563244e-02 1.3814923132699314e-01 0.0000000000000000e+00  -5.1019210834310873e-02 1.0170770722903483e-01 0.0000000000000000e+00  -5.5613539417793290e-02 5.9817790264524960e-02 0.0000000000000000e+00  -4.9565790438162324e-02 7.1399050591769170e-03 0.0000000000000000e+00  0.0000000000000000e+00 3.4187320738833881e-18 0.0000000000000000e+00  0.0000000000000000e+00 5.3017210105430639e-02 0.0000000000000000e+00  0.0000000000000000e+00 9.8965458863470523e-02 0.0000000000000000e+00  0.0000000000000000e+00 1.3784474627411966e-01 0.0000000000000000e+00  0.0000000000000000e+00 1.6965507233737803e-01 0.0000000000000000e+00  0.0000000000000000e+00 1.9439643705324569e-01 0.0000000000000000e+00  0.0000000000000000e+00 2.1206884042172255e-01 0.0000000000000000e+00  0.0000000000000000e+00 2.2267228244280865e-01 0.0000000000000000e+00  0.0000000000000000e+00