<?xml version="1.0"?>
<VTKFile type="UnstructuredGrid"  version="0.1"  >
<UnstructuredGrid>
<Piece  NumberOfPoints="289" NumberOfCells="512">
<Points>
<DataArray  type="Float64"  NumberOfComponents="3"  format="ascii">0 0 0  0.0625 0 0  0.125 0 0  0.1875 0 0  0.25 0 0  0.3125 0 0  0.375 0 0  0.4375 0 0  0.5 0 0  0.5625 0 0  0.625 0 0  0.6875 0 0  0.75 0 0  0.8125 0 0  0.875 0 0  0.9375 0 0  1 0 0  0 0.0625 0  0.0625809339043561 0.06249112173061816 0  0.1251645725201708 0.06248204490115217 0  0.1877536882406568 0.06247257926841852 0  0.2503511526116086 0.06246255541392162 0  0.3129599791944656 0.06245183923086364 0  0.3755833590814198 0.06244035103392181 0  0.4382246930714824 0.06242808991071653 0  0.5008876394956363 0.0624151623147207 0  0.5635762376252645 0.06240181045486764 0  0.6262952779865808 0.06238842878690423 0  0.6890514022769109 0.06237554060592915 0  0.7518563283250483 0.06236366401608494 0  0.8147364303098379 0.06235286024931737 0  0.8777622619724224 0.06234124490288014 0  0.9411445763844439 0.06231962169015998 0  1.005570866512887 0.06225038807275675 0  0 0.125 0  0.06265923493865329 0.1249824368946751 0  0.1253238485319527 0.1249644662043511 0  0.1879993601103676 0.1249456953345792 0  0.25069150226536 0.1249257699016096 0  0.3134063144899386 0.124904401324398 0  0.3761502202739035 0.1248814044162946 0  0.4389300882659594 0.1248567471693384 0  0.5017532936103781 0.1248306126357232 0  0.564627836245488 0.1248034679595405 0  0.6275626712809795 0.1247761265430322 0  0.6905686284471451 0.1247497750439947 0  0.7536607488011974 0.1247259240914087 0  0.8168635616505647 0.1247062814272901 0  0.8802206943952687 0.1246929152875326 0  0.9438016666036178 0.1246911387877587 0  1.007641017798782 0.1247276429856287 0  0 0.1875 0  0.06273222290215894 0.1874741557382666 0  0.1254724101007233 0.1874476765265635 0  0.1882287457861051 0.1874199457812347 0  0.2510097622763466 0.1873903954820146 0  0.3138244955204109 0.1873585436980295 0  0.3766826127352228 0.1873240484626053 0  0.4395945004906646 0.1872867831867199 0  0.5025713026139313 0.187246937091957 0  0.5656249029516154 0.1872051396211532 0  0.6287678569271404 0.187162598011743 0  0.6920132631887336 0.187121218217232 0  0.7553744107274258 0.1870836433250011 0  0.818863283353367 0.1870530646947091 0  0.8824842484382576 0.1870324078943261 0  0.9462112053232503 0.1870213343010821 0  1.009920733779962 0.1870034896644358 0  0 0.25 0  0.06279731282270973 0.249966506593702 0  0.1256050196206031 0.2499321282109441 0  0.1884338202337376 0.2498959965882356 0  0.2512949235549318 0.2498572914385577 0  0.314200281905593 0.2498152822895429 0  0.3771627902463288 0.2497693934481528 0  0.4401964249476144 0.2497193016791901 0  0.5033162799801854 0.249665076591438 0  0.5665384257935947 0.2496073720432297 0  0.6298794458477174 0.2495476704110802 0  0.693355340817089 0.2494885653564777 0  0.756979092418997 0.2494340336143168 0  0.8207552543474063 0.2493895755428394 0  0.884668052620595 0.2493619764375029 0  0.9486567826767103 0.2493583284661101 0  1.012572923250941 0.2493848530255299 0  0 0.3125 0  0.06285208024003844 0.3124597400473438 0  0.1257167481578044 0.3124183235160998 0  0.188606989236484 0.3123746022477252 0  0.251536487022559 0.3123274607147001 0  0.3145199588198455 0.3122758535808569 0  0.3775734613863221 0.3122188721666292 0  0.4407146362686367 0.3121558545272083 0  0.5039628369875567 0.3120865578657335 0  0.5673390275967672 0.3120114159118738 0  0.6308652388815675 0.3119319056328018 0  0.694563166565753 0.3118510429096892 0  0.7584511177658617 0.3117740078880218 0  0.8225378837006802 0.3117088571956388 0  0.8868113681626351 0.3116672106268935 0  0.9512199260952406 0.3116647570644454 0  1.015648528526848 0.3117215731285943 0  0 0.375 0  0.06289433839940999 0.3749541277180025 0  0.1258031293681675 0.3749068138851632 0  0.1887413178508665 0.3748566093358467 0  0.2517247589204999 0.374802064565578 0  0.3147706775714332 0.3747417514995872 0  0.3778981217859794 0.3746743167517451 0  0.4411283881921648 0.3745985855257485 0  0.5044853742246287 0.3745137438479311 0  0.5679957623166917 0.3744196384063698 0  0.6316888505000156 0.3743172473214998 0  0.6955956785814447 0.3742093887174087 0  0.7597468253645321 0.3741017388212379 0  0.8241678818169433 0.3740042099814201 0  0.888871347635618 0.3739326611001715 0  0.9538442630056629 0.3739107343070558 0  1.01903362314483 0.373971248753238 0  0 0.4375 0  0.0629222287653716 0.4374499539628679 0  0.1258603432686072 0.4373981845225511 0  0.1888308121895471 0.4373429368144587 0  0.2518512348487521 0.4372824043566376 0  0.3149409399316372 0.4372147215950008 0  0.3781216185089276 0.4371379848120488 0  0.4414179956857108 0.4370503223438875 0  0.5048585347115943 0.4369500478811615 0  0.5684761464619783 0.4368359504968349 0  0.6323088358101899 0.4367078040851662 0  0.6964001372672993 0.4365672174432393 0  0.7607990525617515 0.4364189876353221 0  0.8255589940968637 0.4362731381793404 0  0.8907350335159274 0.4361477556135064 0  0.9563788422310588 0.4360724646045108 0  1.022531668247106 0.4360917904371622 0  0 0.5 0  0.06293432279610779 0.4999474993800574 0  0.125885426703353 0.4998930214691177 0  0.188870752779144 0.4998345273496093 0  0.2519090778331804 0.4997698597046707 0  0.3150212504638494 0.4996966930001783 0  0.378231013248987 0.4996125011134325 0  0.4415659505883699 0.4995145603330631 0  0.5050586156477398 0.4994000208179117 0  0.5687479150047122 0.4992661057467096 0  0.6326808725692334 0.4991105409309118 0  0.696914960109602 0.4989323862506442 0  0.7615212607047787 0.4987335370165262 0  0.8265887696911068 0.4985212661415689 0  0.89223000008458 0.4983121827711732 0  0.9585875895536856 0.4981375872274542 0  1.025841141826108 0.4980487713603486 0  0 0.5625 0  0.06292972830452459 0.5624470160675058 0  0.1258764969948376 0.5623918605426692 0  0.1888580588885628 0.5623322671195108 0  0.2518936626946619 0.5622657760383871 0  0.3150049027349672 0.5621896323930914 0  0.378216705829557 0.5621006825614051 0  0.4415585303843088 0.5619952772025009 0  0.5050658934379869 0.5618692026791623 0  0.5687824208104013 0.5617176892174949 0  0.6327627686515526 0.5615355950722473 0  0.6970770486394078 0.5613179611747786 0  0.7618178712035002 0.5610612991548015 0  0.8271118035880012 0.5607662386429996 0  0.8931376370630525 0.5604424385173601 0  0.9601534747151433 0.5601164514171301 0  1.028532324781887 0.5598408095967974 0  0 0.625 0  0.062908189177486 0.6249486962282561 0  0.1258329648888211 0.6248951209718566 0  0.1887916439481933 0.624836877250085 0  0.2518031246943497 0.6247713029787278 0  0.3148888044516147 0.6246953154371958 0  0.3780736716685409 0.6246052280125746 0  0.4413876720698149 0.6244965316292403 0  0.5048675069006097 0.6243636391128414 0  0.5685591421733586 0.6241996070599511 0  0.6325215628066627 0.6239958906739383 0  0.6968328445922997 0.6237422841412266 0  0.7616007196768981 0.6234274219359215 0  0.826981880772326 0.6230407030741812 0  0.8932174601912487 0.6225774332772339 0  0.9606948448636229 0.622050050650634 0  1.030042713074196 0.6215057662292124 0  0 0.6875 0  0.06287016412093836 0.6874526376816242 0  0.1257557057654361 0.687403030924023 0  0.1886727088123631 0.6873487877056255 0  0.2516388264407418 0.6872871974062205 0  0.3146742034934313 0.6872150304235187 0  0.3778025887642393 0.6871282826573125 0  0.4410527410891052 0.6870218372397988 0  0.5044602900191559 0.6868890084595294 0  0.5680703329507621 0.6867209265977712 0  0.631941330279392 0.6865057264398334 0  0.6961515431270719 0.6862275453791136 0  0.7608109571577937 0.6858655101606604 0  0.8260857584815743 0.6853934806436786 0  0.8922515594077355 0.6847831869385567 0  0.9598071953497997 0.6840186078172669 0  1.029688552328859 0.6831373513302867 0  0 0.75 0  0.06281686956257829 0.7499588117203899 0  0.1256471567711039 0.7499155565069422 0  0.1885049170537506 0.7498680127249384 0  0.2514056523201079 0.7498136197019116 0  0.3143671677380669 0.7497492538357706 0  0.3774106100829678 0.7496709280969197 0  0.440561776546828 0.7495733688431254 0  0.5038528156636735 0.7494494009987649 0  0.567324506226798 0.749289036623187 0  0.6310294592674266 0.7490781070387994 0  0.6950370659287332 0.7487962020241452 0  0.7594425828019129 0.7484136067336876 0  0.8243879834617179 0.7478870567001011 0  0.8901191463968483 0.7471556127740635 0  0.9571530108740148 0.7461470041063134 0  1.026706091571878 0.7448516796902088 0  0 0.8125 0  0.06275027434388977 0.8124670399410271 0  0.1255113130355625 0.8124323488444145 0  0.1882944064759774 0.8123940532834498 0  0.2511120575068478 0.8123499644302813 0  0.3139787037307158 0.8122973623447893 0  0.3769115948093446 0.8122326960736764 0  0.4399318893201107 0.8121511437808743 0  0.5030660362044819 0.8120459432571409 0  0.566347482172188 0.8119073437541684 0  0.6298186673478999 0.8117209236892455 0  0.6935331173785009 0.8114648200226938 0  0.7575574333722065 0.8111050201806799 0  0.8219749253867311 0.8105870373007271 0  0.8869069447137586 0.8098206607630343 0  0.9526503747462047 0.8086540669664667 0  1.020496603479053 0.8068794653378317 0  0 0.875 0  0.06267303900389598 0.8749769865363984 0  0.1253536074456728 0.8749527239712022 0  0.1880496111346941 0.8749258535934133 0  0.2507698336737464 0.8748947721306923 0  0.3135244631394349 0.8748574603699451 0  0.3763257350045185 0.8748112391262953 0  0.43918873448847 0.8747524015208895 0  0.5021323851840058 0.8746756362818829 0  0.5651805753515456 0.8745730943862092 0  0.6283631196315967 0.8744328351038475 0  0.6917154876986382 0.8742361600776758 0  0.7552740417141366 0.8739528506245193 0  0.8190576419493173 0.8735320253967498 0  0.8830129856066721 0.8728819239488255 0  0.9468891762228353 0.8718129888196446 0  1.010200997697921 0.8698130026798134 0  0 0.9375 0  0.06258839922101568 0.9374881706678988 0  0.1251806728503799 0.9374756864715138 0  0.1877808924189828 0.9374618328688633 0  0.2503935927436724 0.9374457615922965 0  0.3130240526925985 0.9374263955410403 0  0.375678641811998 0.9374022913721884 0  0.4383652586137254 0.9373714
[...]
<PointData  Vectors="f_95-0"> 
<DataArray  type="Float64"  Name="f_95-0"  NumberOfComponents="3" format="ascii">0.0000000000000000e+00 0.0000000000000000e+00 0.0000000000000000e+00  5.1678512741932462e-04 3.5126631503597475e-02 0.0000000000000000e+00  1.4142132173521054e-03 5.3046771582713703e-02 0.0000000000000000e+00  2.4511391925782326e-03 5.9318876766713498e-02 0.0000000000000000e+00  3.6384702169954034e-03 5.8263576977059736e-02 0.0000000000000000e+00  4.9471045522845817e-03 5.3170087850981769e-02 0.0000000000000000e+00  6.3392343562643427e-03 4.6318615860166112e-02 0.0000000000000000e+00  7.7627687749576109e-03 3.9131320623636660e-02 0.0000000000000000e+00  9.1550245239678599e-03 3.2371793865079559e-02 0.0000000000000000e+00  1.0446489590063912e-02 2.6346273769820416e-02 0.0000000000000000e+00  1.1563682027292658e-02 2.1077400547717291e-02 0.0000000000000000e+00  1.2430476205651879e-02 1.6439579311029184e-02 0.0000000000000000e+00  1.2969526771820046e-02 1.2254212641584911e-02 0.0000000000000000e+00  1.3090749834741745e-02 8.3602934589443526e-03 0.0000000000000000e+00  1.2682687371396367e-02 4.6312432385025963e-03 0.0000000000000000e+00  1.1752510035926974e-02 9.5751252306604359e-04 0.0000000000000000e+00  4.9662329544790367e-03 -4.8202028766295892e-03 0.0000000000000000e+00  0.0000000000000000e+00 0.0000000000000000e+00 0.0000000000000000e+00  3.7685642903943789e-04 3.4383337911474326e-02 0.0000000000000000e+00  1.1406505964205705e-03 5.2123583096589370e-02 0.0000000000000000e+00  2.0535452647846104e-03 5.8225876062857999e-02 0.0000000000000000e+00  3.1127929293102573e-03 5.7013587983707217e-02 0.0000000000000000e+00  4.2916016038937943e-03 5.1793459313635000e-02 0.0000000000000000e+00  5.5557269460011893e-03 4.4865135675063672e-02 0.0000000000000000e+00  6.8535704561359960e-03 3.7664180260030551e-02 0.0000000000000000e+00  8.1236971584178405e-03 3.0961600619369423e-02 0.0000000000000000e+00  9.2990348445174970e-03 2.5066481669076393e-02 0.0000000000000000e+00  1.0310208480601196e-02 2.0001444392148682e-02 0.0000000000000000e+00  1.1087995967788374e-02 1.5639526885861128e-02 0.0000000000000000e+00  1.1564737673421210e-02 1.1802987754876279e-02 0.0000000000000000e+00  1.1673746911587431e-02 8.3298441677277374e-03 0.0000000000000000e+00  1.1384491276252377e-02 5.1137843231994313e-03 0.0000000000000000e+00  1.0548752638496982e-02 2.1726006635432418e-03 0.0000000000000000e+00  1.0098638087537496e-02 -1.3829364359181377e-03 0.0000000000000000e+00  0.0000000000000000e+00 0.0000000000000000e+00 0.0000000000000000e+00  1.5051261057404821e-04 3.3938967615102657e-02 0.0000000000000000e+00  5.5520592816118508e-04 5.1470123785397129e-02 0.0000000000000000e+00  1.1230325513719986e-03 5.7401868715241590e-02 0.0000000000000000e+00  1.8449575038300202e-03 5.6026071792678878e-02 0.0000000000000000e+00  2.6965294193246670e-03 5.0670978502405463e-02 0.0000000000000000e+00  3.6425707064984885e-03 4.3658199906480163e-02 0.0000000000000000e+00  4.6309796439255998e-03 3.6436131891345966e-02 0.0000000000000000e+00  5.6029742028023636e-03 2.9780962591130174e-02 0.0000000000000000e+00  6.4979856000876432e-03 2.4001453607029814e-02 0.0000000000000000e+00  7.2579238819118390e-03 1.9116266981537473e-02 0.0000000000000000e+00  7.8305200175667489e-03 1.4991772800209493e-02 0.0000000000000000e+00  8.1737271717943639e-03 1.1439756718887053e-02 0.0000000000000000e+00  8.2669995081820942e-03 8.2789683538766114e-03 0.0000000000000000e+00  8.1251033454944072e-03 5.3631365307334096e-03 0.0000000000000000e+00  7.8685455448222284e-03 2.5414622588613694e-03 0.0000000000000000e+00  7.5082562837783078e-03 -4.1043690359559827e-04 0.0000000000000000e+00  0.0000000000000000e+00 0.0000000000000000e+00 0.0000000000000000e+00  -6.4346884712719788e-05 3.3862596318613353e-02 0.0000000000000000e+00  -9.8314325090397426e-05 5.1237152422458694e-02 0.0000000000000000e+00  4.7629165326043891e-07 5.6989464226206800e-02 0.0000000000000000e+00  2.6264869895281336e-04 5.5435901688445754e-02 0.0000000000000000e+00  6.7229085386032389e-04 4.9934598894750465e-02 0.0000000000000000e+00  1.1893398623719221e-03 4.2828455108597292e-02 0.0000000000000000e+00  1.7594842509303171e-03 3.5575775855345604e-02 0.0000000000000000e+00  2.3265796270153217e-03 2.8953287773902631e-02 0.0000000000000000e+00  2.8388271681673454e-03 2.3264144466528563e-02 0.0000000000000000e+00  3.2530103414082014e-03 1.8517578677590810e-02 0.0000000000000000e+00  3.5371945353301630e-03 1.4567223969412938e-02 0.0000000000000000e+00  3.6741414786831978e-03 1.1207083397022496e-02 0.0000000000000000e+00  3.6658204980527932e-03 8.2288440423578090e-03 0.0000000000000000e+00  3.5391187191981983e-03 5.4428144888086973e-03 0.0000000000000000e+00  3.3197760975331760e-03 2.6904500193989781e-03 0.0000000000000000e+00  3.0236478336359081e-03 -1.3783483382711037e-04 0.0000000000000000e+00  0.0000000000000000e+00 0.0000000000000000e+00 0.0000000000000000e+00  -2.5921423250374126e-04 3.4141840362906489e-02 0.0000000000000000e+00  -7.2117126545015475e-04 5.1478771536573265e-02 0.0000000000000000e+00  -1.1227933862490225e-03 5.7068343510308664e-02 0.0000000000000000e+00  -1.3718769188945203e-03 5.5328757189929634e-02 0.0000000000000000e+00  -1.4693939705699081e-03 4.9672624153749283e-02 0.0000000000000000e+00  -1.4581888925692505e-03 4.2468013314681814e-02 0.0000000000000000e+00  -1.3941166297791255e-03 3.5178979784816405e-02 0.0000000000000000e+00  -1.3288565095553886e-03 2.8576095835653795e-02 0.0000000000000000e+00  -1.3021115437832737e-03 2.2950353046984430e-02 0.0000000000000000e+00  -1.3387467156294162e-03 1.8296239925516183e-02 0.0000000000000000e+00  -1.4487522532017978e-03 1.4451511180428984e-02 0.0000000000000000e+00  -1.6288512517058900e-03 1.1193708097881443e-02 0.0000000000000000e+00  -1.8661572414623647e-03 8.2991856467223811e-03 0.0000000000000000e+00  -2.1505263553765154e-03 5.5752572289717185e-03 0.0000000000000000e+00  -2.4895366294961198e-03 2.8785252240076309e-03 0.0000000000000000e+00  -2.9214775377466771e-03 1.3531184362398371e-04 0.0000000000000000e+00  0.0000000000000000e+00 0.0000000000000000e+00 0.0000000000000000e+00  -4.2654243751807268e-04 3.4741558893784497e-02 0.0000000000000000e+00  -1.2719955781905843e-03 5.2179276213325465e-02 0.0000000000000000e+00  -2.1517671340453618e-03 5.7653061346366663e-02 0.0000000000000000e+00  -2.9220671712197241e-03 5.5744874180129821e-02 0.0000000000000000e+00  -3.5715277761550245e-03 4.9948510980790756e-02 0.0000000000000000e+00  -4.1439629263109673e-03 4.2661722312724817e-02 0.0000000000000000e+00  -4.6934640170141987e-03 3.5348660880328293e-02 0.0000000000000000e+00  -5.2615109821405794e-03 2.8765516293025976e-02 0.0000000000000000e+00  -5.8686293483971273e-03 2.3183877963114906e-02 0.0000000000000000e+00  -6.5141419875183763e-03 1.8578983008197717e-02 0.0000000000000000e+00  -7.1799774967336010e-03 1.4772285176683029e-02 0.0000000000000000e+00  -7.8376148763114831e-03 1.1530588003313748e-02 0.0000000000000000e+00  -8.4585015288599075e-03 8.6303136405405413e-03 0.0000000000000000e+00  -9.0329539202799250e-03 5.8961885390821922e-03 0.0000000000000000e+00  -9.5845378149954433e-03 3.2196590582999197e-03 0.0000000000000000e+00  -1.0195124940703284e-02 5.3420478382123929e-04 0.0000000000000000e+00  0.0000000000000000e+00 0.0000000000000000e+00 0.0000000000000000e+00  -5.6216855884254498e-04 3.5609741800949869e-02 0.0000000000000000e+00  -1.7289151592606437e-03 5.3286878058288294e-02 0.0000000000000000e+00  -3.0383824990615018e-03 5.8722444620263867e-02 0.0000000000000000e+00  -4.3236953257455519e-03 5.6706105602430654e-02 0.0000000000000000e+00  -5.5742102898383786e-03 5.0830076191988045e-02 0.0000000000000000e+00  -6.8363861156773009e-03 4.3520385045195190e-02 0.0000000000000000e+00  -8.1568412988008657e-03 3.6231590907596575e-02 0.0000000000000000e+00  -9.5563185448631332e-03 2.9694752497422768e-02 0.0000000000000000e+00  -1.1023403908089906e-02 2.4153969086120681e-02 0.0000000000000000e+00  -1.2518523285208832e-02 1.9561164001972359e-02 0.0000000000000000e+00  -1.3982073207050201e-02 1.5721570179129295e-02 0.0000000000000000e+00  -1.5345287900989733e-02 1.2396052264289149e-02 0.0000000000000000e+00  -1.6544045042802571e-02 9.3715680750174977e-03 0.0000000000000000e+00  -1.7546040081431302e-02 6.5067595539785401e-03 0.0000000000000000e+00  -1.8372774323272410e-02 3.7472818234873528e-03 0.0000000000000000e+00  -1.9164318549858589e-02 1.0688238751217966e-03 0.0000000000000000e+00  0.0000000000000000e+00 0.0000000000000000e+00 0.0000000000000000e+00  -6.5897004630035368e-04 3.6684647773788055e-02 0.0000000000000000e+00  -2.0668943722074867e-03 5.4729971270861925e-02 0.0000000000000000e+00  -3.7393514249690289e-03 6.0238973351005830e-02 0.0000000000000000e+00  -5.5291608751696173e-03 5.8235529264447645e-02 0.0000000000000000e+00  -7.4489878195324174e-03 5.2410491828097469e-02 0.0000000000000000e+00  -9.5522193674046959e-03 4.5204058104811082e-02 0.0000000000000000e+00  -1.1869190590044884e-02 3.8043385708046128e-02 0.0000000000000000e+00  -1.4383551317459220e-02 3.1619536676116569e-02 0.0000000000000000e+00  -1.7032517533820575e-02 2.6139838619301321e-02 0.0000000000000000e+00  -1.9717883998841192e-02 2.1528683864778436e-02 0.0000000000000000e+00  -2.2318322122775111e-02 1.7574372383778090e-02 0.0000000000000000e+00  -2.4701555993053934e-02 1.4033691767043983e-02 0.0000000000000000e+00  -2.6737982660617023e-02 1.0708832872670786e-02 0.0000000000000000e+00  -2.8336028538126022e-02 7.5064201678292234e-03 0.0000000000000000e+00  -2.9480891755243953e-02 4.4682446780533666e-03 0.0000000000000000e+00  -3.0382324225469187e-02 1.6780018188669757e-03 0.0000000000000000e+00  0.0000000000000000e+00 0.0000000000000000e+00 0.0000000000000000e+00  -7.0151951146302770e-04 3.7885344515760366e-02 0.0000000000000000e+00  -2.2386434352129688e-03 5.6411534357417741e-02 0.0000000000000000e+00  -4.1794698146150220e-03 6.2150093744393918e-02 0.0000000000000000e+00  -6.4557185223561480e-03 6.0363681965604182e-02 0.0000000000000000e+00  -9.1336071543818547e-03 5.4817448151723652e-02 0.0000000000000000e+00  -1.2277368459472167e-02 4.7932426909605759e-02 0.0000000000000000e+00  -1.5886891092208696e-02 4.1078767800744237e-02 0.0000000000000000e+00  -1.9885185408510957e-02 3.4887405900808237e-02 0.0000000000000000e+00  -2.4132077102285453e-02 2.9518641414000651e-02 0.0000000000000000e+00  -2.8445659794677901e-02 2.4866422869333060e-02 0.0000000000000000e+00  -3.2618962687633105e-02 2.0702184547865571e-02 0.0000000000000000e+00  -3.6431182270187046e-02 1.6774361376498612e-02 0.0000000000000000e+00  -3.9649868644819022e-02 1.2891132916613089e-02 0.0000000000000000e+00  -4.2064001400399696e-02 9.0134283410472690e-03 0.0000000000000000e+00  -4.3545882438504081e-02 5.3353604322571978e-03 0.0000000000000000e+00  -4.4336391534108142e-02 2.1655931344065267e-03 0.0000000000000000e+00  0.0000000000000000e+00 0.0000000000000000e+00 0.0000000000000000e+00  -6.6056046148775885e-04 3.9093384973414809e-02 0.0000000000000000e+00  -2.1573344490398521e-03 5.8189870504698198e-02 0.0000000000000000e+00  -4.2213374652635381e-03 6.4375065942212747e-02 0.0000000000000000e+00  -6.9423348211283507e-03 6.3120999346778658e-02 0.0000000000000000e+00  -1.0474386473362735e-02 5.8207608724278020e-02 0.0000000000000000e+00  -1.4891107908782553e-02 5.1977831380046649e-02 0.0000000000000000e+00  -2.0138955727413602e-02 4.5701147674036081e-02 0.0000000000000000e+00  -2.6048544844448584e-02 3.9923385865366867e-02 0.0000000000000000e+00  -3.2370226487256341e-02 3.4749012154490215e-02 0.0000000000000000e+00  -3.8810061290426280e-02 3.0043217176611760e-02 0.0000000000000000e+00  -4.5055600370857041e-02 2.5561485516497225e-02 0.0000000000000000e+00  -5.0779251303241339e-02 2.1032861426308676e-02 0.0000000000000000e+00  -5.5608408009069722e-02 1.6248992841863527e-02 0.0000000000000000e+00  -5.9134315124525674e-02 1.1196981236468262e-02 0.0000000000000000e+00  -6.0966570638633664e-02 6.2463221361854651e-03 0.0000000000000000e+00  -6.1212544315159489e-02 2.1082839694474219e-03 0.0000000000000000e+00  0.0000000000000000e+00 0.0000000000000000e+00 0.0000000000000000e+00  -4.8830531581430133e-04 4.0125642092557735e-02 0.0000000000000000e+00  -1.6855106191834960e-03 5.9849206938876028e-02 0.0000000000000000e+00  -3.6494437281107371e-03 6.6782053243846895e-02 0.0000000000000000e+00  -6.7267534675218539e-03 6.6518353723791210e-02 0.0000000000000000e+00  -1.1189205593857074e-02 6.2743868492182026e-02 0.0000000000000000e+00  -1.7105210422432099e-02 5.7634238116353737e-02 0.0000000000000000e+00  -2.4332618469748449e-02 5.2301594099262147e-02 0.0000000000000000e+00  -3.2570148897478349e-02 4.7180124314589234e-02 0.0000000000000000e+00  -4.1422724377997558e-02 4.2314565614030408e-02 0.0000000000000000e+00  -5.0458312623255841e-02 3.7550396158649565e-02 0.0000000000000000e+00  -5.9247453197762083e-02 3.2639784406716041e-02 0.0000000000000000e+00  -6.7349081067980182e-02 2.7297132010409616e-02 0.0000000000000000e+00  -7.4259380007838105e-02 2.1242034529073993e-02 0.0000000000000000e+00  -7.9310109406630108e-02 1.4336823405211715e-02 0.0000000000000000e+00  -8.1580435288758330e-02 7.0582061404902167e-03 0.0000000000000000e+00  -8.0637670268590658e-02 8.0280956652599715e-04 0.0000000000000000e+00  0.0000000000000000e+00 0.0000000000000000e+00 0.0000000000000000e+00  -1.1800106136412446e-04 4.0703954979873384e-02 0.0000000000000000e+00  -6.4214185137658061e-04 6.1072374101362688e-02 0.0000000000000000e+00  -2.1892533048177478e-03 6.9167103814283495e-02 0.0000000000000000e+00  -5.4684250906718683e-03 7.0520710337924813e-02 0.0000000000000000e+00  -1.0876756062618242e-02 6.8552112442820307e-02 0.0000000000000000e+00  -1.8440001457579413e-02 6.5151900229218795e-02 0.0000000000000000e+00  -2.7879825396592180e-02 6.1212519238602686e-02 0.0000000000000000e+00  -3.8721419586909264e-02 5.7034925638990958e-02 0.0000000000000000e+00  -5.0392790527290350e-02 5.2608394406695978e-02 0.0000000000000000e+00  -6.2304103637086584e-02 4.7780685254440215e-02 0.0000000000000000e+00  -7.3897225844106157e-02 4.2337607683400912e-02 0.0000000000000000e+00  -8.4648021632917569e-02 3.5993287649130526e-02 0.0000000000000000e+00  -9.4028609729729831e-02 2.8309993090907905e-02 0.0000000000000000e+00  -1.0109059730013176e-01 1.8837549997872956e-02 0.0000000000000000e+00  -1.0416631057068938e-01 7.8514840994185625e-03 0.0000000000000000e+00  -1.0142123688162451e-01 -2.6311988752290520e-03 0.0000000000000000e+00  0.0000000000000000e+00 0.0000000000000000e+00 0.0000000000000000e+00  5.2290547786802276e-04 4.0436050278295679e-02 0.0000000000000000e+00  1.1441094135397135e-03 6.1440256067653048e-02 0.0000000000000000e+00  3.9498285290169306e-04 7.1254264543912788e-02 0.0000000000000000e+00  -2.8657224047924663e-03 7.5019410392946337e-02 0.0000000000000000e+00  -9.1163381974312899e-03 7.5649386152433523e-02 0.0000000000000000e+00  -1.8273413597181085e-02 7.4620260019215956e-02 0.0000000000000000e+00  -2.9872294487991242e-02 7.2553957355816379e-02 0.0000000000000000e+00  -4.3238198870301732e-02 6.9611500701356119e-02 0.0000000000000000e+00  -5.7612198570075913e-02 6.5741284272606462e-02 0.0000000000000000e+00  -7.2238577490678232e-02 6.0822632534520533e-02 0.0000000000000000e+00  -8.6423424503869195e-02 5.4721101340764904e-02 0.0000000000000000e+00  -9.9609015336046464e-02 4.7230339545257100e-02 0.0000000000000000e+00  -1.1133087618015126e-01 3.7899658509557135e-02 0.0000000000000000e+00  -1.2069608964416055e-01 2.5744529754931231e-02 0.0000000000000000e+00  -1.2571881099298166e-01 9.4180044231427576e-03 0.0000000000000000e+00  -1.2138794121298922e-01 -8.7765483627745191e-03 0.0000000000000000e+00  0.0000000000000000e+00 0.0000000000000000e+00 0.0000000000000000e+00  1.4634696161778106e-03 3.8856755593453161e-02 0.0000000000000000e+00  3.6713927485065461e-03 6.0514949729862440e-02 0.0000000000000000e+00  4.0390868974278515e-03 7.2750302319835203e-02 0.0000000000000000e+00  1.0514243856302936e-03 7.9807090782215845e-02 0.0000000000000000e+00  -5.7242555655524835e-03 8.3826470889471441e-02 0.0000000000000000e+00  -1.6012883326316743e-02 8.5771394248016539e-02 0.0000000000000000e+00  -2.9142236231338679e-02 8.5981593335959741e-02 0.0000000000000000e+00  -4.4260616137685928e-02 8.4498069269646800e-02 0.0000000000000000e+00  -6.0464188955025755e-02 8.1251014525036080e-02 0.0000000000000000e+00  -7.6865938776127060e-02 7.6168291629041138e-02 0.0000000000000000e+00  -9.2647035394159305e-02 6.9227796433319430e-02 0.0000000000000000e+00  -1.0715068543832029e-01 6.0437029769042909e-02 0.0000000000000000e+00  -1.1994582677374406e-01 4.9558767284330472e-02 0.0000000000000000e+00  -1.3114456644423347e-01 3.4977020770837509e-02 0.0000000000000000e+00  -1.3954772568445714e-01 1.2585948001137210e-02 0.0000000000000000e+00  -1.3522052720150596e-01 -1.6786690709362503e-02 0.0000000000000000e+00  0.0000000000000000e+00 0.0000000000000000e+00 0.0000000000000000e+00  2.5318045340156532e-03 3.5614218756359388e-02 0.0000000000000000e+00  6.3497770197043432e-03 5.8080167443634687e-02 0.0000000000000000e+00  7.8051016127400402e-03 7.3467572178609206e-02 0.0000000000000000e+00  5.3352669789358534e-03 8.4522165578958752e-02 0.0000000000000000e+00  -1.2479659470000768e-03 9.2432311256474817e-02 0.0000000000000000e+00  -1.1444578857834058e-02 9.7649325699455392e-02 0.0000000000000000e+00  -2.4447519334208044e-02 1.0028637314229275e-01 0.0000000000000000e+00  -3.9351806283768068e-02 1.0031671415709903e-01 0.0000000000000000e+00  -5.5247094206277103e-02 9.7678645481121845e-02 0.0000000000000000e+00  -7.1244986248983108e-02 9.2339387517524144e-02 0.0000000000000000e+00  -8.6475717194626656e-02 8.4347900787766758e-02 0.0000000000000000e+00  -1.0008878446875577e-01 7.3885323444240342e-02 0.0000000000000000e+00  -1.1143759015804984e-01 6.1226159937223142e-02 0.0000000000000000e+00  -1.2100254910036504e-01 4.6267959858597683e-02 0.0000000000000000e+00  -1.3025430012775049e-01 2.4672141133265782e-02 0.0000000000000000e+00  -1.3528905923154408e-01 -2.0492140405960493e-02 0.0000000000000000e+00  0.0000000000000000e+00 0.0000000000000000e+00 0.0000000000000000e+00  2.9094991999773041e-03 3.1106739753446494e-02 0.0000000000000000e+00  7.0500428914319459e-03 5.4742592086406805e-02 0.0000000000000000e+00  8.7581696083040197e-03 7.3552849057460540e-02 0.0000000000000000e+00  7.1012807172480177e-03 8.8526955583099406e-02 0.0000000000000000e+00  2.2317996084186870e-03 1.0001071057652952e-01 0.0000000000000000e+00  -5.2976789127743536e-03 1.0810393304592363e-01 0.0000000000000000e+00  -1.4810220356267601e-02 1.1281263388948187e-01 0.0000000000000000e+00  -2.5625425942505844e-02 1.1410998374378914e-01 0.0000000000000000e+00  -3.7094111249913506e-02 1.1196606472799893e-01 0.0000000000000000e+00  -4.8589307749936632e-02 1.0636709811821217e-01 0.0000000000000000e+00  -5.9458779714046527e-02 9.7338966472111738e-02 0.0000000000000000e+00  -6.8945095143282703e-02 8.4985793030823292e-02 0.0000000000000000e+00  -7.6058935119802509e-02 6.9600059841555886e-02 0.0000000000000000e+00  -7.9318541847581359e-02 5.1725934835848572e-02 0.0000000000000000e+00  -7.8704402586163361e-02 3.1121561007050436e-02 0.0000000000000000e+00  -7.3449304213411226e-02 -9.2574054764500823e-03 0.0000000000000000e+00  0.0000000000000000e+00 0.0000000000000000e+00 0.0000000000000000e+00  0.0000000000000000e+00 2.8227754341897671e-02 0.0000000000000000e+00  0.0000000000000000e+00 5.2691808104875656e-02 0.0000000000000000e+00  0.0000000000000000e+00 7.3392161288933944e-02 0.0000000000000000e+00  0.0000000000000000e+00 9.0328813894072546e-02 0.0000000000000000e+00  0.0000000000000000e+00 1.0350176592029146e-01 0.0000000000000000e+00  0.0000000000000000e+00 1.1291101736759068e-01 0.0000000000000000e+00  0.0000000000000000e+00 1.1855656823597022e-01 0.0000000000000000e+00  0.0000000000000000e+00 1.2043841852543007e-01 0.0000000000000000e+00  0.0000000000000000e+00 1.185565