<?xml version="1.0"?>
<VTKFile type="UnstructuredGrid"  version="0.1"  >
<UnstructuredGrid>
<Piece  NumberOfPoints="289" NumberOfCells="512">
<Points>
<DataArray  type="Float64"  NumberOfComponents="3"  format="ascii">0 0 0  0.0625 0 0  0.125 0 0  0.1875 0 0  0.25 0 0  0.3125 0 0  0.375 0 0  0.4375 0 0  0.5 0 0  0.5625 0 0  0.625 0 0  0.6875 0 0  0.75 0 0  0.8125 0 0  0.875 0 0  0.9375 0 0  1 0 0  0 0.0625 0  0.06250792983418013 0.0624804303738226 0  0.125016902534299 0.06246051850521694 0  0.1875280784816119 0.06243995036985767 0  0.2500428990872401 0.06241848473244294 0  0.3125632683314878 0.06239599950038081 0  0.3750917918759863 0.06237254855101296 0  0.4376321107487575 0.0623484284499457 0  0.5001893958260184 0.06232424853454255 0  0.562771138645036 0.06230098679961409 0  0.6253885481489302 0.06227999436520919 0  0.6880593258621244 0.06226287621753134 0  0.750813897005757 0.06225110723238469 0  0.8137110777674854 0.06224507498837354 0  0.8768815209303069 0.06224170602609969 0  0.9406588155962511 0.06222782167823433 0  1.006009984250791 0.06215935975981383 0  0 0.125 0  0.06251479688808124 0.1249611881026497 0  0.1250315581689644 0.1249216552284137 0  0.1875524742040408 0.1248807330194388 0  0.2500802767438736 0.1248378907601007 0  0.3126185895532878 0.1247928259498553 0  0.3751723889997971 0.1247455791557185 0  0.4377486384606173 0.1246966751117181 0  0.5003571997131913 0.124647282297438 0  0.5630122073845386 0.1245993645702928 0  0.6257342723151967 0.1245557656879076 0  0.6885542691373235 0.1245201159864545 0  0.7515202655720703 0.1244963853990855 0  0.8147105484131716 0.1244878891796231 0  0.878256780623044 0.1244959065340108 0  0.9423741073074402 0.124520312453924 0  1.007336860340377 0.1245750944875148 0  0 0.1875 0  0.06251971434294026 0.1874426583462636 0  0.1250420696672616 0.1873841502561363 0  0.1875700183148979 0.1873233781439206 0  0.2501072614610954 0.1872594294001089 0  0.3126587354906751 0.1871917049386164 0  0.3752312486035805 0.1871200908718157 0  0.4378343430663447 0.187045183234181 0  0.500481485928931 0.1869685660556729 0  0.5631917338697371 0.1868931219827316 0  0.6259920791247915 0.1868233132040747 0  0.6889207411181101 0.1867652950972676 0  0.7520315803753156 0.1867265932379458 0  0.8153989938447477 0.1867148310887354 0  0.8791191900882644 0.1867344197703333 0  0.9432928010508662 0.1867781395090389 0  1.007949418337377 0.1868020262860396 0  0 0.25 0  0.06252204425886468 0.2499252922175444 0  0.1250470628220854 0.249848884717008 0  0.1875783920674206 0.2497691496259777 0  0.2501202449508305 0.2496846621194624 0  0.3126782856240934 0.2495943537553538 0  0.3752603844191844 0.2494977320331724 0  0.4378776336904799 0.2493951903927721 0  0.5005457154393338 0.2492884291295138 0  0.5632867068979834 0.2491809931044259 0  0.6261313555910749 0.2490788949310669 0  0.6891216618881235 0.2489912122687368 0  0.7523130569052071 0.248930391764442 0  0.8157740741825479 0.2489117100356217 0  0.8795783479160394 0.2489508849750071 0  0.9437785555887428 0.2490583612622935 0  1.008348618976911 0.2492301236742518 0  0 0.3125 0  0.06252148514033776 0.3124096270022879 0  0.125045874608008 0.3123169268639658 0  0.187576442153782 0.3122196287237554 0  0.2501173653964706 0.3121156405096079 0  0.3126743313604138 0.3120032040611534 0  0.3752553472615644 0.3118811396231418 0  0.4378718481918118 0.3117492232160869 0  0.5005402002653752 0.3116087493142228 0  0.5632836766365032 0.3114633351410326 0  0.626134887530379 0.3113200095452323 0  0.6891383795175956 0.311190573844453 0  0.7523525182221885 0.3110930786196483 0  0.8158486188326111 0.3110529607097596 0  0.8797035781852026 0.3111028695607373 0  0.9439811269378925 0.3112795719058788 0  1.00870074923513 0.3116160407220098 0  0 0.375 0  0.06251812108424011 0.3748962915239997 0  0.1250386615788922 0.3747895487159176 0  0.1875643685943887 0.3746767550078879 0  0.2500988046847809 0.3745549943282782 0  0.3126469172620019 0.3744215738275459 0  0.3752158324732088 0.3742742514377644 0  0.4378159885479297 0.3741116315858061 0  0.500462750375356 0.3739338198515574 0  0.5631786575107512 0.3737434624379737 0  0.6259964113835869 0.3735473315152142 0  0.6889625248602871 0.3733586282922579 0  0.7521411153931248 0.3732001007974821 0  0.8156165152706241 0.3731077879710461 0  0.8794923713865863 0.3731345123726134 0  0.9438848155437188 0.3733509944267732 0  1.008910931929546 0.3738408318793034 0  0 0.4375 0  0.06251242542872609 0.4373859909308883 0  0.1250264139872701 0.4372682005168986 0  0.1875437637000944 0.4371428020894723 0  0.2500668758379347 0.4370059312123916 0  0.3125992100697366 0.4368537325768526 0  0.3751459671675931 0.4366825094086587 0  0.4377151441861361 0.4364890512514671 0  0.5003191762472604 0.4362712637864624 0  0.5629774694668376 0.4360292993251514 0  0.6257202239835643 0.4357674956629691 0  0.6885939898950636 0.4354975672579595 0  0.7516692715497408 0.4352436009399714 0  0.8150500109707466 0.4350493087587743 0  0.8788838508833634 0.4349872700827677 0  0.9433713246250102 0.4351679364920247 0  1.008774091358538 0.4357428432737637 0  0 0.5 0  0.06250521472366982 0.4998794662896011 0  0.1250108660941237 0.4997544317968213 0  0.1875174855812075 0.4996202659258777 0  0.2500258768622635 0.4994721071457213 0  0.3125373702105857 0.4993047880771051 0  0.3750542719945935 0.4991128334963443 0  0.4375806726022108 0.4988906024554092 0  0.5001238983107523 0.4986327072537279 0  0.562697097055153 0.4983349527436363 0  0.6253237676344396 0.4979962329212798 0  0.6880454858353285 0.4976221413537515 0  0.7509345571582806 0.4972315190416277 0  0.8141134848612108 0.4968676489796607 0  0.8777822449518849 0.4966156816266014 0  0.9422518660688229 0.4966254624093411 0  1.007981652710447 0.4971319315544621 0  0 0.5625 0  0.06249755221682969 0.5623774274040546 0  0.1249942985307199 0.5622497536554651 0  0.1874893532515965 0.5621116513437401 0  0.2499816797331656 0.5619573343949403 0  0.3124700614206037 0.5617803245908631 0  0.3749531792635575 0.5615732299732592 0  0.4374299389839114 0.5613275759106056 0  0.4999003523669064 0.5610337867224329 0  0.5623675914337394 0.560681534609939 0  0.624842424429069 0.5602609180059926 0  0.6873522765235019 0.5597654299272549 0  0.7499587621460124 0.5591986485479653 0  0.8127894291304171 0.5585882839556583 0  0.876090024648713 0.5580133852216361 0  0.9402989722217798 0.5576502495157475 0  1.006133916080095 0.5578313707720279 0  0 0.625 0  0.06249060529916337 0.624880462419822 0  0.124979238325258 0.624755447761969 0  0.1874636618859498 0.6246191600113556 0  0.249941028579885 0.624465118703651 0  0.312407513874029 0.6242857541742691 0  0.3748579016955664 0.6240719285596381 0  0.4372851829273901 0.6238123659745959 0  0.499680375691895 0.6234930006127103 0  0.5620331262924307 0.6230963243585773 0  0.6243344355621209 0.6226010112549537 0  0.6865845300793477 0.6219826082266247 0  0.7488122127510071 0.6212173993566605 0  0.8111177601815375 0.6202948275958963 0  0.8737584456391272 0.6192511526234664 0  0.9372947422201228 0.6182477291656203 0  1.002789426982306 0.6177082449711288 0  0 0.6875 0  0.06248546946337456 0.6873889344155054 0  0.1249680794831397 0.6872723424433809 0  0.1874445445528047 0.6871443096015276 0  0.2499105587590484 0.6869980610592082 0  0.3123600957097964 0.6868254100811874 0  0.3747844605217668 0.6866160404290158 0  0.4371710024341697 0.6863565340182904 0  0.4995014495039168 0.6860290244352578 0  0.5617500462799111 0.685609323621527 0  0.623882360267873 0.6850643656363495 0  0.6858575223202467 0.6843489730215171 0  0.7476415482467924 0.6834027985689528 0  0.809250967291987 0.6821517694191271 0  0.8708694939644175 0.6805313820057146 0  0.9331062528040308 0.6785917245887815 0  0.9974052396777715 0.6767911249612073 0  0 0.75 0  0.06248298180878519 0.7499028817576745 0  0.1249626715081189 0.7498005918013684 0  0.1874352526927747 0.7496875439847367 0  0.2498956276080998 0.7495572143017253 0  0.3123364744798242 0.7494015088280264 0  0.3747468641528814 0.7492098969686286 0  0.437110158452045 0.7489681600889548 0  0.4994007888470435 0.7486565176694171 0  0.5615793924406001 0.7482467364791607 0  0.6235858512934584 0.7476975425722194 0  0.6853307424222485 0.7469471341075348 0  0.7466899142024503 0.745900737186219 0  0.8075218347137916 0.7444105331561104 0  0.8677754624966793 0.7422509028686998 0  0.9278907076388123 0.7391491942346534 0  0.9896414577404955 0.7354134808680662 0  0 0.8125 0  0.06248355729647021 0.8124219431981434 0  0.1249639491561058 0.8123395046725647 0  0.1874374824029941 0.8122479179055683 0  0.2498991568443765 0.8121415338601885 0  0.3123416584123257 0.8120132073874501 0  0.3747538058057716 0.8118534302401722 0  0.4371180318824214 0.8116490385348639 0  0.499406170019534 0.8113812102741937 0  0.5615722533733367 0.8110222570345518 0  0.6235400663832891 0.8105302847356137 0  0.6851817439133896 0.8098398303136815 0  0.7462826308347107 0.8088441385528129 0  0.8064926473098791 0.8073580621008386 0  0.865305449178594 0.8050318057515955 0  0.9223458661117344 0.801133880650748 0  0.9800142070529452 0.7939599850335393 0  0 0.875 0  0.06248708610321928 0.8749453281995951 0  0.1249716924819872 0.8748874705967573 0  0.1874509144125545 0.8748229444207145 0  0.249920785093098 0.8747475801157553 0  0.3123754333373888 0.8746560351798652 0  0.3748057428782611 0.8745410968254776 0  0.4371970896246856 0.8743926296523792 0  0.4995253510108712 0.8741959365687766 0  0.5617495819637207 0.873929152528291 0  0.6237980296800845 0.8735590348838543 0  0.6855403505093308 0.873034019775478 0  0.746730341771851 0.8722721154162333 0  0.8068845186998181 0.871136270395288 0  0.8650229769882796 0.8693676153246241 0  0.9191437605832047 0.8663476635376296 0  0.9653836041533336 0.8601304337887721 0  0 0.9375 0  0.06249292530815467 0.9374718465681995 0  0.1249844979174626 0.9374420162845737 0  0.1874731310918717 0.937408670748146 0  0.2499566500448391 0.937369596266291 0  0.3124318193949103 0.9373219358720313 0  0.3748935799379792 0.9372618027301372 0  0.4373337354746119 0.93
[...]
<PointData  Vectors="f_95-0"> 
<DataArray  type="Float64"  Name="f_95-0"  NumberOfComponents="3" format="ascii">0.0000000000000000e+00 0.0000000000000000e+00 0.0000000000000000e+00  -5.3192530456328956e-04 2.8007037234588184e-02 0.0000000000000000e+00  -1.5126336070961613e-03 5.4119741440662193e-02 0.0000000000000000e+00  -2.7180841218034956e-03 7.4578315600027464e-02 0.0000000000000000e+00  -4.1420782824052984e-03 8.8321688741909002e-02 0.0000000000000000e+00  -5.7388704379676787e-03 9.5624674587502706e-02 0.0000000000000000e+00  -7.4668653400645976e-03 9.7425512902821768e-02 0.0000000000000000e+00  -9.2838125628801962e-03 9.4881666303043441e-02 0.0000000000000000e+00  -1.1145207821346311e-02 8.9110393802070559e-02 0.0000000000000000e+00  -1.3000966137826102e-02 8.1061815311242388e-02 0.0000000000000000e+00  -1.4791572047908175e-02 7.1481026603224168e-02 0.0000000000000000e+00  -1.6443321868051960e-02 6.0922000226109968e-02 0.0000000000000000e+00  -1.7866123241727361e-02 4.9788583052522886e-02 0.0000000000000000e+00  -1.8926220662150588e-02 3.8362588508574033e-02 0.0000000000000000e+00  -1.9438747138885576e-02 2.6890916728904736e-02 0.0000000000000000e+00  -1.9520565508265923e-02 1.5667377315786695e-02 0.0000000000000000e+00  -9.4845259141857277e-03 9.2968037803095888e-03 0.0000000000000000e+00  0.0000000000000000e+00 0.0000000000000000e+00 0.0000000000000000e+00  -4.6194473267905273e-04 2.8872250610941938e-02 0.0000000000000000e+00  -1.4874626890124844e-03 5.5266745710868585e-02 0.0000000000000000e+00  -2.8162596126166378e-03 7.5963464467245806e-02 0.0000000000000000e+00  -4.3958170004424913e-03 8.9899982998263878e-02 0.0000000000000000e+00  -6.1659989200335882e-03 9.7352108521478645e-02 0.0000000000000000e+00  -8.0799360761335121e-03 9.9257503119606794e-02 0.0000000000000000e+00  -1.0090729796596223e-02 9.6771945875501308e-02 0.0000000000000000e+00  -1.2150283271801210e-02 9.1007672106806076e-02 0.0000000000000000e+00  -1.4204678234202696e-02 8.2905589520507639e-02 0.0000000000000000e+00  -1.6190112638813536e-02 7.3197151486307691e-02 0.0000000000000000e+00  -1.8029847603036029e-02 6.2417913212138784e-02 0.0000000000000000e+00  -1.9630616796518972e-02 5.0942023896035207e-02 0.0000000000000000e+00  -2.0873318727710442e-02 3.9016950189128652e-02 0.0000000000000000e+00  -2.1667316749980237e-02 2.6786295626584994e-02 0.0000000000000000e+00  -2.1531649262535868e-02 1.4177867346239659e-02 0.0000000000000000e+00  -2.1846678011829195e-02 3.0053282477887217e-03 0.0000000000000000e+00  0.0000000000000000e+00 0.0000000000000000e+00 0.0000000000000000e+00  -4.3976398374332836e-04 2.9696001704907458e-02 0.0000000000000000e+00  -1.5984509595879863e-03 5.6576435811414465e-02 0.0000000000000000e+00  -3.2435435243127328e-03 7.7608699208680978e-02 0.0000000000000000e+00  -5.2434878827894897e-03 9.1796696885274157e-02 0.0000000000000000e+00  -7.5004369021957132e-03 9.9434142508692869e-02 0.0000000000000000e+00  -9.9442801950041203e-03 1.0146659764392252e-01 0.0000000000000000e+00  -1.2512731804827279e-02 9.9052248810517912e-02 0.0000000000000000e+00  -1.5145225926083708e-02 9.3299353701434648e-02 0.0000000000000000e+00  -1.7774827863528027e-02 8.5139237566353484e-02 0.0000000000000000e+00  -2.0323634608632589e-02 7.5289809125400162e-02 0.0000000000000000e+00  -2.2701226691779632e-02 6.4271021437616815e-02 0.0000000000000000e+00  -2.4807404091528200e-02 5.2442075779327926e-02 0.0000000000000000e+00  -2.6543325074895104e-02 4.0039403715975024e-02 0.0000000000000000e+00  -2.7812834248350869e-02 2.7201997977759563e-02 0.0000000000000000e+00  -2.8603108844339531e-02 1.4030878022231340e-02 0.0000000000000000e+00  -2.8781410895981980e-02 9.7735612675603077e-04 0.0000000000000000e+00  0.0000000000000000e+00 0.0000000000000000e+00 0.0000000000000000e+00  -5.1442311463060283e-04 3.0609814128391238e-02 0.0000000000000000e+00  -1.9398906852798495e-03 5.8190053099127108e-02 0.0000000000000000e+00  -4.0636148501611074e-03 7.9723764728285407e-02 0.0000000000000000e+00  -6.6970714787503299e-03 9.4272671476661393e-02 0.0000000000000000e+00  -9.6991857971484123e-03 1.0216845876654278e-01 0.0000000000000000e+00  -1.2966143069205007e-02 1.0437843936279902e-01 0.0000000000000000e+00  -1.6412020722448493e-02 1.0206854377990168e-01 0.0000000000000000e+00  -1.9954868673687298e-02 9.6343499293085999e-02 0.0000000000000000e+00  -2.3504584994398565e-02 8.8123161900812763e-02 0.0000000000000000e+00  -2.6956657844187954e-02 7.8110307835509707e-02 0.0000000000000000e+00  -3.0191681821725807e-02 6.6811609889853199e-02 0.0000000000000000e+00  -3.3082734671593582e-02 5.4581983386403021e-02 0.0000000000000000e+00  -3.5507755441792306e-02 4.1671273749202618e-02 0.0000000000000000e+00  -3.7375647686665250e-02 2.8264489471669273e-02 0.0000000000000000e+00  -3.8603264135506965e-02 1.4484449791454294e-02 0.0000000000000000e+00  -3.9130761094223449e-02 5.2195570739397591e-04 0.0000000000000000e+00  0.0000000000000000e+00 0.0000000000000000e+00 0.0000000000000000e+00  -6.5081521834192040e-04 3.1742749127681207e-02 0.0000000000000000e+00  -2.4684406642316334e-03 6.0250329756121247e-02 0.0000000000000000e+00  -5.2117224070344246e-03 8.2480752173432259e-02 0.0000000000000000e+00  -8.6493938874089259e-03 9.7538917373703987e-02 0.0000000000000000e+00  -1.2601569438716003e-02 1.0580416574754001e-01 0.0000000000000000e+00  -1.6931700904974308e-02 1.0827497997875582e-01 0.0000000000000000e+00  -2.1526765426083845e-02 1.0612886078351969e-01 0.0000000000000000e+00  -2.6276762016462743e-02 1.0046569660679526e-01 0.0000000000000000e+00  -3.1058672884003755e-02 9.2189291773156726e-02 0.0000000000000000e+00  -3.5727580616598940e-02 8.1981921915176392e-02 0.0000000000000000e+00  -4.0115749686667514e-02 7.0333650535649050e-02 0.0000000000000000e+00  -4.4041619840005548e-02 5.7596444089491446e-02 0.0000000000000000e+00  -4.7327975709843595e-02 4.4040542472678884e-02 0.0000000000000000e+00  -4.9828650671175180e-02 2.9892435242626286e-02 0.0000000000000000e+00  -5.1438586650928930e-02 1.5338093143275409e-02 0.0000000000000000e+00  -5.2158371217827626e-02 4.5745997969335233e-04 0.0000000000000000e+00  0.0000000000000000e+00 0.0000000000000000e+00 0.0000000000000000e+00  -8.2313804787177269e-04 3.3177223647060126e-02 0.0000000000000000e+00  -3.1116131108553818e-03 6.2868064316013203e-02 0.0000000000000000e+00  -6.5710688034255355e-03 8.6010332544423765e-02 0.0000000000000000e+00  -1.0931510879351809e-02 1.0175512070030472e-01 0.0000000000000000e+00  -1.5982433360084269e-02 1.1053587074841859e-01 0.0000000000000000e+00  -2.1561048700248869e-02 1.1338676764291217e-01 0.0000000000000000e+00  -2.7527866095946679e-02 1.1149665305434943e-01 0.0000000000000000e+00  -3.3740949809696566e-02 1.0595539701478145e-01 0.0000000000000000e+00  -4.0036002079185264e-02 9.7642029058296567e-02 0.0000000000000000e+00  -4.6214264798553659e-02 8.7207739858168182e-02 0.0000000000000000e+00  -5.2039723643916999e-02 7.5115280895929698e-02 0.0000000000000000e+00  -5.7248717720088348e-02 6.1705222712235691e-02 0.0000000000000000e+00  -6.1573087206595011e-02 4.7265459492341164e-02 0.0000000000000000e+00  -6.4786134590441191e-02 3.2079883537334507e-02 0.0000000000000000e+00  -6.6749118432000917e-02 1.6424714576142099e-02 0.0000000000000000e+00  -6.7522851851672297e-02 4.4826601137571646e-04 0.0000000000000000e+00  0.0000000000000000e+00 0.0000000000000000e+00 0.0000000000000000e+00  -1.0076902865497309e-03 3.4956523548090132e-02 0.0000000000000000e+00  -3.7936334074133334e-03 6.6103933410526991e-02 0.0000000000000000e+00  -8.0053666760375522e-03 9.0388194896691948e-02 0.0000000000000000e+00  -1.3342682724615753e-02 1.0702201612891038e-01 0.0000000000000000e+00  -1.9576827781794048e-02 1.1649937888621796e-01 0.0000000000000000e+00  -2.6528105100692645e-02 1.1988998593653788e-01 0.0000000000000000e+00  -3.4034058410095318e-02 1.1838833380342584e-01 0.0000000000000000e+00  -4.1919103129356393e-02 1.1306440040861143e-01 0.0000000000000000e+00  -4.9971257327900157e-02 1.0475942251022884e-01 0.0000000000000000e+00  -5.7926956940262370e-02 9.4077391500169222e-02 0.0000000000000000e+00  -6.5464703494146001e-02 8.1434700746709110e-02 0.0000000000000000e+00  -7.2211519340160193e-02 6.7142182338728373e-02 0.0000000000000000e+00  -7.7769952169368800e-02 5.1497267723770959e-02 0.0000000000000000e+00  -8.1786070031217600e-02 3.4856984155884729e-02 0.0000000000000000e+00  -8.4038862084251778e-02 1.7654962154559039e-02 0.0000000000000000e+00  -8.4633925284771636e-02 2.0864170816128425e-04 0.0000000000000000e+00  0.0000000000000000e+00 0.0000000000000000e+00 0.0000000000000000e+00  -1.1817948687089118e-03 3.7081256208685416e-02 0.0000000000000000e+00  -4.4365064714533076e-03 6.9956575287435430e-02 0.0000000000000000e+00  -9.3655134784613597e-03 9.5621178784103325e-02 0.0000000000000000e+00  -1.5657174129997325e-02 1.1337005719410742e-01 0.0000000000000000e+00  -2.3082119714162269e-02 1.2376214114238558e-01 0.0000000000000000e+00  -3.1455543336547057e-02 1.2789667675471086e-01 0.0000000000000000e+00  -4.0597041920535398e-02 1.2696223092350087e-01 0.0000000000000000e+00  -5.0296898662645848e-02 1.2199468244464788e-01 0.0000000000000000e+00  -6.0291716330322744e-02 1.1378098655530809e-01 0.0000000000000000e+00  -7.0247066828797888e-02 1.0285745974438838e-01 0.0000000000000000e+00  -7.9744522585446315e-02 8.9568801139803519e-02 0.0000000000000000e+00  -8.8279151005233564e-02 7.4166440523946942e-02 0.0000000000000000e+00  -9.5282203890203684e-02 5.6928738034477754e-02 0.0000000000000000e+00  -1.0019988715989256e-01 3.8284574443120424e-02 0.0000000000000000e+00  -1.0263283840835290e-01 1.8891964942373562e-02 0.0000000000000000e+00  -1.0264703847755145e-01 -6.1031215569041120e-04 0.0000000000000000e+00  0.0000000000000000e+00 0.0000000000000000e+00 0.0000000000000000e+00  -1.3216750749416937e-03 3.9509024236264630e-02 0.0000000000000000e+00  -4.9563786906777832e-03 7.4356328235884284e-02 0.0000000000000000e+00  -1.0487241660437675e-02 1.0163609082681864e-01 0.0000000000000000e+00  -1.7620835870426899e-02 1.2074568635486636e-01 0.0000000000000000e+00  -2.6150040672542365e-02 1.3230707223301044e-01 0.0000000000000000e+00  -3.5898404040620599e-02 1.3743503128979134e-01 0.0000000000000000e+00  -4.6672547024322490e-02 1.3729418125037920e-01 0.0000000000000000e+00  -5.8228546128218060e-02 1.3286856147503345e-01 0.0000000000000000e+00  -7.0250820643597833e-02 1.2487369471426263e-01 0.0000000000000000e+00  -8.2334033394720882e-02 1.1375918071733987e-01 0.0000000000000000e+00  -9.3964005936356371e-02 9.9768895597513355e-02 0.0000000000000000e+00  -1.0449888696177191e-01 8.3044412942984563e-02 0.0000000000000000e+00  -1.1316193000745577e-01 6.3785196437758207e-02 0.0000000000000000e+00  -1.1910226717766234e-01 4.2463361461915615e-02 0.0000000000000000e+00  -1.2159345220066435e-01 2.0006436949862240e-02 0.0000000000000000e+00  -1.2047646230120808e-01 -2.4557534904372453e-03 0.0000000000000000e+00  0.0000000000000000e+00 0.0000000000000000e+00 0.0000000000000000e+00  -1.4017596058901191e-03 4.2151064837758434e-02 0.0000000000000000e+00  -5.2630866778314586e-03 7.9158028499831445e-02 0.0000000000000000e+00  -1.1191943960417696e-02 1.0826828128192542e-01 0.0000000000000000e+00  -1.8951675816549243e-02 1.2899490603107391e-01 0.0000000000000000e+00  -2.8383578507591163e-02 1.4200985470304722e-01 0.0000000000000000e+00  -3.9332844281632459e-02 1.4841887944876406e-01 0.0000000000000000e+00  -5.1596583305437219e-02 1.4933753736345887e-01 0.0000000000000000e+00  -6.4895903682005901e-02 1.4567834714056796e-01 0.0000000000000000e+00  -7.8863246739907758e-02 1.3807254004882127e-01 0.0000000000000000e+00  -9.3030590279697206e-02 1.2687038841622947e-01 0.0000000000000000e+00  -1.0681223747653822e-01 1.1218678812812818e-01 0.0000000000000000e+00  -1.1944987934521201e-01 9.4004036889633436e-02 0.0000000000000000e+00  -1.2995324498929464e-01 7.2363698039104030e-02 0.0000000000000000e+00  -1.3710086188445472e-01 4.7646033496935150e-02 0.0000000000000000e+00  -1.3962991206486441e-01 2.0964762149912705e-02 0.0000000000000000e+00  -1.3681734586870645e-01 -5.7846461772250741e-03 0.0000000000000000e+00  0.0000000000000000e+00 0.0000000000000000e+00 0.0000000000000000e+00  -1.3969687739650300e-03 4.4870455363507887e-02 0.0000000000000000e+00  -5.2680912377355655e-03 8.4137590681135979e-02 0.0000000000000000e+00  -1.1300917143595065e-02 1.1525327343606651e-01 0.0000000000000000e+00  -1.9357826630269390e-02 1.3784654715123446e-01 0.0000000000000000e+00  -2.9354147262333433e-02 1.5261139586254485e-01 0.0000000000000000e+00  -4.1167796939405588e-02 1.6060761476166688e-01 0.0000000000000000e+00  -5.4587573532718314e-02 1.6286925462644081e-01 0.0000000000000000e+00  -6.9296614100358117e-02 1.6021715770709943e-01 0.0000000000000000e+00  -8.4875366316594897e-02 1.5319200002479044e-01 0.0000000000000000e+00  -1.0081092563239276e-01 1.4204680393025360e-01 0.0000000000000000e+00  -1.1648262034019266e-01 1.2677311190030921e-01 0.0000000000000000e+00  -1.3107762052013763e-01 1.0716636499055276e-01 0.0000000000000000e+00  -1.4350985545999506e-01 8.2938599159360499e-02 0.0000000000000000e+00  -1.5217182019687603e-01 5.4104323165834869e-02 0.0000000000000000e+00  -1.5497450545972846e-01 2.1847917517009884e-02 0.0000000000000000e+00  -1.4998769367346299e-01 -1.0892005927864462e-02 0.0000000000000000e+00  0.0000000000000000e+00 0.0000000000000000e+00 0.0000000000000000e+00  -1.2897933166200670e-03 4.7488461299706013e-02 0.0000000000000000e+00  -4.9064779635586541e-03 8.8999580061836461e-02 0.0000000000000000e+00  -1.0672306671368877e-02 1.2222732826933450e-01 0.0000000000000000e+00  -1.8584699263333823e-02 1.4689974055504354e-01 0.0000000000000000e+00  -2.8653110206182327e-02 1.6368922677844203e-01 0.0000000000000000e+00  -4.0796145000619066e-02 1.7356083770797828e-01 0.0000000000000000e+00  -5.4794311476994727e-02 1.7742792113483527e-01 0.0000000000000000e+00  -7.0289176692134470e-02 1.7599845727510224e-01 0.0000000000000000e+00  -8.6810264722435249e-02 1.6972323229482889e-01 0.0000000000000000e+00  -1.0381189048881478e-01 1.5878568268991036e-01 0.0000000000000000e+00  -1.2067224393435638e-01 1.4309703649384198e-01 0.0000000000000000e+00  -1.3667523333307649e-01 1.2225583348453264e-01 0.0000000000000000e+00  -1.5084274373542228e-01 9.5590935798131618e-02 0.0000000000000000e+00  -1.6126573432867453e-01 6.2639488246482064e-02 0.0000000000000000e+00  -1.6515930333781204e-01 2.3928828578217754e-02 0.0000000000000000e+00  -1.5858367548748581e-01 -1.7391881274530101e-02 0.0000000000000000e+00  0.0000000000000000e+00 0.0000000000000000e+00 0.0000000000000000e+00  -1.0842259898531368e-03 4.9808866565758128e-02 0.0000000000000000e+00  -4.1771759127956932e-03 9.3406352470765605e-02 0.0000000000000000e+00  -9.2654827183051569e-03 1.2874519800515660e-01 0.0000000000000000e+00  -1.6497086670675412e-02 1.5562217426478830e-01 0.0000000000000000e+00  -2.5985879639762736e-02 1.7463434342611009e-01 0.0000000000000000e+00  -3.7697360777131296e-02 1.8659565968361108e-01 0.0000000000000000e+00  -5.1407512990848413e-02 1.9225502961646423e-01 0.0000000000000000e+00  -6.6719765010129745e-02 1.9218421240702890e-01 0.0000000000000000e+00  -8.3115954575470080e-02 1.8674744384599795e-01 0.0000000000000000e+00  -1.0001575998973185e-01 1.7609567240462876e-01 0.0000000000000000e+00  -1.1683599509370822e-01 1.6013208671220186e-01 0.0000000000000000e+00  -1.3306435631304181e-01 1.3843168115487264e-01 0.0000000000000000e+00  -1.4795904023105405e-01 1.1016740769212963e-01 0.0000000000000000e+00  -1.6027554701017102e-01 7.3686114180923815e-02 0.0000000000000000e+00  -1.6710836626031611e-01 2.7218043829335067e-02 0.0000000000000000e+00  -1.6175762768856183e-01 -2.3372816678062149e-02 0.0000000000000000e+00  0.0000000000000000e+00 0.0000000000000000e+00 0.0000000000000000e+00  -8.2618827459101816e-04 5.1669793720528011e-02 0.0000000000000000e+00  -3.1946262488240836e-03 9.7036579583139937e-02 0.0000000000000000e+00  -7.2202234927993278e-03 1.3432135316044105e-01 0.0000000000000000e+00  -1.3183287734735595e-02 1.6336753369984641e-01 0.0000000000000000e+00  -2.1301395641780650e-02 1.8464492699640581e-01 0.0000000000000000e+00  -3.1593741747849020e-02 1.9876104791113247e-01 0.0000000000000000e+00  -4.3846903396208274e-02 2.0625848176916861e-01 0.0000000000000000e+00  -5.7648470209153757e-02 2.0754872040675518e-01 0.0000000000000000e+00  -7.2451878935964428e-02 2.0290481629642554e-01 0.0000000000000000e+00  -8.7654104186373025e-02 1.9246548151500106e-01 0.0000000000000000e+00  -1.0270950025167314e-01 1.7621258304206933e-01 0.0000000000000000e+00  -1.1719122686714566e-01 1.5389626540517759e-01 0.0000000000000000e+00  -1.3082584750305673e-01 1.2468574031274006e-01 0.0000000000000000e+00  -1.4411351635143471e-01 8.6614091997045825e-02 0.0000000000000000e+00  -1.5478021104621342e-01 3.6015015570457352e-02 0.0000000000000000e+00  -1.5033628197065443e-01 -2.4304448308627519e-02 0.0000000000000000e+00  0.0000000000000000e+00 0.0000000000000000e+00 0.0000000000000000e+00  -6.1219548230413028e-04 5.3030528972615371e-02 0.0000000000000000e+00  -2.2063315127795443e-03 9.9666010668552255e-02 0.0000000000000000e+00  -4.8872502644371763e-03 1.3849644637406941e-01 0.0000000000000000e+00  -9.0228622326134558e-03 1.6942815220967580e-01 0.0000000000000000e+00  -1.4917013714763129e-02 1.9276239927368910e-01 0.0000000000000000e+00  -2.2643711728314857e-02 2.0886011317214001e-01 0.0000000000000000e+00  -3.2030019377564826e-02 2.1803242877460111e-01 0.0000000000000000e+00  -4.2702040169028350e-02 2.2051527890533681e-01 0.0000000000000000e+00  -5.4149776806807597e-02 2.1647673552404068e-01 0.0000000000000000e+00  -6.5803613402874259e-02 2.0603210807644126e-01 0.0000000000000000e+00  -7.7124568552682571e-02 1.8925292716299053e-01 0.0000000000000000e+00  -8.7696816109944564e-02 1.6611577947183334e-01 0.0000000000000000e+00  -9.7761075105014111e-02 1.3634784798777985e-01 0.0000000000000000e+00  -1.0811397932034728e-01 9.9431708585419568e-02 0.0000000000000000e+00  -1.1927402404446530e-01 5.3304407276427233e-02 0.0000000000000000e+00  -1.3888046718192967e-01 -4.6750166545412490e-03 0.0000000000000000e+00  0.0000000000000000e+00 0.0000000000000000e+00 0.0000000000000000e+00  -5.1341914946382758e-04 5.3987405851780794e-02 0.0000000000000000e+00  -1.4004045720388061e-03 1.0119782909284146e-01 0.0000000000000000e+00  -2.6252799421625688e-03 1.4093015521523619e-01 0.0000000000000000e+00  -4.5716838161521311e-03 1.7316331803374521e-01 0.0000000000000000e+00  -7.5400534470052676e-03 1.9800832035428020e-01 0.0000000000000000e+00  -1.1624364527178119e-02 2.1558649106669903e-01 0.0000000000000000e+00  -1.6728399838373164e-02 2.2599839650956866e-01 0.0000000000000000e+00  -2.2608725343733108e-02 2.2932125025558328e-01 0.0000000000000000e+00  -2.8921498169008693e-02 2.2561594574208352e-01 0.0000000000000000e+00  -3.5266122274064907e-02 2.1494002985724120e-01 0.0000000000000000e+00  -4.1218233433129095e-02 1.9736319625422674e-01 0.0000000000000000e+00  -4.6445559282777646e-02 1.7296599560100676e-01 0.0000000000000000e+00  -5.0835952592149548e-02 1.4197482560704980e-01 0.0000000000000000e+00  -5.4212592080827057e-02 1.0462699530798403e-01 0.0000000000000000e+00  -6.0169544825396278e-02 6.1123727249347143e-02 0.0000000000000000e+00  -5.0530045203615280e-02 8.0905224494513903e-03 0.0000000000000000e+00  0.0000000000000000e+00 -3.4187261010647282e-18 0.0000000000000000e+00  0.0000000000000000e+00 5.4479090970016172e-02 0.0000000000000000e+00  0.0000000000000000e+00 1.0169430314403020e-01 0.0000000000000000e+00  0.0000000000000000e+00 1.4164563652204204e-01 0.0000000000000000e+00  0.0000000000000000e+00 1.7433309110405176e-01 0.0000000000000000e+00  0.0000000000000000e+00 1.9975666689005930e-01 0.0000000000000000e+00  0.0000000000000000e+00 2.1791636388006469e-01 0.0000000000000000e+00  0.0000000000000000e+00 2.2881218207406789e-01 0.0000000000000000e+00  0.0000000000000000e+00 