<?xml version="1.0"?>
<VTKFile type="UnstructuredGrid"  version="0.1"  >
<UnstructuredGrid>
<Piece  NumberOfPoints="289" NumberOfCells="512">
<Points>
<DataArray  type="Float64"  NumberOfComponents="3"  format="ascii">0 0 0  0.0625 0 0  0.125 0 0  0.1875 0 0  0.25 0 0  0.3125 0 0  0.375 0 0  0.4375 0 0  0.5 0 0  0.5625 0 0  0.625 0 0  0.6875 0 0  0.75 0 0  0.8125 0 0  0.875 0 0  0.9375 0 0  1 0 0  0 0.0625 0  0.06255752259229026 0.06248651164459342 0  0.1251166500876441 0.06247276845173422 0  0.1876789889348085 0.06245853447364275 0  0.2502461086106876 0.06244362035134993 0  0.3128195037344908 0.06242791413556477 0  0.375400531485994 0.06241142050066734 0  0.4379903164563541 0.06239430918543985 0  0.5005896180788119 0.06237697038863318 0  0.563198664926572 0.06236006898441911 0  0.6258169839620404 0.06234457940984106 0  0.6884433122786625 0.06233176793111459 0  0.7510758257727583 0.06232307037932176 0  0.8137132637061186 0.06231980212530337 0  0.8763581469431507 0.06232267419770265 0  0.9390228098097353 0.06233139276883477 0  1.001721938328999 0.06234780658168026 0  0 0.125 0  0.0626134454192797 0.1249732727016726 0  0.1252301294589145 0.1249460129912117 0  0.1878533044687258 0.1249177233117288 0  0.2504861742173585 0.1248879932060248 0  0.3131318341710657 0.1248565587368058 0  0.3757931662883544 0.1248233803347988 0  0.4384726733996563 0.1247887424816118 0  0.5011722429111362 0.1247533736069568 0  0.5638928433510786 0.1247185742931853 0  0.626634189346966 0.1246863229449721 0  0.6893944744272973 0.1246592969069598 0  0.7521703717773081 0.1246407042081302 0  0.8149575623391357 0.1246337893908538 0  0.8777516063911358 0.1246409665242138 0  0.9405465299495551 0.1246631315083151 0  1.003324642631168 0.1247013622006757 0  0 0.1875 0  0.06266613383897873 0.1874605637228981 0  0.1253371717028612 0.1874202760389208 0  0.1880180592328961 0.187378330314477 0  0.2507137204457071 0.1873340346805918 0  0.3134289991084894 0.1872868946075154 0  0.3761685370929227 0.1872367262916291 0  0.4389365659234575 0.1871838098628616 0  0.501736588948627 0.1871290869453813 0  0.5645709382808939 0.1870743958553105 0  0.6274402050227854 0.1870227133464618 0  0.6903425567969 0.1869783229030668 0  0.7532729315987187 0.186946733387206 0  0.8162218877453293 0.1869339712032859 0  0.8791731647375052 0.1869443760220112 0  0.9420975930189045 0.1869745332059668 0  1.004941846926972 0.1869958811167827 0  0 0.25 0  0.06271392883493544 0.2499487062688295 0  0.1254344431877524 0.2498961885869243 0  0.1881682172050859 0.2498412682874041 0  0.2509219793075016 0.2497828886587475 0  0.3137024841841548 0.2497202105371213 0  0.3765164092856512 0.2496527526195217 0  0.4393701422436673 0.2495805945105064 0  0.5022694194339858 0.2495046602958083 0  0.5652187684908653 0.2494270946707814 0  0.6282206947782305 0.2493517250226318 0  0.6912745176203952 0.2492845572741943 0  0.7543746630607857 0.2492341544212745 0  0.8175079727254061 0.2492115487466383 0  0.8806491411407102 0.2492289834302419 0  0.9437531543171412 0.2492963340964645 0  1.006745450245332 0.2494145962659435 0  0 0.3125 0  0.0627551575638032 0.3124380746390719 0  0.1255185591264032 0.3123744972915274 0  0.1882986047725865 0.3123076491210674 0  0.2511038801234376 0.3122360121711495 0  0.3139431942395156 0.312158261806866 0  0.3768255388178534 0.3120734164475901 0  0.439759928108407 0.3119810737484472 0  0.5027550650587411 0.3118817702830745 0  0.5658187583866855 0.3117775089705068 0  0.628956980971371 0.311672499485388 0  0.6921723977366586 0.3115741392515948 0  0.7554620782592648 0.311494201238878 0  0.8188139394695287 0.3114500466430023 0  0.8822013673800061 0.3114653946296849 0  0.9455760477395645 0.3115697647156156 0  1.008861847009149 0.3117953456500259 0  0 0.375 0  0.06278816749193707 0.3749290974076015 0  0.1255861488506744 0.374856071041102 0  0.1884040004438385 0.374778803160177 0  0.2512521510679124 0.3746952213539458 0  0.3141415439888166 0.3746033654042786 0  0.3770837112941386 0.3745015179278875 0  0.4400907403295282 0.3743884380493868 0  0.5031750739408933 0.3742637557543047 0  0.5663490591057193 0.3741286104899975 0  0.6296241163515701 0.3739866505792282 0  0.6930093351496118 0.3738455438687719 0  0.756509198538179 0.3737191636624687 0  0.8201200199506097 0.3736305547956908 0  0.8838246581328438 0.3736155484869449 0  0.947585531252088 0.3737263268393691 0  1.011337491095986 0.3740331918487716 0  0 0.4375 0  0.06281138877248682 0.4374222453528499 0  0.1256339805444857 0.4373418793565073 0  0.1884793212141212 0.4372562542378967 0  0.2513595631960401 0.4371626755133378 0  0.3142877473910367 0.437058416474624 0  0.3772780461791951 0.4369407913089839 0  0.4403459383749482 0.4368073304493637 0  0.503508271400903 0.436656129818062 0  0.5667831444159405 0.4364864912974384 0  0.6301895168548729 0.4363000433616737 0  0.6937464059149619 0.4361026361773911 0  0.7574714772605387 0.4359074413240344 0  0.8213787498744233 0.4357398079125743 0  0.8854750412194546 0.4356443858770702 0  0.9497547388915549 0.4356945083906369 0  1.014192652274541 0.4360024978759325 0  0 0.5 0  0.06282342598209348 0.4999180033556912 0  0.1256591487775029 0.4998329366195073 0  0.1885199137103487 0.4997416381922913 0  0.2514193349260858 0.4996407762155322 0  0.3143723432549018 0.4995267841092661 0  0.377395641652191 0.4993958335691659 0  0.4405081619819234 0.4992438822706795 0  0.5037315112032698 0.4990668658002713 0  0.5670903938154018 0.4988611616706325 0  0.6306130097618519 0.4986245573003441 0  0.6943314665531921 0.498358134879871 0  0.7582823207975514 0.4980697846378477 0  0.8225074523080781 0.4977804922603686 0  0.8870554474757533 0.4975349884092437 0  0.9519832493618677 0.4974182210031399 0  1.017356911985132 0.4975770639122984 0  0 0.5625 0  0.06282317535194484 0.5624168259444313 0  0.1256593179815812 0.5623302103216379 0  0.1885219422657553 0.562236558790887 0  0.2514256922038087 0.5621319655853945 0  0.314386963313493 0.5620120507781758 0  0.3774245924448921 0.5618717970065992 0  0.4405606411559043 0.5617054027887309 0  0.5038213081727695 0.5615061958939142 0  0.5672380374007756 0.5612667040963796 0  0.6308489708523518 0.5609790904686863 0  0.6947010903489064 0.5606363837703008 0  0.7588537867420553 0.5602353828511468 0  0.8233852504614446 0.5597829706841385 0  0.8884038083694465 0.5593089871634866 0  0.9540663178292995 0.5588902153788721 0  1.020603616212484 0.5586883141009744 0  0 0.625 0  0.06280995759474511 0.624919079392803 0  0.1256330023008659 0.62483449843905 0  0.1884828451985626 0.6247423864860471 0  0.2513745477903668 0.6246384252790042 0  0.3143253014146244 0.6245175838268113 0  0.3773553408982587 0.6243738027396943 0  0.4404890535534155 0.6241996125561349 0  0.5037563702200957 0.6239856787409827 0  0.5671945876705733 0.6237202912180428 0  0.630850931265483 0.6233888844654528 0  0.6947865652595965 0.6229738512399799 0  0.7590836896197419 0.6224553695920176 0  0.8238592993160574 0.6218151297473046 0  0.8892924300935271 0.6210476525177063 0  0.9556749261491456 0.6201891466399739 0  1.023494184377617 0.6193755126872836 0  0 0.6875 0  0.06278365026215868 0.6874249771624135 0  0.1255798489312494 0.6873462897686492 0  0.1884018079743789 0.6872600210950147 0  0.2512642274596147 0.6871617038007124 0  0.314184187157827 0.6870459697249696 0  0.3771822345488788 0.6869060980057633 0  0.4402837634398151 0.6867334080262815 0  0.5035208127506451 0.6865164250028967 0  0.5669344901942056 0.6862397220500187 0  0.6305784156842559 0.6858823193115965 0  0.6945241067236424 0.6854155277585093 0  0.7588707052495016 0.6848002883555311 0  0.8237653745041085 0.683984892603777 0  0.8894499255709692 0.6829075131621123 0  0.9563651213721478 0.6815212194632976 0  1.025352873757927 0.6798876153271702 0  0 0.75 0  0.06274479863005188 0.7499345190867202 0  0.1255008810092822 0.7498656295459808 0  0.1882801823922111 0.7497896557960324 0  0.2510961390303568 0.7497023294693989 0  0.3139646171027762 0.7495983945220602 0  0.3769050846107344 0.7494710728033727 0  0.4399421472573111 0.7493113049084298 0  0.5031076080381641 0.7491066365740703 0  0.5664432709253792 0.7488395464406697 0  0.6300048356082291 0.748484883689862 0  0.6938676099201185 0.7480058578790391 0  0.7581361361626112 0.7473476145500141 0  0.8229648793213784 0.7464267841246236 0  0.8886148011893719 0.7451153362905899 0  0.9556240610617565 0.7432265259450613 0  1.025226699547367 0.7406154643517394 0  0 0.8125 0  0.06269468198131739 0.812447446791043 0  0.1253986506189398 0.8123920180446629 0  0.1881217697772125 0.8123305913435825 0  0.2508752600953613 0.8122594897701065 0  0.3136725641431165 0.8121741006760663 0  0.3765304719948902 0.8120683436571482 0  0.439470645337421 0.8119338890053635 0  0.5025217219214613 0.8117589696499075 0  0.5657222243904787 0.8115265288751673 0  0.629124507269253 0.8112112669698837 0  0.6927999093380137 0.8107748092709763 0  0.7568452665835198 0.81015749093408 0  0.8213926178945065 0.8092634658676692 0  0.8866382201859162 0.8079309649522224 0  0.9529990786780236 0.8058662452435511 0  1.022105558211571 0.8024931344204103 0  0 0.875 0  0.06263531425535634 0.874963227300946 0  0.1252772555478372 0.8749243693587332 0  0.1879328879972784 0.8748811504777694 0  0.2506103177742099 0.8748308639489466 0  0.3133193762729209 0.8747700693397782 0  0.376072535640732 0.87469416143155 0  0.4388861920610403 0.8745967232490359 0  0.5017825062508214 0.8744685211227204 0  0.5647920441170827 0.8742959063368028 0  0.627957439232957 0.874058229210751 0  0.6913379358131162 0.8737235975275105 0  0.7550131147532966 0.8732417814582365 0  0.8190789154316349 0.8725316459040341 0  0.8836146961990796 0.8714548245187856 0  0.9485765198991221 0.8697404494570156 0  1.01370473557973 0.8666871661512988 0  0 0.9375 0  0.06256936518012958 0.9374810730555956 0  0.1251421870097928 0.9374610496969007 0  0.1877221602271605 0.9374387297131087 0  0.2503135521886513 0.9374126769415605 0  0.3129215873597694 0.9373810513717594 0  0.3755529764327563 0.9373413670150399 0  0.4382166833328761 0.93729012
[...]
<PointData  Vectors="f_95-0"> 
<DataArray  type="Float64"  Name="f_95-0"  NumberOfComponents="3" format="ascii">0.0000000000000000e+00 0.0000000000000000e+00 0.0000000000000000e+00  8.6579985262738406e-04 -1.9689493420327910e-02 0.0000000000000000e+00  2.4242888062276286e-03 -4.1393528254162253e-02 0.0000000000000000e+00  4.3039401477048935e-03 -5.9973385977404127e-02 0.0000000000000000e+00  6.4899450039792280e-03 -7.3513301927761329e-02 0.0000000000000000e+00  8.9059058723956180e-03 -8.1652076965216175e-02 0.0000000000000000e+00  1.1477247714529178e-02 -8.4870097246496190e-02 0.0000000000000000e+00  1.4123828696302940e-02 -8.4011033387630746e-02 0.0000000000000000e+00  1.6760720241401163e-02 -7.9991457325601811e-02 0.0000000000000000e+00  1.9297230842256173e-02 -7.3643674882605259e-02 0.0000000000000000e+00  2.1634617872657153e-02 -6.5650518528818549e-02 0.0000000000000000e+00  2.3661912985450128e-02 -5.6536824765509065e-02 0.0000000000000000e+00  2.5252667651743377e-02 -4.6693233503951367e-02 0.0000000000000000e+00  2.6228813286455360e-02 -3.6388532706873651e-02 0.0000000000000000e+00  2.6376320087392213e-02 -2.5869906354371874e-02 0.0000000000000000e+00  2.5995569629712657e-02 -1.5134374992459860e-02 0.0000000000000000e+00  1.2167702680478195e-02 -1.1214674217131225e-02 0.0000000000000000e+00  0.0000000000000000e+00 0.0000000000000000e+00 0.0000000000000000e+00  7.2637602548067978e-04 -2.1064610471881007e-02 0.0000000000000000e+00  2.2985224676910490e-03 -4.3194475583782116e-02 0.0000000000000000e+00  4.2916596024184569e-03 -6.2117561540763006e-02 0.0000000000000000e+00  6.6301353633508430e-03 -7.5920983794907165e-02 0.0000000000000000e+00  9.2215995631993401e-03 -8.4242592790278958e-02 0.0000000000000000e+00  1.1986260764922665e-02 -8.7558726614649779e-02 0.0000000000000000e+00  1.4837711471408504e-02 -8.6710330530593724e-02 0.0000000000000000e+00  1.7686111891262523e-02 -8.2610499816177671e-02 0.0000000000000000e+00  2.0436343397912577e-02 -7.6086085467258313e-02 0.0000000000000000e+00  2.2986239779186110e-02 -6.7811687367046430e-02 0.0000000000000000e+00  2.5224899335620242e-02 -5.8299946019073616e-02 0.0000000000000000e+00  2.7028353767440068e-02 -4.7918515849939593e-02 0.0000000000000000e+00  2.8253590993615761e-02 -3.6914017728889109e-02 0.0000000000000000e+00  2.8795974897747222e-02 -2.5426205325199985e-02 0.0000000000000000e+00  2.8012660959708800e-02 -1.3327896447288001e-02 0.0000000000000000e+00  2.8532232603801420e-02 -2.9001574711470719e-03 0.0000000000000000e+00  0.0000000000000000e+00 0.0000000000000000e+00 0.0000000000000000e+00  6.1729119787205745e-04 -2.2297745754181978e-02 0.0000000000000000e+00  2.2254443118615930e-03 -4.5110708452524517e-02 0.0000000000000000e+00  4.4821609337539741e-03 -6.4493112338355696e-02 0.0000000000000000e+00  7.2142700901683052e-03 -7.8633038479789669e-02 0.0000000000000000e+00  1.0286459884042202e-02 -8.7185800377472963e-02 0.0000000000000000e+00  1.3591107794075415e-02 -9.0631664157910533e-02 0.0000000000000000e+00  1.7022244540316735e-02 -8.9812982049838619e-02 0.0000000000000000e+00  2.0474645688171013e-02 -8.5641329618925621e-02 0.0000000000000000e+00  2.3839432325931692e-02 -7.8939694375119787e-02 0.0000000000000000e+00  2.7003366794611947e-02 -7.0377539593923025e-02 0.0000000000000000e+00  2.9850456720084087e-02 -6.0462480599948139e-02 0.0000000000000000e+00  3.2268145649015104e-02 -4.9560347100741690e-02 0.0000000000000000e+00  3.4165853467396742e-02 -3.7925455794645041e-02 0.0000000000000000e+00  3.5482781326231831e-02 -2.5728534309505533e-02 0.0000000000000000e+00  3.6466354343195444e-02 -1.3222754170929595e-02 0.0000000000000000e+00  3.6936161052407275e-02 -1.3305796783276902e-03 0.0000000000000000e+00  0.0000000000000000e+00 0.0000000000000000e+00 0.0000000000000000e+00  6.2846105692174116e-04 -2.3503790254492923e-02 0.0000000000000000e+00  2.3913591351777523e-03 -4.7237770160710471e-02 0.0000000000000000e+00  5.0414612193130605e-03 -6.7281535600391226e-02 0.0000000000000000e+00  8.3546292809680185e-03 -8.1896563612262649e-02 0.0000000000000000e+00  1.2150317711526937e-02 -9.0776022884213978e-02 0.0000000000000000e+00  1.6280461327384563e-02 -9.4418837601577224e-02 0.0000000000000000e+00  2.0609735320041796e-02 -9.3674667179253115e-02 0.0000000000000000e+00  2.5007198133806124e-02 -8.9455711473331923e-02 0.0000000000000000e+00  2.9339497883394169e-02 -8.2582409964240405e-02 0.0000000000000000e+00  3.3470427679897823e-02 -7.3722344652837696e-02 0.0000000000000000e+00  3.7265757331604428e-02 -6.3387056699384228e-02 0.0000000000000000e+00  4.0605868918615139e-02 -5.1959903423325668e-02 0.0000000000000000e+00  4.3404899172457038e-02 -3.9738291637447271e-02 0.0000000000000000e+00  4.5654289312622033e-02 -2.6995426421429047e-02 0.0000000000000000e+00  4.7370107713506783e-02 -1.4039110806819239e-02 0.0000000000000000e+00  4.8498365069768679e-02 -1.3372570082367092e-03 0.0000000000000000e+00  0.0000000000000000e+00 0.0000000000000000e+00 0.0000000000000000e+00  7.1407800510018941e-04 -2.4833247317966864e-02 0.0000000000000000e+00  2.7672464368765810e-03 -4.9704960654714463e-02 0.0000000000000000e+00  5.9397780669764987e-03 -7.0630856746319234e-02 0.0000000000000000e+00  9.9856895935170730e-03 -8.5900452056805979e-02 0.0000000000000000e+00  1.4689515778909902e-02 -9.5245130882592663e-02 0.0000000000000000e+00  1.9866309565115470e-02 -9.9189243412312444e-02 0.0000000000000000e+00  2.5348227758374271e-02 -9.8593500907825524e-02 0.0000000000000000e+00  3.0971442121368473e-02 -9.4371155225398462e-02 0.0000000000000000e+00  3.6567799695894479e-02 -8.7339128645911368e-02 0.0000000000000000e+00  4.1963932256502544e-02 -7.8163344914620819e-02 0.0000000000000000e+00  4.6987560564114572e-02 -6.7362899381259320e-02 0.0000000000000000e+00  5.1481786276753386e-02 -5.5346066441908037e-02 0.0000000000000000e+00  5.5325382710457206e-02 -4.2460105924610345e-02 0.0000000000000000e+00  5.8445723686123559e-02 -2.9037850969407392e-02 0.0000000000000000e+00  6.0798605265957803e-02 -1.5417830546462530e-02 0.0000000000000000e+00  6.2354472837033430e-02 -1.8417998758906646e-03 0.0000000000000000e+00  0.0000000000000000e+00 0.0000000000000000e+00 0.0000000000000000e+00  8.4419152032735390e-04 -2.6380902875003887e-02 0.0000000000000000e+00  3.2762456270421093e-03 -5.2622783569924850e-02 0.0000000000000000e+00  7.0642800023845570e-03 -7.4656982959992291e-02 0.0000000000000000e+00  1.1945309879009738e-02 -9.0781749026385569e-02 0.0000000000000000e+00  1.7680323563022161e-02 -1.0076132525631196e-01 0.0000000000000000e+00  2.4057391165978752e-02 -1.0514494601758871e-01 0.0000000000000000e+00  3.0878433589801073e-02 -1.0480267025686039e-01 0.0000000000000000e+00  3.7943543942109928e-02 -1.0064451942394925e-01 0.0000000000000000e+00  4.5041378371419784e-02 -9.3478468191604033e-02 0.0000000000000000e+00  5.1947793357221925e-02 -8.3963855778925789e-02 0.0000000000000000e+00  5.8432820353845887e-02 -7.2623839808757626e-02 0.0000000000000000e+00  6.4276645377098485e-02 -5.9889116454325209e-02 0.0000000000000000e+00  6.9290011586894004e-02 -4.6150878953524078e-02 0.0000000000000000e+00  7.3341103509021816e-02 -3.1799557796895042e-02 0.0000000000000000e+00  7.6367566781095617e-02 -1.7210921536081190e-02 0.0000000000000000e+00  7.8416025279857443e-02 -2.6843632763175747e-03 0.0000000000000000e+00  0.0000000000000000e+00 0.0000000000000000e+00 0.0000000000000000e+00  9.9195015905868909e-04 -2.8200146488690129e-02 0.0000000000000000e+00  3.8362191420440797e-03 -5.6054192012542019e-02 0.0000000000000000e+00  8.2720038358896509e-03 -7.9422959726243803e-02 0.0000000000000000e+00  1.4022747057038053e-02 -9.6614415146559579e-02 0.0000000000000000e+00  2.0838372550566170e-02 -1.0742230846936995e-01 0.0000000000000000e+00  2.8491681507116416e-02 -1.1241521593474690e-01 0.0000000000000000e+00  3.6760369055824520e-02 -1.1246437126035666e-01 0.0000000000000000e+00  4.5408689798476030e-02 -1.0846647632120397e-01 0.0000000000000000e+00  5.4176817436015774e-02 -1.0120993820822387e-01 0.0000000000000000e+00  6.2779594120668733e-02 -9.1337263287788087e-02 0.0000000000000000e+00  7.0914254193167631e-02 -7.9366186714971851e-02 0.0000000000000000e+00  7.8278080130767050e-02 -6.5742293415974651e-02 0.0000000000000000e+00  8.4594590204465372e-02 -5.0901032844901890e-02 0.0000000000000000e+00  8.9663585748552127e-02 -3.5312354530705123e-02 0.0000000000000000e+00  9.3404765919593832e-02 -1.9476430267245902e-02 0.0000000000000000e+00  9.5985478726355572e-02 -3.8222431914710325e-03 0.0000000000000000e+00  0.0000000000000000e+00 0.0000000000000000e+00 0.0000000000000000e+00  1.1335248592051561e-03 -3.0297557546965639e-02 0.0000000000000000e+00  4.3661102578938628e-03 -5.9997239624730456e-02 0.0000000000000000e+00  9.4079204357578015e-03 -8.4919366926750339e-02 0.0000000000000000e+00  1.5979436064638312e-02 -1.0339353181304348e-01 0.0000000000000000e+00  2.3834654110486065e-02 -1.1524183573553799e-01 0.0000000000000000e+00  3.2744496893630681e-02 -1.2104276832873456e-01 0.0000000000000000e+00  4.2471030150254822e-02 -1.2165474772285456e-01 0.0000000000000000e+00  5.2745975474790228e-02 -1.1794565063764530e-01 0.0000000000000000e+00  6.3259877405722004e-02 -1.1066905620964615e-01 0.0000000000000000e+00  7.3661925403942521e-02 -1.0043591311399024e-01 0.0000000000000000e+00  8.3568005677607748e-02 -8.7744315850646154e-02 0.0000000000000000e+00  9.2578365993264175e-02 -7.3042895238727160e-02 0.0000000000000000e+00  1.0030765907747026e-01 -5.6808691828390670e-02 0.0000000000000000e+00  1.0645405012103556e-01 -3.9617765543791969e-02 0.0000000000000000e+00  1.1087598015066844e-01 -2.2172630241510633e-02 0.0000000000000000e+00  1.1384672659878646e-01 -5.1433731114559232e-03 0.0000000000000000e+00  0.0000000000000000e+00 0.0000000000000000e+00 0.0000000000000000e+00  1.2467894360199436e-03 -3.2636937452898584e-02 0.0000000000000000e+00  4.7864234540470531e-03 -6.4381470267179386e-02 0.0000000000000000e+00  1.0312204638080658e-02 -9.1052868312273022e-02 0.0000000000000000e+00  1.7559234565921379e-02 -1.1101951502742743e-01 0.0000000000000000e+00  2.6303667012513243e-02 -1.2413041432067781e-01 0.0000000000000000e+00  3.6329663262197470e-02 -1.3096046064044981e-01 0.0000000000000000e+00  4.7394280803471571e-02 -1.3233624046532352e-01 0.0000000000000000e+00  5.9203238411898028e-02 -1.2907705344682732e-01 0.0000000000000000e+00  7.1401560044817972e-02 -1.2188337913350029e-01 0.0000000000000000e+00  8.3575497958122871e-02 -1.1131775785441472e-01 0.0000000000000000e+00  9.5260520760973161e-02 -9.7841149228134819e-02 0.0000000000000000e+00  1.0595550255449726e-01 -8.1883918694280397e-02 0.0000000000000000e+00  1.1514551131145179e-01 -6.3944427558253428e-02 0.0000000000000000e+00  1.2237055070894140e-01 -4.4708536912940411e-02 0.0000000000000000e+00  1.2733252354774333e-01 -2.5146328420933638e-02 0.0000000000000000e+00  1.3028908054843588e-01 -6.3000596285582126e-03 0.0000000000000000e+00  0.0000000000000000e+00 0.0000000000000000e+00 0.0000000000000000e+00  1.3121752143599125e-03 -3.5142004522203611e-02 0.0000000000000000e+00  5.0243646419760443e-03 -6.9067279238037821e-02 0.0000000000000000e+00  1.0831799289251431e-02 -9.7639321118748568e-02 0.0000000000000000e+00  1.8504751981263400e-02 -1.1928373130708514e-01 0.0000000000000000e+00  2.7860715699105480e-02 -1.3387273481797854e-01 0.0000000000000000e+00  3.8713075852135161e-02 -1.4196014172999286e-01 0.0000000000000000e+00  5.0826336577013007e-02 -1.4431785009748990e-01 0.0000000000000000e+00  6.3890468459682839e-02 -1.4169444892223856e-01 0.0000000000000000e+00  7.7514989434310261e-02 -1.3471882207627339e-01 0.0000000000000000e+00  9.1234792946007601e-02 -1.2388927404307973e-01 0.0000000000000000e+00  1.0452047281428889e-01 -1.0961008648320475e-01 0.0000000000000000e+00  1.1678257165070309e-01 -9.2263070989423754e-02 0.0000000000000000e+00  1.2736935750479778e-01 -7.2326086180672336e-02 0.0000000000000000e+00  1.3560491734206281e-01 -5.0545474564185677e-02 0.0000000000000000e+00  1.4089059898646150e-01 -2.8146853198974177e-02 0.0000000000000000e+00  1.4317279775349401e-01 -6.6378489888256733e-03 0.0000000000000000e+00  0.0000000000000000e+00 0.0000000000000000e+00 0.0000000000000000e+00  1.3169500040430434e-03 -3.7703998090553324e-02 0.0000000000000000e+00  5.0275871379632997e-03 -7.3854021193986416e-02 0.0000000000000000e+00  1.0845009629211920e-02 -1.0440533367229811e-01 0.0000000000000000e+00  1.8591276712228263e-02 -1.2785943327052854e-01 0.0000000000000000e+00  2.8142193861272074e-02 -1.4410636784855826e-01 0.0000000000000000e+00  3.9356192227043452e-02 -1.5365878382183720e-01 0.0000000000000000e+00  5.2019750369099206e-02 -1.5720913019632873e-01 0.0000000000000000e+00  6.5821573489303883e-02 -1.5541311858853601e-01 0.0000000000000000e+00  8.0351803434821886e-02 -1.4881181851372335e-01 0.0000000000000000e+00  9.5115599298371531e-02 -1.3782754131048977e-01 0.0000000000000000e+00  1.0954878178143176e-01 -1.2279539124970854e-01 0.0000000000000000e+00  1.2300822336407742e-01 -1.0402309803640486e-01 0.0000000000000000e+00  1.3474678393533995e-01 -8.1890797413447319e-02 0.0000000000000000e+00  1.4385829809369910e-01 -5.7053567882907441e-02 0.0000000000000000e+00  1.4926722273528376e-01 -3.0862353755439983e-02 0.0000000000000000e+00  1.5015390561713729e-01 -5.3154088957285397e-03 0.0000000000000000e+00  0.0000000000000000e+00 0.0000000000000000e+00 0.0000000000000000e+00  1.2631936883002199e-03 -4.0199899208028071e-02 0.0000000000000000e+00  4.7875692107838428e-03 -7.8501596443396965e-02 0.0000000000000000e+00  1.0300801061382819e-02 -1.1100246852438868e-01 0.0000000000000000e+00  1.7680881182986174e-02 -1.3630352714993740e-01 0.0000000000000000e+00  2.6874205495547979e-02 -1.5430953934346855e-01 0.0000000000000000e+00  3.7799838088273356e-02 -1.6547236585792538e-01 0.0000000000000000e+00  5.0283536314271106e-02 -1.7038102041821979e-01 0.0000000000000000e+00  6.4032118179983638e-02 -1.6957823281822004e-01 0.0000000000000000e+00  7.8638994959163558e-02 -1.6350459211011653e-01 0.0000000000000000e+00  9.3607550329794842e-02 -1.5250250454005262e-01 0.0000000000000000e+00  1.0837318239840353e-01 -1.3684063390094089e-01 0.0000000000000000e+00  1.2230362228610422e-01 -1.1673575982087323e-01 0.0000000000000000e+00  1.3466607816631188e-01 -9.2388315669991394e-02 0.0000000000000000e+00  1.4437988845936967e-01 -6.4194545649117404e-02 0.0000000000000000e+00  1.4985605233940613e-01 -3.3299117944863704e-02 0.0000000000000000e+00  1.4899162798200319e-01 -1.7008393072545621e-03 0.0000000000000000e+00  0.0000000000000000e+00 0.0000000000000000e+00 0.0000000000000000e+00  1.1779720550887005e-03 -4.2526402848157001e-02 0.0000000000000000e+00  4.3661617269950322e-03 -8.2769002819272811e-02 0.0000000000000000e+00  9.2606330432522168e-03 -1.1703766511383942e-01 0.0000000000000000e+00  1.5782621662020060e-02 -1.4407619676663472e-01 0.0000000000000000e+00  2.3958351510196835e-02 -1.6381031790589856e-01 0.0000000000000000e+00  3.3784034623491103e-02 -1.7661527392082726e-01 0.0000000000000000e+00  4.5145032180810694e-02 -1.8295611593373962e-01 0.0000000000000000e+00  5.7790962357279055e-02 -1.8324640832430070e-01 0.0000000000000000e+00  7.1347066565547165e-02 -1.7781729742286898e-01 0.0000000000000000e+00  8.5342901273319796e-02 -1.6693192632308748e-01 0.0000000000000000e+00  9.9244901047099515e-02 -1.5080396423134332e-01 0.0000000000000000e+00  1.1249525363020435e-01 -1.2958762730726428e-01 0.0000000000000000e+00  1.2447044533604548e-01 -1.0334560005532270e-01 0.0000000000000000e+00  1.3419501823605814e-01 -7.2008714574123112e-02 0.0000000000000000e+00  1.3995823564915361e-01 -3.5673359155080568e-02 0.0000000000000000e+00  1.3803025106750236e-01 3.8952725195973178e-03 0.0000000000000000e+00  0.0000000000000000e+00 0.0000000000000000e+00 0.0000000000000000e+00  1.1184192681786983e-03 -4.4643713581165659e-02 0.0000000000000000e+00  3.8988340340141794e-03 -8.6459869027412456e-02 0.0000000000000000e+00  7.9020244711035109e-03 -1.2211511486844774e-01 0.0000000000000000e+00  1.3074546568178854e-02 -1.5058527413321410e-01 0.0000000000000000e+00  1.9536158628809981e-02 -1.7183575528213363e-01 0.0000000000000000e+00  2.7376121121440850e-02 -1.8615286062477010e-01 0.0000000000000000e+00  3.6558527830904859e-02 -1.9386288116367784e-01 0.0000000000000000e+00  4.6902734092288685e-02 -1.9524101048864315e-01 0.0000000000000000e+00  5.8098975961123248e-02 -1.9050366885173309e-01 0.0000000000000000e+00  6.9734592979246182e-02 -1.7983118358749894e-01 0.0000000000000000e+00  8.1329183954117604e-02 -1.6339089806281409e-01 0.0000000000000000e+00  9.2380492369060430e-02 -1.4133641193805135e-01 0.0000000000000000e+00  1.0239156665158350e-01 -1.1369669837137457e-01 0.0000000000000000e+00  1.1098043775673143e-01 -7.9947524296131320e-02 0.0000000000000000e+00  1.1697919430237533e-01 -3.8723220006927503e-02 0.0000000000000000e+00  1.1441842956077075e-01 9.8929731748379594e-03 0.0000000000000000e+00  0.0000000000000000e+00 0.0000000000000000e+00 0.0000000000000000e+00  1.1382010531554578e-03 -4.6611860469601286e-02 0.0000000000000000e+00  3.4991036671054012e-03 -8.9444289649489639e-02 0.0000000000000000e+00  6.3863031846747020e-03 -1.2588071990627289e-01 0.0000000000000000e+00  9.7954306143294163e-03 -1.5527252381786483e-01 0.0000000000000000e+00  1.3956732811461469e-02 -1.7763523523737787e-01 0.0000000000000000e+00  1.9049526533535640e-02 -1.9315149564685913e-01 0.0000000000000000e+00  2.5118576941882419e-02 -2.0200363053753159e-01 0.0000000000000000e+00  3.2071024064088814e-02 -2.0433285385175154e-01 0.0000000000000000e+00  3.9696169443675801e-02 -2.0024495167859621e-01 0.0000000000000000e+00  4.7682997360191944e-02 -1.8983136375363086e-01 0.0000000000000000e+00  5.5630543110841438e-02 -1.7319571800657296e-01 0.0000000000000000e+00  6.3048568349494155e-02 -1.5047436245666510e-01 0.0000000000000000e+00  6.9460367466705517e-02 -1.2179493765301021e-01 0.0000000000000000e+00  7.4688607469740931e-02 -8.7084630843476951e-02 0.0000000000000000e+00  7.8734504528892468e-02 -4.4729381694512980e-02 0.0000000000000000e+00  8.0495825002811452e-02 1.0764042106078911e-02 0.0000000000000000e+00  0.0000000000000000e+00 0.0000000000000000e+00 0.0000000000000000e+00  1.1169416842486406e-03 -4.8447640340559560e-02 0.0000000000000000e+00  2.8563516388470018e-03 -9.1536356726824378e-02 0.0000000000000000e+00  4.3899815482697363e-03 -1.2805026039697762e-01 0.0000000000000000e+00  5.8555132129434855e-03 -1.5777172035438827e-01 0.0000000000000000e+00  7.5366967506340981e-03 -1.8072656552827449e-01 0.0000000000000000e+00  9.6277573615258221e-03 -1.9698261690465738e-01 0.0000000000000000e+00  1.2209213354555227e-02 -2.0659615786174962e-01 0.0000000000000000e+00  1.5264630751791162e-02 -2.0960458858550868e-01 0.0000000000000000e+00  1.8701380853127687e-02 -2.0603093346718274e-01 0.0000000000000000e+00  2.2358858039882381e-02 -1.9589181759084029e-01 0.0000000000000000e+00  2.5994635625762902e-02 -1.7920852740113188e-01 0.0000000000000000e+00  2.9252419349044635e-02 -1.5601785452271927e-01 0.0000000000000000e+00  3.1625857359118471e-02 -1.2641162399777991e-01 0.0000000000000000e+00  3.2275444961381711e-02 -9.0556497112258660e-02 0.0000000000000000e+00  3.1114067703838504e-02 -4.8223013274301944e-02 0.0000000000000000e+00  2.7162480233755996e-02 3.5863833261787510e-03 0.0000000000000000e+00  0.0000000000000000e+00 0.0000000000000000e+00 0.0000000000000000e+00  0.0000000000000000e+00 -4.9472339384883809e-02 0.0000000000000000e+00  0.0000000000000000e+00 -9.2348366851783117e-02 0.0000000000000000e+00  0.0000000000000000e+00 -1.2862808240069792e-01 0.0000000000000000e+00  0.0000000000000000e+00 -1.5831148603162820e-01 0.0000000000000000e+00  0.0000000000000000e+00 -1.8139857774457399e-01 0.0000000000000000e+00  0.0000000000000000e+00 -1.9788935753953524e-01 0.0000000000000000e+00  0.0000000000000000e+00 -2.0778382541651202e-01 0.0000000000000000e+00  0.0000000000000000e+00 -2.110