<?xml version="1.0"?>
<VTKFile type="UnstructuredGrid"  version="0.1"  >
<UnstructuredGrid>
<Piece  NumberOfPoints="289" NumberOfCells="512">
<Points>
<DataArray  type="Float64"  NumberOfComponents="3"  format="ascii">0 0 0  0.0625 0 0  0.125 0 0  0.1875 0 0  0.25 0 0  0.3125 0 0  0.375 0 0  0.4375 0 0  0.5 0 0  0.5625 0 0  0.625 0 0  0.6875 0 0  0.75 0 0  0.8125 0 0  0.875 0 0  0.9375 0 0  1 0 0  0 0.0625 0  0.06247206842076411 0.06246919019273275 0  0.1249440335375732 0.06243784218226601 0  0.1874158465973256 0.06240545766858689 0  0.2498877113387108 0.06237165505728879 0  0.3123602571440854 0.06233624466293149 0  0.3748347804960996 0.06229932257523556 0  0.4373135958071324 0.06226138398602205 0  0.4998005635721065 0.0622234487464915 0  0.5623019225126685 0.06218717735167387 0  0.6248276898203531 0.06215493145523673 0  0.6873942368522135 0.06212969739300978 0  0.7500295538645252 0.06211474733503602 0  0.8127852101065745 0.06211288286300736 0  0.8757659777724148 0.06212518922381848 0  0.9392068191789499 0.06215003490529697 0  1.003666824562054 0.06219133076663291 0  0 0.125 0  0.06244426693030675 0.1249388933008113 0  0.1248882246467363 0.124876650977975 0  0.1873316684941216 0.1248122111250504 0  0.2497748759976277 0.1247447316258207 0  0.3122189406946425 0.1246737362707898 0  0.3746662397865219 0.1245993029132381 0  0.4371211119207205 0.1245222996919401 0  0.499590863339875 0.1244446619484299 0  0.5620873027285047 0.1243696763312399 0  0.6246291719442889 0.1243021925371908 0  0.6872461823298177 0.1242486108925249 0  0.7499860395365768 0.1242164010068355 0  0.8129269668048884 0.1242128500373815 0  0.8761991913165316 0.1242429631700907 0  0.9400153813958014 0.1243077392876756 0  1.004690157379865 0.1244071050919397 0  0 0.1875 0  0.06241689021396796 0.1874097224106562 0  0.1248330530337354 0.1873176044783907 0  0.1872478989176953 0.1872219005780108 0  0.2496614873207237 0.187121158444681 0  0.3120749820786038 0.1870144247337389 0  0.374491293302978 0.1869015230165041 0  0.4369160036382373 0.1867834233958307 0  0.4993587151747428 0.1866627099711588 0  0.561835013060246 0.1865441222382856 0  0.6243693303544898 0.1864350848991281 0  0.686999106688557 0.1863460241924302 0  0.7497806626597441 0.1862900553131663 0  0.8127967416675551 0.1862812082457024 0  0.8761633976895542 0.1863293601591475 0  0.9400271216498008 0.1864269373816352 0  1.004531242688726 0.186511536540568 0  0 0.25 0  0.06239044116114038 0.2498823959690028 0  0.1247794454069422 0.2497621067449032 0  0.187165720110425 0.2496365424658668 0  0.249548691884659 0.2495034319340153 0  0.3119290243761553 0.2493610649390814 0  0.3743093600864987 0.2492086429980917 0  0.4366953963044048 0.2490467803396579 0  0.4990974330578879 0.2488781936598265 0  0.5615325549152007 0.2487085998256698 0  0.6240276026819043 0.2485477861967657 0  0.6866229860560594 0.2484106938833933 0  0.7493770112365543 0.2483180992830158 0  0.8123693716107132 0.2482959923359313 0  0.8757001665806642 0.2483718995430478 0  0.9394770890793975 0.2485653094183151 0  1.00378122164666 0.2488703938908156 0  0 0.3125 0  0.06236568977745383 0.312357768558068 0  0.1247289095666101 0.3122118583596004 0  0.1870873060349827 0.3120586585304763 0  0.2494391941996159 0.3118948337389014 0  0.3117840649851782 0.3117175653485615 0  0.3741233407675832 0.3115249358329245 0  0.4364615017868938 0.3113165282057087 0  0.4988077327548586 0.3110943294445801 0  0.5611782488939362 0.3108640381552775 0  0.6235994137298829 0.3106368630288742 0  0.6861115746463985 0.3104318187912979 0  0.7487730734173459 0.3102783009240047 0  0.8116629655541671 0.310218221070348 0  0.8748796531691576 0.3103060778296035 0  0.9385320314965443 0.3106041204195187 0  1.002723880149665 0.3111691015649671 0  0 0.375 0  0.0623436865543693 0.3748368372602374 0  0.124683572961461 0.3746688782766875 0  0.187015909914277 0.3744913332028371 0  0.2493374302113362 0.3742995588970404 0  0.3116457636952354 0.3740892441071084 0  0.373940109144587 0.3738567594383807 0  0.4362223054449972 0.3735997737350537 0  0.498498489800107 0.3733182852730048 0  0.5607815693801055 0.3730162783449267 0  0.6230947267812393 0.372704283710216 0  0.6854760519572304 0.3724031576751232 0  0.7479840234739896 0.3721492993111377 0  0.8107028526219693 0.3720010865865068 0  0.8737458592810515 0.3720451997842711 0  0.9372552470676511 0.3723994885047563 0  1.001400843057824 0.3732066419760176 0  0 0.4375 0  0.06232572353227581 0.4373207149287365 0  0.1246461110105083 0.4371354575471743 0  0.1869557726885637 0.4369381648309476 0  0.2492494778169193 0.436722698345809 0  0.3115223873813606 0.4364829054538463 0  0.3737705282190318 0.4362128379445007 0  0.4359916727836808 0.4359072470119212 0  0.4981868754561276 0.4355625516133076 0  0.5603630330102761 0.4351786027582937 0  0.6225369667220589 0.4347617549296371 0  0.6847416063292682 0.4343300039961493 0  0.7470347537953699 0.4339211771685161 0  0.8095104049607692 0.4336050729210366 0  0.8723116277209245 0.4334993652816875 0  0.9356433497774024 0.433786077729463 0  0.9997863530879736 0.4347208333382299 0  0 0.5 0  0.06231324123589028 0.4998105638062664 0  0.1246195599981515 0.49961402872405 0  0.1869118415653546 0.4994030780891411 0  0.2491826867847624 0.4991700145266069 0  0.311424371782257 0.4989066270510087 0  0.373628991332736 0.4986041654084856 0  0.4357889578550316 0.4982535298995402 0  0.4978981676953025 0.4978458823713223 0  0.5599543810885457 0.4973740632448923 0  0.6219637279572702 0.4968355206438031 0  0.6839487499719943 0.4962380050095512 0  0.7459618866948851 0.4956101147328923 0  0.8081063518208155 0.4950197075561886 0  0.8705650304995372 0.4946031633815583 0  0.933634958283026 0.494604721061091 0  0.9977646505780227 0.4954146328990965 0  0 0.5625 0  0.06230768494613878 0.5623074879985267 0  0.1246070191042848 0.5621069446312394 0  0.1868892994515642 0.5618899786100944 0  0.2491450169378971 0.5616474632669001 0  0.3113634656211384 0.5613691559191406 0  0.3735324168657008 0.561043326646833 0  0.4356379971572811 0.5606564538478321 0  0.4976650868422209 0.560193130771237 0  0.5595989122108853 0.5596365125232715 0  0.621429172667045 0.5589700263689165 0  0.6831592073126846 0.5581818920390876 0  0.7448244424458309 0.5572756581980696 0  0.8065261495915748 0.5562929633839441 0  0.8684861071813145 0.5553586553679344 0  0.9311204719061075 0.5547580508984324 0  0.9951155499343709 0.5550389234422219 0  0 0.625 0  0.06231032027959421 0.624812391457474 0  0.1246112588893918 0.6246161775322324 0  0.1868929232504229 0.6244022593523851 0  0.2491440884519034 0.6241604566334009 0  0.311351417065825 0.6238788647548689 0  0.3734985583781786 0.6235430876985653 0  0.4355651644861605 0.6231353135362664 0  0.4975260237662732 0.6226332328704358 0  0.5593509101328729 0.6220089054481436 0  0.6210066569437875 0.6212279771229021 0  0.6824649125975945 0.6202504616995116 0  0.7437228289134256 0.6190364824925467 0  0.8048500995925777 0.6175660040037566 0  0.8660815366589346 0.6158944277204335 0  0.927966724443992 0.614283129353256 0  0.9915588131494564 0.6134208735568676 0  0 0.6875 0  0.06232202644492363 0.6873258182509456 0  0.1246342718171802 0.6871429725842825 0  0.1869263190517795 0.6869422093965812 0  0.2491859897820789 0.686712930178775 0  0.3113982071753146 0.686442329544426 0  0.373543508689824 0.6861142714220191 0  0.4355960713942712 0.6857077609232961 0  0.4975211654225677 0.6851948158605194 0  0.559272203899795 0.6845374775666606 0  0.6207883802829774 0.6836836706310329 0  0.6819962016259371 0.6825618344093917 0  0.7428241773539693 0.681075564846345 0  0.8032536867004639 0.6791053039404312 0  0.8634543044664894 0.676547156138854 0  0.924059454953801 0.6734970988680997 0  0.9865479638901818 0.6707075802761425 0  0 0.75 0  0.06234309534985441 0.7498478014653206 0  0.1246768239105717 0.7496875123419128 0  0.1869911274046979 0.7495104206725709 0  0.2492739677170635 0.7493063611051597 0  0.3115099616418381 0.7490627396372276 0  0.373678454533818 0.7487631985892286 0  0.4357506859351962 0.7483856921221456 0  0.4976855484566362 0.747899606294918 0  0.5594232977240926 0.7472613111625023 0  0.6208766865044033 0.7464070732526474 0  0.6819202991484028 0.7452413955916224 0  0.742384450234995 0.7436173873754427 0  0.8020796108478927 0.7413045369568099 0  0.8609396125920057 0.7379481047218864 0  0.9195344999114619 0.7331251001617225 0  0.979643439872835 0.7275970878599464 0  0 0.8125 0  0.06237307352004213 0.8123777526158863 0  0.1247380900809376 0.8122486637303724 0  0.1870863437356569 0.8121053207423997 0  0.2494072312358398 0.8119389532092217 0  0.3116868819121508 0.8117384961154785 0  0.3739061228374949 0.8114892731024428 0  0.4360372791776829 0.8111710452643273 0  0.4980389409063737 0.8107550081243626 0  0.5598471612377305 0.8101990112771332 0  0.6213604172198407 0.8094396412229155 0  0.6824140480755715 0.8083783436055609 0  0.7427391185580322 0.8068549797146437 0  0.8019089389165873 0.8045917770307496 0  0.8593350244179599 0.8010616718399117 0  0.9147121692134448 0.7951559368959575 0  0.9721838574516299 0.7841802580785406 0  0 0.875 0  0.06241068713258963 0.8749144216701433 0  0.1248154678896852 0.8748238770086403 0  0.1872079349443191 0.8747229622332455 0  0.2495801952982176 0.8746052228139138 0  0.3119217660486582 0.8744624176157457 0  0.3742178811189699 0.8742834721409929 0  0.4364467160064326 0.8740529159386818 0  0.4985745912386209 0.8737484827206656 0  0.5605472707212856 0.8733373643597879 0  0.6222734104983896 0.8727703043071809 0  0.6835916098602896 0.8719721201020257 0  0.744202182994616 0.8708254343217907 0  0.8035223801275027 0.8691363871577658 0  0.8603813502881104 0.8665331961662601 0  0.9124245978746004 0.8620855957950461 0  0.9552287783226616 0.8528388005701021 0  0 0.9375 0  0.06245388326686655 0.9374559473485985 0  0.1249046514517323 0.9374092836046897 0  0.1873489205415774 0.9373571608702601 0  0.249782500527232 0.9372961592536313 0  0.3121997895063697 0.9372218836275182 0  0.3745928320224343 0.9371283881523996 0  0.4369497474482072 0.9
[...]
<PointData  Vectors="f_95-0"> 
<DataArray  type="Float64"  Name="f_95-0"  NumberOfComponents="3" format="ascii">0.0000000000000000e+00 0.0000000000000000e+00 0.0000000000000000e+00  -5.4407858412589623e-04 -2.0720254379535456e-02 0.0000000000000000e+00  -1.5162820166654302e-03 -2.6445913011217712e-02 0.0000000000000000e+00  -2.6727963381714139e-03 -2.3653946734381731e-02 0.0000000000000000e+00  -4.0337924464382939e-03 -1.6767269174558039e-02 0.0000000000000000e+00  -5.5718957370586523e-03 -8.7502559549412027e-03 0.0000000000000000e+00  -7.2497096396973550e-03 -1.3736671493847258e-03 0.0000000000000000e+00  -9.0143718060363056e-03 4.4816432017590075e-03 0.0000000000000000e+00  -1.0800227871012397e-02 8.5398115555330098e-03 0.0000000000000000e+00  -1.2530674669926526e-02 1.0890353466245492e-02 0.0000000000000000e+00  -1.4118942829889996e-02 1.1806844584335801e-02 0.0000000000000000e+00  -1.5467601365541015e-02 1.1622397734264149e-02 0.0000000000000000e+00  -1.6469300412873093e-02 1.0655402811559691e-02 0.0000000000000000e+00  -1.6990157205615461e-02 9.1601864929977805e-03 0.0000000000000000e+00  -1.6864841998018909e-02 7.3464665513435969e-03 0.0000000000000000e+00  -1.6157734383205318e-02 5.3836277928835238e-03 0.0000000000000000e+00  -7.2320656725209072e-03 6.8507095651875972e-03 0.0000000000000000e+00  0.0000000000000000e+00 0.0000000000000000e+00 0.0000000000000000e+00  -4.0640922989166190e-04 -1.9873024046548907e-02 0.0000000000000000e+00  -1.2619122168946780e-03 -2.5386270515718071e-02 0.0000000000000000e+00  -2.3291914272340476e-03 -2.2402992278289791e-02 0.0000000000000000e+00  -3.6080152436066808e-03 -1.5338790629391254e-02 0.0000000000000000e+00  -5.0703559683290380e-03 -7.1681911793054186e-03 0.0000000000000000e+00  -6.6811617757996837e-03 3.2179134504397227e-04 0.0000000000000000e+00  -8.3876328066495188e-03 6.2357809309045564e-03 0.0000000000000000e+00  -1.0125332812285547e-02 1.0285215339469432e-02 0.0000000000000000e+00  -1.1819952508116191e-02 1.2548007364658696e-02 0.0000000000000000e+00  -1.3388227109284678e-02 1.3286561295852073e-02 0.0000000000000000e+00  -1.4738592743329655e-02 1.2822845393566672e-02 0.0000000000000000e+00  -1.5771297076868633e-02 1.1460384433873433e-02 0.0000000000000000e+00  -1.6376488171323866e-02 9.4410620932087290e-03 0.0000000000000000e+00  -1.6478008599260793e-02 6.9258734373025274e-03 0.0000000000000000e+00  -1.5768579750209902e-02 3.9097958995074665e-03 0.0000000000000000e+00  -1.5626793403293770e-02 1.7871784017955896e-03 0.0000000000000000e+00  0.0000000000000000e+00 0.0000000000000000e+00 0.0000000000000000e+00  -2.0209389518732545e-04 -1.9312066627455375e-02 0.0000000000000000e+00  -7.6630306377722241e-04 -2.4539867792402015e-02 0.0000000000000000e+00  -1.5985894887502825e-03 -2.1335240726485325e-02 0.0000000000000000e+00  -2.6806382417243939e-03 -1.4065925293961418e-02 0.0000000000000000e+00  -3.9799284240987515e-03 -5.7172997488463047e-03 0.0000000000000000e+00  -5.4563897526049227e-03 1.9072309690657998e-03 0.0000000000000000e+00  -7.0544505269465934e-03 7.8996113160731442e-03 0.0000000000000000e+00  -8.7103707974345891e-03 1.1961000975443116e-02 0.0000000000000000e+00  -1.0353398783115107e-02 1.4160214446542176e-02 0.0000000000000000e+00  -1.1906816084599292e-02 1.4751317863195015e-02 0.0000000000000000e+00  -1.3289246021599288e-02 1.4049458433977403e-02 0.0000000000000000e+00  -1.4418829071660817e-02 1.2355681837927842e-02 0.0000000000000000e+00  -1.5226205705507076e-02 9.9196124269354674e-03 0.0000000000000000e+00  -1.5667060471431946e-02 6.9308519510955808e-03 0.0000000000000000e+00  -1.5831354883145514e-02 3.5968301003805564e-03 0.0000000000000000e+00  -1.5568872983035784e-02 3.4558318903759195e-04 0.0000000000000000e+00  0.0000000000000000e+00 0.0000000000000000e+00 0.0000000000000000e+00  -3.0467807854661860e-05 -1.9056891438511466e-02 0.0000000000000000e+00  -2.7440152534102114e-04 -2.3995611609220105e-02 0.0000000000000000e+00  -8.1522169231077130e-04 -2.0515164353324740e-02 0.0000000000000000e+00  -1.6605460787981953e-03 -1.2990895543709960e-02 0.0000000000000000e+00  -2.7776477754576871e-03 -4.4239863829149207e-03 0.0000000000000000e+00  -4.1160227070292116e-03 3.3690351470102866e-03 0.0000000000000000e+00  -5.6140816323319237e-03 9.4712493178139203e-03 0.0000000000000000e+00  -7.2064098964760535e-03 1.3577497176326491e-02 0.0000000000000000e+00  -8.8245121160780461e-03 1.5750869230977845e-02 0.0000000000000000e+00  -1.0396741680102831e-02 1.6240066443285600e-02 0.0000000000000000e+00  -1.1848855342649924e-02 1.5357459407356673e-02 0.0000000000000000e+00  -1.3108463423601663e-02 1.3408777436000387e-02 0.0000000000000000e+00  -1.4113465209249451e-02 1.0663189062573367e-02 0.0000000000000000e+00  -1.4829580857945975e-02 7.3587856322580615e-03 0.0000000000000000e+00  -1.5218139214798594e-02 3.7096301875305356e-03 0.0000000000000000e+00  -1.5241920814910725e-02 -5.5550205315332778e-05 0.0000000000000000e+00  0.0000000000000000e+00 0.0000000000000000e+00 0.0000000000000000e+00  1.0624728605253759e-04 -1.9064000475729228e-02 0.0000000000000000e+00  1.3481297379432967e-04 -2.3756743922035910e-02 0.0000000000000000e+00  -1.3514351678460719e-04 -1.9956485146374766e-02 0.0000000000000000e+00  -7.5749222717613393e-04 -1.2119564848603975e-02 0.0000000000000000e+00  -1.7052574403553201e-03 -3.2837183829849698e-03 0.0000000000000000e+00  -2.9194741515046418e-03 4.7196019399309520e-03 0.0000000000000000e+00  -4.3320932817196098e-03 1.0968832224935051e-02 0.0000000000000000e+00  -5.8754522299263876e-03 1.5157396434930923e-02 0.0000000000000000e+00  -7.4827904689705555e-03 1.7346070865344943e-02 0.0000000000000000e+00  -9.0857473274785702e-03 1.7779805311707933e-02 0.0000000000000000e+00  -1.0612316415132252e-02 1.6768185039058896e-02 0.0000000000000000e+00  -1.1987854928823281e-02 1.4619345129562830e-02 0.0000000000000000e+00  -1.3139565238400664e-02 1.1614030626505536e-02 0.0000000000000000e+00  -1.3997865775552915e-02 8.0029166993168706e-03 0.0000000000000000e+00  -1.4493223527056768e-02 4.0090656527260746e-03 0.0000000000000000e+00  -1.4566745455653125e-02 -1.9703072709580696e-04 0.0000000000000000e+00  0.0000000000000000e+00 0.0000000000000000e+00 0.0000000000000000e+00  2.0765184391449202e-04 -1.9278299869507281e-02 0.0000000000000000e+00  4.4353563354352846e-04 -2.3773275946474073e-02 0.0000000000000000e+00  3.8999909356042452e-04 -1.9626240726210095e-02 0.0000000000000000e+00  -4.4262251383099054e-05 -1.1430643589390258e-02 0.0000000000000000e+00  -8.3717659148781209e-04 -2.2839740000156991e-03 0.0000000000000000e+00  -1.9240696489367679e-03 5.9638166549556542e-03 0.0000000000000000e+00  -3.2330219484843731e-03 1.2390789441672021e-02 0.0000000000000000e+00  -4.6974096456378336e-03 1.6693997512325049e-02 0.0000000000000000e+00  -6.2552996103253386e-03 1.8934810937575892e-02 0.0000000000000000e+00  -7.8436181840224849e-03 1.9354166445120391e-02 0.0000000000000000e+00  -9.3924703086534899e-03 1.8255305314093074e-02 0.0000000000000000e+00  -1.0822650219897839e-02 1.5941808261213757e-02 0.0000000000000000e+00  -1.2047010743010303e-02 1.2693627019539033e-02 0.0000000000000000e+00  -1.2973666127044545e-02 8.7636355564850357e-03 0.0000000000000000e+00  -1.3513757607307081e-02 4.3773013040881211e-03 0.0000000000000000e+00  -1.3596966302221923e-02 -2.6034897013737059e-04 0.0000000000000000e+00  0.0000000000000000e+00 0.0000000000000000e+00 0.0000000000000000e+00  2.7651588659380392e-04 -1.9640678517921381e-02 0.0000000000000000e+00  6.5404232247977961e-04 -2.3978216915040249e-02 0.0000000000000000e+00  7.5846047269717619e-04 -1.9476679206577349e-02 0.0000000000000000e+00  4.8415566881087143e-04 -1.0904692170581098e-02 0.0000000000000000e+00  -1.4300534207752400e-04 -1.4345822022013193e-03 0.0000000000000000e+00  -1.0530769873309256e-03 7.0654610919120529e-03 0.0000000000000000e+00  -2.1755352621507522e-03 1.3679339874194296e-02 0.0000000000000000e+00  -3.4527230558652360e-03 1.8113653513391045e-02 0.0000000000000000e+00  -4.8362485206053614e-03 2.0432987357383040e-02 0.0000000000000000e+00  -6.2766448820744548e-03 2.0873076701223660e-02 0.0000000000000000e+00  -7.7137118235792038e-03 1.9726734803188917e-02 0.0000000000000000e+00  -9.0718292833684901e-03 1.7286072390185130e-02 0.0000000000000000e+00  -1.0260860837709156e-02 1.3821464999532190e-02 0.0000000000000000e+00  -1.1178487792536117e-02 9.5814705954667470e-03 0.0000000000000000e+00  -1.1721699755484438e-02 4.8015112878241738e-03 0.0000000000000000e+00  -1.1795989295505800e-02 -2.8738478499057939e-04 0.0000000000000000e+00  0.0000000000000000e+00 0.0000000000000000e+00 0.0000000000000000e+00  3.1310904246862107e-04 -2.0095274926224455e-02 0.0000000000000000e+00  7.6751856966078265e-04 -2.4305502818463946e-02 0.0000000000000000e+00  9.7814785177525228e-04 -1.9467526807868826e-02 0.0000000000000000e+00  8.5811097823159787e-04 -1.0547139709586392e-02 0.0000000000000000e+00  4.5266594443246674e-04 -7.9256168351814172e-04 0.0000000000000000e+00  -1.6185359641764278e-04 7.9193971605989108e-03 0.0000000000000000e+00  -9.2474133785568893e-04 1.4690001618664733e-02 0.0000000000000000e+00  -1.8008407008931453e-03 1.9243645277967198e-02 0.0000000000000000e+00  -2.7706056862875418e-03 2.1651506484915262e-02 0.0000000000000000e+00  -3.8134780708630228e-03 2.2143381721430936e-02 0.0000000000000000e+00  -4.8951890509359268e-03 2.0997298022856509e-02 0.0000000000000000e+00  -5.9616698194280117e-03 1.8487789127199568e-02 0.0000000000000000e+00  -6.9392584100208422e-03 1.4872461518987494e-02 0.0000000000000000e+00  -7.7348094000606266e-03 1.0391956932174382e-02 0.0000000000000000e+00  -8.2401085988199167e-03 5.2717902383109605e-03 0.0000000000000000e+00  -8.3020809692780726e-03 -2.5727231685760202e-04 0.0000000000000000e+00  0.0000000000000000e+00 0.0000000000000000e+00 0.0000000000000000e+00  3.1056639240345583e-04 -2.0581551226938218e-02 0.0000000000000000e+00  7.6681111799260673e-04 -2.4687284884118019e-02 0.0000000000000000e+00  1.0330217568199382e-03 -1.9571508063051881e-02 0.0000000000000000e+00  1.0865589363159419e-03 -1.0400370168028708e-02 0.0000000000000000e+00  1.0133605384079274e-03 -4.7921186632062017e-04 0.0000000000000000e+00  8.9642696100854691e-04 8.3307990917108922e-03 0.0000000000000000e+00  7.7312126888898604e-04 1.5168259874286124e-02 0.0000000000000000e+00  6.3575216205027625e-04 1.9787398377858485e-02 0.0000000000000000e+00  4.5272884094971335e-04 2.2270314264904223e-02 0.0000000000000000e+00  1.9253823184681556e-04 2.2838762576467098e-02 0.0000000000000000e+00  -1.5941989538701960e-04 2.1752533803129886e-02 0.0000000000000000e+00  -5.9256758009052868e-04 1.9273573996598049e-02 0.0000000000000000e+00  -1.0824513744233316e-03 1.5652898434580780e-02 0.0000000000000000e+00  -1.5889891769877065e-03 1.1105007501950809e-02 0.0000000000000000e+00  -2.0251683331931705e-03 5.8001759632309632e-03 0.0000000000000000e+00  -2.1464366046686128e-03 -8.6550750701912163e-05 0.0000000000000000e+00  0.0000000000000000e+00 0.0000000000000000e+00 0.0000000000000000e+00  2.4931039430408226e-04 -2.1017936536768336e-02 0.0000000000000000e+00  5.9878208122443133e-04 -2.5037902625522458e-02 0.0000000000000000e+00  8.5224681763131180e-04 -1.9766399638519984e-02 0.0000000000000000e+00  1.1141845000191277e-03 -1.0544434987340255e-02 0.0000000000000000e+00  1.5360610472979640e-03 -6.8679241612945791e-04 0.0000000000000000e+00  2.2029465870310218e-03 8.0054982548675210e-03 0.0000000000000000e+00  3.1072222674665899e-03 1.4739006845814424e-02 0.0000000000000000e+00  4.1698726658052805e-03 1.9313466836737087e-02 0.0000000000000000e+00  5.2778341730550090e-03 2.1825264373192144e-02 0.0000000000000000e+00  6.3186390042459231e-03 2.2485442166993691e-02 0.0000000000000000e+00  7.2069335263931717e-03 2.1537038753564393e-02 0.0000000000000000e+00  7.8808600244788633e-03 1.9231274359791384e-02 0.0000000000000000e+00  8.2674502874331857e-03 1.5810332871776151e-02 0.0000000000000000e+00  8.2986227227792916e-03 1.1488903398835770e-02 0.0000000000000000e+00  7.9537476637006263e-03 6.3784393276870473e-03 0.0000000000000000e+00  7.5421719923618397e-03 4.2362618603607416e-04 0.0000000000000000e+00  0.0000000000000000e+00 0.0000000000000000e+00 0.0000000000000000e+00  9.0853023407868314e-05 -2.1275225610646882e-02 0.0000000000000000e+00  1.5831016304791349e-04 -2.5225828022932127e-02 0.0000000000000000e+00  2.8587186046230188e-04 -2.0016285505854339e-02 0.0000000000000000e+00  7.8811962096946215e-04 -1.1086657418126625e-02 0.0000000000000000e+00  1.9043210345070021e-03 -1.6710191440724071e-03 0.0000000000000000e+00  3.7056159454472120e-03 6.5593463080063832e-03 0.0000000000000000e+00  6.1063520538448103e-03 1.2919876136053936e-02 0.0000000000000000e+00  8.9188662151487956e-03 1.7272714431704250e-02 0.0000000000000000e+00  1.1912614414847006e-02 1.9729998180076744e-02 0.0000000000000000e+00  1.4865511406056518e-02 2.0485688011435139e-02 0.0000000000000000e+00  1.7594035907623689e-02 1.9749331824403395e-02 0.0000000000000000e+00  1.9934717825893643e-02 1.7754049406328607e-02 0.0000000000000000e+00  2.1727615435747576e-02 1.4830128848359216e-02 0.0000000000000000e+00  2.2711783398349290e-02 1.1339028857220965e-02 0.0000000000000000e+00  2.2461371811849467e-02 7.1974406804458180e-03 0.0000000000000000e+00  2.1195109383491707e-02 1.6426153718712172e-03 0.0000000000000000e+00  0.0000000000000000e+00 0.0000000000000000e+00 0.0000000000000000e+00  -2.2623656875174928e-04 -2.1142424191859872e-02 0.0000000000000000e+00  -7.1585530441795021e-04 -2.5042096014451180e-02 0.0000000000000000e+00  -8.9510436883140409e-04 -2.0250267204493692e-02 0.0000000000000000e+00  -1.4406516571875721e-04 -1.2142089894026820e-02 0.0000000000000000e+00  1.8690342780303792e-03 -3.7228909036897441e-03 0.0000000000000000e+00  5.1650563840640526e-03 3.5606031444968596e-03 0.0000000000000000e+00  9.5347823172631553e-03 9.1782604618479979e-03 0.0000000000000000e+00  1.4640680611292941e-02 1.3068082428549416e-02 0.0000000000000000e+00  2.0101434636439538e-02 1.5353949667254152e-02 0.0000000000000000e+00  2.5553864297154609e-02 1.6194035535971867e-02 0.0000000000000000e+00  3.0682600589282873e-02 1.5739834982080519e-02 0.0000000000000000e+00  3.5254818983925004e-02 1.4226328572909385e-02 0.0000000000000000e+00  3.9073137751353737e-02 1.2094752331329390e-02 0.0000000000000000e+00  4.1509201113234181e-02 9.8004673446536773e-03 0.0000000000000000e+00  4.1613689827094083e-02 7.4026131657770880e-03 0.0000000000000000e+00  3.8869638664161196e-02 4.0988153987028524e-03 0.0000000000000000e+00  0.0000000000000000e+00 0.0000000000000000e+00 0.0000000000000000e+00  -7.7903241191337237e-04 -2.0295959663914748e-02 0.0000000000000000e+00  -2.2051432885737648e-03 -2.4186061495437908e-02 0.0000000000000000e+00  -2.9294590203920489e-03 -2.0354207317620589e-02 0.0000000000000000e+00  -1.9555537813763196e-03 -1.3805928754583977e-02 0.0000000000000000e+00  1.1003920611511347e-03 -7.1057090752118784e-03 0.0000000000000000e+00  6.1454641907357239e-03 -1.3689250531241995e-03 0.0000000000000000e+00  1.2797172507271101e-02 3.0647202802030517e-03 0.0000000000000000e+00  2.0539012700626389e-02 6.2104065784258800e-03 0.0000000000000000e+00  2.8821455859522865e-02 8.1918462623476723e-03 0.0000000000000000e+00  3.7117803079246829e-02 9.1143171847572670e-03 0.0000000000000000e+00  4.4974046130374243e-02 9.0446567539069957e-03 0.0000000000000000e+00  5.2087076460295909e-02 8.0901228378070997e-03 0.0000000000000000e+00  5.8168345188510169e-02 6.5900204393733930e-03 0.0000000000000000e+00  6.2836159205604591e-02 5.8741797918332580e-03 0.0000000000000000e+00  6.4830497946596330e-02 7.8818540747562331e-03 0.0000000000000000e+00  6.1296624114170591e-02 7.9562329991922018e-03 0.0000000000000000e+00  0.0000000000000000e+00 0.0000000000000000e+00 0.0000000000000000e+00  -1.6182819015227935e-03 -1.8319865703318190e-02 0.0000000000000000e+00  -4.3658837479746554e-03 -2.2324654203278779e-02 0.0000000000000000e+00  -5.8332025643302475e-03 -2.0207251026734104e-02 0.0000000000000000e+00  -4.6884260460331260e-03 -1.6116668741916629e-02 0.0000000000000000e+00  -6.1378469423960334e-04 -1.1930716053533585e-02 0.0000000000000000e+00  6.1044961315806058e-03 -8.3527104744011045e-03 0.0000000000000000e+00  1.4885842329163198e-02 -5.5297152845142292e-03 0.0000000000000000e+00  2.5048659071686241e-02 -3.3904111479221726e-03 0.0000000000000000e+00  3.5904448404463343e-02 -1.8277754953812354e-03 0.0000000000000000e+00  4.6794928710702954e-02 -7.9273473915654133e-04 0.0000000000000000e+00  5.7130686391771823e-02 -3.2660672397555936e-04 0.0000000000000000e+00  6.6390840239443832e-02 -5.1638122082303900e-04 0.0000000000000000e+00  7.4270665906172720e-02 -1.0965775237800376e-03 0.0000000000000000e+00  8.1404730436558395e-02 -7.3032956105039857e-04 0.0000000000000000e+00  8.6675105560037879e-02 4.2953060777900795e-03 0.0000000000000000e+00  7.9440996603695274e-02 1.1795390131137364e-02 0.0000000000000000e+00  0.0000000000000000e+00 0.0000000000000000e+00 0.0000000000000000e+00  -2.6134671020694145e-03 -1.4858878928929540e-02 0.0000000000000000e+00  -6.7180722728755011e-03 -1.9302488941989594e-02 0.0000000000000000e+00  -8.8306976708365827e-03 -1.9776054553634050e-02 0.0000000000000000e+00  -7.5860160488892920e-03 -1.8968327740261758e-02 0.0000000000000000e+00  -2.9203998509972212e-03 -1.7903723620295089e-02 0.0000000000000000e+00  4.6547493748781751e-03 -1.6883832644810366e-02 0.0000000000000000e+00  1.4423154824840899e-02 -1.5918667651507099e-02 0.0000000000000000e+00  2.5642266835237026e-02 -1.4927303797492962e-02 0.0000000000000000e+00  3.7602944523625774e-02 -1.3837192675986815e-02 0.0000000000000000e+00  4.9632349096934203e-02 -1.2640355352144649e-02 0.0000000000000000e+00  6.1062610256228174e-02 -1.1435231552464830e-02 0.0000000000000000e+00  7.1214294532125591e-02 -1.0424501405547213e-02 0.0000000000000000e+00  7.9822819885524782e-02 -9.8787366369901854e-03 0.0000000000000000e+00  8.6822101342204791e-02 -1.0040772203069388e-02 0.0000000000000000e+00  9.2551359818391812e-02 -8.4999732280739478e-03 0.0000000000000000e+00  1.0245593825910594e-01 2.4899591799851704e-03 0.0000000000000000e+00  0.0000000000000000e+00 0.0000000000000000e+00 0.0000000000000000e+00  -2.9893348392476416e-03 -1.0254119939720341e-02 0.0000000000000000e+00  -7.2365919091594436e-03 -1.5736481388470936e-02 0.0000000000000000e+00  -9.1702294624858589e-03 -1.9305807738561748e-02 0.0000000000000000e+00  -8.0410212184097128e-03 -2.1925198362381774e-02 0.0000000000000000e+00  -4.1091375075772759e-03 -2.3880494532861462e-02 0.0000000000000000e+00  2.0650275418478427e-03 -2.5222569444479322e-02 0.0000000000000000e+00  9.8733639064581373e-03 -2.5927522665931145e-02 0.0000000000000000e+00  1.8753759628652118e-02 -2.5956208954156627e-02 0.0000000000000000e+00  2.8202336192280100e-02 -2.5281673910301703e-02 0.0000000000000000e+00  3.7746865937548071e-02 -2.3908218089960773e-02 0.0000000000000000e+00  4.6884274146126913e-02 -2.1889557999857014e-02 0.0000000000000000e+00  5.5058315672581806e-02 -1.9356801974864564e-02 0.0000000000000000e+00  6.1415269772537924e-02 -1.6713813134146108e-02 0.0000000000000000e+00  6.4425609372889325e-02 -1.4305804195519146e-02 0.0000000000000000e+00  6.5447352223112626e-02 -1.2446953049262814e-02 0.0000000000000000e+00  4.2769068867381750e-02 -1.0150811803849078e-02 0.0000000000000000e+00  0.0000000000000000e+00 8.5475267199248783e-19 0.0000000000000000e+00  0.0000000000000000e+00 -7.3437441541450363e-03 0.0000000000000000e+00  0.0000000000000000e+00 -1.3708322421070732e-02 0.0000000000000000e+00  0.0000000000000000e+00 -1.9093734800777092e-02 0.0000000000000000e+00  0.0000000000000000e+00 -2.3499981293264114e-02 0.0000000000000000e+00  0.0000000000000000e+00 -2.6927061898531796e-02 0.0000000000000000e+00  0.0000000000000000e+00 -2.9374976616580138e-02 0.0000000000000000e+00  0.0000000000000000e+00 -3.0843725447409154e-02 0.0000000000000000e+00  0.0000000000000000e+