<?xml version="1.0"?>
<VTKFile type="UnstructuredGrid"  version="0.1"  >
<UnstructuredGrid>
<Piece  NumberOfPoints="289" NumberOfCells="512">
<Points>
<DataArray  type="Float64"  NumberOfComponents="3"  format="ascii">0 0 0  0.0625 0 0  0.125 0 0  0.1875 0 0  0.25 0 0  0.3125 0 0  0.375 0 0  0.4375 0 0  0.5 0 0  0.5625 0 0  0.625 0 0  0.6875 0 0  0.75 0 0  0.8125 0 0  0.875 0 0  0.9375 0 0  1 0 0  0 0.0625 0  0.06247609804121227 0.06246955996575086 0  0.1249520904790052 0.06243858550430722 0  0.1874279116822822 0.06240658139054873 0  0.2499037094754601 0.06237316691512105 0  0.3123799931023298 0.06233814977992055 0  0.3748578420411597 0.06230161846618846 0  0.4373392130549001 0.06226405398849988 0  0.4998274075392067 0.06222645417357282 0  0.5623278141468898 0.06219044951935828 0  0.6248491632167071 0.06215836658816967 0  0.6874058276506808 0.06213316157471925 0  0.750022476772166 0.06211810940681517 0  0.8127444568395096 0.06211612628330043 0  0.8756627816620747 0.06212877278438692 0  0.9389759532644856 0.06215614849096063 0  1.003128431572901 0.0622088003032426 0  0 0.125 0  0.06245232104676141 0.1249396283890179 0  0.1249043466544941 0.1248781297468197 0  0.1873558589437305 0.1248144494381831 0  0.249807048925056 0.1247477484234732 0  0.3122588028419794 0.1246775467818345 0  0.3747131082735813 0.1246039087644051 0  0.4371736501239556 0.1245276755071888 0  0.4996467062040207 0.1244507385249155 0  0.5621425285606948 0.12437632167699 0  0.6246775495748801 0.1243091944293782 0  0.6872780602708354 0.1242556687542355 0  0.7499866030150553 0.1242231410527497 0  0.8128732894957957 0.1242188826070006 0  0.8760550121296569 0.1242479793503907 0  0.9397225899828126 0.1243114353312039 0  1.004163132985452 0.1244073671773155 0  0 0.1875 0  0.06242894372753576 0.1874108131955184 0  0.1248572243202376 0.1873198014422932 0  0.1872842810679908 0.1872252327440616 0  0.2497101036714663 0.1871256626820269 0  0.3121356229886807 0.18702013619983 0  0.3745632686047854 0.1869084607973713 0  0.4369977835087399 0.1867915702128777 0  0.4994474238617967 0.1866719851175513 0  0.5619257305681474 0.1865543479601212 0  0.6244541462652063 0.1864459487245979 0  0.6870658580099994 0.1863570435946618 0  0.7498112830302907 0.1863005559735342 0  0.8127652066646489 0.1862903294147183 0  0.8760336029735193 0.1863360905312547 0  0.939752484347934 0.1864301594462506 0  1.004062447977424 0.1865102028109747 0  0 0.25 0  0.06240641482265431 0.2498838257251617 0  0.124811553554555 0.2497649911565243 0  0.1872142460186844 0.2496409294213282 0  0.2496139300196754 0.249509385676542 0  0.312011094262872 0.2493686547665749 0  0.3744079204776662 0.2492179255707934 0  0.4368092258186057 0.249057773339883 0  0.4992238352078837 0.2488908382771339 0  0.5616665406085096 0.2487227099481827 0  0.6241608076509348 0.2485629839986586 0  0.6867423070120168 0.2484263356902767 0  0.7494630222159495 0.2483332029053804 0  0.8123947811225153 0.2483091864547243 0  0.8756290569290921 0.2483814213310015 0  0.9392667326379894 0.2485690619979069 0  1.003390024524871 0.2488659838968661 0  0 0.3125 0  0.0623854046198826 0.3123595108177 0  0.1247686482013943 0.3122153803231402 0  0.1871476516542364 0.3120640334695956 0  0.2495208961577235 0.3119021643918732 0  0.3118878541799585 0.311726972587049 0  0.3742496386629727 0.3115365398719432 0  0.4366099815660771 0.3113304187156078 0  0.4989766798885625 0.3111105196620586 0  0.5613636615636037 0.3108823971124601 0  0.6237937895483308 0.3106570203346155 0  0.6863023656484649 0.3104530401242119 0  0.7489408865888184 0.3102993432062343 0  0.8117797910083907 0.3102371990583201 0  0.8749077829808243 0.310320411901908 0  0.9384249193056583 0.3106106842611331 0  1.002430753535796 0.3111647346984206 0  0 0.375 0  0.06236681327294925 0.3748388528756289 0  0.1247303327223142 0.374672962315358 0  0.1870872916945868 0.3744975905156674 0  0.2494348193370772 0.374308141786881 0  0.3117707878445705 0.3741003434045639 0  0.3740943825526576 0.373870588191788 0  0.4364070212539506 0.3736165385835014 0  0.4987137921691519 0.3733381379262981 0  0.5610256192052724 0.3730392362182863 0  0.6233623655213101 0.372730105463459 0  0.6857569835179216 0.3724311590023578 0  0.7482605028379965 0.372178103847037 0  0.8109470299775327 0.3720283399557506 0  0.8739172027806019 0.3720673505899869 0  0.937298789341007 0.3724118675098646 0  1.001247078408953 0.3732042144367889 0  0 0.4375 0  0.06235173469870861 0.4373229493924309 0  0.1246988748959906 0.4371399965294093 0  0.1870367673765425 0.4369451491316972 0  0.2493608737401073 0.4367323383926258 0  0.3116669569512411 0.4364954777613848 0  0.3739514734326617 0.4362286760871887 0  0.4362123140913255 0.4359267216249945 0  0.4984501165144911 0.4355860298653056 0  0.5606704791741096 0.4352063711630779 0  0.6228875341560979 0.4347938797040388 0  0.6851294268604357 0.4343660917863295 0  0.7474461882086477 0.4339599937234088 0  0.8099200729914402 0.4336440016418052 0  0.8726775816749486 0.433533790129947 0  0.9359017592581549 0.4338090140500269 0  0.9998458710891518 0.4347234920146261 0  0 0.5 0  0.06234137539074178 0.4998129455347367 0  0.1246768217756092 0.4996188796477155 0  0.1870002385282064 0.499410575793154 0  0.2493052585185302 0.4991804306281764 0  0.311585197393888 0.4989203319837623 0  0.3738331544620918 0.4986216319443906 0  0.436042412835062 0.4982753309477951 0  0.4982074114620745 0.4978726739017667 0  0.5603257754537863 0.4974065339621752 0  0.6224022311958993 0.4968742727363597 0  0.6844557093800966 0.4962833005483474 0  0.7465314438826215 0.4956613798411342 0  0.8087199989621511 0.4950746531024865 0  0.8711840542272205 0.4946564424501297 0  0.9341909025213421 0.4946463827508871 0  0.9981477194578759 0.4954293582705895 0  0 0.5625 0  0.06233693211064924 0.5623099283401924 0  0.1246667449951825 0.5621119279548361 0  0.186982018527362 0.5618977150309398 0  0.249274622546618 0.561658280216808 0  0.3115353652476164 0.5613835132147962 0  0.3737536870690228 0.5610618366941752 0  0.4359175156613882 0.5606799057657282 0  0.4980135552510017 0.5602225139350708 0  0.5600286033820198 0.5596730264906458 0  0.6219531020691633 0.5590150433564121 0  0.683789218059577 0.5582367906283067 0  0.7455674130465891 0.557341348062917 0  0.8073772756476723 0.556368748540498 0  0.8694182817952018 0.555439904548249 0  0.9320696801217282 0.5548323647557001 0  0.9959635320541055 0.5550818826361597 0  0 0.625 0  0.0623394377774124 0.6248147870729326 0  0.1246709121305161 0.6246210815754827 0  0.1869860320980912 0.6244099042307173 0  0.2492752552351848 0.6241712098226589 0  0.3115272062744165 0.6238932540162189 0  0.3737278788410951 0.623561838738889 0  0.4358597443517795 0.6231594040621006 0  0.4979009324256674 0.6226639679242084 0  0.5598249994655558 0.6220480174163188 0  0.6216026266801891 0.6212777426359025 0  0.6832083876274995 0.6203137850753742 0  0.7446392928740019 0.6191167625587709 0  0.805957750739339 0.6176662408037493 0  0.8673775224590353 0.6160142302280297 0  0.9294053360471792 0.6144113939493304 0  0.9930232513832292 0.6135233377180118 0  0 0.6875 0  0.06234959152117159 0.6873280561801901 0  0.1246909154711364 0.6871475638443334 0  0.1870151793883529 0.6869493927681414 0  0.2493120871812077 0.6867230871599284 0  0.31156886113491 0.686456016738191 0  0.3737689500625909 0.6861322711486703 0  0.4358902930843917 0.6857311591642477 0  0.4979030460534014 0.6852251234797592 0  0.5597668892917271 0.6845768223436854 0  0.6214287596907785 0.6837351045571523 0  0.6828239514659575 0.6826298129939874 0  0.7438890410351309 0.681166605186154 0  0.8046080631693004 0.6792284770942639 0  0.8651376755643641 0.67671256154714 0  0.9260669034711194 0.6737056381700051 0  0.9887919492904289 0.6709281279548244 0  0 0.75 0  0.06236759643818088 0.7498497666611988 0  0.1247273081014555 0.7496915513799018 0  0.1870706862852729 0.7495167588835664 0  0.2493876098990105 0.7493153607259668 0  0.3116651259251672 0.7490749338688167 0  0.3738858002633678 0.7487793453963014 0  0.436025267541757 0.7484068587333049 0  0.498048521362864 0.7479273056840507 0  0.5599043322607131 0.7472977342865046 0  0.6215172337682797 0.7464555108893394 0  0.6827776135393554 0.7453070516175334 0  0.7435354585405742 0.7437089926815607 0  0.8036214352057828 0.7414374426766166 0  0.8629777168698979 0.7381491340470879 0  0.922136277061574 0.7334322302110093 0  0.9827713269017468 0.7279692881297433 0  0 0.8125 0  0.06239303513362206 0.812379337109719 0  0.124779315219283 0.8122519248338375 0  0.1871515622374785 0.8121104495995981 0  0.2495009121044574 0.8119462577684481 0  0.3118157656103446 0.8117484305910762 0  0.3740800714005168 0.8115024832598658 0  0.4362706043466031 0.8111884366067024 0  0.4983524677132177 0.8107778502402693 0  0.560271428414529 0.8102291075980003 0  0.621940604695276 0.8094796403081118 0  0.6832173820342538 0.808432410904396 0  0.7438653066419305 0.8069304751132039 0  0.8035025023828473 0.8047037858952825 0  0.8615916514015952 0.8012454549571727 0  0.9178463467011765 0.7955022750696601 0  0.9761628975534934 0.7849848907753317 0  0 0.875 0  0.06242481509248841 0.8749155340624942 0  0.1248446968689399 0.874826168660262 0  0.1872543134905583 0.8747265717906338 0  0.2496471043994271 0.8746103734622807 0  0.3120143669483497 0.8744694374336454 0  0.3743438507870472 0.8742928230414723 0  0.4366174412265131 0.8740652306984593 0  0.4988071220913822 0.8737646043122806 0  0.5608675662021618 0.8733583677278974 0  0.6227218228852218 0.8727974504918183 0  0.6842322675135065 0.8720066507361957 0  0.7451390310306151 0.8708681614225217 0  0.8049257788574383 0.8691876924803115 0  0.8625277448047849 0.8665970589093093 0  0.9157363481653451 0.8621897544308184 0  0.9602406505975434 0.8530968687827554 0  0 0.9375 0  0.06246120925428199 0.9374565212012246 0  0.1249198253410557 0.9374104664806281 0  0.1873730440993667 0.9373590256189341 0  0.2498174020109339 0.937298822923043 0  0.3122482825461282 0.9372255173765595 0  0.3746591490357303 0.9371332297222925 0  0.43704026223557 0.9370136845
[...]
<PointData  Vectors="f_95-0"> 
<DataArray  type="Float64"  Name="f_95-0"  NumberOfComponents="3" format="ascii">0.0000000000000000e+00 0.0000000000000000e+00 0.0000000000000000e+00  -3.9756806075269210e-04 -2.8414718242028861e-02 0.0000000000000000e+00  -1.1025816999560361e-03 -4.0847642953649795e-02 0.0000000000000000e+00  -1.9328769283900617e-03 -4.3045666663559926e-02 0.0000000000000000e+00  -2.9132105867097071e-03 -3.9326932722678190e-02 0.0000000000000000e+00  -4.0308599030254881e-03 -3.2830372704293065e-02 0.0000000000000000e+00  -5.2614345535370623e-03 -2.5623068245734820e-02 0.0000000000000000e+00  -6.5646002427098057e-03 -1.8905455812496863e-02 0.0000000000000000e+00  -7.8871710210541898e-03 -1.3242619844423332e-02 0.0000000000000000e+00  -9.1658686264543161e-03 -8.7809009859550705e-03 0.0000000000000000e+00  -1.0329154805313590e-02 -5.4258712044169223e-03 0.0000000000000000e+00  -1.1297937130165980e-02 -2.9742344081965396e-03 0.0000000000000000e+00  -1.1986918958978668e-02 -1.2004552549582889e-03 0.0000000000000000e+00  -1.2294278172583058e-02 8.5277725363649574e-05 0.0000000000000000e+00  -1.2097933836551935e-02 1.0345877570484305e-03 0.0000000000000000e+00  -1.1426127071255459e-02 1.7565471875064850e-03 0.0000000000000000e+00  -4.9684782677021609e-03 4.6651888953690270e-03 0.0000000000000000e+00  0.0000000000000000e+00 0.0000000000000000e+00 0.0000000000000000e+00  -2.7846259668976763e-04 -2.7798356549072360e-02 0.0000000000000000e+00  -8.5163780802176162e-04 -4.0092032385689758e-02 0.0000000000000000e+00  -1.5559414236340102e-03 -4.2159017046476149e-02 0.0000000000000000e+00  -2.4084707548897421e-03 -3.8310394411455763e-02 0.0000000000000000e+00  -3.3999200172731741e-03 -3.1695783605584497e-02 0.0000000000000000e+00  -4.5098333199203302e-03 -2.4398594385779244e-02 0.0000000000000000e+00  -5.6993198093136322e-03 -1.7633585951915356e-02 0.0000000000000000e+00  -6.9174975553330138e-03 -1.1977509373680381e-02 0.0000000000000000e+00  -8.1045345229803813e-03 -7.5862432744415722e-03 0.0000000000000000e+00  -9.1936969978051366e-03 -4.3734038958773746e-03 0.0000000000000000e+00  -1.0112851060238046e-02 -2.1426047574358222e-03 0.0000000000000000e+00  -1.0785488354098214e-02 -6.7644112420292611e-04 0.0000000000000000e+00  -1.1130768872235412e-02 2.1011547689825028e-04 0.0000000000000000e+00  -1.1095707171734326e-02 6.4342605366201125e-04 0.0000000000000000e+00  -1.0490922360872448e-02 6.3081928589401378e-04 0.0000000000000000e+00  -1.0335809266939375e-02 1.1335340062466237e-03 0.0000000000000000e+00  0.0000000000000000e+00 0.0000000000000000e+00 0.0000000000000000e+00  -7.8176003088823676e-05 -2.7463243712282748e-02 0.0000000000000000e+00  -3.1910317810948983e-04 -3.9600409679484555e-02 0.0000000000000000e+00  -6.9715409326316158e-04 -4.1532567827168486e-02 0.0000000000000000e+00  -1.2333296530908457e-03 -3.7541893287696221e-02 0.0000000000000000e+00  -1.9243644977275469e-03 -3.0794134364381266e-02 0.0000000000000000e+00  -2.7512768127917679e-03 -2.3391479291895972e-02 0.0000000000000000e+00  -3.6767903239344280e-03 -1.6562245760152475e-02 0.0000000000000000e+00  -4.6543737462744744e-03 -1.0892666373346179e-02 0.0000000000000000e+00  -5.6316286171648553e-03 -6.5454688451901518e-03 0.0000000000000000e+00  -6.5526719966856198e-03 -3.4393309177040976e-03 0.0000000000000000e+00  -7.3599861979348549e-03 -1.3808740968572657e-03 0.0000000000000000e+00  -7.9980187613526866e-03 -1.5149396013941244e-04 0.0000000000000000e+00  -8.4235255124033813e-03 4.4438328483916898e-04 0.0000000000000000e+00  -8.6175916543651566e-03 5.6330118248156631e-04 0.0000000000000000e+00  -8.6676873349312931e-03 3.8128486752161972e-04 0.0000000000000000e+00  -8.4605492140584944e-03 1.9084878671751597e-04 0.0000000000000000e+00  0.0000000000000000e+00 0.0000000000000000e+00 0.0000000000000000e+00  1.1540737995198585e-04 -2.7462005072039490e-02 0.0000000000000000e+00  2.7015188658455587e-04 -3.9498558254190484e-02 0.0000000000000000e+00  3.1631701541253360e-04 -4.1286602719707577e-02 0.0000000000000000e+00  1.9117367576528021e-04 -3.7133449558353446e-02 0.0000000000000000e+00  -1.1356040973006292e-04 -3.0231620776000334e-02 0.0000000000000000e+00  -5.7759645918279096e-04 -2.2702585092998651e-02 0.0000000000000000e+00  -1.1641862555244360e-03 -1.5785806589195202e-02 0.0000000000000000e+00  -1.8312140789522584e-03 -1.0073089262699921e-02 0.0000000000000000e+00  -2.5352672341921712e-03 -5.7300054295230914e-03 0.0000000000000000e+00  -3.2333749605580929e-03 -2.6766649848347199e-03 0.0000000000000000e+00  -3.8838919900505372e-03 -7.1883766832932716e-04 0.0000000000000000e+00  -4.4493198574686215e-03 3.6832449341615706e-04 0.0000000000000000e+00  -4.9016454766270924e-03 7.9724393037262594e-04 0.0000000000000000e+00  -5.2329781322566658e-03 7.6158301576130147e-04 0.0000000000000000e+00  -5.4295931554818495e-03 4.3847236821460716e-04 0.0000000000000000e+00  -5.4734882491119232e-03 -1.4188925406500970e-05 0.0000000000000000e+00  0.0000000000000000e+00 0.0000000000000000e+00 0.0000000000000000e+00  2.8941368690661262e-04 -2.7784724143036729e-02 0.0000000000000000e+00  8.2276931178872331e-04 -3.9825546524398341e-02 0.0000000000000000e+00  1.3063750090657675e-03 -4.1477948638510190e-02 0.0000000000000000e+00  1.6199254012810597e-03 -3.7144323156354596e-02 0.0000000000000000e+00  1.7393246880229860e-03 -3.0067436845353641e-02 0.0000000000000000e+00  1.6847543740301180e-03 -2.2392314956512949e-02 0.0000000000000000e+00  1.4920858164754378e-03 -1.5366243295908551e-02 0.0000000000000000e+00  1.1978094024919193e-03 -9.5812008245080779e-03 0.0000000000000000e+00  8.3419365693128292e-04 -5.2008130398468458e-03 0.0000000000000000e+00  4.2933754564740732e-04 -2.1433596402327020e-03 0.0000000000000000e+00  8.7918926357793568e-06 -2.1258312701490141e-04 0.0000000000000000e+00  -4.0334974116582690e-04 8.2030163228433747e-04 0.0000000000000000e+00  -7.8423667993304986e-04 1.1749632516835813e-03 0.0000000000000000e+00  -1.1073614131532302e-03 1.0478273619196400e-03 0.0000000000000000e+00  -1.3361626412539658e-03 6.0985206504837394e-04 0.0000000000000000e+00  -1.4212295987724817e-03 -1.6936186574461184e-05 0.0000000000000000e+00  0.0000000000000000e+00 0.0000000000000000e+00 0.0000000000000000e+00  4.3629835186370159e-04 -2.8396035896360843e-02 0.0000000000000000e+00  1.3007892428583815e-03 -4.0557595237362021e-02 0.0000000000000000e+00  2.1890278780031902e-03 -4.2104737862801576e-02 0.0000000000000000e+00  2.9338482173826850e-03 -3.7592209176604233e-02 0.0000000000000000e+00  3.4989770188155606e-03 -3.0337928611381421e-02 0.0000000000000000e+00  3.9038328916273816e-03 -2.2515031116875018e-02 0.0000000000000000e+00  4.1811154241357430e-03 -1.5374009423775415e-02 0.0000000000000000e+00  4.3573188349840565e-03 -9.5003547296575227e-03 0.0000000000000000e+00  4.4481376235649605e-03 -5.0503436095063765e-03 0.0000000000000000e+00  4.4611585242597777e-03 -1.9377704942864957e-03 0.0000000000000000e+00  4.4007832657779458e-03 3.4934691012976983e-05 0.0000000000000000e+00  4.2732751623865686e-03 1.0956847981523786e-03 0.0000000000000000e+00  4.0916193075165256e-03 1.4595656911651524e-03 0.0000000000000000e+00  3.8838650780055437e-03 1.3110768665028528e-03 0.0000000000000000e+00  3.6978507006336595e-03 8.0141903252375630e-04 0.0000000000000000e+00  3.6059936675068016e-03 6.4156233149768223e-05 0.0000000000000000e+00  0.0000000000000000e+00 0.0000000000000000e+00 0.0000000000000000e+00  5.5251929995814666e-04 -2.9246046522188391e-02 0.0000000000000000e+00  1.6863598985017161e-03 -4.1640490555482849e-02 0.0000000000000000e+00  2.9266445083532830e-03 -4.3135873073012705e-02 0.0000000000000000e+00  4.0857650317648164e-03 -3.8481649085946999e-02 0.0000000000000000e+00  5.1279922962113242e-03 -3.1087407229340797e-02 0.0000000000000000e+00  6.0743956583641946e-03 -2.3153562604212374e-02 0.0000000000000000e+00  6.9502001001039253e-03 -1.5925572542161398e-02 0.0000000000000000e+00  7.7633356903963587e-03 -9.9735403030829228e-03 0.0000000000000000e+00  8.5022441520590693e-03 -5.4401752701694582e-03 0.0000000000000000e+00  9.1425722125171843e-03 -2.2317732644304227e-03 0.0000000000000000e+00  9.6555424554329496e-03 -1.4868872598942435e-04 0.0000000000000000e+00  1.0014822519444688e-02 1.0335739098825058e-03 0.0000000000000000e+00  1.0203364538432172e-02 1.5176664107270001e-03 0.0000000000000000e+00  1.0229738133329768e-02 1.4640698683672344e-03 0.0000000000000000e+00  1.0140366413330248e-02 9.9403932779299040e-04 0.0000000000000000e+00  1.0050492638247102e-02 2.2283241577441800e-04 0.0000000000000000e+00  0.0000000000000000e+00 0.0000000000000000e+00 0.0000000000000000e+00  6.3227036595033133e-04 -3.0276695289128231e-02 0.0000000000000000e+00  1.9598893726736136e-03 -4.3004535327227783e-02 0.0000000000000000e+00  3.4878059536631108e-03 -4.4530003639837848e-02 0.0000000000000000e+00  5.0473367665777548e-03 -3.9824619390786659e-02 0.0000000000000000e+00  6.6244459984415817e-03 -3.2391169611785751e-02 0.0000000000000000e+00  8.2464246858392019e-03 -2.4445199623807371e-02 0.0000000000000000e+00  9.9237971151188605e-03 -1.7211696944005685e-02 0.0000000000000000e+00  1.1631853713429069e-02 -1.1232860982984646e-02 0.0000000000000000e+00  1.3314992769836794e-02 -6.6299737201335552e-03 0.0000000000000000e+00  1.4899709606609647e-02 -3.2973179518565325e-03 0.0000000000000000e+00  1.6304744082632879e-02 -1.0314344473429820e-03 0.0000000000000000e+00  1.7447446789163257e-02 3.8889757807168793e-04 0.0000000000000000e+00  1.8251812761709420e-02 1.1561598404390609e-03 0.0000000000000000e+00  1.8672350854617860e-02 1.4017358625232278e-03 0.0000000000000000e+00  1.8726579994874978e-02 1.1766618809543848e-03 0.0000000000000000e+00  1.8601025768221573e-02 5.1065433852045530e-04 0.0000000000000000e+00  0.0000000000000000e+00 0.0000000000000000e+00 0.0000000000000000e+00  6.6206045031564687e-04 -3.1413491230921159e-02 0.0000000000000000e+00  2.0811370179470174e-03 -4.4559887077772642e-02 0.0000000000000000e+00  3.8118991669641050e-03 -4.6237850536169890e-02 0.0000000000000000e+00  5.7597154767856980e-03 -4.1648867070991837e-02 0.0000000000000000e+00  7.9605690482916734e-03 -3.4368273708628300e-02 0.0000000000000000e+00  1.0452015190388440e-02 -2.6597201416478804e-02 0.0000000000000000e+00  1.3217289255339148e-02 -1.9514164784654717e-02 0.0000000000000000e+00  1.6178002737617526e-02 -1.3616042359500093e-02 0.0000000000000000e+00  1.9211366881744612e-02 -8.9937367895027223e-03 0.0000000000000000e+00  2.2171097205931158e-02 -5.5271331503419039e-03 0.0000000000000000e+00  2.4900373573061376e-02 -3.0060314265499630e-03 0.0000000000000000e+00  2.7237543325160572e-02 -1.1955334936882989e-03 0.0000000000000000e+00  2.9007109175712711e-02 1.0685684517001641e-04 0.0000000000000000e+00  3.0041959829071180e-02 9.8561469722812430e-04 0.0000000000000000e+00  3.0272824411329839e-02 1.3537722642806213e-03 0.0000000000000000e+00  2.9961941419641563e-02 1.0580864199316419e-03 0.0000000000000000e+00  0.0000000000000000e+00 0.0000000000000000e+00 0.0000000000000000e+00  6.1483276469238976e-04 -3.2547697638783062e-02 0.0000000000000000e+00  1.9711421515101507e-03 -4.6177949734843959e-02 0.0000000000000000e+00  3.7779994710921650e-03 -4.8190634672057558e-02 0.0000000000000000e+00  6.0900569765890622e-03 -4.3993701192815357e-02 0.0000000000000000e+00  9.0259971541035364e-03 -3.7181524152635995e-02 0.0000000000000000e+00  1.2632464503198817e-02 -2.9887450748601156e-02 0.0000000000000000e+00  1.6844023202416122e-02 -2.3204518708245209e-02 0.0000000000000000e+00  2.1499123091534681e-02 -1.7562597391989423e-02 0.0000000000000000e+00  2.6376843155926408e-02 -1.3015556425864111e-02 0.0000000000000000e+00  3.1230851994279999e-02 -9.4290803236782243e-03 0.0000000000000000e+00  3.5813382510996562e-02 -6.5781984237431026e-03 0.0000000000000000e+00  3.9861241397010493e-02 -4.2012152044349198e-03 0.0000000000000000e+00  4.3047478059307275e-02 -2.0751700268507919e-03 0.0000000000000000e+00  4.5010899999715102e-02 -1.1089355651733712e-04 0.0000000000000000e+00  4.5465563465410530e-02 1.4849137112949004e-03 0.0000000000000000e+00  4.4648111131790791e-02 2.1252035624326057e-03 0.0000000000000000e+00  0.0000000000000000e+00 0.0000000000000000e+00 0.0000000000000000e+00  4.4443556989148407e-04 -3.3508666463594294e-02 0.0000000000000000e+00  1.4986558254952748e-03 -4.7661836528895073e-02 0.0000000000000000e+00  3.1850205601218610e-03 -5.0278582045885777e-02 0.0000000000000000e+00  5.8038432013561327e-03 -4.6894381892030566e-02 0.0000000000000000e+00  9.5859024962429065e-03 -4.1021323634562866e-02 0.0000000000000000e+00  1.4573191475021235e-02 -3.4642416594160647e-02 0.0000000000000000e+00  2.0617981035080862e-02 -2.8713760193326825e-02 0.0000000000000000e+00  2.7436810063585195e-02 -2.3575249999154651e-02 0.0000000000000000e+00  3.4674370073718402e-02 -1.9240880957363059e-02 0.0000000000000000e+00  4.1960597125499724e-02 -1.5569890940458289e-02 0.0000000000000000e+00  4.8940061538119140e-02 -1.2342507044660021e-02 0.0000000000000000e+00  5.5233299648585664e-02 -9.2749198359449257e-03 0.0000000000000000e+00  6.0401799581397748e-02 -5.9831475958448486e-03 0.0000000000000000e+00  6.3812300245950235e-02 -2.1467244436970618e-03 0.0000000000000000e+00  6.4571078377471974e-02 1.7789969885180792e-03 0.0000000000000000e+00  6.2536883353983760e-02 4.1604053417183392e-03 0.0000000000000000e+00  0.0000000000000000e+00 0.0000000000000000e+00 0.0000000000000000e+00  8.3832893786955315e-05 -3.4031234938011960e-02 0.0000000000000000e+00  4.8323134181692257e-04 -4.8717050189921680e-02 0.0000000000000000e+00  1.7642421713009275e-03 -5.2330004218980743e-02 0.0000000000000000e+00  4.5788902597913069e-03 -5.0358691354030059e-02 0.0000000000000000e+00  9.2789009670736795e-03 -4.6067992978128955e-02 0.0000000000000000e+00  1.5865720947736969e-02 -4.1179352041852316e-02 0.0000000000000000e+00  2.4062888580994448e-02 -3.6454378458739521e-02 0.0000000000000000e+00  3.3423052221163110e-02 -3.2123688014076772e-02 0.0000000000000000e+00  4.3424648598462602e-02 -2.8166135868184537e-02 0.0000000000000000e+00  5.3547355754312118e-02 -2.4461785790716725e-02 0.0000000000000000e+00  6.3304387289218320e-02 -2.0833679622201399e-02 0.0000000000000000e+00  7.2272714428308765e-02 -1.6950557970631368e-02 0.0000000000000000e+00  8.0013245854978390e-02 -1.2223734911841647e-02 0.0000000000000000e+00  8.5438459023438440e-02 -6.1653831175693657e-03 0.0000000000000000e+00  8.6935053916490215e-02 9.7410380556451574e-04 0.0000000000000000e+00  8.3194993545701340e-02 7.6689421905707664e-03 0.0000000000000000e+00  0.0000000000000000e+00 0.0000000000000000e+00 0.0000000000000000e+00  -5.4308367326744655e-04 -3.3732333183213406e-02 0.0000000000000000e+00  -1.2552818599036292e-03 -4.8947025175964914e-02 0.0000000000000000e+00  -7.2903572171887580e-04 -5.4109660201507218e-02 0.0000000000000000e+00  2.1130057003126120e-03 -5.4339172240144028e-02 0.0000000000000000e+00  7.7017015157276256e-03 -5.2420499885118502e-02 0.0000000000000000e+00  1.5933115260649448e-02 -4.9689304352174786e-02 0.0000000000000000e+00  2.6352894528637091e-02 -4.6665130527849846e-02 0.0000000000000000e+00  3.8323508740288580e-02 -4.3462779300954782e-02 0.0000000000000000e+00  5.1143831754475129e-02 -4.0039853090774631e-02 0.0000000000000000e+00  6.4123890333515524e-02 -3.6324962946822623e-02 0.0000000000000000e+00  7.6652986201889817e-02 -3.2228921335886916e-02 0.0000000000000000e+00  8.8299046252063987e-02 -2.7547319647664596e-02 0.0000000000000000e+00  9.8594749929728304e-02 -2.1767782499950223e-02 0.0000000000000000e+00  1.0681997245537736e-01 -1.3235717480150667e-02 0.0000000000000000e+00  1.1106537382977157e-01 2.6359498407657253e-04 0.0000000000000000e+00  1.0731987298501060e-01 1.2396341229509590e-02 0.0000000000000000e+00  0.0000000000000000e+00 0.0000000000000000e+00 0.0000000000000000e+00  -1.4729163706317797e-03 -3.2148199192835902e-02 0.0000000000000000e+00  -3.7333815582360776e-03 -4.7933157039440462e-02 0.0000000000000000e+00  -4.2543995169125968e-03 -5.5370847611861958e-02 0.0000000000000000e+00  -1.5867175073274928e-03 -5.8702890532707733e-02 0.0000000000000000e+00  4.6532527208423919e-03 -5.9969222351644577e-02 0.0000000000000000e+00  1.4174569741412535e-02 -6.0025310404464731e-02 0.0000000000000000e+00  2.6325036690156012e-02 -5.9138658125303521e-02 0.0000000000000000e+00  4.0300826230250539e-02 -5.7325914615163509e-02 0.0000000000000000e+00  5.5260995650160988e-02 -5.4540220271223634e-02 0.0000000000000000e+00  7.0386528841306625e-02 -5.0767203087153615e-02 0.0000000000000000e+00  8.4950773972919710e-02 -4.6051793187990825e-02 0.0000000000000000e+00  9.8335064128559163e-02 -4.0436886071810417e-02 0.0000000000000000e+00  1.1018237491135519e-01 -3.3466685366760902e-02 0.0000000000000000e+00  1.2127173178135837e-01 -2.3292388793480105e-02 0.0000000000000000e+00  1.2986111568075395e-01 -5.3878414884639828e-03 0.0000000000000000e+00  1.2097841914273959e-01 1.6985598043848048e-02 0.0000000000000000e+00  0.0000000000000000e+00 0.0000000000000000e+00 0.0000000000000000e+00  -2.5432086612026763e-03 -2.8915155605735748e-02 0.0000000000000000e+00  -6.3824815762453793e-03 -4.5473916823868865e-02 0.0000000000000000e+00  -7.9021383908032070e-03 -5.5973337758564681e-02 0.0000000000000000e+00  -5.6107920376474709e-03 -6.3160736198380987e-02 0.0000000000000000e+00  6.2508020672151423e-04 -6.8153427897675423e-02 0.0000000000000000e+00  1.0293980425601732e-02 -7.1333580506904262e-02 0.0000000000000000e+00  2.2619376757320678e-02 -7.2773159776576266e-02 0.0000000000000000e+00  3.6754947787028272e-02 -7.2438077243838175e-02 0.0000000000000000e+00  5.1860772778231409e-02 -7.0292705644366835e-02 0.0000000000000000e+00  6.7124524469253988e-02 -6.6360364236178387e-02 0.0000000000000000e+00  8.1751490132166635e-02 -6.0768481020563890e-02 0.0000000000000000e+00  9.4969682513788886e-02 -5.3735130905473938e-02 0.0000000000000000e+00  1.0661316907748941e-01 -4.5493945387461904e-02 0.0000000000000000e+00  1.1690206876267041e-01 -3.6200211000913377e-02 0.0000000000000000e+00  1.2630473072699752e-01 -2.2726700877550791e-02 0.0000000000000000e+00  1.4185280348331841e-01 3.9072661008920477e-03 0.0000000000000000e+00  0.0000000000000000e+00 0.0000000000000000e+00 0.0000000000000000e+00  -2.9430354793530903e-03 -2.4423814559695875e-02 0.0000000000000000e+00  -7.0806420563731074e-03 -4.2200771306201743e-02 0.0000000000000000e+00  -8.7592154581319030e-03 -5.6103808188552422e-02 0.0000000000000000e+00  -7.1321637230035307e-03 -6.7118486682254855e-02 0.0000000000000000e+00  -2.4082883989180385e-03 -7.5559929567477188e-02 0.0000000000000000e+00  4.8545373265141819e-03 -8.1502324792471048e-02 0.0000000000000000e+00  1.4014463836353276e-02 -8.4939372602485783e-02 0.0000000000000000e+00  2.4449981285017748e-02 -8.5846274184221777e-02 0.0000000000000000e+00  3.5580378314360749e-02 -8.4209717270655945e-02 0.0000000000000000e+00  4.6846128924326540e-02 -8.0050274052299294e-02 0.0000000000000000e+00  5.7650198809967516e-02 -7.3444728132104481e-02 0.0000000000000000e+00  6.7363985047462133e-02 -6.4554894774437155e-02 0.0000000000000000e+00  7.5104617409911659e-02 -5.3873075744995301e-02 0.0000000000000000e+00  7.9213562003519103e-02 -4.1812674427538180e-02 0.0000000000000000e+00  8.2081300427290796e-02 -2.8467938814077762e-02 0.0000000000000000e+00  5.7746648133017886e-02 -1.2093967215422965e-02 0.0000000000000000e+00  0.0000000000000000e+00 0.0000000000000000e+00 0.0000000000000000e+00  0.0000000000000000e+00 -2.1569798008855005e-02 0.0000000000000000e+00  0.0000000000000000e+00 -4.0263622949862674e-02 0.0000000000000000e+00  0.0000000000000000e+00 -5.6081474823023017e-02 0.0000000000000000e+00  0.0000000000000000e+00 -6.9023353628336018e-02 0.0000000000000000e+00  0.0000000000000000e+00 -7.9089259365801690e-02 0.0000000000000000e+00  0.0000000000000000e+00 -8.6279192035420019e-02 0.0000000000000000e+00  0.0000000000000000e+00 -9.0593151637191019e-02 0.0000000000000000