<?xml version="1.0"?>
<VTKFile type="UnstructuredGrid"  version="0.1"  >
<UnstructuredGrid>
<Piece  NumberOfPoints="289" NumberOfCells="512">
<Points>
<DataArray  type="Float64"  NumberOfComponents="3"  format="ascii">0 0 0  0.0625 0 0  0.125 0 0  0.1875 0 0  0.25 0 0  0.3125 0 0  0.375 0 0  0.4375 0 0  0.5 0 0  0.5625 0 0  0.625 0 0  0.6875 0 0  0.75 0 0  0.8125 0 0  0.875 0 0  0.9375 0 0  1 0 0  0 0.0625 0  0.06256728806768969 0.06247952154826261 0  0.1251366204708163 0.06245865190834515 0  0.1877100785741352 0.06243702546233788 0  0.2502897677997741 0.06241434555115784 0  0.3128778203875355 0.0623904301120765 0  0.3754763880987022 0.06236526987224492 0  0.4380876283388433 0.06233910031668346 0  0.5007137001194129 0.06231248390489486 0  0.5633568175901522 0.06228638991130361 0  0.6260194855464147 0.06226224324566584 0  0.6887052360567136 0.06224188768887481 0  0.7514207028845576 0.06222737076458237 0  0.8141812937461618 0.06222040685856729 0  0.8770266336501944 0.06222131868784397 0  0.9400618437311578 0.06222733241980929 0  1.003555950157468 0.06223363682198989 0  0 0.125 0  0.06263253626501541 0.1249594197120099 0  0.1252691687771218 0.1249180224549883 0  0.1879140767105276 0.1248750382219515 0  0.2505715101319521 0.1248298258601474 0  0.3132458094627402 0.1247819611179179 0  0.3759414068233879 0.1247313524026991 0  0.4386628137877146 0.1246783894215428 0  0.5014146190514526 0.1246241223127755 0  0.5642015618286489 0.1245704532757272 0  0.6270288369856503 0.1245202937466038 0  0.6899029703242626 0.124477592106032 0  0.7528339331966265 0.1244470708417927 0  0.8158395915693838 0.1244334674750624 0  0.878953300521605 0.1244402514584639 0  0.9422305718107948 0.124468962619853 0  1.005731251343353 0.1245242163174998 0  0 0.1875 0  0.06269369265526115 0.1874401271859335 0  0.1253935163946548 0.1873789493387263 0  0.1881057410750226 0.1873152211202135 0  0.250836782793303 0.1872478666966411 0  0.3135932552561336 0.1871761021078495 0  0.376381993426083 0.1870996041639864 0  0.4392100477001502 0.1870187396869022 0  0.5020846597836119 0.1869348624036687 0  0.5650132566695999 0.1868506681942594 0  0.6280035398729635 0.1867705631967157 0  0.6910637884876123 0.1867009265194697 0  0.754203447093005 0.1866500063163183 0  0.8174336059807654 0.1866268884165873 0  0.8807652158055044 0.1866382243383441 0  0.9441984249921654 0.1866790247799233 0  1.007691702514505 0.1867052848278205 0  0 0.25 0  0.06274873314294019 0.2499221379911982 0  0.1255055765421621 0.2498424027458314 0  0.1882788453239205 0.2497589799412829 0  0.2510771098163121 0.2496702346343377 0  0.3139092975778407 0.2495748527464902 0  0.3767847585376439 0.2494720502503067 0  0.4397132807549779 0.249361877728447 0  0.5027050446479842 0.2492456481714659 0  0.565770501196457 0.2491265080226193 0  0.628920141021904 0.249010144642534 0  0.6921640437016795 0.2489055563470758 0  0.7555108495043541 0.2488256638610414 0  0.8189651511469971 0.2487872426530743 0  0.8825209886878749 0.2488091059013718 0  0.9461475619819278 0.2489067511991246 0  1.009764880454056 0.2490825156645361 0  0 0.3125 0  0.06279569215489034 0.3124060243846743 0  0.1256013629902337 0.3123095246610195 0  0.1884272717310417 0.312208016647658 0  0.2512840790200157 0.3120991628447215 0  0.3141830232461761 0.3119809086691982 0  0.3771360572920919 0.3118517055141666 0  0.4401559252065675 0.3117108654035821 0  0.5032561483601999 0.3115591047732331 0  0.5664508689169341 0.3113993470840836 0  0.6297544467844355 0.3112378572378096 0  0.6931805847515012 0.3110857556678061 0  0.7567404955791966 0.31096086630478 0  0.820439158434962 0.3108896199678142 0  0.8842681854589109 0.3109082786726893 0  0.9481942416408043 0.3110620867499128 0  1.012146331022722 0.3114004658052851 0  0 0.375 0  0.06283270990074236 0.3748924384156222 0  0.1256770829061859 0.3747816372766364 0  0.1885451455458894 0.374664356384533 0  0.2514495087093835 0.3745374175693819 0  0.3144036448511589 0.3743978018234841 0  0.3774221355939477 0.3742428430803927 0  0.4405208706938658 0.3740705788936048 0  0.503717167786637 0.3738803472841977 0  0.5670297599781522 0.3736737602067199 0  0.630478551596288 0.3734562366943408 0  0.6940839452513274 0.3732393320091302 0  0.7578653605665493 0.3730441161498484 0  0.8218382941003235 0.3729057448426593 0  0.8860090908498133 0.3728789584212449 0  0.9503671908705668 0.3730433366442746 0  1.014877357859147 0.3735057148879935 0  0 0.4375 0  0.06285810048086542 0.437382093039146 0  0.1257292733044529 0.4372602090553711 0  0.1886270395920977 0.4371303077638793 0  0.2515657168160845 0.4369882713164221 0  0.3145608209881219 0.4368299219002011 0  0.3776294647277762 0.4366511280417682 0  0.4407907459587262 0.4364480665760256 0  0.5040661200262497 0.4362177513660829 0  0.5674797476157113 0.4359590121285551 0  0.6310588110074853 0.4356742203528114 0  0.694833785323919 0.4353722253675001 0  0.7588386227855239 0.4350731702015349 0  0.8231107346594434 0.4348160124724449 0  0.887690554937685 0.4346694036991506 0  0.9526205426044881 0.4347455726225193 0  1.017944442707097 0.4352147861191533 0  0 0.5 0  0.06287044238322599 0.4998757192217376 0  0.1257549854232676 0.4997467695587615 0  0.1886682592148368 0.4996083382526946 0  0.2516259147641252 0.4994553481184988 0  0.3146451656252242 0.4992823556111762 0  0.3777453641523973 0.4990835052084243 0  0.4409486307869823 0.4988525974113838 0  0.5042805715250226 0.4985833786175888 0  0.5677711605736278 0.4982702542105469 0  0.6314559562548294 0.4979097938103413 0  0.6953779917246686 0.4975036908008064 0  0.7595909626371543 0.4970643180359338 0  0.8241646799637735 0.4966246878730137 0  0.8891939567056448 0.4962551579003053 0  0.954811777147945 0.496088420338506 0  1.021207213746163 0.4963498264851233 0  0 0.5625 0  0.06286868838008602 0.5623739986913603 0  0.1257520119295103 0.5622427705779659 0  0.1886652022793394 0.5621008558841988 0  0.251624724321123 0.5619423174647472 0  0.3146489556558139 0.5617604904562269 0  0.3777589460449413 0.5615477302437425 0  0.4409793015227327 0.5612951852411527 0  0.5043392746632102 0.5609926630197904 0  0.567874234285227 0.5606287458333041 0  0.6316279009462794 0.5601914934160966 0  0.6956561893633497 0.5596704477933389 0  0.7600343662830648 0.5590614223259899 0  0.8248706200049177 0.5583770229488624 0  0.890330709430546 0.5576681425457709 0  0.9566787651142213 0.5570631715653214 0  1.02433697337566 0.5568257914752274 0  0 0.625 0  0.06285228611403162 0.6248774768620508 0  0.1257191396936559 0.6247494015740168 0  0.1886157684188385 0.6246099059811834 0  0.2515587826913768 0.6244524398847878 0  0.3145669914622781 0.6242693665593474 0  0.3776623221394712 0.6240514804760399 0  0.4408709290169544 0.6237874237044705 0  0.5042246006314345 0.6234629913233004 0  0.5677626981170885 0.6230603594729428 0  0.6315351709479977 0.6225573894206156 0  0.6956079690838409 0.6219274802484489 0  0.7600739296035184 0.6211412896292569 0  0.825075758260546 0.6201738611350597 0  0.8908533853012833 0.6190260668762179 0  0.9578329751261643 0.6177784384000694 0  1.026772061895291 0.6166913349427388 0  0 0.6875 0  0.06282129488753914 0.6873864662758328 0  0.125656398526299 0.6872673805353453 0  0.1885197709576306 0.6871368151935519 0  0.2514273682349208 0.6869880068200479 0  0.3143975128237584 0.6868128243627122 0  0.3774519252614721 0.6866010820515225 0  0.4406169901362827 0.6863396152876198 0  0.5039253631934495 0.6860110097518438 0  0.5674181232526853 0.6855918396712014 0  0.6311479687573383 0.6850502449937621 0  0.6951848527383995 0.6843427238193938 0  0.7596280190977621 0.6834104060382031 0  0.8246352150569652 0.6821769201330642 0  0.890495391713889 0.6805577678723169 0  0.9577944190247067 0.6785208063562397 0  1.027731346645215 0.676287897294379 0  0 0.75 0  0.06277647974862283 0.749900956225879 0  0.1255652667168644 0.7497967539462367 0  0.1883792890971021 0.7496818394717677 0  0.2512329555990456 0.7495497619192484 0  0.3141430390461282 0.7493925757003492 0  0.3771297492780328 0.7492000308708483 0  0.4402180707281719 0.7489584216155619 0  0.503439444927224 0.7486488950337551 0  0.5668338876461562 0.7482449086394825 0  0.6304527077357807 0.7477083306307619 0  0.6943624515596444 0.7469833334048964 0  0.7586528028098491 0.7459866246913408 0  0.8234595841068572 0.7445917161532747 0  0.8890442324853096 0.7426058824827643 0  0.9560621783386976 0.7397612188541541 0  1.026147415208537 0.7359988307376827 0  0 0.8125 0  0.06271936224880564 0.8124205472206614 0  0.1254487900978149 0.8123367473354959 0  0.1881988908445541 0.8122438894381285 0  0.2509815998576951 0.8121364255629197 0  0.3138109964088041 0.8120073956589664 0  0.3767043237736019 0.8118476243320245 0  0.4396832954623358 0.8116445397749854 0  0.5027757550581915 0.8113803768158994 0  0.5660176765713584 0.8110293729376924 0  0.6294552478068528 0.8105532927260407 0  0.6931462243397476 0.8098940893073424 0  0.7571589989286276 0.8089613576940292 0  0.8215695595959398 0.8076093213643876 0  0.88647896386896 0.8055901417993041 0  0.9522284753432081 0.8024504795048166 0  1.02112797801362 0.7973158793110233 0  0 0.875 0  0.06265220923285741 0.8749444279681688 0  0.1253115743695221 0.8748857067550257 0  0.1879856600392017 0.8748204075474412 0  0.2506830523856498 0.8747444524639572 0  0.3134140072175577 0.8746526593025139 0  0.3761912900721906 0.8745380928333074 0  0.4390312991353609 0.874391090686631 0  0.5019555616772421 0.87419774989718 0  0.5649926153495655 0.8739375205924833 0  0.6281799285173955 0.8735793187013898 0  0.6915642804902633 0.8730751680430966 0  0.7551952036026178 0.8723495793175469 0  0.8190952211557189 0.871280443367687 0  0.8831635639579563 0.8696563290803363 0  0.9469262131171238 0.8670416196191567 0  1.009164152783037 0.8622181532890736 0  0 0.9375 0  0.06257794719060571 0.9374714068437909 0  0.1251596214195641 0.9374411594309461 0  0.1877489735941318 0.9374074515574555 0  0.250350520399828 0.9373681225172918 0  0.3129697150450899 0.9373204052942625 0  0.3756134462305825 0.9372605632673504 0  0.4382907398811824 0.937
[...]
<PointData  Vectors="f_95-0"> 
<DataArray  type="Float64"  Name="f_95-0"  NumberOfComponents="3" format="ascii">0.0000000000000000e+00 0.0000000000000000e+00 0.0000000000000000e+00  8.4437238734224283e-04 -2.2008946964324143e-02 0.0000000000000000e+00  2.3655194134622609e-03 -4.4941043009240969e-02 0.0000000000000000e+00  4.2022197310235612e-03 -6.3987728154574541e-02 0.0000000000000000e+00  6.3386614699569238e-03 -7.7505027497068363e-02 0.0000000000000000e+00  8.6996250525762844e-03 -8.5343797785325790e-02 0.0000000000000000e+00  1.1212638512642550e-02 -8.8134615356837420e-02 0.0000000000000000e+00  1.3800861532044378e-02 -8.6817072494071765e-02 0.0000000000000000e+00  1.6383710266499457e-02 -8.2361179138495777e-02 0.0000000000000000e+00  1.8875764952513609e-02 -7.5622791709521006e-02 0.0000000000000000e+00  2.1184501256030851e-02 -6.7289739464480428e-02 0.0000000000000000e+00  2.3206191517576736e-02 -5.7882384249430589e-02 0.0000000000000000e+00  2.4822940598217623e-02 -4.7784477296257684e-02 0.0000000000000000e+00  2.5867105176267488e-02 -3.7261023195223786e-02 0.0000000000000000e+00  2.6129925346469636e-02 -2.6560592046815931e-02 0.0000000000000000e+00  2.5874537778207342e-02 -1.5784007380180053e-02 0.0000000000000000e+00  1.2200794925092344e-02 -1.1572738728313653e-02 0.0000000000000000e+00  0.0000000000000000e+00 0.0000000000000000e+00 0.0000000000000000e+00  7.1218509591628517e-04 -2.3356922285828453e-02 0.0000000000000000e+00  2.2559133616328556e-03 -4.6711007646347072e-02 0.0000000000000000e+00  4.2153721053907363e-03 -6.6094928164964192e-02 0.0000000000000000e+00  6.5141074365523358e-03 -7.9867782691492889e-02 0.0000000000000000e+00  9.0606921498936847e-03 -8.7880978976306881e-02 0.0000000000000000e+00  1.1777191820522436e-02 -9.0762792252523636e-02 0.0000000000000000e+00  1.4580377410870071e-02 -8.9451498474263452e-02 0.0000000000000000e+00  1.7384509278191972e-02 -8.4914632732002310e-02 0.0000000000000000e+00  2.0099300097517387e-02 -7.8003271801255117e-02 0.0000000000000000e+00  2.2628085654485323e-02 -6.9397454627850227e-02 0.0000000000000000e+00  2.4866195047131449e-02 -5.9605616784976313e-02 0.0000000000000000e+00  2.6696914389369799e-02 -4.8988104127107045e-02 0.0000000000000000e+00  2.7983987015376487e-02 -3.7785011944089175e-02 0.0000000000000000e+00  2.8630059253339054e-02 -2.6133412420066910e-02 0.0000000000000000e+00  2.8011940533098700e-02 -1.3909126081513718e-02 0.0000000000000000e+00  2.8592410102133779e-02 -3.4442172799861448e-03 0.0000000000000000e+00  0.0000000000000000e+00 0.0000000000000000e+00 0.0000000000000000e+00  6.1571562575362900e-04 -2.4580204458273448e-02 0.0000000000000000e+00  2.2176145303002218e-03 -4.8613869521272030e-02 0.0000000000000000e+00  4.4638797183923634e-03 -6.8451664755143332e-02 0.0000000000000000e+00  7.1799012490755838e-03 -8.2553006471097382e-02 0.0000000000000000e+00  1.0230845053358575e-02 -9.0788678969145206e-02 0.0000000000000000e+00  1.3510834616675588e-02 -9.3792766699811195e-02 0.0000000000000000e+00  1.6916893311458930e-02 -9.2506204776264783e-02 0.0000000000000000e+00  2.0347341914331064e-02 -8.7895666043482118e-02 0.0000000000000000e+00  2.3697046979327095e-02 -8.0808575789307752e-02 0.0000000000000000e+00  2.6856538766801014e-02 -7.1919785382140930e-02 0.0000000000000000e+00  2.9713638418519223e-02 -6.1732490629051291e-02 0.0000000000000000e+00  3.2159640474345406e-02 -5.0604638301553463e-02 0.0000000000000000e+00  3.4107153905492099e-02 -3.8782185439496832e-02 0.0000000000000000e+00  3.5497339153581137e-02 -2.6426727836641292e-02 0.0000000000000000e+00  3.6538134323442599e-02 -1.3761733126625255e-02 0.0000000000000000e+00  3.7072671603501368e-02 -1.6595210248869958e-03 0.0000000000000000e+00  0.0000000000000000e+00 0.0000000000000000e+00 0.0000000000000000e+00  6.3954025653545148e-04 -2.5797686892017752e-02 0.0000000000000000e+00  2.4228963875197467e-03 -5.0753494570595602e-02 0.0000000000000000e+00  5.0926961084979067e-03 -7.1247767712202148e-02 0.0000000000000000e+00  8.4206378066213044e-03 -8.5816087154709730e-02 0.0000000000000000e+00  1.2225966829777037e-02 -9.4369763239530405e-02 0.0000000000000000e+00  1.6362496469080848e-02 -9.7563396327659979e-02 0.0000000000000000e+00  2.0697800144240844e-02 -9.6346117818287058e-02 0.0000000000000000e+00  2.5103819312424627e-02 -9.1685270077989572e-02 0.0000000000000000e+00  2.9449464429121337e-02 -8.4425195772580230e-02 0.0000000000000000e+00  3.3599862853353091e-02 -7.5238066950787635e-02 0.0000000000000000e+00  3.7421204501216110e-02 -6.4630252551422934e-02 0.0000000000000000e+00  4.0793758852506780e-02 -5.2976668183353164e-02 0.0000000000000000e+00  4.3631282060460991e-02 -4.0565683261975703e-02 0.0000000000000000e+00  4.5922895281551475e-02 -2.7657313127239229e-02 0.0000000000000000e+00  4.7684392872807471e-02 -1.4528807818153395e-02 0.0000000000000000e+00  4.8874993477986385e-02 -1.6117591105842494e-03 0.0000000000000000e+00  0.0000000000000000e+00 0.0000000000000000e+00 0.0000000000000000e+00  7.3672547368617148e-04 -2.7159391497630067e-02 0.0000000000000000e+00  2.8362029078908449e-03 -5.3261623026561226e-02 0.0000000000000000e+00  6.0596577553681521e-03 -7.4635022420783625e-02 0.0000000000000000e+00  1.0153568644982378e-02 -8.9850333874184105e-02 0.0000000000000000e+00  1.4901548392605627e-02 -9.8861233290471681e-02 0.0000000000000000e+00  2.0120767687156121e-02 -1.0234975096494439e-01 0.0000000000000000e+00  2.5646287479679258e-02 -1.0127645261581104e-01 0.0000000000000000e+00  3.1316442266526315e-02 -9.6608938841877628e-02 0.0000000000000000e+00  3.6963573512382518e-02 -8.9186500408794334e-02 0.0000000000000000e+00  4.2412682026101135e-02 -7.9677848087626041e-02 0.0000000000000000e+00  4.7487819990352183e-02 -6.8595497075584766e-02 0.0000000000000000e+00  5.2027549675714609e-02 -5.6339216302806368e-02 0.0000000000000000e+00  5.5907417521775610e-02 -4.3249607211027385e-02 0.0000000000000000e+00  5.9059176693624572e-02 -2.9653301023553427e-02 0.0000000000000000e+00  6.1457080925401017e-02 -1.5874892799511559e-02 0.0000000000000000e+00  6.3125248639214773e-02 -2.1419971804619007e-03 0.0000000000000000e+00  0.0000000000000000e+00 0.0000000000000000e+00 0.0000000000000000e+00  8.7656823058441819e-04 -2.8757558340322620e-02 0.0000000000000000e+00  3.3774320992969670e-03 -5.6246702571955305e-02 0.0000000000000000e+00  7.2451320523035509e-03 -7.8728781978272655e-02 0.0000000000000000e+00  1.2206795253316716e-02 -9.4793979432356651e-02 0.0000000000000000e+00  1.8022336116890410e-02 -1.0443445696756389e-01 0.0000000000000000e+00  2.4482421004698732e-02 -1.0835922066867361e-01 0.0000000000000000e+00  3.1391953678270405e-02 -1.0753791632803936e-01 0.0000000000000000e+00  3.8552361057607176e-02 -1.0293311509511703e-01 0.0000000000000000e+00  4.5750754676813409e-02 -9.5372409511716480e-02 0.0000000000000000e+00  5.2757864778391624e-02 -8.5514835700237241e-02 0.0000000000000000e+00  5.9335019992721547e-02 -7.3874568749162761e-02 0.0000000000000000e+00  6.5251882553829840e-02 -6.0873920151130120e-02 0.0000000000000000e+00  7.0311233135060158e-02 -4.6903225145306558e-02 0.0000000000000000e+00  7.4387076632406735e-02 -3.2362627361482169e-02 0.0000000000000000e+00  7.7448436660907782e-02 -1.7644993938604185e-02 0.0000000000000000e+00  7.9626133830506443e-02 -3.0534010847035236e-03 0.0000000000000000e+00  0.0000000000000000e+00 0.0000000000000000e+00 0.0000000000000000e+00  1.0317041218438833e-03 -3.0641670724231518e-02 0.0000000000000000e+00  3.9623590114837102e-03 -5.9767093956805260e-02 0.0000000000000000e+00  8.5019701619414908e-03 -8.3588995722502710e-02 0.0000000000000000e+00  1.4363815121808487e-02 -1.0072060301632826e-01 0.0000000000000000e+00  2.1297755205261660e-02 -1.1119006716361657e-01 0.0000000000000000e+00  2.9080111013688872e-02 -1.1572750375360111e-01 0.0000000000000000e+00  3.7491633594317002e-02 -1.1530256928000773e-01 0.0000000000000000e+00  4.6296853597304816e-02 -1.1086158128831147e-01 0.0000000000000000e+00  5.5232032555394245e-02 -1.0320850343738956e-01 0.0000000000000000e+00  6.4002873553911002e-02 -9.2980838019098358e-02 0.0000000000000000e+00  7.2291741971669182e-02 -8.0682953429959875e-02 0.0000000000000000e+00  7.9776551958897976e-02 -6.6750584620428405e-02 0.0000000000000000e+00  8.6162077762446374e-02 -5.1624870776361256e-02 0.0000000000000000e+00  9.1245326938106247e-02 -3.5806927736149401e-02 0.0000000000000000e+00  9.4977940263131638e-02 -1.9855378583420177e-02 0.0000000000000000e+00  9.7648423235762616e-02 -4.2442877691851229e-03 0.0000000000000000e+00  0.0000000000000000e+00 0.0000000000000000e+00 0.0000000000000000e+00  1.1776379864856432e-03 -3.2813413129738123e-02 0.0000000000000000e+00  4.5076611105790984e-03 -6.3814584717250003e-02 0.0000000000000000e+00  9.6711446049653482e-03 -8.9201671610047939e-02 0.0000000000000000e+00  1.6381060711962034e-02 -1.0762441091125663e-01 0.0000000000000000e+00  2.4394004894086187e-02 -1.1914556592748994e-01 0.0000000000000000e+00  3.3485837745934305e-02 -1.2450582239593389e-01 0.0000000000000000e+00  4.3421511709759573e-02 -1.2465956177793308e-01 0.0000000000000000e+00  5.3931452465248345e-02 -1.2052018063727227e-01 0.0000000000000000e+00  6.4699532556848349e-02 -1.1285154495986474e-01 0.0000000000000000e+00  7.5361629314334613e-02 -1.0225301283729500e-01 0.0000000000000000e+00  8.5511833478354685e-02 -8.9201939509452349e-02 0.0000000000000000e+00  9.4719038629707347e-02 -7.4131705751252483e-02 0.0000000000000000e+00  1.0256084312578979e-01 -5.7527371120400711e-02 0.0000000000000000e+00  1.0870858443632525e-01 -4.0016799231051552e-02 0.0000000000000000e+00  1.1303222917626100e-01 -2.2415344707391958e-02 0.0000000000000000e+00  1.1594109170298950e-01 -5.5164393219908157e-03 0.0000000000000000e+00  0.0000000000000000e+00 0.0000000000000000e+00 0.0000000000000000e+00  1.2911252982900213e-03 -3.5230214643352610e-02 0.0000000000000000e+00  4.9303749792548321e-03 -6.8310496565439319e-02 0.0000000000000000e+00  1.0587125823973000e-02 -9.5467505772207875e-02 0.0000000000000000e+00  1.7995514552241246e-02 -1.1540475282673517e-01 0.0000000000000000e+00  2.6938910281385404e-02 -1.2821634157805506e-01 0.0000000000000000e+00  3.7208087569628109e-02 -1.3463772075292285e-01 0.0000000000000000e+00  4.8562024505601480e-02 -1.3558715077982611e-01 0.0000000000000000e+00  6.0702527059178196e-02 -1.3192428904998663e-01 0.0000000000000000e+00  7.3264717518622319e-02 -1.2435393033089401e-01 0.0000000000000000e+00  8.5817679257167503e-02 -1.1341927327974216e-01 0.0000000000000000e+00  9.7868796665756333e-02 -9.9549970251200812e-02 0.0000000000000000e+00  1.0887330593027537e-01 -8.3147713630683615e-02 0.0000000000000000e+00  1.1825436604954931e-01 -6.4708991000905700e-02 0.0000000000000000e+00  1.2548080828836641e-01 -4.4984264370191471e-02 0.0000000000000000e+00  1.3021176050093103e-01 -2.5118206725243168e-02 0.0000000000000000e+00  1.3279490626790821e-01 -6.3931570858888854e-03 0.0000000000000000e+00  0.0000000000000000e+00 0.0000000000000000e+00 0.0000000000000000e+00  1.3507646951143725e-03 -3.7806983829464617e-02 0.0000000000000000e+00  5.1522642905412041e-03 -7.3104088236079001e-02 0.0000000000000000e+00  1.1088168284921394e-02 -1.0219439602623082e-01 0.0000000000000000e+00  1.8939290096592693e-02 -1.2385140485201669e-01 0.0000000000000000e+00  2.8536922241828595e-02 -1.3819271655824272e-01 0.0000000000000000e+00  3.9702336204738599e-02 -1.4592712264684723e-01 0.0000000000000000e+00  5.2199258474192940e-02 -1.4791138668894474e-01 0.0000000000000000e+00  6.5709255071255246e-02 -1.4492849670566915e-01 0.0000000000000000e+00  7.9827668563363097e-02 -1.3760631472303420e-01 0.0000000000000000e+00  9.4069098093199174e-02 -1.2641672449635305e-01 0.0000000000000000e+00  1.0787388638602631e-01 -1.1171917583482111e-01 0.0000000000000000e+00  1.2060131854890566e-01 -9.3844179376171358e-02 0.0000000000000000e+00  1.3151009454641996e-01 -7.3243316991050092e-02 0.0000000000000000e+00  1.3979307483018028e-01 -5.0717111429299341e-02 0.0000000000000000e+00  1.4471263914493143e-01 -2.7704221096045558e-02 0.0000000000000000e+00  1.4616049977014656e-01 -6.0853720679917454e-03 0.0000000000000000e+00  0.0000000000000000e+00 0.0000000000000000e+00 0.0000000000000000e+00  1.3411142698205138e-03 -4.0422387083669395e-02 0.0000000000000000e+00  5.1132991695171642e-03 -7.7979369328506576e-02 0.0000000000000000e+00  1.1040708270933600e-02 -1.0909813170077744e-01 0.0000000000000000e+00  1.8973336780871812e-02 -1.3263478719829680e-01 0.0000000000000000e+00  2.8808770582954717e-02 -1.4871759622701777e-01 0.0000000000000000e+00  4.0413034303834000e-02 -1.5800265982405912e-01 0.0000000000000000e+00  5.3566193791569981e-02 -1.6125719397611912e-01 0.0000000000000000e+00  6.7940966542769696e-02 -1.5916499452143973e-01 0.0000000000000000e+00  8.3106841801782946e-02 -1.5226304281770706e-01 0.0000000000000000e+00  9.8546767560812321e-02 -1.4094354285868091e-01 0.0000000000000000e+00  1.1367023704264606e-01 -1.2548603002061193e-01 0.0000000000000000e+00  1.2778485497716771e-01 -1.0612153347857328e-01 0.0000000000000000e+00  1.4004437923925014e-01 -8.3149856895972110e-02 0.0000000000000000e+00  1.4935371245772927e-01 -5.7207001610139807e-02 0.0000000000000000e+00  1.5433771907916444e-01 -2.9862969291882226e-02 0.0000000000000000e+00  1.5388143151958514e-01 -3.6989895687726633e-03 0.0000000000000000e+00  0.0000000000000000e+00 0.0000000000000000e+00 0.0000000000000000e+00  1.2607999637133244e-03 -4.2935795692360702e-02 0.0000000000000000e+00  4.7959595589164832e-03 -8.2675866652626592e-02 0.0000000000000000e+00  1.0380710268602194e-02 -1.1581622485091869e-01 0.0000000000000000e+00  1.7944233581028552e-02 -1.4130700267472365e-01 0.0000000000000000e+00  2.7462409143280089e-02 -1.5927244849381036e-01 0.0000000000000000e+00  3.8858409520258617e-02 -1.7028841223642691e-01 0.0000000000000000e+00  5.1941901599089839e-02 -1.7500471600003834e-01 0.0000000000000000e+00  6.6392051816702699e-02 -1.7398573952588112e-01 0.0000000000000000e+00  8.1771939621251927e-02 -1.6766829432927974e-01 0.0000000000000000e+00  9.7559761154201924e-02 -1.5636873184970612e-01 0.0000000000000000e+00  1.1317109753004836e-01 -1.4030096836616854e-01 0.0000000000000000e+00  1.2794902146914866e-01 -1.1958021891181934e-01 0.0000000000000000e+00  1.4109731189684596e-01 -9.4248468727540544e-02 0.0000000000000000e+00  1.5129592837271572e-01 -6.4581772101008295e-02 0.0000000000000000e+00  1.5648444504277820e-01 -3.1876866605351904e-02 0.0000000000000000e+00  1.5389390000784597e-01 1.2998158634151278e-03 0.0000000000000000e+00  0.0000000000000000e+00 0.0000000000000000e+00 0.0000000000000000e+00  1.1336391976148991e-03 -4.5220932801947569e-02 0.0000000000000000e+00  4.2554348106521285e-03 -8.6928322048264575e-02 0.0000000000000000e+00  9.1621357332465087e-03 -1.2193958840994225e-01 0.0000000000000000e+00  1.5852473678440334e-02 -1.4932099269792448e-01 0.0000000000000000e+00  2.4386165762189708e-02 -1.6918341520854299e-01 0.0000000000000000e+00  3.4755149617326744e-02 -1.8199786660565473e-01 0.0000000000000000e+00  4.6814980606889892e-02 -1.8827263287665807e-01 0.0000000000000000e+00  6.0272691509648160e-02 -1.8843628861943554e-01 0.0000000000000000e+00  7.4709927473777402e-02 -1.8281968714207988e-01 0.0000000000000000e+00  8.9621880994150013e-02 -1.7167278564738955e-01 0.0000000000000000e+00  1.0446003948096717e-01 -1.5517074756350516e-01 0.0000000000000000e+00  1.1868432912920632e-01 -1.3337043841374105e-01 0.0000000000000000e+00  1.3167199698276560e-01 -1.0614178687950329e-01 0.0000000000000000e+00  1.4228982968079748e-01 -7.3084454354193182e-02 0.0000000000000000e+00  1.4832591204987630e-01 -3.4011601504170472e-02 0.0000000000000000e+00  1.4497388274325781e-01 8.2449460357427277e-03 0.0000000000000000e+00  0.0000000000000000e+00 0.0000000000000000e+00 0.0000000000000000e+00  1.0166680082283742e-03 -4.7213188974238429e-02 0.0000000000000000e+00  3.6326147887937722e-03 -9.0518596611069549e-02 0.0000000000000000e+00  7.5759986114695369e-03 -1.2705908885791667e-01 0.0000000000000000e+00  1.2891771208670693e-02 -1.5607471759067931e-01 0.0000000000000000e+00  1.9728332352475304e-02 -1.7766487244782789e-01 0.0000000000000000e+00  2.8156929651582157e-02 -1.9217691109559298e-01 0.0000000000000000e+00  3.8096926844656175e-02 -1.9996126154567218e-01 0.0000000000000000e+00  4.9311105188067875e-02 -2.0130137822009223e-01 0.0000000000000000e+00  6.1432005060256943e-02 -1.9641721930693978e-01 0.0000000000000000e+00  7.3997368838820382e-02 -1.8549111337706409e-01 0.0000000000000000e+00  8.6504592313857306e-02 -1.6868256902288473e-01 0.0000000000000000e+00  9.8475545932975833e-02 -1.4610210327035664e-01 0.0000000000000000e+00  1.0949766497046418e-01 -1.1760444562841396e-01 0.0000000000000000e+00  1.1938642729094220e-01 -8.2134368295610674e-02 0.0000000000000000e+00  1.2657239407975571e-01 -3.7505183991689534e-02 0.0000000000000000e+00  1.2208692173571670e-01 1.5261325803600323e-02 0.0000000000000000e+00  0.0000000000000000e+00 0.0000000000000000e+00 0.0000000000000000e+00  9.7548320605413531e-04 -4.8957542855157944e-02 0.0000000000000000e+00  3.0815866564549970e-03 -9.3312552030442225e-02 0.0000000000000000e+00  5.8494830043199584e-03 -1.3081811799257501e-01 0.0000000000000000e+00  9.3720269515123033e-03 -1.6099502969028667e-01 0.0000000000000000e+00  1.3890287664181605e-02 -1.8393131485210268e-01 0.0000000000000000e+00  1.9550433627812631e-02 -1.9983675419425570e-01 0.0000000000000000e+00  2.6343788252015003e-02 -2.0890177257797540e-01 0.0000000000000000e+00  3.4116434228104293e-02 -2.1127004212806552e-01 0.0000000000000000e+00  4.2594688038856743e-02 -2.0705137391772893e-01 0.0000000000000000e+00  5.1406842649446900e-02 -1.9634667759988722e-01 0.0000000000000000e+00  6.0103372794802989e-02 -1.7927640997315705e-01 0.0000000000000000e+00  6.8167408173296515e-02 -1.5599172097981012e-01 0.0000000000000000e+00  7.5237446019261300e-02 -1.2657189763941135e-01 0.0000000000000000e+00  8.1488145130004075e-02 -9.0718361893858901e-02 0.0000000000000000e+00  8.7316707613745451e-02 -4.5772338557644295e-02 0.0000000000000000e+00  9.1686389276318420e-02 1.4183378451267688e-02 0.0000000000000000e+00  0.0000000000000000e+00 0.0000000000000000e+00 0.0000000000000000e+00  9.3814148237534721e-04 -5.0502841067723625e-02 0.0000000000000000e+00  2.4186476292454989e-03 -9.5172455639292192e-02 0.0000000000000000e+00  3.8349746161686154e-03 -1.3295346266397312e-01 0.0000000000000000e+00  5.3789383393724553e-03 -1.6368857549901436e-01 0.0000000000000000e+00  7.3221056704852417e-03 -1.8742377079401407e-01 0.0000000000000000e+00  9.8227239263133422e-03 -2.0423202712126851e-01 0.0000000000000000e+00  1.2917979854001879e-02 -2.1416987013882352e-01 0.0000000000000000e+00  1.6546680314533196e-02 -2.1727427557763856e-01 0.0000000000000000e+00  2.0570266826701256e-02 -2.1356946591884041e-01 0.0000000000000000e+00  2.4779140951967989e-02 -2.0307697739140451e-01 0.0000000000000000e+00  2.8873205593069929e-02 -1.8583041320197458e-01 0.0000000000000000e+00  3.2434220119877698e-02 -1.6188590083579213e-01 0.0000000000000000e+00  3.4931889812140564e-02 -1.3138421271531339e-01 0.0000000000000000e+00  3.5460465978742688e-02 -9.4548341452629497e-02 0.0000000000000000e+00  3.4884477446154395e-02 -5.0789359581282612e-02 0.0000000000000000e+00  3.0140408390944309e-02 2.7394867937295246e-03 0.0000000000000000e+00  0.0000000000000000e+00 3.4192470836789086e-18 0.0000000000000000e+00  0.0000000000000000e+00 -5.1346094533824042e-02 0.0000000000000000e+00  0.0000000000000000e+00 -9.5846043129804881e-02 0.0000000000000000e+00  0.0000000000000000e+00 -1.3349984578794249e-01 0.0000000000000000e+00  0.0000000000000000e+00 -1.6430750250823695e-01 0.0000000000000000e+00  0.0000000000000000e+00 -1.8826901329068815e-01 0.0000000000000000e+00  0.0000000000000000e+00 -2.0538437813529617e-01 0.0000000000000000e+00  0.0000000000000000e+00 -2.1565359704206097e-01 0.0000000000000000e+00  0.0000000000000000e+00 -2.1907