<?xml version="1.0"?>
<VTKFile type="UnstructuredGrid"  version="0.1"  >
<UnstructuredGrid>
<Piece  NumberOfPoints="289" NumberOfCells="512">
<Points>
<DataArray  type="Float64"  NumberOfComponents="3"  format="ascii">0 0 0  0.0625 0 0  0.125 0 0  0.1875 0 0  0.25 0 0  0.3125 0 0  0.375 0 0  0.4375 0 0  0.5 0 0  0.5625 0 0  0.625 0 0  0.6875 0 0  0.75 0 0  0.8125 0 0  0.875 0 0  0.9375 0 0  1 0 0  0 0.0625 0  0.06248798101347539 0.06246039276108251 0  0.1249765288762733 0.06242008802471806 0  0.1874662836950529 0.06237843275865747 0  0.249958207029498 0.06233492108464022 0  0.3124537972441583 0.06228928896762625 0  0.3749553862063722 0.06224163251085303 0  0.4374665698683132 0.06219255067802226 0  0.4999928640082711 0.06214330267329955 0  0.562542762766044 0.06209595051531091 0  0.6251295827497066 0.06205342313413276 0  0.6877749947884126 0.06201938187110609 0  0.7505165403984042 0.06199767565087098 0  0.8134253701630414 0.06199101663621059 0  0.8766519508383941 0.06199819698689494 0  0.9405513741910938 0.06200866170189506 0  1.006034558734868 0.061997688932811 0  0 0.125 0  0.06247541419911126 0.124921439086151 0  0.1249518303189687 0.1248414066219344 0  0.1874303930361577 0.1247585127111712 0  0.2499128659778391 0.1246716446061074 0  0.3124020488873186 0.1245801509137285 0  0.3749023530164997 0.1244840793956883 0  0.437420630266936 0.1243844760393697 0  0.4999674104532538 0.1242837358174139 0  0.5625588190253287 0.1241859615722675 0  0.6252196910421299 0.1240972268827498 0  0.6879889019836506 0.1240255422844031 0  0.7509289370538744 0.123980198536391 0  0.8141434138315679 0.1239700917730771 0  0.8778076955269443 0.1240010357297189 0  0.9422116775071332 0.1240745332599228 0  1.007772905300044 0.1241989629234866 0  0 0.1875 0  0.06246197525737329 0.1873839389452829 0  0.1249251126337631 0.187265494921514 0  0.1873907691047398 0.1871423884523137 0  0.2498611475273807 0.187012709749064 0  0.3123398704018217 0.1868751780764246 0  0.3748327712897059 0.1867294940188192 0  0.4373490221973633 0.1865768097007724 0  0.499902766789803 0.1864203259730757 0  0.5625155123446818 0.1862659879074112 0  0.6252196602892801 0.1861231728087543 0  0.6880637145230271 0.1860051199281064 0  0.7511197558126625 0.1859285878476086 0  0.8144930798102671 0.1859117165875838 0  0.8783304519072076 0.1859678353047513 0  0.9428127204375133 0.1860889080996466 0  1.00809699181378 0.1861969507721716 0  0 0.25 0  0.06244761046735748 0.2498488264385559 0  0.1248961594176106 0.2496941797040052 0  0.1873468038500185 0.2495326874106751 0  0.2498016645801748 0.2493613778433953 0  0.3122644891060248 0.2491779856378588 0  0.3747415726141501 0.2489813969643836 0  0.4372430650056661 0.248772288948475 0  0.4997848252385846 0.2485540151284001 0  0.562391013038136 0.2483337662515921 0  0.6250975983809571 0.2481239698851269 0  0.6879568263048892 0.2479437398244365 0  0.7510421546489691 0.2478198699828461 0  0.8144517365142202 0.2477862523008987 0  0.8783052208346567 0.2478794818504575 0  0.9427231090299798 0.2481268393083835 0  1.00777466650228 0.2485237289189315 0  0 0.3125 0  0.06243262001056771 0.3123172077765587 0  0.1248655148527298 0.3121296629318725 0  0.1872991654568593 0.3119326770229654 0  0.2497349979789846 0.3117219057399273 0  0.3121760545672961 0.3114936523461062 0  0.3746279483629585 0.3112453556711222 0  0.4371002416330773 0.3109763563468366 0  0.4996084129548961 0.3106890590269123 0  0.5621765826993982 0.3103906261143039 0  0.6248410928569382 0.3100953260572012 0  0.6876547783420633 0.3098275632716521 0  0.7506911303944839 0.3096253318450898 0  0.8140463016119626 0.3095431852641182 0  0.8778350927660393 0.3096526021584496 0  0.9421762739881987 0.3100359531199249 0  1.007168698763744 0.3107693446107437 0  0 0.375 0  0.06241768998172673 0.3747903680472961 0  0.1248345611850997 0.3745745470387312 0  0.1872499478336372 0.3743463343222392 0  0.2496639578451708 0.3740997050906378 0  0.3120780604549299 0.3738290433273367 0  0.3744959705943764 0.3735295849871925 0  0.4369249910595115 0.3731982058352227 0  0.4993780209421627 0.3728347490018638 0  0.5618764725246376 0.3724441716157419 0  0.6244543089332484 0.3720398836285547 0  0.6871632220280556 0.371648705239065 0  0.7500784640483495 0.3713177455324814 0  0.8133039240838779 0.3711229140063005 0  0.876974038585413 0.37117728407872 0  0.9412507685906981 0.3716349327425854 0  1.006320446037074 0.3726832337199709 0  0 0.4375 0  0.06240386614203325 0.4372697357506324 0  0.1248054735653446 0.4370317732426479 0  0.1872026212045054 0.4367782798568713 0  0.2495935535295525 0.4365013151692147 0  0.3119773652367216 0.4361929022734412 0  0.3743546915661378 0.4358453015997686 0  0.436728874937245 0.4354516420282931 0  0.4991078963092059 0.4350071677661972 0  0.5615074881780999 0.4345115270901293 0  0.6239559800820081 0.4339727821948876 0  0.6865014860095245 0.4334141518088958 0  0.7492218529859627 0.4328847917051781 0  0.8122371173501549 0.4324757561487511 0  0.8757231108487595 0.4323407340257482 0  0.9399247834834457 0.432717164306811 0  1.005173634856948 0.4339382892089278 0  0 0.5 0  0.06239246775456665 0.4997567968957732 0  0.1247810475538384 0.4995044524844333 0  0.1871617745861794 0.4992335345066458 0  0.249530659579847 0.4989341110779835 0  0.3118838064296299 0.4985955727618232 0  0.3742177591959435 0.4982065920898092 0  0.4365302863481325 0.4977553614918088 0  0.498821976161715 0.4972303798796825 0  0.5610992950410316 0.4966222975834934 0  0.6233801882393519 0.4959277614824282 0  0.6857038664149177 0.4951569410148379 0  0.7481469264641487 0.4943475302559027 0  0.8108478083103066 0.4935891973278244 0  0.8740398335984485 0.4930620855001839 0  0.9380901182486489 0.4930872478017974 0  1.003545389294496 0.4941734815755264 0  0 0.5625 0  0.06238494493086956 0.5622529570298082 0  0.1247644035766602 0.5619955814427307 0  0.1871326501639378 0.5617170757236732 0  0.2494833651625252 0.5614056884550366 0  0.3118093720776821 0.5610482189824306 0  0.3741024774396633 0.5606295331148002 0  0.4363535928607254 0.5601321649633079 0  0.498553539136123 0.5595361959130025 0  0.560695370795544 0.5588198514441941 0  0.6227798808270033 0.5579617920696021 0  0.6848273491521611 0.5569472073494521 0  0.7469006077994521 0.5557821161759037 0  0.80914624805944 0.5545243818292624 0  0.8718591916957039 0.5533448485220251 0  0.93556638304054 0.5526291025636664 0  1.001112758595568 0.553104232197674 0  0 0.625 0  0.06238268908935121 0.6247593600108516 0  0.1247585843070667 0.6245076583679723 0  0.1871204837785558 0.6242332064306825 0  0.2494600015543041 0.6239229195889781 0  0.3117668689347317 0.623561486752447 0  0.3740281315921045 0.6231303786971887 0  0.4362273109241875 0.6226066530233065 0  0.4983438097291353 0.6219615602819585 0  0.5603533541955581 0.6211591016250244 0  0.6222314272124752 0.6201551041892445 0  0.6839641116653946 0.6188985292994612 0  0.7455754548616225 0.6173398477897479 0  0.8071875922616473 0.6154594496236543 0  0.8691341277634181 0.6133472918380862 0  0.9321302229260419 0.6113842447166326 0  0.9974756629045969 0.6105204485781118 0  0 0.6875 0  0.06238681457683203 0.6872766851777794 0  0.1247660792266686 0.6870422425377203 0  0.1871296952352458 0.6867848023627744 0  0.2494678810998437 0.6864907638943822 0  0.311768061477851 0.6861436860526116 0  0.3740133868469364 0.6857228399660503 0  0.4361807487354415 0.6852012399433457 0  0.4982382400981336 0.6845429024465316 0  0.5601423646453429 0.6836990067893313 0  0.6218364112026834 0.6826026171857141 0  0.6832544925204638 0.6811619883536266 0  0.744343568508633 0.6792545030191647 0  0.8051334855566677 0.6767320937101132 0  0.8659147071379523 0.673484257964504 0  0.9275622519452633 0.66972374413114 0  0.99191165062202 0.6666094526860784 0  0 0.75 0  0.06239794012336934 0.7498049565563459 0  0.1247883362407128 0.7495995299208518 0  0.187163021548065 0.7493725602813847 0  0.2495118673334707 0.7491110212191625 0  0.3118213927453038 0.7487987679188952 0  0.3740727544748393 0.7484148218441559 0  0.4362387280325132 0.7479308960795193 0  0.4982791265119917 0.7473076904046889 0  0.5601339741384403 0.7464891699267694 0  0.621714018381172 0.7453934585376597 0  0.6828901163084157 0.7438979045940673 0  0.7434909063095427 0.7418141435759825 0  0.8033452231474506 0.7388481432986228 0  0.8624916140494272 0.7345556179917588 0  0.9219035616903531 0.7284599377518817 0  0.9837584791054216 0.7220128565928116 0  0 0.8125 0  0.0624160091157955 0.8123434044803149 0  0.1248253477722744 0.8121780357089773 0  0.1872207472512966 0.8119944100979483 0  0.2495930220813505 0.8117813034383529 0  0.311929644438449 0.8115245511665917 0  0.3742125687520776 0.8112053599672114 0  0.436414726009641 0.8107978033349796 0  0.4984941663417286 0.810264963468179 0  0.5603840347885303 0.8095527841547411 0  0.6219752421335085 0.8085798793526778 0  0.6830869679175816 0.8072196437655966 0  0.7434201448824366 0.8052661252686057 0  0.8025025180523956 0.802361924177899 0  0.8597161726259742 0.7978322604029516 0  0.9149576503615424 0.7902960177550178 0  0.9748621559812752 0.7766963192694273 0  0 0.875 0  0.06244019262069132 0.8748904174696535 0  0.1248754154050325 0.874774471342915 0  0.1873002324274752 0.8746452559817481 0  0.2497076942574709 0.8744945211918351 0  0.3120881783437214 0.8743117316849037 0  0.374427559516221 0.8740827275967333 0  0.4367041293533886 0.8737877227318618 0  0.4988831344112902 0.8733982268761277 0  0.5609066284157633 0.8728722361885218 0  0.6226737566936991 0.8721466346971761 0  0.6840008822271375 0.8711249289627437 0  0.7445386014820043 0.8696557689645082 0  0.8035983889231625 0.8674856100307243 0  0.8598064640497625 0.8641125795020946 0  0.910506514454303 0.8582408351540898 0  0.9510940233168317 0.8458633169580237 0  0 0.9375 0  0.06246891248349574 0.9374436087799759 0  0.1249351858337632 0.9373838744969809 0  0.1873959313463087 0.9373171615650028 0  0.2498474394009814 0.9372391037989573 0  0.3122845436569324 0.9371440900962758 0  0.3746996040795937 0.9370245296542808 0  0.4370807606612734 0.9368
[...]
<PointData  Vectors="f_95-0"> 
<DataArray  type="Float64"  Name="f_95-0"  NumberOfComponents="3" format="ascii">0.0000000000000000e+00 0.0000000000000000e+00 0.0000000000000000e+00  -5.7293925777247270e-04 -1.8528241799401060e-02 0.0000000000000000e+00  -1.5989827957008402e-03 -2.2397770625066871e-02 0.0000000000000000e+00  -2.8227991608213389e-03 -1.8253103931868239e-02 0.0000000000000000e+00  -4.2644962217884240e-03 -1.0528217324907458e-02 0.0000000000000000e+00  -5.8948938484780595e-03 -2.1277516565065269e-03 0.0000000000000000e+00  -7.6753989914002700e-03 5.2658688477102882e-03 0.0000000000000000e+00  -9.5521457005666686e-03 1.0862973123789751e-02 0.0000000000000000e+00  -1.1458355432235969e-02 1.4468433962237190e-02 0.0000000000000000e+00  -1.3315773851503510e-02 1.6237146211114693e-02 0.0000000000000000e+00  -1.5035057870863873e-02 1.6492933254859062e-02 0.0000000000000000e+00  -1.6514780837253495e-02 1.5606698558903903e-02 0.0000000000000000e+00  -1.7641910273404747e-02 1.3925934802819387e-02 0.0000000000000000e+00  -1.8273331558895035e-02 1.1727768465099210e-02 0.0000000000000000e+00  -1.8224214442788208e-02 9.2423200613828381e-03 0.0000000000000000e+00  -1.7530461049514522e-02 6.7228425160655312e-03 0.0000000000000000e+00  -7.9237999758186781e-03 7.7802438330324400e-03 0.0000000000000000e+00  0.0000000000000000e+00 0.0000000000000000e+00 0.0000000000000000e+00  -4.3301082004320126e-04 -1.7637068362602665e-02 0.0000000000000000e+00  -1.3481528420445814e-03 -2.1275384682747828e-02 0.0000000000000000e+00  -2.4936443239536249e-03 -1.6920544154841802e-02 0.0000000000000000e+00  -3.8662463445313217e-03 -9.0013353464413956e-03 0.0000000000000000e+00  -5.4351748626784392e-03 -4.3334369653074464e-04 0.0000000000000000e+00  -7.1638080148913085e-03 7.0845082421794776e-03 0.0000000000000000e+00  -8.9980085663411424e-03 1.2747987229347335e-02 0.0000000000000000e+00  -1.0871867412196012e-02 1.6349080243345460e-02 0.0000000000000000e+00  -1.2708940177273814e-02 1.8030560773454232e-02 0.0000000000000000e+00  -1.4422709231640442e-02 1.8104104544526510e-02 0.0000000000000000e+00  -1.5916863823019007e-02 1.6927922962663450e-02 0.0000000000000000e+00  -1.7085103656528468e-02 1.4831668482150518e-02 0.0000000000000000e+00  -1.7807161280612934e-02 1.2075079051819636e-02 0.0000000000000000e+00  -1.7996825907132773e-02 8.8300392303911051e-03 0.0000000000000000e+00  -1.7317731953635111e-02 5.0891450248544039e-03 0.0000000000000000e+00  -1.7056032658393824e-02 2.3665823539641734e-03 0.0000000000000000e+00  0.0000000000000000e+00 0.0000000000000000e+00 0.0000000000000000e+00  -2.3080034196462301e-04 -1.7029629568807870e-02 0.0000000000000000e+00  -8.6929662926044191e-04 -2.0350727205716141e-02 0.0000000000000000e+00  -1.8061557471453847e-03 -1.5749739227778413e-02 0.0000000000000000e+00  -3.0147758340741807e-03 -7.6053111667681141e-03 0.0000000000000000e+00  -4.4574604892703715e-03 1.1565721705639419e-03 0.0000000000000000e+00  -6.0911822679003110e-03 8.8209115164092650e-03 0.0000000000000000e+00  -7.8580868691295169e-03 1.4570901537289592e-02 0.0000000000000000e+00  -9.6920289536167100e-03 1.8187925658639678e-02 0.0000000000000000e+00  -1.1518907826240488e-02 1.9804847809414237e-02 0.0000000000000000e+00  -1.3257177150302647e-02 1.9723744760173887e-02 0.0000000000000000e+00  -1.4818881287063816e-02 1.8294327442245774e-02 0.0000000000000000e+00  -1.6113742681962410e-02 1.5841636523488942e-02 0.0000000000000000e+00  -1.7062366673779455e-02 1.2630273918752030e-02 0.0000000000000000e+00  -1.7609108803731489e-02 8.8555374700782959e-03 0.0000000000000000e+00  -1.7810252362958908e-02 4.7107299361929368e-03 0.0000000000000000e+00  -1.7516104339997961e-02 5.9176455143262281e-04 0.0000000000000000e+00  0.0000000000000000e+00 0.0000000000000000e+00 0.0000000000000000e+00  -6.6979767697884033e-05 -1.6716132258555946e-02 0.0000000000000000e+00  -4.0836817066035319e-04 -1.9701960337080729e-02 0.0000000000000000e+00  -1.0907080273220705e-03 -1.4790471834911049e-02 0.0000000000000000e+00  -2.1090323944539880e-03 -6.3648776706257170e-03 0.0000000000000000e+00  -3.4226820290154700e-03 2.6351616659920480e-03 0.0000000000000000e+00  -4.9763074720594186e-03 1.0482756245394433e-02 0.0000000000000000e+00  -6.7047150889183414e-03 1.6352533666912545e-02 0.0000000000000000e+00  -8.5386905121516768e-03 2.0018978581258586e-02 0.0000000000000000e+00  -1.0404563403030259e-02 2.1607934075192070e-02 0.0000000000000000e+00  -1.2223431638470846e-02 2.1414366350168898e-02 0.0000000000000000e+00  -1.3911470088172543e-02 1.9783381110798172e-02 0.0000000000000000e+00  -1.5384689865994014e-02 1.7043176523732148e-02 0.0000000000000000e+00  -1.6567905694119964e-02 1.3477006914803252e-02 0.0000000000000000e+00  -1.7411750161188070e-02 9.3273777058366439e-03 0.0000000000000000e+00  -1.7861663889846790e-02 4.7932186048898337e-03 0.0000000000000000e+00  -1.7882819321881755e-02 7.8832425848180144e-05 0.0000000000000000e+00  0.0000000000000000e+00 0.0000000000000000e+00 0.0000000000000000e+00  5.8868936105078787e-05 -1.6645741785322046e-02 0.0000000000000000e+00  -3.9466037534201737e-05 -1.9323887674458664e-02 0.0000000000000000e+00  -4.9511344649919497e-04 -1.4046259990844977e-02 0.0000000000000000e+00  -1.3460122699807237e-03 -5.2734272165780366e-03 0.0000000000000000e+00  -2.5548927542466851e-03 4.0217854387520407e-03 0.0000000000000000e+00  -4.0562659941328627e-03 1.2099541131504346e-02 0.0000000000000000e+00  -5.7771129233015204e-03 1.8130219880634377e-02 0.0000000000000000e+00  -7.6443311711343036e-03 2.1885903566865268e-02 0.0000000000000000e+00  -9.5836998953906637e-03 2.3488112649154562e-02 0.0000000000000000e+00  -1.1516429835276513e-02 2.3225551604917887e-02 0.0000000000000000e+00  -1.3356860269233332e-02 2.1438188452358710e-02 0.0000000000000000e+00  -1.5014042627008707e-02 1.8455213002146531e-02 0.0000000000000000e+00  -1.6397452041825765e-02 1.4571776587928348e-02 0.0000000000000000e+00  -1.7421314568486668e-02 1.0045838187628510e-02 0.0000000000000000e+00  -1.8005881681329716e-02 5.0962846806991520e-03 0.0000000000000000e+00  -1.8105880848841870e-02 -1.1118107517151463e-04 0.0000000000000000e+00  0.0000000000000000e+00 0.0000000000000000e+00 0.0000000000000000e+00  1.4815184786565481e-04 -1.6759669599558966e-02 0.0000000000000000e+00  2.2500914262956717e-04 -1.9161606900354070e-02 0.0000000000000000e+00  -6.1783323374878241e-05 -1.3478128628107980e-02 0.0000000000000000e+00  -7.8495353876725489e-04 -4.3017840869963263e-03 0.0000000000000000e+00  -1.9105718490341867e-03 5.3393106794094383e-03 0.0000000000000000e+00  -3.3663676874635890e-03 1.3689269628347921e-02 0.0000000000000000e+00  -5.0743152851723998e-03 1.9918351574699199e-02 0.0000000000000000e+00  -6.9606640580286636e-03 2.3800642432076524e-02 0.0000000000000000e+00  -8.9534253430395595e-03 2.5455297319543074e-02 0.0000000000000000e+00  -1.0975356321113371e-02 2.5163399667582222e-02 0.0000000000000000e+00  -1.2937927021985545e-02 2.3255193749392212e-02 0.0000000000000000e+00  -1.4739534383952724e-02 2.0053420044385879e-02 0.0000000000000000e+00  -1.6269041396125335e-02 1.5853612797167939e-02 0.0000000000000000e+00  -1.7413745406875264e-02 1.0922365698331148e-02 0.0000000000000000e+00  -1.8073709542486546e-02 5.4966387354083565e-03 0.0000000000000000e+00  -1.8191077110172649e-02 -2.1047518115054547e-04 0.0000000000000000e+00  0.0000000000000000e+00 0.0000000000000000e+00 0.0000000000000000e+00  2.0517732191223135e-04 -1.6997910509447902e-02 0.0000000000000000e+00  3.9238568168250372e-04 -1.9147088626977553e-02 0.0000000000000000e+00  2.1681572001695725e-04 -1.3036625236201778e-02 0.0000000000000000e+00  -4.0707453199410464e-04 -3.4270657438567995e-03 0.0000000000000000e+00  -1.4411635102396334e-03 6.5840422422005296e-03 0.0000000000000000e+00  -2.8076560519538856e-03 1.5225131500343455e-02 0.0000000000000000e+00  -4.4291673493174833e-03 2.1672058297696004e-02 0.0000000000000000e+00  -6.2392701362263738e-03 2.5705932332980873e-02 0.0000000000000000e+00  -8.1767545427666247e-03 2.7444971922344963e-02 0.0000000000000000e+00  -1.0173909908754867e-02 2.7160024076612117e-02 0.0000000000000000e+00  -1.2146213166763706e-02 2.5166129889188205e-02 0.0000000000000000e+00  -1.3988327276688327e-02 2.1771534148267213e-02 0.0000000000000000e+00  -1.5577423077371328e-02 1.7262582009972421e-02 0.0000000000000000e+00  -1.6780411249091687e-02 1.1908141463870111e-02 0.0000000000000000e+00  -1.7473234912989331e-02 5.9705528240167928e-03 0.0000000000000000e+00  -1.7567748268608664e-02 -2.9453816220245075e-04 0.0000000000000000e+00  0.0000000000000000e+00 0.0000000000000000e+00 0.0000000000000000e+00  2.3166092972990660e-04 -1.7306507889141117e-02 0.0000000000000000e+00  4.6884916014111946e-04 -1.9217400976214296e-02 0.0000000000000000e+00  3.5815846786665131e-04 -1.2684404682733514e-02 0.0000000000000000e+00  -1.6760505160547118e-04 -2.6558660874984718e-03 0.0000000000000000e+00  -1.0520655490672474e-03 7.7007673607213719e-03 0.0000000000000000e+00  -2.2117169197457894e-03 1.6607442792646358e-02 0.0000000000000000e+00  -3.5786002112632945e-03 2.3256197650650005e-02 0.0000000000000000e+00  -5.1071607307384675e-03 2.7442244145342277e-02 0.0000000000000000e+00  -6.7622067956483447e-03 2.9284935094799132e-02 0.0000000000000000e+00  -8.5006837992605000e-03 2.9042804098547668e-02 0.0000000000000000e+00  -1.0258176987484371e-02 2.7009751666050106e-02 0.0000000000000000e+00  -1.1943356433019074e-02 2.3470919232518424e-02 0.0000000000000000e+00  -1.3439166950373985e-02 1.8697332965542570e-02 0.0000000000000000e+00  -1.4606334820211970e-02 1.2953683397082480e-02 0.0000000000000000e+00  -1.5294999599301024e-02 6.5051067492621359e-03 0.0000000000000000e+00  -1.5332834056433152e-02 -3.7125354390574286e-04 0.0000000000000000e+00  0.0000000000000000e+00 0.0000000000000000e+00 0.0000000000000000e+00  2.2227814827822663e-04 -1.7629632100798667e-02 0.0000000000000000e+00  4.4261364103382830e-04 -1.9312208344216680e-02 0.0000000000000000e+00  3.5655172600943170e-04 -1.2402083585336413e-02 0.0000000000000000e+00  -4.1888143728572727e-05 -2.0367183330002947e-03 0.0000000000000000e+00  -6.5862644147114929e-04 8.5651548550905714e-03 0.0000000000000000e+00  -1.4050583329774599e-03 1.7642048449114350e-02 0.0000000000000000e+00  -2.2363299632469414e-03 2.4420658475962739e-02 0.0000000000000000e+00  -3.1479390559027726e-03 2.8720982953084180e-02 0.0000000000000000e+00  -4.1528347120230189e-03 3.0666726562099022e-02 0.0000000000000000e+00  -5.2559395424037246e-03 3.0500783919651539e-02 0.0000000000000000e+00  -6.4370693620730661e-03 2.8490485654493629e-02 0.0000000000000000e+00  -7.6414021042616525e-03 2.4901247390777051e-02 0.0000000000000000e+00  -8.7912363559437840e-03 1.9993401038074482e-02 0.0000000000000000e+00  -9.7852154148062778e-03 1.4000114620390563e-02 0.0000000000000000e+00  -1.0461401838855413e-02 7.1281906848531295e-03 0.0000000000000000e+00  -1.0494688051377182e-02 -3.8113609247329488e-04 0.0000000000000000e+00  0.0000000000000000e+00 0.0000000000000000e+00 0.0000000000000000e+00  1.5917398107697877e-04 -1.7893503943082908e-02 0.0000000000000000e+00  2.6642298390624287e-04 -1.9358119298564680e-02 0.0000000000000000e+00  1.5238315866144674e-04 -1.2180695563335583e-02 0.0000000000000000e+00  -6.8188227691876047e-05 -1.6613205316596284e-03 0.0000000000000000e+00  -2.4061328026882210e-04 8.9762504975331083e-03 0.0000000000000000e+00  -2.7640674299472324e-04 1.8029280864876370e-02 0.0000000000000000e+00  -1.7518610871414465e-04 2.4787632275894676e-02 0.0000000000000000e+00  -1.4109575583070375e-06 2.9110299470895988e-02 0.0000000000000000e+00  1.5378238261360401e-04 3.1127815439897243e-02 0.0000000000000000e+00  2.0776977499963818e-04 3.1064132749907849e-02 0.0000000000000000e+00  1.1335799073311468e-04 2.9162094180028717e-02 0.0000000000000000e+00  -1.4174094733247224e-04 2.5670645412976326e-02 0.0000000000000000e+00  -5.7828618004167396e-04 2.0830694062198549e-02 0.0000000000000000e+00  -1.1940033817294982e-03 1.4854598933455721e-02 0.0000000000000000e+00  -1.8963966258083089e-03 7.8667666278867555e-03 0.0000000000000000e+00  -2.1877477950888427e-03 -1.1930066829568550e-04 0.0000000000000000e+00  0.0000000000000000e+00 0.0000000000000000e+00 0.0000000000000000e+00  5.6676082165976138e-06 -1.7980048207493753e-02 0.0000000000000000e+00  -1.5887999651285391e-04 -1.9240794084965422e-02 0.0000000000000000e+00  -3.9310985448826627e-04 -1.2003099512596017e-02 0.0000000000000000e+00  -3.8226654710534841e-04 -1.6545765403580446e-03 0.0000000000000000e+00  1.0952100035515878e-04 8.6629299434060440e-03 0.0000000000000000e+00  1.1545704089599221e-03 1.7371384656141891e-02 0.0000000000000000e+00  2.6766208390698659e-03 2.3861891460475144e-02 0.0000000000000000e+00  4.5059343973548978e-03 2.8047858018953143e-02 0.0000000000000000e+00  6.4375399828960050e-03 3.0067959106264600e-02 0.0000000000000000e+00  8.2816867679569653e-03 3.0121862362103870e-02 0.0000000000000000e+00  9.8950421879122688e-03 2.8411570065090028e-02 0.0000000000000000e+00  1.1161144600615734e-02 2.5158558496486738e-02 0.0000000000000000e+00  1.1962909405865708e-02 2.0688865826264356e-02 0.0000000000000000e+00  1.2111792963510781e-02 1.5371046619557967e-02 0.0000000000000000e+00  1.1252996524921205e-02 9.0486839704915101e-03 0.0000000000000000e+00  1.0007125681557608e-02 8.4648547804300493e-04 0.0000000000000000e+00  0.0000000000000000e+00 0.0000000000000000e+00 0.0000000000000000e+00  -2.9819851429267985e-04 -1.7692500569341650e-02 0.0000000000000000e+00  -9.8996639356311905e-04 -1.8772719995755988e-02 0.0000000000000000e+00  -1.5004464921082317e-03 -1.1822084662304779e-02 0.0000000000000000e+00  -1.2229359647819276e-03 -2.1551297454216242e-03 0.0000000000000000e+00  1.6357771849423918e-04 7.3108467622449843e-03 0.0000000000000000e+00  2.6797096985843897e-03 1.5212321133726441e-02 0.0000000000000000e+00  6.1284617905585110e-03 2.1083859455289150e-02 0.0000000000000000e+00  1.0194944838771747e-02 2.4905475673253730e-02 0.0000000000000000e+00  1.4527718530762547e-02 2.6820633379772855e-02 0.0000000000000000e+00  1.8797431373576073e-02 2.6987248525231419e-02 0.0000000000000000e+00  2.2726589084807680e-02 2.5543277492550028e-02 0.0000000000000000e+00  2.6121504079283726e-02 2.2714383915222999e-02 0.0000000000000000e+00  2.8832604518829019e-02 1.8965333044035249e-02 0.0000000000000000e+00  3.0245560841339746e-02 1.4759977362598847e-02 0.0000000000000000e+00  2.9290961338318395e-02 9.9083819736557523e-03 0.0000000000000000e+00  2.6147091489672217e-02 3.2292414185201199e-03 0.0000000000000000e+00  0.0000000000000000e+00 0.0000000000000000e+00 0.0000000000000000e+00  -8.2932115565697629e-04 -1.6723140654639927e-02 0.0000000000000000e+00  -2.4081182080805076e-03 -1.7676563772214226e-02 0.0000000000000000e+00  -3.4077833964666023e-03 -1.1550088182957116e-02 0.0000000000000000e+00  -2.8597582706626919e-03 -3.2872377834733341e-03 0.0000000000000000e+00  -3.9731840101339168e-04 4.6239710211128755e-03 0.0000000000000000e+00  3.8866747536330497e-03 1.1135591011081617e-02 0.0000000000000000e+00  9.6263361805594156e-03 1.5958323745177864e-02 0.0000000000000000e+00  1.6333700107380830e-02 1.9139217600835281e-02 0.0000000000000000e+00  2.3493752503492716e-02 2.0815828341384037e-02 0.0000000000000000e+00  3.0614016550085592e-02 2.1090998748851439e-02 0.0000000000000000e+00  3.7273501010671325e-02 2.0018869503723401e-02 0.0000000000000000e+00  4.3194519871447012e-02 1.7691972623408037e-02 0.0000000000000000e+00  4.8116638903765087e-02 1.4440480044161798e-02 0.0000000000000000e+00  5.1617932735456208e-02 1.1665223368203699e-02 0.0000000000000000e+00  5.2322225550322767e-02 1.1482627492364712e-02 0.0000000000000000e+00  4.7450268083655649e-02 7.6458201765912609e-03 0.0000000000000000e+00  0.0000000000000000e+00 0.0000000000000000e+00 0.0000000000000000e+00  -1.6412445427432534e-03 -1.4669549484259223e-02 0.0000000000000000e+00  -4.4788106952796660e-03 -1.5639149671803982e-02 0.0000000000000000e+00  -6.1459038080637508e-03 -1.1091737915737247e-02 0.0000000000000000e+00  -5.3501307032919132e-03 -5.1226750624888519e-03 0.0000000000000000e+00  -1.7936723369434502e-03 4.4729611487603790e-04 0.0000000000000000e+00  4.2397108797428756e-03 4.9616132572285155e-03 0.0000000000000000e+00  1.2190888653911847e-02 8.3070214619848422e-03 0.0000000000000000e+00  2.1412107857129197e-02 1.0576201703684306e-02 0.0000000000000000e+00  3.1253370668071496e-02 1.1885786790627264e-02 0.0000000000000000e+00  4.1092881517251191e-02 1.2283641441097068e-02 0.0000000000000000e+00  5.0371295497137702e-02 1.1718258861647249e-02 0.0000000000000000e+00  5.8575514678808852e-02 1.0098948456657444e-02 0.0000000000000000e+00  6.5400197990164610e-02 7.7747987956819104e-03 0.0000000000000000e+00  7.1355797313438107e-02 6.2874049531135958e-03 0.0000000000000000e+00  7.4990503571890563e-02 9.5626109664262351e-03 0.0000000000000000e+00  6.5272892911911226e-02 1.3146427188019722e-02 0.0000000000000000e+00  0.0000000000000000e+00 0.0000000000000000e+00 0.0000000000000000e+00  -2.6114017341913910e-03 -1.1180504435896535e-02 0.0000000000000000e+00  -6.7456570330536644e-03 -1.2513675604418139e-02 0.0000000000000000e+00  -8.9760521605832706e-03 -1.0432849243806353e-02 0.0000000000000000e+00  -7.9788769013891727e-03 -7.5913404678247792e-03 0.0000000000000000e+00  -3.7076935191852050e-03 -4.9811136968724865e-03 0.0000000000000000e+00  3.3319951115107632e-03 -2.8792186584700799e-03 0.0000000000000000e+00  1.2447437959741054e-02 -1.2782691957903772e-03 0.0000000000000000e+00  2.2930619797615594e-02 -8.5852953260590056e-05 0.0000000000000000e+00  3.4111304856964987e-02 7.7679885496503354e-04 0.0000000000000000e+00  4.5353998706659099e-02 1.3182481435994868e-03 0.0000000000000000e+00  5.6016522269493024e-02 1.4343268547395358e-03 0.0000000000000000e+00  6.5440801823231587e-02 9.2026134442509914e-04 0.0000000000000000e+00  7.3450047942506716e-02 -4.8897789296673943e-04 0.0000000000000000e+00  7.9995927867019534e-02 -2.9563833263543454e-03 0.0000000000000000e+00  8.5430593935490268e-02 -3.4151358219378222e-03 0.0000000000000000e+00  9.1534460412374771e-02 7.0963353908325465e-03 0.0000000000000000e+00  0.0000000000000000e+00 0.0000000000000000e+00 0.0000000000000000e+00  -2.9780600795134182e-03 -6.5825084071161636e-03 0.0000000000000000e+00  -7.2198564194892083e-03 -8.9059139011513667e-03 0.0000000000000000e+00  -9.2007466664695229e-03 -9.8261338221853935e-03 0.0000000000000000e+00  -8.2003144145528610e-03 -1.0293281284255558e-02 0.0000000000000000e+00  -4.4875108797042184e-03 -1.0583352559182810e-02 0.0000000000000000e+00  1.3841405711648917e-03 -1.0740321721501297e-02 0.0000000000000000e+00  8.8242170847712686e-03 -1.0735329614461673e-02 0.0000000000000000e+00  1.7295329906785388e-02 -1.0525529336696211e-02 0.0000000000000000e+00  2.6322280655341767e-02 -1.0081194546200331e-02 0.0000000000000000e+00  3.5461346562229414e-02 -9.4051718898035142e-03 0.0000000000000000e+00  4.4232120862192623e-02 -8.5504280733217763e-03 0.0000000000000000e+00  5.2099807957997575e-02 -7.6540672531409349e-03 0.0000000000000000e+00  5.8152001681822399e-02 -7.1480210977122810e-03 0.0000000000000000e+00  6.0784326061996227e-02 -7.1612649268907045e-03 0.0000000000000000e+00  6.1603142847146429e-02 -7.6214071998530631e-03 0.0000000000000000e+00  3.8297275854092989e-02 -9.9118145036093831e-03 0.0000000000000000e+00  0.0000000000000000e+00 0.0000000000000000e+00 0.0000000000000000e+00  0.0000000000000000e+00 -3.6791320036497375e-03 0.0000000000000000e+00  0.0000000000000000e+00 -6.8677130734795099e-03 0.0000000000000000e+00  0.0000000000000000e+00 -9.5657432094893181e-03 0.0000000000000000e+00  0.0000000000000000e+00 -1.1773222411679159e-02 0.0000000000000000e+00  0.0000000000000000e+00 -1.3490150680049039e-02 0.0000000000000000e+00  0.0000000000000000e+00 -1.4716528014598950e-02 0.0000000000000000e+00  0.0000000000000000e+00 -1.5452354415328898e-02 0.0000000000000000e+00  0.0000000000000000e+0