<?xml version="1.0"?>
<VTKFile type="UnstructuredGrid"  version="0.1"  >
<UnstructuredGrid>
<Piece  NumberOfPoints="289" NumberOfCells="512">
<Points>
<DataArray  type="Float64"  NumberOfComponents="3"  format="ascii">0 0 0  0.0625 0 0  0.125 0 0  0.1875 0 0  0.25 0 0  0.3125 0 0  0.375 0 0  0.4375 0 0  0.5 0 0  0.5625 0 0  0.625 0 0  0.6875 0 0  0.75 0 0  0.8125 0 0  0.875 0 0  0.9375 0 0  1 0 0  0 0.0625 0  0.06252654952249626 0.06247178760753341 0  0.1250541013167645 0.06244306438202051 0  0.1875836853665919 0.06241335462367796 0  0.2501164205235354 0.06238228439700232 0  0.3126535726606072 0.06234964766647899 0  0.3751966363032415 0.06231548944929444 0  0.437747461244233 0.06228020702502975 0  0.5003084663520733 0.06224466319861196 0  0.5628830274332545 0.06221029257572782 0  0.6254762272616329 0.06217915982720112 0  0.6880963991981817 0.06215389583685663 0  0.7507585115720211 0.06213739690983698 0  0.8134920391107071 0.06213214992375661 0  0.8763599823522614 0.06213916533441594 0  0.9395038730947011 0.06215749093697415 0  1.003227729603449 0.06219453316947086 0  0 0.125 0  0.06255206847377133 0.1249440576409469 0  0.1251061166008917 0.1248870415482338 0  0.1876641846553845 0.1248279427333292 0  0.2502284969551768 0.1247659434469975 0  0.3128015826012834 0.1247005454927922 0  0.375386443536782 0.1246317367129897 0  0.4379868097675819 0.1245602017140467 0  0.500607555323127 0.1244875713058382 0  0.5632554150092202 0.12441668198562 0  0.6259402737753014 0.1243517750458483 0  0.6886775582824358 0.1242984975247834 0  0.751492730953721 0.1242634770675508 0  0.8144295665390111 0.1242531796698979 0  0.8775640595445523 0.1242719469739875 0  0.9410221365185387 0.1243202580125287 0  1.004988519633923 0.1243965685692303 0  0 0.1875 0  0.0625756214374811 0.1874173863140032 0  0.1251541279471836 0.1873330422753418 0  0.1877384995070777 0.1872453202885577 0  0.2503319878479146 0.1871528268749207 0  0.3129382924104119 0.1870546026219976 0  0.3755617995391551 0.1869503674981872 0  0.4382079320425095 0.1868408496920334 0  0.500883687862827 0.1867282054271293 0  0.5635984990762984 0.1866165113345295 0  0.6263656223053048 0.1865122564597471 0  0.6892043676380382 0.1864246545674941 0  0.7521434933961322 0.1863653940832209 0  0.8152256828828325 0.1863470277115232 0  0.8785111971776086 0.1863781789480729 0  0.9420740604374067 0.186450553583034 0  1.005979218694442 0.1865017121239183 0  0 0.25 0  0.0625963491421493 0.2498924418962321 0  0.1251963731295949 0.2497823751505864 0  0.1878038739611403 0.2496673735023221 0  0.2504229949882327 0.2495452843776844 0  0.313058437705549 0.2494144398252924 0  0.3757157482693879 0.2492739645452999 0  0.4384017190568973 0.249124219508787 0  0.5011249716086629 0.2489674181984493 0  0.5638968110574275 0.2488084378498689 0  0.626732451965533 0.2486558034215341 0  0.6896526586267872 0.2485227154415764 0  0.7526855821948824 0.2484277651311838 0  0.8158678246610199 0.248394525830036 0  0.8792421335859079 0.2484483784187326 0  0.9428469201813312 0.2486077949748079 0  1.00669333964572 0.2488681217212167 0  0 0.3125 0  0.06261349664584014 0.3123700108237777 0  0.1252313069084648 0.3122366067927358 0  0.1878578992563824 0.3120964298726792 0  0.2504981290055165 0.3119463542600585 0  0.3131574795841988 0.3117836941204523 0  0.3758423742079376 0.3116065385022036 0  0.4385606000376748 0.3114142781507988 0  0.5013219004699827 0.3112084060687786 0  0.5641387972247907 0.3109936877181314 0  0.6270276772734681 0.3107797928957767 0  0.6900100638090439 0.3105834257868293 0  0.7531136831217875 0.3104308140586137 0  0.8163723265873833 0.3103600040300497 0  0.8798227063687042 0.3104216177345837 0  0.9434966572464253 0.3106756050927877 0  1.007411788616908 0.311180809272332 0  0 0.375 0  0.06262643431945776 0.3748510019937034 0  0.1252576458085814 0.3746975784348134 0  0.1878985877322891 0.3745353046665199 0  0.2505546193841747 0.3743598709061634 0  0.3132317557904152 0.3741672379579866 0  0.3759369865383045 0.373953937736184 0  0.4386787078267519 0.3737176086153814 0  0.5014673296229698 0.3734578982979851 0  0.5643161346734527 0.3731779257671128 0  0.6272424580798466 0.3728865641888181 0  0.6902691814916377 0.3726018631648567 0  0.7534263246359846 0.3723558966158837 0  0.8167521204769351 0.3722010305089775 0  0.8802925563575698 0.3722167608394199 0  0.9440988541455286 0.3725146175734954 0  1.008225935195934 0.3732364632674069 0  0 0.4375 0  0.0626346731090601 0.4373364216497119 0  0.1252743993550643 0.4371673618415406 0  0.187924421098886 0.4369872525168697 0  0.2505903798207563 0.4367904412158607 0  0.3132785580267892 0.4365712348927694 0  0.3759961868582914 0.4363240804353543 0  0.438751871625902 0.4360439853456717 0  0.5015562234041022 0.4357273504367764 0  0.5644228401457759 0.4353734976548381 0  0.6273698544254429 0.434987347844474 0  0.6904223374633084 0.4345839430234245 0  0.7536158629316584 0.4341957700376615 0  0.8170013846212855 0.4338839218350257 0  0.8806511963136231 0.4337534943172301 0  0.9446654455022105 0.4339714384925127 0  1.009180164488653 0.4347814757990439 0  0 0.5 0  0.06263787662641397 0.4998273132662672 0  0.1252808932531137 0.499648140697021 0  0.1879343829297593 0.4994557960172143 0  0.2506040473072705 0.4992432369247498 0  0.3132961732934592 0.4990029360717259 0  0.3760179045250272 0.4987268435321749 0  0.4387776271530469 0.4984065332286639 0  0.5015855916493672 0.4980337085991688 0  0.5644550133680708 0.4976013948499143 0  0.627404113688023 0.497106419179125 0  0.6904599200321198 0.4965542557547709 0  0.7536651243242977 0.4959680677813295 0  0.8170897115251134 0.4954047369317562 0  0.8808488573215746 0.4949810981584404 0  0.9451270379411645 0.4949112494187419 0  1.010206846235362 0.4955475724585853 0  0 0.5625 0  0.06263587229862792 0.5623246613864491 0  0.1252767892427182 0.5621420125548319 0  0.187927983207143 0.5619444159097595 0  0.2505950070750429 0.5617235639452117 0  0.3132839085405125 0.5614701314781065 0  0.3760014333934063 0.5611734337090468 0  0.438755310525727 0.560821138021895 0  0.5015547526873886 0.5603991497772303 0  0.5644114939856533 0.5598919446897154 0  0.6273420868052366 0.5592839405943166 0  0.690372973531775 0.5585631709672504 0  0.7535512263456333 0.5577298877323926 0  0.8169657403216258 0.5568152835513333 0  0.8807849560637969 0.5559192450943172 0  0.9453148208412 0.5552772291416233 0  1.011071843206101 0.5553540402737778 0  0 0.625 0  0.06262866247986006 0.6248292655159909 0  0.1252621035386514 0.62465072171639 0  0.1879052773283358 0.6244561127180352 0  0.2505634036687049 0.624236207298558 0  0.3132420890496889 0.6239802204477656 0  0.3759474329912175 0.6236751250679452 0  0.4386861388902715 0.6233048248879046 0  0.5014657184690308 0.6228491884318924 0  0.5642950813635039 0.6222830296277369 0  0.6271863305089986 0.6215753555979865 0  0.6901598538464307 0.6206898306614581 0  0.7532575630826732 0.6195890807302317 0  0.8165742628274429 0.6182498483249841 0  0.8803238784161262 0.616706413597185 0  0.9449583569865931 0.6151554245910615 0  1.011341476409435 0.6141394205339602 0  0 0.6875 0  0.06261643482287389 0.6873415989095617 0  0.1252372228451077 0.6871753531007712 0  0.1878668778778268 0.6869928851642458 0  0.2505101319217842 0.6867846096069696 0  0.313172006111218 0.6865389612198359 0  0.3758578149660307 0.6862413937700632 0  0.4385730621193661 0.6858730280302163 0  0.5013231954205188 0.685408787743192 0  0.5641132940226647 0.6848148175539206 0  0.6269481880497035 0.6840449640941365 0  0.6898349079888024 0.683036270567404 0  0.7527933896890887 0.681704390790395 0  0.8158917022776824 0.6799439968391452 0  0.8793437024360186 0.67765623940192 0  0.9437265209179124 0.6748872172891475 0  1.010354330149144 0.6722206516688763 0  0 0.75 0  0.06259956999704837 0.749861675260982 0  0.1252029154599965 0.7497160366034071 0  0.1878139580550458 0.7495552084829562 0  0.2504368086480526 0.7493700106016685 0  0.3130758093366819 0.7491490842077815 0  0.3757354714617708 0.7488777002999824 0  0.438420202495363 0.7485360520451709 0  0.5011336260472478 0.7480967258349972 0  0.5638771771641126 0.7475208616244831 0  0.6266476017268974 0.7467521925837204 0  0.6894335266750682 0.7457075826296193 0  0.7522144752919591 0.7442617150074705 0  0.8149789519035812 0.7422226312254533 0  0.8778253059952221 0.7392996624118582 0  0.9413452517146198 0.7351262207076857 0  1.007200116993204 0.7300242363330645 0  0 0.8125 0  0.06257864424356736 0.8123889510660179 0  0.1251603349471983 0.8122717238833108 0  0.1877482499995766 0.8121416229287166 0  0.2503457446010652 0.8119907316568217 0  0.3129563947021241 0.8118090690339308 0  0.375583938676831 0.8115834031571416 0  0.4382319822156646 0.8112954937228629 0  0.5009031637859657 0.810919394984383 0  0.5635971139527516 0.8104172015021055 0  0.6263057841282584 0.8097321524708475 0  0.6890033097271644 0.8087770478734978 0  0.7516257867872987 0.8074136534672323 0  0.8140387618316471 0.8054126931196428 0  0.8760261444846258 0.8023672603146481 0  0.9375822867941326 0.7974930538142349 0  1.001911983193399 0.7892217460885541 0  0 0.875 0  0.06255442393610049 0.8749222901253764 0  0.1251110133779975 0.8748400983427399 0  0.1876720428525245 0.8747485454554242 0  0.2502399493605453 0.8746418047597141 0  0.3128173939923578 0.8745124343495599 0  0.3754072660400825 0.874350420233462 0  0.4380125302752178 0.8741417318168586 0  0.5006356601591321 0.8738660671983735 0  0.5632769906747537 0.873493254826281 0  0.6259302476156533 0.8729774226948903 0  0.6885706491072588 0.8722474191422546 0  0.7511234182204216 0.8711905624836189 0  0.8133812884595836 0.8696217642916595 0  0.8747950573569543 0.8672056881769393 0  0.9339825076263145 0.8631808607594167 0  0.9877998149212969 0.8552219007291865 0  0 0.9375 0  0.06252784879900525 0.9374600080711275 0  0.1250568379957206 0.9374176607877783 0  0.1875881757877197 0.9373703872874652 0  0.250123182280731 0.9373150996875345 0  0.3126633491441083 0.9372478245828676 0  0.3752103928537333 0.9371631692550669 0  0.4377662712891122 0.937053507
[...]
<PointData  Vectors="f_95-0"> 
<DataArray  type="Float64"  Name="f_95-0"  NumberOfComponents="3" format="ascii">0.0000000000000000e+00 0.0000000000000000e+00 0.0000000000000000e+00  3.5042836639240650e-04 -3.8650504007069132e-02 0.0000000000000000e+00  9.9426492235533763e-04 -6.6478940159480596e-02 0.0000000000000000e+00  1.7916972775133286e-03 -8.3773698900937346e-02 0.0000000000000000e+00  2.7145670147018259e-03 -9.2288810997277690e-02 0.0000000000000000e+00  3.7152853964759840e-03 -9.4133543608735479e-02 0.0000000000000000e+00  4.7562849215566803e-03 -9.1286556949047415e-02 0.0000000000000000e+00  5.8080402928090014e-03 -8.5367989785549964e-02 0.0000000000000000e+00  6.8470691238438674e-03 -7.7578826075473062e-02 0.0000000000000000e+00  7.8525044611343024e-03 -6.8735144250542821e-02 0.0000000000000000e+00  8.8024233193760362e-03 -5.9347517113179961e-02 0.0000000000000000e+00  9.6698770718208829e-03 -4.9712381602008325e-02 0.0000000000000000e+00  1.0419824087392100e-02 -3.9997096671851189e-02 0.0000000000000000e+00  1.0990902172787068e-02 -3.0297774057853704e-02 0.0000000000000000e+00  1.1302004544413671e-02 -2.0720896143848550e-02 0.0000000000000000e+00  1.1524556980869252e-02 -1.1312604092671633e-02 0.0000000000000000e+00  5.7209492577430972e-03 -5.4152084389249931e-03 0.0000000000000000e+00  0.0000000000000000e+00 0.0000000000000000e+00 0.0000000000000000e+00  3.3522125178304870e-04 -3.9225509923948111e-02 0.0000000000000000e+00  1.0891624419590849e-03 -6.7263669643609650e-02 0.0000000000000000e+00  2.0699689285536968e-03 -8.4712327273141805e-02 0.0000000000000000e+00  3.2088541356927853e-03 -9.3326356321540488e-02 0.0000000000000000e+00  4.4431028943101017e-03 -9.5224246502808710e-02 0.0000000000000000e+00  5.7280191240439964e-03 -9.2394333156054984e-02 0.0000000000000000e+00  7.0283667712315633e-03 -8.6464602025304510e-02 0.0000000000000000e+00  8.3154878199724492e-03 -7.8640093119239168e-02 0.0000000000000000e+00  9.5627496587470766e-03 -6.9736841543361558e-02 0.0000000000000000e+00  1.0741786370326576e-02 -6.0261499119811643e-02 0.0000000000000000e+00  1.1819558450876223e-02 -5.0502536745568198e-02 0.0000000000000000e+00  1.2754553390477416e-02 -4.0611798397692044e-02 0.0000000000000000e+00  1.3491228979686387e-02 -3.0666256174762686e-02 0.0000000000000000e+00  1.3981038551322756e-02 -2.0704767375172382e-02 0.0000000000000000e+00  1.3882809778356027e-02 -1.0660623698589333e-02 0.0000000000000000e+00  1.4295047367100775e-02 -1.6435489516199973e-03 0.0000000000000000e+00  0.0000000000000000e+00 0.0000000000000000e+00 0.0000000000000000e+00  4.0582529438641803e-04 -3.9905183581635216e-02 0.0000000000000000e+00  1.4434862993528592e-03 -6.8339325238187240e-02 0.0000000000000000e+00  2.8806955497139766e-03 -8.6031496410864230e-02 0.0000000000000000e+00  4.5716473042907123e-03 -9.4794208754574588e-02 0.0000000000000000e+00  6.4157639717650344e-03 -9.6773431955801528e-02 0.0000000000000000e+00  8.3456983860285550e-03 -9.3975546470010343e-02 0.0000000000000000e+00  1.0310096704386965e-02 -8.8039279922335387e-02 0.0000000000000000e+00  1.2265259622303520e-02 -8.0173511995135241e-02 0.0000000000000000e+00  1.4167763905686748e-02 -7.1192838791221166e-02 0.0000000000000000e+00  1.5970526632610855e-02 -6.1599008991934143e-02 0.0000000000000000e+00  1.7621408468258104e-02 -5.1673494029178889e-02 0.0000000000000000e+00  1.9064454335365359e-02 -4.1560123586331869e-02 0.0000000000000000e+00  2.0245204193956336e-02 -3.1327214158874205e-02 0.0000000000000000e+00  2.1107092001357700e-02 -2.1003108878483522e-02 0.0000000000000000e+00  2.1702942826841629e-02 -1.0646178868349903e-02 0.0000000000000000e+00  2.1942362850264942e-02 -7.2807619706011944e-04 0.0000000000000000e+00  0.0000000000000000e+00 0.0000000000000000e+00 0.0000000000000000e+00  5.6378762818231959e-04 -4.0821588077461224e-02 0.0000000000000000e+00  2.0283055685945467e-03 -6.9880605288898584e-02 0.0000000000000000e+00  4.1020609748771281e-03 -8.7969215438040094e-02 0.0000000000000000e+00  6.5687117062046482e-03 -9.6976260993713259e-02 0.0000000000000000e+00  9.2840210629650793e-03 -9.9098691570684530e-02 0.0000000000000000e+00  1.2150614961065903e-02 -9.6372948718278728e-02 0.0000000000000000e+00  1.5094296234869548e-02 -9.0451414754132126e-02 0.0000000000000000e+00  1.8047965469924772e-02 -8.2545118862580619e-02 0.0000000000000000e+00  2.0941052918751427e-02 -7.3464003488485086e-02 0.0000000000000000e+00  2.3695283476182126e-02 -6.3702626886665642e-02 0.0000000000000000e+00  2.6225524281012626e-02 -5.3536706439043014e-02 0.0000000000000000e+00  2.8445921727119104e-02 -4.3110061443891262e-02 0.0000000000000000e+00  3.0279755173269574e-02 -3.2501965780416274e-02 0.0000000000000000e+00  3.1682541570812593e-02 -2.1778152581776771e-02 0.0000000000000000e+00  3.2623756817065197e-02 -1.1024616058743601e-02 0.0000000000000000e+00  3.3049733698912523e-02 -4.8543583474593041e-04 0.0000000000000000e+00  0.0000000000000000e+00 0.0000000000000000e+00 0.0000000000000000e+00  7.6470867186027348e-04 -4.2083812756974620e-02 0.0000000000000000e+00  2.7499529472018334e-03 -7.2020985880539151e-02 0.0000000000000000e+00  5.5747966222235755e-03 -9.0689427731108496e-02 0.0000000000000000e+00  8.9623171048124756e-03 -1.0007210667103532e-01 0.0000000000000000e+00  1.2729478441272025e-02 -1.0243506895464045e-01 0.0000000000000000e+00  1.6750747760710075e-02 -9.9853534255208168e-02 0.0000000000000000e+00  2.0926410027780867e-02 -9.3993916746498124e-02 0.0000000000000000e+00  2.5159249805546333e-02 -8.6064969310013728e-02 0.0000000000000000e+00  2.9341289309181572e-02 -7.6865969148327329e-02 0.0000000000000000e+00  3.3349514921342589e-02 -6.6879319354309477e-02 0.0000000000000000e+00  3.7048880009444715e-02 -5.6373583084999263e-02 0.0000000000000000e+00  4.0302781465816388e-02 -4.5497225257300836e-02 0.0000000000000000e+00  4.2990294013185916e-02 -3.4352991816608475e-02 0.0000000000000000e+00  4.5026292030099349e-02 -2.3047076023269528e-02 0.0000000000000000e+00  4.6364356784290149e-02 -1.1708431268028308e-02 0.0000000000000000e+00  4.7012271701156350e-02 -4.7278776933252408e-04 0.0000000000000000e+00  0.0000000000000000e+00 0.0000000000000000e+00 0.0000000000000000e+00  9.7978436699507499e-04 -4.3739384607690057e-02 0.0000000000000000e+00  3.5199062741034372e-03 -7.4831349628320776e-02 0.0000000000000000e+00  7.1467959608799833e-03 -9.4286626745040555e-02 0.0000000000000000e+00  1.1535201619735147e-02 -1.0421034330197952e-01 0.0000000000000000e+00  1.6475249483450256e-02 -1.0695244332079783e-01 0.0000000000000000e+00  2.1820646089453302e-02 -1.0463009515989524e-01 0.0000000000000000e+00  2.7446232764527869e-02 -9.8918793803951119e-02 0.0000000000000000e+00  3.3218746006947714e-02 -9.1015866367087556e-02 0.0000000000000000e+00  3.8981927027387890e-02 -8.1699835760510334e-02 0.0000000000000000e+00  4.4552813980634126e-02 -7.1432268135724564e-02 0.0000000000000000e+00  4.9726871185896526e-02 -6.0469055380271433e-02 0.0000000000000000e+00  5.4293122238746404e-02 -4.8962661808997422e-02 0.0000000000000000e+00  5.8057970277731200e-02 -3.7045518609343429e-02 0.0000000000000000e+00  6.0885006849835638e-02 -2.4883602325501512e-02 0.0000000000000000e+00  6.2727468111206303e-02 -1.2677644711495547e-02 0.0000000000000000e+00  6.3679347362725514e-02 -6.2536258268917010e-04 0.0000000000000000e+00  0.0000000000000000e+00 0.0000000000000000e+00 0.0000000000000000e+00  1.1853145793340194e-03 -4.5792438592602784e-02 0.0000000000000000e+00  4.2598925531732021e-03 -7.8321937556419433e-02 0.0000000000000000e+00  8.6762311334720957e-03 -9.8791561171782769e-02 0.0000000000000000e+00  1.4084512133769156e-02 -1.0946062534471032e-01 0.0000000000000000e+00  2.0268083594094630e-02 -1.1277268257535063e-01 0.0000000000000000e+00  2.7071111088474587e-02 -1.1088180443661109e-01 0.0000000000000000e+00  3.4344366892811000e-02 -1.0545971526020310e-01 0.0000000000000000e+00  4.1912115091661088e-02 -9.7677030691290967e-02 0.0000000000000000e+00  4.9557648176353948e-02 -8.8277041595535663e-02 0.0000000000000000e+00  5.7021686530893630e-02 -7.7687615431858356e-02 0.0000000000000000e+00  6.4009613411498911e-02 -6.6140317306394678e-02 0.0000000000000000e+00  7.0208685889277200e-02 -5.3784234569328453e-02 0.0000000000000000e+00  7.5319156940996376e-02 -4.0787630080049132e-02 0.0000000000000000e+00  7.9124005231207301e-02 -2.7407746620439405e-02 0.0000000000000000e+00  8.1560623697123635e-02 -1.3999057236600819e-02 0.0000000000000000e+00  8.2877155975190783e-02 -9.1134134798705440e-04 0.0000000000000000e+00  0.0000000000000000e+00 0.0000000000000000e+00 0.0000000000000000e+00  1.3577597985770930e-03 -4.8203876442152127e-02 0.0000000000000000e+00  4.8897175030207926e-03 -8.2439457850727552e-02 0.0000000000000000e+00  1.0014013840799328e-02 -1.0416926358116568e-01 0.0000000000000000e+00  1.6395951154416829e-02 -1.1583547887438594e-01 0.0000000000000000e+00  2.3840904607313838e-02 -1.1997470292948846e-01 0.0000000000000000e+00  3.2197635517731263e-02 -1.1876072948106250e-01 0.0000000000000000e+00  4.1293792719056290e-02 -1.1383848773541086e-01 0.0000000000000000e+00  5.0902770258530974e-02 -1.0632998351373699e-01 0.0000000000000000e+00  6.0734033412977673e-02 -9.6924705078467441e-02 0.0000000000000000e+00  7.0436592050011085e-02 -8.5999857839519606e-02 0.0000000000000000e+00  7.9606062017750015e-02 -7.3746478979955524e-02 0.0000000000000000e+00  8.7798845621765556e-02 -6.0296579590084325e-02 0.0000000000000000e+00  9.4566884856792904e-02 -4.5846680992297870e-02 0.0000000000000000e+00  9.9552578231902486e-02 -3.0769387798180683e-02 0.0000000000000000e+00  1.0261427978305095e-01 -1.5677784905350777e-02 0.0000000000000000e+00  1.0417538797610039e-01 -1.2493508915067631e-03 0.0000000000000000e+00  0.0000000000000000e+00 0.0000000000000000e+00 0.0000000000000000e+00  1.4686360279540605e-03 -5.0887328910596275e-02 0.0000000000000000e+00  5.3133252458382732e-03 -8.7059426615602384e-02 0.0000000000000000e+00  1.0982391978255885e-02 -1.1031019162828661e-01 0.0000000000000000e+00  1.8213659867934821e-02 -1.2328203232900099e-01 0.0000000000000000e+00  2.6871153551692287e-02 -1.2858604199559637e-01 0.0000000000000000e+00  3.6823098468543286e-02 -1.2838134836550472e-01 0.0000000000000000e+00  4.7872044781031631e-02 -1.2425084032304698e-01 0.0000000000000000e+00  5.9728988623509352e-02 -1.1723953270831750e-01 0.0000000000000000e+00  7.2015820525186847e-02 -1.0796262423275459e-01 0.0000000000000000e+00  8.4276576128490571e-02 -9.6731576727861410e-02 0.0000000000000000e+00  9.5984110365537639e-02 -8.3679159421559055e-02 0.0000000000000000e+00  1.0654786631308787e-01 -6.8884264150479477e-02 0.0000000000000000e+00  1.1532514804673687e-01 -5.2529026558419768e-02 0.0000000000000000e+00  1.2171061807994772e-01 -3.5114665371191775e-02 0.0000000000000000e+00  1.2534511223401937e-01 -1.7637345398455531e-02 0.0000000000000000e+00  1.2672801324121438e-01 -1.3396355446759869e-03 0.0000000000000000e+00  0.0000000000000000e+00 0.0000000000000000e+00 0.0000000000000000e+00  1.4810579155623553e-03 -5.3697215845236963e-02 0.0000000000000000e+00  5.4100778972872117e-03 -9.1970596413954692e-02 0.0000000000000000e+00  1.1361827065357268e-02 -1.1701433795015727e-01 0.0000000000000000e+00  1.9221395878827256e-02 -1.3166473029437695e-01 0.0000000000000000e+00  2.8951913307708688e-02 -1.3856098939826500e-01 0.0000000000000000e+00  4.0452234833109918e-02 -1.3979093488883615e-01 0.0000000000000000e+00  5.3492101061888522e-02 -1.3682683482726132e-01 0.0000000000000000e+00  6.7704814046751452e-02 -1.3060382011918162e-01 0.0000000000000000e+00  8.2609815323594821e-02 -1.2164615477675604e-01 0.0000000000000000e+00  9.7638166446446670e-02 -1.1019110217217361e-01 0.0000000000000000e+00  1.1214943410225947e-01 -9.6291871989897679e-02 0.0000000000000000e+00  1.2541196156454334e-01 -7.9933022033009699e-02 0.0000000000000000e+00  1.3654699685099844e-01 -6.1234163503293651e-02 0.0000000000000000e+00  1.4459344511720792e-01 -4.0741757436661676e-02 0.0000000000000000e+00  1.4873754354749236e-01 -1.9804433860691535e-02 0.0000000000000000e+00  1.4918083983006386e-01 -5.4998693483811764e-04 0.0000000000000000e+00  0.0000000000000000e+00 0.0000000000000000e+00 0.0000000000000000e+00  1.3497836201944967e-03 -5.6414231511419222e-02 0.0000000000000000e+00  5.0378986811025223e-03 -9.6859131666067383e-02 0.0000000000000000e+00  1.0899482049394910e-02 -1.2397510440632127e-01 0.0000000000000000e+00  1.9053160750246288e-02 -1.4074340736653157e-01 0.0000000000000000e+00  2.9596432529190198e-02 -1.4974646823948792e-01 0.0000000000000000e+00  4.2459785136164649e-02 -1.5291897048900810e-01 0.0000000000000000e+00  5.7364635159121824e-02 -1.5156241881231583e-01 0.0000000000000000e+00  7.3847507788603231e-02 -1.4646876893638203e-01 0.0000000000000000e+00  9.1311063000464543e-02 -1.3806193714803605e-01 0.0000000000000000e+00  1.0907809820067110e-01 -1.2650907634281758e-01 0.0000000000000000e+00  1.2642040917058639e-01 -1.1179538274323654e-01 0.0000000000000000e+00  1.4249779278746627e-01 -9.3800481910938108e-02 0.0000000000000000e+00  1.5628035698025505e-01 -7.2402692228989915e-02 0.0000000000000000e+00  1.6640470591412915e-01 -4.7843113639820169e-02 0.0000000000000000e+00  1.7110421606445653e-01 -2.1788726259460531e-02 0.0000000000000000e+00  1.6951526122424279e-01 2.0835723224846970e-03 0.0000000000000000e+00  0.0000000000000000e+00 0.0000000000000000e+00 0.0000000000000000e+00  1.0277975457120769e-03 -5.8737604471973341e-02 0.0000000000000000e+00  4.0588506300797923e-03 -1.0130605209828465e-01 0.0000000000000000e+00  9.3574547418989046e-03 -1.3077535766185380e-01 0.0000000000000000e+00  1.7356221022152490e-02 -1.5015471450567250e-01 0.0000000000000000e+00  2.8301298113290699e-02 -1.6183861152621104e-01 0.0000000000000000e+00  4.2138561850768197e-02 -1.6750508531808417e-01 0.0000000000000000e+00  5.8518721047991835e-02 -1.6822025537300880e-01 0.0000000000000000e+00  7.6864373945618611e-02 -1.6460393023981004e-01 0.0000000000000000e+00  9.6455917220802226e-02 -1.5697978471490343e-01 0.0000000000000000e+00  1.1651584168228815e-01 -1.4547531020896667e-01 0.0000000000000000e+00  1.3624906867723638e-01 -1.3005896142015180e-01 0.0000000000000000e+00  1.5484291381356052e-01 -1.1048054670866693e-01 0.0000000000000000e+00  1.7135251910929686e-01 -8.6238104034280436e-02 0.0000000000000000e+00  1.8392000509380063e-01 -5.7171091567615871e-02 0.0000000000000000e+00  1.8965694052163234e-01 -2.4728129490476706e-02 0.0000000000000000e+00  1.8548217132457021e-01 7.4784883074716993e-03 0.0000000000000000e+00  0.0000000000000000e+00 0.0000000000000000e+00 0.0000000000000000e+00  4.8541431193657931e-04 -6.0299916530634962e-02 0.0000000000000000e+00  2.4033903844012734e-03 -1.0482029921081729e-01 0.0000000000000000e+00  6.6246036503026977e-03 -1.3691375393850028e-01 0.0000000000000000e+00  1.3933011496948143e-02 -1.5940675519017611e-01 0.0000000000000000e+00  2.4694861608972402e-02 -1.7433316111988303e-01 0.0000000000000000e+00  3.8834374828865953e-02 -1.8300539729292115e-01 0.0000000000000000e+00  5.5911447821905498e-02 -1.8619999087283276e-01 0.0000000000000000e+00  7.5235854306127781e-02 -1.8434712593053487e-01 0.0000000000000000e+00  9.5979297682285303e-02 -1.7767918856111334e-01 0.0000000000000000e+00  1.1727031080714717e-01 -1.6632145273087631e-01 0.0000000000000000e+00  1.3828366943773018e-01 -1.5029122756106209e-01 0.0000000000000000e+00  1.5836019549480720e-01 -1.2937679598076401e-01 0.0000000000000000e+00  1.7674430358952772e-01 -1.0297726312524942e-01 0.0000000000000000e+00  1.9192635846537121e-01 -6.9623186225795886e-02 0.0000000000000000e+00  2.0071968844188573e-01 -2.7809969428986146e-02 0.0000000000000000e+00  1.9654268822742219e-01 1.5226894669713666e-02 0.0000000000000000e+00  0.0000000000000000e+00 0.0000000000000000e+00 0.0000000000000000e+00  -2.4835569440467749e-04 -6.0737828802416287e-02 0.0000000000000000e+00  1.9735507328318976e-04 -1.0694322637417053e-01 0.0000000000000000e+00  2.9187078443004542e-03 -1.4188360685685272e-01 0.0000000000000000e+00  8.9835107684692276e-03 -1.6789644363576492e-01 0.0000000000000000e+00  1.8788022288927043e-02 -1.8647311103815914e-01 0.0000000000000000e+00  3.2186024821297461e-02 -1.9848060742932702e-01 0.0000000000000000e+00  4.8650963657511030e-02 -2.0438607107352880e-01 0.0000000000000000e+00  6.7424234856906073e-02 -2.0443444880299086e-01 0.0000000000000000e+00  8.7625379176140938e-02 -1.9877537854067046e-01 0.0000000000000000e+00  1.0833463938757008e-01 -1.8754189819502445e-01 0.0000000000000000e+00  1.2870991077709990e-01 -1.7086842712063438e-01 0.0000000000000000e+00  1.4808318277541607e-01 -1.4881457802539083e-01 0.0000000000000000e+00  1.6606855298775330e-01 -1.2080871541178033e-01 0.0000000000000000e+00  1.8322127637910787e-01 -8.4285620574580652e-02 0.0000000000000000e+00  1.9667601886475747e-01 -3.4384215297677406e-02 0.0000000000000000e+00  1.8663872545454599e-01 2.4894358185912027e-02 0.0000000000000000e+00  0.0000000000000000e+00 0.0000000000000000e+00 0.0000000000000000e+00  -9.9866797544711844e-04 -5.9860197080482624e-02 0.0000000000000000e+00  -2.0151414836664001e-03 -1.0744878504289705e-01 0.0000000000000000e+00  -9.0490567887018111e-04 -1.4530388549980500e-01 0.0000000000000000e+00  3.4429736449220760e-03 -1.7493878428120291e-01 0.0000000000000000e+00  1.1311896866256227e-02 -1.9718669424522156e-01 0.0000000000000000e+00  2.2460019335687156e-02 -2.1246967571988273e-01 0.0000000000000000e+00  3.6338283527332232e-02 -2.2098663326015192e-01 0.0000000000000000e+00  5.2235077940426922e-02 -2.2283365541694899e-01 0.0000000000000000e+00  6.9352995504614809e-02 -2.1808404772750076e-01 0.0000000000000000e+00  8.6850151016734933e-02 -2.0684696677826445e-01 0.0000000000000000e+00  1.0387183997902975e-01 -1.8932152375380457e-01 0.0000000000000000e+00  1.1958178151507254e-01 -1.6579573219065707e-01 0.0000000000000000e+00  1.3384027089870057e-01 -1.3644000948903057e-01 0.0000000000000000e+00  1.4767826373475218e-01 -1.0084721125440657e-01 0.0000000000000000e+00  1.6242031742944704e-01 -5.3498574668853355e-02 0.0000000000000000e+00  1.8051845894127164e-01 1.7752673833408835e-02 0.0000000000000000e+00  0.0000000000000000e+00 0.0000000000000000e+00 0.0000000000000000e+00  -1.2694787306233334e-03 -5.8007061290666503e-02 0.0000000000000000e+00  -2.9294073950850872e-03 -1.0669182042373279e-01 0.0000000000000000e+00  -2.9647817069203028e-03 -1.4710837383885059e-01 0.0000000000000000e+00  -6.5603542069403301e-04 -1.7980715720810506e-01 0.0000000000000000e+00  4.0569137735370873e-03 -2.0503542296718091e-01 0.0000000000000000e+00  1.0911555396734907e-02 -2.2289667621405540e-01 0.0000000000000000e+00  1.9498696565049104e-02 -2.3342968137534961e-01 0.0000000000000000e+00  2.9348633791210436e-02 -2.3664929729512396e-01 0.0000000000000000e+00  3.9959351808968299e-02 -2.3257193135829826e-01 0.0000000000000000e+00  5.0789275173817448e-02 -2.2123907023475914e-01 0.0000000000000000e+00  6.1202842752230431e-02 -2.0274883456106968e-01 0.0000000000000000e+00  7.0461399571350086e-02 -1.7728223649503300e-01 0.0000000000000000e+00  7.7675696598098143e-02 -1.4533019690819965e-01 0.0000000000000000e+00  8.1138033158652229e-02 -1.0736456971832113e-01 0.0000000000000000e+00  8.4346356193435765e-02 -6.1907658287773740e-02 0.0000000000000000e+00  7.0342165971009785e-02 -3.4871173166151890e-03 0.0000000000000000e+00  0.0000000000000000e+00 0.0000000000000000e+00 0.0000000000000000e+00  0.0000000000000000e+00 -5.6752919597377008e-02 0.0000000000000000e+00  0.0000000000000000e+00 -1.0593878324843709e-01 0.0000000000000000e+00  0.0000000000000000e+00 -1.4755759095318022e-01 0.0000000000000000e+00  0.0000000000000000e+00 -1.8160934271160642e-01 0.0000000000000000e+00  0.0000000000000000e+00 -2.0809403852371569e-01 0.0000000000000000e+00  0.0000000000000000e+00 -2.2701167838950803e-01 0.0000000000000000e+00  0.0000000000000000e+00 -2.3836226230898339e-01 0.0000000000000000e+00  0.0000000000000000e+00