<?xml version="1.0"?>
<VTKFile type="UnstructuredGrid"  version="0.1"  >
<UnstructuredGrid>
<Piece  NumberOfPoints="289" NumberOfCells="512">
<Points>
<DataArray  type="Float64"  NumberOfComponents="3"  format="ascii">0 0 0  0.0625 0 0  0.125 0 0  0.1875 0 0  0.25 0 0  0.3125 0 0  0.375 0 0  0.4375 0 0  0.5 0 0  0.5625 0 0  0.625 0 0  0.6875 0 0  0.75 0 0  0.8125 0 0  0.875 0 0  0.9375 0 0  1 0 0  0 0.0625 0  0.06256932266168089 0.0624908581467445 0  0.1251411083177827 0.06248152203267322 0  0.1877179014401233 0.06247180710082397 0  0.2503023838645184 0.0624615525596544 0  0.3128974461572507 0.06245063729690793 0  0.3755062644079832 0.06243900016606094 0  0.4381323933152023 0.06242666478765884 0  0.5007799049242063 0.0624137669141108 0  0.5634536507949219 0.06240057816067086 0  0.6261598543928353 0.06238751126902969 0  0.6889075974967439 0.06237507309900367 0  0.7517128051623936 0.06236368252144412 0  0.8146095559295069 0.06235311514126204 0  0.8776841694225929 0.06234075602755439 0  0.9411850536632361 0.06231544116829955 0  1.005908166776623 0.06223331426523287 0  0 0.125 0  0.06263622896777155 0.1249819048782797 0  0.1252773329058123 0.1249634093183137 0  0.1879283517007958 0.1249441306606966 0  0.250594607319861 0.124923730438963 0  0.3132818498080256 0.1249019450655121 0  0.3759964110156409 0.124878626300478 0  0.4387453791188882 0.124853792932331 0  0.5015368275936615 0.1248276919624291 0  0.564380182328982 0.124800861335736 0  0.6272869275082408 0.1247741750130624 0  0.6902721121596533 0.1247488337611018 0  0.753357654743306 0.1247262485179767 0  0.8165793052782689 0.1247078022816017 0  0.879999234355519 0.1246948687917106 0  0.9437174341137738 0.1246916925134141 0  1.007812411603158 0.1247247784423827 0  0 0.1875 0  0.06269830442967041 0.1874733477162423 0  0.125403773347411 0.1874460675399212 0  0.1881238194302845 0.1874175540754266 0  0.2508662881723324 0.1873872595111388 0  0.3136396804476013 0.1873547362302234 0  0.3764533805255708 0.1873196960914438 0  0.4393178941603647 0.1872820908776042 0  0.5022451072592543 0.1872422156464291 0  0.5652485878275667 0.1872008303821271 0  0.6283439711419444 0.1871592826783623 0  0.6915494640962059 0.1871195910229593 0  0.7548863473376402 0.1870844072173625 0  0.8183785424273312 0.1870566936221598 0  0.8820472677018325 0.1870386979439441 0  0.9458876814140601 0.187028637249953 0  1.009795516791408 0.1870072877838224 0  0 0.25 0  0.06275326332652573 0.2499654152195177 0  0.1255157836212872 0.2499299480655074 0  0.18829714728729 0.2498927381067517 0  0.2511075298592787 0.2498529845713026 0  0.3139579994859963 0.249809995436905 0  0.3768608246629852 0.2497632611113703 0  0.4398297800430804 0.2497125621621462 0  0.5028804317419098 0.2496581199688095 0  0.5660303546668128 0.2496007955437738 0  0.6292991634574955 0.2495423317725885 0  0.6927080599071976 0.24948561225977 0  0.7562781535157113 0.2494348661467501 0  0.8200257554297631 0.2493956666362315 0  0.8839506426901398 0.2493744345804864 0  0.9480099464818941 0.2493770555152668 0  1.012070116299279 0.2494072136481311 0  0 0.3125 0  0.06279902022489749 0.3124583625515603 0  0.1256091156545952 0.3124155611273975 0  0.1884417678883437 0.3123704459516535 0  0.2513092077339524 0.3123219131701465 0  0.3142248068752914 0.3122689515637477 0  0.3772034816598053 0.3122107212863401 0  0.4402621002028441 0.3121466803284416 0  0.5034198622251979 0.3120767779226069 0  0.5666985728621449 0.3120017365451024 0  0.6301226271203891 0.3119234424191337 0  0.6937183025851549 0.3118454524108488 0  0.7575115275195983 0.3117735925880473 0  0.8215225443033198 0.3117165572471109 0  0.8857549201937286 0.311686315251311 0  0.9501761907142988 0.3116980562803706 0  1.014691526021157 0.3117695598930104 0  0 0.375 0  0.06283376370588936 0.3749524713986028 0  0.1256800680996844 0.374903477686889 0  0.1885519292605517 0.374851551541288 0  0.2514632698342965 0.3747952382414145 0  0.3144294049013189 0.374733127494157 0  0.3774675614529792 0.3746639216840242 0  0.4405974342925519 0.3745865622799036 0  0.5038417646887561 0.3745004452485221 0  0.5672268898045864 0.3744057679887974 0  0.6307831274868585 0.3743040626719819 0  0.6945446928662258 0.3741989781854379 0  0.7585485401800455 0.3740973614264994 0  0.82283107413671 0.3740106316478395 0  0.8874212757625404 0.3739562969647039 0  0.9523291982727501 0.3739591819633595 0  1.017531596948613 0.3740514642100841 0  0 0.4375 0  0.06285603208232164 0.4374480422470527 0  0.1257256410710699 0.437394315549012 0  0.1886229347463591 0.437337023242229 0  0.2515630691571618 0.4372743267832535 0  0.3145628264590624 0.4372043473581996 0  0.3776412592276244 0.4371252021172664 0  0.440820429022483 0.4370351002317806 0  0.5041262699602278 0.4369325390302686 0  0.5675896064651602 0.4368166633158915 0  0.6312473379126917 0.4366878830536918 0  0.6951437500240768 0.4365488836279167 0  0.7593317877758943 0.4364061947368412 0  0.8238738918192111 0.4362724661299788 0  0.8888416973418021 0.436169434047025 0  0.9543138123391048 0.4361310903304503 0  1.020371785427587 0.4362056618461047 0  0 0.5 0  0.06286478865774493 0.4999453775070111 0  0.1257436925482344 0.4998887060449856 0  0.1886513930092932 0.4998278756552421 0  0.2516037276016263 0.4997606611252877 0  0.3146183431182059 0.499684677569369 0  0.377715450267694 0.4995973596980817 0  0.4409187384151143 0.4994959879944662 0  0.5042565399507648 0.4993778041766434 0  0.567763388192985 0.4992402912432327 0  0.6314822024301027 0.4990817477168327 0  0.695467468004244 0.4989023694990295 0  0.759789943652954 0.4987061651206597 0  0.8245435360328796 0.4985041303603948 0  0.8898548103481276 0.4983190368840349 0  0.9558948685213851 0.4981915251749145 0  1.022892396512376 0.4981851520653921 0  0 0.5625 0  0.06285949101749093 0.5624447550925823 0  0.1257330848587851 0.5623872397897087 0  0.1886354592807401 0.5623250852516365 0  0.2515825035924995 0.5622557226107978 0  0.3145920133118841 0.5621762800897424 0  0.3776845112087728 0.5620834823566456 0  0.4408842768817303 0.5619735653285178 0  0.5042207246779435 0.5618422379791739 0  0.5677303832769801 0.5616847588909801 0  0.6314599486807125 0.561496265117713 0  0.6954712832232407 0.561272621650004 0  0.7598499048443534 0.5610122907965117 0  0.8247194464037493 0.5607200783561999 0  0.8902653505246749 0.5604139778391493 0  0.9567703958960784 0.5601359906493765 0  1.024660927137353 0.5599645197353975 0  0 0.625 0  0.06284014619213696 0.6249463938889276 0  0.1256938032061853 0.6248903938489134 0  0.1885750357927907 0.6248294717403912 0  0.2514991091430088 0.6247608162657736 0  0.314483179001318 0.6246811674505296 0  0.3775471112631273 0.6245866230845905 0  0.4407145170534149 0.6244724115237634 0  0.5040141570193482 0.624332634925605 0  0.5674820157863704 0.6241600123319274 0  0.6311646682607852 0.6239457139336523 0  0.6951252468879761 0.6236795238257344 0  0.7594547284602858 0.6233509036209955 0  0.8242938925705079 0.6229522646283797 0  0.8898753106635995 0.6224871835698024 0  0.9565978704207521 0.6219880498730913 0  1.025140786734941 0.6215447395342588 0  0 0.6875 0  0.06280734257180426 0.6874504148597403 0  0.1256270257542216 0.6873984477942731 0  0.188471893979185 0.6873415560484669 0  0.2513559104860993 0.687276849427384 0  0.3142947937204564 0.6872008707850104 0  0.3773067615358788 0.6871093151646261 0  0.440413446448761 0.6869966571814906 0  0.503641093423167 0.6868556489714458 0  0.5670222714568272 0.6866766472688446 0  0.6305986379883695 0.6864467423209091 0  0.6944260935578261 0.6861487384450081 0  0.7585857082208618 0.6857603169668439 0  0.823208815791023 0.6852546387006774 0  0.8885358026734408 0.6846065443533296 0  0.955046915671327 0.6838165891619178 0  1.023709814434947 0.6829777124406922 0  0 0.75 0  0.06276225091760447 0.7499568038881265 0  0.1255351281735462 0.7499114015711227 0  0.1883296874050119 0.7498614160670906 0  0.2511579574670755 0.7498040954436729 0  0.3140334823907167 0.7497360630063634 0  0.3769719332258907 0.7496529792047254 0  0.439991810655346 0.7495490612095008 0  0.5031152586902207 0.7494163783268796 0  0.5663690253967404 0.7492437970441199 0  0.6297857060581994 0.7490153810307039 0  0.6934058457272898 0.7487079553552712 0  0.7572831769404408 0.7482874596156276 0  0.8215012965815547 0.7477039396740578 0  0.8862300637640295 0.7468872938683485 0  0.9519087332621152 0.7457597015109579 0  1.019731799463273 0.7443530845170629 0  0 0.8125 0  0.06270659053439255 0.8124653840501889 0  0.1254216143528111 0.8124289121655729 0  0.1881538417565795 0.8123885698656076 0  0.2509128200888047 0.8123419906141772 0  0.3137092960297689 0.8122862123586542 0  0.3765556707969199 0.8122173354849332 0  0.439466468613137 0.8121300153346841 0  0.5024587441068131 0.8120166799951337 0  0.5655522321982672 0.8118662878466659 0  0.6287687908770858 0.8116622982527931 0  0.6921302356457965 0.8113792532607114 0  0.7556532026260268 0.8109767883846192 0  0.8193411876129365 0.8103885788958978 0  0.8831892558094269 0.8095008143214529 0  0.9473111750829903 0.8081116034226395 0  1.012875853259062 0.8059163790348279 0  0 0.875 0  0.06264256148326885 0.8749758050694332 0  0.1252909762308946 0.8749502667432935 0  0.1879513303305443 0.8749219189424631 0  0.2506302537548885 0.8748890210943352 0  0.3133352112776382 0.8748493634866257 0  0.3760748049971265 0.874799987073228 0  0.4388590535294572 0.8747367563722039 0  0.5016995369495815 0.8746536815592098 0  0.56460910382011 0.8745418072511767 0  0.627600345229488 0.8743873363810302 0  0.6906807758648074 0.8741683590177219 0  0.7538393916556889 0.8738488877954731 0  0.8170109687888251 0.8733670740128955 0  0.8799852129449607 0.8726079920167271 0  0.9421991741548587 0.8713223241111044 0  1.002457023286111 0.8687871515893134 0  0 0.9375 0  0.06257274793068174 0.9374875556210592 0  0.1251484950192362 0.9374744057182332 0  0.1877303604343367 0.937459777813373 0  0.2503217462418337 0.9374427489689412 0  0.3129264891238679 0.9374221375225247 0  0.3755490180679458 0.9373963450495563 0  0.4381944972124433 0.937363111786
[...]
<PointData  Vectors="f_95-0"> 
<DataArray  type="Float64"  Name="f_95-0"  NumberOfComponents="3" format="ascii">0.0000000000000000e+00 0.0000000000000000e+00 0.0000000000000000e+00  2.7795422526746149e-04 4.0405656647632161e-02 0.0000000000000000e+00  7.4290665858763570e-04 6.4719693023967850e-02 0.0000000000000000e+00  1.2570097427836615e-03 7.6743905079363697e-02 0.0000000000000000e+00  1.8327255479445273e-03 8.0052077355755882e-02 0.0000000000000000e+00  2.4599294710152572e-03 7.7712811057590828e-02 0.0000000000000000e+00  3.1193404039246220e-03 7.2088571034331819e-02 0.0000000000000000e+00  3.7792456717581488e-03 6.4829120914096844e-02 0.0000000000000000e+00  4.3991280730123535e-03 5.6970631515788850e-02 0.0000000000000000e+00  4.9337879570741467e-03 4.9079477696296891e-02 0.0000000000000000e+00  5.3368400868128926e-03 4.1399453125490329e-02 0.0000000000000000e+00  5.5632589997557415e-03 3.3980247454532035e-02 0.0000000000000000e+00  5.5714177933567071e-03 2.6777642647737472e-02 0.0000000000000000e+00  5.3227190810119489e-03 1.9725891521836552e-02 0.0000000000000000e+00  4.7734582761413055e-03 1.2783266594783401e-02 0.0000000000000000e+00  3.8770008435521216e-03 5.9177038328993526e-03 0.0000000000000000e+00  1.2153058266942411e-03 -1.1731598383932140e-03 0.0000000000000000e+00  0.0000000000000000e+00 0.0000000000000000e+00 0.0000000000000000e+00  1.7682979376863159e-04 4.0043352939062790e-02 0.0000000000000000e+00  5.0657416680846535e-04 6.4298386684229811e-02 0.0000000000000000e+00  8.6772848335302613e-04 7.6254463713802803e-02 0.0000000000000000e+00  1.2761560606353905e-03 7.9486743862828002e-02 0.0000000000000000e+00  1.7284523557379811e-03 7.7079992122982305e-02 0.0000000000000000e+00  2.2102128900396631e-03 7.1414391967049462e-02 0.0000000000000000e+00  2.6918134629805679e-03 6.4151975259408231e-02 0.0000000000000000e+00  3.1352396216929607e-03 5.6335027718204825e-02 0.0000000000000000e+00  3.4989404641749531e-03 4.8530863666378106e-02 0.0000000000000000e+00  3.7417014727356558e-03 4.0980429208724412e-02 0.0000000000000000e+00  3.8255243877143370e-03 3.3727878087168379e-02 0.0000000000000000e+00  3.7181043451778501e-03 2.6721675440668280e-02 0.0000000000000000e+00  3.3951885517550687e-03 1.9885905675754423e-02 0.0000000000000000e+00  2.8539576971069892e-03 1.3162444520868814e-02 0.0000000000000000e+00  2.1270433570799462e-03 6.5292576251217375e-03 0.0000000000000000e+00  1.5021256106917268e-03 -1.9501694425805112e-04 0.0000000000000000e+00  0.0000000000000000e+00 0.0000000000000000e+00 0.0000000000000000e+00  -1.7676222718352670e-05 3.9934986892401700e-02 0.0000000000000000e+00  -5.3495390424378295e-05 6.4173287560043854e-02 0.0000000000000000e+00  -1.0658372242055275e-04 7.6092529367655787e-02 0.0000000000000000e+00  -1.4001807509979213e-04 7.9262239669702972e-02 0.0000000000000000e+00  -1.4277169727977321e-04 7.6792544007128441e-02 0.0000000000000000e+00  -1.2245591132812553e-04 7.1086219004464296e-02 0.0000000000000000e+00  -1.0392233298458883e-04 6.3818219335901635e-02 0.0000000000000000e+00  -1.1846996810044656e-04 5.6035237058894079e-02 0.0000000000000000e+00  -1.9745372088827279e-04 4.8302716012856323e-02 0.0000000000000000e+00  -3.6770451677582390e-04 4.0855627149030335e-02 0.0000000000000000e+00  -6.4866842275575123e-04 3.3729365079737256e-02 0.0000000000000000e+00  -1.0498521049793789e-03 2.6860605144252137e-02 0.0000000000000000e+00  -1.5649894659640524e-03 2.0155275415795704e-02 0.0000000000000000e+00  -2.1600324918756484e-03 1.3521848157500647e-02 0.0000000000000000e+00  -2.7507798534315178e-03 6.8598556245510912e-03 0.0000000000000000e+00  -3.3023973357002041e-03 1.3717045250578755e-04 0.0000000000000000e+00  0.0000000000000000e+00 0.0000000000000000e+00 0.0000000000000000e+00  -2.3458005518030997e-04 4.0184954095047014e-02 0.0000000000000000e+00  -7.5077657010360233e-04 6.4524305444104757e-02 0.0000000000000000e+00  -1.3814547122604744e-03 7.6453385051554884e-02 0.0000000000000000e+00  -2.0352775040065807e-03 7.9583860800419085e-02 0.0000000000000000e+00  -2.6794725213831212e-03 7.7065427620688978e-02 0.0000000000000000e+00  -3.3149108831622186e-03 7.1327168882707320e-02 0.0000000000000000e+00  -3.9604746784365217e-03 6.4055857660439530e-02 0.0000000000000000e+00  -4.6378711563775229e-03 5.6298570584524435e-02 0.0000000000000000e+00  -5.3630916385797832e-03 4.8613865985104622e-02 0.0000000000000000e+00  -6.1417408361744055e-03 4.1226056165102172e-02 0.0000000000000000e+00  -6.9675823192584816e-03 3.4158240032602455e-02 0.0000000000000000e+00  -7.8228472711465817e-03 2.7333775651085961e-02 0.0000000000000000e+00  -8.6789802635948796e-03 2.0643311993150001e-02 0.0000000000000000e+00  -9.5014496299143190e-03 1.3977724077628390e-02 0.0000000000000000e+00  -1.0265037073103587e-02 7.2433445908512426e-03 0.0000000000000000e+00  -1.0948067976539659e-02 4.1005415233365532e-04 0.0000000000000000e+00  0.0000000000000000e+00 0.0000000000000000e+00 0.0000000000000000e+00  -4.5393513225738954e-04 4.0824850502775574e-02 0.0000000000000000e+00  -1.4816241963204072e-03 6.5445503551092285e-02 0.0000000000000000e+00  -2.7626828740167446e-03 7.7462801699657635e-02 0.0000000000000000e+00  -4.1368451940834187e-03 8.0595061783463637e-02 0.0000000000000000e+00  -5.5454327857790975e-03 7.8056601486035437e-02 0.0000000000000000e+00  -6.9810510225927656e-03 7.2309051632737431e-02 0.0000000000000000e+00  -8.4548893578494846e-03 6.5048267472643653e-02 0.0000000000000000e+00  -9.9752783580296465e-03 5.7315303730477489e-02 0.0000000000000000e+00  -1.1536790560164987e-02 4.9654923025058535e-02 0.0000000000000000e+00  -1.3116434141406962e-02 4.2275242366769439e-02 0.0000000000000000e+00  -1.4674941942772184e-02 3.5184587309181753e-02 0.0000000000000000e+00  -1.6162332692959913e-02 2.8296155567546468e-02 0.0000000000000000e+00  -1.7527381091047525e-02 2.1498991839956235e-02 0.0000000000000000e+00  -1.8735919013394508e-02 1.4698599490707228e-02 0.0000000000000000e+00  -1.9782331368953798e-02 7.8323208568277201e-03 0.0000000000000000e+00  -2.0714396091025461e-02 8.4755146710863312e-04 0.0000000000000000e+00  0.0000000000000000e+00 0.0000000000000000e+00 0.0000000000000000e+00  -6.6009908951051134e-04 4.1849481771305486e-02 0.0000000000000000e+00  -2.1840971806224409e-03 6.6957194306844700e-02 0.0000000000000000e+00  -4.1251125472620493e-03 7.9173613723677982e-02 0.0000000000000000e+00  -6.2643451121482006e-03 8.2380338983337464e-02 0.0000000000000000e+00  -8.5222963816268711e-03 7.9882088070665838e-02 0.0000000000000000e+00  -1.0883866137640252e-02 7.4178160388665704e-02 0.0000000000000000e+00  -1.3349814607213314e-02 6.6968031272949702e-02 0.0000000000000000e+00  -1.5908687137098098e-02 5.9277647452309269e-02 0.0000000000000000e+00  -1.8524539068609805e-02 5.1629109773965350e-02 0.0000000000000000e+00  -2.1134957072039360e-02 4.4207886109106025e-02 0.0000000000000000e+00  -2.3655714289035429e-02 3.7005151980715259e-02 0.0000000000000000e+00  -2.5991489331350287e-02 2.9927773399367346e-02 0.0000000000000000e+00  -2.8052233410426154e-02 2.2876248107283045e-02 0.0000000000000000e+00  -2.9781662417796569e-02 1.5791377151792768e-02 0.0000000000000000e+00  -3.1178243234539174e-02 8.6634677769078551e-03 0.0000000000000000e+00  -3.2349366751055590e-02 1.4585249943300700e-03 0.0000000000000000e+00  0.0000000000000000e+00 0.0000000000000000e+00 0.0000000000000000e+00  -8.4133180778644999e-04 4.3225242344375470e-02 0.0000000000000000e+00  -2.8131063214480384e-03 6.9030356498188283e-02 0.0000000000000000e+00  -5.3799678737571216e-03 8.1587901064839943e-02 0.0000000000000000e+00  -8.2928802416924411e-03 8.4987428099941781e-02 0.0000000000000000e+00  -1.1467285332415525e-02 8.2641307132484645e-02 0.0000000000000000e+00  -1.4884971230046035e-02 7.7084732396594469e-02 0.0000000000000000e+00  -1.8532335791203766e-02 7.0009859141447722e-02 0.0000000000000000e+00  -2.2368117592365570e-02 6.2414530264598776e-02 0.0000000000000000e+00  -2.6312204046618853e-02 5.4787013643718130e-02 0.0000000000000000e+00  -3.0246989778572507e-02 4.7282227028396455e-02 0.0000000000000000e+00  -3.4025420193474328e-02 3.9869744243306811e-02 0.0000000000000000e+00  -3.7484759487969373e-02 3.2450196606879825e-02 0.0000000000000000e+00  -4.0466996884401397e-02 2.4942965479407442e-02 0.0000000000000000e+00  -4.2860137330695942e-02 1.7342990161395472e-02 0.0000000000000000e+00  -4.4636696596423407e-02 9.7313937085773527e-03 0.0000000000000000e+00  -4.5967324342486071e-02 2.1523102804001226e-03 0.0000000000000000e+00  0.0000000000000000e+00 0.0000000000000000e+00 0.0000000000000000e+00  -9.8377953289082712e-04 4.4895575448766760e-02 0.0000000000000000e+00  -3.3206115307723924e-03 7.1597654132913580e-02 0.0000000000000000e+00  -6.4396204850749221e-03 8.4670312577241863e-02 0.0000000000000000e+00  -1.0105900933845726e-02 8.8441810854587286e-02 0.0000000000000000e+00  -1.4255775441596721e-02 8.6433546756279581e-02 0.0000000000000000e+00  -1.8875659625936257e-02 8.1201581149259197e-02 0.0000000000000000e+00  -2.3931439842798243e-02 7.4410544312595278e-02 0.0000000000000000e+00  -2.9337275690396038e-02 6.7011869371433469e-02 0.0000000000000000e+00  -3.4950048756568708e-02 5.9446352604504628e-02 0.0000000000000000e+00  -4.0576777062213937e-02 5.1828711757538858e-02 0.0000000000000000e+00  -4.5985253903880814e-02 4.4099634870647539e-02 0.0000000000000000e+00  -5.0917234488273490e-02 3.6147780389322481e-02 0.0000000000000000e+00  -5.5107600515011748e-02 2.7908890323772584e-02 0.0000000000000000e+00  -5.8335091106738235e-02 1.9445168557627117e-02 0.0000000000000000e+00  -6.0487186496818474e-02 1.0982994779181309e-02 0.0000000000000000e+00  -6.1775967042184556e-02 2.7375665068883064e-03 0.0000000000000000e+00  0.0000000000000000e+00 0.0000000000000000e+00 0.0000000000000000e+00  -1.0659646996734240e-03 4.6772789283312168e-02 0.0000000000000000e+00  -3.6373026016287289e-03 7.4546946039992665e-02 0.0000000000000000e+00  -7.1840303213294389e-03 8.8346281899422827e-02 0.0000000000000000e+00  -1.1547935502225180e-02 9.2748660021646695e-02 0.0000000000000000e+00  -1.6720682002839549e-02 9.1361919531084607e-02 0.0000000000000000e+00  -2.2701310494291745e-02 8.6728238254064158e-02 0.0000000000000000e+00  -2.9424379085934364e-02 8.0451833463946437e-02 0.0000000000000000e+00  -3.6738514572089619e-02 7.3413317841787895e-02 0.0000000000000000e+00  -4.4413774823567113e-02 6.5990770912460986e-02 0.0000000000000000e+00  -5.2158541881702485e-02 5.8249901985521733e-02 0.0000000000000000e+00  -5.9633079090713199e-02 5.0094419659512994e-02 0.0000000000000000e+00  -6.6458175796880986e-02 4.1384456855599203e-02 0.0000000000000000e+00  -7.2216961552286824e-02 3.2048689059965295e-02 0.0000000000000000e+00  -7.6498292153079170e-02 2.2212745297525816e-02 0.0000000000000000e+00  -7.8992782150170443e-02 1.2305822630805336e-02 0.0000000000000000e+00  -7.9857281984467926e-02 2.8557167728087388e-03 0.0000000000000000e+00  0.0000000000000000e+00 0.0000000000000000e+00 0.0000000000000000e+00  -1.0535258920856647e-03 4.8720830150226775e-02 0.0000000000000000e+00  -3.6567648756039980e-03 7.7702191215147279e-02 0.0000000000000000e+00  -7.4336613128493222e-03 9.2487285924133758e-02 0.0000000000000000e+00  -1.2386036439820333e-02 9.7881764503136695e-02 0.0000000000000000e+00  -1.8600051423538395e-02 9.7522364889753632e-02 0.0000000000000000e+00  -2.6090558000268001e-02 9.3876507756738670e-02 0.0000000000000000e+00  -3.4741734492395704e-02 8.8440331093902425e-02 0.0000000000000000e+00  -4.4308338906752009e-02 8.1993984017744798e-02 0.0000000000000000e+00  -5.4444859341071600e-02 7.4839442537083717e-02 0.0000000000000000e+00  -6.4737115772231721e-02 6.6989795397193200e-02 0.0000000000000000e+00  -7.4724814333759604e-02 5.8304044659137265e-02 0.0000000000000000e+00  -8.3894804087752017e-02 4.8589813044892079e-02 0.0000000000000000e+00  -9.1642548957350939e-02 3.7726123964577203e-02 0.0000000000000000e+00  -9.7275642511655089e-02 2.5840701226492693e-02 0.0000000000000000e+00  -1.0009654413644015e-01 1.3561138218757932e-02 0.0000000000000000e+00  -9.9958099083471127e-02 1.9322107805673976e-03 0.0000000000000000e+00  0.0000000000000000e+00 0.0000000000000000e+00 0.0000000000000000e+00  -8.9553264950339789e-04 5.0530404501968655e-02 0.0000000000000000e+00  -3.2275279875121094e-03 8.0796292829644026e-02 0.0000000000000000e+00  -6.9390251874917735e-03 9.6888339537724175e-02 0.0000000000000000e+00  -1.2294322690501529e-02 1.0376193020298430e-01 0.0000000000000000e+00  -1.9509151598014415e-02 1.0497614027060112e-01 0.0000000000000000e+00  -2.8604887918541776e-02 1.0283199789791940e-01 0.0000000000000000e+00  -3.9384679976411353e-02 9.8656151193724104e-02 0.0000000000000000e+00  -5.1473663581958817e-02 9.3096987632546493e-02 0.0000000000000000e+00  -6.4378663708290360e-02 8.6372843150760936e-02 0.0000000000000000e+00  -7.7543617975527696e-02 7.8450212290255755e-02 0.0000000000000000e+00  -9.0385517190084697e-02 6.9153078039226393e-02 0.0000000000000000e+00  -1.0226515162653595e-01 5.8231547732516598e-02 0.0000000000000000e+00  -1.1242518811377682e-01 4.5422568037794306e-02 0.0000000000000000e+00  -1.1983076443267958e-01 3.0648634130493398e-02 0.0000000000000000e+00  -1.2309356594645318e-01 1.4625041460723921e-02 0.0000000000000000e+00  -1.2124770372015908e-01 -7.8921833282258932e-04 0.0000000000000000e+00  0.0000000000000000e+00 0.0000000000000000e+00 0.0000000000000000e+00  -5.2592552481400302e-04 5.1893325732745563e-02 0.0000000000000000e+00  -2.1652613691804301e-03 8.3448818194878663e-02 0.0000000000000000e+00  -5.4079314309131935e-03 1.0124984915802179e-01 0.0000000000000000e+00  -1.0887860487269769e-02 1.1023074041071182e-01 0.0000000000000000e+00  -1.8963838600352122e-02 1.1370408591220488e-01 0.0000000000000000e+00  -2.9632788209485356e-02 1.1368380739615923e-01 0.0000000000000000e+00  -4.2574435857823056e-02 1.1125890605373419e-01 0.0000000000000000e+00  -5.7246355543968265e-02 1.0691915542697167e-01 0.0000000000000000e+00  -7.2980013297955962e-02 1.0080086925119300e-01 0.0000000000000000e+00  -8.9063006134328507e-02 9.2847620397355127e-02 0.0000000000000000e+00  -1.0478668848524790e-01 8.2889635553468941e-02 0.0000000000000000e+00  -1.1944785426749568e-01 7.0627983834650965e-02 0.0000000000000000e+00  -1.3228053791705618e-01 5.5560485666079032e-02 0.0000000000000000e+00  -1.4191850245370280e-01 3.7193340506160813e-02 0.0000000000000000e+00  -1.4613571038917178e-01 1.5861974359112695e-02 0.0000000000000000e+00  -1.4214300334904192e-01 -6.0038804469190786e-03 0.0000000000000000e+00  0.0000000000000000e+00 0.0000000000000000e+00 0.0000000000000000e+00  1.2088853792439857e-04 5.2391821508617660e-02 0.0000000000000000e+00  -3.1172258753543248e-04 8.5173796231699114e-02 0.0000000000000000e+00  -2.6113319659661089e-03 1.0518343761448985e-01 0.0000000000000000e+00  -7.8511051936215933e-03 1.1702641617144097e-01 0.0000000000000000e+00  -1.6496970540094569e-02 1.2353710606605067e-01 0.0000000000000000e+00  -2.8463239456814990e-02 1.2630873272761903e-01 0.0000000000000000e+00  -4.3261896296118582e-02 1.2613396171222094e-01 0.0000000000000000e+00  -6.0160102108588499e-02 1.2333063614250349e-01 0.0000000000000000e+00  -7.8306415626815382e-02 1.1796531034593837e-01 0.0000000000000000e+00  -9.6824937875371511e-02 1.0999200296844912e-01 0.0000000000000000e+00  -1.1488371421762322e-01 9.9303534290651585e-02 0.0000000000000000e+00  -1.3178652139461561e-01 8.5659916960634630e-02 0.0000000000000000e+00  -1.4686760204788435e-01 6.8504163742803159e-02 0.0000000000000000e+00  -1.5895927621723246e-01 4.6587583212109894e-02 0.0000000000000000e+00  -1.6554481169459845e-01 1.8183490194061964e-02 0.0000000000000000e+00  -1.6023304227966353e-01 -1.3662122198923933e-02 0.0000000000000000e+00  0.0000000000000000e+00 0.0000000000000000e+00 0.0000000000000000e+00  1.0595562917801104e-03 5.1549839610704952e-02 0.0000000000000000e+00  2.3024987765806440e-03 8.5471365971476559e-02 0.0000000000000000e+00  1.3578481800941916e-03 1.0827359305734158e-01 0.0000000000000000e+00  -3.2318407058304108e-03 1.2376721311567095e-01 0.0000000000000000e+00  -1.1925836620885628e-02 1.3404975504695690e-01 0.0000000000000000e+00  -2.4482811666549996e-02 1.4018764056640701e-01 0.0000000000000000e+00  -4.0230789110104567e-02 1.4265464080625184e-01 0.0000000000000000e+00  -5.8272705991272211e-02 1.4160833575136195e-01 0.0000000000000000e+00  -7.7618011931926231e-02 1.3706463046214651e-01 0.0000000000000000e+00  -9.7262871638413434e-02 1.2900691947196738e-01 0.0000000000000000e+00  -1.1626325525698464e-01 1.1743856655312766e-01 0.0000000000000000e+00  -1.3384113316219903e-01 1.0235388563714638e-01 0.0000000000000000e+00  -1.4945695581411672e-01 8.3395913504515556e-02 0.0000000000000000e+00  -1.6327916273818655e-01 5.8610455073148444e-02 0.0000000000000000e+00  -1.7366173601614349e-01 2.3412147876607586e-02 0.0000000000000000e+00  -1.6921726550237429e-01 -2.1631993412127133e-02 0.0000000000000000e+00  0.0000000000000000e+00 0.0000000000000000e+00 0.0000000000000000e+00  2.1071232644591341e-03 4.9027529295239514e-02 0.0000000000000000e+00  5.0728475646713237e-03 8.4069443749957187e-02 0.0000000000000000e+00  5.5505666730107329e-03 1.1020815018054916e-01 0.0000000000000000e+00  2.0037221961837675e-03 1.2991567231290527e-01 0.0000000000000000e+00  -5.8362350869514013e-03 1.4437371309414571e-01 0.0000000000000000e+00  -1.7540993127024312e-02 1.5410918240722432e-01 0.0000000000000000e+00  -3.2326431415624843e-02 1.5931991753019262e-01 0.0000000000000000e+00  -4.9256686346982853e-02 1.6004802870001855e-01 0.0000000000000000e+00  -6.7345898107632182e-02 1.5628116021260710e-01 0.0000000000000000e+00  -8.5599495748661519e-02 1.4802100459645623e-01 0.0000000000000000e+00  -1.0302752311263101e-01 1.3534335329585995e-01 0.0000000000000000e+00  -1.1865606206984676e-01 1.1844668589248614e-01 0.0000000000000000e+00  -1.3182786582148759e-01 9.7579374494333515e-02 0.0000000000000000e+00  -1.4311331338710803e-01 7.2573782125840314e-02 0.0000000000000000e+00  -1.5403532292947214e-01 3.8862709293429255e-02 0.0000000000000000e+00  -1.6335559650976908e-01 -2.0861139120201485e-02 0.0000000000000000e+00  0.0000000000000000e+00 0.0000000000000000e+00 0.0000000000000000e+00  2.4940721590961641e-03 4.5206767937431606e-02 0.0000000000000000e+00  5.9983169845157329e-03 8.1480918059714191e-02 0.0000000000000000e+00  7.1790333313701288e-03 1.1101334337985432e-01 0.0000000000000000e+00  5.0569332317392914e-03 1.3470082696186170e-01 0.0000000000000000e+00  -3.2975458617358897e-04 1.5289695848936538e-01 0.0000000000000000e+00  -8.5091807278264483e-03 1.6573283358198565e-01 0.0000000000000000e+00  -1.8834017499739425e-02 1.7324444841160541e-01 0.0000000000000000e+00  -3.0607438422203630e-02 1.7542753503407324e-01 0.0000000000000000e+00  -4.3129661121475128e-02 1.7226769203874967e-01 0.0000000000000000e+00  -5.5699813607772590e-02 1.6376302687324201e-01 0.0000000000000000e+00  -6.7572797508110100e-02 1.4995327863107252e-01 0.0000000000000000e+00  -7.7893052022448464e-02 1.3096036445339088e-01 0.0000000000000000e+00  -8.5591927169257523e-02 1.0712904696251233e-01 0.0000000000000000e+00  -8.9019719126761751e-02 7.9070063340805019e-02 0.0000000000000000e+00  -8.8901864204089409e-02 4.6394165800152064e-02 0.0000000000000000e+00  -8.0824750275046042e-02 -6.0316493848403081e-03 0.0000000000000000e+00  0.0000000000000000e+00 3.4188009056772156e-18 0.0000000000000000e+00  0.0000000000000000e+00 4.2713005512973558e-02 0.0000000000000000e+00  0.0000000000000000e+00 7.9730943624217315e-02 0.0000000000000000e+00  0.0000000000000000e+00 1.1105381433373125e-01 0.0000000000000000e+00  0.0000000000000000e+00 1.3668161764151540e-01 0.0000000000000000e+00  0.0000000000000000e+00 1.5661435354756972e-01 0.0000000000000000e+00  0.0000000000000000e+00 1.7085202205189423e-01 0.0000000000000000e+00  0.0000000000000000e+00 1.7939462315448895e-01 0.0000000000000000e+00  0.0000000000000000e+00 1.8224215685535386e-01 0.0000000000000000e+00