<?xml version="1.0"?>
<VTKFile type="UnstructuredGrid"  version="0.1"  >
<UnstructuredGrid>
<Piece  NumberOfPoints="289" NumberOfCells="512">
<Points>
<DataArray  type="Float64"  NumberOfComponents="3"  format="ascii">0 0 0  0.0625 0 0  0.125 0 0  0.1875 0 0  0.25 0 0  0.3125 0 0  0.375 0 0  0.4375 0 0  0.5 0 0  0.5625 0 0  0.625 0 0  0.6875 0 0  0.75 0 0  0.8125 0 0  0.875 0 0  0.9375 0 0  1 0 0  0 0.0625 0  0.06253012703762607 0.06249971137585827 0  0.125061078944171 0.06249941673094678 0  0.1875936718745064 0.06249911040996896 0  0.2501287003870781 0.06249878755308814 0  0.3126669174872995 0.06249844463948258 0  0.3752090039948803 0.06249808020072548 0  0.437755524819669 0.0624976957455063 0  0.5003068721564283 0.06249729690881526 0  0.5628632013079736 0.06249689476856898 0  0.6254243780730659 0.06249650706577837 0  0.6879899892564399 0.06249615830171835 0  0.7505595578185656 0.06249587442997755 0  0.8131333856617575 0.06249565303086747 0  0.8757154302397041 0.0624953204514041 0  0.9383233612884133 0.06249385732550999 0  1.001026184042493 0.06248617799342723 0  0 0.125 0  0.06255944175998783 0.1249994286218533 0  0.1251205436437505 0.124998844818706 0  0.1876849520930663 0.1249982368377526 0  0.2502542778148223 0.1249975944008786 0  0.312830059230234 0.1249969097398288 0  0.3754137035624303 0.1249961789845698 0  0.4380063992005823 0.1249954040053681 0  0.5006089960505232 0.1249945947776226 0  0.5632218577498443 0.1249937722934373 0  0.625844704267455 0.1249929720514328 0  0.6884764907082913 0.1249922485840244 0  0.7511154132821116 0.12499168414452 0  0.8137591821890351 0.124991418506024 0  0.8764055950688352 0.1249917864386082 0  0.9390521729324498 0.1249940008330354 0  1.001685518409221 0.125003608545826 0  0 0.1875 0  0.06258710873476328 0.187499158145029 0  0.1251767284740778 0.1874982967671803 0  0.1877713590734456 0.1874973972032503 0  0.250373465654143 0.1874964427054259 0  0.3129854328597881 0.1874954198543985 0  0.3756094839699685 0.1874943205250848 0  0.4382475524544852 0.1874931445826408 0  0.5009010952118483 0.1874919034484074 0  0.5635708419772721 0.1874906245890143 0  0.6262564862168299 0.1874893568345761 0  0.6889563394485216 0.1874881762282669 0  0.7516669847317775 0.1874871917249798 0  0.8143829376365523 0.1874865477067874 0  0.8770961346711292 0.187486401524093 0  0.9397944602307867 0.1874867222279839 0  1.002457567392612 0.1874859144162278 0  0 0.25 0  0.06261227701413227 0.2499989070449087 0  0.1252279292603037 0.2499977865845371 0  0.1878503345688356 0.2499966119800408 0  0.2504828600652158 0.2499953585823761 0  0.3131288195875911 0.2499940053369395 0  0.3757913832076307 0.249992537151393 0  0.4384734185504676 0.2499909483111944 0  0.5011772420119621 0.2499892472027615 0  0.5639042592360769 0.2499874624885762 0  0.6266544809769112 0.2499856505693514 0  0.6894259149520897 0.2499839034486364 0  0.7522138550975563 0.2499823544382166 0  0.8150101061027867 0.2499811749850136 0  0.8778021740810567 0.2499805456412509 0  0.9405724524102174 0.2499805675573788 0  1.003297779231851 0.2499811457522117 0  0 0.3125 0  0.06263408247794812 0.312498683303059 0  0.1252724042270517 0.3124973302240797 0  0.187919235336867 0.31249590501528 0  0.2505788895503258 0.3124943735003095 0  0.3132557027412892 0.3124927045982869 0  0.3759539531545718 0.3124908728108281 0  0.4386776942538429 0.3124888621015541 0  0.5014304641492467 0.3124866716411224 0  0.5642148301686906 0.3124843238489078 0  0.6270317275504346 0.3124818749077153 0  0.6898795650009791 0.3124794272354634 0  0.7527531086941878 0.3124771419467621 0  0.8156422372855852 0.31247524701505 0  0.8785308103119404 0.3124740355875026 0  0.9413961614721442 0.3124738607224362 0  1.004210208626505 0.3124752052801233 0  0 0.375 0  0.06265166143421426 0.3749984957915747 0  0.1253083979204072 0.3749969456597093 0  0.1879753600900155 0.3749953037985098 0  0.2506578320996583 0.3749935249548845 0  0.3133612543542694 0.3749915655052781 0  0.3760911837016716 0.374989385632718 0  0.4388531537880787 0.3749869532000233 0  0.5016523838233774 0.3749842500931079 0  0.5644932674859707 0.3749812819690105 0  0.6273785601457227 0.3749780923702108 0  0.6903081839312531 0.3749747818256194 0  0.7532776103267202 0.3749715314503462 0  0.8162759002785746 0.3749686281381866 0  0.8792837408327483 0.3749664841385526 0  0.9422722678792876 0.3749656361034782 0  1.005204065849293 0.37496668407073 0  0 0.4375 0  0.06266417873904195 0.4374983540423904 0  0.1253341953655787 0.437496652470341 0  0.1880160245184812 0.4374948389684553 0  0.2507159006290046 0.4374928560997234 0  0.3134404116609706 0.4374906454834384 0  0.3761965367632037 0.437488149064691 0  0.4389915859937923 0.437485312207245 0  0.5018329765953254 0.4374820897043126 0  0.5647277475153947 0.4374784562842167 0  0.6276816742623925 0.4374744237363551 0  0.6906978110375199 0.4374700672026859 0  0.7537742872501323 0.437465562973782 0  0.8169012871424474 0.4374612381966315 0  0.8800574586517547 0.4374576269997613 0  0.9432066731810769 0.4374555134791472 0  1.006297136197269 0.4374559144138646 0  0 0.5 0  0.06267087249918546 0.4999982677320012 0  0.1253482115994413 0.4999964708266994 0  0.1880386947873378 0.49999454285716 0  0.2507494160024416 0.4999924139877719 0  0.3134880769618185 0.4999900097634207 0  0.3762631444645121 0.4999872507349802 0  0.4390839353624292 0.4999840536725164 0  0.5019605589240212 0.4999803356630372 0  0.5649035948652293 0.4999760232504999 0  0.6279233081638274 0.4999710700477534 0  0.6910280988312822 0.4999654879468281 0  0.7542217780607962 0.4999593988921311 0  0.8174992296181015 0.4999531150560227 0  0.8808402481869437 0.4999472520035059 0  0.9442022067311142 0.4999428641019433 0  1.007514174132287 0.4999415475104046 0  0 0.5625 0  0.06267111521261867 0.5624982458645187 0  0.1253491174141521 0.5624964198257062 0  0.1880411839011089 0.5624944469323577 0  0.2507550802558191 0.5624922461164895 0  0.3134994692862045 0.5624897271622082 0  0.376284226874831 0.5624867879269746 0  0.439120743191493 0.5624833123662732 0  0.5020221537333461 0.5624791705445056 0  0.5650033806780758 0.5624742229596846 0  0.6280807502048582 0.5624683334962109 0  0.6912707581722483 0.5624613985952251 0  0.7545872632055078 0.5624534052824685 0  0.8180360239754721 0.5624445377399666 0  0.8816052749380278 0.5624353599581123 0  0.9452515921135284 0.5624271024588676 0  1.008883038531942 0.5624220267904015 0  0 0.625 0  0.06266448787575439 0.6249982956848222 0  0.1253359952785603 0.6249965152158576 0  0.1880219046670088 0.624994578143472 0  0.2507303483812939 0.6249923951443588 0  0.3134706401204724 0.6249898629432755 0  0.3762537717776084 0.6249868585643371 0  0.4390929876857868 0.6249832329614945 0  0.5020044256167718 0.6249788045786792 0  0.5650077582758155 0.6249733544862672 0  0.6281266441602747 0.624966626989987 0  0.6913885345939466 0.6249583439699645 0  0.7548228714899684 0.6249482492680952 0  0.8184558032514863 0.6249362140582647 0  0.8822982041618377 0.6249224625398708 0  0.9463225771703909 0.6249080465698806 0  1.010425830228489 0.624895926029721 0  0 0.6875 0  0.062650859355738 0.6874984214224736 0  0.125308510218074 0.687496766704685 0  0.187980157475662 0.6874949544207984 0  0.2506738735156178 0.6874928920053599 0  0.3133991329940721 0.6874904687753571 0  0.3761674799528028 0.687487547138966 0  0.4389933878162248 0.687483951242541 0  0.5018953797968031 0.6874794523651112 0  0.5648974666636667 0.6874737508465671 0  0.628030892329797 0.6874664558624962 0  0.6913359611131191 0.6874570681586066 0  0.7548631366904671 0.6874449789134933 0  0.8186711930128664 0.6874295124414389 0  0.8828171423244383 0.6874100617626518 0  0.9473270590734769 0.6873863894672321 0  1.012129864273974 0.6873591892777001 0  0 0.75 0  0.06263045891617075 0.7499986230462031 0  0.1252670702978236 0.749997175219101 0  0.1879164124326399 0.7499955799029141 0  0.2505859685538621 0.7499937481910428 0  0.3132847155419243 0.749991570664591 0  0.376023902772914 0.749988906273488 0  0.4388181336146962 0.7499855666297875 0  0.5016869138025091 0.7499812933339224 0  0.5646569044365495 0.7499757251491403 0  0.6277652047461203 0.7499683513443171 0  0.6910640389471553 0.7499584485994545 0  0.7546270345393685 0.749945004201121 0  0.8185562194574447 0.7499266407445312 0  0.882985093806098 0.7499015689827975 0  0.9480620898948402 0.749867548489018 0  1.013872946515737 0.7498215988010387 0  0 0.8125 0  0.0626039265047942 0.812498895276879 0  0.1252129430839503 0.812497730656138 0  0.1878325280946765 0.8124964408027858 0  0.2504689933109642 0.8124949486021965 0  0.3131300489762284 0.8124931568769871 0  0.3758255846891664 0.8124909365858006 0  0.4385688131613685 0.8124881090555408 0  0.5013780179846782 0.8124844182477029 0  0.5642793139108679 0.8124794864754891 0  0.62731112532421 0.8124727430277665 0  0.6905316093046825 0.8124633102960344 0  0.7540311154726046 0.812449830269275 0  0.817952972663375 0.8124302290475238 0  0.8825263127324056 0.8124014622730599 0  0.9481072605440531 0.8123591666116069 0  1.015175362613782 0.8122949272123402 0  0 0.875 0  0.06257232496456325 0.8749992271335055 0  0.1251482920603774 0.8749984107453614 0  0.1877318407851027 0.8749975030404539 0  0.2503275535320669 0.87499644688151 0  0.3129411044999841 0.874995168974005 0  0.3755798992775957 0.8749935697760746 0  0.4382540467500972 0.8749915075609921 0  0.5009779117091786 0.8749887719808039 0  0.5637727056313616 0.8749850383609308 0  0.6266709968420624 0.8749797857487013 0  0.6897249177642055 0.8749721458646499 0  0.7530218421747668 0.8749606237173039 0  0.8167160270311891 0.8749426150407819 0  0.8810968166465802 0.8749138373376439 0  0.9467488026527945 0.8748694289315425 0  1.014978655381205 0.8748185452242367 0  0 0.9375 0  0.06253710221129613 0.9374996022414802 0  0.1250761043723504 0.9374991815685886 0  0.1876190678182996 0.9374987127114037 0  0.2501684042986894 0.9374981652213352 0  0.3127271249411828 0.9374974996052833 0  0.3752992013143096 0.9374966614585573 0  0.4378901258797433 0.9374955718906863 0  0.
[...]
<PointData  Vectors="f_95-0"> 
<DataArray  type="Float64"  Name="f_95-0"  NumberOfComponents="3" format="ascii">0.0000000000000000e+00 0.0000000000000000e+00 0.0000000000000000e+00  6.2999836754536805e-04 -3.3588605427263420e-02 0.0000000000000000e+00  1.7997625552367026e-03 -6.1202492491287230e-02 0.0000000000000000e+00  3.1838805184917522e-03 -7.8288242951134748e-02 0.0000000000000000e+00  4.7407497855479642e-03 -8.6180507272993964e-02 0.0000000000000000e+00  6.3962604638780054e-03 -8.7909180056088485e-02 0.0000000000000000e+00  8.1002031759516008e-03 -8.5976456680862054e-02 0.0000000000000000e+00  9.8122424869689258e-03 -8.1858425657452411e-02 0.0000000000000000e+00  1.1494574879544884e-02 -7.6277300531461131e-02 0.0000000000000000e+00  1.3106393800639391e-02 -6.9558018031441182e-02 0.0000000000000000e+00  1.4599962899913556e-02 -6.1861280482556763e-02 0.0000000000000000e+00  1.5916451203578295e-02 -5.3301605340255319e-02 0.0000000000000000e+00  1.6982330720863640e-02 -4.4002178365401247e-02 0.0000000000000000e+00  1.7680885736443667e-02 -3.4103124710177894e-02 0.0000000000000000e+00  1.7862188696292483e-02 -2.3821504766699940e-02 0.0000000000000000e+00  1.7741718941071054e-02 -1.3265461741878086e-02 0.0000000000000000e+00  8.4496443407567484e-03 -7.6674026725488667e-03 0.0000000000000000e+00  0.0000000000000000e+00 0.0000000000000000e+00 0.0000000000000000e+00  5.6040109534943590e-04 -3.4655670110100699e-02 0.0000000000000000e+00  1.8008455305252090e-03 -6.2558829137801711e-02 0.0000000000000000e+00  3.3534544484113559e-03 -7.9839794876476938e-02 0.0000000000000000e+00  5.1081546638436877e-03 -8.7855581447140882e-02 0.0000000000000000e+00  6.9711648869128992e-03 -8.9654625378767144e-02 0.0000000000000000e+00  8.8880420005837714e-03 -8.7747721184735464e-02 0.0000000000000000e+00  1.0815145503551348e-02 -8.3614638902045318e-02 0.0000000000000000e+00  1.2712099133243735e-02 -7.7976415474060007e-02 0.0000000000000000e+00  1.4534824826243650e-02 -7.1152872196439135e-02 0.0000000000000000e+00  1.6231921288624329e-02 -6.3296420918953059e-02 0.0000000000000000e+00  1.7742315404375156e-02 -5.4509497186186549e-02 0.0000000000000000e+00  1.8990488741203328e-02 -4.4893695109269438e-02 0.0000000000000000e+00  1.9879241201503178e-02 -3.4565921724777682e-02 0.0000000000000000e+00  2.0327594586123252e-02 -2.3655053332699738e-02 0.0000000000000000e+00  1.9844248313632309e-02 -1.2172708075371361e-02 0.0000000000000000e+00  2.0122278793951755e-02 -1.7990717866037823e-03 0.0000000000000000e+00  0.0000000000000000e+00 0.0000000000000000e+00 0.0000000000000000e+00  5.5852478389848727e-04 -3.5683529801583611e-02 0.0000000000000000e+00  1.9972515700213155e-03 -6.4152201831204486e-02 0.0000000000000000e+00  3.9560894063898223e-03 -8.1741156132512816e-02 0.0000000000000000e+00  6.2116192875998153e-03 -8.9923929807728745e-02 0.0000000000000000e+00  8.6224597803790399e-03 -9.1806644106667654e-02 0.0000000000000000e+00  1.1110993857605814e-02 -8.9929107235139916e-02 0.0000000000000000e+00  1.3621988819049689e-02 -8.5780971216415147e-02 0.0000000000000000e+00  1.6106317148096141e-02 -8.0081411728070401e-02 0.0000000000000000e+00  1.8509824894745772e-02 -7.3143176106629335e-02 0.0000000000000000e+00  2.0770116964322568e-02 -6.5109910401152535e-02 0.0000000000000000e+00  2.2816561664837802e-02 -5.6074723378491440e-02 0.0000000000000000e+00  2.4572734239116021e-02 -4.6130043563158862e-02 0.0000000000000000e+00  2.5965707859985445e-02 -3.5385930285861962e-02 0.0000000000000000e+00  2.6923944011132669e-02 -2.3973937688479597e-02 0.0000000000000000e+00  2.7564072490822926e-02 -1.2133129515994601e-02 0.0000000000000000e+00  2.7788332900000802e-02 -6.0244346352220297e-04 0.0000000000000000e+00  0.0000000000000000e+00 0.0000000000000000e+00 0.0000000000000000e+00  6.6235279563871209e-04 -3.6854296732132391e-02 0.0000000000000000e+00  2.4357072939464519e-03 -6.6133216897457728e-02 0.0000000000000000e+00  4.9471948001413657e-03 -8.4195080131747591e-02 0.0000000000000000e+00  7.8885698864658068e-03 -9.2632181254483512e-02 0.0000000000000000e+00  1.1065909509242397e-02 -9.4644639641717945e-02 0.0000000000000000e+00  1.4369151954559355e-02 -9.2823540652085548e-02 0.0000000000000000e+00  1.7725594116192237e-02 -8.8675073258843398e-02 0.0000000000000000e+00  2.1070841462243795e-02 -8.2916187842333108e-02 0.0000000000000000e+00  2.4333439821562938e-02 -7.5850483202668600e-02 0.0000000000000000e+00  2.7431503908203099e-02 -6.7612210737247061e-02 0.0000000000000000e+00  3.0275313159988756e-02 -5.8288646090536064e-02 0.0000000000000000e+00  3.2774542797118215e-02 -4.7973673134368316e-02 0.0000000000000000e+00  3.4848655965428868e-02 -3.6792669112542649e-02 0.0000000000000000e+00  3.6455668047685810e-02 -2.4930952971723801e-02 0.0000000000000000e+00  3.7573726060746673e-02 -1.2668573449547296e-02 0.0000000000000000e+00  3.8167583751379873e-02 -4.8857553288451092e-04 0.0000000000000000e+00  0.0000000000000000e+00 0.0000000000000000e+00 0.0000000000000000e+00  8.1619618899559786e-04 -3.8288330578920365e-02 0.0000000000000000e+00  3.0143486408197961e-03 -6.8616421550228415e-02 0.0000000000000000e+00  6.1614193364769275e-03 -8.7327015209515593e-02 0.0000000000000000e+00  9.8859097659838389e-03 -9.6131011707902378e-02 0.0000000000000000e+00  1.3949652937611266e-02 -9.8347152441306984e-02 0.0000000000000000e+00  1.8214395286361321e-02 -9.6633915833354858e-02 0.0000000000000000e+00  2.2588091508617607e-02 -9.2518871765643884e-02 0.0000000000000000e+00  2.6985819703248915e-02 -8.6715053468137085e-02 0.0000000000000000e+00  3.1311422941494194e-02 -7.9513292832275526e-02 0.0000000000000000e+00  3.5454004952578048e-02 -7.1036040919275067e-02 0.0000000000000000e+00  3.9292374926611411e-02 -6.1365185537504356e-02 0.0000000000000000e+00  4.2703834716236837e-02 -5.0599535587370972e-02 0.0000000000000000e+00  4.5576225351598158e-02 -3.8884177318323339e-02 0.0000000000000000e+00  4.7816085945711247e-02 -2.6434178487837558e-02 0.0000000000000000e+00  4.9344660521798624e-02 -1.3559685792129204e-02 0.0000000000000000e+00  5.0099868542511215e-02 -6.1470848847456705e-04 0.0000000000000000e+00  0.0000000000000000e+00 0.0000000000000000e+00 0.0000000000000000e+00  9.8528591873427098e-04 -4.0035115352202409e-02 0.0000000000000000e+00  3.6335522245931509e-03 -7.1653604884539673e-02 0.0000000000000000e+00  7.4378268248824911e-03 -9.1190215065317229e-02 0.0000000000000000e+00  1.1976417969512591e-02 -1.0049146975273740e-01 0.0000000000000000e+00  1.6981210618343349e-02 -1.0301259389815225e-01 0.0000000000000000e+00  2.2294855184949624e-02 -1.0148831203229257e-01 0.0000000000000000e+00  2.7806395425060020e-02 -9.7467261979620773e-02 0.0000000000000000e+00  3.3405642565098953e-02 -9.1653194174209626e-02 0.0000000000000000e+00  3.8963429069916969e-02 -8.4318023211998466e-02 0.0000000000000000e+00  4.4329101902466930e-02 -7.5567662765614302e-02 0.0000000000000000e+00  4.9336858830499632e-02 -6.5475725119122724e-02 0.0000000000000000e+00  5.3815893148318500e-02 -5.4143832643565905e-02 0.0000000000000000e+00  5.7601404482823255e-02 -4.1731293599227649e-02 0.0000000000000000e+00  6.0544810477684965e-02 -2.8476227550999281e-02 0.0000000000000000e+00  6.2524910274637718e-02 -1.4705454629665002e-02 0.0000000000000000e+00  6.3471845580142655e-02 -8.3022868396785937e-04 0.0000000000000000e+00  0.0000000000000000e+00 0.0000000000000000e+00 0.0000000000000000e+00  1.1457054109432270e-03 -4.2097198259825552e-02 0.0000000000000000e+00  4.2169867729763728e-03 -7.5238136369138939e-02 0.0000000000000000e+00  8.6435502063115233e-03 -9.5779375552722271e-02 0.0000000000000000e+00  1.3975440200076019e-02 -1.0572890391025169e-01 0.0000000000000000e+00  1.9934893695562068e-02 -1.0869117915201863e-01 0.0000000000000000e+00  2.6356213335928410e-02 -1.0747686173933407e-01 0.0000000000000000e+00  3.3110057996782308e-02 -1.0364741427857561e-01 0.0000000000000000e+00  4.0054517497890359e-02 -9.7886946823268289e-02 0.0000000000000000e+00  4.7016848950430776e-02 -9.0439501399175448e-02 0.0000000000000000e+00  5.3794178356668859e-02 -8.1387964958009346e-02 0.0000000000000000e+00  6.0162788898262438e-02 -7.0793119507082503e-02 0.0000000000000000e+00  6.5889946680591935e-02 -5.8755595597563104e-02 0.0000000000000000e+00  7.0746542582427130e-02 -4.5446563070232267e-02 0.0000000000000000e+00  7.4522866572979823e-02 -3.1130495902218898e-02 0.0000000000000000e+00  7.7053341647665377e-02 -1.6186212046215464e-02 0.0000000000000000e+00  7.8254625577854550e-02 -1.1176356826296497e-03 0.0000000000000000e+00  0.0000000000000000e+00 0.0000000000000000e+00 0.0000000000000000e+00  1.2766787535031391e-03 -4.4436547468870151e-02 0.0000000000000000e+00  4.6935692848299520e-03 -7.9306595548176137e-02 0.0000000000000000e+00  9.6497431948575178e-03 -1.0103483427555209e-01 0.0000000000000000e+00  1.5706361384009607e-02 -1.1181655459025022e-01 0.0000000000000000e+00  2.2604736292134768e-02 -1.1540715401381668e-01 0.0000000000000000e+00  3.0182866388239808e-02 -1.1467956591369662e-01 0.0000000000000000e+00  3.8291016986549548e-02 -1.1118975883548878e-01 0.0000000000000000e+00  4.6744867981969501e-02 -1.0558614852763236e-01 0.0000000000000000e+00  5.5313568285459289e-02 -9.8073583537850645e-02 0.0000000000000000e+00  6.3726996609103595e-02 -8.8704865800647875e-02 0.0000000000000000e+00  7.1689406627382893e-02 -7.7523403687883949e-02 0.0000000000000000e+00  7.8893106373729566e-02 -6.4625803522624051e-02 0.0000000000000000e+00  8.5032094631733793e-02 -5.0194633869249571e-02 0.0000000000000000e+00  8.9822475804413521e-02 -3.4529505908582774e-02 0.0000000000000000e+00  9.3038189424515041e-02 -1.8084829948052945e-02 0.0000000000000000e+00  9.4568628766271839e-02 -1.4952003752936177e-03 0.0000000000000000e+00  0.0000000000000000e+00 0.0000000000000000e+00 0.0000000000000000e+00  1.3520259132570715e-03 -4.6972492105152565e-02 0.0000000000000000e+00  4.9745788270951514e-03 -8.3732598410402106e-02 0.0000000000000000e+00  1.0297726754017951e-02 -1.0683825727873658e-01 0.0000000000000000e+00  1.6956778280369612e-02 -1.1868837292209000e-01 0.0000000000000000e+00  2.4751103129978337e-02 -1.2316929645812916e-01 0.0000000000000000e+00  3.3534099721811199e-02 -1.2318240204245905e-01 0.0000000000000000e+00  4.3127853463675432e-02 -1.2024689907881311e-01 0.0000000000000000e+00  5.3287982273585284e-02 -1.1495359704314188e-01 0.0000000000000000e+00  6.3705389156487421e-02 -1.0745578541231930e-01 0.0000000000000000e+00  7.4024423528432221e-02 -9.7770629726348521e-02 0.0000000000000000e+00  8.3862010444662835e-02 -8.5922279268847809e-02 0.0000000000000000e+00  9.2823468782408700e-02 -7.2001398749488341e-02 0.0000000000000000e+00  1.0051265571278581e-01 -5.6198113325390521e-02 0.0000000000000000e+00  1.0655173287880781e-01 -3.8849460032861070e-02 0.0000000000000000e+00  1.1062520428136695e-01 -2.0509297241112365e-02 0.0000000000000000e+00  1.1258241533882797e-01 -1.9935527898580470e-03 0.0000000000000000e+00  0.0000000000000000e+00 0.0000000000000000e+00 0.0000000000000000e+00  1.3334698743629229e-03 -4.9565956358385489e-02 0.0000000000000000e+00  4.9359522992504642e-03 -8.8307534050160286e-02 0.0000000000000000e+00  1.0373010996594618e-02 -1.1299886625913863e-01 0.0000000000000000e+00  1.7446067558763146e-02 -1.2623361813632061e-01 0.0000000000000000e+00  2.6060231137168040e-02 -1.3197206740179446e-01 0.0000000000000000e+00  3.6091247973020310e-02 -1.3308133137237502e-01 0.0000000000000000e+00  4.7315428288583199e-02 -1.3099722991383031e-01 0.0000000000000000e+00  5.9401511052270956e-02 -1.2622640059337084e-01 0.0000000000000000e+00  7.1935899108638415e-02 -1.1885978475514852e-01 0.0000000000000000e+00  8.4455798233627505e-02 -1.0887813123895418e-01 0.0000000000000000e+00  9.6476190344499002e-02 -9.6289082553621286e-02 0.0000000000000000e+00  1.0750858982655816e-01 -8.1175275588678111e-02 0.0000000000000000e+00  1.1705562945624598e-01 -6.3725866096719888e-02 0.0000000000000000e+00  1.2462434261493154e-01 -4.4308096292828773e-02 0.0000000000000000e+00  1.2976157400962787e-01 -2.3590276207788287e-02 0.0000000000000000e+00  1.3225634393279451e-01 -2.6382097496335665e-03 0.0000000000000000e+00  0.0000000000000000e+00 0.0000000000000000e+00 0.0000000000000000e+00  1.1689708218798327e-03 -5.1996449311750022e-02 0.0000000000000000e+00  4.4172198612632248e-03 -9.2717004225670446e-02 0.0000000000000000e+00  9.6075451808262761e-03 -1.1923706378138330e-01 0.0000000000000000e+00  1.6826265414923089e-02 -1.3428536601125485e-01 0.0000000000000000e+00  2.6132297022742092e-02 -1.4178303102366774e-01 0.0000000000000000e+00  3.7418829275508637e-02 -1.4446361873794389e-01 0.0000000000000000e+00  5.0386103915677626e-02 -1.4361799881432946e-01 0.0000000000000000e+00  6.4581195200995353e-02 -1.3964110216410786e-01 0.0000000000000000e+00  7.9456502670017901e-02 -1.3255621591226832e-01 0.0000000000000000e+00  9.4420481768667519e-02 -1.2231463528426091e-01 0.0000000000000000e+00  1.0887665163949509e-01 -1.0891850589793355e-01 0.0000000000000000e+00  1.2224098706275681e-01 -9.2451300772014730e-02 0.0000000000000000e+00  1.3391848778088392e-01 -7.3092185857703135e-02 0.0000000000000000e+00  1.4330043301823742e-01 -5.1183924206853845e-02 0.0000000000000000e+00  1.4970874352373911e-01 -2.7477784389085127e-02 0.0000000000000000e+00  1.5281905403366386e-01 -3.3983136897470299e-03 0.0000000000000000e+00  0.0000000000000000e+00 0.0000000000000000e+00 0.0000000000000000e+00  8.0690424479110850e-04 -5.3949195717266106e-02 0.0000000000000000e+00  3.2684178047710987e-03 -9.6534408865515120e-02 0.0000000000000000e+00  7.7559598458161166e-03 -1.2517813584431767e-01 0.0000000000000000e+00  1.4762941428289662e-02 -1.4260050306297048e-01 0.0000000000000000e+00  2.4533174497930285e-02 -1.5249875124724352e-01 0.0000000000000000e+00  3.6954521601600003e-02 -1.5733635366995080e-01 0.0000000000000000e+00  5.1612263770198723e-02 -1.5818955571712237e-01 0.0000000000000000e+00  6.7899183739867919e-02 -1.5532047130489743e-01 0.0000000000000000e+00  8.5112525513256418e-02 -1.4868921221141715e-01 0.0000000000000000e+00  1.0252117998669785e-01 -1.3823323511347521e-01 0.0000000000000000e+00  1.1941359341018816e-01 -1.2397159460457233e-01 0.0000000000000000e+00  1.3511277971094490e-01 -1.0601036200994539e-01 0.0000000000000000e+00  1.4897696835232266e-01 -8.4492011911518047e-02 0.0000000000000000e+00  1.6030378206030885e-01 -5.9634891829602361e-02 0.0000000000000000e+00  1.6807645376450014e-01 -3.2196938921424084e-02 0.0000000000000000e+00  1.7168683636800311e-01 -4.0292563161247073e-03 0.0000000000000000e+00  0.0000000000000000e+00 0.0000000000000000e+00 0.0000000000000000e+00  2.4763089614650378e-04 -5.5055813332385024e-02 0.0000000000000000e+00  1.4975884525832259e-03 -9.9276791972100792e-02 0.0000000000000000e+00  4.8133892831975517e-03 -1.3037670015308175e-01 0.0000000000000000e+00  1.1162546633806099e-02 -1.5082213793170901e-01 0.0000000000000000e+00  2.0966857866695394e-02 -1.6383549289402821e-01 0.0000000000000000e+00  3.4073444106397142e-02 -1.7145157534232755e-01 0.0000000000000000e+00  4.9925050021769037e-02 -1.7447048948930013e-01 0.0000000000000000e+00  6.7755325546666287e-02 -1.7301775531808683e-01 0.0000000000000000e+00  8.6719838760089818e-02 -1.6700699393551410e-01 0.0000000000000000e+00  1.0596813562225980e-01 -1.5638094416357728e-01 0.0000000000000000e+00  1.2468074158068758e-01 -1.4120067016455384e-01 0.0000000000000000e+00  1.4210177764884754e-01 -1.2163255325748312e-01 0.0000000000000000e+00  1.5759652663652851e-01 -9.7832573652617286e-02 0.0000000000000000e+00  1.7041172807589675e-01 -6.9866360890920645e-02 0.0000000000000000e+00  1.7939116817356374e-01 -3.8000126805235616e-02 0.0000000000000000e+00  1.8293480009024968e-01 -3.6979567252948186e-03 0.0000000000000000e+00  0.0000000000000000e+00 0.0000000000000000e+00 0.0000000000000000e+00  -3.5501793976085600e-04 -5.5062334774332922e-02 0.0000000000000000e+00  -4.6954022920422223e-04 -1.0058179419456169e-01 0.0000000000000000e+00  1.3727786474981060e-03 -1.3439113955070350e-01 0.0000000000000000e+00  6.5430697988047787e-03 -1.5841492252985725e-01 0.0000000000000000e+00  1.5592076567973106e-02 -1.7512960743572115e-01 0.0000000000000000e+00  2.8304695848307644e-02 -1.8599664338644908e-01 0.0000000000000000e+00  4.4003964198718507e-02 -1.9151135679228262e-01 0.0000000000000000e+00  6.1827334951557518e-02 -1.9168727730303919e-01 0.0000000000000000e+00  8.0873490248970475e-02 -1.8642010646924759e-01 0.0000000000000000e+00  1.0025392058248121e-01 -1.7567031055725355e-01 0.0000000000000000e+00  1.1909029383699445e-01 -1.5954040340653466e-01 0.0000000000000000e+00  1.3656155620247032e-01 -1.3827292892806831e-01 0.0000000000000000e+00  1.5195162615346713e-01 -1.1213266752045453e-01 0.0000000000000000e+00  1.6465601003903851e-01 -8.0988414413198942e-02 0.0000000000000000e+00  1.7407645571750782e-01 -4.3768459259753402e-02 0.0000000000000000e+00  1.7631020000743330e-01 -7.3650096011992862e-04 0.0000000000000000e+00  0.0000000000000000e+00 0.0000000000000000e+00 0.0000000000000000e+00  -6.1986123461956833e-04 -5.4173385335080933e-02 0.0000000000000000e+00  -1.6330483354727115e-03 -1.0048885218376773e-01 0.0000000000000000e+00  -1.1880924705414356e-03 -1.3689882757741478e-01 0.0000000000000000e+00  2.2648151040338634e-03 -1.6460599392898589e-01 0.0000000000000000e+00  9.3287443489138977e-03 -1.8512425959489953e-01 0.0000000000000000e+00  1.9751776264160494e-02 -1.9926631267454967e-01 0.0000000000000000e+00  3.2851319607691387e-02 -2.0725309269672040e-01 0.0000000000000000e+00  4.7829624719781277e-02 -2.0904228125995952e-01 0.0000000000000000e+00  6.3902519869015212e-02 -2.0454782348650810e-01 0.0000000000000000e+00  8.0308387146830931e-02 -1.9374494029285994e-01 0.0000000000000000e+00  9.6255023316576260e-02 -1.7672390575077393e-01 0.0000000000000000e+00  1.1090310148810952e-01 -1.5373442552920566e-01 0.0000000000000000e+00  1.2326201002481334e-01 -1.2522075752369000e-01 0.0000000000000000e+00  1.3276769788573650e-01 -9.1484832742568842e-02 0.0000000000000000e+00  1.3953825089062177e-01 -5.1072815491659096e-02 0.0000000000000000e+00  1.3965875021220428e-01 6.5341849492157556e-03 0.0000000000000000e+00  0.0000000000000000e+00 0.0000000000000000e+00 0.0000000000000000e+00  -1.5952293299496766e-04 -5.3220528740549805e-02 0.0000000000000000e+00  -1.0460644607823532e-03 -9.9578941872829063e-02 0.0000000000000000e+00  -1.4499884744070808e-03 -1.3785428325505344e-01 0.0000000000000000e+00  -2.1266523773960394e-05 -1.6850478679389591e-01 0.0000000000000000e+00  3.7236552017943306e-03 -1.9204784857832069e-01 0.0000000000000000e+00  9.5731345340705990e-03 -2.0873227551786244e-01 0.0000000000000000e+00  1.7051839292483998e-02 -2.1860640666880368e-01 0.0000000000000000e+00  2.5660549530369833e-02 -2.2164001892982213e-01 0.0000000000000000e+00  3.4946373985750429e-02 -2.1779511071657209e-01 0.0000000000000000e+00  4.4481587186075873e-02 -2.0705637706026492e-01 0.0000000000000000e+00  5.3800191313877484e-02 -1.8944732657978139e-01 0.0000000000000000e+00  6.2288889781499303e-02 -1.6506839545825788e-01 0.0000000000000000e+00  6.8929074289708764e-02 -1.3413219583670805e-01 0.0000000000000000e+00  7.2566174250871432e-02 -9.6908922499954725e-02 0.0000000000000000e+00  7.0681557586083771e-02 -5.4297155107128556e-02 0.0000000000000000e+00  6.8880090247764522e-02 1.0408080748346845e-02 0.0000000000000000e+00  0.0000000000000000e+00 3.4192540885517941e-18 0.0000000000000000e+00  0.0000000000000000e+00 -5.3017210105430819e-02 0.0000000000000000e+00  0.0000000000000000e+00 -9.8965458863470884e-02 0.0000000000000000e+00  0.0000000000000000e+00 -1.3784474627412016e-01 0.0000000000000000e+00  0.0000000000000000e+00 -1.6965507233737864e-01 0.0000000000000000e+00  0.0000000000000000e+00 -1.9439643705324636e-01 0.0000000000000000e+00  0.0000000000000000e+00 -2.1206884042172328e-01 0.0000000000000000e+00  0.0000000000000000e+00 -2.2267228244280945e-01 0.0000000000000000e+00  0.0000000000000000