<?xml version="1.0"?>
<VTKFile type="UnstructuredGrid"  version="0.1"  >
<UnstructuredGrid>
<Piece  NumberOfPoints="289" NumberOfCells="512">
<Points>
<DataArray  type="Float64"  NumberOfComponents="3"  format="ascii">0 0 0  0.0625 0 0  0.125 0 0  0.1875 0 0  0.25 0 0  0.3125 0 0  0.375 0 0  0.4375 0 0  0.5 0 0  0.5625 0 0  0.625 0 0  0.6875 0 0  0.75 0 0  0.8125 0 0  0.875 0 0  0.9375 0 0  1 0 0  0 0.0625 0  0.06254048408314622 0.0624935092242069 0  0.125081910088688 0.06248690016596113 0  0.1876251837804091 0.06248006497089539 0  0.2501711143154223 0.06247291944416745 0  0.3127203401200543 0.06246541851773883 0  0.3752732208880113 0.0624575756568015 0  0.4378296799541994 0.06244948641333807 0  0.5003889762256617 0.06244135464689763 0  0.562949374792911 0.06243351679447846 0  0.6255076612277842 0.06242645426051831 0  0.6880583775730468 0.06242077598334922 0  0.750592451591518 0.06241714328473986 0  0.8130941943358457 0.06241610269053884 0  0.875533059184193 0.0624178121942127 0  0.9378360366118405 0.06242181929743279 0  0.9997797409130156 0.06242881675312198 0  0 0.125 0  0.06258002811904939 0.1249871364435797 0  0.1251619895029692 0.1249740250948907 0  0.18774775640651 0.1249604375457687 0  0.2503390329055149 0.1249461897921465 0  0.312937222732075 0.1249311721498965 0  0.3755432343434912 0.1249153879101435 0  0.4381571953509942 0.1248990020485059 0  0.500778042322619 0.1248823985404231 0  0.5634029429519891 0.1248662393254195 0  0.6260264910047374 0.1248515079864956 0  0.6886395760061795 0.1248395048963028 0  0.7512277301922704 0.1248317377349583 0  0.8137685060331638 0.1248296302224439 0  0.8762269563551274 0.1248339912606968 0  0.9385485452755169 0.1248443547941133 0  1.000661020161119 0.1248584534720165 0  0 0.1875 0  0.06261764090085428 0.1874810118604897 0  0.1252382873888161 0.187461625622716 0  0.1878648786142692 0.1874414684679319 0  0.2505001570585878 0.187420226534834 0  0.3131465048918577 0.1873976867555446 0  0.37580569487347 0.1873737935122652 0  0.4384785184308382 0.1873487241091994 0  0.5011642477127084 0.1873229844728593 0  0.5638598839932095 0.1872975203772595 0  0.6265591444755908 0.1872738267196038 0  0.689251147327843 0.187254012600507 0  0.7519187796402351 0.187240733334267 0  0.8145368135522633 0.1872368095278171 0  0.8770701727128282 0.187244149335807 0  0.9394742705705681 0.1872610271619405 0  1.001705218533313 0.1872750488582038 0  0 0.25 0  0.06265225355613392 0.2499752863914203 0  0.1253086770645818 0.2499499971891248 0  0.1879733941165818 0.2499235831776621 0  0.2506503603044 0.2498955586930043 0  0.3133432030264142 0.2498655505585106 0  0.3760549602494666 0.2498333688394316 0  0.4387876724346756 0.2497991078762604 0  0.5015417740523218 0.249763285515316 0  0.5643152264216635 0.2497270249019834 0  0.6271023383288662 0.249692272950969 0  0.6898922465946147 0.2496620257596124 0  0.7526670980386406 0.2496404813191608 0  0.8154001387779303 0.2496329428940686 0  0.8780543136057133 0.2496451253428776 0  0.9405829418692258 0.249681287806486 0  1.002935895052836 0.2497406844053991 0  0 0.3125 0  0.0626827060343579 0.3124701379688804 0  0.1253708222012128 0.3124394942374528 0  0.1880697613234764 0.3124073080757411 0  0.2507848631474438 0.3123728729999691 0  0.313521278941448 0.3123355849575453 0  0.3762837487080538 0.3122950188406844 0  0.4390762178995244 0.3122510474407663 0  0.5019012271840375 0.3122040204237013 0  0.5647589959775918 0.312155023682353 0  0.627646113957923 0.3121062385930291 0  0.690553765971671 0.3120614098643695 0  0.7534654666336975 0.3120263970496245 0  0.816354416684959 0.3120097061484811 0  0.8791809117442128 0.3120227445126476 0  0.9418909276694035 0.3120793014372011 0  1.004418295419996 0.3121934843785438 0  0 0.375 0  0.06270776099996291 0.3749657728715709 0  0.1254222003285381 0.3749305346438085 0  0.1881500772374068 0.3748932819848207 0  0.2508982416413225 0.3748530393552491 0  0.3136736087525824 0.3748088953613711 0  0.3764830331439267 0.3747600710732626 0  0.4393330254563907 0.3747060396778629 0  0.5022292337683767 0.3746467255965125 0  0.5651755850631539 0.3745828233367343 0  0.6281729527195398 0.3745162914200382 0  0.6912171901495173 0.3744510913879567 0  0.7542963639421925 0.3743942454353514 0  0.8173870654400603 0.3743572518579104 0  0.8804498447140331 0.3743577686306545 0  0.9434242037300062 0.3744211517415384 0  1.006224275200076 0.3745807697827351 0  0 0.4375 0  0.0627261501865692 0.4374624203348313 0  0.12546019456404 0.4374235902738437 0  0.188210211784545 0.4373822458918837 0  0.2509845975118024 0.4373371062152636 0  0.313792173964703 0.4372868842941349 0  0.3766422236856188 0.4372303281514813 0  0.4395443951540229 0.4371663134564373 0  0.5025083999714727 0.4370940234870154 0  0.5655433813374569 0.4370132741030048 0  0.628656779133258 0.4369250759758891 0  0.6918524475918411 0.4368325770845361 0  0.7551277012726588 0.4367425947572245 0  0.8184688871942936 0.436668009624102 0  0.8818450326267844 0.4366312860015578 0  0.9451991302234652 0.4366691369824491 0  1.008436672121733 0.4368375799365443 0  0 0.5 0  0.06273665468415519 0.4999603191305266 0  0.1254822575374203 0.4999191604629249 0  0.1882460613091959 0.4998750045576925 0  0.2510379072815023 0.4998262539206705 0  0.3138685074168088 0.4997712052302601 0  0.3767496971667796 0.4997080412978823 0  0.4396946237927796 0.4996348617403653 0  0.5027178061427916 0.4995497872971903 0  0.5658349566729158 0.499451201316613 0  0.6290623890923056 0.4993382425615282 0  0.6924157388107532 0.4992117514464579 0  0.7559075911338761 0.4990760186004002 0  0.8195434319074706 0.4989419084977196 0  0.8833150766865605 0.4988322040151789 0  0.9471903241592694 0.4987901447628181 0  1.011096913761818 0.498891542544627 0  0 0.5625 0  0.0627382158614592 0.5624596958183472 0  0.1254861419742414 0.5624177272183704 0  0.1882539159808974 0.5623723564435964 0  0.2510525505279125 0.5623216972313997 0  0.3138944093249654 0.5622636380491572 0  0.3767937217922902 0.5621957663228182 0  0.4397671341178059 0.562115302770841 0  0.5028342744034026 0.5620190680021615 0  0.5660182752445893 0.5619035297747847 0  0.6293461432417334 0.561765031915994 0  0.6928487877305796 0.5616004113506511 0  0.7565604178922275 0.5614084197337077 0  0.8205168726702128 0.5611927726305445 0  0.8847521755533535 0.5609683703077336 0  0.949291934270414 0.5607732376805543 0  1.014140654529785 0.5606891842104674 0  0 0.625 0  0.06273006772731077 0.6249607359790506 0  0.1254701801447007 0.6249196943767557 0  0.1882309164191434 0.624874994081499 0  0.2510239898684118 0.6248245367843763 0  0.3138629126472176 0.6247658785788301 0  0.3767637821191936 0.6246960775396864 0  0.4397462343702229 0.6246115100972888 0  0.502834610638937 0.6245076529679253 0  0.5660593789871157 0.6243788390379569 0  0.6294588487278334 0.6242180259953634 0  0.6930812251891157 0.6240166927885793 0  0.7569871246429144 0.6237651695129947 0  0.8212528886166712 0.6234541818442884 0  0.8859754249980555 0.623079539179762 0  0.9512793717472781 0.6226543126359364 0  1.017325521313396 0.6222358881239848 0  0 0.6875 0  0.06271187509531922 0.6874635517280021 0  0.1254335804072533 0.6874253174026013 0  0.1881755510470239 0.6873833849743465 0  0.2509495380208849 0.6873355724342541 0  0.3137694210980554 0.6872792559274821 0  0.3766522279774797 0.6872111479736807 0  0.4396194609406829 0.6871269994422163 0  0.5026988630303182 0.6870211894135329 0  0.5659268008187338 0.6868861540531561 0  0.6293515154979755 0.6867115899765903 0  0.693037650218406 0.6864833564357564 0  0.7570728585799682 0.6861820289169765 0  0.8215783592055924 0.6857812749213674 0  0.88672787129349 0.6852472279424165 0  0.952783960695277 0.6845438725731666 0  1.020162749948454 0.6836596872219611 0  0 0.75 0  0.06268385621045565 0.749968150702412 0  0.1253766960025576 0.74993463495497 0  0.188088121642682 0.7498976516021348 0  0.250829106051791 0.7498551067996158 0  0.3136128747578035 0.7498044185463455 0  0.3764560601206992 0.7497422519189113 0  0.4393802804563742 0.7496641425441709 0  0.5024143624942448 0.7495639433690962 0  0.5655975276267937 0.7494329917840317 0  0.6289840275538421 0.7492588278740491 0  0.6926500206102543 0.7490231728132501 0  0.7567041895289609 0.7486986411770675 0  0.8213056410063155 0.7482432123573747 0  0.8866990521726986 0.747590859228868 0  0.9532958194500826 0.7466379119072083 0  1.021861267823822 0.745246812303675 0  0 0.8125 0  0.0626468653662865 0.8124744128772267 0  0.1253012131135792 0.8124474162893531 0  0.1879710871905345 0.8124174753227842 0  0.2506657925924077 0.8123827798543015 0  0.3133967337598301 0.812341054718184 0  0.3761785493989549 0.8122892944724586 0  0.4390307262742534 0.8122233732545384 0  0.5019799697747566 0.8121374508327281 0  0.5650637626500453 0.8120230449158544 0  0.6283357891360394 0.8118675485601881 0  0.6918743060197341 0.8116517978483064 0  0.7557953030195994 0.8113459268198582 0  0.8202742935993708 0.8109018476883341 0  0.8855884096653869 0.8102381933029836 0  0.9522288599325711 0.8092060936401171 0  1.02133605294804 0.8075029058447485 0  0 0.875 0  0.0626024124438757 0.8749820813841884 0  0.1252102065317494 0.8749631385212356 0  0.1878291938064582 0.8749420498929499 0  0.2504661605612519 0.8749174792028566 0  0.3131295327472794 0.8748877239707971 0  0.3758303001094668 0.8748504996596559 0  0.4385833716256273 0.8748026152908246 0  0.5014096379898453 0.8747394690366922 0  0.5643391928582472 0.8746542450325068 0  0.6274164555659816 0.8745366118746738 0  0.6907083940933647 0.8743705838445089 0  0.7543176801318243 0.8741309478998346 0  0.8184032685506649 0.8737770633209254 0  0.8832115081924719 0.8732408758798783 0  0.949129649885828 0.8723976493317976 0  1.01692733885632 0.8709657228244116 0  0 0.9375 0  0.06255260356265059 0.9374907716688742 0  0.1251080255096685 0.9374810039146174 0  0.1876693185210951 0.9374701041011645 0  0.2502400697782524 0.9374573616401416 0  0.3128247722765747 0.9374418637212621 0  0.3754293508652303 0.9374223736356013 0  0.4380619517657213 0.9373971454205143 0  0.500
[...]
<PointData  Vectors="f_95-0"> 
<DataArray  type="Float64"  Name="f_95-0"  NumberOfComponents="3" format="ascii">0.0000000000000000e+00 0.0000000000000000e+00 0.0000000000000000e+00  7.8519796722396646e-04 -2.2007556881399579e-02 0.0000000000000000e+00  2.2064909851716979e-03 -4.4841531461514476e-02 0.0000000000000000e+00  3.9309876680824578e-03 -6.3790264590558213e-02 0.0000000000000000e+00  5.9461005021954581e-03 -7.7224250630607907e-02 0.0000000000000000e+00  8.1813216850270733e-03 -8.4991885854343210e-02 0.0000000000000000e+00  1.0567067034028021e-02 -8.7716637687620516e-02 0.0000000000000000e+00  1.3028360495306642e-02 -8.6332242213739432e-02 0.0000000000000000e+00  1.5485386968468609e-02 -8.1805955498553087e-02 0.0000000000000000e+00  1.7852159568593939e-02 -7.4993784947527536e-02 0.0000000000000000e+00  2.0033839635460200e-02 -6.6585274785217502e-02 0.0000000000000000e+00  2.1922356770942075e-02 -5.7102443385038296e-02 0.0000000000000000e+00  2.3392780229976696e-02 -4.6928234316078829e-02 0.0000000000000000e+00  2.4269207977956665e-02 -3.6322974491871912e-02 0.0000000000000000e+00  2.4345935705260786e-02 -2.5523022980063370e-02 0.0000000000000000e+00  2.3940882944790562e-02 -1.4437622086045404e-02 0.0000000000000000e+00  1.1188889477369226e-02 -9.9947106840441811e-03 0.0000000000000000e+00  0.0000000000000000e+00 0.0000000000000000e+00 0.0000000000000000e+00  6.6323316948722780e-04 -2.3258106219289715e-02 0.0000000000000000e+00  2.1086586053477396e-03 -4.6486070424367650e-02 0.0000000000000000e+00  3.9543139748891218e-03 -6.5757891506319638e-02 0.0000000000000000e+00  6.1301084785830434e-03 -7.9444342732302914e-02 0.0000000000000000e+00  8.5495421835698280e-03 -8.7391825070216658e-02 0.0000000000000000e+00  1.1137271994870733e-02 -9.0219444579221320e-02 0.0000000000000000e+00  1.3811925034338457e-02 -8.8857780540225639e-02 0.0000000000000000e+00  1.6488678148023288e-02 -8.4270012784494738e-02 0.0000000000000000e+00  1.9077063342001082e-02 -7.7305938309404090e-02 0.0000000000000000e+00  2.1478761191036689e-02 -6.8646033532404782e-02 0.0000000000000000e+00  2.3585474438253068e-02 -5.8799354609537197e-02 0.0000000000000000e+00  2.5274196295575101e-02 -4.8126285439419124e-02 0.0000000000000000e+00  2.6402741071126081e-02 -3.6867350862076508e-02 0.0000000000000000e+00  2.6860874463198323e-02 -2.5161039501034953e-02 0.0000000000000000e+00  2.6019949950616870e-02 -1.2898993261503426e-02 0.0000000000000000e+00  2.6403861310252529e-02 -2.1360316642531343e-03 0.0000000000000000e+00  0.0000000000000000e+00 0.0000000000000000e+00 0.0000000000000000e+00  5.7861995352881520e-04 -2.4396191304880237e-02 0.0000000000000000e+00  2.0929990955286743e-03 -4.8266884978846195e-02 0.0000000000000000e+00  4.2297598838322067e-03 -6.7977373651389353e-02 0.0000000000000000e+00  6.8253893187566481e-03 -8.1989141734828408e-02 0.0000000000000000e+00  9.7509462095981495e-03 -9.0164463468845366e-02 0.0000000000000000e+00  1.2903337136323021e-02 -9.3126113995504453e-02 0.0000000000000000e+00  1.6181532266982032e-02 -9.1805711437024290e-02 0.0000000000000000e+00  1.9485086871264101e-02 -8.7164360061569607e-02 0.0000000000000000e+00  2.2709470529153508e-02 -8.0047212709001864e-02 0.0000000000000000e+00  2.5744783628298386e-02 -7.1128548277907766e-02 0.0000000000000000e+00  2.8476615180727163e-02 -6.0910989533292180e-02 0.0000000000000000e+00  3.0791193575402491e-02 -4.9751273022177078e-02 0.0000000000000000e+00  3.2592450114495922e-02 -3.7895403969402192e-02 0.0000000000000000e+00  3.3808032507340276e-02 -2.5511016949145683e-02 0.0000000000000000e+00  3.4683246997029307e-02 -1.2858913756360895e-02 0.0000000000000000e+00  3.5022331516475401e-02 -8.4494549495875708e-04 0.0000000000000000e+00  0.0000000000000000e+00 0.0000000000000000e+00 0.0000000000000000e+00  6.1044858138697977e-04 -2.5544430855343855e-02 0.0000000000000000e+00  2.3206960739964324e-03 -5.0297142086734081e-02 0.0000000000000000e+00  4.8924580962101628e-03 -7.0645943045494514e-02 0.0000000000000000e+00  8.1090035722691609e-03 -8.5120046246070627e-02 0.0000000000000000e+00  1.1795773488558462e-02 -9.3617601223793770e-02 0.0000000000000000e+00  1.5809713532929672e-02 -9.6779318114758789e-02 0.0000000000000000e+00  2.0020458104139761e-02 -9.5543613578554315e-02 0.0000000000000000e+00  2.4301638708879140e-02 -9.0871581211818098e-02 0.0000000000000000e+00  2.8523888313594311e-02 -8.3604939087372210e-02 0.0000000000000000e+00  3.2553829994418172e-02 -7.4414712698477256e-02 0.0000000000000000e+00  3.6257999397065983e-02 -6.3805106744504209e-02 0.0000000000000000e+00  3.9513757654957751e-02 -5.2146355997846651e-02 0.0000000000000000e+00  4.2226505309686552e-02 -3.9721095179536078e-02 0.0000000000000000e+00  4.4371675822525554e-02 -2.6791053350238382e-02 0.0000000000000000e+00  4.5946617996201540e-02 -1.3667703192137106e-02 0.0000000000000000e+00  4.6881082190684938e-02 -8.3594354770329398e-04 0.0000000000000000e+00  0.0000000000000000e+00 0.0000000000000000e+00 0.0000000000000000e+00  7.1430991195619209e-04 -2.6850721175472415e-02 0.0000000000000000e+00  2.7553676852930154e-03 -5.2713631474239867e-02 0.0000000000000000e+00  5.8968105626619367e-03 -7.3922777347909030e-02 0.0000000000000000e+00  9.8939434336727979e-03 -8.9037491409810210e-02 0.0000000000000000e+00  1.4535434121867995e-02 -9.7994191656708515e-02 0.0000000000000000e+00  1.9641159461959438e-02 -1.0145858525100236e-01 0.0000000000000000e+00  2.5047990291385245e-02 -1.0037949562856900e-01 0.0000000000000000e+00  3.0596266260499164e-02 -9.5718293780163874e-02 0.0000000000000000e+00  3.6121322795655469e-02 -8.8312281700910364e-02 0.0000000000000000e+00  4.1452311018878647e-02 -7.8829467041770240e-02 0.0000000000000000e+00  4.6417741116950482e-02 -6.7778972972941470e-02 0.0000000000000000e+00  5.0857749335359026e-02 -5.5550796152349695e-02 0.0000000000000000e+00  5.4641563221269437e-02 -4.2468582482257045e-02 0.0000000000000000e+00  5.7675118102603139e-02 -2.8841706138279775e-02 0.0000000000000000e+00  5.9880808739184353e-02 -1.4999018960375450e-02 0.0000000000000000e+00  6.1166002936695225e-02 -1.2044416812622238e-03 0.0000000000000000e+00  0.0000000000000000e+00 0.0000000000000000e+00 0.0000000000000000e+00  8.6039716714613737e-04 -2.8407421857312088e-02 0.0000000000000000e+00  3.3181242901221429e-03 -5.5628137785112719e-02 0.0000000000000000e+00  7.1229512803984586e-03 -7.7929078957544667e-02 0.0000000000000000e+00  1.2007041195963880e-02 -9.3886191153288556e-02 0.0000000000000000e+00  1.7733054806305479e-02 -1.0347147301919578e-01 0.0000000000000000e+00  2.4092901304125825e-02 -1.0737580600404857e-01 0.0000000000000000e+00  3.0892346511810265e-02 -1.0655666145647895e-01 0.0000000000000000e+00  3.7934586171286519e-02 -1.0197132273637730e-01 0.0000000000000000e+00  4.5010725237861149e-02 -9.4447477823719969e-02 0.0000000000000000e+00  5.1898749040449617e-02 -8.4645814350581966e-02 0.0000000000000000e+00  5.8370349691309706e-02 -7.3077705363424617e-02 0.0000000000000000e+00  6.4205022766630787e-02 -6.0150847181640058e-02 0.0000000000000000e+00  6.9206502025598499e-02 -4.6222728419635088e-02 0.0000000000000000e+00  7.3219456586660903e-02 -3.1642484775221878e-02 0.0000000000000000e+00  7.6133434141185147e-02 -1.6748922773991943e-02 0.0000000000000000e+00  7.7892602541912992e-02 -1.8514247731547667e-03 0.0000000000000000e+00  0.0000000000000000e+00 0.0000000000000000e+00 0.0000000000000000e+00  1.0219880401044718e-03 -3.0264558845230154e-02 0.0000000000000000e+00  3.9259764072404196e-03 -5.9101694803516167e-02 0.0000000000000000e+00  8.4246295035743726e-03 -8.2729527572549102e-02 0.0000000000000000e+00  1.4232257399611817e-02 -9.9745443813797505e-02 0.0000000000000000e+00  2.1098461738047358e-02 -1.1015570272615864e-01 0.0000000000000000e+00  2.8798525428102413e-02 -1.1467129234341633e-01 0.0000000000000000e+00  3.7112283763614244e-02 -1.1424993591986511e-01 0.0000000000000000e+00  4.5804851637738939e-02 -1.0983456830195187e-01 0.0000000000000000e+00  5.4616574223270369e-02 -1.0223303321835850e-01 0.0000000000000000e+00  6.3263137508455081e-02 -9.2089754373337079e-02 0.0000000000000000e+00  7.1444414864639372e-02 -7.9911186297932063e-02 0.0000000000000000e+00  7.8861523595466526e-02 -6.6117837286197523e-02 0.0000000000000000e+00  8.5238748967509020e-02 -5.1102330920720619e-02 0.0000000000000000e+00  9.0359431462437398e-02 -3.5270993259006518e-02 0.0000000000000000e+00  9.4093086702883133e-02 -1.9045315132747254e-02 0.0000000000000000e+00  9.6462729384965584e-02 -2.8268268696312977e-03 0.0000000000000000e+00  0.0000000000000000e+00 0.0000000000000000e+00 0.0000000000000000e+00  1.1749428018251655e-03 -3.2425065143404409e-02 0.0000000000000000e+00  4.4963835730306443e-03 -6.3128817210375027e-02 0.0000000000000000e+00  9.6436490747665877e-03 -8.8314307553279750e-02 0.0000000000000000e+00  1.6326808966688297e-02 -1.0661466780446445e-01 0.0000000000000000e+00  2.4299005922754205e-02 -1.1807000934739439e-01 0.0000000000000000e+00  3.3332387006974162e-02 -1.2340155718909686e-01 0.0000000000000000e+00  4.3188512639587631e-02 -1.2355242262461029e-01 0.0000000000000000e+00  5.3596060316617886e-02 -1.1943506462393016e-01 0.0000000000000000e+00  6.4241347819958730e-02 -1.1182248833877345e-01 0.0000000000000000e+00  7.4770922020883382e-02 -1.0132992184666106e-01 0.0000000000000000e+00  8.4802954826425719e-02 -8.8448359643435018e-02 0.0000000000000000e+00  9.3947322444922113e-02 -7.3604722923669874e-02 0.0000000000000000e+00  1.0183323473693308e-01 -5.7230275179123234e-02 0.0000000000000000e+00  1.0816529089578338e-01 -3.9817551659208736e-02 0.0000000000000000e+00  1.1277467751822168e-01 -2.1937415304664580e-02 0.0000000000000000e+00  1.1578475147509369e-01 -4.1597747891491408e-03 0.0000000000000000e+00  0.0000000000000000e+00 0.0000000000000000e+00 0.0000000000000000e+00  1.2960767183999085e-03 -3.4847729754479397e-02 0.0000000000000000e+00  4.9464050681390656e-03 -6.7633244102535059e-02 0.0000000000000000e+00  1.0614237601200003e-02 -9.4587676852765937e-02 0.0000000000000000e+00  1.8027226142268510e-02 -1.1439797979275773e-01 0.0000000000000000e+00  2.6962442746226518e-02 -1.2713566853589681e-01 0.0000000000000000e+00  3.7204447533842604e-02 -1.3351680910221150e-01 0.0000000000000000e+00  4.8506148143288311e-02 -1.3444892123930419e-01 0.0000000000000000e+00  6.0564267793185259e-02 -1.3079279929108140e-01 0.0000000000000000e+00  7.3012256088746577e-02 -1.2326800551713805e-01 0.0000000000000000e+00  8.5426685942925434e-02 -1.1244515362579181e-01 0.0000000000000000e+00  9.7341344147579681e-02 -9.8786719560628067e-02 0.0000000000000000e+00  1.0826840274228687e-01 -8.2714120459525156e-02 0.0000000000000000e+00  1.1772533718548063e-01 -6.4690868319866271e-02 0.0000000000000000e+00  1.2530051192627795e-01 -4.5312645060833788e-02 0.0000000000000000e+00  1.3072928997895972e-01 -2.5369165101345317e-02 0.0000000000000000e+00  1.3420101319291106e-01 -5.7051661498828008e-03 0.0000000000000000e+00  0.0000000000000000e+00 0.0000000000000000e+00 0.0000000000000000e+00  1.3636711835437333e-03 -3.7448355366366405e-02 0.0000000000000000e+00  5.1966375558880531e-03 -7.2465703891288355e-02 0.0000000000000000e+00  1.1172325524015436e-02 -1.0135992193148141e-01 0.0000000000000000e+00  1.9062239394044750e-02 -1.2288902038099329e-01 0.0000000000000000e+00  2.8689428439690370e-02 -1.3714888444476359e-01 0.0000000000000000e+00  3.9867337708303696e-02 -1.4482918247089085e-01 0.0000000000000000e+00  5.2351591198486244e-02 -1.4677573680169209e-01 0.0000000000000000e+00  6.5815052112643976e-02 -1.4377310337975288e-01 0.0000000000000000e+00  7.9845222258194931e-02 -1.3646738235364816e-01 0.0000000000000000e+00  9.3955804239962012e-02 -1.2536890259430253e-01 0.0000000000000000e+00  1.0760495074248348e-01 -1.1089623419442672e-01 0.0000000000000000e+00  1.2021315809045327e-01 -9.3445180525660559e-02 0.0000000000000000e+00  1.3117668988515305e-01 -7.3487662424102068e-02 0.0000000000000000e+00  1.3992008475198786e-01 -5.1704725729220052e-02 0.0000000000000000e+00  1.4597701982687777e-01 -2.9133487862325703e-02 0.0000000000000000e+00  1.4942803992374604e-01 -7.0000408625105915e-03 0.0000000000000000e+00  0.0000000000000000e+00 0.0000000000000000e+00 0.0000000000000000e+00  1.3614772488800488e-03 -4.0105274041770861e-02 0.0000000000000000e+00  5.1843091221830057e-03 -7.7409673170238794e-02 0.0000000000000000e+00  1.1179118105166077e-02 -1.0834693002340318e-01 0.0000000000000000e+00  1.9184986638506339e-02 -1.3176000692715215e-01 0.0000000000000000e+00  2.9090672237393107e-02 -1.4775720560277297e-01 0.0000000000000000e+00  4.0754323483979130e-02 -1.5697594966965983e-01 0.0000000000000000e+00  5.3947545720014284e-02 -1.6017132872214732e-01 0.0000000000000000e+00  6.8332173941335728e-02 -1.5802631010841234e-01 0.0000000000000000e+00  8.3463803840570255e-02 -1.5109462560739834e-01 0.0000000000000000e+00  9.8810575530769926e-02 -1.3981264936225038e-01 0.0000000000000000e+00  1.1377749039542125e-01 -1.2454227643747318e-01 0.0000000000000000e+00  1.2771599914529352e-01 -1.0563400082696012e-01 0.0000000000000000e+00  1.3992235273154424e-01 -8.3518162565656237e-02 0.0000000000000000e+00  1.4963130723870274e-01 -5.8863425667533255e-02 0.0000000000000000e+00  1.5602606644246386e-01 -3.2880742560165904e-02 0.0000000000000000e+00  1.5870940737320982e-01 -7.2206976260336796e-03 0.0000000000000000e+00  0.0000000000000000e+00 0.0000000000000000e+00 0.0000000000000000e+00  1.2867902529821742e-03 -4.2675425958088861e-02 0.0000000000000000e+00  4.8874977799038518e-03 -8.2200927970499993e-02 0.0000000000000000e+00  1.0562222253557180e-02 -1.1518258139594079e-01 0.0000000000000000e+00  1.8229199731132989e-02 -1.4056096410402949e-01 0.0000000000000000e+00  2.7856402991893778e-02 -1.5844310790545818e-01 0.0000000000000000e+00  3.9360923110406565e-02 -1.6938717782594831e-01 0.0000000000000000e+00  5.2546185390485972e-02 -1.7402918302629186e-01 0.0000000000000000e+00  6.7081988609982365e-02 -1.7292760142025640e-01 0.0000000000000000e+00  8.2514866831388561e-02 -1.6652825550454259e-01 0.0000000000000000e+00  9.8294822244499647e-02 -1.5518485902052370e-01 0.0000000000000000e+00  1.1380454725461350e-01 -1.3919847541892696e-01 0.0000000000000000e+00  1.2837138213335855e-01 -1.1885716389322369e-01 0.0000000000000000e+00  1.4126616962912511e-01 -9.4480058246456680e-02 0.0000000000000000e+00  1.5155856977842913e-01 -6.6578210985390629e-02 0.0000000000000000e+00  1.5799719269550686e-01 -3.6293728171066880e-02 0.0000000000000000e+00  1.5919770382070270e-01 -5.4121479451559344e-03 0.0000000000000000e+00  0.0000000000000000e+00 0.0000000000000000e+00 0.0000000000000000e+00  1.1617243018001704e-03 -4.5027272187845246e-02 0.0000000000000000e+00  4.3558699875518555e-03 -8.6566232370118776e-02 0.0000000000000000e+00  9.3650774142728047e-03 -1.2144907174433189e-01 0.0000000000000000e+00  1.6178668639031089e-02 -1.4873683324512557e-01 0.0000000000000000e+00  2.4850483665343568e-02 -1.6852687571058675e-01 0.0000000000000000e+00  3.5369594423676827e-02 -1.8127467943525036e-01 0.0000000000000000e+00  4.7590164171553262e-02 -1.8747394527808692e-01 0.0000000000000000e+00  6.1216132609646368e-02 -1.8754189553008915e-01 0.0000000000000000e+00  7.5817671604653081e-02 -1.8180612889857159e-01 0.0000000000000000e+00  9.0861655042033529e-02 -1.7053298590530241e-01 0.0000000000000000e+00  1.0574290799614385e-01 -1.5396348895762024e-01 0.0000000000000000e+00  1.1981845631289606e-01 -1.3233074510500772e-01 0.0000000000000000e+00  1.3240797568655210e-01 -1.0585468836923960e-01 0.0000000000000000e+00  1.4257960208519080e-01 -7.4742397059539889e-02 0.0000000000000000e+00  1.4890850772015843e-01 -3.9404094491299717e-02 0.0000000000000000e+00  1.4850244880309213e-01 -1.1225667413745878e-03 0.0000000000000000e+00  0.0000000000000000e+00 0.0000000000000000e+00 0.0000000000000000e+00  1.0416906335059550e-03 -4.7087934026343370e-02 0.0000000000000000e+00  3.7251732559203284e-03 -9.0275033974782495e-02 0.0000000000000000e+00  7.7686922270111571e-03 -1.2672288162415768e-01 0.0000000000000000e+00  1.3210333759019886e-02 -1.5567021996236971e-01 0.0000000000000000e+00  2.0194836943861691e-02 -1.7720724502495494e-01 0.0000000000000000e+00  2.8794014558340311e-02 -1.9166957591017750e-01 0.0000000000000000e+00  3.8931720012782646e-02 -1.9939490456131745e-01 0.0000000000000000e+00  5.0377102495536688e-02 -2.0065316410365686e-01 0.0000000000000000e+00  6.2765689675586295e-02 -1.9565089503176414e-01 0.0000000000000000e+00  7.5625811014042518e-02 -1.8456280936212555e-01 0.0000000000000000e+00  8.8402142896480546e-02 -1.6756797081671654e-01 0.0000000000000000e+00  1.0049349609420125e-01 -1.4487034196849163e-01 0.0000000000000000e+00  1.1127161034581851e-01 -1.1664770828899082e-01 0.0000000000000000e+00  1.2014253239374997e-01 -8.2743950930888641e-02 0.0000000000000000e+00  1.2608331048485294e-01 -4.2321705787609180e-02 0.0000000000000000e+00  1.2452304593567935e-01 4.8225393406962358e-03 0.0000000000000000e+00  0.0000000000000000e+00 0.0000000000000000e+00 0.0000000000000000e+00  9.9170174778636364e-04 -4.8891984014760671e-02 0.0000000000000000e+00  3.1475697008984420e-03 -9.3177654970415386e-02 0.0000000000000000e+00  5.9955768431875812e-03 -1.3062833904362459e-01 0.0000000000000000e+00  9.6241348762788736e-03 -1.6076554497248005e-01 0.0000000000000000e+00  1.4272073265123230e-02 -1.8367244255330031e-01 0.0000000000000000e+00  2.0088197614777679e-02 -1.9955220242398830e-01 0.0000000000000000e+00  2.7072206030568674e-02 -2.0858742405839492e-01 0.0000000000000000e+00  3.5084311008406248e-02 -2.1091179621642492e-01 0.0000000000000000e+00  4.3869828619116473e-02 -2.0662135559080902e-01 0.0000000000000000e+00  5.3075622521888154e-02 -1.9579881319472983e-01 0.0000000000000000e+00  6.2250137158042389e-02 -1.7854371496813626e-01 0.0000000000000000e+00  7.0838184374310303e-02 -1.5500520674291784e-01 0.0000000000000000e+00  7.8190968722727044e-02 -1.2539245276396163e-01 0.0000000000000000e+00  8.3840797622819624e-02 -8.9837086551817671e-02 0.0000000000000000e+00  8.7479644570468043e-02 -4.7252693640718664e-02 0.0000000000000000e+00  8.7227557489378216e-02 8.8584201207987222e-03 0.0000000000000000e+00  0.0000000000000000e+00 0.0000000000000000e+00 0.0000000000000000e+00  9.4222341382850744e-04 -5.0479072950158480e-02 0.0000000000000000e+00  2.4456338699357870e-03 -9.5121612763601371e-02 0.0000000000000000e+00  3.9062279514318256e-03 -1.3288173175261020e-01 0.0000000000000000e+00  5.5126841850030063e-03 -1.6360277651685473e-01 0.0000000000000000e+00  7.5349200173565915e-03 -1.8732941295483319e-01 0.0000000000000000e+00  1.0133552333212347e-02 -2.0413288817936162e-01 0.0000000000000000e+00  1.3353047806887119e-02 -2.1406769013606089e-01 0.0000000000000000e+00  1.7145600452145335e-02 -2.1716784577518117e-01 0.0000000000000000e+00  2.1393993613731118e-02 -2.1345265248935680e-01 0.0000000000000000e+00  2.5919143574399683e-02 -2.0293476501288285e-01 0.0000000000000000e+00  3.0465239953059949e-02 -1.8563001482253377e-01 0.0000000000000000e+00  3.4656951725791071e-02 -1.6157297115560096e-01 0.0000000000000000e+00  3.7899343130253157e-02 -1.3085013195441106e-01 0.0000000000000000e+00  3.9276444461282096e-02 -9.3608486311964043e-02 0.0000000000000000e+00  3.7725182356490444e-02 -4.9950704048210344e-02 0.0000000000000000e+00  3.4148148386924100e-02 5.5869877001366560e-03 0.0000000000000000e+00  0.0000000000000000e+00 -3.4192470836789086e-18 0.0000000000000000e+00  0.0000000000000000e+00 -5.1346094533820025e-02 0.0000000000000000e+00  0.0000000000000000e+00 -9.5846043129797373e-02 0.0000000000000000e+00  0.0000000000000000e+00 -1.3349984578793206e-01 0.0000000000000000e+00  0.0000000000000000e+00 -1.6430750250822407e-01 0.0000000000000000e+00  0.0000000000000000e+00 -1.8826901329067341e-01 0.0000000000000000e+00  0.0000000000000000e+00 -2.0538437813528010e-01 0.0000000000000000e+00  0.0000000000000000e+00 -2.1565359704204412e-01 0.0000000000000000e+00  0.0000000000000000e+00 -2.1