<?xml version="1.0"?>
<VTKFile type="UnstructuredGrid"  version="0.1"  >
<UnstructuredGrid>
<Piece  NumberOfPoints="289" NumberOfCells="512">
<Points>
<DataArray  type="Float64"  NumberOfComponents="3"  format="ascii">0 0 0  0.0625 0 0  0.125 0 0  0.1875 0 0  0.25 0 0  0.3125 0 0  0.375 0 0  0.4375 0 0  0.5 0 0  0.5625 0 0  0.625 0 0  0.6875 0 0  0.75 0 0  0.8125 0 0  0.875 0 0  0.9375 0 0  1 0 0  0 0.0625 0  0.06249923482867006 0.06247999160893034 0  0.124999260889338 0.06245963617134412 0  0.1875009819657733 0.06243861590229956 0  0.2500055841260087 0.06241668859985827 0  0.3125147198815172 0.06239373581680338 0  0.3750307525569505 0.0623698220034546 0  0.4375570984033782 0.06234526415449054 0  0.5000987322709889 0.06232070548670176 0  0.5626629892986127 0.06229717560209463 0  0.6252609617271642 0.06227610018841492 0  0.687910231546085 0.06225918979311679 0  0.7506409197149383 0.06224807521666317 0  0.8135107222294294 0.06224341571272746 0  0.8766462090092266 0.0622427740168715 0  0.9403662412061805 0.06223497064151533 0  1.005581518358801 0.06218371836636829 0  0 0.125 0  0.06249766237906128 0.1249603155793432 0  0.1249967849607144 0.1249198992413851 0  0.1874990435392486 0.1248780736180127 0  0.2500066557127445 0.12483430422841 0  0.3125227357048342 0.1247882935395753 0  0.3750517646236169 0.1247401003511255 0  0.4376002416837621 0.1246902867396314 0  0.5001776204186197 0.1246400848992462 0  0.5627977144686334 0.1245915572470497 0  0.6254809314791195 0.1245476899475243 0  0.6882580698143487 0.1245123078605198 0  0.7511771877986491 0.124489633001104 0  0.8143164110842215 0.1244832864042209 0  0.8778066460783672 0.1244948540049065 0  0.9418616602870545 0.1245241593271189 0  1.006760249437063 0.1245825260274002 0  0 0.1875 0  0.06249465349831341 0.1874413634887429 0  0.1249911909087465 0.1873815409928931 0  0.187491790939854 0.1873194178800184 0  0.249999376806958 0.1872540714861113 0  0.312518106324759 0.187184904492624 0  0.3750540206229707 0.1871118231033979 0  0.4376159303156866 0.1870354704730975 0  0.5002166456183346 0.186957516020297 0  0.562874699750991 0.1868809796072022 0  0.6256167762365634 0.1868105268790053 0  0.6884811104162464 0.1867525940860001 0  0.7515220608858215 0.1867150634388281 0  0.8148152878387495 0.1867059547388233 0  0.878459728526813 0.1867299970021353 0  0.9425622845229767 0.1867799228515464 0  1.007168313842434 0.1868109434491665 0  0 0.25 0  0.06248982719780185 0.2499235953120332 0  0.1249816210048012 0.2498454594944103 0  0.1874776862704799 0.2497639358622497 0  0.2499811897529123 0.2496775784289287 0  0.3124967347385178 0.2495853108535626 0  0.375031126889885 0.2494866539681126 0  0.4375944170725527 0.2493820470684907 0  0.5002013188876946 0.2492732843850863 0  0.5628730962159213 0.2491640731349779 0  0.6256399656883702 0.2490606810206795 0  0.6885438751881147 0.24897255767495 0  0.7516409936756097 0.2489126512880442 0  0.8150019182518495 0.2488968454703354 0  0.8787046696756687 0.2489414602012072 0  0.9428105357827805 0.2490572596857462 0  1.007309460670559 0.2492397186741459 0  0 0.3125 0  0.06248313504811569 0.3124075603947559 0  0.1249679237200744 0.3123127468728472 0  0.1874563566616581 0.3122132438794891 0  0.2499512964666114 0.3121069214934244 0  0.3124570751767543 0.3119919960907276 0  0.3749803092016475 0.3118672833440427 0  0.4375310299704298 0.3117325886125233 0  0.5001242381161713 0.3115892891190655 0  0.5627819715763657 0.3114411664664806 0  0.6255358874704389 0.3112955343073465 0  0.6884301013953159 0.3111646481687173 0  0.7515234442430964 0.3110672346090524 0  0.8148891772689482 0.3110296627495004 0  0.8786085352859611 0.311085739586335 0  0.942753326015577 0.3112734326744141 0  1.00735647284013 0.3116265114418142 0  0 0.375 0  0.06247490449125408 0.3748939030278682 0  0.1249507510470295 0.3747847065441967 0  0.1874287671403751 0.3746693296673848 0  0.249910939087437 0.3745447963029336 0  0.3124005603716107 0.3744083621805286 0  0.3749030161053954 0.3742577499634366 0  0.4374269259066435 0.3740915578504883 0  0.4999857975414518 0.3739099356426339 0  0.5626003586327158 0.3737156588318414 0  0.6253016930727067 0.3735157682186579 0  0.6881351329777635 0.3733239544455888 0  0.7511644219714463 0.3731637897630468 0  0.814474861262539 0.3730726126488692 0  0.8781731373082151 0.3731051516444563 0  0.9423813785974656 0.3733346692758448 0  1.007226455627753 0.3738477087905477 0  0 0.4375 0  0.06246583348947896 0.4373833467387562 0  0.12493155482132 0.4372628267937794 0  0.1873972335044399 0.4371345271270063 0  0.24986345422352 0.4369944968759746 0  0.3123317328190843 0.4368387959679479 0  0.3748051686908354 0.4366636491010524 0  0.4372894854146941 0.4364657832637988 0  0.4997946845225432 0.4362430764860252 0  0.5623376330882988 0.4359957234661253 0  0.624946006311465 0.4357282376109559 0  0.687664055160329 0.4354527523302382 0  0.7505605408607632 0.4351942004363071 0  0.8137386769142866 0.4349978525035175 0  0.8773469430703499 0.4349389519337599 0  0.9415887977008676 0.4351321516122119 0  1.006731183300191 0.4357350022742413 0  0 0.5 0  0.0624569322270937 0.4998766525803374 0  0.124912472124616 0.4997486992239261 0  0.1873652576283971 0.4996114007521781 0  0.2498140746568375 0.4994597811928604 0  0.3122580500749255 0.499288550701888 0  0.374697043187422 0.4990921029687114 0  0.4371324043050253 0.4988646601152363 0  0.4995683956446615 0.4986007015747095 0  0.562014780769784 0.4982959281068815 0  0.6244914164577537 0.4979492133145841 0  0.6870361317726618 0.4975663291574777 0  0.7497176529222868 0.4971667237115129 0  0.8126554610676947 0.4967951486683592 0  0.8760474835348366 0.496539829323793 0  0.9402038551764731 0.4965563963822034 0  1.005583656942366 0.4970895875116396 0  0 0.5625 0  0.06244941150329104 0.5623745498524981 0  0.1248960963730235 0.5622438766615339 0  0.1873371729965697 0.5621025251531891 0  0.2497694474856162 0.5619445690928951 0  0.3121892987777984 0.5617633709578341 0  0.3745926653168297 0.5615513529023544 0  0.4369752787962145 0.5612998202003887 0  0.4993334558647077 0.5609989367393637 0  0.5616660813739468 0.5606380742501551 0  0.6239790188522734 0.5602070103940266 0  0.6862942323363895 0.5596989685654119 0  0.7486675150686798 0.559117507328847 0  0.8112205833303658 0.5584910571251472 0  0.8741937204473275 0.5579012118069229 0  0.9380201552350653 0.5575307114727895 0  1.003410783217681 0.5577256011432168 0  0 0.625 0  0.06244452336276621 0.6248776430077182 0  0.1248851418338654 0.6247496763722075 0  0.1873176020102147 0.6246101633392015 0  0.2497368462815089 0.6244524645595084 0  0.3121365362624056 0.6242688219617687 0  0.3745085133467642 0.6240498652337719 0  0.4368422535350556 0.6237840226610043 0  0.4991245260709871 0.6234568429673634 0  0.5613398239738537 0.6230503077998972 0  0.623472937029228 0.6225424132456832 0  0.6855167401383003 0.6219078240211954 0  0.7474916194563695 0.6211217671690354 0  0.8094886981664065 0.6201727447549046 0  0.8717558826503308 0.6190972901914776 0  0.9348441072018637 0.6180613036653032 0  0.9998043731696397 0.6175035391755109 0  0 0.6875 0  0.06244336832284657 0.6873863053322036 0  0.1248820281066932 0.687266949773836 0  0.1873107569096367 0.6871358748160682 0  0.2497230962216675 0.6869861395594579 0  0.3121105231900315 0.6868093546072833 0  0.3744613472174302 0.6865949447201407 0  0.4367592294391121 0.686329147921678 0  0.4989812768915411 0.6859936255109154 0  0.5610958885260543 0.6855635194742166 0  0.6230612327085753 0.6850047825197086 0  0.6848271760872315 0.6842707575286939 0  0.7463484441816215 0.6832988323246629 0  0.8076284788059432 0.6820115556348909 0  0.8688369370666935 0.6803400959942654 0  0.9305684468214775 0.6783323347157789 0  0.9942476866721283 0.6764552276320903 0  0 0.75 0  0.06244669467965642 0.7499005767234884 0  0.1248884370734114 0.7497958558010008 0  0.1873196647250524 0.7496801154946965 0  0.2497333144677761 0.7495466732783003 0  0.3121197433912578 0.7493872384169828 0  0.3744651714475233 0.7491910240416353 0  0.4367493490727172 0.7489434645813811 0  0.4989420244705758 0.748624292940927 0  0.5609976608626088 0.7482045672734982 0  0.6228479304852464 0.7476419333987863 0  0.6843925118551009 0.7468728457585273 0  0.7454930405903033 0.7457995246914858 0  0.8059902691625032 0.7442686506516727 0  0.8658130951685583 0.7420442921377396 0  0.9253824309374471 0.738836531888028 0  0.9864446673593195 0.7349592542683541 0  0 0.8125 0  0.06245472598767833 0.8124200871180586 0  0.1249049218636208 0.8123356860660584 0  0.1873454538126009 0.8122419153842785 0  0.2497696816393062 0.8121329906279952 0  0.3121683230377872 0.8120015972614759 0  0.3745277283397693 0.8118380054977778 0  0.4368271210809341 0.8116287521260239 0  0.4990340362366894 0.8113546002538683 0  0.5610966081187972 0.8109872716190842 0  0.6229303715343506 0.8104840029576132 0  0.6843957900873854 0.8097779658640628 0  0.7452617103904027 0.8087600078890004 0  0.8051552991810674 0.8072400599847539 0  0.8635411940238834 0.8048564332716573 0  0.9200156097169433 0.8008439725517984 0  0.9769926379148809 0.7933656623819534 0  0 0.875 0  0.06246705797959878 0.8749440264848435 0  0.1249306634888097 0.874884790001732 0  0.1873868816700214 0.8748187243698796 0  0.2498305623496175 0.8747415614741322 0  0.3122543954511089 0.8746478354628188 0  0.3746474289056415 0.8745301732681289 0  0.4369925986895438 0.8743782273965282 0  0.4992624211551102 0.8741770208414195 0  0.5614111679909923 0.8739043305653379 0  0.6233600701062859 0.8735264929371331 0  0.6849682034138133 0.8729915445733045 0  0.7459730337497299 0.8722173361559989 0  0.8058654698258054 0.8710672304600614 0  0.8636254293090829 0.8692831089124317 0  0.9171905532838897 0.8662440646970083 0  0.9626222128378117 0.8599846075262465 0  0 0.9375 0  0.06248266044783474 0.9374711755978048 0  0.1249634613941079 0.9374406337910547 0  0.1874402781990315 0.9374064923375849 0  0.2499103143357626 0.9373664857083501 0  0.3123695716051036 0.9373176922225835 0  0.3748120057630954 0.9372561418248206 0  0.4372280906022531 
[...]
<PointData  Vectors="f_95-0"> 
<DataArray  type="Float64"  Name="f_95-0"  NumberOfComponents="3" format="ascii">0.0000000000000000e+00 0.0000000000000000e+00 0.0000000000000000e+00  -5.9278680268981337e-04 2.3992310104787900e-02 0.0000000000000000e+00  -1.6797085660683639e-03 4.8148377561245813e-02 0.0000000000000000e+00  -3.0085441828908922e-03 6.8020709764157888e-02 0.0000000000000000e+00  -4.5746512450107408e-03 8.2016430232402973e-02 0.0000000000000000e+00  -6.3288505063892539e-03 9.0009491082148022e-02 0.0000000000000000e+00  -8.2249434981454452e-03 9.2664468981691187e-02 0.0000000000000000e+00  -1.0214286590325259e-02 9.0972705543786725e-02 0.0000000000000000e+00  -1.2244573454980862e-02 8.5967102390745981e-02 0.0000000000000000e+00  -1.4256826299933627e-02 7.8569266221625481e-02 0.0000000000000000e+00  -1.6181740740280125e-02 6.9529336728430674e-02 0.0000000000000000e+00  -1.7935008373972442e-02 5.9422697563662377e-02 0.0000000000000000e+00  -1.9415266336483501e-02 4.8679072277862348e-02 0.0000000000000000e+00  -2.0475817218544235e-02 3.7602474329096434e-02 0.0000000000000000e+00  -2.0917090024153387e-02 2.6456749606935965e-02 0.0000000000000000e+00  -2.0861322339328948e-02 1.5539596203340866e-02 0.0000000000000000e+00  -1.0025713031411435e-02 9.7641920802718531e-03 0.0000000000000000e+00  0.0000000000000000e+00 0.0000000000000000e+00 0.0000000000000000e+00  -5.0577802375839024e-04 2.4945012531920364e-02 0.0000000000000000e+00  -1.6207517902227439e-03 4.9401338013429587e-02 0.0000000000000000e+00  -3.0574059061058501e-03 6.9529462899780320e-02 0.0000000000000000e+00  -4.7632325590739018e-03 8.3735968953696185e-02 0.0000000000000000e+00  -6.6749300303834526e-03 9.1894056806747795e-02 0.0000000000000000e+00  -8.7414589942137865e-03 9.4665297998483916e-02 0.0000000000000000e+00  -1.0909648537064455e-02 9.3037342965267528e-02 0.0000000000000000e+00  -1.3123861825111671e-02 8.8036556789478526e-02 0.0000000000000000e+00  -1.5321717673408905e-02 8.0574210982223088e-02 0.0000000000000000e+00  -1.7430241584346935e-02 7.1385950922583624e-02 0.0000000000000000e+00  -1.9362962047959561e-02 6.1028101259293061e-02 0.0000000000000000e+00  -2.1016443596243200e-02 4.9900093498494162e-02 0.0000000000000000e+00  -2.2261241629408575e-02 3.8271732326209909e-02 0.0000000000000000e+00  -2.2999556867207917e-02 2.6302436711693068e-02 0.0000000000000000e+00  -2.2729638722348490e-02 1.3923993039561530e-02 0.0000000000000000e+00  -2.2963761014120128e-02 3.0505335218616926e-03 0.0000000000000000e+00  0.0000000000000000e+00 0.0000000000000000e+00 0.0000000000000000e+00  -4.5608669876103652e-04 2.5819599977735704e-02 0.0000000000000000e+00  -1.6603184363974072e-03 5.0783947628062813e-02 0.0000000000000000e+00  -3.3712134030104766e-03 7.1265821630430728e-02 0.0000000000000000e+00  -5.4567607247878484e-03 8.5742704813968951e-02 0.0000000000000000e+00  -7.8162627911026270e-03 9.4103444265584146e-02 0.0000000000000000e+00  -1.0375350564983479e-02 9.7014844887409191e-02 0.0000000000000000e+00  -1.3065495255620103e-02 9.5465111941097788e-02 0.0000000000000000e+00  -1.5819048258410698e-02 9.0475443862509927e-02 0.0000000000000000e+00  -1.8561512028923109e-02 8.2946774411327251e-02 0.0000000000000000e+00  -2.1207159774530367e-02 7.3600714800306402e-02 0.0000000000000000e+00  -2.3657619072309358e-02 6.2977752359296521e-02 0.0000000000000000e+00  -2.5804959683650541e-02 5.1462655490867003e-02 0.0000000000000000e+00  -2.7544057651200986e-02 3.9315697549813101e-02 0.0000000000000000e+00  -2.8775609674245462e-02 2.6695839791228311e-02 0.0000000000000000e+00  -2.9500374094630095e-02 1.3729589353772335e-02 0.0000000000000000e+00  -2.9571845690904496e-02 9.1048835847382819e-04 0.0000000000000000e+00  0.0000000000000000e+00 0.0000000000000000e+00 0.0000000000000000e+00  -5.0455756514642867e-04 2.6739457973048390e-02 0.0000000000000000e+00  -1.9223038395930106e-03 5.2419628925421999e-02 0.0000000000000000e+00  -4.0552207410815286e-03 7.3422928368427398e-02 0.0000000000000000e+00  -6.7194019321415400e-03 8.8282097163364381e-02 0.0000000000000000e+00  -9.7720445945592913e-03 9.6920576397712829e-02 0.0000000000000000e+00  -1.3104561285884921e-02 1.0002439890325993e-01 0.0000000000000000e+00  -1.6624625336985183e-02 9.8588110783860747e-02 0.0000000000000000e+00  -2.0243632022220199e-02 9.3628790946324994e-02 0.0000000000000000e+00  -2.3864996458848667e-02 8.6035709239602576e-02 0.0000000000000000e+00  -2.7377980149054335e-02 7.6515281883118028e-02 0.0000000000000000e+00  -3.0657116947255793e-02 6.5594789819991284e-02 0.0000000000000000e+00  -3.3569649966180760e-02 5.3655230607746733e-02 0.0000000000000000e+00  -3.5988317790624919e-02 4.0971864509917452e-02 0.0000000000000000e+00  -3.7818577417499388e-02 2.7753750995010665e-02 0.0000000000000000e+00  -3.8972049993944949e-02 1.4148655515693448e-02 0.0000000000000000e+00  -3.9383258512007933e-02 3.7545856940173465e-04 0.0000000000000000e+00  0.0000000000000000e+00 0.0000000000000000e+00 0.0000000000000000e+00  -6.1721144501778380e-04 2.7835199131495257e-02 0.0000000000000000e+00  -2.3753799680423775e-03 5.4445026137908324e-02 0.0000000000000000e+00  -5.0679739887716305e-03 7.6164015749729391e-02 0.0000000000000000e+00  -8.4760181086068510e-03 9.1555882960041940e-02 0.0000000000000000e+00  -1.2419833585559432e-02 1.0058527779042579e-01 0.0000000000000000e+00  -1.6757875844361440e-02 1.0396645359491040e-01 0.0000000000000000e+00  -2.1370632381236303e-02 1.0270469679673140e-01 0.0000000000000000e+00  -2.6142039426725439e-02 9.7812475065207211e-02 0.0000000000000000e+00  -3.0943970480872190e-02 9.0163490722761072e-02 0.0000000000000000e+00  -3.5627160935218435e-02 8.0443971590462168e-02 0.0000000000000000e+00  -4.0019768493290316e-02 6.9164611785044669e-02 0.0000000000000000e+00  -4.3935749143959493e-02 5.6703265227934535e-02 0.0000000000000000e+00  -4.7192494796147400e-02 4.3355252898888259e-02 0.0000000000000000e+00  -4.9635957819028749e-02 2.9369696595983555e-02 0.0000000000000000e+00  -5.1149804917665936e-02 1.4954703506222924e-02 0.0000000000000000e+00  -5.1717464463697252e-02 2.1661795200710510e-04 0.0000000000000000e+00  0.0000000000000000e+00 0.0000000000000000e+00 0.0000000000000000e+00  -7.6920573789545700e-04 2.9193706714755973e-02 0.0000000000000000e+00  -2.9521737771499930e-03 5.6973433583943668e-02 0.0000000000000000e+00  -6.3043664250603485e-03 7.9618990924137711e-02 0.0000000000000000e+00  -1.0574570109923588e-02 9.5720277711372023e-02 0.0000000000000000e+00  -1.5554154201375965e-02 1.0528627048309321e-01 0.0000000000000000e+00  -2.1075350717443798e-02 1.0906343829951073e-01 0.0000000000000000e+00  -2.6992462727966127e-02 1.0806829230404225e-01 0.0000000000000000e+00  -3.3158688938113294e-02 1.0330449068550367e-01 0.0000000000000000e+00  -3.9406741424550078e-02 9.5622217895895090e-02 0.0000000000000000e+00  -4.5536184847347033e-02 8.5677260304349107e-02 0.0000000000000000e+00  -5.1309616158283840e-02 7.3952782569867370e-02 0.0000000000000000e+00  -5.6461043428204377e-02 6.0814074998100785e-02 0.0000000000000000e+00  -6.0717738448760966e-02 4.6571683079376112e-02 0.0000000000000000e+00  -6.3843842809880966e-02 3.1528033681649061e-02 0.0000000000000000e+00  -6.5685803634143433e-02 1.5975843530558448e-02 0.0000000000000000e+00  -6.6278169113854354e-02 9.2246007699874359e-05 0.0000000000000000e+00  0.0000000000000000e+00 0.0000000000000000e+00 0.0000000000000000e+00  -9.3736727089188264e-04 3.0864825556677061e-02 0.0000000000000000e+00  -3.5795994241701280e-03 6.0072469191454043e-02 0.0000000000000000e+00  -7.6339831379560715e-03 8.3867254906383082e-02 0.0000000000000000e+00  -1.2822237318620543e-02 1.0087502348003456e-01 0.0000000000000000e+00  -1.8917652034981233e-02 1.1115329792926699e-01 0.0000000000000000e+00  -2.5735379566569114e-02 1.1548069888806843e-01 0.0000000000000000e+00  -3.3107664522778774e-02 1.1488042402921743e-01 0.0000000000000000e+00  -4.0856396887095026e-02 1.1033871504094675e-01 0.0000000000000000e+00  -4.8770132488517116e-02 1.0267013287763094e-01 0.0000000000000000e+00  -5.6587841308206259e-02 9.2484326578227957e-02 0.0000000000000000e+00  -6.3991077683589817e-02 8.0217856791275965e-02 0.0000000000000000e+00  -7.0608909424747263e-02 6.6204574926685925e-02 0.0000000000000000e+00  -7.6043381715011876e-02 5.0760991265318307e-02 0.0000000000000000e+00  -7.9934245038312507e-02 3.4256624388592290e-02 0.0000000000000000e+00  -8.2046163370539313e-02 1.7133307372484162e-02 0.0000000000000000e+00  -8.2449849407937162e-02 -2.6712699964644658e-04 0.0000000000000000e+00  0.0000000000000000e+00 0.0000000000000000e+00 0.0000000000000000e+00  -1.0998459988628584e-03 3.2856887860003826e-02 0.0000000000000000e+00  -4.1825386954985133e-03 6.3750062369344426e-02 0.0000000000000000e+00  -8.9126361322420192e-03 8.8921297704769531e-02 0.0000000000000000e+00  -1.4998562871283188e-02 1.0704944558693552e-01 0.0000000000000000e+00  -2.2210552025881989e-02 1.1824474777125404e-01 0.0000000000000000e+00  -3.0357970756979370e-02 1.2331356136256584e-01 0.0000000000000000e+00  -3.9256983661790049e-02 1.2327623053178585e-01 0.0000000000000000e+00  -4.8699489571921446e-02 1.1908910507700807e-01 0.0000000000000000e+00  -5.8428312004894754e-02 1.1151576922464589e-01 0.0000000000000000e+00  -6.8118044460562813e-02 1.0109990022443273e-01 0.0000000000000000e+00  -7.7360356989076132e-02 8.8206424348389822e-02 0.0000000000000000e+00  -8.5660045153066661e-02 7.3108323317353049e-02 0.0000000000000000e+00  -9.2456595058138913e-02 5.6099801915790344e-02 0.0000000000000000e+00  -9.7199339897532183e-02 3.7615307796654146e-02 0.0000000000000000e+00  -9.9482264412784557e-02 1.8307302601777365e-02 0.0000000000000000e+00  -9.9331214615356919e-02 -1.1752746056347060e-03 0.0000000000000000e+00  0.0000000000000000e+00 0.0000000000000000e+00 0.0000000000000000e+00  -1.2346242233222031e-03 3.5137395634514006e-02 0.0000000000000000e+00  -4.6824621254127462e-03 6.7948643637687600e-02 0.0000000000000000e+00  -9.9843262384411661e-03 9.4715034043772794e-02 0.0000000000000000e+00  -1.6858039958769045e-02 1.1418753463322992e-01 0.0000000000000000e+00  -2.5090125787106187e-02 1.2652980706133210e-01 0.0000000000000000e+00  -3.4497163664477783e-02 1.3256568278234526e-01 0.0000000000000000e+00  -4.4885796344808229e-02 1.3329798486804989e-01 0.0000000000000000e+00  -5.6020487437923469e-02 1.2963776629810941e-01 0.0000000000000000e+00  -6.7600472098375969e-02 1.2228180345144850e-01 0.0000000000000000e+00  -7.9238914979024758e-02 1.1168933084191832e-01 0.0000000000000000e+00  -9.0441761256539188e-02 9.8125115557504347e-02 0.0000000000000000e+00  -1.0058795104647378e-01 8.1752857418616487e-02 0.0000000000000000e+00  -1.0892381273468357e-01 6.2787607854840916e-02 0.0000000000000000e+00  -1.1462124969173783e-01 4.1700823140839838e-02 0.0000000000000000e+00  -1.1696824375316678e-01 1.9394763791879779e-02 0.0000000000000000e+00  -1.1577214630950276e-01 -3.0214609006324064e-03 0.0000000000000000e+00  0.0000000000000000e+00 0.0000000000000000e+00 0.0000000000000000e+00  -1.3195338696604863e-03 3.7631777566658260e-02 0.0000000000000000e+00  -4.9991909226883751e-03 7.2540070347045404e-02 0.0000000000000000e+00  -1.0685893926546404e-02 1.0109360004387215e-01 0.0000000000000000e+00  -1.8136000968293705e-02 1.2213183901591150e-01 0.0000000000000000e+00  -2.7174446037094305e-02 1.3586560035981093e-01 0.0000000000000000e+00  -3.7638483283095742e-02 1.4311831245142015e-01 0.0000000000000000e+00  -4.9331366713380023e-02 1.4485509521596801e-01 0.0000000000000000e+00  -6.1993022630426040e-02 1.4192488904335551e-01 0.0000000000000000e+00  -7.5283117891513540e-02 1.3494591797273636e-01 0.0000000000000000e+00  -8.8765038589772458e-02 1.2428059949984202e-01 0.0000000000000000e+00  -1.0188545671612327e-01 1.1006649938251764e-01 0.0000000000000000e+00  -1.1392105233473149e-01 9.2311264088900793e-02 0.0000000000000000e+00  -1.2392540643709242e-01 7.1076459673936138e-02 0.0000000000000000e+00  -1.3073111452219255e-01 4.6744669063882013e-02 0.0000000000000000e+00  -1.3313566321540068e-01 2.0386690490847941e-02 0.0000000000000000e+00  -1.3041824701692906e-01 -6.1797141259523746e-03 0.0000000000000000e+00  0.0000000000000000e+00 0.0000000000000000e+00 0.0000000000000000e+00  -1.3352546572113740e-03 4.0224946145886467e-02 0.0000000000000000e+00  -5.0605948033717778e-03 7.7325738470098312e-02 0.0000000000000000e+00  -1.0863846449042289e-02 1.0780745802767387e-01 0.0000000000000000e+00  -1.8570094635928482e-02 1.3060840592807599e-01 0.0000000000000000e+00  -2.8064638612834265e-02 1.4597129902524852e-01 0.0000000000000000e+00  -3.9218226534610531e-02 1.5469250618550762e-01 0.0000000000000000e+00  -5.1836157245065267e-02 1.5767342677183052e-01 0.0000000000000000e+00  -6.5635677400959672e-02 1.5568372661090077e-01 0.0000000000000000e+00  -8.0241459363681933e-02 1.4925739229979154e-01 0.0000000000000000e+00  -9.5188085459267199e-02 1.3866154830892946e-01 0.0000000000000000e+00  -1.0990167527575846e-01 1.2391090591653056e-01 0.0000000000000000e+00  -1.2362014541941314e-01 1.0483015937465999e-01 0.0000000000000000e+00  -1.3531806572912333e-01 8.1171055120379282e-02 0.0000000000000000e+00  -1.4348606590100621e-01 5.2981817849211500e-02 0.0000000000000000e+00  -1.4618498885443537e-01 2.1391700411051550e-02 0.0000000000000000e+00  -1.4157171753258049e-01 -1.0847608437672636e-02 0.0000000000000000e+00  0.0000000000000000e+00 0.0000000000000000e+00 0.0000000000000000e+00  -1.2727238735496934e-03 4.2771741581104833e-02 0.0000000000000000e+00  -4.8245362014225921e-03 8.2047830130424104e-02 0.0000000000000000e+00  -1.0410261814233180e-02 1.1451546839715146e-01 0.0000000000000000e+00  -1.7946238020892669e-02 1.3921682912628258e-01 0.0000000000000000e+00  -2.7396967648856980e-02 1.5640355030087585e-01 0.0000000000000000e+00  -3.8679141196282504e-02 1.6680999076622663e-01 0.0000000000000000e+00  -5.1606105552250155e-02 1.7124181201125821e-01 0.0000000000000000e+00  -6.5874403477168719e-02 1.7037069353107626e-01 0.0000000000000000e+00  -8.1079223541931270e-02 1.6464668113564293e-01 0.0000000000000000e+00  -9.6741969009714310e-02 1.5426653733458759e-01 0.0000000000000000e+00  -1.1230523495683530e-01 1.3916085205284617e-01 0.0000000000000000e+00  -1.2711235296662624e-01 1.1896334102824445e-01 0.0000000000000000e+00  -1.4025051429128874e-01 9.3072047973857208e-02 0.0000000000000000e+00  -1.4996195006839080e-01 6.1104673090715760e-02 0.0000000000000000e+00  -1.5371096069406828e-01 2.3596762902562574e-02 0.0000000000000000e+00  -1.4788677425240931e-01 -1.6550241246207367e-02 0.0000000000000000e+00  0.0000000000000000e+00 0.0000000000000000e+00 0.0000000000000000e+00  -1.1458229611571811e-03 4.5124515538816176e-02 0.0000000000000000e+00  -4.3135767473333284e-03 8.6419425199353722e-02 0.0000000000000000e+00  -9.3168277108792823e-03 1.2080304157477348e-01 0.0000000000000000e+00  -1.6168621724448141e-02 1.4743164602768724e-01 0.0000000000000000e+00  -2.4927622420928681e-02 1.6654121082630827e-01 0.0000000000000000e+00  -3.5570705320466606e-02 1.7876341838141563e-01 0.0000000000000000e+00  -4.7929679350748072e-02 1.8477056971300312e-01 0.0000000000000000e+00  -6.1688046175241248e-02 1.8511392226435003e-01 0.0000000000000000e+00  -7.6417432309126287e-02 1.8016130810999811e-01 0.0000000000000000e+00  -9.1627641461276096e-02 1.7007273009144858e-01 0.0000000000000000e+00  -1.0681841252729665e-01 1.5476170987693699e-01 0.0000000000000000e+00  -1.2154078072456603e-01 1.3382872637297197e-01 0.0000000000000000e+00  -1.3512291071239407e-01 1.0651610928077483e-01 0.0000000000000000e+00  -1.4643539335442962e-01 7.1372998257509437e-02 0.0000000000000000e+00  -1.5286411262706723e-01 2.6959728139923533e-02 0.0000000000000000e+00  -1.4856758146651192e-01 -2.1383379390186731e-02 0.0000000000000000e+00  0.0000000000000000e+00 0.0000000000000000e+00 0.0000000000000000e+00  -1.0058784037978235e-03 4.7181194639293308e-02 0.0000000000000000e+00  -3.6467973842268710e-03 9.0174080763908177e-02 0.0000000000000000e+00  -7.7224590967744479e-03 1.2621760348553876e-01 0.0000000000000000e+00  -1.3329296449446672e-02 1.5462356501309935e-01 0.0000000000000000e+00  -2.0633877280853474e-02 1.7559406813900436e-01 0.0000000000000000e+00  -2.9690110794849917e-02 1.8961548097306150e-01 0.0000000000000000e+00  -4.0366819586094983e-02 1.9718682653110475e-01 0.0000000000000000e+00  -5.2355364154865677e-02 1.9871298228754916e-01 0.0000000000000000e+00  -6.5220014948439417e-02 1.9447271941681452e-01 0.0000000000000000e+00  -7.8468482851501709e-02 1.8460808970124726e-01 0.0000000000000000e+00  -9.1657116939650535e-02 1.6909629185479194e-01 0.0000000000000000e+00  -1.0444532119730686e-01 1.4768243248470919e-01 0.0000000000000000e+00  -1.1661737153284960e-01 1.1959441789920236e-01 0.0000000000000000e+00  -1.2861675614382487e-01 8.3140345745003646e-02 0.0000000000000000e+00  -1.3843614941286150e-01 3.5239148202762839e-02 0.0000000000000000e+00  -1.3510167942399010e-01 -2.1261665908685109e-02 0.0000000000000000e+00  0.0000000000000000e+00 0.0000000000000000e+00 0.0000000000000000e+00  -9.2981961283361309e-04 4.8949714784477072e-02 0.0000000000000000e+00  -3.0030609640591573e-03 9.3117457553789473e-02 0.0000000000000000e+00  -5.8688065422437697e-03 1.3032125223550353e-01 0.0000000000000000e+00  -9.7003813641982663e-03 1.6012171422124988e-01 0.0000000000000000e+00  -1.4778442090799589e-02 1.8266983426358618e-01 0.0000000000000000e+00  -2.1239181432564570e-02 1.9826790242469469e-01 0.0000000000000000e+00  -2.9010186789920012e-02 2.0721097711018588e-01 0.0000000000000000e+00  -3.7830998175868505e-02 2.0973681193757776e-01 0.0000000000000000e+00  -4.7307475912039994e-02 2.0601912598193944e-01 0.0000000000000000e+00  -5.6985844317858941e-02 1.9617312126942155e-01 0.0000000000000000e+00  -6.6444240001992561e-02 1.8025611990262991e-01 0.0000000000000000e+00  -7.5386680859600610e-02 1.5821429949652283e-01 0.0000000000000000e+00  -8.4108423737398935e-02 1.2974999823879776e-01 0.0000000000000000e+00  -9.3347944263771743e-02 9.4383265894619997e-02 0.0000000000000000e+00  -1.0350232336995406e-01 5.0603631476018186e-02 0.0000000000000000e+00  -1.2168308197966145e-01 -2.4950469723066140e-03 0.0000000000000000e+00  0.0000000000000000e+00 0.0000000000000000e+00 0.0000000000000000e+00  -8.8457512054150947e-04 5.0481668308716768e-02 0.0000000000000000e+00  -2.2996175825881447e-03 9.5080360587815105e-02 0.0000000000000000e+00  -3.7430647105570415e-03 1.3275611843994028e-01 0.0000000000000000e+00  -5.4785267615001798e-03 1.6336282171451000e-01 0.0000000000000000e+00  -7.8233776080306513e-03 1.8696707333994778e-01 0.0000000000000000e+00  -1.0940095233577080e-02 2.0367638657810200e-01 0.0000000000000000e+00  -1.4818362023752347e-02 2.1358955573843280e-01 0.0000000000000000e+00  -1.9302708274268943e-02 2.1678657813570473e-01 0.0000000000000000e+00  -2.4134998905839172e-02 2.1333160922207534e-01 0.0000000000000000e+00  -2.9000083329543586e-02 2.0328257422507839e-01 0.0000000000000000e+00  -3.3568074335683734e-02 1.8670238031896208e-01 0.0000000000000000e+00  -3.7617314416669684e-02 1.6365329950361321e-01 0.0000000000000000e+00  -4.1180219152220587e-02 1.3430864965889047e-01 0.0000000000000000e+00  -4.4318495017433637e-02 9.8861825976560708e-02 0.0000000000000000e+00  -5.0291221414836794e-02 5.7655932716264881e-02 0.0000000000000000e+00  -4.3101623507284657e-02 7.6432269572252274e-03 0.0000000000000000e+00  0.0000000000000000e+00 0.0000000000000000e+00 0.0000000000000000e+00  0.0000000000000000e+00 5.1346094533822141e-02 0.0000000000000000e+00  0.0000000000000000e+00 9.5846043129801314e-02 0.0000000000000000e+00  0.0000000000000000e+00 1.3349984578793755e-01 0.0000000000000000e+00  0.0000000000000000e+00 1.6430750250823084e-01 0.0000000000000000e+00  0.0000000000000000e+00 1.8826901329068116e-01 0.0000000000000000e+00  0.0000000000000000e+00 2.0538437813528856e-01 0.0000000000000000e+00  0.0000000000000000e+00 2.1565359704205297e-01 0.0000000000000000e+00  0.0000000000000000e+00 