<?xml version="1.0"?>
<VTKFile type="UnstructuredGrid"  version="0.1"  >
<UnstructuredGrid>
<Piece  NumberOfPoints="289" NumberOfCells="512">
<Points>
<DataArray  type="Float64"  NumberOfComponents="3"  format="ascii">0 0 0  0.0625 0 0  0.125 0 0  0.1875 0 0  0.25 0 0  0.3125 0 0  0.375 0 0  0.4375 0 0  0.5 0 0  0.5625 0 0  0.625 0 0  0.6875 0 0  0.75 0 0  0.8125 0 0  0.875 0 0  0.9375 0 0  1 0 0  0 0.0625 0  0.06258171441438297 0.06248358124516418 0  0.1251664234740576 0.06246682422154397 0  0.1877572468337261 0.06244940769255075 0  0.2503575064331469 0.06243105609407486 0  0.3129708399508678 0.06241156970970876 0  0.37560133294523 0.06239086278225528 0  0.4382536909683451 0.0623690095300513 0  0.5009335009321367 0.06234629378904336 0  0.5636477012421856 0.06232324937980506 0  0.626405562540838 0.06230066079224014 0  0.6892209771561644 0.06227945585207469 0  0.7521182846920055 0.06226032739760717 0  0.8151482347864062 0.06224263655206774 0  0.8784349088182195 0.06222114136618778 0  0.9423238640780154 0.06217509626413493 0  1.007893927866503 0.06202733932086633 0  0 0.125 0  0.06266048403815963 0.1249674884914312 0  0.1253268857523472 0.1249342771282151 0  0.1880053728582753 0.1248996972700687 0  0.2507025243629589 0.1248631655052102 0  0.3134255601594187 0.1248242420488499 0  0.3761826038636304 0.1247827071636147 0  0.4389830101243809 0.1247386578701705 0  0.501837821955053 0.1246926208433128 0  0.5647605017452942 0.1246456645895492 0  0.6277682551034447 0.1245994704924491 0  0.6908846495907589 0.1245562838817035 0  0.7541450046353834 0.1245186197455562 0  0.8176072723962171 0.124488620617533 0  0.8813713823120017 0.1244675037377745 0  0.9455984370264157 0.124458844112545 0  1.010439268570802 0.1244961325125218 0  0 0.1875 0  0.06273337937269979 0.1874520876633503 0  0.1254754264976526 0.1874030723145649 0  0.1882351773469214 0.1873518904204681 0  0.251022286471833 0.1872975902131609 0  0.3138473687360236 0.1872394132232154 0  0.3767223805364076 0.187176906985526 0  0.4396610660445164 0.1871100771428798 0  0.5026795108488484 0.1870395816681555 0  0.5657968751818478 0.1869669573146265 0  0.629036421337071 0.1868948431620636 0  0.6924269691394677 0.1868271201502811 0  0.7560047225872426 0.1867688061613229 0  0.819814296467717 0.1867253995267131 0  0.8839034916042153 0.1867009722895817 0  0.9482935103270862 0.1866926150012544 0  1.012879829314766 0.186669873373004 0  0 0.25 0  0.06279765582518024 0.2499377855468225 0  0.1256064554172037 0.2498740118174055 0  0.1884380163735866 0.249807157889128 0  0.2513047744395331 0.2497358199982119 0  0.3142204325923194 0.2496588061643361 0  0.377200453447783 0.2495752773145692 0  0.4402626095074569 0.2494849529107207 0  0.5034275991351876 0.2493883980949904 0  0.5667197108965967 0.249287402597162 0  0.6301674391984493 0.2491854426760588 0  0.6938037248241261 0.2490881752320655 0  0.7576648790237964 0.2490038296884219 0  0.8217857360587236 0.2489432087062115 0  0.8861853496717217 0.2489187485632979 0  0.9508325638022792 0.2489418339900515 0  1.015580277298964 0.2490188281833423 0  0 0.3125 0  0.06285084939169684 0.3124250407483533 0  0.1257149467083928 0.3123480119182014 0  0.1886061018727782 0.3122668682465916 0  0.2515391292462084 0.3121796572471741 0  0.3145304007243458 0.3120846102837052 0  0.3775984533302776 0.311980294609714 0  0.4407646636439804 0.3118658566748292 0  0.5040539831449306 0.3117413942920051 0  0.5674956780752765 0.3116085008889611 0  0.63112389190647 0.3114710230269198 0  0.6949775614099437 0.3113360502729285 0  0.7590986186437648 0.3112150916345642 0  0.8235263248950138 0.3111252508900147 0  0.8882841142579481 0.3110899669468648 0  0.953354969479145 0.3111385965884388 0  1.018647388071743 0.3113040570976449 0  0 0.375 0  0.06289086814273016 0.3749143640588143 0  0.1257966250978402 0.3748261077619905 0  0.1887327874277955 0.3747326053672432 0  0.2517160403090348 0.3746312624809579 0  0.3147648890223984 0.3745195798543746 0  0.377900388995144 0.374395286723094 0  0.441146981690979 0.3742565857826905 0  0.5045334542136996 0.3741025703474647 0  0.5680940068005875 0.3739338984893711 0  0.6318693220355508 0.3737538358025431 0  0.6959073241849283 0.3735697962827568 0  0.7602629171565446 0.3733954896736787 0  0.82499536651335 0.3732536608385638 0  0.8901614295799007 0.3731790803143996 0  0.9558030378573781 0.3732208121499093 0  1.021932979925752 0.373441843663901 0  0 0.4375 0  0.06291607846873813 0.4374063044450649 0  0.1258481426170768 0.437309428350528 0  0.1888128437799954 0.4372061396335786 0  0.2518281298270881 0.4370931360282113 0  0.3149139797658049 0.4369670524733018 0  0.3780932503612451 0.4368245345709101 0  0.4413926925181813 0.4366624268306387 0  0.5048442143456051 0.4364781544864003 0  0.568486490148906 0.4362704242475676 0  0.6323670294914935 0.4360404365539048 0  0.6965448007506821 0.4357938866541181 0  0.7610933990061466 0.4355441058544122 0  0.8261045087594181 0.4353166643478762 0  0.8916911228294451 0.4351554035660484 0  0.9579902456591164 0.4351288325870787 0  1.025167395829675 0.4353339171335744 0  0 0.5 0  0.06292538339750027 0.4999014178117024 0  0.1258672413713375 0.4997991349139097 0  0.1888427192896258 0.4996893388903303 0  0.251870333148725 0.4995680098787783 0  0.3149707560614705 0.4994308415881271 0  0.3781677472384656 0.4992732073194798 0  0.4414893156681947 0.4990902155552733 0  0.5049692696092809 0.4988769373940549 0  0.568649408403474 0.4986289541943137 0  0.6325827924606559 0.4983434857604038 0  0.6968388077622729 0.4980215382344649 0  0.7615111170346148 0.497671762381711 0  0.8267299468049373 0.4973169584376277 0  0.8926802014933064 0.4970040489268562 0  0.9596264209802827 0.4968168845605763 0  1.027946298173628 0.4968866969615498 0  0 0.5625 0  0.06291828757713157 0.5624002178387677 0  0.1258528907450149 0.5622963199029833 0  0.188820765978598 0.5621840111344726 0  0.2518402452482142 0.5620586303702136 0  0.3149318267913641 0.5619149616910635 0  0.3781191192722668 0.5617470497845406 0  0.4414300518200196 0.5615480441937686 0  0.5048985555192251 0.5613101326536066 0  0.5685671112519323 0.5610246948103267 0  0.6324909330174883 0.5606829486442051 0  0.696745258546987 0.5602776357929476 0  0.7614384229142344 0.5598068000025267 0  0.8267351209651334 0.5592815516368465 0  0.8928958813556598 0.5587406653121451 0  0.9603383434862001 0.558274253299935 0  1.029722403705178 0.5580513319007102 0  0 0.625 0  0.06289494124225907 0.6249031116735478 0  0.1258053816394487 0.6248018711891498 0  0.1887473988560456 0.6246916828505364 0  0.2517383753548675 0.6245674295611454 0  0.3147977373862113 0.6244231671317816 0  0.3779478262481585 0.6242517654119721 0  0.4412150024365398 0.6240444849605077 0  0.5046311820448195 0.6237904956380003 0  0.5682362324612897 0.6234763911926393 0  0.6320821728083778 0.623085874313508 0  0.6962412711937671 0.6226000822937261 0  0.7608225326847862 0.6219997388585669 0  0.8260056092889058 0.6212719947902181 0  0.8921079989610656 0.6204283346654712 0  0.9597061989895903 0.6195445701683179 0  1.029822370706079 0.6188263326965233 0  0 0.6875 0  0.06285615518109125 0.6874103276266206 0  0.125726359371354 0.6873163157885493 0  0.1886251533969895 0.6872133340556 0  0.2515682436256428 0.6870961109735179 0  0.314573139211184 0.6869583282269769 0  0.3776598694282809 0.6867920996797418 0  0.4408518310342125 0.6865872775119646 0  0.5041768720791268 0.6863305127483311 0  0.5676688830454863 0.6860039876500819 0  0.6313706334241777 0.6855837590374186 0  0.69533988108985 0.6850377927396505 0  0.7596642076237342 0.6843243279149209 0  0.8244986112711221 0.6833932090053567 0  0.8901589213785408 0.6821997000931662 0  0.9573333574408798 0.680761502607891 0  1.02746845823074 0.6793202604456989 0  0 0.75 0  0.06280338117465716 0.7499218463307475 0  0.1256187827775446 0.7498396675152256 0  0.1884586178266107 0.7497491302931646 0  0.2513362755508691 0.7496452096170849 0  0.3142666276165576 0.7495217274641521 0  0.37726654997382 0.7493707275415374 0  0.4403554364798122 0.7491815852554464 0  0.5035556506576954 0.7489397000619457 0  0.5668928412888792 0.7486245327270159 0  0.6303961422403066 0.748206615474329 0  0.6940989228202069 0.747642960831875 0  0.7580435454702298 0.7468700697200163 0  0.8223039703958313 0.7457940142987113 0  0.887075398610162 0.7442814205353447 0  0.9529853762518151 0.7421863902293654 0  1.021855990869709 0.7396465228403845 0  0 0.8125 0  0.06273865709793061 0.8124373496577765 0  0.1254868086344258 0.8123713102014818 0  0.188254240890878 0.8122982071786394 0  0.2510514983105263 0.8122137171819638 0  0.3138902552099534 0.8121124194641292 0  0.3767836559225743 0.8119871658570986 0  0.4397465402062576 0.8118281465851741 0  0.5027953536443858 0.8116214528479223 0  0.5659472942076842 0.8113468000521615 0  0.6292177465411546 0.8109738222627424 0  0.6926141771920552 0.8104558480227658 0  0.7561237403960275 0.8097189788212251 0  0.8196944164474761 0.808641684956662 0  0.883236680868114 0.8070138693833656 0  0.9468434793790484 0.8044554270432855 0  1.012618131263387 0.8003789903918785 0  0 0.875 0  0.06266452111199047 0.8749562015753325 0  0.1253356131056216 0.8749099488963615 0  0.1880200418987119 0.8748585673765934 0  0.2507250979393382 0.8747988770567927 0  0.313458845197124 0.8747268349767734 0  0.3762303295002369 0.8746370208988854 0  0.4390496546094888 0.8745218553738435 0  0.5019276921558194 0.8743703642891941 0  0.5648748428220474 0.8741661688272812 0  0.6278973965973453 0.8738841311107183 0  0.6909878405751353 0.8734846035414994 0  0.7540998899356507 0.8729031536936728 0  0.8170853116617238 0.8720304870606981 0  0.8795395343482729 0.87066482237849 0  0.9404618804497771 0.8683599075161141 0  0.9977536399456856 0.8637787783507463 0  0 0.9375 0  0.06258390287353859 0.9374774711219406 0  0.1251711694669215 0.9374536532234561 0  0.1877652635623707 0.937427137234462 0  0.2503699236102324 0.9373962373861632 0  0.3129892949363234 0.9373587926474031 0  0.3756280429980111 0.9373118773415785 0  0.4382913986152457 0.9372513547452309
[...]
<PointData  Vectors="f_95-0"> 
<DataArray  type="Float64"  Name="f_95-0"  NumberOfComponents="3" format="ascii">0.0000000000000000e+00 0.0000000000000000e+00 0.0000000000000000e+00  3.1483459349723579e-04 4.0811790138957284e-02 0.0000000000000000e+00  8.4237830005316067e-04 6.5347951969197154e-02 0.0000000000000000e+00  1.4273832468890846e-03 7.7493852979469049e-02 0.0000000000000000e+00  2.0803656014164221e-03 8.0859184270469675e-02 0.0000000000000000e+00  2.7881022515072774e-03 7.8535628611037175e-02 0.0000000000000000e+00  3.5290439043899067e-03 7.2900409756075660e-02 0.0000000000000000e+00  4.2693742993847690e-03 6.5612364577799398e-02 0.0000000000000000e+00  4.9663937004645851e-03 5.7712584226208001e-02 0.0000000000000000e+00  5.5723670803469443e-03 4.9769301102385935e-02 0.0000000000000000e+00  6.0376794491918441e-03 4.2025900995801772e-02 0.0000000000000000e+00  6.3129061635057368e-03 3.4530068053784661e-02 0.0000000000000000e+00  6.3503152855927175e-03 2.7234527816808813e-02 0.0000000000000000e+00  6.1020668779871289e-03 2.0070523126693034e-02 0.0000000000000000e+00  5.5102690510349418e-03 1.2992546182656389e-02 0.0000000000000000e+00  4.5147724258540363e-03 5.9589387115290757e-03 0.0000000000000000e+00  1.4407701287029936e-03 -1.4323992696927928e-03 0.0000000000000000e+00  0.0000000000000000e+00 0.0000000000000000e+00 0.0000000000000000e+00  2.0734018967294773e-04 4.0401444059696992e-02 0.0000000000000000e+00  5.9888476767697900e-04 6.4866550706881992e-02 0.0000000000000000e+00  1.0322766249621549e-03 7.6933922392003987e-02 0.0000000000000000e+00  1.5193539078206225e-03 8.0214488441342963e-02 0.0000000000000000e+00  2.0533647544166188e-03 7.7816366587733471e-02 0.0000000000000000e+00  2.6177637780229667e-03 7.2134860621466373e-02 0.0000000000000000e+00  3.1808546346419114e-03 6.4841257613378625e-02 0.0000000000000000e+00  3.7024876859362032e-03 5.6982848649837423e-02 0.0000000000000000e+00  4.1386134345299617e-03 4.9128910129706896e-02 0.0000000000000000e+00  4.4448113343707020e-03 4.1520234932093739e-02 0.0000000000000000e+00  4.5787316846740787e-03 3.4199496761301885e-02 0.0000000000000000e+00  4.5019593564025974e-03 2.7113107990118315e-02 0.0000000000000000e+00  4.1813750444195984e-03 2.0183165384734556e-02 0.0000000000000000e+00  3.6034363435253026e-03 1.3349502857981704e-02 0.0000000000000000e+00  2.7768947864202642e-03 6.5873378238621907e-03 0.0000000000000000e+00  1.9571538071389907e-03 -2.9677955039292487e-04 0.0000000000000000e+00  0.0000000000000000e+00 0.0000000000000000e+00 0.0000000000000000e+00  5.8407592699019897e-06 4.0251648946199210e-02 0.0000000000000000e+00  2.6250244118896424e-05 6.4681563930142474e-02 0.0000000000000000e+00  4.4468834046020862e-05 7.6700630782996840e-02 0.0000000000000000e+00  9.0104649970833736e-05 7.9909736546009802e-02 0.0000000000000000e+00  1.6990782414160914e-04 7.7441881376109245e-02 0.0000000000000000e+00  2.7382531613961671e-04 7.1715081517025020e-02 0.0000000000000000e+00  3.7492248396648486e-04 6.4413622737651249e-02 0.0000000000000000e+00  4.3992310285698475e-04 5.6589238424785603e-02 0.0000000000000000e+00  4.3522791419185123e-04 4.8809405563563689e-02 0.0000000000000000e+00  3.3117036737751013e-04 4.1309174991849364e-02 0.0000000000000000e+00  1.0447688747038740e-04 3.4123012366564960e-02 0.0000000000000000e+00  -2.5969160407976070e-04 2.7186543606688578e-02 0.0000000000000000e+00  -7.6214103476976425e-04 2.0405265440437911e-02 0.0000000000000000e+00  -1.3779057627639796e-03 1.3688057363779326e-02 0.0000000000000000e+00  -2.0327061943448263e-03 6.9368476491691398e-03 0.0000000000000000e+00  -2.6879518156103263e-03 1.3415998551642358e-04 0.0000000000000000e+00  0.0000000000000000e+00 0.0000000000000000e+00 0.0000000000000000e+00  -2.1536004504279778e-04 4.0467755599170388e-02 0.0000000000000000e+00  -6.8238511156570728e-04 6.4976484937928999e-02 0.0000000000000000e+00  -1.2461637404811835e-03 7.6991264715170607e-02 0.0000000000000000e+00  -1.8235200554234164e-03 8.0151421304719667e-02 0.0000000000000000e+00  -2.3866764942465216e-03 7.7628093691182509e-02 0.0000000000000000e+00  -2.9395114959629557e-03 7.1865090824161704e-02 0.0000000000000000e+00  -3.5030862334510982e-03 6.4558293102840253e-02 0.0000000000000000e+00  -4.1009136994862271e-03 5.6759670895961796e-02 0.0000000000000000e+00  -4.7508222855309071e-03 4.9029746666327520e-02 0.0000000000000000e+00  -5.4606025084092463e-03 4.1593035134218311e-02 0.0000000000000000e+00  -6.2269527838700999e-03 3.4472213389423911e-02 0.0000000000000000e+00  -7.0363862592098579e-03 2.7590751995123643e-02 0.0000000000000000e+00  -7.8666630555398638e-03 2.0840939248836583e-02 0.0000000000000000e+00  -8.6927213606719546e-03 1.4117229369714039e-02 0.0000000000000000e+00  -9.5005602246256409e-03 7.3317673087483588e-03 0.0000000000000000e+00  -1.0273554113023740e-02 4.6135427371483105e-04 0.0000000000000000e+00  0.0000000000000000e+00 0.0000000000000000e+00 0.0000000000000000e+00  -4.3791543151447377e-04 4.1078808052606226e-02 0.0000000000000000e+00  -1.4229866760801532e-03 6.5846613880580593e-02 0.0000000000000000e+00  -2.6435710272564553e-03 7.7934097784175232e-02 0.0000000000000000e+00  -3.9466920982336841e-03 8.1085545866646430e-02 0.0000000000000000e+00  -5.2787380477716537e-03 7.8535316194339275e-02 0.0000000000000000e+00  -6.6356325095764043e-03 7.2758887829457913e-02 0.0000000000000000e+00  -8.0307854009654851e-03 6.5460654833047416e-02 0.0000000000000000e+00  -9.4741084974651561e-03 5.7686130760904682e-02 0.0000000000000000e+00  -1.0961448367134956e-02 4.9981703300363049e-02 0.0000000000000000e+00  -1.2471040084350293e-02 4.2555538080494601e-02 0.0000000000000000e+00  -1.3965159091507206e-02 3.5415882562222785e-02 0.0000000000000000e+00  -1.5396565433819467e-02 2.8477472481643330e-02 0.0000000000000000e+00  -1.6719487634785892e-02 2.1634289757281360e-02 0.0000000000000000e+00  -1.7911098128153044e-02 1.4801199300347519e-02 0.0000000000000000e+00  -1.8984225714909177e-02 7.9269509722012330e-03 0.0000000000000000e+00  -2.0015306099856710e-02 9.6045141558090635e-04 0.0000000000000000e+00  0.0000000000000000e+00 0.0000000000000000e+00 0.0000000000000000e+00  -6.4664895107233449e-04 4.2078469595421997e-02 0.0000000000000000e+00  -2.1341153185026104e-03 6.7312488154387312e-02 0.0000000000000000e+00  -4.0220509524943864e-03 7.9583659737720178e-02 0.0000000000000000e+00  -6.0977555381356513e-03 8.2799023637168304e-02 0.0000000000000000e+00  -8.2864336089768093e-03 8.0282267590508077e-02 0.0000000000000000e+00  -1.0576251440647529e-02 7.4545545575114502e-02 0.0000000000000000e+00  -1.2970082678866662e-02 6.7296042692279900e-02 0.0000000000000000e+00  -1.5457735287664334e-02 5.9563418665514851e-02 0.0000000000000000e+00  -1.8003830852095497e-02 5.1870653190042346e-02 0.0000000000000000e+00  -2.0545851274979737e-02 4.4402603779872818e-02 0.0000000000000000e+00  -2.2998938947509161e-02 3.7150210127388401e-02 0.0000000000000000e+00  -2.5267635403574466e-02 3.0023146978475568e-02 0.0000000000000000e+00  -2.7264589753926847e-02 2.2931265364571959e-02 0.0000000000000000e+00  -2.8945428496618891e-02 1.5834106898678476e-02 0.0000000000000000e+00  -3.0335934375906697e-02 8.7475150158335385e-03 0.0000000000000000e+00  -3.1603377470853032e-02 1.6489514860686060e-03 0.0000000000000000e+00  0.0000000000000000e+00 0.0000000000000000e+00 0.0000000000000000e+00  -8.3003532406595356e-04 4.3432147907023655e-02 0.0000000000000000e+00  -2.7708809716767229e-03 6.9344811495580486e-02 0.0000000000000000e+00  -5.2923729798039758e-03 8.1942990567645188e-02 0.0000000000000000e+00  -8.1506068854911885e-03 8.5341525418280675e-02 0.0000000000000000e+00  -1.1265197522193654e-02 8.2970914577565905e-02 0.0000000000000000e+00  -1.4620909155322465e-02 7.7378213276165730e-02 0.0000000000000000e+00  -1.8206014079437432e-02 7.0262318899596832e-02 0.0000000000000000e+00  -2.1980153581386008e-02 6.2623779612190067e-02 0.0000000000000000e+00  -2.5863014569020439e-02 5.4950547641047447e-02 0.0000000000000000e+00  -2.9735303757722181e-02 4.7395443778408895e-02 0.0000000000000000e+00  -3.3446326497064943e-02 3.9926263172253111e-02 0.0000000000000000e+00  -3.6828119436294424e-02 3.2446392807641736e-02 0.0000000000000000e+00  -3.9718586443021092e-02 2.4889355395760687e-02 0.0000000000000000e+00  -4.2013315249870037e-02 1.7282772797968426e-02 0.0000000000000000e+00  -4.3717409187268984e-02 9.7604769404370986e-03 0.0000000000000000e+00  -4.5098525301950493e-02 2.4103390431200983e-03 0.0000000000000000e+00  0.0000000000000000e+00 0.0000000000000000e+00 0.0000000000000000e+00  -9.7422412374610287e-04 4.5082561858680245e-02 0.0000000000000000e+00  -3.2850455255988278e-03 7.1875825350984482e-02 0.0000000000000000e+00  -6.3661572677714221e-03 8.4977157739844281e-02 0.0000000000000000e+00  -9.9871728203174744e-03 8.8739840719514920e-02 0.0000000000000000e+00  -1.4088071835580330e-02 8.6702561913140630e-02 0.0000000000000000e+00  -1.8657847008093021e-02 8.1432259892575645e-02 0.0000000000000000e+00  -2.3663960437538680e-02 7.4599336991901272e-02 0.0000000000000000e+00  -2.9021163654699172e-02 6.7156859211144088e-02 0.0000000000000000e+00  -3.4585598178234020e-02 5.9543706802034253e-02 0.0000000000000000e+00  -4.0161308634639910e-02 5.1869736138443312e-02 0.0000000000000000e+00  -4.5508846773001752e-02 4.4070098254122336e-02 0.0000000000000000e+00  -5.0357044768016550e-02 3.6033289216600012e-02 0.0000000000000000e+00  -5.4424006303958099e-02 2.7711098878027831e-02 0.0000000000000000e+00  -5.7481016665846006e-02 1.9214486317278994e-02 0.0000000000000000e+00  -5.9440361505345859e-02 1.0867058556007083e-02 0.0000000000000000e+00  -6.0643998881772618e-02 2.9956876166886953e-03 0.0000000000000000e+00  0.0000000000000000e+00 0.0000000000000000e+00 0.0000000000000000e+00  -1.0576188853539212e-03 4.6941243011969003e-02 0.0000000000000000e+00  -3.6068365875563005e-03 7.4792655180421969e-02 0.0000000000000000e+00  -7.1222972608957292e-03 8.8611416284668773e-02 0.0000000000000000e+00  -1.1450064247364370e-02 9.2999651242606979e-02 0.0000000000000000e+00  -1.6585017028597212e-02 9.1581435276938794e-02 0.0000000000000000e+00  -2.2528311266520225e-02 8.6908852577183768e-02 0.0000000000000000e+00  -2.9215726349389556e-02 8.0591122043548846e-02 0.0000000000000000e+00  -3.6496337070374550e-02 7.3509652014011814e-02 0.0000000000000000e+00  -4.4139628600578448e-02 6.6038879481660359e-02 0.0000000000000000e+00  -5.1850559930602613e-02 5.8236065882515217e-02 0.0000000000000000e+00  -5.9279168767527847e-02 4.9992841799075149e-02 0.0000000000000000e+00  -6.6025077026066067e-02 4.1158647841819357e-02 0.0000000000000000e+00  -7.1634022941125017e-02 3.1670398195756413e-02 0.0000000000000000e+00  -7.5652743129616895e-02 2.1718044169308229e-02 0.0000000000000000e+00  -7.7761677444117189e-02 1.1891832210179131e-02 0.0000000000000000e+00  -7.8255171336637119e-02 2.9458722386815758e-03 0.0000000000000000e+00  0.0000000000000000e+00 0.0000000000000000e+00 0.0000000000000000e+00  -1.0456980527907354e-03 4.8871196519376742e-02 0.0000000000000000e+00  -3.6292812202682254e-03 7.7918151030263186e-02 0.0000000000000000e+00  -7.3800672197262118e-03 9.2716386148020524e-02 0.0000000000000000e+00  -1.2304224429747067e-02 9.8094251994807355e-02 0.0000000000000000e+00  -1.8490720867171455e-02 9.7703292166964925e-02 0.0000000000000000e+00  -2.5955936613411747e-02 9.4019893960738538e-02 0.0000000000000000e+00  -3.4584785369506453e-02 8.8544824135727354e-02 0.0000000000000000e+00  -4.4132551759673261e-02 8.2058872064808497e-02 0.0000000000000000e+00  -5.4253965677278568e-02 7.4859612164867417e-02 0.0000000000000000e+00  -6.4532579451508337e-02 6.6948259221597695e-02 0.0000000000000000e+00  -7.4499363846166927e-02 5.8160808171161302e-02 0.0000000000000000e+00  -8.3613494019754500e-02 4.8274357349818643e-02 0.0000000000000000e+00  -9.1204267263354857e-02 3.7156612485304261e-02 0.0000000000000000e+00  -9.6481215655532457e-02 2.4995102142094557e-02 0.0000000000000000e+00  -9.8650648761248405e-02 1.2638417535968876e-02 0.0000000000000000e+00  -9.7648866671312756e-02 1.5447487429270446e-03 0.0000000000000000e+00  0.0000000000000000e+00 0.0000000000000000e+00 0.0000000000000000e+00  -8.8741451574693637e-04 5.0662027026895581e-02 0.0000000000000000e+00  -3.2004989568441057e-03 8.0983723965307522e-02 0.0000000000000000e+00  -6.8890397610413831e-03 9.7085488674530734e-02 0.0000000000000000e+00  -1.2221940994984659e-02 1.0394279991106833e-01 0.0000000000000000e+00  -1.9417274131304028e-02 1.0512763435719434e-01 0.0000000000000000e+00  -2.8497149297252816e-02 1.0294907317990563e-01 0.0000000000000000e+00  -3.9264735222796492e-02 9.8738533531250339e-02 0.0000000000000000e+00  -5.1345544738152803e-02 9.3146139790161550e-02 0.0000000000000000e+00  -6.4247523095725012e-02 8.6387096467689675e-02 0.0000000000000000e+00  -7.7416710899549240e-02 7.8414085426450175e-02 0.0000000000000000e+00  -9.0268197928407234e-02 6.9018458852969450e-02 0.0000000000000000e+00  -1.0213377405023985e-01 5.7896243541570816e-02 0.0000000000000000e+00  -1.1217771851868824e-01 4.4713567321890052e-02 0.0000000000000000e+00  -1.1918890951858446e-01 2.9378689643956391e-02 0.0000000000000000e+00  -1.2148939415270808e-01 1.2894715307469643e-02 0.0000000000000000e+00  -1.1803345093004487e-01 -2.1262026022816679e-03 0.0000000000000000e+00  0.0000000000000000e+00 0.0000000000000000e+00 0.0000000000000000e+00  -5.1675286399127402e-04 5.2004439415128105e-02 0.0000000000000000e+00  -2.1362303368190733e-03 8.3607229859432586e-02 0.0000000000000000e+00  -5.3568622532463861e-03 1.0141689903557073e-01 0.0000000000000000e+00  -1.0817431486610992e-02 1.1038412285245908e-01 0.0000000000000000e+00  -1.8878512646176657e-02 1.1383202457144755e-01 0.0000000000000000e+00  -2.9536823149949910e-02 1.1378162357890655e-01 0.0000000000000000e+00  -4.2471044331568904e-02 1.1132723480121769e-01 0.0000000000000000e+00  -5.7138066507341885e-02 1.0696266475565715e-01 0.0000000000000000e+00  -7.2871027121420018e-02 1.0082481684693007e-01 0.0000000000000000e+00  -8.8964551223870494e-02 9.2847614042624524e-02 0.0000000000000000e+00  -1.0471609396572361e-01 8.2828293698095412e-02 0.0000000000000000e+00  -1.1942028922119284e-01 7.0379436608557028e-02 0.0000000000000000e+00  -1.3225838749568930e-01 5.4833795781388001e-02 0.0000000000000000e+00  -1.4156965755433282e-01 3.5588818187061347e-02 0.0000000000000000e+00  -1.4460313238055675e-01 1.3221766025747332e-02 0.0000000000000000e+00  -1.3806422931594017e-01 -8.8898690254386303e-03 0.0000000000000000e+00  0.0000000000000000e+00 0.0000000000000000e+00 0.0000000000000000e+00  1.3152572994954700e-04 5.2479890310868173e-02 0.0000000000000000e+00  -2.7918521991083817e-04 8.5301142109520986e-02 0.0000000000000000e+00  -2.5557254668877555e-03 1.0531969937494971e-01 0.0000000000000000e+00  -7.7761666461467135e-03 1.1715296554860194e-01 0.0000000000000000e+00  -1.6407736260825857e-02 1.2364317359388391e-01 0.0000000000000000e+00  -2.8363768005305864e-02 1.2638951281595556e-01 0.0000000000000000e+00  -4.3153935413686936e-02 1.2619035714842489e-01 0.0000000000000000e+00  -6.0042809203118420e-02 1.2337001070449929e-01 0.0000000000000000e+00  -7.8179190112520933e-02 1.1800141391868657e-01 0.0000000000000000e+00  -9.6692696878340464e-02 1.1004010224886293e-01 0.0000000000000000e+00  -1.1476935432977418e-01 9.9355379973972105e-02 0.0000000000000000e+00  -1.3176041001786407e-01 8.5614904910757433e-02 0.0000000000000000e+00  -1.4697758764017810e-01 6.8064538527625160e-02 0.0000000000000000e+00  -1.5903120007071692e-01 4.5043988431505456e-02 0.0000000000000000e+00  -1.6471928629214991e-01 1.4429677599030934e-02 0.0000000000000000e+00  -1.5613526366364144e-01 -1.8680794002804191e-02 0.0000000000000000e+00  0.0000000000000000e+00 0.0000000000000000e+00 0.0000000000000000e+00  1.0712368766454706e-03 5.1612439734984993e-02 0.0000000000000000e+00  2.3378245631210134e-03 8.5564813180913885e-02 0.0000000000000000e+00  1.4181653277408849e-03 1.0837619117665745e-01 0.0000000000000000e+00  -3.1498527699632167e-03 1.2386426884571493e-01 0.0000000000000000e+00  -1.1826751542629339e-02 1.3413179316589158e-01 0.0000000000000000e+00  -2.4370130954729043e-02 1.4024966717269752e-01 0.0000000000000000e+00  -4.0104987167251971e-02 1.4269680706680302e-01 0.0000000000000000e+00  -5.8129762844020681e-02 1.4163814961389695e-01 0.0000000000000000e+00  -7.7449437960329853e-02 1.3710053321464044e-01 0.0000000000000000e+00  -9.7058006359624277e-02 1.2908021503661884e-01 0.0000000000000000e+00  -1.1603427603844343e-01 1.1758277511932630e-01 0.0000000000000000e+00  -1.3364738044003238e-01 1.0256649816352921e-01 0.0000000000000000e+00  -1.4944335003332609e-01 8.3445709806075519e-02 0.0000000000000000e+00  -1.6382807022552948e-01 5.7520510927765639e-02 0.0000000000000000e+00  -1.7414761270590423e-01 1.9227277602370783e-02 0.0000000000000000e+00  -1.6511073764137804e-01 -2.8793404866505758e-02 0.0000000000000000e+00  0.0000000000000000e+00 0.0000000000000000e+00 0.0000000000000000e+00  2.1180305667100846e-03 4.9064029891289440e-02 0.0000000000000000e+00  5.1065271509201718e-03 8.4127022495263812e-02 0.0000000000000000e+00  5.6098431561504092e-03 1.1027354087461895e-01 0.0000000000000000e+00  2.0870756220318044e-03 1.2997892323795784e-01 0.0000000000000000e+00  -5.7322179965626106e-03 1.4442775420144688e-01 0.0000000000000000e+00  -1.7419518552609085e-02 1.5414954637628431e-01 0.0000000000000000e+00  -3.2188322116651867e-02 1.5934541624638118e-01 0.0000000000000000e+00  -4.9097794127255762e-02 1.6006295180406446e-01 0.0000000000000000e+00  -6.7153495088586854e-02 1.5629964802829879e-01 0.0000000000000000e+00  -8.5350613994665883e-02 1.4807335611796130e-01 0.0000000000000000e+00  -1.0269652318005730e-01 1.3548489769798375e-01 0.0000000000000000e+00  -1.1821462737333005e-01 1.1874884226360750e-01 0.0000000000000000e+00  -1.3147192914459005e-01 9.8026011808347982e-02 0.0000000000000000e+00  -1.4340041353303784e-01 7.2895119523360016e-02 0.0000000000000000e+00  -1.5574290917073308e-01 3.7436399601453112e-02 0.0000000000000000e+00  -1.6687379398346730e-01 -2.5958173763128978e-02 0.0000000000000000e+00  0.0000000000000000e+00 0.0000000000000000e+00 0.0000000000000000e+00  2.5006608066287478e-03 4.5220392822199196e-02 0.0000000000000000e+00  6.0212145954434684e-03 8.1504230030398597e-02 0.0000000000000000e+00  7.2224722672916417e-03 1.1104093759507336e-01 0.0000000000000000e+00  5.1212518402497728e-03 1.3472842293579737e-01 0.0000000000000000e+00  -2.4658597144659093e-04 1.5292119559089887e-01 0.0000000000000000e+00  -8.4100281206799226e-03 1.6575109877916569e-01 0.0000000000000000e+00  -1.8721078575134827e-02 1.7325506442837788e-01 0.0000000000000000e+00  -3.0480041230212033e-02 1.7543063955628097e-01 0.0000000000000000e+00  -4.2980606882662545e-02 1.7226712086943469e-01 0.0000000000000000e+00  -5.5510314112134675e-02 1.6377045008022004e-01 0.0000000000000000e+00  -6.7298404810373455e-02 1.4999694654356746e-01 0.0000000000000000e+00  -7.7469910321966359e-02 1.3108547049639849e-01 0.0000000000000000e+00  -8.4994572848543046e-02 1.0744705435691025e-01 0.0000000000000000e+00  -8.7999603384191785e-02 7.9653707947643732e-02 0.0000000000000000e+00  -8.8949656409987754e-02 4.6280848599701635e-02 0.0000000000000000e+00  -7.6512936615678401e-02 -3.0506678765691085e-03 0.0000000000000000e+00  0.0000000000000000e+00 -3.4188009056772156e-18 0.0000000000000000e+00  0.0000000000000000e+00 4.2713005512971629e-02 0.0000000000000000e+00  0.0000000000000000e+00 7.9730943624213707e-02 0.0000000000000000e+00  0.0000000000000000e+00 1.1105381433372626e-01 0.0000000000000000e+00  0.0000000000000000e+00 1.3668161764150921e-01 0.0000000000000000e+00  0.0000000000000000e+00 1.5661435354756265e-01 0.0000000000000000e+00  0.0000000000000000e+00 1.7085202205188652e-01 0.0000000000000000e+00  0.0000000000000000e+00 1.7939462315448085e-01 0.0000000000000000e+00  0.0000000000000000e+00 1.8224215685534562e-01 0.0000000000000000e+00  0.000000