<?xml version="1.0"?>
<VTKFile type="UnstructuredGrid"  version="0.1"  >
<UnstructuredGrid>
<Piece  NumberOfPoints="289" NumberOfCells="512">
<Points>
<DataArray  type="Float64"  NumberOfComponents="3"  format="ascii">0 0 0  0.0625 0 0  0.125 0 0  0.1875 0 0  0.25 0 0  0.3125 0 0  0.375 0 0  0.4375 0 0  0.5 0 0  0.5625 0 0  0.625 0 0  0.6875 0 0  0.75 0 0  0.8125 0 0  0.875 0 0  0.9375 0 0  1 0 0  0 0.0625 0  0.0624422242023269 0.06248638851968606 0  0.1248832131475913 0.06247253419401861 0  0.1873217781725286 0.06245821547572519 0  0.2497568974087774 0.06244326247204202 0  0.3121878380700484 0.06242759069791545 0  0.3746143308069044 0.06241124355274497 0  0.4370368206276137 0.06239444419395417 0  0.4994568274614037 0.0623776541394759 0  0.5618774663921771 0.06236162996761564 0  0.6243042153758828 0.06234746020326754 0  0.6867461095875494 0.06233655316877695 0  0.749217769298837 0.0623305423407208 0  0.8117432219242374 0.06233111606666177 0  0.8743636424998076 0.06234001099592265 0  0.9371521351996963 0.06236050747259823 0  1.000226161495521 0.06240828739325088 0  0 0.125 0  0.0623857438037316 0.1249730162355169 0  0.12476895174171 0.1249455218390302 0  0.1871471719221519 0.124917045677886 0  0.2495182608654303 0.1248872135664978 0  0.311880614492376 0.1248558135162403 0  0.3742335021605531 0.1248228802215422 0  0.4365775520077361 0.1247888018907064 0  0.4989154507884734 0.124754446833468 0  0.5612529472612716 0.1247212960288476 0  0.62360029780962 0.1246915481862289 0  0.6859743942660834 0.1246681329194312 0  0.7484020175824116 0.1246545268206449 0  0.8109250243648508 0.1246542306305242 0  0.8736087468386402 0.124669773099582 0  0.9365552674457218 0.1247011359486172 0  0.9999282688365451 0.1247419412637951 0  0 0.1875 0  0.0623318998066346 0.1874601539849873 0  0.1246598328909395 0.1874194836625749 0  0.1869799325158225 0.1873772159896168 0  0.249288724958898 0.1873327066533916 0  0.3115834360567025 0.1872855312703607 0  0.3738624458317367 0.1872356090574603 0  0.4361259596360325 0.1871833677868724 0  0.4983769807583514 0.1871299532112108 0  0.5606226903731361 0.1870774728325269 0  0.6228763658554672 0.1870292363322457 0  0.6851599927430165 0.1869899022948119 0  0.7475077196685287 0.1869653432302758 0  0.8099701550865003 0.1869618517040719 0  0.8726188844291252 0.1869838826631772 0  0.935548957749452 0.1870283468368132 0  0.9988748233942278 0.1870700229694056 0  0 0.25 0  0.06228216147996895 0.2499481181274371 0  0.1245587581986748 0.2498950383625873 0  0.1868243094295101 0.2498396157626889 0  0.2490737270446032 0.2497808441946126 0  0.311302647266445 0.2497179630025447 0  0.3735079463544379 0.2496506114553792 0  0.4356885262452264 0.2495790494536101 0  0.4978464736895907 0.2495044614440421 0  0.5599887096145943 0.2494293516880429 0  0.6221292399574763 0.2493580142784106 0  0.6842920630530855 0.2492970049788506 0  0.7465146126013434 0.2492554276714964 0  0.8088511828536069 0.2492446363298819 0  0.871374887185106 0.2492766080504339 0  0.9341752539449102 0.2493598725173161 0  0.9973471525935036 0.2494924849139963 0  0 0.3125 0  0.06223815468699755 0.3124372841665453 0  0.1244689837967587 0.3123729337696128 0  0.1866851899740688 0.3123053552120576 0  0.2488797615309502 0.3122330734925259 0  0.3110462649227733 0.3121548372885077 0  0.3731793447602041 0.3120697862612272 0  0.4352755348729521 0.3119777117022291 0  0.4973345086491532 0.3118794489281176 0  0.5593609147132886 0.3117774443453193 0  0.621366933109425 0.3116765335288831 0  0.683375604069907 0.3115849313153907 0  0.7454247521343259 0.3115153376334969 0  0.8075708587478837 0.3114858519500281 0  0.8698915020749231 0.3115200139526871 0  0.9324843157388513 0.3116447847059906 0  0.9954610268480453 0.3118849235473969 0  0 0.375 0  0.06220164951322712 0.3749280894998969 0  0.1243941056127333 0.3748540562087506 0  0.1865681033878893 0.3747757899557321 0  0.2487144379989391 0.3746912415345412 0  0.3108241426035039 0.3745985020081075 0  0.3728888795672069 0.3744959525226175 0  0.4349016658727078 0.374382528063473 0  0.4968580963161842 0.3742581584231486 0  0.5587582733687074 0.3741244760675103 0  0.620609679982269 0.3739859097415931 0  0.6824311965774977 0.3738512997907952 0  0.74425828845981 0.3737361367698437 0  0.8061489806820322 0.3736653533035928 0  0.8681895814503994 0.3736761434460154 0  0.9304985379936078 0.3738193792927048 0  0.9932272848943324 0.3741568420143235 0  0 0.4375 0  0.06217449928116513 0.437421021517323 0  0.1243379424459315 0.4373394096153572 0  0.1864790595940919 0.4372524982234479 0  0.2485862977820822 0.4371575844811627 0  0.3106478032302417 0.4370519526843314 0  0.372651594949066 0.4369329642117748 0  0.4345860623616155 0.4367982632962222 0  0.4964409903957861 0.4366461811969984 0  0.5582094136094441 0.4364764740823485 0  0.6198907193403503 0.436291609962595 0  0.6814955256301616 0.4360989281121053 0  0.7430528668163032 0.4359141034945052 0  0.8046199643934291 0.4357663522814657 0  0.8662941401110836 0.4357054368399532 0  0.9282252700665451 0.435809269161808 0  0.9906265627456512 0.4361883454466916 0  0 0.5 0  0.06215852771632743 0.4999165882498324 0  0.1243043083771287 0.4998300574957725 0  0.1864242050018405 0.4997371967663516 0  0.2485043567441338 0.4996346254987379 0  0.3105298872897703 0.4995187321703274 0  0.3724847425659035 0.4993856558046732 0  0.4343517840270427 0.4992313541239624 0  0.4961133652432648 0.499051841770606 0  0.5577527871229796 0.4988437552326628 0  0.6192572870851917 0.4986055330767389 0  0.680623580406073 0.4983397274420136 0  0.7418673779337712 0.4980573190704213 0  0.8030385027686767 0.4977853529183928 0  0.8642426106384533 0.4975794110755629 0  0.925668223507269 0.4975413267972915 0  0.9876143351981026 0.4978381061464415 0  0 0.5625 0  0.06215536722225815 0.5624152710364397 0  0.1242966780760802 0.5623270252722491 0  0.1864092943453659 0.5622315877370913 0  0.2484773594783991 0.5621249613463802 0  0.3104831736134511 0.562002658119912 0  0.3724065853195322 0.5618595300694333 0  0.4342244854764091 0.5616896199912222 0  0.4959106061908398 0.5614860854405912 0  0.557436055190332 0.561241320493456 0  0.6187714378497307 0.5609475525591749 0  0.6798921517684589 0.5605985129843525 0  0.7407895777699803 0.5601934324226895 0  0.8014922820982169 0.5597458267170407 0  0.8621019561071417 0.5593013646281157 0  0.9228456865035417 0.5589702513411566 0  0.9841347013878762 0.5589748324493231 0  0 0.625 0  0.06216625929423786 0.6249174622882613 0  0.1243177650309703 0.6248311682725191 0  0.1864390023199133 0.6247371415461587 0  0.2485127608896913 0.6246309368376012 0  0.3105191578793532 0.6245073593308179 0  0.3724345154003017 0.6243601263410846 0  0.4342300891889654 0.6241814516004575 0  0.495870739680997 0.6239615405341031 0  0.5573138663334738 0.6236880163641387 0  0.6185094445316276 0.6233453947615319 0  0.6794031071977984 0.6229150052330239 0  0.7399463914272275 0.6223765243278578 0  0.8001220785204899 0.6217142784469968 0  0.8599975948850248 0.620936164764274 0  0.9198207831045853 0.6201214513270719 0  0.9801564855918431 0.619517093818086 0  0 0.6875 0  0.06219183789186118 0.6874233958808307 0  0.1243690539569828 0.6873430206998182 0  0.1865161342833527 0.6872548389483418 0  0.2486155035858389 0.6871542369734982 0  0.310646242355346 0.6870356512136339 0  0.3725824701037475 0.6868920818261317 0  0.4343912552358139 0.6867144259735078 0  0.4960299259018455 0.6864905349710695 0  0.5574427711901662 0.6862038550184713 0  0.6185575268741915 0.6858314582891818 0  0.6792832003230562 0.6853412645684127 0  0.739513786934596 0.6846885548621232 0  0.7991495161523123 0.6838135359339843 0  0.8581618511325155 0.6826485244905385 0  0.9167484961239359 0.6811666192578839 0  0.9756080586686909 0.6795440514477235 0  0 0.75 0  0.0622319268433013 0.7499330818412856 0  0.124450352499451 0.7498626508273585 0  0.1866408397501797 0.7497849151467644 0  0.2487867356627723 0.749695463134869 0  0.3108677125251571 0.7495888476129597 0  0.3728578083975554 0.7494580181018955 0  0.4347226758454841 0.7492935017202024 0  0.4964156265569309 0.7490821707326739 0  0.5578719206298853 0.7488053154108169 0  0.6190007000138981 0.7484355054656811 0  0.67967441549492 0.7479312499375497 0  0.7397179126519282 0.7472275575728976 0  0.7989077816851204 0.7462191733354193 0  0.8570194831067564 0.744734203313264 0  0.9140337286331968 0.7425221938210642 0  0.9706758017510267 0.7395270403310924 0  0 0.8125 0  0.06228539033551274 0.8124462592302119 0  0.1245594479273065 0.8123895536260535 0  0.1868099763130268 0.8123266622024032 0  0.2490227011438682 0.8122537890548599 0  0.3111798431028202 0.8121661689073483 0  0.3732581120703695 0.8120575173508187 0  0.4352257249985051 0.8119192226352997 0  0.4970377935688549 0.811739109237808 0  0.5586289793341074 0.8114994733229189 0  0.6199015540289011 0.8111738098604235 0  0.6807058316463077 0.8107209697667715 0  0.7408087073804489 0.8100736393167317 0  0.7998477527865561 0.8091126574868825 0  0.8572892905747056 0.8076023908633645 0  0.9125346675780285 0.8050099871142835 0  0.9661259391186021 0.7999116208116085 0  0 0.875 0  0.06235007725325208 0.8749623800183562 0  0.1246919621742234 0.8749226103530288 0  0.187016796318396 0.8748783453670507 0  0.2493141018506649 0.8748267971175804 0  0.3115706366757393 0.874764428940868 0  0.373768735113549 0.8746865265551785 0  0.4358837457183984 0.8745865703659291 0  0.497879875799342 0.874455295274746 0  0.559703152281406 0.8742792706898993 0  0.6212689740334824 0.8740387607086535 0  0.6824390801553476 0.8737045073289895 0  0.7429768029598397 0.8732326972662316 0  0.8024555669239185 0.8725553316208556 0  0.8600632854935771 0.8715522277062256 0  0.9141831768547437 0.8699365848797693 0  0.9616192198711312 0.8667101558598147 0  0 0.9375 0  0.06242289152829122 0.9374806318582527 0  0.1248414825755529 0.9374601337706442 0  0.1872511100494576 0.9374372697382506 0  0.2496462241461548 0.937410563745162 0  0.3120197514287492 0.9373781331404769 0  0.3743621563818865 0.9373374563232489 0  0.4366599634382201 0.93
[...]
<PointData  Vectors="f_95-0"> 
<DataArray  type="Float64"  Name="f_95-0"  NumberOfComponents="3" format="ascii">0.0000000000000000e+00 0.0000000000000000e+00 0.0000000000000000e+00  -6.7146012937291876e-04 -1.2070158265354980e-02 0.0000000000000000e+00  -1.8736192192358862e-03 -1.1070685816739700e-02 0.0000000000000000e+00  -3.3078041820507244e-03 -3.7608857511644022e-03 0.0000000000000000e+00  -4.9851155861400601e-03 5.6321373145008201e-03 0.0000000000000000e+00  -6.8614511554699869e-03 1.4511070680689412e-02 0.0000000000000000e+00  -8.8852792764662868e-03 2.1509929749196025e-02 0.0000000000000000e+00  -1.0991366233869530e-02 2.6115271689192796e-02 0.0000000000000000e+00  -1.3103001218163575e-02 2.8347794205182370e-02 0.0000000000000000e+00  -1.5132914547881314e-02 2.8515654070508600e-02 0.0000000000000000e+00  -1.6983003490169894e-02 2.7041392725261532e-02 0.0000000000000000e+00  -1.8542823008530173e-02 2.4352761631859284e-02 0.0000000000000000e+00  -1.9689706565980524e-02 2.0825369812776322e-02 0.0000000000000000e+00  -2.0267242406699637e-02 1.6744984584593944e-02 0.0000000000000000e+00  -2.0090217764137438e-02 1.2350208814477145e-02 0.0000000000000000e+00  -1.9318527200880380e-02 7.7261762802214506e-03 0.0000000000000000e+00  -8.7231276629301125e-03 7.8281569152443258e-03 0.0000000000000000e+00  0.0000000000000000e+00 0.0000000000000000e+00 0.0000000000000000e+00  -5.2018072759551213e-04 -1.1023363372975973e-02 0.0000000000000000e+00  -1.6261073543193698e-03 -9.7540337941326924e-03 0.0000000000000000e+00  -3.0116850749250033e-03 -2.2125368630361380e-03 0.0000000000000000e+00  -4.6553551215305113e-03 7.3848482517834286e-03 0.0000000000000000e+00  -6.5081526787868884e-03 1.6433502932148687e-02 0.0000000000000000e+00  -8.5191796968728563e-03 2.3552835390280445e-02 0.0000000000000000e+00  -1.0621981146037471e-02 2.8215678707213400e-02 0.0000000000000000e+00  -1.2740181187392046e-02 3.0429766117090362e-02 0.0000000000000000e+00  -1.4788018564406378e-02 3.0490374935822184e-02 0.0000000000000000e+00  -1.6670195946109231e-02 2.8806770532041007e-02 0.0000000000000000e+00  -1.8281756326402599e-02 2.5792769842755230e-02 0.0000000000000000e+00  -1.9507218920890215e-02 2.1805445303011720e-02 0.0000000000000000e+00  -2.0219502859306196e-02 1.7116773883824335e-02 0.0000000000000000e+00  -2.0330747406373185e-02 1.1903819970798613e-02 0.0000000000000000e+00  -1.9435549003867070e-02 6.1472222857366565e-03 0.0000000000000000e+00  -1.9428896425119378e-02 1.5099812170261222e-03 0.0000000000000000e+00  0.0000000000000000e+00 0.0000000000000000e+00 0.0000000000000000e+00  -3.2062909506331471e-04 -1.0253777446966185e-02 0.0000000000000000e+00  -1.1897300298746880e-03 -8.5883875925802447e-03 0.0000000000000000e+00  -2.4427444589923100e-03 -7.6051323056071688e-04 0.0000000000000000e+00  -4.0178334538340972e-03 9.0822501737994298e-03 0.0000000000000000e+00  -5.8505901031438660e-03 1.8332320883933325e-02 0.0000000000000000e+00  -7.8785429115186770e-03 2.5596904101109496e-02 0.0000000000000000e+00  -1.0028201204234087e-02 3.0338220077712467e-02 0.0000000000000000e+00  -1.2220543891733026e-02 3.2553954302376169e-02 0.0000000000000000e+00  -1.4370115057150220e-02 3.2529170586822309e-02 0.0000000000000000e+00  -1.6384833323785826e-02 3.0662863825930611e-02 0.0000000000000000e+00  -1.8166691827181034e-02 2.7359826887398943e-02 0.0000000000000000e+00  -1.9616363461061773e-02 2.2973031781594783e-02 0.0000000000000000e+00  -2.0648610326060551e-02 1.7782521955872620e-02 0.0000000000000000e+00  -2.1204008882269920e-02 1.1999250099985207e-02 0.0000000000000000e+00  -2.1424290916057978e-02 5.8804497127054444e-03 0.0000000000000000e+00  -2.1121230381697931e-02 4.2752298953534189e-05 0.0000000000000000e+00  0.0000000000000000e+00 0.0000000000000000e+00 0.0000000000000000e+00  -1.7943112091981664e-04 -9.7481167380083760e-03 0.0000000000000000e+00  -8.1943474949011435e-04 -7.6222914963919334e-03 0.0000000000000000e+00  -1.9282047668708246e-03 5.8965470409171744e-04 0.0000000000000000e+00  -3.4518853452957482e-03 1.0754317658011641e-02 0.0000000000000000e+00  -5.3133216397786929e-03 2.0262325273724190e-02 0.0000000000000000e+00  -7.4303702859586096e-03 2.7715874395133438e-02 0.0000000000000000e+00  -9.7169870119952189e-03 3.2572027253305651e-02 0.0000000000000000e+00  -1.2086647443776268e-02 3.4822800234844381e-02 0.0000000000000000e+00  -1.4450104095141768e-02 3.4746291755009207e-02 0.0000000000000000e+00  -1.6713754569191875e-02 3.2734016628238632e-02 0.0000000000000000e+00  -1.8779798353963553e-02 2.9186019328537306e-02 0.0000000000000000e+00  -2.0551685772260207e-02 2.4459501524418458e-02 0.0000000000000000e+00  -2.1944853264346750e-02 1.8857086543871072e-02 0.0000000000000000e+00  -2.2913057641117795e-02 1.2651382049982845e-02 0.0000000000000000e+00  -2.3409144398339000e-02 6.1137484883754317e-03 0.0000000000000000e+00  -2.3373315030632121e-02 -4.1487099576209682e-04 0.0000000000000000e+00  0.0000000000000000e+00 0.0000000000000000e+00 0.0000000000000000e+00  -8.7642557657382456e-05 -9.4297430243445290e-03 0.0000000000000000e+00  -5.7649093010846174e-04 -6.8217566838711143e-03 0.0000000000000000e+00  -1.5961838905448886e-03 1.8693004229201472e-03 0.0000000000000000e+00  -3.1246098839490576e-03 1.2450247563985158e-02 0.0000000000000000e+00  -5.0790850765008262e-03 2.2292722515531709e-02 0.0000000000000000e+00  -7.3599497438785058e-03 2.9994842360088463e-02 0.0000000000000000e+00  -9.8670264698106306e-03 3.5013840907698532e-02 0.0000000000000000e+00  -1.2503574112183689e-02 3.7340886979791522e-02 0.0000000000000000e+00  -1.5173064834214449e-02 3.7249791669870955e-02 0.0000000000000000e+00  -1.7774768802887437e-02 3.5125262987251375e-02 0.0000000000000000e+00  -2.0201269126906961e-02 3.1361805442505872e-02 0.0000000000000000e+00  -2.2340536244636607e-02 2.6318059986776336e-02 0.0000000000000000e+00  -2.4083352894783326e-02 2.0310694280570189e-02 0.0000000000000000e+00  -2.5327265910920160e-02 1.3629710189252327e-02 0.0000000000000000e+00  -2.5971860914278021e-02 6.5564002254384192e-03 0.0000000000000000e+00  -2.5919988173781668e-02 -6.8097845374081125e-04 0.0000000000000000e+00  0.0000000000000000e+00 0.0000000000000000e+00 0.0000000000000000e+00  -3.8510047321396444e-05 -9.2249826879198336e-03 0.0000000000000000e+00  -4.5808718368230356e-04 -6.1106351998909047e-03 0.0000000000000000e+00  -1.4649987751681390e-03 3.1436793852008256e-03 0.0000000000000000e+00  -3.0620954536515559e-03 1.4232285937499273e-02 0.0000000000000000e+00  -5.1628875460513783e-03 2.4487196222700902e-02 0.0000000000000000e+00  -7.6545848301090595e-03 3.2500035958482200e-02 0.0000000000000000e+00  -1.0425160500328942e-02 3.7732244618971261e-02 0.0000000000000000e+00  -1.3369116413085637e-02 4.0177940745394047e-02 0.0000000000000000e+00  -1.6382624424162565e-02 4.0107779800146952e-02 0.0000000000000000e+00  -1.9355497516934841e-02 3.7897483987239217e-02 0.0000000000000000e+00  -2.2164993176036169e-02 3.3930498731100989e-02 0.0000000000000000e+00  -2.4674590754495719e-02 2.8557745555491239e-02 0.0000000000000000e+00  -2.6738291736687139e-02 2.2094959361336437e-02 0.0000000000000000e+00  -2.8208860381259748e-02 1.4837821616612968e-02 0.0000000000000000e+00  -2.8950600011122180e-02 7.0700421618420627e-03 0.0000000000000000e+00  -2.8862231619635463e-02 -9.3601092035105310e-04 0.0000000000000000e+00  0.0000000000000000e+00 0.0000000000000000e+00 0.0000000000000000e+00  -2.3146782511048886e-05 -9.0664822442177283e-03 0.0000000000000000e+00  -4.4238792375398301e-04 -5.4090833025400697e-03 0.0000000000000000e+00  -1.5019194215362126e-03 4.4792276504149959e-03 0.0000000000000000e+00  -3.2106473360300103e-03 1.6147974550856953e-02 0.0000000000000000e+00  -5.4738065375648888e-03 2.6876302908332098e-02 0.0000000000000000e+00  -8.1684025231076873e-03 3.5248898476962269e-02 0.0000000000000000e+00  -1.1175992237791735e-02 4.0735437883827913e-02 0.0000000000000000e+00  -1.4388471787171500e-02 4.3336094567980279e-02 0.0000000000000000e+00  -1.7700058173240732e-02 4.3318100167893982e-02 0.0000000000000000e+00  -2.0994887885572983e-02 4.1043928162804735e-02 0.0000000000000000e+00  -2.4136869464547277e-02 3.6878112676728206e-02 0.0000000000000000e+00  -2.6965788753139958e-02 3.1153404374927272e-02 0.0000000000000000e+00  -2.9302248239286906e-02 2.4175172787265217e-02 0.0000000000000000e+00  -3.0961546039946625e-02 1.6242554065324592e-02 0.0000000000000000e+00  -3.1780317154025857e-02 7.6680624570911564e-03 0.0000000000000000e+00  -3.1647046616496990e-02 -1.2189813487036363e-03 0.0000000000000000e+00  0.0000000000000000e+00 0.0000000000000000e+00 0.0000000000000000e+00  -3.5207924103149380e-05 -8.9012516895966703e-03 0.0000000000000000e+00  -5.0765485311357334e-04 -4.6539620756588119e-03 0.0000000000000000e+00  -1.6610154370104836e-03 5.9188341681866647e-03 0.0000000000000000e+00  -3.4852951031965314e-03 1.8205893224737636e-02 0.0000000000000000e+00  -5.8681783530415326e-03 2.9432538915962255e-02 0.0000000000000000e+00  -8.6786398474661373e-03 3.8182842004862980e-02 0.0000000000000000e+00  -1.1800528978086403e-02 4.3941683899777491e-02 0.0000000000000000e+00  -1.5134590774224738e-02 4.6719091290261111e-02 0.0000000000000000e+00  -1.8584926816180427e-02 4.6778108642797571e-02 0.0000000000000000e+00  -2.2041235538562281e-02 4.4462702193184912e-02 0.0000000000000000e+00  -2.5364598559135292e-02 4.0109582308793072e-02 0.0000000000000000e+00  -2.8380961857662750e-02 3.4023388103448148e-02 0.0000000000000000e+00  -3.0887251535105020e-02 2.6492344158344210e-02 0.0000000000000000e+00  -3.2669762527443587e-02 1.7819769907775659e-02 0.0000000000000000e+00  -3.3538573464902764e-02 8.3524502934365120e-03 0.0000000000000000e+00  -3.3354358087136042e-02 -1.5118976581179448e-03 0.0000000000000000e+00  0.0000000000000000e+00 0.0000000000000000e+00 0.0000000000000000e+00  -7.4296230285936704e-05 -8.6837870746715624e-03 0.0000000000000000e+00  -6.4632889765304624e-04 -3.7987742868654489e-03 0.0000000000000000e+00  -1.9121649526278926e-03 7.4727848071994884e-03 0.0000000000000000e+00  -3.8099459088963227e-03 2.0360014901299111e-02 0.0000000000000000e+00  -6.1969977506198598e-03 3.2049786131199874e-02 0.0000000000000000e+00  -8.9378144757083257e-03 4.1142844433372315e-02 0.0000000000000000e+00  -1.1931991379609447e-02 4.7151889228268809e-02 0.0000000000000000e+00  -1.5106977202383217e-02 5.0102654563371950e-02 0.0000000000000000e+00  -1.8395858539081125e-02 5.0253444622299345e-02 0.0000000000000000e+00  -2.1713252705818208e-02 4.7923907744177305e-02 0.0000000000000000e+00  -2.4936045307829547e-02 4.3414337927008190e-02 0.0000000000000000e+00  -2.7894216093307802e-02 3.6993228765770214e-02 0.0000000000000000e+00  -3.0379518009416004e-02 2.8924922060708780e-02 0.0000000000000000e+00  -3.2164734227072507e-02 1.9512346076638685e-02 0.0000000000000000e+00  -3.3041319760129667e-02 9.1342559096303354e-03 0.0000000000000000e+00  -3.2830589265028971e-02 -1.7485461746176913e-03 0.0000000000000000e+00  0.0000000000000000e+00 0.0000000000000000e+00 0.0000000000000000e+00  -1.5068285011922975e-04 -8.3627545396164297e-03 0.0000000000000000e+00  -8.8051230042191517e-04 -2.8021818231697693e-03 0.0000000000000000e+00  -2.2685307189511906e-03 9.1214352397285068e-03 0.0000000000000000e+00  -4.1551210701864776e-03 2.2502985285412874e-02 0.0000000000000000e+00  -6.3523698385020986e-03 3.4529452423634831e-02 0.0000000000000000e+00  -8.7284903666762764e-03 4.3850934824790758e-02 0.0000000000000000e+00  -1.1219628030858143e-02 5.0028059519682845e-02 0.0000000000000000e+00  -1.3805519377423763e-02 5.3110506563135554e-02 0.0000000000000000e+00  -1.6475043515095465e-02 5.3351407702490028e-02 0.0000000000000000e+00  -1.9194298583371416e-02 5.1040596077233304e-02 0.0000000000000000e+00  -2.1881513522006811e-02 4.6434179472485453e-02 0.0000000000000000e+00  -2.4398663941154346e-02 3.9754066345267625e-02 0.0000000000000000e+00  -2.6558699113426874e-02 3.1233540596678190e-02 0.0000000000000000e+00  -2.8146783228853021e-02 2.1182029144694435e-02 0.0000000000000000e+00  -2.8969090316884012e-02 1.0008498831171737e-02 0.0000000000000000e+00  -2.8821310915781578e-02 -1.7961616512577980e-03 0.0000000000000000e+00  0.0000000000000000e+00 0.0000000000000000e+00 0.0000000000000000e+00  -2.9157685701754568e-04 -7.8580413537677560e-03 0.0000000000000000e+00  -1.2787174912601566e-03 -1.6046534943293604e-03 0.0000000000000000e+00  -2.8124976144429030e-03 1.0828243845903286e-02 0.0000000000000000e+00  -4.5725551425199618e-03 2.4468711799924735e-02 0.0000000000000000e+00  -6.3131135202992138e-03 3.6576940876766988e-02 0.0000000000000000e+00  -7.9243796931445613e-03 4.5904562685853086e-02 0.0000000000000000e+00  -9.4103300981177324e-03 5.2087535400321849e-02 0.0000000000000000e+00  -1.0836850491920584e-02 5.5208549138350965e-02 0.0000000000000000e+00  -1.2281460316398910e-02 5.5514352775641027e-02 0.0000000000000000e+00  -1.3793006208440237e-02 5.3258658268479239e-02 0.0000000000000000e+00  -1.5364678745134940e-02 4.8642255395155744e-02 0.0000000000000000e+00  -1.6923054362290545e-02 4.1831887549535408e-02 0.0000000000000000e+00  -1.8322638840238024e-02 3.3044572725297629e-02 0.0000000000000000e+00  -1.9412065003018085e-02 2.2614433584690563e-02 0.0000000000000000e+00  -2.0084837947472910e-02 1.0961115864667602e-02 0.0000000000000000e+00  -2.0166983427962883e-02 -1.4614391674141727e-03 0.0000000000000000e+00  0.0000000000000000e+00 0.0000000000000000e+00 0.0000000000000000e+00  -5.4704212962006021e-04 -7.0284122537991062e-03 0.0000000000000000e+00  -1.9666386877697051e-03 -9.8548762050650317e-05 0.0000000000000000e+00  -3.7072576268833042e-03 1.2557664508756025e-02 0.0000000000000000e+00  -5.2114521471196508e-03 2.6043972830333714e-02 0.0000000000000000e+00  -6.1770218922573951e-03 3.7815438137020971e-02 0.0000000000000000e+00  -6.5523268482563938e-03 4.6797590228587573e-02 0.0000000000000000e+00  -6.4524457882225387e-03 5.2731984809182286e-02 0.0000000000000000e+00  -6.0683293523140346e-03 5.5739885049231414e-02 0.0000000000000000e+00  -5.5995267097932637e-03 5.6056895093403440e-02 0.0000000000000000e+00  -5.2105638273268360e-03 5.3891857271186852e-02 0.0000000000000000e+00  -5.0057274075259910e-03 4.9380504374684504e-02 0.0000000000000000e+00  -4.9984683727046265e-03 4.2628124343681559e-02 0.0000000000000000e+00  -5.1166842756623053e-03 3.3812216720544803e-02 0.0000000000000000e+00  -5.3212008790653959e-03 2.3284694097751277e-02 0.0000000000000000e+00  -5.5944057283920049e-03 1.1656452590523735e-02 0.0000000000000000e+00  -6.1242173628946687e-03 -5.1928932029395611e-04 0.0000000000000000e+00  0.0000000000000000e+00 0.0000000000000000e+00 0.0000000000000000e+00  -9.8792458270512574e-04 -5.6364143407358121e-03 0.0000000000000000e+00  -3.1077473103727020e-03 1.8931301328708350e-03 0.0000000000000000e+00  -5.1552747703198518e-03 1.4286866504468209e-02 0.0000000000000000e+00  -6.2742220229407546e-03 2.6990693536193721e-02 0.0000000000000000e+00  -6.1446759162123782e-03 3.7832440356287612e-02 0.0000000000000000e+00  -4.8334930377866925e-03 4.5994045389068060e-02 0.0000000000000000e+00  -2.6161317378872915e-03 5.1344162893720235e-02 0.0000000000000000e+00  1.5897261152326335e-04 5.4037126829325162e-02 0.0000000000000000e+00  3.1481409398789466e-03 5.4286227525320509e-02 0.0000000000000000e+00  6.0489194744689787e-03 5.2247553941808168e-02 0.0000000000000000e+00  8.6217913630636158e-03 4.7983495833778117e-02 0.0000000000000000e+00  1.0728388895071696e-02 4.1498673731051074e-02 0.0000000000000000e+00  1.2315815950020561e-02 3.2879573968282713e-02 0.0000000000000000e+00  1.3488426761659882e-02 2.2679362652119631e-02 0.0000000000000000e+00  1.4157775649316239e-02 1.2026316276912519e-02 0.0000000000000000e+00  1.3358397090285664e-02 9.5173696318186067e-04 0.0000000000000000e+00  0.0000000000000000e+00 0.0000000000000000e+00 0.0000000000000000e+00  -1.6742222071966838e-03 -3.3503851380558025e-03 0.0000000000000000e+00  -4.7883960799951263e-03 4.5813996202491141e-03 0.0000000000000000e+00  -7.2140208559397182e-03 1.5985458976655400e-02 0.0000000000000000e+00  -7.8242527930803378e-03 2.7084088559170209e-02 0.0000000000000000e+00  -6.3859905562147880e-03 3.6288634023037288e-02 0.0000000000000000e+00  -3.1592419487579291e-03 4.3098828571091152e-02 0.0000000000000000e+00  1.3896160631702585e-03 4.7503779916731832e-02 0.0000000000000000e+00  6.7544500998526448e-03 4.9666305148970323e-02 0.0000000000000000e+00  1.2460525499590095e-02 4.9759454343940926e-02 0.0000000000000000e+00  1.8081041592538000e-02 4.7883824296644582e-02 0.0000000000000000e+00  2.3235726908098327e-02 4.4031486174530524e-02 0.0000000000000000e+00  2.7597834546288308e-02 3.8096232971139628e-02 0.0000000000000000e+00  3.0975876670331214e-02 3.0016705588292534e-02 0.0000000000000000e+00  3.3683837737666374e-02 2.0122271984979182e-02 0.0000000000000000e+00  3.5789433279787744e-02 9.8998523018303808e-03 0.0000000000000000e+00  3.5023175855361265e-02 1.5813450570816652e-03 0.0000000000000000e+00  0.0000000000000000e+00 0.0000000000000000e+00 0.0000000000000000e+00  -2.5170862043924227e-03 1.4268935200294645e-04 0.0000000000000000e+00  -6.6500492929570986e-03 8.0464429127980013e-03 0.0000000000000000e+00  -9.2905018242724260e-03 1.7552512008269756e-02 0.0000000000000000e+00  -9.2961295753543061e-03 2.6211082648793019e-02 0.0000000000000000e+00  -6.6830289259424179e-03 3.3161482875741173e-02 0.0000000000000000e+00  -1.9333241475048173e-03 3.8206849948109071e-02 0.0000000000000000e+00  4.3418102489749004e-03 4.1404391657930757e-02 0.0000000000000000e+00  1.1553761361533708e-02 4.2881675027007182e-02 0.0000000000000000e+00  1.9178339966668925e-02 4.2750836465999434e-02 0.0000000000000000e+00  2.6742556415705297e-02 4.1063666176384170e-02 0.0000000000000000e+00  3.3782165234623164e-02 3.7780532029248019e-02 0.0000000000000000e+00  3.9809274389594300e-02 3.2748106401338357e-02 0.0000000000000000e+00  4.4384583391221921e-02 2.5685039581649423e-02 0.0000000000000000e+00  4.7225499006912641e-02 1.6261871328510837e-02 0.0000000000000000e+00  4.8562511593815944e-02 5.2768785744865205e-03 0.0000000000000000e+00  5.2607163467569058e-02 -3.7416080729042738e-03 0.0000000000000000e+00  0.0000000000000000e+00 0.0000000000000000e+00 0.0000000000000000e+00  -2.8350268721484351e-03 4.5680679462664761e-03 0.0000000000000000e+00  -6.9155437682515680e-03 1.1711557172270364e-02 0.0000000000000000e+00  -9.0023698746112372e-03 1.8675582917740984e-02 0.0000000000000000e+00  -8.5041698760109589e-03 2.4584663765221108e-02 0.0000000000000000e+00  -5.7251567353143532e-03 2.9202892721203706e-02 0.0000000000000000e+00  -1.1991817653017349e-03 3.2508166350504290e-02 0.0000000000000000e+00  4.5336028363001978e-03 3.4542459623612715e-02 0.0000000000000000e+00  1.1003284562986314e-02 3.5358719287667019e-02 0.0000000000000000e+00  1.7813063981066957e-02 3.4998467566025225e-02 0.0000000000000000e+00  2.4608900548439928e-02 3.3479440595728452e-02 0.0000000000000000e+00  3.1024621446495985e-02 3.0784034845389472e-02 0.0000000000000000e+00  3.6615408359705330e-02 2.6836684732687809e-02 0.0000000000000000e+00  4.0688702010942011e-02 2.1430253717742761e-02 0.0000000000000000e+00  4.2215529437406175e-02 1.4227611246354230e-02 0.0000000000000000e+00  4.0486536378425517e-02 4.4097753345112220e-03 0.0000000000000000e+00  2.7376178103097764e-02 -5.9259506396163921e-03 0.0000000000000000e+00  0.0000000000000000e+00 0.0000000000000000e+00 0.0000000000000000e+00  0.0000000000000000e+00 7.3437441541580216e-03 0.0000000000000000e+00  0.0000000000000000e+00 1.3708322421094973e-02 0.0000000000000000e+00  0.0000000000000000e+00 1.9093734800810856e-02 0.0000000000000000e+00  0.0000000000000000e+00 2.3499981293305668e-02 0.0000000000000000e+00  0.0000000000000000e+00 2.6927061898579414e-02 0.0000000000000000e+00  0.0000000000000000e+00 2.9374976616632083e-02 0.0000000000000000e+00  0.0000000000000000e+00 3.0843725447463693e-02 0.0000000000000000e+00  0.0000000000000000e+00 3.133330