<?xml version="1.0"?>
<VTKFile type="UnstructuredGrid"  version="0.1"  >
<UnstructuredGrid>
<Piece  NumberOfPoints="289" NumberOfCells="512">
<Points>
<DataArray  type="Float64"  NumberOfComponents="3"  format="ascii">0 0 0  0.0625 0 0  0.125 0 0  0.1875 0 0  0.25 0 0  0.3125 0 0  0.375 0 0  0.4375 0 0  0.5 0 0  0.5625 0 0  0.625 0 0  0.6875 0 0  0.75 0 0  0.8125 0 0  0.875 0 0  0.9375 0 0  1 0 0  0 0.0625 0  0.06254927123131535 0.06247969089972476 0  0.125100017410127 0.06245900645737833 0  0.1876537327510237 0.06243759838841626 0  0.2502119239915662 0.06241519013836576 0  0.3127761104203302 0.06239162386114175 0  0.3753478182502517 0.06236691975558285 0  0.4379285738574776 0.06234134868086492 0  0.5005199115818079 0.06231551402877911 0  0.5631234374385307 0.06229042959749048 0  0.6257410500211424 0.06226756453678382 0  0.6883755651608198 0.06224880276086076 0  0.7510323568107878 0.06223623507897442 0  0.8137235577404507 0.06223168559198471 0  0.8764785701403851 0.06223594699733664 0  0.9393681817597357 0.06224829937050791 0  1.002539317491967 0.06227270857702781 0  0 0.125 0  0.06259705061692179 0.1249597428020432 0  0.1251970602269156 0.1249186990602488 0  0.1878030346782071 0.1248761321672889 0  0.2504180238740333 0.1248314400190689 0  0.3130451338977096 0.1247842459180245 0  0.3756875302714309 0.1247345169514914 0  0.4383484403504953 0.1246827144584468 0  0.5010311808213509 0.1246299731201362 0  0.5637392743463482 0.1245782889064535 0  0.6264767974127189 0.1245306663851236 0  0.6892492538558164 0.1244911273261255 0  0.7520655351726071 0.1244644161741287 0  0.8149418543582369 0.1244551880074928 0  0.877908302962623 0.1244665926114055 0  0.94101539484793 0.1244990157908949 0  1.004329989073523 0.1245517690353421 0  0 0.1875 0  0.06264186443368847 0.1874405737739301 0  0.1252881639124142 0.1873798848509527 0  0.1879434171678129 0.1873167346271256 0  0.2506122402058788 0.187250102596043 0  0.3132993819021721 0.1871792733549594 0  0.3760097458636001 0.1871040102033393 0  0.4387484039108728 0.1870247885128515 0  0.5015206213757901 0.1869430946943154 0  0.5643319418016449 0.1868617785552491 0  0.6271884223339824 0.1867854083655956 0  0.6900971607637674 0.1867205017520313 0  0.7530672412436352 0.1866753576028873 0  0.8161108949831111 0.1866589083908591 0  0.8792433730270652 0.1866772601908156 0  0.9424769636408499 0.1867242850824661 0  1.005802781241137 0.1867547650779325 0  0 0.25 0  0.06268225491241493 0.2499226659464131 0  0.1253703852568845 0.2498435088394701 0  0.1880703964209769 0.2497607701594667 0  0.2507884683633511 0.2496728821362339 0  0.3135310273595218 0.2495786158649258 0  0.3763047979696464 0.2494772979749686 0  0.4391168332000967 0.2493691231802125 0  0.5019745263463199 0.2492555892554056 0  0.5648856140449043 0.2491400712036183 0  0.6278581763365937 0.2490285209616147 0  0.6909005917558241 0.2489302056549542 0  0.7540212236049204 0.2488582396906126 0  0.8172271146638816 0.2488293510750545 0  0.8805199482895678 0.2488617533264575 0  0.943886390928742 0.2489692578684704 0  1.007281395308059 0.2491505138143376 0  0 0.3125 0  0.06271679881501935 0.3124065838215885 0  0.1254408382329517 0.3123106962346165 0  0.1881795439868907 0.3122099121698075 0  0.2509406198039445 0.3121019667347179 0  0.3137321710761821 0.3119849000036587 0  0.3765628058151536 0.3118572907663903 0  0.439441704389445 0.3117186244788087 0  0.5023786468660955 0.3115698527369715 0  0.5653839768608602 0.3114142120399965 0  0.6284684486698312 0.3112583689652598 0  0.6916428160942085 0.3111139256989888 0  0.7549168165374653 0.3109992107158423 0  0.818296826191517 0.3109410196063833 0  0.8817810408880977 0.3109754725921995 0  0.9453514503980232 0.3111464406265648 0  1.008965687997009 0.3114994600992262 0  0 0.375 0  0.062744138300648 0.3748929770763428 0  0.1254967547250621 0.3747827635778488 0  0.1882665748561408 0.3746661747684225 0  0.2510627317118371 0.3745401022017252 0  0.3138949595463982 0.3744016207134426 0  0.3767737700328052 0.3742481957359753 0  0.4397106024698295 0.3740780529684518 0  0.5027179358499946 0.3738908016639669 0  0.5658093405442827 0.3736884435690285 0  0.6289994194992643 0.3734769499240307 0  0.6923035193611764 0.3732686354724832 0  0.7557369458994776 0.3730855589399364 0  0.8193131847199776 0.3729640336043442 0  0.883040453663253 0.3729598558100253 0  0.9469163920620456 0.373152839103955 0  1.010923078822364 0.3736476630595911 0  0 0.4375 0  0.06276302785358447 0.4373825625426219 0  0.1255355783269675 0.4372611868541199 0  0.1883274874782125 0.4371318769875586 0  0.2511491496702418 0.4369905723290803 0  0.3140117986273062 0.4368331749971562 0  0.3769277864368828 0.4366556708963777 0  0.4399108614357594 0.4364544146412959 0  0.5029764505753556 0.4362266943421537 0  0.5661419619462064 0.4359717667127838 0  0.629427138836865 0.4356926688206837 0  0.6928545111722144 0.4353992790936981 0  0.7564499815711361 0.4351132993024326 0  0.8202435120106449 0.4348759561642721 0  0.8842697183232752 0.4347589734855818 0  0.9485680612097687 0.434878196708655 0  1.013182893279326 0.4354068993952426 0  0 0.5 0  0.06277239928426735 0.4998760814927217 0  0.1255550961779591 0.4997475170004382 0  0.1883587659954494 0.4996095201126856 0  0.2511948041146447 0.4994570488532141 0  0.3140757052600181 0.4992847114239141 0  0.3770154651156361 0.4990867334847972 0  0.4400300213956115 0.4988570485272435 0  0.5031377722002321 0.4985896270286946 0  0.5663602582164678 0.498279258661369 0  0.6297231969872391 0.4979231785023283 0  0.6932582443184825 0.4975242351643208 0  0.7570061467769347 0.4970967960596368 0  0.8210222723168976 0.4966772633672941 0  0.885385583196321 0.4963415855892207 0  0.9502114246747085 0.4962312386986007 0  1.015667253663694 0.4965844795496097 0  0 0.5625 0  0.06277144348897379 0.5623742315760949 0  0.1255536070099081 0.5622432396066199 0  0.188357644098652 0.5621015678750327 0  0.2511955846004675 0.5619432850001677 0  0.3140808124411571 0.5617617372766119 0  0.3770285939471388 0.5615493036608494 0  0.4400566902245791 0.5612971833783088 0  0.5031861237109262 0.5609952925987367 0  0.5664422619090532 0.5606324419733318 0  0.6298565977977282 0.560197164143753 0  0.6934700665506822 0.5596799673355234 0  0.757339605615128 0.5590786151524454 0  0.8215510155974121 0.5584095960604698 0  0.8862425674150752 0.5577313802152809 0  0.9516435550537956 0.5571867027440754 0  1.018127727735586 0.557065373455274 0  0 0.625 0  0.06275970314979158 0.6248775777595756 0  0.1255301141300625 0.6247495863116108 0  0.1883224142098555 0.6246101370082101 0  0.2511487908146717 0.6244526530043943 0  0.3140230009526099 0.6242694615781672 0  0.3769610118893878 0.6240513092715473 0  0.4399817612836386 0.6237867782163872 0  0.5031081189107397 0.6234615988581501 0  0.5663682463013511 0.6230579045396221 0  0.6297978567216759 0.6225536093436325 0  0.6934446421410644 0.621922447873651 0  0.7573778804830225 0.621136151961422 0  0.8217097355974569 0.6201726648607746 0  0.8866402290557387 0.6190401089397918 0  0.9525420800436393 0.6178361784385217 0  1.020096091336044 0.6168595379777618 0  0 0.6875 0  0.06273716573670697 0.6873864527043404 0  0.1254845219251657 0.6872673190840272 0  0.1882527490057774 0.687136630272955 0  0.2510536133414643 0.6869875671299478 0  0.313900590127089 0.6868119183672797 0  0.3768095865790382 0.6865993796060179 0  0.4397998058247373 0.6863366099476631 0  0.502894812621286 0.68600593466518 0  0.566123939863088 0.6855835498486105 0  0.6295244444212348 0.6850370651130582 0  0.6931456794221902 0.6843222895055163 0  0.7570590715589034 0.6833796292511426 0  0.8213844226714755 0.6821325523339656 0  0.8863583628979669 0.6804991409221819 0  0.9524930970372084 0.6784595327261101 0  1.020877793685683 0.6762744046815923 0  0 0.75 0  0.06270434217841291 0.7499008626941339 0  0.1254178060494143 0.7497965220033074 0  0.1881499888412046 0.7496813699735504 0  0.2509115781807424 0.7495488810769565 0  0.313714994720078 0.7493909992205104 0  0.3765751559735779 0.7491973048288542 0  0.4395103970626661 0.7489538267638192 0  0.5025435692797529 0.7486412920632985 0  0.5657033150931463 0.7482324861461281 0  0.6290255450111585 0.7476881900101758 0  0.6925555192498993 0.7469507975177763 0  0.7563529194738581 0.7459340850404652 0  0.8205105107988647 0.7445067905590326 0  0.8852268155441249 0.7424691258102176 0  0.9510630279028903 0.7395479744630814 0  1.019499179028378 0.7357189249223236 0  0 0.8125 0  0.06266231453926197 0.8124204185579469 0  0.1253321228988262 0.812336443762109 0  0.1880173413360078 0.8122433085528097 0  0.2507268806680671 0.8121353867653756 0  0.3134712525196023 0.8120056006884605 0  0.3762633148213271 0.8118445906080554 0  0.4391191981139 0.8116394891147889 0  0.5020594167485197 0.8113720484205509 0  0.5651100483111031 0.8110157037907777 0  0.6283035492832596 0.810530857236217 0  0.6916780924991816 0.8098570799052667 0  0.755273333261637 0.8088996290790292 0  0.819121784437383 0.80750434975632 0  0.8832565419327862 0.8054058719278229 0  0.9479098367737953 0.8021106941027574 0  1.015246370951878 0.7966491538342524 0  0 0.875 0  0.06261273686892212 0.8749443102007027 0  0.1252308246778953 0.8748854334207335 0  0.1878599388379459 0.8748198948251872 0  0.2505065333358168 0.874743551961977 0  0.3131783345481234 0.874651124577464 0  0.3758849762971038 0.8745355222174723 0  0.4386388344444179 0.8743868307054614 0  0.5014560987309916 0.8741907311642512 0  0.5643580033787703 0.8739259752855931 0  0.6273717121398814 0.8735602854283725 0  0.6905289872681954 0.87304360302579 0  0.7538566746012074 0.8722966981477108 0  0.8173414626628916 0.8711903802177794 0  0.8808217598130725 0.8694982257897067 0  0.9437024413707437 0.8667449696364484 0  1.00442738454531 0.8615701771249724 0  0 0.9375 0  0.06255777763199477 0.9374713374912725 0  0.1251183532281589 0.9374409995473451 0  0.1876847053715263 0.9374071541472838 0  0.2502602512004982 0.9373676042367303 0  0.312849135996424 0.9373195273875263 0  0.3754566237439458 0.9372590989212071 0  0.4380896454341464 0.937180
[...]
<PointData  Vectors="f_95-0"> 
<DataArray  type="Float64"  Name="f_95-0"  NumberOfComponents="3" format="ascii">0.0000000000000000e+00 0.0000000000000000e+00 0.0000000000000000e+00  7.1478398689563854e-04 -2.9620275482315547e-02 0.0000000000000000e+00  2.0078370675185781e-03 -5.5915955012463381e-02 0.0000000000000000e+00  3.5774982420937935e-03 -7.5627432012528251e-02 0.0000000000000000e+00  5.4028053773563494e-03 -8.8243785465911342e-02 0.0000000000000000e+00  7.4140398527547382e-03 -9.4430835521470677e-02 0.0000000000000000e+00  9.5467886998530233e-03 -9.5353165583344043e-02 0.0000000000000000e+00  1.1736313169330319e-02 -9.2261491044588251e-02 0.0000000000000000e+00  1.3917214784917033e-02 -8.6275334059916650e-02 0.0000000000000000e+00  1.6021309307895033e-02 -7.8293949439862870e-02 0.0000000000000000e+00  1.7974528929833554e-02 -6.8987134840063039e-02 0.0000000000000000e+00  1.9692457734751461e-02 -5.8828624307609663e-02 0.0000000000000000e+00  2.1076890090083081e-02 -4.8148410430621250e-02 0.0000000000000000e+00  2.1984411621227478e-02 -3.7166493852861061e-02 0.0000000000000000e+00  2.2237798004391681e-02 -2.6094439262117533e-02 0.0000000000000000e+00  2.2098250546220131e-02 -1.4976009609842408e-02 0.0000000000000000e+00  1.0491990882327787e-02 -9.8041302936486240e-03 0.0000000000000000e+00  0.0000000000000000e+00 0.0000000000000000e+00 0.0000000000000000e+00  6.1710453759687960e-04 -3.0767149299391349e-02 0.0000000000000000e+00  1.9656923454699276e-03 -5.7431299540837900e-02 0.0000000000000000e+00  3.6876171326615101e-03 -7.7432550681502094e-02 0.0000000000000000e+00  5.7049260527717643e-03 -9.0263014411722964e-02 0.0000000000000000e+00  7.9310730493636367e-03 -9.6592321289371758e-02 0.0000000000000000e+00  1.0295219695740414e-02 -9.7586777018438209e-02 0.0000000000000000e+00  1.2726115332664789e-02 -9.4498685467052645e-02 0.0000000000000000e+00  1.5152959153659646e-02 -8.8446857733888148e-02 0.0000000000000000e+00  1.7502208958904971e-02 -8.0326643679447224e-02 0.0000000000000000e+00  1.9694757751810229e-02 -7.0800361750963547e-02 0.0000000000000000e+00  2.1643515342192290e-02 -6.0329894978771559e-02 0.0000000000000000e+00  2.3248942429494421e-02 -4.9222967938399732e-02 0.0000000000000000e+00  2.4392367104685835e-02 -3.7675815645764249e-02 0.0000000000000000e+00  2.4982569635761169e-02 -2.5799327699449828e-02 0.0000000000000000e+00  2.4450814648294388e-02 -1.3485909356314335e-02 0.0000000000000000e+00  2.4968316377420231e-02 -2.7319453385806465e-03 0.0000000000000000e+00  0.0000000000000000e+00 0.0000000000000000e+00 0.0000000000000000e+00  5.7581287682105335e-04 -3.1865177732545838e-02 0.0000000000000000e+00  2.0686708449770973e-03 -5.9145608084205450e-02 0.0000000000000000e+00  4.1575912971775339e-03 -7.9551243380071593e-02 0.0000000000000000e+00  6.6683744872659779e-03 -9.2665414033169857e-02 0.0000000000000000e+00  9.4704438219108400e-03 -9.9181301253786894e-02 0.0000000000000000e+00  1.2465217123630140e-02 -1.0027568465934455e-01 0.0000000000000000e+00  1.5561843687400861e-02 -9.7206365030506947e-02 0.0000000000000000e+00  1.8673047578699808e-02 -9.1092580833071216e-02 0.0000000000000000e+00  2.1709021878223218e-02 -8.2826135931693079e-02 0.0000000000000000e+00  2.4575176521285075e-02 -7.3063351114359659e-02 0.0000000000000000e+00  2.7172494600381642e-02 -6.2259200744837193e-02 0.0000000000000000e+00  2.9402026385719048e-02 -5.0716072574180648e-02 0.0000000000000000e+00  3.1179117504160195e-02 -3.8630549811091507e-02 0.0000000000000000e+00  3.2436983594947073e-02 -2.6127203322690307e-02 0.0000000000000000e+00  3.3350518205525134e-02 -1.3395399877279184e-02 0.0000000000000000e+00  3.3757609577634191e-02 -1.2411486284089146e-03 0.0000000000000000e+00  0.0000000000000000e+00 0.0000000000000000e+00 0.0000000000000000e+00  6.5033741800730148e-04 -3.3046049159031671e-02 0.0000000000000000e+00  2.4262705133473624e-03 -6.1195929251130050e-02 0.0000000000000000e+00  5.0440871948253417e-03 -8.2203826440713113e-02 0.0000000000000000e+00  8.2666108520891551e-03 -9.5734033604596772e-02 0.0000000000000000e+00  1.1915389827119134e-02 -1.0252648949467981e-01 0.0000000000000000e+00  1.5852822391894776e-02 -1.0378310152593892e-01 0.0000000000000000e+00  1.9959248807072220e-02 -1.0077217667927323e-01 0.0000000000000000e+00  2.4120585317724177e-02 -9.4613942520247921e-02 0.0000000000000000e+00  2.8219237029901662e-02 -8.6195975298343386e-02 0.0000000000000000e+00  3.2131829213446851e-02 -7.6169535517800202e-02 0.0000000000000000e+00  3.5732592034000053e-02 -6.4988861387319449e-02 0.0000000000000000e+00  3.8904216918906692e-02 -5.2966952551991270e-02 0.0000000000000000e+00  4.1554665420971186e-02 -4.0332415190880350e-02 0.0000000000000000e+00  4.3655500344082290e-02 -2.7291667525829816e-02 0.0000000000000000e+00  4.5200202210626317e-02 -1.4080428325630136e-02 0.0000000000000000e+00  4.6130675438155237e-02 -1.1102142898504436e-03 0.0000000000000000e+00  0.0000000000000000e+00 0.0000000000000000e+00 0.0000000000000000e+00  7.9178001721851834e-04 -3.4454436395933527e-02 0.0000000000000000e+00  2.9793027023548506e-03 -6.3723572084048635e-02 0.0000000000000000e+00  6.2591864106840527e-03 -8.5556969118937315e-02 0.0000000000000000e+00  1.0354622630244351e-02 -9.9677686463139695e-02 0.0000000000000000e+00  1.5048203868752890e-02 -1.0688024321772763e-01 0.0000000000000000e+00  2.0166538061168596e-02 -1.0839968111192140e-01 0.0000000000000000e+00  2.5558005930145653e-02 -1.0551727314231046e-01 0.0000000000000000e+00  3.1074162458243810e-02 -9.9352440715542098e-02 0.0000000000000000e+00  3.6558432268775851e-02 -9.0785103690456698e-02 0.0000000000000000e+00  4.1843490093449592e-02 -8.0459239285350939e-02 0.0000000000000000e+00  4.6756544999151703e-02 -6.8829913184018141e-02 0.0000000000000000e+00  5.1133311400001734e-02 -5.6227551274055473e-02 0.0000000000000000e+00  5.4839141708703985e-02 -4.2923143208623220e-02 0.0000000000000000e+00  5.7787526818126413e-02 -2.9180391327387117e-02 0.0000000000000000e+00  5.9930452176278945e-02 -1.5277284565825004e-02 0.0000000000000000e+00  6.1260417039258726e-02 -1.4382752302461476e-03 0.0000000000000000e+00  0.0000000000000000e+00 0.0000000000000000e+00 0.0000000000000000e+00  9.6820524353480471e-04 -3.6172257206901107e-02 0.0000000000000000e+00  3.6394900840436705e-03 -6.6830614439163868e-02 0.0000000000000000e+00  7.6636834585608118e-03 -8.9726454329869504e-02 0.0000000000000000e+00  1.2732870494205885e-02 -1.0464075473888082e-01 0.0000000000000000e+00  1.8603355438860443e-02 -1.1242525258561166e-01 0.0000000000000000e+00  2.5075679738502280e-02 -1.1434893703101877e-01 0.0000000000000000e+00  3.1967839310369180e-02 -1.1170261576093002e-01 0.0000000000000000e+00  3.9092416470112606e-02 -1.0559797902006041e-01 0.0000000000000000e+00  4.6243718662640057e-02 -9.6899202312816970e-02 0.0000000000000000e+00  5.3195098575121592e-02 -8.6235813465360911e-02 0.0000000000000000e+00  5.9705634574944412e-02 -7.4058900817005904e-02 0.0000000000000000e+00  6.5537369017780234e-02 -6.0714581668843630e-02 0.0000000000000000e+00  7.0479812786953144e-02 -4.6515916968633775e-02 0.0000000000000000e+00  7.4387126187833316e-02 -3.1792886878867457e-02 0.0000000000000000e+00  7.7202863944222780e-02 -1.6885479457812873e-02 0.0000000000000000e+00  7.9012386940995938e-02 -2.0892812490418836e-03 0.0000000000000000e+00  0.0000000000000000e+00 0.0000000000000000e+00 0.0000000000000000e+00  1.1518789329499780e-03 -3.8235712200020353e-02 0.0000000000000000e+00  4.3194656388429705e-03 -7.0561935429327330e-02 0.0000000000000000e+00  9.1030107049215291e-03 -9.4766025733891326e-02 0.0000000000000000e+00  1.5176056016538172e-02 -1.1070093065272635e-01 0.0000000000000000e+00  2.2285481089613608e-02 -1.1927731260518940e-01 0.0000000000000000e+00  3.0218293652745677e-02 -1.2179207739597402e-01 0.0000000000000000e+00  3.8766652395352180e-02 -1.1953448785834953e-01 0.0000000000000000e+00  4.7701588405277502e-02 -1.1359515546610753e-01 0.0000000000000000e+00  5.6759689972313003e-02 -1.0480918307971394e-01 0.0000000000000000e+00  6.5641439600186563e-02 -9.3779310892950288e-02 0.0000000000000000e+00  7.4019307557705000e-02 -8.0941488734306274e-02 0.0000000000000000e+00  8.1557118282861107e-02 -6.6649625211951877e-02 0.0000000000000000e+00  8.7941678102494356e-02 -5.1262047970255090e-02 0.0000000000000000e+00  9.2948340220619458e-02 -3.5204000215582440e-02 0.0000000000000000e+00  9.6503835836235535e-02 -1.8971861816022742e-02 0.0000000000000000e+00  9.8848080113720441e-02 -3.0215981081304589e-03 0.0000000000000000e+00  0.0000000000000000e+00 0.0000000000000000e+00 0.0000000000000000e+00  1.3171007142879494e-03 -4.0631832855646824e-02 0.0000000000000000e+00  4.9317164169672368e-03 -7.4892647059852588e-02 0.0000000000000000e+00  1.0411530753429677e-02 -1.0065367762154226e-01 0.0000000000000000e+00  1.7435590509432199e-02 -1.1785952193580081e-01 0.0000000000000000e+00  2.5763662599820360e-02 -1.2747843563559377e-01 0.0000000000000000e+00  3.5184061716138693e-02 -1.3082140629191205e-01 0.0000000000000000e+00  4.5469132062082224e-02 -1.2915687635736767e-01 0.0000000000000000e+00  5.6346942969120441e-02 -1.2353467609698032e-01 0.0000000000000000e+00  6.7489993638662218e-02 -1.1474286294957493e-01 0.0000000000000000e+00  7.8516509433904091e-02 -1.0334062067137141e-01 0.0000000000000000e+00  8.8998837615667376e-02 -8.9732551453456003e-02 0.0000000000000000e+00  9.8481495568484984e-02 -7.4266504773632669e-02 0.0000000000000000e+00  1.0651626150873310e-01 -5.7341269287120834e-02 0.0000000000000000e+00  1.1275077486654453e-01 -3.9506038107126273e-02 0.0000000000000000e+00  1.1703692444729658e-01 -2.1511256577668371e-02 0.0000000000000000e+00  1.1976483881357336e-01 -4.1268477303241435e-03 0.0000000000000000e+00  0.0000000000000000e+00 0.0000000000000000e+00 0.0000000000000000e+00  1.4371951679872227e-03 -4.3299407978793072e-02 0.0000000000000000e+00  5.3830565645491399e-03 -7.9722476652759888e-02 0.0000000000000000e+00  1.1408335080097958e-02 -1.0728033152420437e-01 0.0000000000000000e+00  1.9233654330736229e-02 -1.2602740421864120e-01 0.0000000000000000e+00  2.8659154350352354e-02 -1.3698024954084709e-01 0.0000000000000000e+00  3.9490669239097262e-02 -1.4144000842891588e-01 0.0000000000000000e+00  5.1486794806435233e-02 -1.4062648595979205e-01 0.0000000000000000e+00  6.4331985443884410e-02 -1.3552356251003711e-01 0.0000000000000000e+00  7.7631584545428595e-02 -1.2685167039627332e-01 0.0000000000000000e+00  9.0918170279976104e-02 -1.1510913291836382e-01 0.0000000000000000e+00  1.0365989885295362e-01 -1.0065041316642639e-01 0.0000000000000000e+00  1.1527291402600209e-01 -8.3788883563016753e-02 0.0000000000000000e+00  1.2514131681978849e-01 -6.4932564908811857e-02 0.0000000000000000e+00  1.3270236963212168e-01 -4.4759289898002756e-02 0.0000000000000000e+00  1.3760559907490524e-01 -2.4366965165012716e-02 0.0000000000000000e+00  1.4025328674705279e-01 -5.0365911141997980e-03 0.0000000000000000e+00  0.0000000000000000e+00 0.0000000000000000e+00 0.0000000000000000e+00  1.4836923244469003e-03 -4.6125790530408016e-02 0.0000000000000000e+00  5.5745698295740177e-03 -8.4868880664194443e-02 0.0000000000000000e+00  1.1899731173957713e-02 -1.1443862178049229e-01 0.0000000000000000e+00  2.0266546976911697e-02 -1.3500809788525722e-01 0.0000000000000000e+00  3.0545183566493102e-02 -1.4761949551033779e-01 0.0000000000000000e+00  4.2574086203303343e-02 -1.5352804904062894e-01 0.0000000000000000e+00  5.6102870981346309e-02 -1.5386892330833055e-01 0.0000000000000000e+00  7.0772550619807015e-02 -1.4953146902571821e-01 0.0000000000000000e+00  8.6121817412378635e-02 -1.4114948026746690e-01 0.0000000000000000e+00  1.0160240032548505e-01 -1.2914713732712846e-01 0.0000000000000000e+00  1.1659311116254634e-01 -1.1380840859461543e-01 0.0000000000000000e+00  1.3039473721760289e-01 -9.5374813040754791e-02 0.0000000000000000e+00  1.4220523687521380e-01 -7.4211587367206136e-02 0.0000000000000000e+00  1.5116708960173261e-01 -5.1055517266616390e-02 0.0000000000000000e+00  1.5652389570104783e-01 -2.7333495890699680e-02 0.0000000000000000e+00  1.5830969443293705e-01 -5.0238798173146615e-03 0.0000000000000000e+00  0.0000000000000000e+00 0.0000000000000000e+00 0.0000000000000000e+00  1.4293057183927011e-03 -4.8946047326515037e-02 0.0000000000000000e+00  5.4124330262198157e-03 -9.0066059574660740e-02 0.0000000000000000e+00  1.1699806128334964e-02 -1.2181736683302816e-01 0.0000000000000000e+00  2.0232612234400638e-02 -1.4448255073314506e-01 0.0000000000000000e+00  3.0976746437942942e-02 -1.5908929055768689e-01 0.0000000000000000e+00  4.3813765648667770e-02 -1.6679851238647869e-01 0.0000000000000000e+00  5.8487072097809123e-02 -1.6861864717606928e-01 0.0000000000000000e+00  7.4595694134763191e-02 -1.6531580886588224e-01 0.0000000000000000e+00  9.1616451671559032e-02 -1.5742300984206131e-01 0.0000000000000000e+00  1.0893659525291187e-01 -1.4528545556263436e-01 0.0000000000000000e+00  1.2587780097485651e-01 -1.2911347789483055e-01 0.0000000000000000e+00  1.4166583859006318e-01 -1.0905509408829032e-01 0.0000000000000000e+00  1.5537600794398260e-01 -8.5314140523086057e-02 0.0000000000000000e+00  1.6582909973805934e-01 -5.8444518294466521e-02 0.0000000000000000e+00  1.7155057649271613e-01 -3.0069194658508391e-02 0.0000000000000000e+00  1.7156528926215148e-01 -3.1007541958180994e-03 0.0000000000000000e+00  0.0000000000000000e+00 0.0000000000000000e+00 0.0000000000000000e+00  1.2561297241587192e-03 -5.1552227643406404e-02 0.0000000000000000e+00  4.8346155278564222e-03 -9.4978787879677368e-02 0.0000000000000000e+00  1.0677573904483225e-02 -1.2900985004893242e-01 0.0000000000000000e+00  1.8895828535710219e-02 -1.5400281031611238e-01 0.0000000000000000e+00  2.9564340436078036e-02 -1.7091282132267566e-01 0.0000000000000000e+00  4.2610626372874681e-02 -1.8074945361860401e-01 0.0000000000000000e+00  5.7773586841900884e-02 -1.8435113196956673e-01 0.0000000000000000e+00  7.4615844461765099e-02 -1.8233539192809614e-01 0.0000000000000000e+00  9.2564891160488813e-02 -1.7512668748286847e-01 0.0000000000000000e+00  1.1096582527955769e-01 -1.6300191398807715e-01 0.0000000000000000e+00  1.2911629552814916e-01 -1.4612298885328220e-01 0.0000000000000000e+00  1.4626434805223981e-01 -1.2453104052731270e-01 0.0000000000000000e+00  1.6153872640640604e-01 -9.8153719029522565e-02 0.0000000000000000e+00  1.7346804260392512e-01 -6.7168612621948093e-02 0.0000000000000000e+00  1.7976231007969612e-01 -3.2937895112090818e-02 0.0000000000000000e+00  1.7756554707182187e-01 1.5658397018447358e-03 0.0000000000000000e+00  0.0000000000000000e+00 0.0000000000000000e+00 0.0000000000000000e+00  9.7045680870163286e-04 -5.3722709778156644e-02 0.0000000000000000e+00  3.8556295810075665e-03 -9.9242660820686238e-02 0.0000000000000000e+00  8.8320400809932670e-03 -1.3554585093867538e-01 0.0000000000000000e+00  1.6186064724113863e-02 -1.6300352066246085e-01 0.0000000000000000e+00  2.6094598875352214e-02 -1.8242931542518814e-01 0.0000000000000000e+00  3.8525669601492167e-02 -1.9462510352831672e-01 0.0000000000000000e+00  5.3218427873938330e-02 -2.0022316195532786e-01 0.0000000000000000e+00  6.9715909279832747e-02 -1.9967472033900244e-01 0.0000000000000000e+00  8.7420991248029545e-02 -1.9329363989248252e-01 0.0000000000000000e+00  1.0565784567785103e-01 -1.8130531332949604e-01 0.0000000000000000e+00  1.2373203945849093e-01 -1.6386114270206256e-01 0.0000000000000000e+00  1.4100840704490428e-01 -1.4097871915726656e-01 0.0000000000000000e+00  1.5679647587013415e-01 -1.1243968233941300e-01 0.0000000000000000e+00  1.6984164311397934e-01 -7.7610920184180907e-02 0.0000000000000000e+00  1.7764355238604240e-01 -3.5989565065620621e-02 0.0000000000000000e+00  1.7464723182553410e-01 8.6805648189228150e-03 0.0000000000000000e+00  0.0000000000000000e+00 0.0000000000000000e+00 0.0000000000000000e+00  6.2328015030884483e-04 -5.5281326423932756e-02 0.0000000000000000e+00  2.6212938980616799e-03 -1.0253871743233497e-01 0.0000000000000000e+00  6.3783422881664434e-03 -1.4095330628772423e-01 0.0000000000000000e+00  1.2314326319070921e-02 -1.7083979909492644e-01 0.0000000000000000e+00  2.0677883409920848e-02 -1.9280641921619232e-01 0.0000000000000000e+00  3.1466856278911451e-02 -2.0740635770506008e-01 0.0000000000000000e+00  4.4435096052994151e-02 -2.1504855145627652e-01 0.0000000000000000e+00  5.9142879762720549e-02 -2.1601424904793143e-01 0.0000000000000000e+00  7.5014470651884060e-02 -2.1050674666170699e-01 0.0000000000000000e+00  9.1390722134107163e-02 -1.9870123385952129e-01 0.0000000000000000e+00  1.0760059539762798e-01 -1.8076953877574847e-01 0.0000000000000000e+00  1.2304783754613624e-01 -1.5684853880937141e-01 0.0000000000000000e+00  1.3727554876135037e-01 -1.2675387193604767e-01 0.0000000000000000e+00  1.5027533371217136e-01 -8.9069236648437272e-02 0.0000000000000000e+00  1.6025110723128402e-01 -4.0758193426950119e-02 0.0000000000000000e+00  1.5546503577932180e-01 1.6933666765273334e-02 0.0000000000000000e+00  0.0000000000000000e+00 0.0000000000000000e+00 0.0000000000000000e+00  3.2400802005038933e-04 -5.6191604853066020e-02 0.0000000000000000e+00  1.4370059419880300e-03 -1.0469155066390624e-01 0.0000000000000000e+00  3.7862820918078896e-03 -1.4484296007850547e-01 0.0000000000000000e+00  7.8384865493005829e-03 -1.7685811745648472e-01 0.0000000000000000e+00  1.3864443682593562e-02 -2.0109902445257880e-01 0.0000000000000000e+00  2.1879171520545745e-02 -2.1786221788993765e-01 0.0000000000000000e+00  3.1679728066694932e-02 -2.2734871917906296e-01 0.0000000000000000e+00  4.2904594243292196e-02 -2.2968898843020844e-01 0.0000000000000000e+00  5.5078829346700893e-02 -2.2498116068088739e-01 0.0000000000000000e+00  6.7641147129932869e-02 -2.1333046070383657e-01 0.0000000000000000e+00  7.9964303057419264e-02 -1.9489082024845550e-01 0.0000000000000000e+00  9.1367814661053995e-02 -1.6988750345509643e-01 0.0000000000000000e+00  1.0142885382309709e-01 -1.3850260189836025e-01 0.0000000000000000e+00  1.1053845489928446e-01 -1.0047424274714707e-01 0.0000000000000000e+00  1.1949703215908099e-01 -5.2152109547235689e-02 0.0000000000000000e+00  1.2761706507015372e-01 1.5921891805545322e-02 0.0000000000000000e+00  0.0000000000000000e+00 0.0000000000000000e+00 0.0000000000000000e+00  2.0064356668031243e-04 -5.6610844042917101e-02 0.0000000000000000e+00  6.4292007557133657e-04 -1.0573223651587416e-01 0.0000000000000000e+00  1.6286507751222265e-03 -1.4700515457378463e-01 0.0000000000000000e+00  3.5508058173023562e-03 -1.8051867853307674e-01 0.0000000000000000e+00  6.6196058239060560e-03 -2.0639401056079468e-01 0.0000000000000000e+00  1.0850389795024536e-02 -2.2471849362487639e-01 0.0000000000000000e+00  1.6122756290550006e-02 -2.3554405765182204e-01 0.0000000000000000e+00  2.2227960749684767e-02 -2.3889992472544960e-01 0.0000000000000000e+00  2.8893623616670618e-02 -2.3480639281446103e-01 0.0000000000000000e+00  3.5784693585309335e-02 -2.2328964594109313e-01 0.0000000000000000e+00  4.2470012433689766e-02 -2.0440318418743342e-01 0.0000000000000000e+00  4.8380015870735343e-02 -1.7824854680605137e-01 0.0000000000000000e+00  5.2783054604839841e-02 -1.4507831202043336e-01 0.0000000000000000e+00  5.4422166963100142e-02 -1.0527423700695104e-01 0.0000000000000000e+00  5.4503655226924436e-02 -5.8062639136799377e-02 0.0000000000000000e+00  4.8172080133503839e-02 2.8570070242824831e-03 0.0000000000000000e+00  0.0000000000000000e+00 1.0257806495145430e-17 0.0000000000000000e+00  0.0000000000000000e+00 -5.6752919597382628e-02 0.0000000000000000e+00  0.0000000000000000e+00 -1.0593878324844758e-01 0.0000000000000000e+00  0.0000000000000000e+00 -1.4755759095319482e-01 0.0000000000000000e+00  0.0000000000000000e+00 -1.8160934271162441e-01 0.0000000000000000e+00  0.0000000000000000e+00 -2.0809403852373631e-01 0.0000000000000000e+00  0.0000000000000000e+00 -2.2701167838953054e-01 0.0000000000000000e+00  0.0000000000000000e+00 -2.3836226230900703e-01 0.0000000000000000e+00  0.0000000000000000e+00 -2.4214