<?xml version="1.0"?>
<VTKFile type="UnstructuredGrid"  version="0.1"  >
<UnstructuredGrid>
<Piece  NumberOfPoints="289" NumberOfCells="512">
<Points>
<DataArray  type="Float64"  NumberOfComponents="3"  format="ascii">0 0 0  0.0625 0 0  0.125 0 0  0.1875 0 0  0.25 0 0  0.3125 0 0  0.375 0 0  0.4375 0 0  0.5 0 0  0.5625 0 0  0.625 0 0  0.6875 0 0  0.75 0 0  0.8125 0 0  0.875 0 0  0.9375 0 0  1 0 0  0 0.0625 0  0.06247425368005749 0.06249407661395268 0  0.1249477636558656 0.06248806657303611 0  0.1874197829152055 0.06248189580210407 0  0.2498895711572092 0.06247551799478401 0  0.3123564053201529 0.06246893218552534 0  0.374819599067192 0.06246220420896373 0  0.4372785339091103 0.0624554920570179 0  0.4997327030408217 0.06244907331119132 0  0.5621817639718405 0.06244336963025055 0  0.6246255815168289 0.06243895851992182 0  0.687064199054877 0.06243655821683062 0  0.7494975314552403 0.06243697986934285 0  0.8119240318779173 0.06244112463355552 0  0.874335299545812 0.06245057243362655 0  0.93669295580413 0.06247184491270576 0  0.9988206246563764 0.06254333277227708 0  0 0.125 0  0.06244923217725893 0.1249882404401787 0  0.1248969787380525 0.124976294390328 0  0.1873417473930716 0.1249639989889331 0  0.2497820585476274 0.1249512439408074 0  0.3122164679777324 0.124938005681419 0  0.3746436108763569 0.1249243902574114 0  0.4370622761374159 0.1249106858468601 0  0.4994715202713868 0.1248974226886136 0  0.5618708291823957 0.124885432130025 0  0.6242603302956667 0.1248758857051369 0  0.6866410398154642 0.1248702769227689 0  0.7490150807135088 0.1248702772922755 0  0.8113856852682255 0.1248773311491551 0  0.8737566345795968 0.1248916073308437 0  0.9361319685397272 0.1249085166041784 0  0.9985332431554893 0.124901498275242 0  0 0.1875 0  0.06242569124863295 0.1874825918473875 0  0.124849154977433 0.1874648726467864 0  0.187268150449276 0.187446562843679 0  0.2496804469856494 0.1874274539427473 0  0.3120838552720018 0.1874074568523171 0  0.3744762941710851 0.1873866652999671 0  0.4368559101116311 0.1873654378686852 0  0.4992212701983151 0.1873444990595498 0  0.5615716544698081 0.1873250529300376 0  0.6239074759723442 0.1873088893648941 0  0.686230856805196 0.1872984381157924 0  0.7485463790038236 0.1872966806541139 0  0.8108620110574495 0.187306744892939 0  0.8731902579894614 0.1873308340709177 0  0.9355501766965358 0.1873678294814627 0  0.9979734250487217 0.1874094213194894 0  0 0.25 0  0.06240438802799486 0.249977255881131 0  0.1248058092891552 0.2499540431611105 0  0.1872012706164895 0.2499299275583671 0  0.2495877690306366 0.2499045540812669 0  0.3119623219990191 0.2498777048339992 0  0.3743220464809509 0.249849379542829 0  0.436664312384244 0.2498199069884897 0  0.4989870037523004 0.2497900942867431 0  0.5612889291788895 0.2497614164136989 0  0.6235704285177479 0.2497362372540978 0  0.685834218935544 0.2497180305643468 0  0.7480864962499055 0.2497115272697686 0  0.8103382388233026 0.2497226471264155 0  0.8726065537722834 0.2497579851009175 0  0.9349158642348222 0.2498236112011457 0  0.9972988985629839 0.2499234502686724 0  0 0.3125 0  0.06238607360947281 0.3124723905018051 0  0.1247684548722786 0.3124441187563791 0  0.1871434020777775 0.312414552713589 0  0.24950711880996 0.3123831332516445 0  0.3118557674383417 0.3123494335213567 0  0.3741855410611341 0.3123132486287207 0  0.4364928275600254 0.3122747299976779 0  0.4987745114865701 0.3122345814121819 0  0.5610284723958952 0.3121943348895789 0  0.6232543464212759 0.3121567209580416 0  0.6854546092660033 0.3121261335371298 0  0.7476359925982127 0.3121091545771977 0  0.8098111391833743 0.3121150358028972 0  0.8720002471099424 0.3121559318534525 0  0.934232394946249 0.3122465853352096 0  0.9965466693763649 0.3124032158838608 0  0 0.375 0  0.06237147751771688 0.3749681896273852 0  0.124738573549031 0.3749354913101797 0  0.1870968224588734 0.3749010346594302 0  0.2494416288157454 0.374863997397015 0  0.3117682434541414 0.3748236546954243 0  0.374071801051561 0.3747794640345444 0  0.4363474596712131 0.3747312062064568 0  0.4985907013789332 0.3746792113090917 0  0.5607978756302738 0.3746247087458452 0  0.6229670875344843 0.374570350120723 0  0.6850995361190525 0.3745209568455073 0  0.7472013650484083 0.3744845247987034 0  0.8092859637656594 0.3744734465582713 0  0.8713764405968878 0.3745057421948711 0  0.9335077729536572 0.3746057815638879 0  0.9957281487024869 0.3748035539961483 0  0 0.4375 0  0.06236128197571335 0.4374648790200447 0  0.1247175662966331 0.4374286251488518 0  0.1870637244713239 0.4373901012668949 0  0.249394392266036 0.4373481730756913 0  0.3117038848631755 0.4373017338771667 0  0.3739861663947065 0.4372497644871746 0  0.4362349180713599 0.4371914530553594 0  0.4984437771705824 0.4371264139188987 0  0.5606068592939979 0.4370550662694275 0  0.6227197263282642 0.4369792633349589 0  0.6847810085984529 0.4369032975060177 0  0.7467948939093693 0.4368354296869054 0  0.8087745841195298 0.4367900545491712 0  0.8707464899746004 0.4367904142021489 0  0.9327543371614617 0.4368712518500558 0  0.9948616712380978 0.4370798641987852 0  0 0.5 0  0.06235608499292394 0.4999627034162418 0  0.1247066791065224 0.4999240319614214 0  0.1870461047597726 0.4998825766220407 0  0.2493683176580651 0.4998368669290143 0  0.3116667382901954 0.4997853556712694 0  0.373934116431674 0.4997264297832978 0  0.4361624698647962 0.4996584712473586 0  0.4983431767897946 0.4995800107790514 0  0.5604673660116768 0.4994900496527829 0  0.6225268498855688 0.4993886788666649 0  0.684515982694181 0.4992782077194302 0  0.7464349653982343 0.4991651238180886 0  0.8082951269999071 0.4990633007119908 0  0.8701262956727474 0.4989987896603772 0  0.9319850958101578 0.4990158910520269 0  0.9939608440237818 0.4991824079022654 0  0 0.5625 0  0.06235635303060076 0.5624619042800364 0  0.1247069048544744 0.5624222252847617 0  0.1870456087065293 0.5623793107359585 0  0.2493659090938952 0.5623313700389534 0  0.3116604730725447 0.562276406120953 0  0.3739209159208258 0.5622121543209474 0  0.4361375471241372 0.5621360434309641 0  0.4982992061476896 0.5620452126566592 0  0.5603933450495879 0.5619366551400404 0  0.6224066807929487 0.5618076301717948 0  0.6843270276661403 0.5616566207808851 0  0.7461473474299408 0.5614853523947025 0  0.8078734911207381 0.5613027609495663 0  0.869536975926948 0.5611321970769114 0  0.9312120117919329 0.5610229470237016 0  0.9930299703605643 0.5610646207898927 0  0 0.625 0  0.06236236634724894 0.6249626892357273 0  0.1247188668615335 0.6249236561196789 0  0.1870633379994091 0.6248810749261882 0  0.2493889770366243 0.6248329039432396 0  0.311687970196496 0.6247767590724073 0  0.3739510602699311 0.6247097666376613 0  0.436167047103022 0.6246283930200962 0  0.498322248842451 0.6245282591531264 0  0.5604000417363467 0.6244039744377309 0  0.6223808090758544 0.6242490889483254 0  0.6842430921750992 0.6240564142999179 0  0.7459676397001994 0.6238193105651572 0  0.8075475262894698 0.6235352908743069 0  0.8690090134264598 0.6232147333089719 0  0.9304463816298079 0.6228992616322423 0  0.9920619776534606 0.6226923613552797 0  0 0.6875 0  0.06237416292681726 0.6874651964469939 0  0.1247426961071056 0.6874286361264753 0  0.1870996387637878 0.6873884320518008 0  0.2494383011848594 0.6873424186798952 0  0.311750808338743 0.6872879738851498 0  0.3740275202551852 0.6872217891597723 0  0.4362562731947383 0.6871395622688485 0  0.498421387724728 0.6870355804315033 0  0.5605024348146899 0.6869021593397419 0  0.6224729272817295 0.6867289179425023 0  0.684299633128763 0.6865019457851065 0  0.7459445933244414 0.6862031993274842 0  0.8073751227923048 0.6858113731545117 0  0.8685930849219524 0.6853082316989552 0  0.9297008404703064 0.6847014837585335 0  0.9910085589801362 0.684084041992724 0  0 0.75 0  0.06239148971747186 0.7499694594907071 0  0.1247779208497999 0.7499372601601982 0  0.187153901269548 0.749901600815864 0  0.2495132907033528 0.749860370997837 0  0.3118487049139804 0.7498109421478872 0  0.3741508437562593 0.7497498820428418 0  0.4364075324987226 0.7496725448438121 0  0.4986023131379123 0.7495724634865831 0  0.5607123606814535 0.7494404284930143 0  0.6227054836222707 0.7492630671866556 0  0.6845362168076877 0.7490206289757235 0  0.7461422620627808 0.748683560116282 0  0.8074469783783055 0.7482075820084696 0  0.8683869724773157 0.7475289501561536 0  0.9290152571728173 0.7465736692707423 0  0.9897377647568385 0.7453586496944314 0  0 0.8125 0  0.06241377194639881 0.8124753798858773 0  0.1248233929134652 0.8124493439695785 0  0.1872244146706834 0.8124203418983549 0  0.2496117133657837 0.8123865280034056 0  0.3119790226432519 0.8123455546022459 0  0.3743182704123872 0.8122942793011101 0  0.4366185725518021 0.8122283279230774 0  0.4988646286799757 0.812141417215532 0  0.5610340670846271 0.8120242724389628 0  0.6230929402631175 0.8118628406358499 0  0.6849880520087749 0.81163521723068 0  0.7466344068943939 0.8113060506777775 0  0.807897886600599 0.8108155857388726 0  0.8685874720249442 0.8100566134949551 0  0.9285453667336564 0.8088250334069533 0  0.9883048755751535 0.8067372620244022 0  0 0.875 0  0.06244011136653713 0.8749827145614963 0  0.1248772761939568 0.8749643936953627 0  0.1873083259688045 0.874943896699016 0  0.249729583284346 0.874919850266042 0  0.3121365008962219 0.8748904819962262 0  0.3745231334245923 0.8748533798607389 0  0.436881302941112 0.8748051258304996 0  0.4991991936582417 0.87474071813376 0  0.5614588399641611 0.8746526366117703 0  0.623631369234432 0.8745292957024936 0  0.68566748605193 0.8743524093156557 0  0.7474775414443791 0.8740922574435814 0  0.8088886415448495 0.8736981569008215 0  0.8695532418690638 0.8730749302521625 0  0.9287719523365981 0.87200891827056 0  0.985288001675994 0.8698815280603353 0  0 0.9375 0  0.0624693213072192 0.9374910836319257 0  0.1249371168717173 0.9374816198704318 0  0.1874017437968511 0.9374710034609801 0  0.24986128947772 0.937458500828292 0  0.3123133786120083 0.9374431571003478 0  0.3747548875014581 0.9374236604559363 0  0.4371814848557222 0.93739813398
[...]
<PointData  Vectors="f_54"> 
<DataArray  type="Float64"  Name="f_54"  NumberOfComponents="3" format="ascii">0.0000000000000000e+00 0.0000000000000000e+00 0.0000000000000000e+00  0.0000000000000000e+00 0.0000000000000000e+00 0.0000000000000000e+00  0.0000000000000000e+00 0.0000000000000000e+00 0.0000000000000000e+00  0.0000000000000000e+00 0.0000000000000000e+00 0.0000000000000000e+00  0.0000000000000000e+00 0.0000000000000000e+00 0.0000000000000000e+00  0.0000000000000000e+00 0.0000000000000000e+00 0.0000000000000000e+00  0.0000000000000000e+00 0.0000000000000000e+00 0.0000000000000000e+00  0.0000000000000000e+00 0.0000000000000000e+00 0.0000000000000000e+00  0.0000000000000000e+00 0.0000000000000000e+00 0.0000000000000000e+00  0.0000000000000000e+00 0.0000000000000000e+00 0.0000000000000000e+00  0.0000000000000000e+00 0.0000000000000000e+00 0.0000000000000000e+00  0.0000000000000000e+00 0.0000000000000000e+00 0.0000000000000000e+00  0.0000000000000000e+00 0.0000000000000000e+00 0.0000000000000000e+00  0.0000000000000000e+00 0.0000000000000000e+00 0.0000000000000000e+00  0.0000000000000000e+00 0.0000000000000000e+00 0.0000000000000000e+00  0.0000000000000000e+00 0.0000000000000000e+00 0.0000000000000000e+00  0.0000000000000000e+00 0.0000000000000000e+00 0.0000000000000000e+00  0.0000000000000000e+00 0.0000000000000000e+00 0.0000000000000000e+00  3.8391378610162031e-06 1.9587555449448093e-08 0.0000000000000000e+00  7.7854324135817420e-06 3.9173618227276570e-08 0.0000000000000000e+00  1.1945837086344039e-05 5.8646481567121823e-08 0.0000000000000000e+00  1.6425148203173583e-05 7.7646189141654432e-08 0.0000000000000000e+00  2.1323751815752596e-05 9.5384922624952342e-08 0.0000000000000000e+00  2.6733916764943205e-05 1.1039023039850430e-07 0.0000000000000000e+00  3.2734185580883514e-05 1.2012373847013608e-07 0.0000000000000000e+00  3.9381579644887083e-05 1.2039642500258326e-07 0.0000000000000000e+00  4.6701794843408992e-05 1.0442968414848586e-07 0.0000000000000000e+00  5.4678741090047958e-05 6.1227447331555168e-08 0.0000000000000000e+00  6.3247888287927602e-05 -2.7602529505124552e-08 0.0000000000000000e+00  7.2306908355036664e-05 -1.9512069645510101e-07 0.0000000000000000e+00  8.1786441292012066e-05 -5.0888756282395193e-07 0.0000000000000000e+00  9.1929123194178756e-05 -1.1346492669229268e-06 0.0000000000000000e+00  1.0433155261197753e-04 -2.5693216343810992e-06 0.0000000000000000e+00  1.2591658736854722e-04 -6.5655608753074991e-06 0.0000000000000000e+00  0.0000000000000000e+00 0.0000000000000000e+00 0.0000000000000000e+00  7.5671944189048209e-06 3.9156852252907220e-08 0.0000000000000000e+00  1.5349212915161340e-05 7.8423929162733275e-08 0.0000000000000000e+00  2.3560860598901795e-05 1.1771223548916405e-07 0.0000000000000000e+00  3.2413555226162779e-05 1.5648254034201220e-07 0.0000000000000000e+00  4.2111305415863468e-05 1.9341932079582405e-07 0.0000000000000000e+00  5.2843760808445658e-05 2.2596660049599693e-07 0.0000000000000000e+00  6.4775327168716505e-05 2.4964773220857407e-07 0.0000000000000000e+00  7.8029501013431745e-05 2.5705236792017361e-07 0.0000000000000000e+00  9.2668076188935601e-05 2.3630206607154019e-07 0.0000000000000000e+00  1.0866601126351751e-04 1.6866827907111754e-07 0.0000000000000000e+00  1.2588498766198127e-04 2.4765706278914573e-08 0.0000000000000000e+00  1.4405246971493910e-04 -2.4156308054019399e-07 0.0000000000000000e+00  1.6275673386165697e-04 -7.0189797110805203e-07 0.0000000000000000e+00  1.8145445565724398e-04 -1.4559918655943807e-06 0.0000000000000000e+00  1.9934410704615342e-04 -2.5628513146695993e-06 0.0000000000000000e+00  2.1404962118185320e-04 -3.5072374012228274e-06 0.0000000000000000e+00  0.0000000000000000e+00 0.0000000000000000e+00 0.0000000000000000e+00  1.1075905145163821e-05 5.8593062169181570e-08 0.0000000000000000e+00  2.2475223681528426e-05 1.1761339289316023e-07 0.0000000000000000e+00  3.4522318234610131e-05 1.7723826257037408e-07 0.0000000000000000e+00  4.7538807247659903e-05 2.3707561471725887e-07 0.0000000000000000e+00  6.1838782677998299e-05 2.9574850653149869e-07 0.0000000000000000e+00  7.7719641184062718e-05 3.5030307649581433e-07 0.0000000000000000e+00  9.5446824998519851e-05 3.9534868976979150e-07 0.0000000000000000e+00  1.1523075140229414e-04 4.2180886306710676e-07 0.0000000000000000e+00  1.3719444814277063e-04 4.1512211546224830e-07 0.0000000000000000e+00  1.6133104398859463e-04 3.5268548247231244e-07 0.0000000000000000e+00  1.8745120565630681e-04 2.0029711585087462e-07 0.0000000000000000e+00  2.1512084712451804e-04 -9.2608464569087682e-08 0.0000000000000000e+00  2.4358491322247117e-04 -5.9892049953484840e-07 0.0000000000000000e+00  2.7165159955514141e-04 -1.4212893185868459e-06 0.0000000000000000e+00  2.9744799134572139e-04 -2.7118863004702952e-06 0.0000000000000000e+00  3.1787418113603331e-04 -4.8153210375338462e-06 0.0000000000000000e+00  0.0000000000000000e+00 0.0000000000000000e+00 0.0000000000000000e+00  1.4256207628387067e-05 7.7576262262701303e-08 0.0000000000000000e+00  2.8944822149767495e-05 1.5615563133570856e-07 0.0000000000000000e+00  4.4501314061540676e-05 2.3648983262895449e-07 0.0000000000000000e+00  6.1361815283822167e-05 3.1874905266186034e-07 0.0000000000000000e+00  7.9959142649936471e-05 4.0208753971457525e-07 0.0000000000000000e+00  1.0071312791219511e-04 4.8401611836375614e-07 0.0000000000000000e+00  1.2401276196465126e-04 5.5948575935500645e-07 0.0000000000000000e+00  1.5018732716233870e-04 6.1956545774669895e-07 0.0000000000000000e+00  1.7946353740137930e-04 6.4958719695058318e-07 0.0000000000000000e+00  2.1190590804784346e-04 6.2665632211380970e-07 0.0000000000000000e+00  2.4733819957257033e-04 5.1653600853499386e-07 0.0000000000000000e+00  2.8524441677234519e-04 2.7018343545052017e-07 0.0000000000000000e+00  3.2464706311610383e-04 -1.7930569834371990e-07 0.0000000000000000e+00  3.6395579799018213e-04 -9.1805278937430100e-07 0.0000000000000000e+00  4.0077350787893102e-04 -2.0493854322051678e-06 0.0000000000000000e+00  4.3166911291519957e-04 -3.6782459531846374e-06 0.0000000000000000e+00  0.0000000000000000e+00 0.0000000000000000e+00 0.0000000000000000e+00  1.6998807543539656e-05 9.5527876155029483e-08 0.0000000000000000e+00  3.4537548461535843e-05 1.9289680819187872e-07 0.0000000000000000e+00  5.3162767006850601e-05 2.9374882534404733e-07 0.0000000000000000e+00  7.3428575121561868e-05 3.9924918879793108e-07 0.0000000000000000e+00  9.5895597191289830e-05 5.0970955958135843e-07 0.0000000000000000e+00  1.2112329663458002e-04 6.2402145274852193e-07 0.0000000000000000e+00  1.4965239856123849e-04 7.3880082841050855e-07 0.0000000000000000e+00  1.8197332789383604e-04 8.4712112759647964e-07 0.0000000000000000e+00  2.1847586392031816e-04 9.3670416147610464e-07 0.0000000000000000e+00  2.5937490850126645e-04 9.8748502715876094e-07 0.0000000000000000e+00  3.0460790505007696e-04 9.6864689550147876e-07 0.0000000000000000e+00  3.5370176232150805e-04 8.3566633422305083e-07 0.0000000000000000e+00  4.0561216681972152e-04 5.2880254106373312e-07 0.0000000000000000e+00  4.5854805745246258e-04 -2.3960238763801376e-08 0.0000000000000000e+00  5.0981540572368246e-04 -8.9359744648757499e-07 0.0000000000000000e+00  5.5576677696265227e-04 -2.1129971653329408e-06 0.0000000000000000e+00  0.0000000000000000e+00 0.0000000000000000e+00 0.0000000000000000e+00  1.9196086706272608e-05 1.1160746138471185e-07 0.0000000000000000e+00  3.9034603619808128e-05 2.2610439587979068e-07 0.0000000000000000e+00  6.0169719596816988e-05 3.4628438342078349e-07 0.0000000000000000e+00  8.3274016559141159e-05 4.7468175853712459e-07 0.0000000000000000e+00  1.0904292769497778e-04 6.1332873593734293e-07 0.0000000000000000e+00  1.3819233622050481e-04 7.6334888810534650e-07 0.0000000000000000e+00  1.7144538826312946e-04 9.2428545931460642e-07 0.0000000000000000e+00  2.0950314349158839e-04 1.0930201744955766e-06 0.0000000000000000e+00  2.5299207866229348e-04 1.2620935175402529e-06 0.0000000000000000e+00  3.0238011631253522e-04 1.4172262635897961e-06 0.0000000000000000e+00  3.5785272077785301e-04 1.5339568321424103e-06 0.0000000000000000e+00  4.1914340912166761e-04 1.5737442496915950e-06 0.0000000000000000e+00  4.8532145513206803e-04 1.4809576979913852e-06 0.0000000000000000e+00  5.5455707486613283e-04 1.1841563209472901e-06 0.0000000000000000e+00  6.2391401324942732e-04 6.0740236064712204e-07 0.0000000000000000e+00  6.8926054523098061e-04 -3.0408547127547169e-07 0.0000000000000000e+00  0.0000000000000000e+00 0.0000000000000000e+00 0.0000000000000000e+00  2.0745686606173625e-05 1.2476470365725755e-07 0.0000000000000000e+00  4.2225837799235176e-05 2.5357361705614183e-07 0.0000000000000000e+00  6.5193291360679030e-05 3.9051804676712718e-07 0.0000000000000000e+00  9.0434023479809604e-05 5.3973998310260659e-07 0.0000000000000000e+00  1.1877989158977552e-04 7.0539284437406408e-07 0.0000000000000000e+00  1.5111541672585210e-04 8.9149570028977498e-07 0.0000000000000000e+00  1.8837436213035229e-04 1.1015886145795310e-06 0.0000000000000000e+00  2.3151965484837192e-04 1.3380250715004154e-06 0.0000000000000000e+00  2.8149728156020139e-04 1.6006210086135326e-06 0.0000000000000000e+00  3.3915148796966011e-04 1.8842191868276334e-06 0.0000000000000000e+00  4.0508599020865017e-04 2.1745842572297859e-06 0.0000000000000000e+00  4.7945642493042371e-04 2.4421538144004988e-06 0.0000000000000000e+00  5.6168736861453804e-04 2.6341371838708555e-06 0.0000000000000000e+00  6.5012881151897445e-04 2.6683741826666991e-06 0.0000000000000000e+00  7.4170481450926422e-04 2.4382402762162740e-06 0.0000000000000000e+00  8.3164993813771558e-04 1.8451527248001477e-06 0.0000000000000000e+00  0.0000000000000000e+00 0.0000000000000000e+00 0.0000000000000000e+00  2.1555938964415707e-05 1.3384408593899090e-07 0.0000000000000000e+00  4.3920685610193231e-05 2.7284732205527587e-07 0.0000000000000000e+00  6.7929176871034250e-05 4.2237920664300577e-07 0.0000000000000000e+00  9.4467311015000268e-05 5.8822268943863757e-07 0.0000000000000000e+00  1.2449565374079890e-04 7.7678945424757342e-07 0.0000000000000000e+00  1.5906957554824867e-04 9.9532551782505535e-07 0.0000000000000000e+00  1.9935199594884947e-04 1.2520551026093970e-06 0.0000000000000000e+00  2.4661195207976744e-04 1.5561238463053707e-06 0.0000000000000000e+00  3.0219771422372870e-04 1.9170148585282901e-06 0.0000000000000000e+00  3.6746692320493047e-04 2.3427421500355096e-06 0.0000000000000000e+00  4.4364877578668564e-04 2.8354957637929734e-06 0.0000000000000000e+00  5.3160717913394771e-04 3.3826042580881541e-06 0.0000000000000000e+00  6.3147554755961966e-04 3.9404354314350792e-06 0.0000000000000000e+00  7.4215551039872609e-04 4.4116157641901676e-06 0.0000000000000000e+00  8.6072591709776699e-04 4.6266892304355776e-06 0.0000000000000000e+00  9.8188264996881109e-04 4.3634724419390047e-06 0.0000000000000000e+00  0.0000000000000000e+00 0.0000000000000000e+00 0.0000000000000000e+00  2.1553060458236123e-05 1.3773148547736841e-07 0.0000000000000000e+00  4.3962984397369334e-05 2.8152872731857110e-07 0.0000000000000000e+00  6.8120869575850987e-05 4.3782360177429497e-07 0.0000000000000000e+00  9.4987986213916322e-05 6.1381692244862404e-07 0.0000000000000000e+00  1.2563234822546445e-04 8.1796106070852626e-07 0.0000000000000000e+00  1.6126590530170389e-04 1.0605659943365175e-06 0.0000000000000000e+00  2.0328010009943874e-04 1.3545658920292286e-06 0.0000000000000000e+00  2.5327425034088881e-04 1.7164324210376887e-06 0.0000000000000000e+00  3.1306541958837469e-04 2.1670441583801662e-06 0.0000000000000000e+00  3.8465883957413413e-04 2.7318288075122299e-06 0.0000000000000000e+00  4.7014343102530438e-04 3.4383101383169486e-06 0.0000000000000000e+00  5.7145828261281938e-04 4.3067576754576941e-06 0.0000000000000000e+00  6.8995991987429400e-04 5.3257811211810291e-06 0.0000000000000000e+00  8.2572790040228523e-04 6.4021799619185081e-06 0.0000000000000000e+00  9.7662095570607275e-04 7.2856151044979147e-06 0.0000000000000000e+00  1.1372824933303940e-03 7.5230414460969976e-06 0.0000000000000000e+00  0.0000000000000000e+00 0.0000000000000000e+00 0.0000000000000000e+00  2.0689675671084713e-05 1.3552287568168982e-07 0.0000000000000000e+00  4.2248886711385266e-05 2.7764702359944914e-07 0.0000000000000000e+00  6.5588674467584765e-05 4.3345605291909458e-07 0.0000000000000000e+00  9.1708125405226497e-05 6.1107618975667188e-07 0.0000000000000000e+00  1.2174414838073857e-04 8.2037878664995065e-07 0.0000000000000000e+00  1.5702777726435210e-04 1.0739451052859406e-06 0.0000000000000000e+00  1.9914782200185712e-04 1.3884614276869027e-06 0.0000000000000000e+00  2.5002009053551522e-04 1.7867794635709732e-06 0.0000000000000000e+00  3.1195466523242061e-04 2.3009005559118956e-06 0.0000000000000000e+00  3.8770205802509224e-04 2.9759044327668953e-06 0.0000000000000000e+00  4.8043724014967506e-04 3.8736756433810349e-06 0.0000000000000000e+00  5.9360370519131805e-04 5.0714569554026882e-06 0.0000000000000000e+00  7.3048751479063106e-04 6.6402433703265108e-06 0.0000000000000000e+00  8.9334453181381089e-04 8.5679969566178169e-06 0.0000000000000000e+00  1.0819440935821156e-03 1.0573516467893185e-05 0.0000000000000000e+00  1.2916862437082203e-03 1.1812007614390893e-05 0.0000000000000000e+00  0.0000000000000000e+00 0.0000000000000000e+00 0.0000000000000000e+00  1.8953801038308238e-05 1.2668668866005416e-07 0.0000000000000000e+00  3.8746152522426578e-05 2.6001521495236671e-07 0.0000000000000000e+00  6.0262039913066741e-05 4.0715847367810982e-07 0.0000000000000000e+00  8.4487437233646200e-05 5.7645372624808448e-07 0.0000000000000000e+00  1.1257018978416209e-04 7.7820695834114555e-07 0.0000000000000000e+00  1.4589429697177249e-04 1.0258416139696186e-06 0.0000000000000000e+00  1.8617298620755057e-04 1.3376746409880354e-06 0.0000000000000000e+00  2.3556565304835712e-04 1.7398416926960886e-06 0.0000000000000000e+00  2.9682088317385333e-04 2.2713311036320514e-06 0.0000000000000000e+00  3.7343847067702386e-04 2.9927656877982025e-06 0.0000000000000000e+00  4.6981961157368173e-04 4.0011377853006169e-06 0.0000000000000000e+00  5.9132165566542073e-04 5.4510262044703707e-06 0.0000000000000000e+00  7.4403048297702742e-04 7.5706962175362188e-06 0.0000000000000000e+00  9.3389723307555944e-04 1.0614622892825903e-05 0.0000000000000000e+00  1.1647391972070082e-03 1.4571268790184947e-05 0.0000000000000000e+00  1.4349257733631794e-03 1.8417639566851726e-05 0.0000000000000000e+00  0.0000000000000000e+00 0.0000000000000000e+00 0.0000000000000000e+00  1.6376976311240024e-05 1.1118665812200701e-07 0.0000000000000000e+00  3.3512094687824408e-05 2.2850521776422953e-07 0.0000000000000000e+00  5.2210917850574939e-05 3.5858757763171435e-07 0.0000000000000000e+00  7.3384084679698868e-05 5.0916403478586945e-07 0.0000000000000000e+00  9.8114089069552016e-05 6.8980333394976901e-07 0.0000000000000000e+00  1.2774169334829339e-04 9.1295327076810979e-07 0.0000000000000000e+00  1.6398261197195579e-04 1.1955571219873148e-06 0.0000000000000000e+00  2.0908876883652891e-04 1.5618447283651388e-06 0.0000000000000000e+00  2.6607230380345381e-04 2.0486941476928891e-06 0.0000000000000000e+00  3.3901161111966969e-04 2.7168871321512065e-06 0.0000000000000000e+00  4.3344810907724882e-04 3.6759563715889131e-06 0.0000000000000000e+00  5.5683678769640876e-04 5.1387895069509983e-06 0.0000000000000000e+00  7.1887833070527225e-04 7.5313404644975205e-06 0.0000000000000000e+00  9.3122714886144061e-04 1.1651138398408025e-05 0.0000000000000000e+00  1.2054156930675307e-03 1.8534415891416058e-05 0.0000000000000000e+00  1.5478957694099716e-03 2.6589984805365222e-05 0.0000000000000000e+00  0.0000000000000000e+00 0.0000000000000000e+00 0.0000000000000000e+00  1.3039886046787910e-05 8.9535934562526479e-08 0.0000000000000000e+00  2.6706594656724908e-05 1.8416992113411794e-07 0.0000000000000000e+00  4.1670116761454589e-05 2.8940088593333541e-07 0.0000000000000000e+00  5.8697441599042466e-05 4.1159735060779551e-07 0.0000000000000000e+00  7.8716911444682026e-05 5.5852487834157711e-07 0.0000000000000000e+00  1.0290547121719789e-04 7.3999238981756386e-07 0.0000000000000000e+00  1.3281350005878362e-04 9.6868592015429478e-07 0.0000000000000000e+00  1.7055013200336643e-04 1.2613719263958140e-06 0.0000000000000000e+00  2.1906523709501314e-04 1.6411194622334992e-06 0.0000000000000000e+00  2.8258427665647437e-04 2.1429685424778279e-06 0.0000000000000000e+00  3.6727805862509828e-04 2.8318354719856314e-06 0.0000000000000000e+00  4.8226661863471758e-04 3.8630321342271014e-06 0.0000000000000000e+00  6.4100134011660717e-04 5.6851154110747186e-06 0.0000000000000000e+00  8.6270856007637298e-04 9.6948870804453367e-06 0.0000000000000000e+00  1.1719880466900879e-03 2.0261486855443613e-05 0.0000000000000000e+00  1.5856770981691765e-03 5.0771302986319674e-05 0.0000000000000000e+00  0.0000000000000000e+00 0.0000000000000000e+00 0.0000000000000000e+00  9.0737350349146845e-06 6.2769104586541680e-08 0.0000000000000000e+00  1.8596275645093982e-05 1.2917665785470828e-07 0.0000000000000000e+00  2.9049603697329207e-05 2.0312684546898227e-07 0.0000000000000000e+00  4.0990991647665776e-05 2.8908402626080196e-07 0.0000000000000000e+00  5.5104631438451269e-05 3.9233918596441524e-07 0.0000000000000000e+00  7.2274148416758856e-05 5.1918344239734084e-07 0.0000000000000000e+00  9.3690989760193379e-05 6.7675433426532732e-07 0.0000000000000000e+00  1.2102429280747258e-04 8.7194232580148711e-07 0.0000000000000000e+00  1.5669776047708172e-04 1.1078656893559135e-06 0.0000000000000000e+00  2.0435692305328200e-04 1.3745546912789748e-06 0.0000000000000000e+00  2.6968276184980393e-04 1.6273891839491363e-06 0.0000000000000000e+00  3.6184703361341077e-04 1.7463250776344100e-06 0.0000000000000000e+00  4.9617166501155375e-04 1.4994679213730310e-06 0.0000000000000000e+00  6.9908801449364690e-04 7.4152164192626542e-07 0.0000000000000000e+00  1.0178526852254873e-03 1.1052225368440144e-06 0.0000000000000000e+00  1.5442641886872421e-03 1.5138625831702360e-05 0.0000000000000000e+00  0.0000000000000000e+00 0.0000000000000000e+00 0.0000000000000000e+00  4.6559941909264629e-06 3.2343232986123468e-08 0.0000000000000000e+00  9.5465380612489573e-06 6.6577593235641173e-08 0.0000000000000000e+00  1.4924315134581912e-05 1.0472220452229715e-07 0.0000000000000000e+00  2.1083414205401113e-05 1.4905645499558671e-07 0.0000000000000000e+00  2.8388347498316052e-05 2.0220070365613436e-07 0.0000000000000000e+00  3.7315765388406501e-05 2.6704595275186147e-07 0.0000000000000000e+00  4.8518634702058474e-05 3.4621791871154146e-07 0.0000000000000000e+00  6.2930493497970240e-05 4.4016891455420517e-07 0.0000000000000000e+00  8.1943232605900237e-05 5.4124237747660859e-07 0.0000000000000000e+00  1.0772469027201500e-04 6.1568036250086001e-07 0.0000000000000000e+00  1.4381135631971528e-04 5.4835869772653828e-07 0.0000000000000000e+00  1.9625147145185915e-04 -3.1628975305673611e-08 0.0000000000000000e+00  2.7580235701256227e-04 -2.3141548951386040e-06 0.0000000000000000e+00  4.0164245580875669e-04 -1.0109970469164376e-05 0.0000000000000000e+00  6.0366620123947017e-04 -3.4975608689846698e-05 0.0000000000000000e+00  8.9946075931581458e-04 -1.0406295500299081e-04 0.0000000000000000e+00  0.0000000000000000e+00 0.0000000000000000e+00 0.0000000000000000e+00  0.0000000000000000e+00 0.0000000000000000e+00 0.0000000000000000e+00  0.0000000000000000e+00 0.0000000000000000e+00 0.0000000000000000e+00  0.0000000000000000e+00 0.0000000000000000e+00 0.0000000000000000e+00  0.0000000000000000e+00 0.0000000000000000e+00 0.0000000000000000e+00  0.0000000000000000e+00 0.0000000000000000e+00 0.0000000000000000e+00  0.0000000000000000e+00 0.0000000000000000e+00 0.0000000000000000e+00  0.0000000000000000e+00 0.0000000000000000e+00 0.0000000000000000e+00  0.0000000000000000e+00 0.0000000000000000e+00 0.0000000000000000e+00  0.0000000000000000e+00 0.0000000000000000e+00 0.0000000000000000e+00  0.0000000000000000e+00 0.0000000000000000e+00 0.0000000000000000e+00  0.0000000000000000e+00 0.0000000000000000e+00 0.00000