<?xml version="1.0"?>
<VTKFile type="UnstructuredGrid"  version="0.1"  >
<UnstructuredGrid>
<Piece  NumberOfPoints="289" NumberOfCells="512">
<Points>
<DataArray  type="Float64"  NumberOfComponents="3"  format="ascii">0 0 0  0.0625 0 0  0.125 0 0  0.1875 0 0  0.25 0 0  0.3125 0 0  0.375 0 0  0.4375 0 0  0.5 0 0  0.5625 0 0  0.625 0 0  0.6875 0 0  0.75 0 0  0.8125 0 0  0.875 0 0  0.9375 0 0  1 0 0  0 0.0625 0  0.06257236859443648 0.06249114771718048 0  0.1251471738181381 0.06248210206472926 0  0.1877269229570458 0.06247267795336491 0  0.2503142306383447 0.06246271056886687 0  0.312911873302275 0.06245206840333103 0  0.3755228467243978 0.0624406688002103 0  0.438150435903635 0.06242849441469669 0  0.5007983216376307 0.06241560511024669 0  0.5634707846688027 0.06240213156421073 0  0.6261731609315464 0.06238821885859363 0  0.6889129501911478 0.06237384629456295 0  0.7517026939850802 0.06235834072954041 0  0.8145679196149411 0.06233908382209564 0  0.8775704675097435 0.06230790263389847 0  0.9408810132054511 0.06224035181180957 0  1.005015919378899 0.06206558712120172 0  0 0.125 0  0.06264231566072617 0.1249824873709654 0  0.1252894668173696 0.1249645779341886 0  0.1879464331588953 0.1249458901663982 0  0.2506184189615054 0.1249260805734418 0  0.3133109671796545 0.1249048693963944 0  0.3760300782517067 0.124882073100086 0  0.4387823470457552 0.1248576425063759 0  0.5015751511408931 0.1248316999857535 0  0.5644169668485767 0.1248045581426651 0  0.6273179815997407 0.1247766815064747 0  0.6902913603242654 0.1247485157783298 0  0.7533558705470784 0.1247200550293011 0  0.8165409910240429 0.1246899925449078 0  0.8798948906762082 0.1246546163114424 0  0.9434864109144679 0.1246087719097034 0  1.007339239822292 0.1245609659991784 0  0 0.1875 0  0.06270743923376186 0.1874742235603248 0  0.1254220170690388 0.1874478286881842 0  0.1881510909317455 0.1874202165241861 0  0.2509023695801227 0.1873908384422623 0  0.313684090088792 0.1873592329260162 0  0.3765051967691789 0.1873250760408507 0  0.4393755310538872 0.1872882477883774 0  0.5023060537663924 0.1872489123568699 0  0.5653091435850939 0.1872076013500181 0  0.628399048392451 0.1871652724014244 0  0.6915925892834587 0.1871232879051196 0  0.7549101262509276 0.1870832189705678 0  0.818376212344982 0.1870463296409147 0  0.8820172019494292 0.1870124879036558 0  0.9458472603344604 0.1869775621308729 0  1.009826506531493 0.1869237602405282 0  0 0.25 0  0.06276544085009717 0.2499665788551336 0  0.1255401646105748 0.2499322943387076 0  0.1883337473911534 0.2498963024068993 0  0.2511562536271545 0.2498578118203712 0  0.3140184806131038 0.2498161280940663 0  0.3769322001207697 0.249770719708347 0  0.4399103972001661 0.249721314903713 0  0.5029675067170732 0.2496680366095096 0  0.5661196445724833 0.2496115795896167 0  0.6293848086155358 0.249553425322065 0  0.6927829413028816 0.2494960732158332 0  0.7563354921703496 0.2494432375407705 0  0.820063458835824 0.2493999118942131 0  0.8839814907497002 0.2493721244613329 0  0.9480836958038312 0.2493661197610735 0  1.012317362419289 0.2493872788241333 0  0 0.3125 0  0.062814184382209 0.3124597988323542 0  0.125639568745287 0.3124184658384238 0  0.188487719317393 0.3123748817512215 0  0.2513708389164546 0.3123279683502396 0  0.3143020869911914 0.3122767315940237 0  0.377295895249576 0.3122203354585209 0  0.4403682720056757 0.3121582221597431 0  0.5035370799030003 0.3120902988834982 0  0.5668222521876635 0.312017215774273 0  0.630245866443063 0.3119407628376595 0  0.693831888214046 0.311864410324047 0  0.7576051725554972 0.3117939995838177 0  0.8215889136143975 0.3117385452312429 0  0.8857992726292598 0.3117110236289256 0  0.9502362144842051 0.3117289464314026 0  1.014873244026514 0.3118147403252895 0  0 0.375 0  0.06285175995291475 0.3749541521868887 0  0.1257163355924052 0.3749068873857179 0  0.1886069790624862 0.3748567862348592 0  0.25153773752485 0.3748024402040204 0  0.3145238589150186 0.3747424819081671 0  0.3775822001922724 0.3746756513046094 0  0.4407316311384982 0.3746009201242205 0  0.5039934160847963 0.3745177074772205 0  0.5673915348328621 0.3744262343922061 0  0.6309528614923289 0.3743280835260377 0  0.6947070370476157 0.374227048001355 0  0.7586857264674636 0.3741303563266791 0  0.8229207545721713 0.3740503156082768 0  0.8874405201536618 0.3740062618135639 0  0.9522646001266118 0.3740263615307052 0  1.017398445774016 0.3741481775005684 0  0 0.4375 0  0.06287655470505663 0.437449923842001 0  0.1257671603631566 0.4373981443391057 0  0.1886863690406302 0.4373429321019524 0  0.2516496907195836 0.4372825180204254 0  0.3146740934984512 0.4372150956857767 0  0.3777785239197189 0.4371388582405657 0  0.440984449123846 0.4370520954419579 0  0.504316416954291 0.4369533930883026 0  0.56780262076236 0.4368420028115617 0  0.6314754383339209 0.4367184886186593 0  0.6953718803291847 0.4365858074370554 0  0.7595338184523419 0.4364510321556671 0  0.8240077546202523 0.4363279326385406 0  0.8888437599985014 0.4362404835842141 0  0.9540931653212142 0.4362268856279244 0  1.019804775749363 0.4363427732729972 0  0 0.5 0  0.06288733076740681 0.4999473993937481 0  0.1257894860583112 0.499892832668411 0  0.1887218463141885 0.4998342764723218 0  0.2517009056464813 0.4997695989707768 0  0.3147448687179219 0.4996965188606526 0  0.3778742948886558 0.4996125879965207 0  0.4411128073550625 0.4995152208687254 0  0.5044878904839383 0.4994018137775202 0  0.568031812305517 0.4992700310309038 0  0.6317827377007842 0.4991183943098628 0  0.6957861455597815 0.4989474065391596 0  0.7600967161005076 0.4987615799880142 0  0.8247808395038053 0.4985728914033033 0  0.8899196145803482 0.4984062086943365 0  0.9556113091063454 0.4983067142966734 0  1.02197055044275 0.4983475961832544 0  0 0.5625 0  0.06288330799200015 0.5624468403680148 0  0.1257816743877328 0.5623915081541027 0  0.1887107527584048 0.5623317383276671 0  0.2516874417136036 0.5622650777914419 0  0.3147305695539534 0.5621887891053333 0  0.3778616585053876 0.5620997568217232 0  0.4411058056462587 0.5619944090993532 0  0.5044927366993596 0.5618686847678116 0  0.5680581326307309 0.5617181110705201 0  0.6318454232908001 0.5615381266262059 0  0.6959084256985933 0.5613249186038258 0  0.7603155037972056 0.5610772933604985 0  0.8251562519864009 0.5608005212033281 0  0.8905515783625745 0.5605136311600597 0  0.9566662360318746 0.5602616852505478 0  1.023717684662246 0.5601323145738148 0  0 0.625 0  0.06286424544965333 0.6249484516409355 0  0.1257431769285855 0.6248946175537839 0  0.188652092821286 0.6248360860173541 0  0.2516076224543495 0.6247701795675764 0  0.3146284755149866 0.6246937999687618 0  0.3777363025692769 0.6246032469808213 0  0.4409567209739072 0.6244940050791442 0  0.5043205897500809 0.6243605002521525 0  0.5678656862602008 0.6241958505267168 0  0.6316391008228062 0.6239916881031876 0  0.6957010330950926 0.623738263317401 0  0.760131426985283 0.6234253567623983 0  0.8250421595556836 0.623045252121832 0  0.8905988002661536 0.6226005131428983 0  0.9570543983249749 0.6221213515720656 0  1.024786268415969 0.6216953834986765 0  0 0.6875 0  0.06283051208589623 0.6874523447047054 0  0.125674686717693 0.6874024191686532 0  0.1885467873927494 0.6873478023991878 0  0.2514624268166155 0.6872857482955577 0  0.3144393433396881 0.6872129808939151 0  0.3774983135551173 0.6871254329168029 0  0.4406642656950784 0.6870178989760395 0  0.5039676879395106 0.6868835667047195 0  0.5674464974936275 0.6867133819396283 0  0.6311487260608687 0.6864952077994548 0  0.6951368868974281 0.6862127860945204 0  0.7594962047288192 0.6858447160507166 0  0.8243519825067034 0.6853644016308356 0  0.8899072791008189 0.6847443573234375 0  0.9565175075873806 0.6839754264771754 0  1.02480357962486 0.68312232626187 0  0 0.75 0  0.06278313431948301 0.7499585027048606 0  0.1255782446580505 0.7499149054934148 0  0.1883978622071983 0.7498669487217156 0  0.2512557978314084 0.7498120231477138 0  0.314167894319333 0.7497469384149457 0  0.3771529293342153 0.7496676115443819 0  0.4402337364141993 0.7495686268825651 0  0.503438629290063 0.749442593983822 0  0.5668032526424726 0.7492791890064465 0  0.6303730975265166 0.7490636985124663 0  0.6942073283046803 0.7487747785792914 0  0.7583860156498405 0.7483809964945322 0  0.8230277038991499 0.7478356669412711 0  0.8883388321746143 0.7470704658891308 0  0.9547511919243508 0.7459960664784886 0  1.023200883574034 0.7445713762254773 0  0 0.8125 0  0.06272380761866481 0.8124667545875884 0  0.1254572731478092 0.8124317442161475 0  0.188210525328893 0.8123930559432256 0  0.2509948004077946 0.812348449671157 0  0.3138231078863427 0.8122951340591077 0  0.3767110474860507 0.8122294549517662 0  0.4396778429029158 0.812146438912576 0  0.5027476611727781 0.8120391001519185 0  0.565951269001932 0.8118973588859623 0  0.6293280182347364 0.8117063095814739 0  0.6929280776658502 0.8114433655938637 0  0.7568151356473422 0.8110733632668623 0  0.8210728483879001 0.810539718897645 0  0.8858356226555741 0.8097474938911671 0  0.9514487912537271 0.8085291757165842 0  1.01926037239455 0.8065625641377332 0  0 0.875 0  0.06265486087691938 0.8749767655436212 0  0.1253165124719203 0.8749522539567217 0  0.1879920921412878 0.8749250737236312 0  0.2506895645311559 0.8748935787904868 0  0.3134182309448429 0.8748556903520371 0  0.3761893704123165 0.8748086440329295 0  0.4390170728444914 0.8747486118340668 0  0.501919323523922 0.8746701170596777 0  0.5649193484978469 0.8745651071081757 0  0.6280470203108204 0.8744214574013436 0  0.6913394502210458 0.8742205159404413 0  0.7548380481184811 0.8739329660200721 0  0.818575226495649 0.8735114526063098 0  0.8825395074104911 0.8728761382338278 0  0.9466373656762381 0.8718865242825806 0  1.011043539360704 0.8703341534706629 0  0 0.9375 0  0.06257916697598223 0.9374880488104971 0  0.1251618442137058 0.9374754266769098 0  0.1877517281596704 0.9374614001898458 0  0.2503529636294132 0.9374450964104666 0  0.3129704266048947 0.9374254039187743 0  0.3756100900623475 0.9374008308378684 0  0.4382795160471273 0.937369290240
[...]
<PointData  Vectors="f_54"> 
<DataArray  type="Float64"  Name="f_54"  NumberOfComponents="3" format="ascii">0.0000000000000000e+00 0.0000000000000000e+00 0.0000000000000000e+00  0.0000000000000000e+00 0.0000000000000000e+00 0.0000000000000000e+00  0.0000000000000000e+00 0.0000000000000000e+00 0.0000000000000000e+00  0.0000000000000000e+00 0.0000000000000000e+00 0.0000000000000000e+00  0.0000000000000000e+00 0.0000000000000000e+00 0.0000000000000000e+00  0.0000000000000000e+00 0.0000000000000000e+00 0.0000000000000000e+00  0.0000000000000000e+00 0.0000000000000000e+00 0.0000000000000000e+00  0.0000000000000000e+00 0.0000000000000000e+00 0.0000000000000000e+00  0.0000000000000000e+00 0.0000000000000000e+00 0.0000000000000000e+00  0.0000000000000000e+00 0.0000000000000000e+00 0.0000000000000000e+00  0.0000000000000000e+00 0.0000000000000000e+00 0.0000000000000000e+00  0.0000000000000000e+00 0.0000000000000000e+00 0.0000000000000000e+00  0.0000000000000000e+00 0.0000000000000000e+00 0.0000000000000000e+00  0.0000000000000000e+00 0.0000000000000000e+00 0.0000000000000000e+00  0.0000000000000000e+00 0.0000000000000000e+00 0.0000000000000000e+00  0.0000000000000000e+00 0.0000000000000000e+00 0.0000000000000000e+00  0.0000000000000000e+00 0.0000000000000000e+00 0.0000000000000000e+00  0.0000000000000000e+00 0.0000000000000000e+00 0.0000000000000000e+00  1.1685728107975933e-06 -3.2408831263730688e-08 0.0000000000000000e+00  2.3863183081111716e-06 -6.6892379598898139e-08 0.0000000000000000e+00  3.7053082287755210e-06 -1.0573936717164940e-07 0.0000000000000000e+00  5.1829449747218667e-06 -1.5167461162399494e-07 0.0000000000000000e+00  6.8852451960779497e-06 -2.0815055799062168e-07 0.0000000000000000e+00  8.8910038111826572e-06 -2.7974241393687027e-07 0.0000000000000000e+00  1.1297520954720648e-05 -3.7271824574203078e-07 0.0000000000000000e+00  1.4229226016127392e-05 -4.9591586937019856e-07 0.0000000000000000e+00  1.7852096051695170e-05 -6.6220906236387851e-07 0.0000000000000000e+00  2.2400759594758284e-05 -8.9126168599264191e-07 0.0000000000000000e+00  2.8236122829247389e-05 -1.2155295163340456e-06 0.0000000000000000e+00  3.5983693604436850e-05 -1.6956198090264290e-06 0.0000000000000000e+00  4.6905981818392943e-05 -2.4658029726928441e-06 0.0000000000000000e+00  6.4018358928247092e-05 -3.8860055673270971e-06 0.0000000000000000e+00  9.5797436556519685e-05 -7.1027129255226989e-06 0.0000000000000000e+00  1.7012138932641805e-04 -1.6366602284375475e-05 0.0000000000000000e+00  0.0000000000000000e+00 0.0000000000000000e+00 0.0000000000000000e+00  2.2904244835670035e-06 -6.2812616612380275e-08 0.0000000000000000e+00  4.6771185249844237e-06 -1.2958910876075701e-07 0.0000000000000000e+00  7.2619591830160597e-06 -2.0469690080720808e-07 0.0000000000000000e+00  1.0157165737495876e-05 -2.9332663392469397e-07 0.0000000000000000e+00  1.3491589716815936e-05 -4.0203893366541591e-07 0.0000000000000000e+00  1.7418535147212454e-05 -5.3949674983847150e-07 0.0000000000000000e+00  2.2126149959052318e-05 -7.1749625958792239e-07 0.0000000000000000e+00  2.7852223249963414e-05 -9.5247691892379447e-07 0.0000000000000000e+00  3.4906907758633745e-05 -1.2678230108332269e-06 0.0000000000000000e+00  4.3710513418499115e-05 -1.6975281535230772e-06 0.0000000000000000e+00  5.4861237774166867e-05 -2.2922585178545142e-06 0.0000000000000000e+00  6.9262976664591542e-05 -3.1293195588559847e-06 0.0000000000000000e+00  8.8366125731063230e-05 -4.3260266768686750e-06 0.0000000000000000e+00  1.1456212563548284e-04 -6.0353673864080894e-06 0.0000000000000000e+00  1.5140692858679465e-04 -8.2726735791144346e-06 0.0000000000000000e+00  2.0071556924645931e-04 -9.6916821450983920e-06 0.0000000000000000e+00  0.0000000000000000e+00 0.0000000000000000e+00 0.0000000000000000e+00  3.3181748726904180e-06 -8.9316698977577541e-08 0.0000000000000000e+00  6.7752499349466491e-06 -1.8411944583633324e-07 0.0000000000000000e+00  1.0518024722441655e-05 -2.9043812337301909e-07 0.0000000000000000e+00  1.4707948115392357e-05 -4.1541443884140912e-07 0.0000000000000000e+00  1.9529873844122099e-05 -5.6803468934752899e-07 0.0000000000000000e+00  2.5202665503792438e-05 -7.6009902473315963e-07 0.0000000000000000e+00  3.1992668099549568e-05 -1.0075530795240581e-06 0.0000000000000000e+00  4.0231531908910717e-05 -1.3323514303082212e-06 0.0000000000000000e+00  5.0340631462479801e-05 -1.7650715331456560e-06 0.0000000000000000e+00  6.2865365605437650e-05 -2.3485111876414086e-06 0.0000000000000000e+00  7.8523290713925311e-05 -3.1423204436896391e-06 0.0000000000000000e+00  9.8266818903657257e-05 -4.2277903542595834e-06 0.0000000000000000e+00  1.2334049444621476e-04 -5.7086856597311172e-06 0.0000000000000000e+00  1.5523111577328083e-04 -7.6956898491854898e-06 0.0000000000000000e+00  1.9516256239759635e-04 -1.0255588870606575e-05 0.0000000000000000e+00  2.4234882852120984e-04 -1.3423783917091597e-05 0.0000000000000000e+00  0.0000000000000000e+00 0.0000000000000000e+00 0.0000000000000000e+00  4.2090233059913809e-06 -1.1039786317463105e-07 0.0000000000000000e+00  8.5930373120269953e-06 -2.2730083037835842e-07 0.0000000000000000e+00  1.3336654025165179e-05 -3.5783168110701465e-07 0.0000000000000000e+00  1.8642503177968637e-05 -5.1038143641586641e-07 0.0000000000000000e+00  2.4741826887560921e-05 -6.9544079490709712e-07 0.0000000000000000e+00  3.1907015968639251e-05 -9.2669226945832748e-07 0.0000000000000000e+00  4.0466905736848561e-05 -1.2224916533407656e-06 0.0000000000000000e+00  5.0825693629140523e-05 -1.6078943024259930e-06 0.0000000000000000e+00  6.3486129320822587e-05 -2.1173864702175571e-06 0.0000000000000000e+00  7.9076585640282390e-05 -2.7984014843165926e-06 0.0000000000000000e+00  9.8378206517303013e-05 -3.7153819756333346e-06 0.0000000000000000e+00  1.2233870099752207e-04 -4.9532818180559639e-06 0.0000000000000000e+00  1.5203504470986229e-04 -6.6175749008016574e-06 0.0000000000000000e+00  1.8849462629016441e-04 -8.8254458667557706e-06 0.0000000000000000e+00  2.3220238150608257e-04 -1.1684692499069544e-05 0.0000000000000000e+00  2.8211859673076255e-04 -1.5274117108105443e-05 0.0000000000000000e+00  0.0000000000000000e+00 0.0000000000000000e+00 0.0000000000000000e+00  4.9268441555518760e-06 -1.2503971261378432e-07 0.0000000000000000e+00  1.0056590686721339e-05 -2.5702586813542449e-07 0.0000000000000000e+00  1.5602832422668651e-05 -4.0352159783782922e-07 0.0000000000000000e+00  2.1799496263189795e-05 -5.7336537938250110e-07 0.0000000000000000e+00  2.8912672466923970e-05 -7.7750567594011150e-07 0.0000000000000000e+00  3.7254424740953264e-05 -1.0300982416036897e-06 0.0000000000000000e+00  4.7199266866719796e-05 -1.3499989870822819e-06 0.0000000000000000e+00  5.9203802154292943e-05 -1.7628185824950505e-06 0.0000000000000000e+00  7.3829361098614606e-05 -2.3037269505199336e-06 0.0000000000000000e+00  9.1765715022142108e-05 -3.0211665588455083e-06 0.0000000000000000e+00  1.1384986242490441e-04 -3.9814700484978001e-06 0.0000000000000000e+00  1.4106540327529101e-04 -5.2739490447362394e-06 0.0000000000000000e+00  1.7449278458074542e-04 -7.0152286475629716e-06 0.0000000000000000e+00  2.1516050965304375e-04 -9.3506812478622418e-06 0.0000000000000000e+00  2.6374426352587647e-04 -1.2450578565473628e-05 0.0000000000000000e+00  3.2015321204766875e-04 -1.6497365953151115e-05 0.0000000000000000e+00  0.0000000000000000e+00 0.0000000000000000e+00 0.0000000000000000e+00  5.4438282737627699e-06 -1.3280559413441771e-07 0.0000000000000000e+00  1.1109154754524445e-05 -2.7241654902687940e-07 0.0000000000000000e+00  1.7228551985796408e-05 -4.2617977956655775e-07 0.0000000000000000e+00  2.4056130687237285e-05 -6.0257426229455177e-07 0.0000000000000000e+00  3.1880023323631512e-05 -8.1195127949534645e-07 0.0000000000000000e+00  4.1036943971971795e-05 -1.0675140363269185e-06 0.0000000000000000e+00  5.1929570934398097e-05 -1.3866716758366759e-06 0.0000000000000000e+00  6.5047358471463589e-05 -1.7929590648947946e-06 0.0000000000000000e+00  8.0990857017928801e-05 -2.3187936640679782e-06 0.0000000000000000e+00  1.0049826023172880e-04 -3.0094458509449267e-06 0.0000000000000000e+00  1.2446997913820714e-04 -3.9287223311501433e-06 0.0000000000000000e+00  1.5398173166668720e-04 -5.1669807038975523e-06 0.0000000000000000e+00  1.9026899730542984e-04 -6.8521610877577466e-06 0.0000000000000000e+00  2.3465990815065102e-04 -9.1644615963401381e-06 0.0000000000000000e+00  2.8844460648020146e-04 -1.2354961738588220e-05 0.0000000000000000e+00  3.5272593931486923e-04 -1.6768026550165955e-05 0.0000000000000000e+00  0.0000000000000000e+00 0.0000000000000000e+00 0.0000000000000000e+00  5.7416046048035450e-06 -1.3384127633581445e-07 0.0000000000000000e+00  1.1713389695777857e-05 -2.7382985465301974e-07 0.0000000000000000e+00  1.8156310966739504e-05 -4.2651541945506087e-07 0.0000000000000000e+00  2.5332901112977877e-05 -5.9930243582524119e-07 0.0000000000000000e+00  3.3539791205045449e-05 -8.0100381203161074e-07 0.0000000000000000e+00  4.3122442545683006e-05 -1.0425768738289357e-06 0.0000000000000000e+00  5.4493067428153916e-05 -1.3381620252928906e-06 0.0000000000000000e+00  6.8152863193463695e-05 -1.7066212692664106e-06 0.0000000000000000e+00  8.4719724145321533e-05 -2.1739135166212647e-06 0.0000000000000000e+00  1.0496231469651721e-04 -2.7768969683069419e-06 0.0000000000000000e+00  1.2984040928669968e-04 -3.5695983237112193e-06 0.0000000000000000e+00  1.6054925207961319e-04 -4.6337412937993475e-06 0.0000000000000000e+00  1.9856223282008184e-04 -6.0964342148377897e-06 0.0000000000000000e+00  2.4566301516275947e-04 -8.1590824481287882e-06 0.0000000000000000e+00  3.0396109176574555e-04 -1.1141435939370223e-05 0.0000000000000000e+00  3.7590261998092761e-04 -1.5539304090742544e-05 0.0000000000000000e+00  0.0000000000000000e+00 0.0000000000000000e+00 0.0000000000000000e+00  5.8118067512294083e-06 -1.2880774903527682e-07 0.0000000000000000e+00  1.1852529277659929e-05 -2.6271491903593675e-07 0.0000000000000000e+00  1.8360914722242850e-05 -4.0703990009058179e-07 0.0000000000000000e+00  2.5596123842353070e-05 -5.6758107873459742e-07 0.0000000000000000e+00  3.3849585563425264e-05 -7.5091038398190543e-07 0.0000000000000000e+00  4.3459103027688864e-05 -9.6475303106339580e-07 0.0000000000000000e+00  5.4826456491308675e-05 -1.2185269457784805e-06 0.0000000000000000e+00  6.8440298305709102e-05 -1.5241869174091269e-06 0.0000000000000000e+00  8.4906980488226258e-05 -1.8976731165442408e-06 0.0000000000000000e+00  1.0499317017572955e-04 -2.3615957789289767e-06 0.0000000000000000e+00  1.2968565231087216e-04 -2.9504866418631046e-06 0.0000000000000000e+00  1.6027518231885544e-04 -3.7213535552845622e-06 0.0000000000000000e+00  1.9847139621225293e-04 -4.7748797230781786e-06 0.0000000000000000e+00  2.4655219441037059e-04 -6.2967492883230663e-06 0.0000000000000000e+00  3.0754138347283464e-04 -8.6332710354842124e-06 0.0000000000000000e+00  3.8539634063854903e-04 -1.2416188009460588e-05 0.0000000000000000e+00  0.0000000000000000e+00 0.0000000000000000e+00 0.0000000000000000e+00  5.6560632889758961e-06 -1.1875307801099795e-07 0.0000000000000000e+00  1.1530369843402772e-05 -2.4133898700049297e-07 0.0000000000000000e+00  1.7849497495311976e-05 -3.7161022800623814e-07 0.0000000000000000e+00  2.4858111475481632e-05 -5.1348370035218507e-07 0.0000000000000000e+00  3.2829376820413055e-05 -6.7093740686046685e-07 0.0000000000000000e+00  4.2077388676509858e-05 -8.4796628709112028e-07 0.0000000000000000e+00  5.2972968605521677e-05 -1.0484876183954305e-06 0.0000000000000000e+00  6.5965078001126048e-05 -1.2762109542997693e-06 0.0000000000000000e+00  8.1611741666900856e-05 -1.5345696576196855e-06 0.0000000000000000e+00  1.0062725602006945e-04 -1.8270509991813437e-06 0.0000000000000000e+00  1.2395720330897559e-04 -2.1589129176566220e-06 0.0000000000000000e+00  1.5289971168324973e-04 -2.5429440484029297e-06 0.0000000000000000e+00  1.8929897926263869e-04 -3.0159307348598406e-06 0.0000000000000000e+00  2.3583863757902572e-04 -3.6812250104506100e-06 0.0000000000000000e+00  2.9644299716488940e-04 -4.8087349184433752e-06 0.0000000000000000e+00  3.7674187514818514e-04 -7.0428068007639304e-06 0.0000000000000000e+00  0.0000000000000000e+00 0.0000000000000000e+00 0.0000000000000000e+00  5.2854085486553633e-06 -1.0494129131895671e-07 0.0000000000000000e+00  1.0770060323599960e-05 -2.1241880154200607e-07 0.0000000000000000e+00  1.6659648892126339e-05 -3.2480632252749009e-07 0.0000000000000000e+00  2.3174660468820713e-05 -4.4415593234740404e-07 0.0000000000000000e+00  3.0558614262221547e-05 -5.7191438355806984e-07 0.0000000000000000e+00  3.9087677428018527e-05 -7.0846728908636306e-07 0.0000000000000000e+00  4.9082747659906929e-05 -8.5240015338588609e-07 0.0000000000000000e+00  6.0926090694289216e-05 -9.9930675208149711e-07 0.0000000000000000e+00  7.5086678712268495e-05 -1.1398914080248677e-06 0.0000000000000000e+00  9.2162547612927243e-05 -1.2570260892873446e-06 0.0000000000000000e+00  1.1295664004076139e-04 -1.3214769389396740e-06 0.0000000000000000e+00  1.3861748176051606e-04 -1.2867706703194166e-06 0.0000000000000000e+00  1.7089975141665025e-04 -1.0870394942788585e-06 0.0000000000000000e+00  2.1262627026271826e-04 -6.5334058318048800e-07 0.0000000000000000e+00  2.6842690969445089e-04 2.1687197284048911e-09 0.0000000000000000e+00  3.4571226540096935e-04 5.0539602590363597e-07 0.0000000000000000e+00  0.0000000000000000e+00 0.0000000000000000e+00 0.0000000000000000e+00  4.7191514451243398e-06 -8.8664551552029258e-08 0.0000000000000000e+00  9.6117393221222607e-06 -1.7871333952333497e-07 0.0000000000000000e+00  1.4855622154692473e-05 -2.7123440709743560e-07 0.0000000000000000e+00  2.0639584695770567e-05 -3.6670671040859700e-07 0.0000000000000000e+00  2.7168919743622082e-05 -4.6451045409495983e-07 0.0000000000000000e+00  3.4671347438196737e-05 -5.6216896011492347e-07 0.0000000000000000e+00  4.3403662171369905e-05 -6.5413052956627309e-07 0.0000000000000000e+00  5.3660122643535110e-05 -7.2975954101756150e-07 0.0000000000000000e+00  6.5785217130996337e-05 -7.6993303068612728e-07 0.0000000000000000e+00  8.0197466063208078e-05 -7.4109691730219915e-07 0.0000000000000000e+00  9.7440657628622906e-05 -5.8457931667798202e-07 0.0000000000000000e+00  1.1830151401321363e-04 -1.9708405552398441e-07 0.0000000000000000e+00  1.4408184232526255e-04 6.0404697801391231e-07 0.0000000000000000e+00  1.7720485273340977e-04 2.1351128698735096e-06 0.0000000000000000e+00  2.2243881244373459e-04 4.8928644811005542e-06 0.0000000000000000e+00  2.8887357769130938e-04 9.4314322341139775e-06 0.0000000000000000e+00  0.0000000000000000e+00 0.0000000000000000e+00 0.0000000000000000e+00  3.9833091685420535e-06 -7.1069768217112087e-08 0.0000000000000000e+00  8.1092182741958910e-06 -1.4264661497153501e-07 0.0000000000000000e+00  1.2522869168238975e-05 -2.1487738950876691e-07 0.0000000000000000e+00  1.7376459519612297e-05 -2.8716047216372157e-07 0.0000000000000000e+00  2.2832132304253830e-05 -3.5756675657971097e-07 0.0000000000000000e+00  2.9064009287369557e-05 -4.2196420751898377e-07 0.0000000000000000e+00  3.6258735973234739e-05 -4.7263600026496347e-07 0.0000000000000000e+00  4.4613664697577356e-05 -4.9602268732096918e-07 0.0000000000000000e+00  5.4331810197403855e-05 -4.6887776808077206e-07 0.0000000000000000e+00  6.5613978245204348e-05 -3.5134320850783597e-07 0.0000000000000000e+00  7.8654338067631909e-05 -7.3540266650055443e-08 0.0000000000000000e+00  9.3666558803989783e-05 4.9257541155412992e-07 0.0000000000000000e+00  1.1103377019415473e-04 1.5966329552019984e-06 0.0000000000000000e+00  1.3186730324728395e-04 3.7579049830220563e-06 0.0000000000000000e+00  1.5972682614454341e-04 8.0924670152582522e-06 0.0000000000000000e+00  2.0454730313931331e-04 1.6766900566375198e-05 0.0000000000000000e+00  0.0000000000000000e+00 0.0000000000000000e+00 0.0000000000000000e+00  3.1087955718459868e-06 -5.3029466599232692e-08 0.0000000000000000e+00  6.3261089809524227e-06 -1.0602789831565666e-07 0.0000000000000000e+00  9.7615415669864214e-06 -1.5861585348161888e-07 0.0000000000000000e+00  1.3528479923841219e-05 -2.0968862149095149e-07 0.0000000000000000e+00  1.7744817650804880e-05 -2.5687403363962964e-07 0.0000000000000000e+00  2.2531901287206954e-05 -2.9573910416966494e-07 0.0000000000000000e+00  2.8010125192291705e-05 -3.1858940011606150e-07 0.0000000000000000e+00  3.4288307330489638e-05 -3.1261392473985018e-07 0.0000000000000000e+00  4.1441627672443336e-05 -2.5694537022370957e-07 0.0000000000000000e+00  4.9468888835112175e-05 -1.1777032587981581e-07 0.0000000000000000e+00  5.8214111119981986e-05 1.6062532098861243e-07 0.0000000000000000e+00  6.7234601606237728e-05 6.7514366468980584e-07 0.0000000000000000e+00  7.5625625547315114e-05 1.6148975912824535e-06 0.0000000000000000e+00  8.2001958044249052e-05 3.4237842377587146e-06 0.0000000000000000e+00  8.5773814029904810e-05 7.3919922312529206e-06 0.0000000000000000e+00  9.5477804240288129e-05 1.8030143155765676e-05 0.0000000000000000e+00  0.0000000000000000e+00 0.0000000000000000e+00 0.0000000000000000e+00  2.1296179969117411e-06 -3.5077938935728287e-08 0.0000000000000000e+00  4.3319617733886165e-06 -6.9917134280485815e-08 0.0000000000000000e+00  6.6799707244227716e-06 -1.0400859851286547e-07 0.0000000000000000e+00  9.2481298578639929e-06 -1.3628205351700047e-07 0.0000000000000000e+00  1.2111997183646342e-05 -1.6470085807988828e-07 0.0000000000000000e+00  1.5345752446519798e-05 -1.8569438775282615e-07 0.0000000000000000e+00  1.9015868211277083e-05 -1.9335808726634377e-07 0.0000000000000000e+00  2.3167141322259373e-05 -1.7836611964299738e-07 0.0000000000000000e+00  2.7793359926450836e-05 -1.2663699663262401e-07 0.0000000000000000e+00  3.2776217925803467e-05 -1.8131201441460916e-08 0.0000000000000000e+00  3.7756730719024164e-05 1.7284279498544385e-07 0.0000000000000000e+00  4.1860159191673633e-05 4.7189451877353622e-07 0.0000000000000000e+00  4.3104521847288824e-05 8.8467334519670938e-07 0.0000000000000000e+00  3.7176155533391590e-05 1.3565084805400886e-06 0.0000000000000000e+00  1.5303829895918217e-05 1.8178821432177437e-06 0.0000000000000000e+00  -3.7204263231686148e-05 3.4751071797918956e-06 0.0000000000000000e+00  0.0000000000000000e+00 0.0000000000000000e+00 0.0000000000000000e+00  1.0813414654674532e-06 -1.7419411410407203e-08 0.0000000000000000e+00  2.1990166075469485e-06 -3.4649766289184659e-08 0.0000000000000000e+00  3.3892791957095492e-06 -5.1355997023948066e-08 0.0000000000000000e+00  4.6887856788623429e-06 -6.6900837802306500e-08 0.0000000000000000e+00  6.1340009260101358e-06 -8.0133208789354537e-08 0.0000000000000000e+00  7.7593130679093107e-06 -8.9104034024447137e-08 0.0000000000000000e+00  9.5925705391336468e-06 -9.0697679004775065e-08 0.0000000000000000e+00  1.1645387943114761e-05 -8.0222131212718071e-08 0.0000000000000000e+00  1.3892455295030925e-05 -5.1194611680459823e-08 0.0000000000000000e+00  1.6226582803630111e-05 3.8038477713437537e-09 0.0000000000000000e+00  1.8356878225473354e-05 8.8246383267617791e-08 0.0000000000000000e+00  1.9564010209246098e-05 1.8278831972893120e-07 0.0000000000000000e+00  1.8070356703610674e-05 1.7809135715026958e-07 0.0000000000000000e+00  9.3347191691333426e-06 -3.5968403593737354e-07 0.0000000000000000e+00  -1.8281166305569793e-05 -2.9521560145988415e-06 0.0000000000000000e+00  -8.8585257452635430e-05 -1.1763449786501612e-05 0.0000000000000000e+00  0.0000000000000000e+00 0.0000000000000000e+00 0.0000000000000000e+00  0.0000000000000000e+00 0.0000000000000000e+00 0.0000000000000000e+00  0.0000000000000000e+00 0.0000000000000000e+00 0.0000000000000000e+00  0.0000000000000000e+00 0.0000000000000000e+00 0.0000000000000000e+00  0.0000000000000000e+00 0.0000000000000000e+00 0.0000000000000000e+00  0.0000000000000000e+00 0.0000000000000000e+00 0.0000000000000000e+00  0.0000000000000000e+00 0.0000000000000000e+00 0.0000000000000000e+00  0.0000000000000000e+00 0.0000000000000000e+00 0.0000000000000000e+00  0.0000000000000000e+00 0.0000000000000000e+00 0.0000000000000000e+00  0.0000