<?xml version="1.0"?>
<VTKFile type="UnstructuredGrid"  version="0.1"  >
<UnstructuredGrid>
<Piece  NumberOfPoints="289" NumberOfCells="512">
<Points>
<DataArray  type="Float64"  NumberOfComponents="3"  format="ascii">0 0 0  0.0625 0 0  0.125 0 0  0.1875 0 0  0.25 0 0  0.3125 0 0  0.375 0 0  0.4375 0 0  0.5 0 0  0.5625 0 0  0.625 0 0  0.6875 0 0  0.75 0 0  0.8125 0 0  0.875 0 0  0.9375 0 0  1 0 0  0 0.0625 0  0.06250518570024974 0.06249730065825684 0  0.1250108123782015 0.06249455788278332 0  0.1875173686534189 0.06249173308927237 0  0.2500254448618108 0.06248879806369431 0  0.3125357984727482 0.06248574113781018 0  0.375049439713395 0.0624825740867313 0  0.437567750374435 0.06247933894455435 0  0.5000926590272193 0.06247611240417703 0  0.5626269203980997 0.06247300238455503 0  0.6251746092134428 0.06247012484809685 0  0.6877421093647649 0.06246753382385552 0  0.7503403764046588 0.06246503708089694 0  0.8129908032434889 0.06246170446152526 0  0.8757421971895397 0.06245444206704592 0  0.9387248057726376 0.06243343298519271 0  1.002337910979948 0.06236723844121574 0  0 0.125 0  0.0625099132960175 0.1249946446144188 0  0.1250206616907013 0.124989197358402 0  0.1875331711243282 0.1249835756056951 0  0.2500485616642766 0.1249777166883847 0  0.3125682722398962 0.1249715902806559 0  0.3750942228647901 0.1249652129783912 0  0.4376290358427403 0.1249586642321633 0  0.5001763503134953 0.1249521005147846 0  0.5627412913827061 0.1249457603368329 0  0.6253312129215496 0.124939945151653 0  0.6879569569061594 0.1249349489181354 0  0.7506351189911671 0.1249308940707336 0  0.8133921871092298 0.1249274391846222 0  0.8762713201796284 0.1249235038940879 0  0.9393375255711339 0.1249182554853589 0  1.002642438715843 0.1249198789235563 0  0 0.1875 0  0.06251379334207799 0.1874920803927267 0  0.1250287252547608 0.1874840109788456 0  0.1875460588344856 0.1874756545549408 0  0.2500673236940013 0.1874669015696394 0  0.3125944871093822 0.1874576884093132 0  0.37513017501215 0.1874480205088581 0  0.4376779672990848 0.1874380005464832 0  0.5002428000812197 0.1874278598466928 0  0.5628315195169057 0.1874179870557992 0  0.6254536471032612 0.1874089411654519 0  0.688122423589412 0.1874014253324957 0  0.7508561424297234 0.1873961846044478 0  0.813679452940776 0.1873937778600667 0  0.8766230501646689 0.1873941477759975 0  0.9397164678344654 0.1873956646627082 0  1.002962170134342 0.1873913812771097 0  0 0.25 0  0.06251652826216227 0.2499896660033656 0  0.1250343735992672 0.2499791113212572 0  0.1875549977064065 0.2499681294099968 0  0.250080172784624 0.2499565455312153 0  0.3126121819485723 0.2499442396820056 0  0.375154077953229 0.249931178018424 0  0.4377100255061 0.2499174552791671 0  0.5002857547893865 0.2499033495596014 0  0.5628891504936654 0.2498893880009754 0  0.6255309800461804 0.2498764163682 0  0.6882256981210059 0.2498656556163082 0  0.7509920844817159 0.2498587127672434 0  0.813853036785238 0.2498574892902988 0  0.8768329255286739 0.2498638905023762 0  0.9399494865058848 0.2498791758250555 0  1.003196703762833 0.2499028771779473 0  0 0.3125 0  0.0625179446369579 0.3124874723883962 0  0.1250372391326453 0.3124746386747543 0  0.1875593815374672 0.3124612056850403 0  0.250086189958404 0.3124469105819803 0  0.3126200123942094 0.3124315456341634 0  0.3751640012639488 0.3124149955250407 0  0.4377224805062673 0.312397292818102 0  0.5003014341803513 0.312378697854043 0  0.5629091374416099 0.3123598090544948 0  0.6255569195757124 0.3123417068607063 0  0.6882599674353215 0.3123261267057326 0  0.7510379015875834 0.3123156393169567 0  0.8139145367022029 0.3123137851105993 0  0.8769157973905973 0.3123250632773211 0  0.940064573181445 0.3123546486406121 0  1.003372666638644 0.3124078622240019 0  0 0.375 0  0.06251801192427388 0.3749855850119319 0  0.1250372565448338 0.3749707651640334 0  0.1875591000182362 0.3749551436720217 0  0.2500851996355991 0.374938344890704 0  0.3126177006970328 0.3749200362212546 0  0.3751595023468131 0.3748999658137257 0  0.4377146263010842 0.3748780250437244 0  0.5002887289559428 0.3748543480170413 0  0.5628897983679734 0.3748294640427878 0  0.6255290614540777 0.3748045216634993 0  0.6882220718924381 0.3747816007616403 0  0.7509898238708866 0.3747641145976993 0  0.813859515581039 0.3747572621046164 0  0.8768643116521788 0.3747684021617993 0  0.9400413683698955 0.3748070682677047 0  1.003428031273119 0.3748841131896191 0  0 0.4375 0  0.06251684524700142 0.4374841026489004 0  0.1250346701856067 0.4374676932233548 0  0.1875545545694058 0.4374502587025229 0  0.2500778002633555 0.4374312888298493 0  0.3126060899142959 0.4374102886974421 0  0.3751417137184752 0.4373868080389821 0  0.4376879058353245 0.4373604988128081 0  0.5002493501072982 0.4373312190302742 0  0.5628329373619679 0.4372992099538146 0  0.6254488780341035 0.4372653854422786 0  0.6881122781764996 0.437231783335278 0  0.7508452399050707 0.4372022294519876 0  0.8136793918520764 0.4371832308538661 0  0.8766584282338469 0.4371849995311863 0  0.9398397375563911 0.4372222460745067 0  1.003293714267074 0.4373139564818715 0  0 0.5 0  0.06251469092539762 0.49998313247985 0  0.125030005486684 0.4999656463227373 0  0.1875466170658935 0.4999469089458977 0  0.2500653144525924 0.4999262630404109 0  0.3125870951830287 0.4999030224432021 0  0.3751133154598163 0.4998764816722487 0  0.4376459421535503 0.4998459511373051 0  0.5001879845424998 0.4998108391025358 0  0.562744235825633 0.4997708165667585 0  0.6253225333599388 0.4997261249811395 0  0.6879358498246636 0.4996781206446007 0  0.7506056227682576 0.4996301885490171 0  0.8133667098731219 0.4995891758574554 0  0.8762739762138712 0.4995674122989733 0  0.9394093938074961 0.4995850299401459 0  1.00288647551198 0.4996714284419401 0  0 0.5625 0  0.06251189462409087 0.5624827809649205 0  0.1250240034633362 0.5624648505213499 0  0.1875365280596956 0.5624454675715569 0  0.2500496499631326 0.5624238320526869 0  0.3125635334958666 0.5623990574236499 0  0.3750783571535504 0.5623701487218185 0  0.4375944120357311 0.5623359949464697 0  0.5001123476405538 0.5622953942845794 0  0.5626337257471977 0.5622471493604817 0  0.6251621895737135 0.5621903044696984 0  0.6877058021300088 0.5621246589668363 0  0.7502814680920545 0.5620517939804313 0  0.8129227262727506 0.5619769929675142 0  0.8756921397187981 0.5619125461309259 0  0.9386978815074694 0.5618826979494453 0  1.002109225904802 0.5619291777068632 0  0 0.625 0  0.06250885378135189 0.6249831407035266 0  0.125017520696268 0.6249655069393926 0  0.1875257352255646 0.6249462784582457 0  0.2500330654397276 0.6249245401326001 0  0.3125388089453461 0.6248992274244748 0  0.37504187079924 0.6248690645423205 0  0.4375406367842149 0.6248324962361865 0  0.5000328932937727 0.6247876207893251 0  0.5625159332834256 0.624732147387614 0  0.6249871818331181 0.6246634366868254 0  0.6874460763414071 0.6245787624727721 0  0.7498986987292116 0.624476101868458 0  0.8123679013197767 0.6243561023377674 0  0.8749130600067387 0.6242264596270469 0  0.9376630600191683 0.6241105180965256 0  1.000857828241206 0.6240606083649433 0  0 0.6875 0  0.06250595868180087 0.6874842745357757 0  0.1250114028880593 0.6874677575394369 0  0.1875156818506813 0.687449598578367 0  0.25001784720339 0.6874288221479185 0  0.3125164440863133 0.6874042479626463 0  0.3750092242740192 0.6873743886097694 0  0.4374927503724334 0.6873373140189115 0  0.4999618710620571 0.6872904710060918 0  0.5624090990437175 0.687230448698842 0  0.6248240879079561 0.6871526960825995 0  0.6871938560189952 0.6870512522562743 0  0.7495055345421784 0.6869187163484437 0  0.8117559741474801 0.6867471617529342 0  0.8739774726538294 0.6865319847126732 0  0.9362950415532448 0.6862836559386767 0  0.9990253334934976 0.6860559851811113 0  0 0.75 0  0.06250352993115042 0.7499861993064887 0  0.1250063479172482 0.7499716492957776 0  0.1875075696425324 0.7499555351850232 0  0.2500059279317833 0.7499369009107808 0  0.3124994869232477 0.7499145531026671 0  0.374985220736899 0.7498869290828954 0  0.4374583715103965 0.749851906512126 0  0.4999114629491345 0.7498065206227411 0  0.5623328030873322 0.74974653658603 0  0.624704307988603 0.7496657974378835 0  0.6869986821433014 0.7495552353877669 0  0.7491769415302447 0.7494014300332498 0  0.8111905696698496 0.7491848001880683 0  0.8730024992742922 0.7488787557619125 0  0.9346656615082674 0.7484570293732516 0  0.9965257238997502 0.7479412287518439 0  0 0.8125 0  0.06250176330911422 0.8124888726383983 0  0.1250027823811912 0.8124771041221341 0  0.1875021369263248 0.812463990640615 0  0.2499985110132702 0.812448691649565 0  0.3124898849408939 0.8124301328831822 0  0.3749730596403171 0.8124068672941506 0  0.4374428868480134 0.8123768644900096 0  0.4998909858462798 0.8123371795905173 0  0.5623035607187724 0.8122834162671964 0  0.624657642963803 0.8122088296903576 0  0.6869146398297966 0.8121027758707815 0  0.7490096496716722 0.8119479147329137 0  0.8108359663783864 0.8117149047191978 0  0.8722333126130873 0.8113519184524667 0  0.9330365283234953 0.8107647651900888 0  0.9934734269030923 0.8097982093415931 0  0 0.875 0  0.06250069450588112 0.874992186313152 0  0.125000780313812 0.8749839027812125 0  0.1874995054791104 0.8749746300988335 0  0.2499957936184203 0.8749637402272274 0  0.3124879840335394 0.8749504171317068 0  0.3749734182911969 0.8749335402093769 0  0.4374477442026741 0.8749115028886765 0  0.4999036934492874 0.8748819191181348 0  0.5623288496381657 0.8748411334161215 0  0.6247014073982211 0.874783378360965 0  0.6869817771285396 0.874699274620071 0  0.7490953030509867 0.8745730198267948 0  0.8108956103331809 0.8743766262455894 0  0.8720865525793536 0.8740561443823489 0  0.9320672694082132 0.87349084431394 0  0.9897337215971584 0.8723377123774131 0  0 0.9375 0  0.06250019445194194 0.9374959690932463 0  0.1250000498034833 0.9374916895043037 0  0.1874991473648308 0.9374868852324656 0  0.2499968874574039 0.9374812199696376 0  0.3124923423707965 0.9374742524686241 0  0.3749840187699249 0.9374653700299962 0  0.4374694492777698 0.93745368368999
[...]
<PointData  Vectors="f_54"> 
<DataArray  type="Float64"  Name="f_54"  NumberOfComponents="3" format="ascii">0.0000000000000000e+00 0.0000000000000000e+00 0.0000000000000000e+00  0.0000000000000000e+00 0.0000000000000000e+00 0.0000000000000000e+00  0.0000000000000000e+00 0.0000000000000000e+00 0.0000000000000000e+00  0.0000000000000000e+00 0.0000000000000000e+00 0.0000000000000000e+00  0.0000000000000000e+00 0.0000000000000000e+00 0.0000000000000000e+00  0.0000000000000000e+00 0.0000000000000000e+00 0.0000000000000000e+00  0.0000000000000000e+00 0.0000000000000000e+00 0.0000000000000000e+00  0.0000000000000000e+00 0.0000000000000000e+00 0.0000000000000000e+00  0.0000000000000000e+00 0.0000000000000000e+00 0.0000000000000000e+00  0.0000000000000000e+00 0.0000000000000000e+00 0.0000000000000000e+00  0.0000000000000000e+00 0.0000000000000000e+00 0.0000000000000000e+00  0.0000000000000000e+00 0.0000000000000000e+00 0.0000000000000000e+00  0.0000000000000000e+00 0.0000000000000000e+00 0.0000000000000000e+00  0.0000000000000000e+00 0.0000000000000000e+00 0.0000000000000000e+00  0.0000000000000000e+00 0.0000000000000000e+00 0.0000000000000000e+00  0.0000000000000000e+00 0.0000000000000000e+00 0.0000000000000000e+00  0.0000000000000000e+00 0.0000000000000000e+00 0.0000000000000000e+00  0.0000000000000000e+00 0.0000000000000000e+00 0.0000000000000000e+00  -4.1776752003297115e-06 -1.5502682460490654e-08 0.0000000000000000e+00  -8.4797765306020946e-06 -2.9558079089003053e-08 0.0000000000000000e+00  -1.3031454105510413e-05 -4.0398994323557521e-08 0.0000000000000000e+00  -1.7958249497086961e-05 -4.5575629743080407e-08 0.0000000000000000e+00  -2.3385440320463600e-05 -4.1511651747466566e-08 0.0000000000000000e+00  -2.9436404272148121e-05 -2.2927270479597765e-08 0.0000000000000000e+00  -3.6229880706764930e-05 1.7936741267063500e-08 0.0000000000000000e+00  -4.3876448875917777e-05 9.2398381334792535e-08 0.0000000000000000e+00  -5.2475661009867049e-05 2.1692827540976586e-07 0.0000000000000000e+00  -6.2118137010650713e-05 4.1579744932832158e-07 0.0000000000000000e+00  -7.2904714983550574e-05 7.2639061856957852e-07 0.0000000000000000e+00  -8.5017757626029922e-05 1.2124988357477562e-06 0.0000000000000000e+00  -9.8954259692989865e-05 2.0044663710916681e-06 0.0000000000000000e+00  -1.1629441773517010e-04 3.4379663351475730e-06 0.0000000000000000e+00  -1.4240139175424052e-04 6.5846136962042960e-06 0.0000000000000000e+00  -1.9692187569276076e-04 1.5501160027460033e-05 0.0000000000000000e+00  0.0000000000000000e+00 0.0000000000000000e+00 0.0000000000000000e+00  -8.2312518746288855e-06 -3.2453389365050198e-08 0.0000000000000000e+00  -1.6711131706782107e-05 -6.2332770568770507e-08 0.0000000000000000e+00  -2.5690053821143824e-05 -8.6463755921630342e-08 0.0000000000000000e+00  -3.5419966234766027e-05 -1.0038795361207035e-07 0.0000000000000000e+00  -4.6153366874906380e-05 -9.7523775469670212e-08 0.0000000000000000e+00  -5.8140210419500613e-05 -6.8075392945050791e-08 0.0000000000000000e+00  -7.1622192924012472e-05 2.4214582402518112e-09 0.0000000000000000e+00  -8.6824385067953578e-05 1.3505995800829272e-07 0.0000000000000000e+00  -1.0394535939710167e-04 3.6023640234301406e-07 0.0000000000000000e+00  -1.2314954808709903e-04 7.2138598068916798e-07 0.0000000000000000e+00  -1.4457090776096344e-04 1.2803990809132687e-06 0.0000000000000000e+00  -1.6834684266617110e-04 2.1255322149865418e-06 0.0000000000000000e+00  -1.9471364565502890e-04 3.3803738350945567e-06 0.0000000000000000e+00  -2.2417214604156309e-04 5.1920850165767122e-06 0.0000000000000000e+00  -2.5741586723956704e-04 7.5486555115357207e-06 0.0000000000000000e+00  -2.9256435428690319e-04 9.0397950448043540e-06 0.0000000000000000e+00  0.0000000000000000e+00 0.0000000000000000e+00 0.0000000000000000e+00  -1.2036144692039218e-05 -5.1976343070939719e-08 0.0000000000000000e+00  -2.4444157358897734e-05 -1.0085453763206403e-07 0.0000000000000000e+00  -3.7599415792827642e-05 -1.4273203315866655e-07 0.0000000000000000e+00  -5.1881459305110648e-05 -1.7197805969792734e-07 0.0000000000000000e+00  -6.7673393377092687e-05 -1.8009054296053121e-07 0.0000000000000000e+00  -8.5357905190838886e-05 -1.5419885122790036e-07 0.0000000000000000e+00  -1.0530867209273109e-04 -7.5067861275989493e-08 0.0000000000000000e+00  -1.2787609551824608e-04 8.5549127596280495e-08 0.0000000000000000e+00  -1.5336678624909772e-04 3.6834140815046174e-07 0.0000000000000000e+00  -1.8201717705565782e-04 8.3068929023728712e-07 0.0000000000000000e+00  -2.1396265457976896e-04 1.5514379269868881e-06 0.0000000000000000e+00  -2.4920216887714568e-04 2.6349270253139753e-06 0.0000000000000000e+00  -2.8754467540666613e-04 4.2102944321072237e-06 0.0000000000000000e+00  -3.2846795473728173e-04 6.4163550042854077e-06 0.0000000000000000e+00  -3.7065599628659831e-04 9.3650164397929009e-06 0.0000000000000000e+00  -4.1073371113258206e-04 1.3223703220025272e-05 0.0000000000000000e+00  0.0000000000000000e+00 0.0000000000000000e+00 0.0000000000000000e+00  -1.5468791985445268e-05 -7.4592428527050384e-08 0.0000000000000000e+00  -3.1430246916315392e-05 -1.4637112567536611e-07 0.0000000000000000e+00  -4.8383243639744583e-05 -2.1162211918229949e-07 0.0000000000000000e+00  -6.6835695351017562e-05 -2.6468199554180679e-07 0.0000000000000000e+00  -8.7305571989789997e-05 -2.9661849401068925e-07 0.0000000000000000e+00  -1.1031728902753851e-04 -2.9346794922149162e-07 0.0000000000000000e+00  -1.3639136613401528e-04 -2.3384309359120290e-07 0.0000000000000000e+00  -1.6602489923958570e-04 -8.5718925271080647e-08 0.0000000000000000e+00  -1.9966006358369080e-04 1.9774543287964266e-07 0.0000000000000000e+00  -2.3763750318099816e-04 6.8329865037983282e-07 0.0000000000000000e+00  -2.8013051017417571e-04 1.4630473641182641e-06 0.0000000000000000e+00  -3.2705247982748535e-04 2.6585981239767606e-06 0.0000000000000000e+00  -3.7791968259346829e-04 4.4201937994423830e-06 0.0000000000000000e+00  -4.3162685578129766e-04 6.9146482880783011e-06 0.0000000000000000e+00  -4.8605831585539559e-04 1.0296608225696300e-05 0.0000000000000000e+00  -5.3749001979870614e-04 1.4664889757858319e-05 0.0000000000000000e+00  0.0000000000000000e+00 0.0000000000000000e+00 0.0000000000000000e+00  -1.8408190465983535e-05 -1.0001361792073357e-07 0.0000000000000000e+00  -3.7424809440251140e-05 -1.9840455885669846e-07 0.0000000000000000e+00  -5.7668462826201874e-05 -2.9268663466139480e-07 0.0000000000000000e+00  -7.9774583815098952e-05 -3.7847935160129462e-07 0.0000000000000000e+00  -1.0439986043786710e-04 -4.4817493260405288e-07 0.0000000000000000e+00  -1.3222113199165661e-04 -4.8909297473268777e-07 0.0000000000000000e+00  -1.6392579810774644e-04 -4.8087667540674481e-07 0.0000000000000000e+00  -2.0018984748337236e-04 -3.9183962485705775e-07 0.0000000000000000e+00  -2.4163850963850890e-04 -1.7396565195669107e-07 0.0000000000000000e+00  -2.8878334489655785e-04 2.4362056065056553e-07 0.0000000000000000e+00  -3.4192840093722382e-04 9.6249229746207681e-07 0.0000000000000000e+00  -4.0103696788564664e-04 2.1228841239788128e-06 0.0000000000000000e+00  -4.6555000570276108e-04 3.9087193292129056e-06 0.0000000000000000e+00  -5.3415108860365855e-04 6.5436360349968269e-06 0.0000000000000000e+00  -6.0449636738331674e-04 1.0267697373762971e-05 0.0000000000000000e+00  -6.7301893899648175e-04 1.5275562332941658e-05 0.0000000000000000e+00  0.0000000000000000e+00 0.0000000000000000e+00 0.0000000000000000e+00  -2.0738521405134058e-05 -1.2704564050566213e-07 0.0000000000000000e+00  -4.2192224566447400e-05 -2.5453168828481665e-07 0.0000000000000000e+00  -6.5091830585020985e-05 -3.8221768057193665e-07 0.0000000000000000e+00  -9.0196010526155009e-05 -5.0833461055273722e-07 0.0000000000000000e+00  -1.1830147858716291e-04 -6.2843549434993027e-07 0.0000000000000000e+00  -1.5024737891327405e-04 -7.3370878514357427e-07 0.0000000000000000e+00  -1.8691036354192655e-04 -8.0844535927669566e-07 0.0000000000000000e+00  -2.2918518287933000e-04 -8.2622771277060481e-07 0.0000000000000000e+00  -2.7794362096460271e-04 -7.4426207901968387e-07 0.0000000000000000e+00  -3.3396245689095230e-04 -4.9514757852887471e-07 0.0000000000000000e+00  -3.9780953807985069e-04 2.4593262140358900e-08 0.0000000000000000e+00  -4.6967765030750272e-04 9.6940028166293399e-07 0.0000000000000000e+00  -5.4916199356057154e-04 2.5616019471819487e-06 0.0000000000000000e+00  -6.3499483572383253e-04 5.1055630919793682e-06 0.0000000000000000e+00  -7.2478984122595184e-04 8.9885017582631895e-06 0.0000000000000000e+00  -8.1491719153618347e-04 1.4652572922125396e-05 0.0000000000000000e+00  0.0000000000000000e+00 0.0000000000000000e+00 0.0000000000000000e+00  -2.2353156338960306e-05 -1.5362352448230021e-07 0.0000000000000000e+00  -4.5513697930255218e-05 -3.1044130040426121e-07 0.0000000000000000e+00  -7.0311233036546492e-05 -4.7329138606857803e-07 0.0000000000000000e+00  -9.7617696083387149e-05 -6.4416072545339763e-07 0.0000000000000000e+00  -1.2836559985648354e-04 -8.2343944788439861e-07 0.0000000000000000e+00  -1.6356152711995356e-04 -1.0086970017056867e-06 0.0000000000000000e+00  -2.0429105804226370e-04 -1.1926408909001380e-06 0.0000000000000000e+00  -2.5170906396636863e-04 -1.3597079245481375e-06 0.0000000000000000e+00  -3.0700615411919632e-04 -1.4803990670146574e-06 0.0000000000000000e+00  -3.7133820670708632e-04 -1.5019636763931532e-06 0.0000000000000000e+00  -4.4570225702450359e-04 -1.3333903718883825e-06 0.0000000000000000e+00  -5.3074104050071145e-04 -8.2212210392232641e-07 0.0000000000000000e+00  -6.2646539819276358e-04 2.7966097752131882e-07 0.0000000000000000e+00  -7.3190689390323718e-04 2.3578877695225430e-06 0.0000000000000000e+00  -8.4476021003907875e-04 5.9771761628358791e-06 0.0000000000000000e+00  -9.6113912901392906e-04 1.1887611005049900e-05 0.0000000000000000e+00  0.0000000000000000e+00 0.0000000000000000e+00 0.0000000000000000e+00  -2.3160189789748599e-05 -1.7699371638547824e-07 0.0000000000000000e+00  -4.7198412927185179e-05 -3.6030153971796597e-07 0.0000000000000000e+00  -7.3022533660887826e-05 -5.5631974488091047e-07 0.0000000000000000e+00  -1.0159958634627954e-04 -7.7153152604788759e-07 0.0000000000000000e+00  -1.3398449795592335e-04 -1.0123766309862127e-06 0.0000000000000000e+00  -1.7134648139329150e-04 -1.2848231704457440e-06 0.0000000000000000e+00  -2.1498985209913914e-04 -1.5933554617431291e-06 0.0000000000000000e+00  -2.6636316071828355e-04 -1.9388309144678426e-06 0.0000000000000000e+00  -3.2704605529628518e-04 -2.3141631358935800e-06 0.0000000000000000e+00  -3.9869681892143401e-04 -2.6958755356893050e-06 0.0000000000000000e+00  -4.8293537819165284e-04 -3.0279880377468783e-06 0.0000000000000000e+00  -5.8112904409795304e-04 -3.1922770108555864e-06 0.0000000000000000e+00  -6.9404805594701206e-04 -2.9562069912824463e-06 0.0000000000000000e+00  -8.2137916691998934e-04 -1.8896746390966381e-06 0.0000000000000000e+00  -9.6114744708355765e-04 7.4759994581206368e-07 0.0000000000000000e+00  -1.1092012116165077e-03 6.1106210658237735e-06 0.0000000000000000e+00  0.0000000000000000e+00 0.0000000000000000e+00 0.0000000000000000e+00  -2.3089407370642440e-05 -1.9403927771913863e-07 0.0000000000000000e+00  -4.7097894370941761e-05 -3.9743814531698052e-07 0.0000000000000000e+00  -7.2982118903630174e-05 -6.2013305876128172e-07 0.0000000000000000e+00  -1.0177554856242940e-04 -8.7322822954202493e-07 0.0000000000000000e+00  -1.3462917949455582e-04 -1.1696291634136327e-06 0.0000000000000000e+00  -1.7285404898501579e-04 -1.5246890801901987e-06 0.0000000000000000e+00  -2.1796397599466261e-04 -1.9567574947965009e-06 0.0000000000000000e+00  -2.7171396306214048e-04 -2.4873129609587654e-06 0.0000000000000000e+00  -3.3612422480326165e-04 -3.1398819354668168e-06 0.0000000000000000e+00  -4.1347042345908468e-04 -3.9358607778866667e-06 0.0000000000000000e+00  -5.0620586430081291e-04 -4.8829940135585732e-06 0.0000000000000000e+00  -6.1676102648822271e-04 -5.9474280750946935e-06 0.0000000000000000e+00  -7.4714550879149673e-04 -6.9915025143214459e-06 0.0000000000000000e+00  -8.9827823955773310e-04 -7.6474684974660837e-06 0.0000000000000000e+00  -1.0690436912601923e-03 -7.0940162329244287e-06 0.0000000000000000e+00  -1.2552859985541986e-03 -3.7486723338996995e-06 0.0000000000000000e+00  0.0000000000000000e+00 0.0000000000000000e+00 0.0000000000000000e+00  -2.2100262304546097e-05 -2.0172005033708137e-07 0.0000000000000000e+00  -4.5122799782660136e-05 -4.1527205890449136e-07 0.0000000000000000e+00  -7.0034175485554243e-05 -6.5353278069326489e-07 0.0000000000000000e+00  -9.7893590114334086e-05 -9.3158836689820268e-07 0.0000000000000000e+00  -1.2990557672436297e-04 -1.2681514661772420e-06 0.0000000000000000e+00  -1.6748013947988716e-04 -1.6873851434218490e-06 0.0000000000000000e+00  -2.1230185598757547e-04 -2.2213127231985156e-06 0.0000000000000000e+00  -2.6640731448643811e-04 -2.9129849160560501e-06 0.0000000000000000e+00  -3.3226519616027524e-04 -3.8204271120299917e-06 0.0000000000000000e+00  -4.1284248244338544e-04 -5.0207700533650119e-06 0.0000000000000000e+00  -5.1161893143556825e-04 -6.6119379560235986e-06 0.0000000000000000e+00  -6.3247373048984324e-04 -8.7033670226952738e-06 0.0000000000000000e+00  -7.7930909151293054e-04 -1.1371747812110712e-05 0.0000000000000000e+00  -9.5521064277203423e-04 -1.4522710527689403e-05 0.0000000000000000e+00  -1.1609560224995778e-03 -1.7541880663096545e-05 0.0000000000000000e+00  -1.3929914544370727e-03 -1.8613161504673299e-05 0.0000000000000000e+00  0.0000000000000000e+00 0.0000000000000000e+00 0.0000000000000000e+00  -2.0190030594061797e-05 -1.9757041608713813e-07 0.0000000000000000e+00  -4.1260480579290733e-05 -4.0839859376747952e-07 0.0000000000000000e+00  -6.4140262667075447e-05 -6.4713395275836018e-07 0.0000000000000000e+00  -8.9861591221522218e-05 -9.3142214412778673e-07 0.0000000000000000e+00  -1.1962229580655121e-04 -1.2839470672252124e-06 0.0000000000000000e+00  -1.5486196986354660e-04 -1.7352451140565086e-06 0.0000000000000000e+00  -1.9735785881161113e-04 -2.3277864073160715e-06 0.0000000000000000e+00  -2.4934659564815792e-04 -3.1221097429359957e-06 0.0000000000000000e+00  -3.1367598493499258e-04 -4.2062883990818342e-06 0.0000000000000000e+00  -3.9398330406959967e-04 -5.7107247538796959e-06 0.0000000000000000e+00  -4.9487489922209313e-04 -7.8308673444995004e-06 0.0000000000000000e+00  -6.2202992637287670e-04 -1.0858748758920619e-05 0.0000000000000000e+00  -7.8204100070176897e-04 -1.5211302692014200e-05 0.0000000000000000e+00  -9.8160555025690230e-04 -2.1388757798804355e-05 0.0000000000000000e+00  -1.2254407969065338e-03 -2.9619952979171432e-05 0.0000000000000000e+00  -1.5124815368209954e-03 -3.8610347975791998e-05 0.0000000000000000e+00  0.0000000000000000e+00 0.0000000000000000e+00 0.0000000000000000e+00  -1.7400911047700936e-05 -1.8017116323453907e-07 0.0000000000000000e+00  -3.5590732772430878e-05 -3.7362662967266369e-07 0.0000000000000000e+00  -5.5407063859966814e-05 -5.9518713534279620e-07 0.0000000000000000e+00  -7.7792742209269335e-05 -8.6301060462500662e-07 0.0000000000000000e+00  -1.0386254224920860e-04 -1.2009260772272543e-06 0.0000000000000000e+00  -1.3498927960624708e-04 -1.6417352644763990e-06 0.0000000000000000e+00  -1.7292006097360514e-04 -2.2321593869682436e-06 0.0000000000000000e+00  -2.1993745269071463e-04 -3.0406192330684453e-06 0.0000000000000000e+00  -2.7908510596375393e-04 -4.1701080204571792e-06 0.0000000000000000e+00  -3.5448047203688420e-04 -5.7807553612220462e-06 0.0000000000000000e+00  -4.5173063232926763e-04 -8.1318082699607429e-06 0.0000000000000000e+00  -5.7842801095917570e-04 -1.1663285636316857e-05 0.0000000000000000e+00  -7.4457158258227601e-04 -1.7154299296365847e-05 0.0000000000000000e+00  -9.6239808809206603e-04 -2.5992877813919665e-05 0.0000000000000000e+00  -1.2442671783183263e-03 -4.0374000285938811e-05 0.0000000000000000e+00  -1.5963428911249210e-03 -6.1584672792953970e-05 0.0000000000000000e+00  0.0000000000000000e+00 0.0000000000000000e+00 0.0000000000000000e+00  -1.3824542743045927e-05 -1.4950042603190831e-07 0.0000000000000000e+00  -2.8296418091920129e-05 -3.1076304546930214e-07 0.0000000000000000e+00  -4.4106674534833216e-05 -4.9698726779497106e-07 0.0000000000000000e+00  -6.2041940795148380e-05 -7.2450407506108555e-07 0.0000000000000000e+00  -8.3047508981149118e-05 -1.0149738416138726e-06 0.0000000000000000e+00  -1.0831243469176967e-04 -1.3984886829595207e-06 0.0000000000000000e+00  -1.3939089284641454e-04 -1.9181762136288187e-06 0.0000000000000000e+00  -1.7838219104620933e-04 -2.6373152871726573e-06 0.0000000000000000e+00  -2.2820531172055536e-04 -3.6508932502580269e-06 0.0000000000000000e+00  -2.9302502891886256e-04 -5.1058874452476290e-06 0.0000000000000000e+00  -3.7891637588954505e-04 -7.2413392113741451e-06 0.0000000000000000e+00  -4.9488288320996088e-04 -1.0480237638366052e-05 0.0000000000000000e+00  -6.5431811281549184e-04 -1.5671284919307165e-05 0.0000000000000000e+00  -8.7670068097218294e-04 -2.4784822116573740e-05 0.0000000000000000e+00  -1.1878257276939082e-03 -4.3002233389218527e-05 0.0000000000000000e+00  -1.6087661409617041e-03 -8.5166984131290272e-05 0.0000000000000000e+00  0.0000000000000000e+00 0.0000000000000000e+00 0.0000000000000000e+00  -9.6023773109753955e-06 -1.0708172234873968e-07 0.0000000000000000e+00  -1.9665420754766073e-05 -2.2295215277080781e-07 0.0000000000000000e+00  -3.0683019128184053e-05 -3.5750522821663379e-07 0.0000000000000000e+00  -4.3222315492088780e-05 -5.2304169877590576e-07 0.0000000000000000e+00  -5.7973575601037674e-05 -7.3593803951396460e-07 0.0000000000000000e+00  -7.5819736011507776e-05 -1.0189429166559501e-06 0.0000000000000000e+00  -9.7939765667853473e-05 -1.4044039235071781e-06 0.0000000000000000e+00  -1.2597003739578736e-04 -1.9387318966794198e-06 0.0000000000000000e+00  -1.6226692903400304e-04 -2.6882107496379859e-06 0.0000000000000000e+00  -2.1035043594906864e-04 -3.7455135819260582e-06 0.0000000000000000e+00  -2.7567994113215130e-04 -5.2346001030768537e-06 0.0000000000000000e+00  -3.6705385979320945e-04 -7.3107993750402911e-06 0.0000000000000000e+00  -4.9920319580423625e-04 -1.0170567897951403e-05 0.0000000000000000e+00  -6.9771739154347629e-04 -1.4224044749582882e-05 0.0000000000000000e+00  -1.0088218454064701e-03 -2.1325877964590274e-05 0.0000000000000000e+00  -1.5223579466692447e-03 -4.1481611505403136e-05 0.0000000000000000e+00  0.0000000000000000e+00 0.0000000000000000e+00 0.0000000000000000e+00  -4.9207097893309527e-06 -5.5886242363068622e-08 0.0000000000000000e+00  -1.0081078513129562e-05 -1.1646988123608047e-07 0.0000000000000000e+00  -1.5738762691801886e-05 -1.8704666956729495e-07 0.0000000000000000e+00  -2.2191314516353938e-05 -2.7421276250812292e-07 0.0000000000000000e+00  -2.9803890340612057e-05 -3.8675127915273939e-07 0.0000000000000000e+00  -3.9048733920051959e-05 -5.3681003884878449e-07 0.0000000000000000e+00  -5.0565455051979308e-05 -7.4142000732386353e-07 0.0000000000000000e+00  -6.5258350406613262e-05 -1.0241430144692910e-06 0.0000000000000000e+00  -8.4461651013762934e-05 -1.4156338278132972e-06 0.0000000000000000e+00  -1.1023419655545033e-04 -1.9483543251620544e-06 0.0000000000000000e+00  -1.4591072838751425e-04 -2.6283794374560438e-06 0.0000000000000000e+00  -1.9717740775220785e-04 -3.3244627794242016e-06 0.0000000000000000e+00  -2.7421144030571556e-04 -3.3656582491004203e-06 0.0000000000000000e+00  -3.9571896358834993e-04 -1.3942103200894940e-07 0.0000000000000000e+00  -5.9425251711033586e-04 1.5412701470356262e-05 0.0000000000000000e+00  -9.0764386296546999e-04 6.9392879674872796e-05 0.0000000000000000e+00  0.0000000000000000e+00 0.0000000000000000e+00 0.0000000000000000e+00  0.0000000000000000e+00 0.0000000000000000e+00 0.0000000000000000e+00  0.0000000000000000e+00 0.0000000000000000e+00 0.0000000000000000e+00  0.0000000000000000e+00 0.0000000000000000e+00 0.0000000000000000e+00  0.0000000000000000e+00 0.0000000000000000e+00 0.0000000000000000e+00  0.0000000000000000e+00 0.0000000000000000e+00 0.0000000000000000e+00  0.00000000