<?xml version="1.0"?>
<VTKFile type="UnstructuredGrid"  version="0.1"  >
<UnstructuredGrid>
<Piece  NumberOfPoints="289" NumberOfCells="512">
<Points>
<DataArray  type="Float64"  NumberOfComponents="3"  format="ascii">0 0 0  0.0625 0 0  0.125 0 0  0.1875 0 0  0.25 0 0  0.3125 0 0  0.375 0 0  0.4375 0 0  0.5 0 0  0.5625 0 0  0.625 0 0  0.6875 0 0  0.75 0 0  0.8125 0 0  0.875 0 0  0.9375 0 0  1 0 0  0 0.0625 0  0.0625493473921659 0.06249359663552041 0  0.1251002531635061 0.06248706568002117 0  0.1876543029145708 0.06248028780851654 0  0.2502131169261685 0.06247316263477747 0  0.3127783614070396 0.06246562087323567 0  0.3753517528712852 0.06245763908499615 0  0.4379350563582408 0.06244925626237496 0  0.5005300842785383 0.06244058899560293 0  0.5631387178584166 0.06243183683884157 0  0.6257630116000306 0.06242325902595615 0  0.6884055429002018 0.0624150814755108 0  0.751070454102585 0.06240724200825597 0  0.8137664749397368 0.06239875202560668 0  0.8765157546815895 0.0623860994489067 0  0.9393798303969344 0.06235927338895723 0  1.002532737130729 0.06229537752637156 0  0 0.125 0  0.06259712733172609 0.1249873209816075 0  0.1251973605949662 0.1249743776966357 0  0.1878038646013755 0.124960921259396 0  0.2504198847981905 0.1249467384315759 0  0.3130487765740758 0.12493167543724 0  0.3756940216944856 0.124915668119241 0  0.4383592319144887 0.1248987782705569 0  0.5010481482140702 0.1248812322799656 0  0.56376466322334 0.1248634508351934 0  0.6265129353351199 0.1248460445099643 0  0.6892977448199178 0.1248297257048789 0  0.7521253835857479 0.124815050458993 0  0.8150055055406401 0.1248018713907165 0  0.8779538879130458 0.1247884722968359 0  0.940991839156141 0.1247710460575946 0  1.004117839013049 0.12474634574947 0  0 0.1875 0  0.06264179339101682 0.1874813102982599 0  0.1252882056374764 0.1874622028827775 0  0.1879439517819781 0.1874422801013532 0  0.2506138887951508 0.1874211918012903 0  0.3133030712120686 0.1873986692143827 0  0.3760167873847102 0.1873745706701588 0  0.4387605723355298 0.1873489415743535 0  0.5015401983900525 0.1873220880218814 0  0.5643616553557689 0.1872946568101144 0  0.6272311486491472 0.1872677018705346 0  0.6901551567507606 0.1872426946593149 0  0.7531405483386268 0.1872213992585889 0  0.816194487100062 0.1872054720743816 0  0.879322869772964 0.1871955069467089 0  0.9425235920335889 0.187188697639997 0  1.005768589419901 0.187171735449831 0  0 0.25 0  0.06268183838224131 0.2499757185174472 0  0.1253697425628138 0.2499508439816057 0  0.1880699183436395 0.2499248041207523 0  0.2507887936458719 0.2498970778241839 0  0.3135331112088683 0.2498672354455223 0  0.3763099960298261 0.2498349976982462 0  0.4391269874525499 0.249800320108878 0  0.5019920250117461 0.2497635093446159 0  0.5649133754320538 0.249725374734927 0  0.6278994798208243 0.2496874106534835 0  0.6909586659137849 0.2496519895755165 0  0.7540985591729993 0.2496225165123977 0  0.8173247311015164 0.2496034462369337 0  0.8806375060657184 0.2495999898351944 0  0.9440250590727355 0.2496172880029545 0  1.007451445520718 0.2496593692720601 0  0 0.3125 0  0.06271582229017669 0.3124707213287259 0  0.1254390506890303 0.3124406514041874 0  0.1881772819705808 0.3124090149042958 0  0.2509384366219955 0.3123750794155688 0  0.3137309022968816 0.3123381955691714 0  0.3765636497486436 0.3122978623153205 0  0.4394463061108373 0.3122538299085954 0  0.5023891641436622 0.3122062564292026 0  0.5654030951693635 0.3121559367135379 0  0.6284993114707217 0.3121046235773553 0  0.6916888765607969 0.3120554563606487 0  0.7549817640560883 0.3120134940628863 0  0.818385098113211 0.3119863094155381 0  0.8819000451216327 0.3119845316734991 0  0.9455171153944428 0.3120221750106223 0  1.00921171220846 0.3121167618861256 0  0 0.375 0  0.06274240942495601 0.3749665171060955 0  0.1254934075826144 0.3749320267458036 0  0.1882618306983333 0.374895525662009 0  0.2510569617075464 0.3748560301004162 0  0.3138887401148694 0.3748126060111891 0  0.3767679489882208 0.3747644284101517 0  0.439706362848768 0.3747108876600506 0  0.5027168311320376 0.3746517684725921 0  0.5658132574101075 0.3745875384630967 0  0.6290104102656244 0.3745197964697393 0  0.6923234600598157 0.3744519430370233 0  0.7557670693819006 0.3743901360428202 0  0.8193537854821523 0.3743445595812988 0  0.8830914798614359 0.3743309201164836 0  0.9469799236613613 0.3743718284109869 0  1.011007705595109 0.3744972445397499 0  0 0.4375 0  0.06276041702426878 0.4374633220151531 0  0.1255303864022416 0.4374254143369578 0  0.1883197687023731 0.4373850324497085 0  0.2511390113998732 0.4373409113066866 0  0.3139994400835346 0.4372917734217257 0  0.3769135406897919 0.4372363649774914 0  0.4398952212257803 0.4371735404644902 0  0.5029600330816337 0.4371024290136532 0  0.5661253202148595 0.4370227354102563 0  0.6294102475759668 0.4369352580153814 0  0.6928356347903403 0.4368427445074294 0  0.7564234818341559 0.4367512459468705 0  0.8201960162132812 0.4366721384758232 0  0.8841740280108988 0.4366248806447094 0  0.9483742415549681 0.4366402207482117 0  1.012805557905908 0.4367628400082725 0  0 0.5 0  0.06276887597407403 0.4999613579787628 0  0.1255479794521873 0.4999212776180558 0  0.1883479064958697 0.4998782804114408 0  0.2511799877651099 0.4998308123291965 0  0.3140566713940767 0.4997772172385021 0  0.3769919205332839 0.4997157298240262 0  0.4400016250403062 0.4996445066243865 0  0.5031040229819258 0.4995617291230967 0  0.5663201252760618 0.4994658396071615 0  0.6296741391035354 0.4993560159048229 0  0.6931938950361207 0.4992330643784234 0  0.7569112914760624 0.499101017715497 0  0.82086273534893 0.4989698475507343 0  0.8850893587638078 0.4988597440301235 0  0.9496362061918963 0.4988070900038415 0  1.014548469953814 0.4988710392594973 0  0 0.5625 0  0.06276710178651247 0.5624608330825837 0  0.1255447448327467 0.5624200589152369 0  0.1883438925647962 0.5623760012401291 0  0.2511763825737874 0.5623268441599371 0  0.3140554024460178 0.5622705611359997 0  0.3769960119579953 0.5622048468449409 0  0.4400157274274188 0.5621270622555251 0  0.5031351878364064 0.5620342171021485 0  0.5663789357308132 0.5619230413367261 0  0.6297763818932508 0.5617902507830549 0  0.693363101870714 0.5616332152870048 0  0.7571827481530484 0.5614514283653682 0  0.8212899963399016 0.5612495006518827 0  0.8857547750735281 0.5610428340200202 0  0.9506667528605719 0.5608673160137553 0  1.016135543829307 0.5607930681994745 0  0 0.625 0  0.06275477069645644 0.6249619154800877 0  0.125519966174756 0.62492212434332 0  0.1883064721606043 0.6248788232342953 0  0.2511261591995204 0.6248300060320526 0  0.3139924396268571 0.6247733453026851 0  0.3769209068347093 0.6247060536016074 0  0.4399300917520675 0.6246247203412509 0  0.5030423838192212 0.6245251263533456 0  0.5662851946561824 0.6244020552408988 0  0.6296925208732244 0.6242491625665254 0  0.6933072498489423 0.624059064424053 0  0.7571849529399275 0.62382404291668 0  0.8214006027457308 0.6235383018009945 0  0.8860603058841341 0.6232038136369954 0  0.9513188954475459 0.6228434909579293 0  1.017396308253741 0.6225252198091168 0  0 0.6875 0  0.06273199222248886 0.6874647037141073 0  0.1254738078789559 0.687427699702331 0  0.1882357462242695 0.6873871626571021 0  0.2510291491451347 0.6873410155005876 0  0.3138670114455848 0.6872867701063757 0  0.3767647080520462 0.6872213232784031 0  0.4397408918179465 0.6871406854225263 0  0.5028186343052226 0.6870396130788339 0  0.5660269231416446 0.686911110975212 0  0.6294027353230147 0.6867457719876183 0  0.6929941930842537 0.6865309590668845 0  0.756866068849301 0.6862499818190426 0  0.8211107309043362 0.6858819382317061 0  0.8858711504306658 0.6854045652227549 0  0.951385807165395 0.6848072627343726 0  1.018054851835739 0.6841296118103507 0  0 0.75 0  0.06269936655264392 0.7499691981853074 0  0.1254074416240034 0.7499368074648274 0  0.1881333917157612 0.7499011131237054 0  0.2508874071734887 0.7498601271852733 0  0.3136813208483288 0.7498114064482775 0  0.3765293701078912 0.7497518066683617 0  0.4394491714128763 0.7496771340383791 0  0.502462998079509 0.7495816351569405 0  0.565599488655108 0.7494572341098468 0  0.6288959993320541 0.7492923724770917 0  0.6924020782679602 0.7490702244021127 0  0.756185438088485 0.7487659420996563 0  0.8203447968380807 0.7483425253320591 0  0.8850430627749181 0.7477455530045695 0  0.9505961857108933 0.7469022807181697 0  1.017657270444601 0.7457644660234605 0  0 0.8125 0  0.06265801360207203 0.8124752796729987 0  0.1253231160982717 0.8124492179167134 0  0.1880027969888131 0.8124203559847699 0  0.2507054552869425 0.8123869778065899 0  0.3134409658883625 0.8123469326140108 0  0.3762213991658532 0.8122973871243511 0  0.4390619724508412 0.8122344607281109 0  0.5019823350130724 0.8121526690394877 0  0.5650083114322312 0.8120440517646145 0  0.6281742454974398 0.8118967712055626 0  0.6915261221202101 0.8116927954638166 0  0.7551259545974033 0.8114039221700438 0  0.8190600090864991 0.8109845934948102 0  0.8834647039098569 0.8103580759509375 0  0.9486384784893249 0.8093883556321447 0  1.015553864187672 0.8078205324341586 0  0 0.875 0  0.062609561477909 0.8749827007495479 0  0.1252241429165677 0.8749644277521623 0  0.1878490653750754 0.8749441161894285 0  0.2504903413045535 0.8749205001862355 0  0.3131551173705429 0.8748919710448774 0  0.3758522540129755 0.8748563749737484 0  0.438593118128027 0.874810708721907 0  0.5013926908785763 0.8747506452476626 0  0.564271109731356 0.8746697758051518 0  0.6272557209223849 0.8745583747286199 0  0.69038345954521 0.8744013480392892 0  0.7537025090168865 0.8741747362436217 0  0.8172701045805512 0.8738394370856962 0  0.8811414093269794 0.8733288007545621 0  0.9453664320853379 0.8725218207980497 0  1.010292163269536 0.8711964958765317 0  0 0.9375 0  0.06255608601212155 0.9374910942706355 0  0.1251147790185249 0.9374816759740936 0  0.1876788495078479 0.9374711826810849 0  0.2502514461974823 0.9374589414641228 0  0.3128363442886722 0.9374440899366218 0  0.3754382792202198 0.937425462227074 0  0.4380634184369806 0.93740141533
[...]
<PointData  Vectors="f_54"> 
<DataArray  type="Float64"  Name="f_54"  NumberOfComponents="3" format="ascii">0.0000000000000000e+00 0.0000000000000000e+00 0.0000000000000000e+00  0.0000000000000000e+00 0.0000000000000000e+00 0.0000000000000000e+00  0.0000000000000000e+00 0.0000000000000000e+00 0.0000000000000000e+00  0.0000000000000000e+00 0.0000000000000000e+00 0.0000000000000000e+00  0.0000000000000000e+00 0.0000000000000000e+00 0.0000000000000000e+00  0.0000000000000000e+00 0.0000000000000000e+00 0.0000000000000000e+00  0.0000000000000000e+00 0.0000000000000000e+00 0.0000000000000000e+00  0.0000000000000000e+00 0.0000000000000000e+00 0.0000000000000000e+00  0.0000000000000000e+00 0.0000000000000000e+00 0.0000000000000000e+00  0.0000000000000000e+00 0.0000000000000000e+00 0.0000000000000000e+00  0.0000000000000000e+00 0.0000000000000000e+00 0.0000000000000000e+00  0.0000000000000000e+00 0.0000000000000000e+00 0.0000000000000000e+00  0.0000000000000000e+00 0.0000000000000000e+00 0.0000000000000000e+00  0.0000000000000000e+00 0.0000000000000000e+00 0.0000000000000000e+00  0.0000000000000000e+00 0.0000000000000000e+00 0.0000000000000000e+00  0.0000000000000000e+00 0.0000000000000000e+00 0.0000000000000000e+00  0.0000000000000000e+00 0.0000000000000000e+00 0.0000000000000000e+00  0.0000000000000000e+00 0.0000000000000000e+00 0.0000000000000000e+00  3.0901587332456957e-06 -5.6388079690054902e-08 0.0000000000000000e+00  6.2854231311672045e-06 -1.1645822990524904e-07 0.0000000000000000e+00  9.6939798943704405e-06 -1.8421981601358314e-07 0.0000000000000000e+00  1.3428856590657413e-05 -2.6433809455137553e-07 0.0000000000000000e+00  1.7610371314187872e-05 -3.6252722354052427e-07 0.0000000000000000e+00  2.2368697588903600e-05 -4.8602647099454021e-07 0.0000000000000000e+00  2.7846914898667606e-05 -6.4420622814649811e-07 0.0000000000000000e+00  3.4205543310386964e-05 -8.4939416536356918e-07 0.0000000000000000e+00  4.1631136419644063e-05 -1.1181434135120308e-06 0.0000000000000000e+00  5.0355606712483369e-05 -1.4735698519928263e-06 0.0000000000000000e+00  6.0704256107106951e-05 -1.9506829427387152e-06 0.0000000000000000e+00  7.3223939954680212e-05 -2.6110179476678457e-06 0.0000000000000000e+00  8.9049900673602751e-05 -3.5886430278201080e-06 0.0000000000000000e+00  1.1104049185721936e-04 -5.2500478333951331e-06 0.0000000000000000e+00  1.4759461069507331e-04 -8.7971689411769834e-06 0.0000000000000000e+00  2.2672828881769365e-04 -1.8729317077595784e-05 0.0000000000000000e+00  0.0000000000000000e+00 0.0000000000000000e+00 0.0000000000000000e+00  6.0795602828260908e-06 -1.0917635982915775e-07 0.0000000000000000e+00  1.2367624872971130e-05 -2.2542414110897714e-07 0.0000000000000000e+00  1.9078877111507613e-05 -3.5644678943922278e-07 0.0000000000000000e+00  2.6437846275811033e-05 -5.1121860342105278e-07 0.0000000000000000e+00  3.4683784694750272e-05 -7.0074666755486874e-07 0.0000000000000000e+00  4.4075540901414683e-05 -9.3898782740718560e-07 0.0000000000000000e+00  5.4896805816702608e-05 -1.2439868881050322e-06 0.0000000000000000e+00  6.7462805248216765e-05 -1.6393317083589706e-06 0.0000000000000000e+00  8.2131119779500571e-05 -2.1560994664028192e-06 0.0000000000000000e+00  9.9322907205472171e-05 -2.8356598814047808e-06 0.0000000000000000e+00  1.1956852256266230e-04 -3.7340799738772454e-06 0.0000000000000000e+00  1.4360666387513562e-04 -4.9291754511463234e-06 0.0000000000000000e+00  1.7258775773336749e-04 -6.5285350520681929e-06 0.0000000000000000e+00  2.0841369798664755e-04 -8.6523453663925157e-06 0.0000000000000000e+00  2.5384987473001049e-04 -1.1214108357654842e-05 0.0000000000000000e+00  3.0930136328131594e-04 -1.2490990345582382e-05 0.0000000000000000e+00  0.0000000000000000e+00 0.0000000000000000e+00 0.0000000000000000e+00  8.8642195977641944e-06 -1.5496905993245198e-07 0.0000000000000000e+00  1.8036158035435048e-05 -3.1981174964843040e-07 0.0000000000000000e+00  2.7832801908232330e-05 -5.0528970491442075e-07 0.0000000000000000e+00  3.8586250801911682e-05 -7.2396124586097690e-07 0.0000000000000000e+00  5.0651032281834907e-05 -9.9126476835110493e-07 0.0000000000000000e+00  6.4411022230694123e-05 -1.3268215526690448e-06 0.0000000000000000e+00  8.0285949335552614e-05 -1.7560265645372730e-06 0.0000000000000000e+00  9.8737717920529598e-05 -2.3119801320483524e-06 0.0000000000000000e+00  1.2027732692451407e-04 -3.0377724587822720e-06 0.0000000000000000e+00  1.4547402553349568e-04 -3.9890250362221480e-06 0.0000000000000000e+00  1.7496886605130528e-04 -5.2362783305447770e-06 0.0000000000000000e+00  2.0949138009643037e-04 -6.8658429802276444e-06 0.0000000000000000e+00  2.4985683484520118e-04 -8.9749342848348125e-06 0.0000000000000000e+00  2.9683893133487668e-04 -1.1651240579283011e-05 0.0000000000000000e+00  3.5056958665954317e-04 -1.4933980989480045e-05 0.0000000000000000e+00  4.0871344225944679e-04 -1.8938202772836073e-05 0.0000000000000000e+00  0.0000000000000000e+00 0.0000000000000000e+00 0.0000000000000000e+00  1.1344516399250301e-05 -1.9096362146051394e-07 0.0000000000000000e+00  2.3089156572667665e-05 -3.9376531758829574e-07 0.0000000000000000e+00  3.5646410404449747e-05 -6.2131364216031785e-07 0.0000000000000000e+00  4.9449608947655030e-05 -8.8870439154332579e-07 0.0000000000000000e+00  6.4962894484843446e-05 -1.2145600409281110e-06 0.0000000000000000e+00  8.2690329838264946e-05 -1.6226613331901186e-06 0.0000000000000000e+00  1.0318355996752319e-04 -2.1439541521880115e-06 0.0000000000000000e+00  1.2704711058879252e-04 -2.8189673186224331e-06 0.0000000000000000e+00  1.5493980431982360e-04 -3.7005541201742645e-06 0.0000000000000000e+00  1.8756941922486189e-04 -4.8565900921231385e-06 0.0000000000000000e+00  2.2567424179973687e-04 -6.3716686341510809e-06 0.0000000000000000e+00  2.6997604081615000e-04 -8.3456926500292656e-06 0.0000000000000000e+00  3.2106640199575087e-04 -1.0885396940247415e-05 0.0000000000000000e+00  3.7914019525249330e-04 -1.4083139443581746e-05 0.0000000000000000e+00  4.4341861930746241e-04 -1.7980359788885914e-05 0.0000000000000000e+00  5.1111758952710547e-04 -2.2521965249228182e-05 0.0000000000000000e+00  0.0000000000000000e+00 0.0000000000000000e+00 0.0000000000000000e+00  1.3427888367986065e-05 -2.1520062621487425e-07 0.0000000000000000e+00  2.7338637741610577e-05 -4.4318267029327423e-07 0.0000000000000000e+00  4.2230617185602186e-05 -6.9788287110782257e-07 0.0000000000000000e+00  5.8629435123663341e-05 -9.9563167877065194e-07 0.0000000000000000e+00  7.7101059988734133e-05 -1.3566597694006588e-06 0.0000000000000000e+00  9.8263836314337502e-05 -1.8069873998216443e-06 0.0000000000000000e+00  1.2279836148253921e-04 -2.3808293754990367e-06 0.0000000000000000e+00  1.5145340515681233e-04 -3.1236103011897464e-06 0.0000000000000000e+00  1.8504471779491775e-04 -4.0955588586194223e-06 0.0000000000000000e+00  2.2444122590154018e-04 -5.3755403579722458e-06 0.0000000000000000e+00  2.7052888183416696e-04 -7.0641384616442587e-06 0.0000000000000000e+00  3.2413494107245007e-04 -9.2838131946636767e-06 0.0000000000000000e+00  3.8588354365659479e-04 -1.2172138722840289e-05 0.0000000000000000e+00  4.5594079740523614e-04 -1.5861968971628106e-05 0.0000000000000000e+00  5.3361777941303716e-04 -2.0440540950518528e-05 0.0000000000000000e+00  6.1690943120901902e-04 -2.5874958088499107e-05 0.0000000000000000e+00  0.0000000000000000e+00 0.0000000000000000e+00 0.0000000000000000e+00  1.5031734927374952e-05 -2.2674501042712504e-07 0.0000000000000000e+00  3.0616232649417146e-05 -4.6610163300093652e-07 0.0000000000000000e+00  4.7324945425187508e-05 -7.3180121519005152e-07 0.0000000000000000e+00  6.5763704698608346e-05 -1.0399385114870645e-06 0.0000000000000000e+00  8.6589688665323410e-05 -1.4105187743159496e-06 0.0000000000000000e+00  1.1052752864949784e-04 -1.8694851718826364e-06 0.0000000000000000e+00  1.3838338831886082e-04 -2.4514472547691627e-06 0.0000000000000000e+00  1.7105482465280927e-04 -3.2033547691549260e-06 0.0000000000000000e+00  2.0953258651704770e-04 -4.1893268244266325e-06 0.0000000000000000e+00  2.5488793755638206e-04 -5.4966583143284603e-06 0.0000000000000000e+00  3.0823533476152478e-04 -7.2425044482731424e-06 0.0000000000000000e+00  3.7065548121615824e-04 -9.5796051547022865e-06 0.0000000000000000e+00  4.4305959491114719e-04 -1.2697311312995213e-05 0.0000000000000000e+00  5.2597825714533494e-04 -1.6810974840605825e-05 0.0000000000000000e+00  6.1928232048467132e-04 -2.2129298649317561e-05 0.0000000000000000e+00  7.2191152229663942e-04 -2.8789780264511271e-05 0.0000000000000000e+00  0.0000000000000000e+00 0.0000000000000000e+00 0.0000000000000000e+00  1.6086599573327515e-05 -2.2577505771751080e-07 0.0000000000000000e+00  3.2779542605748194e-05 -4.6290192585842315e-07 0.0000000000000000e+00  5.0706988372116076e-05 -7.2367919712526673e-07 0.0000000000000000e+00  7.0539152436950768e-05 -1.0224541597339786e-06 0.0000000000000000e+00  9.3009816174020909e-05 -1.3770346114742209e-06 0.0000000000000000e+00  1.1893786476091044e-04 -1.8106479592771226e-06 0.0000000000000000e+00  1.4924797396570683e-04 -2.3547723798539242e-06 0.0000000000000000e+00  1.8498850398280877e-04 -3.0532974750484841e-06 0.0000000000000000e+00  2.2734295309121362e-04 -3.9686276786549575e-06 0.0000000000000000e+00  2.7762876828438943e-04 -5.1904568659546267e-06 0.0000000000000000e+00  3.3727388144644461e-04 -6.8478366685929116e-06 0.0000000000000000e+00  4.0775766215744088e-04 -9.1244130052764401e-06 0.0000000000000000e+00  4.9050122675030024e-04 -1.2274480425401604e-05 0.0000000000000000e+00  5.8669708007419430e-04 -1.6632451818355589e-05 0.0000000000000000e+00  6.9708688737135812e-04 -2.2598936806235212e-05 0.0000000000000000e+00  8.2172926830093799e-04 -3.0572197428689816e-05 0.0000000000000000e+00  0.0000000000000000e+00 0.0000000000000000e+00 0.0000000000000000e+00  1.6539630435435466e-05 -2.1355602819485943e-07 0.0000000000000000e+00  3.3719180056337739e-05 -4.3627150055110268e-07 0.0000000000000000e+00  5.2203237990060203e-05 -6.7794012254586886e-07 0.0000000000000000e+00  7.2706099140955338e-05 -9.4978358559409902e-07 0.0000000000000000e+00  9.6018234388843811e-05 -1.2655071657336763e-06 0.0000000000000000e+00  1.2303435139250917e-04 -1.6428814922175724e-06 0.0000000000000000e+00  1.5478290744353715e-04 -2.1062466400626186e-06 0.0000000000000000e+00  1.9245604520894184e-04 -2.6905954541016566e-06 0.0000000000000000e+00  2.3743737745655577e-04 -3.4483100614290150e-06 0.0000000000000000e+00  2.9132255666676878e-04 -4.4602374430669000e-06 0.0000000000000000e+00  3.5592394916068577e-04 -5.8535432961795162e-06 0.0000000000000000e+00  4.3324635463021905e-04 -7.8293057706060844e-06 0.0000000000000000e+00  5.2541737032277323e-04 -1.0701895980885791e-05 0.0000000000000000e+00  6.3455810319731692e-04 -1.4946937296248935e-05 0.0000000000000000e+00  7.6259404806643225e-04 -2.1239880813276955e-05 0.0000000000000000e+00  9.1103230364625288e-04 -3.0437979523715516e-05 0.0000000000000000e+00  0.0000000000000000e+00 0.0000000000000000e+00 0.0000000000000000e+00  1.6358193580230088e-05 -1.9228027149483469e-07 0.0000000000000000e+00  3.3366279152963019e-05 -3.9089167627549717e-07 0.0000000000000000e+00  5.1701059377833195e-05 -6.0237105131741518e-07 0.0000000000000000e+00  7.2095734067644757e-05 -8.3378950118605290e-07 0.0000000000000000e+00  9.5371179030951324e-05 -1.0932184511777754e-06 0.0000000000000000e+00  1.2247092632515749e-04 -1.3905548127163936e-06 0.0000000000000000e+00  1.5450089031373521e-04 -1.7390730227532820e-06 0.0000000000000000e+00  1.9277442771846641e-04 -2.1584185615643283e-06 0.0000000000000000e+00  2.3886226622032560e-04 -2.6804113082081653e-06 0.0000000000000000e+00  2.9464469274488462e-04 -3.3602165459688035e-06 0.0000000000000000e+00  3.6235948608207393e-04 -4.2974804647528533e-06 0.0000000000000000e+00  4.4463283012899265e-04 -5.6751372346299827e-06 0.0000000000000000e+00  5.4447242496117015e-04 -7.8271452274082257e-06 0.0000000000000000e+00  6.6519671512268314e-04 -1.1346691171612703e-05 0.0000000000000000e+00  8.1028489253707190e-04 -1.7232339997038251e-05 0.0000000000000000e+00  9.8318211579168134e-04 -2.7022369273053501e-05 0.0000000000000000e+00  0.0000000000000000e+00 0.0000000000000000e+00 0.0000000000000000e+00  1.5533355837968685e-05 -1.6476976211114430e-07 0.0000000000000000e+00  3.1699908476439295e-05 -3.3282133078955122e-07 0.0000000000000000e+00  4.9160962314538883e-05 -5.0715494444019543e-07 0.0000000000000000e+00  6.8638744813082319e-05 -6.9025036680366807e-07 0.0000000000000000e+00  9.0951513081167671e-05 -8.8376282975574435e-07 0.0000000000000000e+00  1.1705472573388726e-04 -1.0882405061617454e-06 0.0000000000000000e+00  1.4809085396775805e-04 -1.3030442616557985e-06 0.0000000000000000e+00  1.8545072116946600e-04 -1.5269555976999477e-06 0.0000000000000000e+00  2.3084926307047240e-04 -1.7606444832645422e-06 0.0000000000000000e+00  2.8641765407154174e-04 -2.0136732922896124e-06 0.0000000000000000e+00  3.5481057378931164e-04 -2.3219234175853568e-06 0.0000000000000000e+00  4.3931980347560514e-04 -2.7878832466484609e-06 0.0000000000000000e+00  5.4397068597320517e-04 -3.6684638346288733e-06 0.0000000000000000e+00  6.7355683200182113e-04 -5.5532687736940604e-06 0.0000000000000000e+00  8.3355883493236086e-04 -9.6856113836374960e-06 0.0000000000000000e+00  1.0299665348470501e-03 -1.8411107646142702e-05 0.0000000000000000e+00  0.0000000000000000e+00 0.0000000000000000e+00 0.0000000000000000e+00  1.4082800606811957e-05 -1.3406236388079199e-07 0.0000000000000000e+00  2.8753467046040098e-05 -2.6861406032696025e-07 0.0000000000000000e+00  4.4627678209388042e-05 -4.0340649129007476e-07 0.0000000000000000e+00  6.2383101851248832e-05 -5.3664926810785119e-07 0.0000000000000000e+00  8.2796366886541734e-05 -6.6389329416220208e-07 0.0000000000000000e+00  1.0678824131973398e-04 -7.7647320947513626e-07 0.0000000000000000e+00  1.3548122593878690e-04 -8.5934004845633019e-07 0.0000000000000000e+00  1.7027519600781564e-04 -8.8818611977476406e-07 0.0000000000000000e+00  2.1294852649713782e-04 -8.2608115984093618e-07 0.0000000000000000e+00  2.6579391632036887e-04 -6.2086267118418453e-07 0.0000000000000000e+00  3.3179852259876142e-04 -2.0748673696491461e-07 0.0000000000000000e+00  4.1487345993478352e-04 4.7230610140787179e-07 0.0000000000000000e+00  5.2012038324286951e-04 1.3991266091198238e-06 0.0000000000000000e+00  6.5407933942644844e-04 2.2669159178054757e-06 0.0000000000000000e+00  8.2482296965520261e-04 1.9413917042897566e-06 0.0000000000000000e+00  1.0416981623995014e-03 -2.6870403261562507e-06 0.0000000000000000e+00  0.0000000000000000e+00 0.0000000000000000e+00 0.0000000000000000e+00  1.2052634117702248e-05 -1.0293687903927177e-07 0.0000000000000000e+00  2.4618886257781387e-05 -2.0427946211355833e-07 0.0000000000000000e+00  3.8238039968281779e-05 -3.0137578329444265e-07 0.0000000000000000e+00  5.3507872705388303e-05 -3.8928837677793237e-07 0.0000000000000000e+00  7.1120590301243809e-05 -4.5903058221531217e-07 0.0000000000000000e+00  9.1908274472632775e-05 -4.9490833408152954e-07 0.0000000000000000e+00  1.1690336878094854e-04 -4.7038041721743334e-07 0.0000000000000000e+00  1.4742238125075143e-04 -3.4153266845119328e-07 0.0000000000000000e+00  1.8518513823264623e-04 -3.6794608542488426e-08 0.0000000000000000e+00  2.3248812054122033e-04 5.5902723779650561e-07 0.0000000000000000e+00  2.9245877169629307e-04 1.6284509215945145e-06 0.0000000000000000e+00  3.6942624051995894e-04 3.4520768926965541e-06 0.0000000000000000e+00  4.6944391397572632e-04 6.4299369064405205e-06 0.0000000000000000e+00  6.0096204931914970e-04 1.1006652757154557e-05 0.0000000000000000e+00  7.7550783829949063e-04 1.7128305304855534e-05 0.0000000000000000e+00  1.0080885861405322e-03 2.1930491431613311e-05 0.0000000000000000e+00  0.0000000000000000e+00 0.0000000000000000e+00 0.0000000000000000e+00  9.5175240691970494e-06 -7.3464566632962433e-08 0.0000000000000000e+00  1.9447390539409014e-05 -1.4428003821396483e-07 0.0000000000000000e+00  3.0223448529115858e-05 -2.0864797289711746e-07 0.0000000000000000e+00  4.2329408363520449e-05 -2.6024105390155165e-07 0.0000000000000000e+00  5.6330204498174766e-05 -2.8817734434522393e-07 0.0000000000000000e+00  7.2912755401232095e-05 -2.7384001433285104e-07 0.0000000000000000e+00  9.2942085684322097e-05 -1.8565755083930151e-07 0.0000000000000000e+00  1.1754228998894652e-04 2.9710983101451229e-08 0.0000000000000000e+00  1.4821799369605829e-04 4.6262524858857924e-07 0.0000000000000000e+00  1.8704287056958189e-04 1.2675168872125910e-06 0.0000000000000000e+00  2.3696103872195785e-04 2.7122813013311273e-06 0.0000000000000000e+00  3.0228054520199752e-04 5.2714197469202694e-06 0.0000000000000000e+00  3.8949204007203935e-04 9.8068761791275599e-06 0.0000000000000000e+00  5.0860956261247119e-04 1.7915690682816364e-05 0.0000000000000000e+00  6.7511787008711578e-04 3.2441252551957866e-05 0.0000000000000000e+00  9.0995768204722911e-04 5.6047487341445852e-05 0.0000000000000000e+00  0.0000000000000000e+00 0.0000000000000000e+00 0.0000000000000000e+00  6.5787215971674149e-06 -4.6691673043582655e-08 0.0000000000000000e+00  1.3445772479318548e-05 -9.0803503493550025e-08 0.0000000000000000e+00  2.0904960797571808e-05 -1.2878469938344368e-07 0.0000000000000000e+00  2.9296419774351708e-05 -1.5492524861770022e-07 0.0000000000000000e+00  3.9019836693716413e-05 -1.5958662302709459e-07 0.0000000000000000e+00  5.0565221868420169e-05 -1.2635933839498185e-07 0.0000000000000000e+00  6.4556300223121195e-05 -2.7267540760878088e-08 0.0000000000000000e+00  8.1815003730842406e-05 1.8559868876156648e-07 0.0000000000000000e+00  1.0346196181713119e-04 5.9513734833846863e-07 0.0000000000000000e+00  1.3108042183006537e-04 1.3472433631731918e-06 0.0000000000000000e+00  1.6699653731875889e-04 2.7051654377490179e-06 0.0000000000000000e+00  2.1478359179797769e-04 5.1615276406794508e-06 0.0000000000000000e+00  2.8022445105029226e-04 9.6925818884526405e-06 0.0000000000000000e+00  3.7331297548808397e-04 1.8437404747752746e-05 0.0000000000000000e+00  5.1320154435619252e-04 3.7042906183377070e-05 0.0000000000000000e+00  7.4647433863562075e-04 8.6304702556001947e-05 0.0000000000000000e+00  0.0000000000000000e+00 0.0000000000000000e+00 0.0000000000000000e+00  3.3597627457761277e-06 -2.2544440240218155e-08 0.0000000000000000e+00  6.8676550904313920e-06 -4.3529214624942431e-08 0.0000000000000000e+00  1.0679865947804945e-05 -6.0840978411301486e-08 0.0000000000000000e+00  1.4971637186095631e-05 -7.1128444678033525e-08 0.0000000000000000e+00  1.9949550084544824e-05 -6.8776848265442999e-08 0.0000000000000000e+00  2.5867959880911942e-05 -4.4243398388340541e-08 0.0000000000000000e+00  3.3052461472009173e-05 1.8781092391962952e-08 0.0000000000000000e+00  4.1935317228406586e-05 1.4837253831667279e-07 0.0000000000000000e+00  5.3111788380552763e-05 3.9341155337094929e-07 0.0000000000000000e+00  6.7434484904233295e-05 8.4024413890956160e-07 0.0000000000000000e+00  8.6180188233844817e-05 1.6435946607887883e-06 0.0000000000000000e+00  1.1136108567837628e-04 3.0821715659233324e-06 0.0000000000000000e+00  1.4632831752616542e-04 5.6436326704723985e-06 0.0000000000000000e+00  1.9690636782506102e-04 1.0055376260360209e-05 0.0000000000000000e+00  2.7281140230818842e-04 1.6592076483148004e-05 0.0000000000000000e+00  3.8337896728796086e-04 2.0392824940420286e-05 0.0000000000000000e+00  0.0000000000000000e+00 0.0000000000000000e+00 0.0000000000000000e+00  0.0000000000000000e+00 0.0000000000000000e+00 0.0000000000000000e+00  0.0000000000000000e+00 0.0000000000000000e+00 0.0000000000000000e+00  0.0000000000000000e+00 0.0000000000000000e+00 0.0000000000000000e+00  0.0000000000000000e+00 0.0000000000000000e+00 0.0000000000000000e+00  0.0000000000000000e+00 0.0000000000000000e+00 0.0000000000000000e+00  0.0000000000000000e+00 0.0000000000000000e+00 0.0000000000000000e+00  0.0000000000000000e+00 0.0000000000000000e+00 0.0000000000000000e+00  0.0000000000000000e+00 0.0000000000000000e+00 0.0000000000000000e+00  0.0000000000000000e+0