<?xml version="1.0"?>
<VTKFile type="UnstructuredGrid"  version="0.1"  >
<UnstructuredGrid>
<Piece  NumberOfPoints="289" NumberOfCells="512">
<Points>
<DataArray  type="Float64"  NumberOfComponents="3"  format="ascii">0 0 0  0.0625 0 0  0.125 0 0  0.1875 0 0  0.25 0 0  0.3125 0 0  0.375 0 0  0.4375 0 0  0.5 0 0  0.5625 0 0  0.625 0 0  0.6875 0 0  0.75 0 0  0.8125 0 0  0.875 0 0  0.9375 0 0  1 0 0  0 0.0625 0  0.06249594924945116 0.06249636164139986 0  0.1249917045344959 0.06249267074248461 0  0.1874870590938646 0.06248888265287561 0  0.2499817802259469 0.06248496980208346 0  0.3124755933982318 0.06248093242821076 0  0.3749681622069235 0.06247681156342191 0  0.4374590612406746 0.06247270417657586 0  0.4999477360504364 0.06246877917973097 0  0.5624334371755285 0.0624652909452733 0  0.624915095672483 0.06246258397132775 0  0.687391051560017 0.06246107978094349 0  0.7498583716590624 0.0624612437766841 0  0.8123108896228299 0.06246358900891708 0  0.8747327816786181 0.06246909941482034 0  0.9370746433590178 0.06248218117472907 0  0.9991535301293936 0.06252872278552012 0  0 0.125 0  0.06249206886398591 0.1249927767860233 0  0.1249837637468153 0.124985440438921 0  0.1874746875968269 0.1249778926811147 0  0.2499643970340133 0.124970067628482 0  0.3124523752622186 0.1249619526970361 0  0.3749379998578518 0.1249536146319801 0  0.4374205026771196 0.124945231033757 0  0.4998989171361786 0.1249371256854397 0  0.5623720031526058 0.1249298020398006 0  0.6248381275858325 0.1249239621932793 0  0.6872950471087426 0.1249204866562169 0  0.7497394664235446 0.1249203289645461 0  0.8121660888842299 0.1249242307639325 0  0.8745657171928041 0.124931981003038 0  0.9369232511379457 0.1249399342991318 0  0.9992315050948642 0.1249289721282358 0  0 0.1875 0  0.06248854484392089 0.1874893061918118 0  0.1249765593982403 0.1874784234683674 0  0.1874634829622309 0.1874671828048238 0  0.2499486942558232 0.1874554591167434 0  0.312431477821498 0.1874432009604644 0  0.3749109869018761 0.1874304692212354 0  0.4373862024200304 0.1874174867326434 0  0.4998558884902432 0.1874046986737808 0  0.5623185459057434 0.1873928391053225 0  0.62477236608831 0.1873829902471476 0  0.6872151891522151 0.1873766049039519 0  0.7496444751178125 0.1873754329076591 0  0.8120573349348764 0.1873812364138172 0  0.874450879126646 0.1873950662815709 0  0.9368240819239284 0.1874156892299633 0  0.9991851934866495 0.1874372390767563 0  0 0.25 0  0.06248554095505161 0.249986025788127 0  0.124970425967906 0.2499717665166448 0  0.1874539640623807 0.2499569589718291 0  0.2499353947780904 0.24994138924113 0  0.3124138515177929 0.249924928423283 0  0.3748883240444831 0.2499075820640897 0  0.437357622627745 0.249889558113628 0  0.4998203496706144 0.2498713572683441 0  0.5622748900832151 0.2498538865243883 0  0.6247194401299269 0.2498385896122541 0  0.6871521072787536 0.2498275735499549 0  0.749571133719476 0.2498236845368431 0  0.811975334643402 0.2498304451630816 0  0.8743649388205211 0.2498517162386132 0  0.9367432689159403 0.2498909601849377 0  0.9991200489587231 0.2499503521536105 0  0 0.3125 0  0.06248318903648073 0.3124830318537842 0  0.1249656314942624 0.3124656600986402 0  0.1874465432879737 0.3124475006435926 0  0.2499250658413798 0.3124282151796756 0  0.3124002282143598 0.3124075481300985 0  0.3748709107096416 0.3123853821209079 0  0.4373358147024594 0.3123618205903811 0  0.4997934483431021 0.312337307617865 0  0.5622421452707468 0.3123127955337027 0  0.6246801437330888 0.3122899684593673 0  0.6871057654878333 0.312271521135101 0  0.7495177447746056 0.3122614717396044 0  0.8119157657050975 0.312265448611417 0  0.8743012844899827 0.3122908338861338 0  0.936678797625363 0.3123465988124579 0  0.9990579687526469 0.3124426941542735 0  0 0.375 0  0.06248158199280827 0.3749804430564772 0  0.124962364060141 0.3749603438608803 0  0.1874415078430638 0.3749391720525698 0  0.2499180980296675 0.3749164282011868 0  0.3123911037647529 0.3748916749540648 0  0.3748593426419537 0.374864590067902 0  0.4373214533598836 0.3748350538752499 0  0.4997758891679824 0.3748032885826879 0  0.5622209532366147 0.374770072745773 0  0.6246549085848446 0.3747370599918562 0  0.6870762060597402 0.3747072328214408 0  0.7494838765535466 0.3746855115262982 0  0.811878117550666 0.3746794982339625 0  0.8742610670415265 0.3747002404639951 0  0.9366377302562922 0.3747627186282495 0  0.9990170594954859 0.3748854906331968 0  0 0.4375 0  0.06248076976205056 0.4374783981260139 0  0.1249607241784023 0.4374561029617211 0  0.1874390096936681 0.4374324197375956 0  0.2499146951396292 0.4374066570733571 0  0.3123867322063042 0.4373781433506471 0  0.3748539179338451 0.4373462649736223 0  0.4373148657955832 0.4373105417220097 0  0.4997679994536664 0.4372707629812682 0  0.5622115954585752 0.4372272214467261 0  0.6246439184749076 0.4371810984623468 0  0.6870635118486308 0.437135075545443 0  0.7494697156522613 0.4370942607786283 0  0.811863457511356 0.4370675006894323 0  0.8742482593036227 0.4370690404367797 0  0.9366311991980746 0.4371202012186089 0  0.9990233137186008 0.4372501784615119 0  0 0.5 0  0.06248075841117055 0.4999770481313928 0  0.1249607231513353 0.4999532530826793 0  0.1874390636566418 0.4999277516400217 0  0.249914872982912 0.4998996445180797 0  0.3123871270679349 0.4998679882958056 0  0.3748546435429382 0.4998318040059826 0  0.4373160460522004 0.4997901171956226 0  0.4997697494556678 0.4997420556780474 0  0.5622139993170298 0.4996870505434523 0  0.6246470303786933 0.499625217491195 0  0.6870674554402718 0.4995580434699713 0  0.7494750469050537 0.4994895671949335 0  0.8118720787866146 0.4994282996929078 0  0.8742652331209828 0.4993901014493101 0  0.936667543760951 0.4994019089169868 0  0.999098893489177 0.4995052247190964 0  0 0.5625 0  0.06248151242908886 0.5624765429155169 0  0.1249622874741844 0.562452112735305 0  0.18744155354843 0.5624256945064522 0  0.2499184666864885 0.5623961896176252 0  0.3123920689748022 0.5623623751585948 0  0.3748612420812599 0.5623228684174822 0  0.4373246592904769 0.5622761062395533 0  0.4997807499766098 0.5622203604073743 0  0.5622277151984444 0.5621538322965769 0  0.62466368597533 0.5620749118964173 0  0.6870872165228733 0.561982763259847 0  0.7494984653355391 0.561878532815386 0  0.8119015875501928 0.5617676864268307 0  0.8743087905234721 0.561664221098453 0  0.9367455271599793 0.5615974771760653 0  0.999253472607368 0.5616211252290851 0  0 0.625 0  0.06248296015209995 0.6249770122645129 0  0.1249652692551728 0.6249529636624068 0  0.1874462465865805 0.624926729723231 0  0.2499251471482371 0.6248970537556676 0  0.3124011209966449 0.6248624699303766 0  0.3748731617778853 0.6248212144402584 0  0.4373400424030974 0.6247711240102551 0  0.4998002439907697 0.6247095278457409 0  0.5622519105808527 0.6246331556589505 0  0.6246929337204753 0.6245381228462118 0  0.6871214429784607 0.6244201407584921 0  0.7495373410282694 0.6242752915956791 0  0.8119461472810732 0.6241021122421939 0  0.8743670648409343 0.623906500996712 0  0.9368464357792441 0.6237120151068791 0  0.9994717128784799 0.6235777749632814 0  0 0.6875 0  0.06248500199327366 0.6874785437603272 0  0.1249694622563992 0.6874560031520948 0  0.1874528160730866 0.687431212939688 0  0.249934447723698 0.6874028359569471 0  0.3124136542739229 0.6873692535054823 0  0.3748895929916951 0.6873284244455895 0  0.4373612021685923 0.687277697927368 0  0.4998270848988167 0.6872135618758043 0  0.562285359211087 0.687131309420271 0  0.6247335408958201 0.6870246170312924 0  0.687168733582924 0.6868850762302877 0  0.7495889887412701 0.6867018779448193 0  0.811998138919977 0.6864623229558564 0  0.874419248388192 0.6861551879144902 0  0.9369248565824084 0.6857824400795324 0  0.9996857619832901 0.6853902406896836 0  0 0.75 0  0.06248752075540223 0.7499811607089505 0  0.1249746225040614 0.7499612954231013 0  0.1874608717874567 0.7499392890839057 0  0.2499458022613356 0.7499138344180432 0  0.3124288879054943 0.7498833021065727 0  0.3749094976158784 0.7498455634336106 0  0.4373868130489196 0.7497977363455687 0  0.4998596776736225 0.7497358110425445 0  0.5623263276614484 0.7496540877293127 0  0.6247839551262532 0.7495443232276308 0  0.6872281640265907 0.7493944334142979 0  0.7496529368499982 0.7491865549064691 0  0.8120538192146453 0.7488943690799854 0  0.8744436019802596 0.7484805440057419 0  0.9369059379691607 0.7479003804266777 0  0.9997224955755128 0.7471434164827939 0  0 0.8125 0  0.06249039285385505 0.8124848046031801 0  0.1249804915493033 0.8124687318951735 0  0.1874699964815986 0.8124508198694986 0  0.2499585952386884 0.8124299218219745 0  0.3124459495207318 0.8124045766380437 0  0.3749316671846923 0.812372824671443 0  0.4374152388843066 0.812331932239327 0  0.4998958931275897 0.8122779643406796 0  0.5623722691907279 0.8122051031844932 0  0.6248416999811347 0.8121045322754602 0  0.6872987208101283 0.8119625536500638 0  0.7497323040697106 0.8117572872060632 0  0.8121222513909456 0.8114525938685766 0  0.8744423411406177 0.8109863208988011 0  0.9367156657058864 0.8102475606269177 0  0.9993476006470627 0.8090446839492116 0  0 0.875 0  0.06249349886692623 0.8749893267523861 0  0.1249868194745698 0.8749780108888091 0  0.1874797851510885 0.8749653431852971 0  0.2499722227354402 0.8749504681460638 0  0.3124639632315904 0.874932278607588 0  0.3749548364958752 0.8749092624860126 0  0.4374446458090381 0.8748792674087601 0  0.4999330828244561 0.8748391255887499 0  0.5624194759709988 0.8747840386694369 0  0.6249020861763113 0.8747065426512919 0  0.687376190729129 0.8745947157791395 0  0.7498289803232866 0.8744289439141306 0  0.8122263930727716 0.8741756244658084 0  0.8744814943534359 0.8737731040726022 0  0.9363936519672081 0.8730933372343269 0  0.9976571090948763 0.8718096574823744 0  0 0.9375 0  0.06249673160186272 0.9374944926147935 0  0.1249933837987389 0.9374886451065564 0  0.187489881106373 0.9374820806062557 0  0.2499861572507708 0.9374743412185003 0  0.3124821622998768 0.9374648287570642 0  0.3749778716564131 0.9374527173935828 0  0.4374732934364505 0.9374368
[...]
<PointData  Vectors="f_54"> 
<DataArray  type="Float64"  Name="f_54"  NumberOfComponents="3" format="ascii">0.0000000000000000e+00 0.0000000000000000e+00 0.0000000000000000e+00  0.0000000000000000e+00 0.0000000000000000e+00 0.0000000000000000e+00  0.0000000000000000e+00 0.0000000000000000e+00 0.0000000000000000e+00  0.0000000000000000e+00 0.0000000000000000e+00 0.0000000000000000e+00  0.0000000000000000e+00 0.0000000000000000e+00 0.0000000000000000e+00  0.0000000000000000e+00 0.0000000000000000e+00 0.0000000000000000e+00  0.0000000000000000e+00 0.0000000000000000e+00 0.0000000000000000e+00  0.0000000000000000e+00 0.0000000000000000e+00 0.0000000000000000e+00  0.0000000000000000e+00 0.0000000000000000e+00 0.0000000000000000e+00  0.0000000000000000e+00 0.0000000000000000e+00 0.0000000000000000e+00  0.0000000000000000e+00 0.0000000000000000e+00 0.0000000000000000e+00  0.0000000000000000e+00 0.0000000000000000e+00 0.0000000000000000e+00  0.0000000000000000e+00 0.0000000000000000e+00 0.0000000000000000e+00  0.0000000000000000e+00 0.0000000000000000e+00 0.0000000000000000e+00  0.0000000000000000e+00 0.0000000000000000e+00 0.0000000000000000e+00  0.0000000000000000e+00 0.0000000000000000e+00 0.0000000000000000e+00  0.0000000000000000e+00 0.0000000000000000e+00 0.0000000000000000e+00  0.0000000000000000e+00 0.0000000000000000e+00 0.0000000000000000e+00  4.2323706852629510e-06 -3.4696393704992455e-08 0.0000000000000000e+00  8.5914706792492715e-06 -7.1064762536564791e-08 0.0000000000000000e+00  1.3204861581553795e-05 -1.1088794442528798e-07 0.0000000000000000e+00  1.8200473977524559e-05 -1.5617322622889279e-07 0.0000000000000000e+00  2.3705817723686159e-05 -2.0929175900039492e-07 0.0000000000000000e+00  2.9846013887603695e-05 -2.7315858557900938e-07 0.0000000000000000e+00  3.6740364114527318e-05 -3.5148711206281928e-07 0.0000000000000000e+00  4.4497490061700466e-05 -4.4918901981262785e-07 0.0000000000000000e+00  5.3209948382315265e-05 -5.7308524737513990e-07 0.0000000000000000e+00  6.2951543502863782e-05 -7.3335058031904091e-07 0.0000000000000000e+00  7.3786912592606750e-05 -9.4687182126225828e-07 0.0000000000000000e+00  8.5821675600021799e-05 -1.2461574793459052e-06 0.0000000000000000e+00  9.9381664610171885e-05 -1.7062301484648127e-06 0.0000000000000000e+00  1.1562072336379234e-04 -2.5362063899272353e-06 0.0000000000000000e+00  1.3864883589368904e-04 -4.4245669553358279e-06 0.0000000000000000e+00  1.8333840554325123e-04 -9.9293967415633363e-06 0.0000000000000000e+00  0.0000000000000000e+00 0.0000000000000000e+00 0.0000000000000000e+00  8.3369743961247907e-06 -6.7712313716864327e-08 0.0000000000000000e+00  1.6926975294658995e-05 -1.3866075702072461e-07 0.0000000000000000e+00  2.6025031826996163e-05 -2.1629259359343774e-07 0.0000000000000000e+00  3.5887689064842583e-05 -3.0448156799109600e-07 0.0000000000000000e+00  4.6771799667596541e-05 -4.0778786281482786e-07 0.0000000000000000e+00  5.8930860630939968e-05 -5.3178384712050557e-07 0.0000000000000000e+00  7.2608108206839112e-05 -6.8349125485799528e-07 0.0000000000000000e+00  8.8025882216040535e-05 -8.7201409401739166e-07 0.0000000000000000e+00  1.0537163005267395e-04 -1.1095358721372818e-06 0.0000000000000000e+00  1.2478296466702550e-04 -1.4130251128616857e-06 0.0000000000000000e+00  1.4633857077031551e-04 -1.8073086355441970e-06 0.0000000000000000e+00  1.7007007862930302e-04 -2.3304580415145743e-06 0.0000000000000000e+00  1.9602107877921489e-04 -3.0408605151471411e-06 0.0000000000000000e+00  2.2436500934483388e-04 -4.0103139567254081e-06 0.0000000000000000e+00  2.5535618620428288e-04 -5.1944448097199551e-06 0.0000000000000000e+00  2.8729240741237649e-04 -5.5583704413140695e-06 0.0000000000000000e+00  0.0000000000000000e+00 0.0000000000000000e+00 0.0000000000000000e+00  1.2187106909648093e-05 -9.7480503141532464e-08 0.0000000000000000e+00  2.4752361971445303e-05 -1.9955655985083870e-07 0.0000000000000000e+00  3.8077773436480499e-05 -3.1111660949399123e-07 0.0000000000000000e+00  5.2549607838594752e-05 -4.3763967127988252e-07 0.0000000000000000e+00  6.8557598285778532e-05 -5.8554747381745487e-07 0.0000000000000000e+00  8.6490366755030690e-05 -7.6262996172512443e-07 0.0000000000000000e+00  1.0672553256567455e-04 -9.7858043469779718e-07 0.0000000000000000e+00  1.2961294264648353e-04 -1.2456922812796071e-06 0.0000000000000000e+00  1.5544968605737077e-04 -1.5797977695673119e-06 0.0000000000000000e+00  1.8444618425625275e-04 -2.0015742614541377e-06 0.0000000000000000e+00  2.1668346101880927e-04 -2.5383861582194795e-06 0.0000000000000000e+00  2.5206085928531204e-04 -3.2267744458578772e-06 0.0000000000000000e+00  2.9022356201116833e-04 -4.1153707577971716e-06 0.0000000000000000e+00  3.3041700204248332e-04 -5.2685118574538942e-06 0.0000000000000000e+00  3.7108873303739223e-04 -6.7877281838788116e-06 0.0000000000000000e+00  4.0885958402232927e-04 -9.0254832730523822e-06 0.0000000000000000e+00  0.0000000000000000e+00 0.0000000000000000e+00 0.0000000000000000e+00  1.5657341797978307e-05 -1.2263958859864629e-07 0.0000000000000000e+00  3.1815246775272112e-05 -2.5094990171848793e-07 0.0000000000000000e+00  4.8981008546924423e-05 -3.9095300542733621e-07 0.0000000000000000e+00  6.7671309085676619e-05 -5.4938001921571243e-07 0.0000000000000000e+00  8.8413222042151547e-05 -7.3408729891440327e-07 0.0000000000000000e+00  1.1174024685284697e-04 -9.5454523467429022e-07 0.0000000000000000e+00  1.3818100358051308e-04 -1.2224191598235692e-06 0.0000000000000000e+00  1.6823769508026069e-04 -1.5522492816102242e-06 0.0000000000000000e+00  2.0235090475156415e-04 -1.9622057677066498e-06 0.0000000000000000e+00  2.4084673591203128e-04 -2.4748280265175035e-06 0.0000000000000000e+00  2.8386137341344188e-04 -3.1175247793208307e-06 0.0000000000000000e+00  3.3123555304825333e-04 -3.9223899454540801e-06 0.0000000000000000e+00  3.8236381270840940e-04 -4.9246727856857506e-06 0.0000000000000000e+00  4.3596533456070246e-04 -6.1596430842018059e-06 0.0000000000000000e+00  4.8971635543630437e-04 -7.6599052557857063e-06 0.0000000000000000e+00  5.3969996817778885e-04 -9.4493341641459177e-06 0.0000000000000000e+00  0.0000000000000000e+00 0.0000000000000000e+00 0.0000000000000000e+00  1.8625099535419981e-05 -1.4211398053602919e-07 0.0000000000000000e+00  3.7867781494078369e-05 -2.9063186501318014e-07 0.0000000000000000e+00  5.8356491729881966e-05 -4.5234132444698439e-07 0.0000000000000000e+00  8.0737228874231941e-05 -6.3480852157690169e-07 0.0000000000000000e+00  1.0567826081271509e-04 -8.4683452024604492e-07 0.0000000000000000e+00  1.3386914289393163e-04 -1.0989877442445549e-06 0.0000000000000000e+00  1.6601090890797771e-04 -1.4042236479530857e-06 0.0000000000000000e+00  2.0279324048947883e-04 -1.7785717781905855e-06 0.0000000000000000e+00  2.4485313216182018e-04 -2.2417986488850398e-06 0.0000000000000000e+00  2.9270815648860569e-04 -2.8178050004956086e-06 0.0000000000000000e+00  3.4665606110041215e-04 -3.5342319458132127e-06 0.0000000000000000e+00  4.0663137351276717e-04 -4.4202682262253044e-06 0.0000000000000000e+00  4.7200975067256568e-04 -5.5009330842298918e-06 0.0000000000000000e+00  5.4135535682999457e-04 -6.7851092005946578e-06 0.0000000000000000e+00  6.1212849932990412e-04 -8.2424480759932114e-06 0.0000000000000000e+00  6.8044845791421702e-04 -9.7551098572856717e-06 0.0000000000000000e+00  0.0000000000000000e+00 0.0000000000000000e+00 0.0000000000000000e+00  2.0973366165792407e-05 -1.5517177428102741e-07 0.0000000000000000e+00  4.2671805469335332e-05 -3.1710525386958001e-07 0.0000000000000000e+00  6.5836747913377780e-05 -4.9294988433303639e-07 0.0000000000000000e+00  9.1238697141518744e-05 -6.9064975040178103e-07 0.0000000000000000e+00  1.1968798663922790e-04 -9.1941731042031929e-07 0.0000000000000000e+00  1.5203991592251879e-04 -1.1902982717955637e-06 0.0000000000000000e+00  1.8919065502915323e-04 -1.5168498194795107e-06 0.0000000000000000e+00  2.3205866254444489e-04 -1.9159265583582070e-06 0.0000000000000000e+00  2.8154423455973107e-04 -2.4084933221956380e-06 0.0000000000000000e+00  3.3845737943047469e-04 -3.0202079076130243e-06 0.0000000000000000e+00  4.0340210162708438e-04 -3.7811454907699095e-06 0.0000000000000000e+00  4.7660480344640196e-04 -4.7233303678913420e-06 0.0000000000000000e+00  5.5767877700658519e-04 -5.8735655279963445e-06 0.0000000000000000e+00  6.4533093850437356e-04 -7.2375121923827504e-06 0.0000000000000000e+00  7.3704925914976419e-04 -8.7702374263071481e-06 0.0000000000000000e+00  8.2886778136979271e-04 -1.0333884180733115e-05 0.0000000000000000e+00  0.0000000000000000e+00 0.0000000000000000e+00 0.0000000000000000e+00  2.2594842605077980e-05 -1.6145804188900283e-07 0.0000000000000000e+00  4.6007026229550218e-05 -3.2965369120230634e-07 0.0000000000000000e+00  7.1076962573775904e-05 -5.1168493710265330e-07 0.0000000000000000e+00  9.8688806647014241e-05 -7.1539950020650817e-07 0.0000000000000000e+00  1.2978970799801186e-04 -9.4985576535345049e-07 0.0000000000000000e+00  1.6540468262000532e-04 -1.2258978266253542e-06 0.0000000000000000e+00  2.0664351351307297e-04 -1.5568979371681400e-06 0.0000000000000000e+00  2.5469387312016342e-04 -1.9597223830562769e-06 0.0000000000000000e+00  3.1079172125756527e-04 -2.4559519108526798e-06 0.0000000000000000e+00  3.7615601546395541e-04 -3.0732804253228584e-06 0.0000000000000000e+00  4.5187050573298185e-04 -3.8466980695757245e-06 0.0000000000000000e+00  5.3869275981532807e-04 -4.8182711702249257e-06 0.0000000000000000e+00  6.3677362213641453e-04 -6.0325936418965164e-06 0.0000000000000000e+00  7.4528560271354340e-04 -7.5217250046639891e-06 0.0000000000000000e+00  8.6199265795762481e-04 -9.2686666781676781e-06 0.0000000000000000e+00  9.8284262644665848e-04 -1.1134625767512730e-05 0.0000000000000000e+00  0.0000000000000000e+00 0.0000000000000000e+00 0.0000000000000000e+00  2.3397636250402820e-05 -1.6100099085059344e-07 0.0000000000000000e+00  4.7682546004862256e-05 -3.2835717483815337e-07 0.0000000000000000e+00  7.3772551939247491e-05 -5.0872339263388138e-07 0.0000000000000000e+00  1.0264610647545047e-04 -7.0938968362296064e-07 0.0000000000000000e+00  1.3537218143393608e-04 -9.3868500505054694e-07 0.0000000000000000e+00  1.7313847261446791e-04 -1.2065091860508845e-06 0.0000000000000000e+00  2.1727513230153486e-04 -1.5250836878157177e-06 0.0000000000000000e+00  2.6926862674692695e-04 -1.9100665602490598e-06 0.0000000000000000e+00  3.3075614796416672e-04 -2.3822575547568617e-06 0.0000000000000000e+00  4.0348482335911067e-04 -2.9702090822699003e-06 0.0000000000000000e+00  4.8921174000653676e-04 -3.7140632008692638e-06 0.0000000000000000e+00  5.8951195576618671e-04 -4.6705293357909177e-06 0.0000000000000000e+00  7.0545690295840101e-04 -5.9172107808568462e-06 0.0000000000000000e+00  8.3713495758287488e-04 -7.5495037272278764e-06 0.0000000000000000e+00  9.8302347205706615e-04 -9.6519281421268564e-06 0.0000000000000000e+00  1.1392894926690021e-03 -1.2206929375503764e-05 0.0000000000000000e+00  0.0000000000000000e+00 0.0000000000000000e+00 0.0000000000000000e+00  2.3312344572147724e-05 -1.5418778410234735e-07 0.0000000000000000e+00  4.7551518701770852e-05 -3.1404635106675841e-07 0.0000000000000000e+00  7.3682327210652688e-05 -4.8545411976991458e-07 0.0000000000000000e+00  1.0274751917834922e-04 -6.7473952612718580e-07 0.0000000000000000e+00  1.3590954755924402e-04 -8.8897016247949408e-07 0.0000000000000000e+00  1.7449489415301343e-04 -1.1363512173047934e-06 0.0000000000000000e+00  2.2004006153281139e-04 -1.4268394640866079e-06 0.0000000000000000e+00  2.7433582200813567e-04 -1.7731819574499379e-06 0.0000000000000000e+00  3.3946163267874343e-04 -2.1927914720304923e-06 0.0000000000000000e+00  4.1779389598683422e-04 -2.7112529135805309e-06 0.0000000000000000e+00  5.1195833616674426e-04 -3.3689098552666255e-06 0.0000000000000000e+00  6.2467734835705861e-04 -4.2328681956801536e-06 0.0000000000000000e+00  7.5844090639941904e-04 -5.4171053196571482e-06 0.0000000000000000e+00  9.1491859952297361e-04 -7.1099073052424463e-06 0.0000000000000000e+00  1.0940654416683199e-03 -9.5911195984143208e-06 0.0000000000000000e+00  1.2930060147653389e-03 -1.3174789062850237e-05 0.0000000000000000e+00  0.0000000000000000e+00 0.0000000000000000e+00 0.0000000000000000e+00  2.2300035755113222e-05 -1.4170747393227705e-07 0.0000000000000000e+00  4.5527997064813227e-05 -2.8818701093119742e-07 0.0000000000000000e+00  7.0655999082853591e-05 -4.4430502392495356e-07 0.0000000000000000e+00  9.8749205746608023e-05 -6.1513919589320845e-07 0.0000000000000000e+00  1.3101906900592504e-04 -8.0609769896653226e-07 0.0000000000000000e+00  1.6888466499363506e-04 -1.0230781991306976e-06 0.0000000000000000e+00  2.1404436647665611e-04 -1.2727366061406965e-06 0.0000000000000000e+00  2.6855864354302829e-04 -1.5630389266669246e-06 0.0000000000000000e+00  3.3494103340205055e-04 -1.9045160186654077e-06 0.0000000000000000e+00  4.1624583485476110e-04 -2.3132240247141018e-06 0.0000000000000000e+00  5.1612369137235482e-04 -2.8177638880027798e-06 0.0000000000000000e+00  6.3878393752635188e-04 -3.4756836028671331e-06 0.0000000000000000e+00  7.8875032987122610e-04 -4.4103609887932596e-06 0.0000000000000000e+00  9.7023240464483404e-04 -5.8873525526969069e-06 0.0000000000000000e+00  1.1859127964798824e-03 -8.4453237612482522e-06 0.0000000000000000e+00  1.4351278237251508e-03 -1.3018509183370562e-05 0.0000000000000000e+00  0.0000000000000000e+00 0.0000000000000000e+00 0.0000000000000000e+00  2.0360240990416284e-05 -1.2446255591872062e-07 0.0000000000000000e+00  4.1604176893810021e-05 -2.5269392308308426e-07 0.0000000000000000e+00  6.4663313817531302e-05 -3.8844205764060265e-07 0.0000000000000000e+00  9.0571856353120520e-05 -5.3541484995331373e-07 0.0000000000000000e+00  1.2052873671222513e-04 -6.9720280875819051e-07 0.0000000000000000e+00  1.5597370195877798e-04 -8.7712922658531032e-07 0.0000000000000000e+00  1.9868386069793486e-04 -1.0780015619641083e-06 0.0000000000000000e+00  2.5089801869228220e-04 -1.3017594684320240e-06 0.0000000000000000e+00  3.1547581269050567e-04 -1.5491130039028994e-06 0.0000000000000000e+00  3.9609428266742722e-04 -1.8196221065851831e-06 0.0000000000000000e+00  4.9746968788367315e-04 -2.1138780999646130e-06 0.0000000000000000e+00  6.2555374772758758e-04 -2.4433626905902284e-06 0.0000000000000000e+00  7.8756731307801672e-04 -2.8655782749136380e-06 0.0000000000000000e+00  9.9157148687982651e-04 -3.5956274270910078e-06 0.0000000000000000e+00  1.2450525114840166e-03 -5.3202112529985325e-06 0.0000000000000000e+00  1.5519744041859102e-03 -9.8877670946930846e-06 0.0000000000000000e+00  0.0000000000000000e+00 0.0000000000000000e+00 0.0000000000000000e+00  1.7537708544725199e-05 -1.0345857344645083e-07 0.0000000000000000e+00  3.5865404769459720e-05 -2.0969126800236017e-07 0.0000000000000000e+00  5.5820560419061232e-05 -3.2135948252192470e-07 0.0000000000000000e+00  7.8344243677482496e-05 -4.4087897095507542e-07 0.0000000000000000e+00  1.0454656949595828e-04 -5.7017350464643583e-07 0.0000000000000000e+00  1.3579109735718049e-04 -7.1024324448314902e-07 0.0000000000000000e+00  1.7380886765737299e-04 -8.6040511713160540e-07 0.0000000000000000e+00  2.2085719933046061e-04 -1.0169478137645500e-06 0.0000000000000000e+00  2.7994433558324643e-04 -1.1707137460296040e-06 0.0000000000000000e+00  3.5514738596022086e-04 -1.3026701152933622e-06 0.0000000000000000e+00  4.5205271249517428e-04 -1.3757868763552084e-06 0.0000000000000000e+00  5.7832871260913709e-04 -1.3211609484322021e-06 0.0000000000000000e+00  7.4435622691050238e-04 -1.0217264077731324e-06 0.0000000000000000e+00  9.6358518904970643e-04 -3.3788308875655314e-07 0.0000000000000000e+00  1.2516704832836653e-03 5.6083058930898427e-07 0.0000000000000000e+00  1.6226945845062494e-03 -7.1551308348040479e-07 0.0000000000000000e+00  0.0000000000000000e+00 0.0000000000000000e+00 0.0000000000000000e+00  1.3926440580004913e-05 -7.9690676079194985e-08 0.0000000000000000e+00  2.8499721548989095e-05 -1.6126081889079324e-07 0.0000000000000000e+00  4.4408917423492866e-05 -2.4643130381276859e-07 0.0000000000000000e+00  6.2436350640068328e-05 -3.3657253232334342e-07 0.0000000000000000e+00  8.3518685057480086e-05 -4.3237447975312213e-07 0.0000000000000000e+00  1.0882888237554258e-04 -5.3327693299837805e-07 0.0000000000000000e+00  1.3989249589705844e-04 -6.3645846327422009e-07 0.0000000000000000e+00  1.7875964040150750e-04 -7.3499153415279876e-07 0.0000000000000000e+00  2.2826734075193780e-04 -8.1432071462025263e-07 0.0000000000000000e+00  2.9244916494689622e-04 -8.4505131459819792e-07 0.0000000000000000e+00  3.7718399681395095e-04 -7.6673532568009612e-07 0.0000000000000000e+00  4.9122289996516146e-04 -4.4756041574558052e-07 0.0000000000000000e+00  6.4776369115038311e-04 4.2419957881657047e-07 0.0000000000000000e+00  8.6660377193566033e-04 2.6416985125928148e-06 0.0000000000000000e+00  1.1758768111432586e-03 8.2711045002113281e-06 0.0000000000000000e+00  1.6061989436139321e-03 2.2064083533751372e-05 0.0000000000000000e+00  0.0000000000000000e+00 0.0000000000000000e+00 0.0000000000000000e+00  9.6695714776531635e-06 -5.4052122173621358e-08 0.0000000000000000e+00  1.9798673388259266e-05 -1.0923630397617593e-07 0.0000000000000000e+00  3.0878690071420475e-05 -1.6653648516158979e-07 0.0000000000000000e+00  4.3471938762893997e-05 -2.2660814101734982e-07 0.0000000000000000e+00  5.8259422221686195e-05 -2.8947858504716303e-07 0.0000000000000000e+00  7.6106790523965508e-05 -3.5404154099919166e-07 0.0000000000000000e+00  9.8161390509835851e-05 -4.1718967074448342e-07 0.0000000000000000e+00  1.2600234024629436e-04 -4.7231864821491571e-07 0.0000000000000000e+00  1.6188280913324006e-04 -5.0672999516003684e-07 0.0000000000000000e+00  2.0913738375136849e-04 -4.9699706728066301e-07 0.0000000000000000e+00  2.7289532411003844e-04 -3.9990659613718913e-07 0.0000000000000000e+00  3.6138192607028749e-04 -1.3039788032479715e-07 0.0000000000000000e+00  4.8839621417953608e-04 5.1246463305042789e-07 0.0000000000000000e+00  6.7826486081040195e-04 2.1650866328922281e-06 0.0000000000000000e+00  9.7657553258670101e-04 7.4581165878184311e-06 0.0000000000000000e+00  1.4790135471630164e-03 2.9342594843135619e-05 0.0000000000000000e+00  0.0000000000000000e+00 0.0000000000000000e+00 0.0000000000000000e+00  4.9540620952857296e-06 -2.7287333529486749e-08 0.0000000000000000e+00  1.0146928091875413e-05 -5.5098922176772558e-08 0.0000000000000000e+00  1.5834567464085044e-05 -8.3870832121112275e-08 0.0000000000000000e+00  2.2311372911357793e-05 -1.1384371503052660e-07 0.0000000000000000e+00  2.9936468288310885e-05 -1.4488886739199262e-07 0.0000000000000000e+00  3.9170714081268087e-05 -1.7622434630765321e-07 0.0000000000000000e+00  5.0632393261722604e-05 -2.0595941724653257e-07 0.0000000000000000e+00  6.5185761781965369e-05 -2.3042477551381345e-07 0.0000000000000000e+00  8.4089153654046993e-05 -2.4344615466340250e-07 0.0000000000000000e+00  1.0925559924360947e-04 -2.3670345735078466e-07 0.0000000000000000e+00  1.4373651662652175e-04 -2.0649674011401083e-07 0.0000000000000000e+00  1.9266938127578470e-04 -1.8927582328884874e-07 0.0000000000000000e+00  2.6522185162653237e-04 -4.1719715051614306e-07 0.0000000000000000e+00  3.7861131627869588e-04 -1.9608520633437514e-06 0.0000000000000000e+00  5.6525924401683661e-04 -9.2509342616551278e-06 0.0000000000000000e+00  8.7400306533858972e-04 -3.8298301954306250e-05 0.0000000000000000e+00  0.0000000000000000e+00 0.0000000000000000e+00 0.0000000000000000e+00  0.0000000000000000e+00 0.0000000000000000e+00 0.0000000000000000e+00  0.0000000000000000e+00 0.0000000000000000e+00 0.0000000000000000e+00  0.0000000000000000e+00 0.0000000000000000e+00 0.0000000000000000e+00  0.0000000000000000e+00 0.0000000000000000e+00 0.0000000000000000e+00  0.0000000000000000e+00 0.0000000000000000e+00 0.0000000000000000e+00  0.0000000000000000e+00 0.0000000000000000e+00 0.0000000000000000e+00  0.0000000000000000e+00 0.0000000000000000e+00 0.0000000000000000e+00  0.0000000000000000e+00 0.0000000000000000e+00 0.0000000000000