<?xml version="1.0"?>
<VTKFile type="UnstructuredGrid"  version="0.1"  >
<UnstructuredGrid>
<Piece  NumberOfPoints="289" NumberOfCells="512">
<Points>
<DataArray  type="Float64"  NumberOfComponents="3"  format="ascii">0 0 0  0.0625 0 0  0.125 0 0  0.1875 0 0  0.25 0 0  0.3125 0 0  0.375 0 0  0.4375 0 0  0.5 0 0  0.5625 0 0  0.625 0 0  0.6875 0 0  0.75 0 0  0.8125 0 0  0.875 0 0  0.9375 0 0  1 0 0  0 0.0625 0  0.06243541040919167 0.0624987718572169 0  0.124868896192289 0.06249752654288434 0  0.1872985267637184 0.06249625026624316 0  0.2497223674533659 0.06249493659255513 0  0.3121384916501143 0.06249359159010134 0  0.374545009105201 0.06249224084897757 0  0.4369401128056257 0.06249093918864979 0  0.4993221400569239 0.06248978412357786 0  0.5616896259921009 0.06248893485180566 0  0.6240412829213372 0.06248864090880513 0  0.6863757177107442 0.06248929342045793 0  0.7486903426926974 0.06249154571238429 0  0.810977778753621 0.06249668580423057 0  0.8732139242906575 0.06250801628615348 0  0.9353159278614237 0.06253654801346475 0  0.9969836102312899 0.06262638607361913 0  0 0.125 0  0.06237280665621115 0.1249975616247039 0  0.1247417774798239 0.1249950855889245 0  0.1871030601392024 0.124992540419863 0  0.2494527850159445 0.1249899081650562 0  0.3117870860006943 0.1249871939784682 0  0.3741021564414145 0.1249844392985014 0  0.4363943496803221 0.1249817401091823 0  0.4986603266896535 0.124979271954258 0  0.5608972357966198 0.1249773235364529 0  0.6231028698335248 0.1249763408760006 0  0.6852756621172779 0.1249769836750221 0  0.7474142195748156 0.1249801900245823 0  0.809515849394012 0.1249872017675971 0  0.8715736614304 0.1249992197723371 0  0.9335758395783905 0.1250146866460684 0  0.9955404449302387 0.1250126562818627 0  0 0.1875 0  0.06231410275734907 0.1874963897988018 0  0.1246224814701378 0.1874927153183585 0  0.1869193746244914 0.1874889201771209 0  0.2491989688373021 0.1874849654031446 0  0.3114554180546619 0.18748084213529 0  0.373682919318472 0.1874765894473252 0  0.435875866411599 0.187472319450363 0  0.4980291013051587 0.187468251958403 0  0.5601382767234799 0.1874647606722307 0  0.62220032869333 0.1874624313285334 0  0.6842140386076004 0.1874621279337887 0  0.7461806692191865 0.1874650522641721 0  0.8081048117643815 0.1874727574272925 0  0.8699962931697984 0.1874870473435238 0  0.9318762872535111 0.1875098914485955 0  0.99379505218161 0.1875459727827528 0  0 0.25 0  0.06226119026053443 0.2499952830119984 0  0.1245148116142182 0.2499904672851693 0  0.1867532204880328 0.24998546214991 0  0.248968652796192 0.2499801950280556 0  0.3111532226302903 0.2499746253556174 0  0.3732989980952873 0.2499687649029715 0  0.4353981898375008 0.2499627074407705 0  0.4974434944053138 0.2499566711223777 0  0.5594286405252218 0.249951056879679 0  0.6213491915048028 0.249946524669425 0  0.683203666383241 0.2499440849200727 0  0.7449950771845877 0.2499451926193509 0  0.8067330971191441 0.2499518149905315 0  0.8684373831783353 0.2499664301719164 0  0.9301431238778194 0.2499919446115961 0  0.9919099708992895 0.2500315516074037 0  0 0.3125 0  0.06221591711661532 0.3124942757519093 0  0.1244225008479783 0.3124884102978713 0  0.1866102848564415 0.3124822688206521 0  0.2487695683824744 0.3124757313663235 0  0.3108903663588183 0.3124687055585096 0  0.3729624514394966 0.3124611465044582 0  0.4349755370737939 0.3124530877175649 0  0.4969196661764776 0.3124446880316454 0  0.5587858876984535 0.31243630056502 0  0.6205673210290756 0.3124285700158279 0  0.6822607216602645 0.3124225621976071 0  0.7438686650562605 0.3124199215031777 0  0.8054024481274979 0.3124230327018557 0  0.866885731876087 0.3124351251477157 0  0.9283586668593048 0.3124601792792779 0  0.989881264068497 0.3125022744343419 0  0 0.375 0  0.06218004992246992 0.3749934105310553 0  0.1243491410142679 0.3749866310739774 0  0.186496099507983 0.3749794743832297 0  0.2486093512170538 0.3749717606138742 0  0.3106767874473181 0.3749633259683133 0  0.3726857260557418 0.3749540384396631 0  0.4346230268413567 0.3749438251470376 0  0.4964754456724761 0.3749327179477781 0  0.558230343235713 0.3749209270477607 0  0.6198768974390333 0.3749089559307776 0  0.6814079909097537 0.3748977737218915 0  0.7428229299696483 0.3748890592100712 0  0.804131049289067 0.3748855155913162 0  0.8653559867864288 0.3748912117077369 0  0.9265398669014026 0.3749118199159707 0  0.987745704031833 0.374954528315019 0  0 0.4375 0  0.0621552148041657 0.4374927361892615 0  0.1242980672618182 0.4374852309592446 0  0.1864158755868658 0.4374772402014788 0  0.2484953404352533 0.4374685157829383 0  0.3105222873801659 0.4374588071341654 0  0.3724814902760461 0.4374478684544817 0  0.434356637813894 0.4374354759885873 0  0.4961305414846832 0.4374214629897247 0  0.5577857329178428 0.4374057852750509 0  0.6193056595963915 0.4373886385887354 0  0.6806767464852747 0.437370660603701 0  0.7418916098364287 0.4373532627715859 0  0.8029536113936488 0.4373391397525386 0  0.8638826026852384 0.4373329689026957 0  0.9247210009196145 0.437342185867734 0  0.9855382889130352 0.4373774400973192 0  0 0.5 0  0.06214281445861919 0.4999923042147851 0  0.1242721909042385 0.4999843183896152 0  0.1863742512950504 0.4999757431355727 0  0.2484342438126983 0.4999662607451422 0  0.3104361256131282 0.4999555271640034 0  0.3723621893333773 0.499943166373023 0  0.4341927871566026 0.4999287703039304 0  0.4959062514902706 0.499911910821295 0  0.5574791824221312 0.4998921770220268 0  0.618887375759789 0.4998692638748641 0  0.6801077990140278 0.4998431610644719 0  0.7411221545795221 0.4998145274875868 0  0.8019226015365767 0.4997853831235639 0  0.8625199255210266 0.4997602729537199 0  0.9229535172666019 0.4997479528090726 0  0.9833007425081665 0.499763204739105 0  0 0.5625 0  0.06214392263387455 0.5624921632691309 0  0.1242737818254755 0.5624839973808673 0  0.1863749501136235 0.5624751568964266 0  0.2484316567111238 0.56246526291189 0  0.3104263865258126 0.5624538840934933 0  0.3723392599841588 0.5624405153356052 0  0.4341474217561593 0.5624245542114487 0  0.4958245141178798 0.5624052775489499 0  0.5573403978355994 0.5623818260206463 0  0.6186614346292609 0.5623532180716618 0  0.6797518887769477 0.5623184450978694 0  0.740577351696197 0.5622767642985288 0  0.8011114680795469 0.5622284263511954 0  0.8613473310517319 0.5621762533535658 0  0.9213139194729228 0.5621285958702473 0  0.9810945759081083 0.5621037665306393 0  0 0.625 0  0.06215916253285048 0.6249923524827012 0  0.1243042124079938 0.6249843531601793 0  0.1864203644645457 0.624975627988714 0  0.248491447360087 0.624965756219268 0  0.3104991187888088 0.6249542412453896 0  0.3724219754492714 0.6249404736425349 0  0.434234538796303 0.6249236823745306 0  0.4959061322393932 0.6249028691984437 0  0.557399746653187 0.624876721504903 0  0.618671166124893 0.6248435042166063 0  0.6796689763347018 0.624800953893565 0  0.7403367213035149 0.6247462695487624 0  0.8006195045177076 0.6246764878751704 0  0.8604785497890181 0.6245899753175085 0  0.9199173755427169 0.6244905388544731 0  0.9790186215407342 0.6243960364056107 0  0 0.6875 0  0.06218858181498602 0.6874928944874752 0  0.1243636883897198 0.6874854369776772 0  0.1865111023745403 0.6874772495348566 0  0.2486150553167378 0.6874678991195197 0  0.310657294874106 0.6874568615174621 0  0.3726159498273801 0.6874434731005715 0  0.4344641073444812 0.6874268624234533 0  0.496168015500259 0.6874058486537084 0  0.5576848562103719 0.6873787851609438 0  0.6189601596893791 0.6873433130632161 0  0.6799252878164199 0.6872959746803879 0  0.7404962857923857 0.6872316469498981 0  0.8005773056364405 0.6871428988728491 0  0.8600753697905643 0.6870200118273055 0  0.9189379242953318 0.6868544330861589 0  0.9772234587522834 0.6866527319471014 0  0 0.75 0  0.06223154303451552 0.7499937894425405 0  0.1244510061182016 0.7499872528700487 0  0.1866455602932389 0.7499800378375183 0  0.2488007927053946 0.7499717354755662 0  0.3108997054330352 0.7499618428839253 0  0.3729214280403638 0.7499497119314832 0  0.4348394855594543 0.7499344749615388 0  0.4966194039423413 0.749914930577353 0  0.558215364108212 0.7498893570986358 0  0.6195655701310964 0.7498551872147113 0  0.6805861056967965 0.7498084035231571 0  0.7411637049666642 0.749742366314457 0  0.8011501289755227 0.7496455542253189 0  0.860367336714141 0.7494976917789167 0  0.9186481715435333 0.7492660783553344 0  0.9759589248016461 0.7489200292103348 0  0 0.8125 0  0.06228665281332742 0.8124950113353071 0  0.1245633868412523 0.8124897493081952 0  0.1868196082730936 0.8124839171409228 0  0.249043282206224 0.8124771680862862 0  0.3112199843387167 0.8124690723416342 0  0.3733316272787014 0.8124590726508405 0  0.4353546513744295 0.8124464215555067 0  0.4972573489411117 0.8124300884889786 0  0.5589957883617803 0.8124086136841819 0  0.620507478887833 0.8123798555790348 0  0.6817014411713096 0.812340488841604 0  0.7424428516014536 0.8122848349383306 0  0.8025308033042665 0.8122017637742309 0  0.8616731066618373 0.8120659041589421 0  0.919489944961883 0.8118123923595305 0  0.9757039707342774 0.811265754943828 0  0 0.875 0  0.06235175359060501 0.8749965075032701 0  0.1246964418688484 0.8749928179431804 0  0.1870264849726941 0.874988716914478 0  0.2493331966220731 0.874983953158592 0  0.3116060336710981 0.8749782147883821 0  0.373831555058646 0.8749710988454694 0  0.4359918825323321 0.8749620721595015 0  0.4980623078733454 0.8749504234890648 0  0.5600074093215915 0.8749352135427558 0  0.621774487013223 0.8749152466360657 0  0.6832820106331793 0.8748891225858443 0  0.7443984535172464 0.8748554617634094 0  0.8049019773369931 0.8748132292165973 0  0.8644011310210923 0.8747605976581434 0  0.9221778813762136 0.87468289030524 0  0.9769101761180656 0.8744825381692061 0  0 0.9375 0  0.06242399630603791 0.9374982016640574 0  0.1248443122460364 0.9374963001169342 0  0.1872569878672358 0.9374941829738492 0  0.2496574592803133 0.9374917184575516 0  0.3120401410409031 0.9374887432847231 0  0.3743978348221456 0.9374850481265914 0  0.4367208325673815 0.9374803617837236 0 
[...]
<PointData  Vectors="f_54"> 
<DataArray  type="Float64"  Name="f_54"  NumberOfComponents="3" format="ascii">0.0000000000000000e+00 0.0000000000000000e+00 0.0000000000000000e+00  0.0000000000000000e+00 0.0000000000000000e+00 0.0000000000000000e+00  0.0000000000000000e+00 0.0000000000000000e+00 0.0000000000000000e+00  0.0000000000000000e+00 0.0000000000000000e+00 0.0000000000000000e+00  0.0000000000000000e+00 0.0000000000000000e+00 0.0000000000000000e+00  0.0000000000000000e+00 0.0000000000000000e+00 0.0000000000000000e+00  0.0000000000000000e+00 0.0000000000000000e+00 0.0000000000000000e+00  0.0000000000000000e+00 0.0000000000000000e+00 0.0000000000000000e+00  0.0000000000000000e+00 0.0000000000000000e+00 0.0000000000000000e+00  0.0000000000000000e+00 0.0000000000000000e+00 0.0000000000000000e+00  0.0000000000000000e+00 0.0000000000000000e+00 0.0000000000000000e+00  0.0000000000000000e+00 0.0000000000000000e+00 0.0000000000000000e+00  0.0000000000000000e+00 0.0000000000000000e+00 0.0000000000000000e+00  0.0000000000000000e+00 0.0000000000000000e+00 0.0000000000000000e+00  0.0000000000000000e+00 0.0000000000000000e+00 0.0000000000000000e+00  0.0000000000000000e+00 0.0000000000000000e+00 0.0000000000000000e+00  0.0000000000000000e+00 0.0000000000000000e+00 0.0000000000000000e+00  0.0000000000000000e+00 0.0000000000000000e+00 0.0000000000000000e+00  1.5044425012033049e-06 2.5426540969239537e-09 0.0000000000000000e+00  3.0406401985325407e-06 5.5420507179341406e-09 0.0000000000000000e+00  4.6383728753813930e-06 9.4774461532610456e-09 0.0000000000000000e+00  6.3230674214280082e-06 1.4863953022053810e-08 0.0000000000000000e+00  8.1126776455800028e-06 2.2243391384532389e-08 0.0000000000000000e+00  1.0013370158502276e-05 3.2132781039037049e-08 0.0000000000000000e+00  1.2013498633156187e-05 4.4898715133083410e-08 0.0000000000000000e+00  1.4075176373625736e-05 6.0508764711640309e-08 0.0000000000000000e+00  1.6122334362263723e-05 7.8087920903244110e-08 0.0000000000000000e+00  1.8022996561150562e-05 9.5180040028314626e-08 0.0000000000000000e+00  1.9560169248775292e-05 1.0659363167466188e-07 0.0000000000000000e+00  2.0375705758405548e-05 1.0277367998177816e-07 0.0000000000000000e+00  1.9839703941083637e-05 6.8197426197764030e-08 0.0000000000000000e+00  1.6690476610806063e-05 -1.6548429779240802e-08 0.0000000000000000e+00  7.9032273304901024e-06 -1.4920359238890985e-07 0.0000000000000000e+00  -1.5166430048513232e-05 -1.6095804386425752e-07 0.0000000000000000e+00  0.0000000000000000e+00 0.0000000000000000e+00 0.0000000000000000e+00  2.9739409301337355e-06 4.6223898117462519e-09 0.0000000000000000e+00  6.0130880663622698e-06 1.0132479637897371e-08 0.0000000000000000e+00  9.1790669630401117e-06 1.7471892868511265e-08 0.0000000000000000e+00  1.2525570754004788e-05 2.7675241640525245e-08 0.0000000000000000e+00  1.6092590643434950e-05 4.1871715481314870e-08 0.0000000000000000e+00  1.9898382718897496e-05 6.1214467654258103e-08 0.0000000000000000e+00  2.3928250014682136e-05 8.6680723577518877e-08 0.0000000000000000e+00  2.8119043962876176e-05 1.1865297737072955e-07 0.0000000000000000e+00  3.2337937047469856e-05 1.5614579975702854e-07 0.0000000000000000e+00  3.6353168917425460e-05 1.9547735069910518e-07 0.0000000000000000e+00  3.9792333243148213e-05 2.2807566840988604e-07 0.0000000000000000e+00  4.2078723619784650e-05 2.3685376637199382e-07 0.0000000000000000e+00  4.2326216496127843e-05 1.8972500428388161e-07 0.0000000000000000e+00  3.9163172634541541e-05 2.5228013905022517e-08 0.0000000000000000e+00  3.0510249394007982e-05 -3.9151168502691650e-07 0.0000000000000000e+00  1.3874662777907577e-05 -1.4469610365802152e-06 0.0000000000000000e+00  0.0000000000000000e+00 0.0000000000000000e+00 0.0000000000000000e+00  4.3750580480566548e-06 5.8073670761358003e-09 0.0000000000000000e+00  8.8520790858338215e-06 1.2876054109916512e-08 0.0000000000000000e+00  1.3528541770131287e-05 2.2567451665853732e-08 0.0000000000000000e+00  1.8491869285605737e-05 3.6428837278722874e-08 0.0000000000000000e+00  2.3811854017935745e-05 5.6240261581611236e-08 0.0000000000000000e+00  2.9529895474414436e-05 8.3981875178482813e-08 0.0000000000000000e+00  3.5643815498475481e-05 1.2165072411542718e-07 0.0000000000000000e+00  4.2086951551919890e-05 1.7081153977255133e-07 0.0000000000000000e+00  4.8700259219910143e-05 2.3170503779249120e-07 0.0000000000000000e+00  5.5196360547311934e-05 3.0166002620059424e-07 0.0000000000000000e+00  6.1115039953387997e-05 3.7246331268313137e-07 0.0000000000000000e+00  6.5771320668805533e-05 4.2622699324665649e-07 0.0000000000000000e+00  6.8202840855045648e-05 4.2913393745957384e-07 0.0000000000000000e+00  6.7143194286000879e-05 3.2238022909044860e-07 0.0000000000000000e+00  6.1112177842027814e-05 1.1815520941081188e-08 0.0000000000000000e+00  4.8867936466776261e-05 -6.2018870083221039e-07 0.0000000000000000e+00  0.0000000000000000e+00 0.0000000000000000e+00 0.0000000000000000e+00  5.6710496223031279e-06 5.7225412916260317e-09 0.0000000000000000e+00  1.1485021526066072e-05 1.2976354529762637e-08 0.0000000000000000e+00  1.7580435796822468e-05 2.3453163326262299e-08 0.0000000000000000e+00  2.4085676420062839e-05 3.9160079061696692e-08 0.0000000000000000e+00  3.1110770133114831e-05 6.2551893233619508e-08 0.0000000000000000e+00  3.8735189450775056e-05 9.6606308951179900e-08 0.0000000000000000e+00  4.6990114260927897e-05 1.4477247579551158e-07 0.0000000000000000e+00  5.5833576508870454e-05 2.1066922507919204e-07 0.0000000000000000e+00  6.5117228979493996e-05 2.9733385491194006e-07 0.0000000000000000e+00  7.4544497206040903e-05 4.0573282790983515e-07 0.0000000000000000e+00  8.3622273045615503e-05 5.3217496747889040e-07 0.0000000000000000e+00  9.1613356852230727e-05 6.6430383121705184e-07 0.0000000000000000e+00  9.7506930964952695e-05 7.7569821547878148e-07 0.0000000000000000e+00  1.0004342710352296e-04 8.2026813323970951e-07 0.0000000000000000e+00  9.7861513580903652e-05 7.3070135859504763e-07 0.0000000000000000e+00  8.9864100676352745e-05 4.3145317600317245e-07 0.0000000000000000e+00  0.0000000000000000e+00 0.0000000000000000e+00 0.0000000000000000e+00  6.8209400879781507e-06 4.0963831053262553e-09 0.0000000000000000e+00  1.3829861749995285e-05 9.8297068457611305e-09 0.0000000000000000e+00  2.1211635110337105e-05 1.9063289509423369e-08 0.0000000000000000e+00  2.9143428244817034e-05 3.4124961767252913e-08 0.0000000000000000e+00  3.7787289260955123e-05 5.8058148976745750e-08 0.0000000000000000e+00  4.7278123730383812e-05 9.4872372737848710e-08 0.0000000000000000e+00  5.7705074872025359e-05 1.4974443313931334e-07 0.0000000000000000e+00  6.9084150861575515e-05 2.2906079198375915e-07 0.0000000000000000e+00  8.1320159014504527e-05 3.4009491795896901e-07 0.0000000000000000e+00  9.4157107411168664e-05 4.8997995189773007e-07 0.0000000000000000e+00  1.0711907160895939e-04 6.8349851622350374e-07 0.0000000000000000e+00  1.1944935762417512e-04 9.1917852125513970e-07 0.0000000000000000e+00  1.3006607335007211e-04 1.1835225206000813e-06 0.0000000000000000e+00  1.3756742630547595e-04 1.4444046025682107e-06 0.0000000000000000e+00  1.4033610871799003e-04 1.6473781209603100e-06 0.0000000000000000e+00  1.3679245907257965e-04 1.7228501987444514e-06 0.0000000000000000e+00  0.0000000000000000e+00 0.0000000000000000e+00 0.0000000000000000e+00  7.7795958854874914e-06 8.2215641810745301e-10 0.0000000000000000e+00  1.5795006320221433e-05 3.1564448456078556e-09 0.0000000000000000e+00  2.4281569909806759e-05 8.7955701625650465e-09 0.0000000000000000e+00  3.3472189913693584e-05 2.0129184010835752e-08 0.0000000000000000e+00  4.3592443455612447e-05 4.0525584908325431e-08 0.0000000000000000e+00  5.4850750756876546e-05 7.4802423683277639e-08 0.0000000000000000e+00  6.7421104656611235e-05 1.2978446030260643e-07 0.0000000000000000e+00  8.1415275095126141e-05 2.1488897106623521e-07 0.0000000000000000e+00  9.6841010242984619e-05 3.4256323560057225e-07 0.0000000000000000e+00  1.1354306528885010e-04 5.2819220957574924e-07 0.0000000000000000e+00  1.3112583175959504e-04 7.8878131438290193e-07 0.0000000000000000e+00  1.4886137054418664e-04 1.1393537614428177e-06 0.0000000000000000e+00  1.6559654346587284e-04 1.5858254426850829e-06 0.0000000000000000e+00  1.7968867396786877e-04 2.1137237408441364e-06 0.0000000000000000e+00  1.8901811861862095e-04 2.6744912892372311e-06 0.0000000000000000e+00  1.9113779997862644e-04 3.1761575825054498e-06 0.0000000000000000e+00  0.0000000000000000e+00 0.0000000000000000e+00 0.0000000000000000e+00  8.4990294471421169e-06 -3.9749874197025192e-09 0.0000000000000000e+00  1.7281792097027996e-05 -6.8475461371792039e-09 0.0000000000000000e+00  2.6635528608760251e-05 -7.2163111438341873e-09 0.0000000000000000e+00  3.6853214071298097e-05 -3.0203162375424042e-09 0.0000000000000000e+00  4.8233136903075482e-05 8.9471279623018392e-09 0.0000000000000000e+00  6.1073758919943466e-05 3.3725682658985907e-08 0.0000000000000000e+00  7.5660924354110036e-05 7.9152609476242400e-08 0.0000000000000000e+00  9.2243247233194330e-05 1.5715292008847371e-07 0.0000000000000000e+00  1.1099001262238691e-04 2.8530014798624895e-07 0.0000000000000000e+00  1.3192452944768825e-04 4.8833433398141184e-07 0.0000000000000000e+00  1.5482546377568266e-04 7.9879176998290718e-07 0.0000000000000000e+00  1.7909110674361198e-04 1.2549823068660031e-06 0.0000000000000000e+00  2.0356999334556576e-04 1.8932999846619131e-06 0.0000000000000000e+00  2.2638016056781781e-04 2.7308897286049018e-06 0.0000000000000000e+00  2.4477186299834137e-04 3.7358184790342626e-06 0.0000000000000000e+00  2.5513011707211362e-04 4.7883517346162065e-06 0.0000000000000000e+00  0.0000000000000000e+00 0.0000000000000000e+00 0.0000000000000000e+00  8.9310793489479882e-06 -9.8826573062205668e-09 0.0000000000000000e+00  1.8189842015253134e-05 -1.9375853323856579e-08 0.0000000000000000e+00  2.8112612630205644e-05 -2.7834675951512810e-08 0.0000000000000000e+00  3.9052194797550525e-05 -3.4022514589803663e-08 0.0000000000000000e+00  5.1383909229248822e-05 -3.5599644431515926e-08 0.0000000000000000e+00  6.5508040970874788e-05 -2.8303407323768652e-08 0.0000000000000000e+00  8.1845698139649457e-05 -4.6383746405347032e-09 0.0000000000000000e+00  1.0082312518727467e-04 4.8150865637665499e-08 0.0000000000000000e+00  1.2283660309054297e-04 1.5104241421595569e-07 0.0000000000000000e+00  1.4818612959278788e-04 3.3716469174465319e-07 0.0000000000000000e+00  1.7696155920460962e-04 6.5609544132517069e-07 0.0000000000000000e+00  2.0886162375730573e-04 1.1764513021629402e-06 0.0000000000000000e+00  2.4292898965293575e-04 1.9818313343960631e-06 0.0000000000000000e+00  2.7720296057748549e-04 3.1509761965431074e-06 0.0000000000000000e+00  3.0834072408804814e-04 4.7096862726176507e-06 0.0000000000000000e+00  3.3134925170090869e-04 6.5464959403964385e-06 0.0000000000000000e+00  0.0000000000000000e+00 0.0000000000000000e+00 0.0000000000000000e+00  9.0314762111863024e-06 -1.6182248299044564e-08 0.0000000000000000e+00  1.8425393901635760e-05 -3.2947306266784126e-08 0.0000000000000000e+00  2.8558649552241045e-05 -5.0746980510649116e-08 0.0000000000000000e+00  3.9837032890908535e-05 -6.9690015620477123e-08 0.0000000000000000e+00  5.2709410448486539e-05 -8.9143051798112777e-08 0.0000000000000000e+00  6.7680671478491004e-05 -1.0696996394080669e-07 0.0000000000000000e+00  8.5321123426478665e-05 -1.1812321381744706e-07 0.0000000000000000e+00  1.0626758882344926e-04 -1.1213215852030519e-07 0.0000000000000000e+00  1.3120725707176637e-04 -6.8826692236307481e-08 0.0000000000000000e+00  1.6082850836081347e-04 4.8501821906892235e-08 0.0000000000000000e+00  1.9571267170071917e-04 3.0302874513446445e-07 0.0000000000000000e+00  2.3612734983078824e-04 7.9643810833427665e-07 0.0000000000000000e+00  2.8166974336166938e-04 1.6777672502795836e-06 0.0000000000000000e+00  3.3071138623870733e-04 3.1344148295555032e-06 0.0000000000000000e+00  3.7964765941801926e-04 5.3364179926265709e-06 0.0000000000000000e+00  4.2211488546891538e-04 8.2976380677858620e-06 0.0000000000000000e+00  0.0000000000000000e+00 0.0000000000000000e+00 0.0000000000000000e+00  8.7650979727139717e-06 -2.1893048433056101e-08 0.0000000000000000e+00  1.7912283230893295e-05 -4.5474763685333910e-08 0.0000000000000000e+00  2.7843803808560017e-05 -7.2508314625526689e-08 0.0000000000000000e+00  3.9003270917000455e-05 -1.0485500334493291e-07 0.0000000000000000e+00  5.1898824277213932e-05 -1.4436738605202808e-07 0.0000000000000000e+00  6.7128728880152277e-05 -1.9248670513622570e-07 0.0000000000000000e+00  8.5408874140988292e-05 -2.4921620256646069e-07 0.0000000000000000e+00  1.0759943417857498e-04 -3.1083730320403119e-07 0.0000000000000000e+00  1.3472339825450032e-04 -3.6521299561879027e-07 0.0000000000000000e+00  1.6796085642881351e-04 -3.8273183373809982e-07 0.0000000000000000e+00  2.0858685216149298e-04 -3.0004579016820329e-07 0.0000000000000000e+00  2.5779360737255278e-04 6.3640732355354848e-09 0.0000000000000000e+00  3.1629806232294467e-04 7.5626765033676689e-07 0.0000000000000000e+00  3.8359163749898499e-04 2.2970033118719078e-06 0.0000000000000000e+00  4.5668489295297996e-04 5.0804350541025282e-06 0.0000000000000000e+00  5.2836099383708822e-04 9.4808156487175893e-06 0.0000000000000000e+00  0.0000000000000000e+00 0.0000000000000000e+00 0.0000000000000000e+00  8.1119371623711954e-06 -2.5899121133666989e-08 0.0000000000000000e+00  1.6604670196036392e-05 -5.4518536433369602e-08 0.0000000000000000e+00  2.5883679919332959e-05 -8.8908797928693631e-08 0.0000000000000000e+00  3.6406033863657982e-05 -1.3279489421666648e-07 0.0000000000000000e+00  4.8711849657774898e-05 -1.9093168186749595e-07 0.0000000000000000e+00  6.3462795820063030e-05 -2.6940192062944913e-07 0.0000000000000000e+00  8.1490068950869395e-05 -3.7563692457266310e-07 0.0000000000000000e+00  1.0385345446466146e-04 -5.1758774362808005e-07 0.0000000000000000e+00  1.3191018039355521e-04 -7.0070526621088205e-07 0.0000000000000000e+00  1.6738458919841111e-04 -9.1981232981943779e-07 0.0000000000000000e+00  2.1241175813033181e-04 -1.1400221813426811e-06 0.0000000000000000e+00  2.6949011845100725e-04 -1.2563040378073402e-06 0.0000000000000000e+00  3.4120380055404183e-04 -1.0171060749407834e-06 0.0000000000000000e+00  4.2944652681216875e-04 9.5648409890507706e-08 0.0000000000000000e+00  5.3370634982428228e-04 2.9843935733665430e-06 0.0000000000000000e+00  6.4794591598574594e-04 8.8373199517474610e-06 0.0000000000000000e+00  0.0000000000000000e+00 0.0000000000000000e+00 0.0000000000000000e+00  7.0729765490343551e-06 -2.7159175134223532e-08 0.0000000000000000e+00  1.4499873317337622e-05 -5.7736924041594908e-08 0.0000000000000000e+00  2.2661429887522287e-05 -9.5721966721962402e-08 0.0000000000000000e+00  3.1995249460254524e-05 -1.4634440247643605e-07 0.0000000000000000e+00  4.3032765793053398e-05 -2.1696480070534800e-07 0.0000000000000000e+00  5.6447756265985562e-05 -3.1830490055575168e-07 0.0000000000000000e+00  7.3122508676753316e-05 -4.6612165890411034e-07 0.0000000000000000e+00  9.4239576542994678e-05 -6.8326438190974213e-07 0.0000000000000000e+00  1.2140857528729821e-04 -1.0014704093627967e-06 0.0000000000000000e+00  1.5683652134614289e-04 -1.4605283759392415e-06 0.0000000000000000e+00  2.0354089973965216e-04 -2.0978863313171197e-06 0.0000000000000000e+00  2.6557228473510929e-04 -2.9109334677360868e-06 0.0000000000000000e+00  3.4812401043222795e-04 -3.7515776592182717e-06 0.0000000000000000e+00  4.5718720051265407e-04 -4.0772494860040902e-06 0.0000000000000000e+00  5.9792037893955275e-04 -2.4815697521170452e-06 0.0000000000000000e+00  7.7001577583199422e-04 3.6689278344328183e-06 0.0000000000000000e+00  0.0000000000000000e+00 0.0000000000000000e+00 0.0000000000000000e+00  5.6748759915365246e-06 -2.4967961967583424e-08 0.0000000000000000e+00  1.1648963595814060e-05 -5.3475502751323169e-08 0.0000000000000000e+00  1.8246982176744355e-05 -8.9767117673278445e-08 0.0000000000000000e+00  2.5848368067456895e-05 -1.3967465033135644e-07 0.0000000000000000e+00  3.4924665661575821e-05 -2.1191325618817682e-07 0.0000000000000000e+00  4.6091238989002399e-05 -3.2014519436148407e-07 0.0000000000000000e+00  6.0182510171137189e-05 -4.8638618670005482e-07 0.0000000000000000e+00  7.8364974179540690e-05 -7.4666916958417909e-07 0.0000000000000000e+00  1.0231019348412945e-04 -1.1602838790991223e-06 0.0000000000000000e+00  1.3446162966290761e-04 -1.8239390889685959e-06 0.0000000000000000e+00  1.7844358525204805e-04 -2.8900158337471686e-06 0.0000000000000000e+00  2.3966952602835323e-04 -4.5773057555624731e-06 0.0000000000000000e+00  3.2617805428587109e-04 -7.1229630215954564e-06 0.0000000000000000e+00  4.4954931068877212e-04 -1.0494283093322391e-05 0.0000000000000000e+00  6.2507852781281184e-04 -1.3262220397372659e-05 0.0000000000000000e+00  8.6779362302107327e-04 -8.5083555919361443e-06 0.0000000000000000e+00  0.0000000000000000e+00 0.0000000000000000e+00 0.0000000000000000e+00  3.9722361991752329e-06 -1.9201668409325273e-08 0.0000000000000000e+00  8.1623617613068382e-06 -4.1347914583776166e-08 0.0000000000000000e+00  1.2808486348247541e-05 -7.0038974522701445e-08 0.0000000000000000e+00  1.8192488538575433e-05 -1.1038475979723289e-07 0.0000000000000000e+00  2.4671083455209443e-05 -1.7034077323512163e-07 0.0000000000000000e+00  3.2720506734239610e-05 -2.6301094955585550e-07 0.0000000000000000e+00  4.3004700928583963e-05 -4.1084209073937263e-07 0.0000000000000000e+00  5.6483851115940734e-05 -6.5355054986596398e-07 0.0000000000000000e+00  7.4592958788037103e-05 -1.0635362428916068e-06 0.0000000000000000e+00  9.9543962754213068e-05 -1.7765184860394480e-06 0.0000000000000000e+00  1.3484926720864628e-04 -3.0531666565374771e-06 0.0000000000000000e+00  1.8624707121563862e-04 -5.4025417112893276e-06 0.0000000000000000e+00  2.6336166189597573e-04 -9.8215639411356562e-06 0.0000000000000000e+00  3.8270710480866271e-04 -1.8224926335963736e-05 0.0000000000000000e+00  5.7305328465951126e-04 -3.4103902730797702e-05 0.0000000000000000e+00  8.8422520697905281e-04 -6.3193587570322166e-05 0.0000000000000000e+00  0.0000000000000000e+00 0.0000000000000000e+00 0.0000000000000000e+00  2.0463633253136502e-06 -1.0456411121646794e-08 0.0000000000000000e+00  4.2079081191028166e-06 -2.2592639277983183e-08 0.0000000000000000e+00  6.6111017661765140e-06 -3.8487955381839166e-08 0.0000000000000000e+00  9.4069927972520464e-06 -6.1154415211005307e-08 0.0000000000000000e+00  1.2789116277573086e-05 -9.5404004684625192e-08 0.0000000000000000e+00  1.7019939777675572e-05 -1.4941693087410921e-07 0.0000000000000000e+00  2.2472541086228365e-05 -2.3777294099361625e-07 0.0000000000000000e+00  2.9699583814430628e-05 -3.8763189294910647e-07 0.0000000000000000e+00  3.9552284306261378e-05 -6.5200671353768208e-07 0.0000000000000000e+00  5.3393274664808694e-05 -1.1398355337971009e-06 0.0000000000000000e+00  7.3489037055098804e-05 -2.0878778721590022e-06 0.0000000000000000e+00  1.0374332354588301e-04 -4.0411592687536200e-06 0.0000000000000000e+00  1.5103019325743812e-04 -8.3208914686781500e-06 0.0000000000000000e+00  2.2728262429897288e-04 -1.8232178051087574e-05 0.0000000000000000e+00  3.5093160458438225e-04 -4.1895388367711028e-05 0.0000000000000000e+00  5.3855559819861122e-04 -9.6605397434439729e-05 0.0000000000000000e+00  0.0000000000000000e+00 0.0000000000000000e+00 0.0000000000000000e+00  0.0000000000000000e+00 0.0000000000000000e+00 0.0000000000000000e+00  0.0000000000000000e+00 0.0000000000000000e+00 0.0000000000000000e+00  0.0000000000000000e+00 0.0000000000000000e+00 0.0000000000000000e+00  0.0000000000000000e+00 0.0000000000000000e+00 0.0000000000000000e+00  0.0000000000000000e+00 0.0000000000000000e+00 0.0000000000000000e+00  0.0000000000000000e+00 0.0000000000000000e+00 0.0000000000000000e+00  0.0000000000000000e+00 0.0000000000000000e+00 0.0000000000000000e+00  0.0000000000000000e+00 0.0000000000000000e+00 0.0000000000000000e+00  0.0000000000000000e+00 0.0000000000000000e+00 0.0000000000000000e+00  0.0000000000000000e+00 0.0000000000000