<?xml version="1.0"?>
<VTKFile type="UnstructuredGrid"  version="0.1"  >
<UnstructuredGrid>
<Piece  NumberOfPoints="289" NumberOfCells="512">
<Points>
<DataArray  type="Float64"  NumberOfComponents="3"  format="ascii">0 0 0  0.0625 0 0  0.125 0 0  0.1875 0 0  0.25 0 0  0.3125 0 0  0.375 0 0  0.4375 0 0  0.5 0 0  0.5625 0 0  0.625 0 0  0.6875 0 0  0.75 0 0  0.8125 0 0  0.875 0 0  0.9375 0 0  1 0 0  0 0.0625 0  0.0624324698416586 0.06249883142861119 0  0.1248630132265886 0.06249764626753671 0  0.1872897112992793 0.06249643124409793 0  0.2497106701694501 0.06249518033285541 0  0.3121240522892885 0.06249389990710934 0  0.3745281301799466 0.06249261585368463 0  0.4369213681660104 0.06249138353051155 0  0.4993025329974328 0.06249030171411539 0  0.5616708217648483 0.06248953235762521 0  0.6240259638250383 0.06248933017621919 0  0.6863681689364888 0.06249009404359048 0  0.7486975461246693 0.0624924824707772 0  0.8110118077489787 0.06249775574278073 0  0.8732981382111986 0.0625090104846879 0  0.9355035410274229 0.0625362023379569 0  0.9974197102739178 0.06261847722129273 0  0 0.125 0  0.06236693366556058 0.124997680054684 0  0.1247300144105932 0.1249953236696321 0  0.1870853979655497 0.1249929004451694 0  0.2494292767008508 0.1249903932365666 0  0.3117579361637758 0.1249878077059714 0  0.3740678580559375 0.1249851856278792 0  0.436355884331048 0.1249826235665209 0  0.4986194522634798 0.1249802987832131 0  0.5608568974256207 0.1249785044667201 0  0.6230677925297512 0.1249776966275932 0  0.6852532308792633 0.1249785550082815 0  0.7474158540361295 0.124982056593691 0  0.8095592787645037 0.1249895259035237 0  0.8716867605512399 0.1250023932153189 0  0.9338021306728913 0.1250199836764325 0  0.9959389277581121 0.1250255123639344 0  0 0.1875 0  0.06230532060482572 0.1874965657380756 0  0.1246048598133808 0.1874930691980529 0  0.1868928319552771 0.1874894557354422 0  0.2491634708866107 0.1874856876130707 0  0.3114110969249337 0.187481756550148 0  0.3736302555007001 0.1874777015775778 0  0.4358159549320357 0.1874736345305202 0  0.4979640301077367 0.1874697757459121 0  0.5600716530896686 0.1874665023436176 0  0.6221379978831038 0.1874644101474046 0  0.6841650462369503 0.1874643862862471 0  0.7461585151608643 0.1874676793047616 0  0.808128984184492 0.1874759307896674 0  0.8700937930314292 0.1874911026363436 0  0.9320818692004456 0.1875153858230393 0  0.9941463676389096 0.1875532448974585 0  0 0.25 0  0.06224956230429093 0.2499955143346277 0  0.1244914250821989 0.2499909329703345 0  0.1867178505669233 0.2499861678671333 0  0.2489210593791977 0.2499811482563137 0  0.3110932832343922 0.2499758341949597 0  0.3732269129827876 0.2499702366471613 0  0.4353147843025512 0.2499644472308658 0  0.4973506494946585 0.2499586813418394 0  0.5593298872591149 0.2499533384857573 0  0.6212505003428466 0.2499490823754923 0  0.6831144432832785 0.2499469388782588 0  0.7449293187132793 0.2499483993799195 0  0.8067105144916861 0.2499554981226063 0  0.8684839921706266 0.2499708103040691 0  0.9302901967927274 0.2499973250352738 0  0.9921894144927316 0.2500381509977672 0  0 0.3125 0  0.06220157993968028 0.3124945592967723 0  0.1243935864620459 0.3124889818709242 0  0.1865663470776959 0.3124831368272032 0  0.2487100293593242 0.3124769069608158 0  0.3108146446770433 0.3124702008000595 0  0.3728701646067277 0.3124629718173003 0  0.4348668073172178 0.3124552487878228 0  0.4967955662901227 0.3124471826237891 0  0.5586490683696625 0.3124391163878915 0  0.6204228566812491 0.3124316857626527 0  0.682117186817579 0.3124259550638552 0  0.7437393875473116 0.3124235850825239 0  0.8053067495272396 0.3124270071283759 0  0.8668497299879282 0.3124395328431983 0  0.9284148962534819 0.3124652416215152 0  0.9900661628074294 0.3125082727412851 0  0 0.375 0  0.06216324975624461 0.3749937416945412 0  0.1243151577752673 0.3749872998831625 0  0.186444192320223 0.3749804931358479 0  0.2485384779928936 0.3749731459662091 0  0.3105857071568457 0.3749650964686696 0  0.3725731690772523 0.3749562107645321 0  0.4344879664695818 0.374946408789695 0  0.496317515849857 0.3749357083728934 0  0.5580504591951498 0.3749242980236496 0  0.6196781423493407 0.3749126531658841 0  0.681196822732557 0.3749017142957718 0  0.742610720925272 0.3748931443726813 0  0.803935870336313 0.374889666683207 0  0.8652043675241508 0.3748954356365193 0  0.9264680053533063 0.374916292503497 0  0.9877993704744956 0.3749596346702726 0  0 0.4375 0  0.06213634138455746 0.43749310836391 0  0.1242597703142502 0.4374859844496298 0  0.1863570643580428 0.4374783926373909 0  0.2484144086971554 0.437470091770892 0  0.3104171672033 0.4374608354709922 0  0.3723497568685104 0.4374503774178725 0  0.434195700957958 0.4374384858551632 0  0.4959379770136584 0.4374249748999263 0  0.5575598309524541 0.4374097660242127 0  0.6190462933795248 0.4373930024990039 0  0.6803866903640098 0.4373752533315869 0  0.7415784417338023 0.4373578589340496 0  0.8026322932064752 0.4373434769443685 0  0.8635786914202115 0.4373368515194614 0  0.924474144364847 0.4373456902014121 0  0.9854051780963379 0.4373812102677618 0  0 0.5 0  0.06212242578531269 0.4999927081200424 0  0.1242306876474811 0.499985138643879 0  0.1863101697486217 0.499977004192347 0  0.2483453631477773 0.4999679979265279 0  0.3103194508225423 0.499957784221701 0  0.3722139550646703 0.4999459907218327 0  0.4340085153821082 0.4999322043260096 0  0.495680919098083 0.4999159769980132 0  0.5572075909465135 0.4998968542490826 0  0.6185648689610067 0.4998744530156734 0  0.6797315466602002 0.4998486415220289 0  0.7406933047586775 0.4998199169037184 0  0.8014496665810255 0.4997901343124879 0  0.86202372453237 0.4997637788983029 0  0.9224736876415279 0.4997498709667156 0  0.9829030323946436 0.4997641077400745 0  0 0.5625 0  0.06212275393888168 0.5624925862960863 0  0.124230555795704 0.5624848596027761 0  0.1863078521800551 0.5624764907043535 0  0.2483378730243495 0.5624671167519246 0  0.3103019978797051 0.5624563214274525 0  0.3721791121996802 0.5624436114704854 0  0.4339449939318351 0.5624283887405273 0  0.4955718301070583 0.5624099186047614 0  0.5570280704940359 0.5623873004380702 0  0.6182790094905248 0.5623594594605557 0  0.6792887801768673 0.5623252119159826 0  0.7400248539118048 0.5622835282171526 0  0.8004665677282229 0.5622342603140654 0  0.8606192595354536 0.5621798195380132 0  0.9205342956769403 0.5621284606139383 0  0.9803310096168137 0.5620993956788167 0  0 0.625 0  0.06213811341179835 0.6249927782614688 0  0.1242611016652567 0.6249852245357068 0  0.1863531036276931 0.6249769854163575 0  0.248396741702832 0.6249676622558239 0  0.31037226389561 0.6249567821938266 0  0.3722565739387188 0.6249437602967344 0  0.4340221352952294 0.6249278475415098 0  0.4956357807643162 0.624908057285263 0  0.5570575635799883 0.6248830611550339 0  0.6182400052065828 0.6248510479774138 0  0.6791285258573747 0.6248095594863656 0  0.7396646218873739 0.624755390430027 0  0.7997945829024822 0.6246848550964637 0  0.8594879758356752 0.6245952385777458 0  0.9187702526338626 0.6244891905495698 0  0.9777682788695238 0.6243844403757152 0  0 0.6875 0  0.06216867732387845 0.6874933029546521 0  0.1243228085487424 0.6874862765308088 0  0.1864470197187031 0.687478567164202 0  0.2485242056512562 0.6874697697537028 0  0.310534484622427 0.6874593934520656 0  0.3724539232526425 0.6874468150446055 0  0.434252937353505 0.6874312109912047 0  0.4958942781234082 0.6874114527340194 0  0.5573305609696471 0.6873859380319104 0  0.6185014602541871 0.6873523111754551 0  0.6793311412601581 0.6873069985595178 0  0.7397275668537369 0.6872444794568895 0  0.7995876009105268 0.6871563453631016 0  0.8588160641362999 0.6870308859994371 0  0.9173724972083025 0.6868562579471228 0  0.9753583463086366 0.6866354720618773 0  0 0.75 0  0.06221386790057643 0.7499941576914223 0  0.1244146148947521 0.7499880129902057 0  0.1865882724204442 0.74998123968663 0  0.2487190773584774 0.7499734607645152 0  0.3107883295582727 0.7499642146321636 0  0.3727729142022047 0.7499529090254003 0  0.4346433046278892 0.7499387533468997 0  0.4963607939347242 0.7499206520571199 0  0.5578736273565927 0.7498970234182807 0  0.6191116695409318 0.7498654660654118 0  0.6799794001057203 0.7498221020386243 0  0.7403478506847928 0.7497602297492683 0  0.8000488210732241 0.7496675938747617 0  0.8588823501078965 0.7495214277398875 0  0.9166665790345254 0.7492827906350294 0  0.9733859602303061 0.7489096964961119 0  0 0.8125 0  0.06227226269813029 0.8124953154231451 0  0.1245336971866132 0.8124903794352941 0  0.1867727030148441 0.8124849202698533 0  0.2489760283764715 0.8124786230026596 0  0.3111276730748271 0.8124711018255676 0  0.373207403307059 0.8124618639709773 0  0.4351886268299035 0.812450260416322 0  0.497035232656662 0.8124354149280671 0  0.5586967599979821 0.8124161130010688 0  0.620100881182852 0.8123906010566301 0  0.6811416408069657 0.8123561452752053 0  0.7416613578958344 0.812307873876374 0  0.8014246230683497 0.812235405410348 0  0.8600890801677469 0.8121126942667712 0  0.9172089600964844 0.8118677067470295 0  0.9724460888706002 0.8112932023190055 0  0 0.875 0  0.06234157293021433 0.8749967251423498 0  0.1246754032432329 0.8749932703634973 0  0.1869931550106484 0.8749894411818556 0  0.2492852138689642 0.8749850126071308 0  0.3115398099764809 0.8749797108299218 0  0.3737417895129973 0.874973192063531 0  0.435870781676662 0.8749650201815671 0  0.4978983274114183 0.8749546504860879 0  0.5597831925820302 0.8749414412972563 0  0.6214634206649593 0.8749247483631613 0  0.6828423488621959 0.8749042246248883 0  0.7437630930054984 0.8748805434356138 0  0.8039603621016839 0.8748566926390607 0  0.8629668892322769 0.8748385953066548 0  0.9199314169096187 0.8748258480415094 0  0.973304017517527 0.8747450133062934 0  0 0.9375 0  0.06241871729737721 0.9374983153764664 0  0.1248333914496698 0.937496537001633 0  0.1872396552467258 0.9374945636301539 0  0.2496324397525455 0.9374922785150803 0  0.3120054827633923 0.9374895408371042 0  0.3743506250168518 0.9374861775184407 0  0.4366567312638229 0.9
[...]
<PointData  Vectors="f_54"> 
<DataArray  type="Float64"  Name="f_54"  NumberOfComponents="3" format="ascii">0.0000000000000000e+00 0.0000000000000000e+00 0.0000000000000000e+00  0.0000000000000000e+00 0.0000000000000000e+00 0.0000000000000000e+00  0.0000000000000000e+00 0.0000000000000000e+00 0.0000000000000000e+00  0.0000000000000000e+00 0.0000000000000000e+00 0.0000000000000000e+00  0.0000000000000000e+00 0.0000000000000000e+00 0.0000000000000000e+00  0.0000000000000000e+00 0.0000000000000000e+00 0.0000000000000000e+00  0.0000000000000000e+00 0.0000000000000000e+00 0.0000000000000000e+00  0.0000000000000000e+00 0.0000000000000000e+00 0.0000000000000000e+00  0.0000000000000000e+00 0.0000000000000000e+00 0.0000000000000000e+00  0.0000000000000000e+00 0.0000000000000000e+00 0.0000000000000000e+00  0.0000000000000000e+00 0.0000000000000000e+00 0.0000000000000000e+00  0.0000000000000000e+00 0.0000000000000000e+00 0.0000000000000000e+00  0.0000000000000000e+00 0.0000000000000000e+00 0.0000000000000000e+00  0.0000000000000000e+00 0.0000000000000000e+00 0.0000000000000000e+00  0.0000000000000000e+00 0.0000000000000000e+00 0.0000000000000000e+00  0.0000000000000000e+00 0.0000000000000000e+00 0.0000000000000000e+00  0.0000000000000000e+00 0.0000000000000000e+00 0.0000000000000000e+00  0.0000000000000000e+00 0.0000000000000000e+00 0.0000000000000000e+00  -4.0797947965854132e-07 -1.8983758930013627e-08 0.0000000000000000e+00  -8.3924135119401376e-07 -3.8501522370911131e-08 0.0000000000000000e+00  -1.3189007193370327e-06 -5.9082969407530441e-08 0.0000000000000000e+00  -1.8759136904840016e-06 -8.1245604747114709e-08 0.0000000000000000e+00  -2.5454492804788398e-06 -1.0547961699584922e-07 0.0000000000000000e+00  -3.3718918527760431e-06 -1.3221937546472022e-07 0.0000000000000000e+00  -4.4128906128984944e-06 -1.6179151553680222e-07 0.0000000000000000e+00  -5.7452385461897645e-06 -1.9432048340761540e-07 0.0000000000000000e+00  -7.4742723028417350e-06 -2.2954965756535022e-07 0.0000000000000000e+00  -9.7508600299252919e-06 -2.6646985618798153e-07 0.0000000000000000e+00  -1.2806610187310223e-05 -3.0242331985463057e-07 0.0000000000000000e+00  -1.7037328028309478e-05 -3.3050374356060873e-07 0.0000000000000000e+00  -2.3226564469830203e-05 -3.3058735185879434e-07 0.0000000000000000e+00  -3.3214547018605452e-05 -2.3415858210270342e-07 0.0000000000000000e+00  -5.2108707553261562e-05 2.2529015522328615e-07 0.0000000000000000e+00  -9.6150294988747465e-05 2.1709002552098101e-06 0.0000000000000000e+00  0.0000000000000000e+00 0.0000000000000000e+00 0.0000000000000000e+00  -7.9174571162970514e-07 -3.7391233414626325e-08 0.0000000000000000e+00  -1.6280393584368803e-06 -7.5850151465098459e-08 0.0000000000000000e+00  -2.5568881821657319e-06 -1.1643881174453334e-07 0.0000000000000000e+00  -3.6335368561149609e-06 -1.6020181634038529e-07 0.0000000000000000e+00  -4.9248939383965926e-06 -2.0814197759253240e-07 0.0000000000000000e+00  -6.5150428185109900e-06 -2.6117368299946051e-07 0.0000000000000000e+00  -8.5124462102406884e-06 -3.2003918079863469e-07 0.0000000000000000e+00  -1.1059846833394063e-05 -3.8516367609351618e-07 0.0000000000000000e+00  -1.4348749500264858e-05 -4.5640942102897299e-07 0.0000000000000000e+00  -1.8642377509992785e-05 -5.3266812375196270e-07 0.0000000000000000e+00  -2.4315503741412004e-05 -6.1123586199262937e-07 0.0000000000000000e+00  -3.1929075612193893e-05 -6.8715492825208764e-07 0.0000000000000000e+00  -4.2373987335050796e-05 -7.5438296473062019e-07 0.0000000000000000e+00  -5.7124449868464418e-05 -8.2030566687931943e-07 0.0000000000000000e+00  -7.8480417429485923e-05 -9.9783629648392512e-07 0.0000000000000000e+00  -1.0837291797028271e-04 -2.0225813276232774e-06 0.0000000000000000e+00  0.0000000000000000e+00 0.0000000000000000e+00 0.0000000000000000e+00  -1.1300093888181402e-06 -5.4688655445385918e-08 0.0000000000000000e+00  -2.3221927064640898e-06 -1.1097967688535065e-07 0.0000000000000000e+00  -3.6434653782412040e-06 -1.7047392102562730e-07 0.0000000000000000e+00  -5.1706480528879263e-06 -2.3476161019986601e-07 0.0000000000000000e+00  -6.9964683203924889e-06 -3.0539827450723420e-07 0.0000000000000000e+00  -9.2369022785502441e-06 -3.8385487304678849e-07 0.0000000000000000e+00  -1.2040440163780968e-05 -4.7142693664195815e-07 0.0000000000000000e+00  -1.5600011939224840e-05 -5.6908023717777599e-07 0.0000000000000000e+00  -2.0168552282314595e-05 -6.7720038864986028e-07 0.0000000000000000e+00  -2.6079525955370326e-05 -7.9520625781804818e-07 0.0000000000000000e+00  -3.3773914061380612e-05 -9.2100662747116574e-07 0.0000000000000000e+00  -4.3833648270317735e-05 -1.0504000561937509e-06 0.0000000000000000e+00  -5.7011909927504560e-05 -1.1768448770432031e-06 0.0000000000000000e+00  -7.4211345856799917e-05 -1.2918923072459735e-06 0.0000000000000000e+00  -9.6234618014851765e-05 -1.3773234333186651e-06 0.0000000000000000e+00  -1.2286305980356747e-04 -1.2937639424137691e-06 0.0000000000000000e+00  0.0000000000000000e+00 0.0000000000000000e+00 0.0000000000000000e+00  -1.4051123455425558e-06 -7.0341133609142739e-08 0.0000000000000000e+00  -2.8851071309356673e-06 -1.4281610085778134e-07 0.0000000000000000e+00  -4.5204477435185002e-06 -2.1956795178373921e-07 0.0000000000000000e+00  -6.4032539174017128e-06 -3.0275036493564284e-07 0.0000000000000000e+00  -8.6443404084882870e-06 -3.9451422511116871e-07 0.0000000000000000e+00  -1.1381743848022200e-05 -4.9696951064349972e-07 0.0000000000000000e+00  -1.4791239200971980e-05 -6.1210986151500007e-07 0.0000000000000000e+00  -1.9099237564990955e-05 -7.4168180977284081e-07 0.0000000000000000e+00  -2.4598094139745652e-05 -8.8697083045265271e-07 0.0000000000000000e+00  -3.1662889474509247e-05 -1.0484579047471127e-06 0.0000000000000000e+00  -4.0766364115250689e-05 -1.2252629413965356e-06 0.0000000000000000e+00  -5.2482994933527387e-05 -1.4141999181321652e-06 0.0000000000000000e+00  -6.7460084364464438e-05 -1.6079765869291205e-06 0.0000000000000000e+00  -8.6305899291688434e-05 -1.7910183334345614e-06 0.0000000000000000e+00  -1.0929723901829761e-04 -1.9281344673335230e-06 0.0000000000000000e+00  -1.3577390119966218e-04 -1.9380771190738683e-06 0.0000000000000000e+00  0.0000000000000000e+00 0.0000000000000000e+00 0.0000000000000000e+00  -1.6043211692665853e-06 -8.3816738367717402e-08 0.0000000000000000e+00  -3.2904808256915091e-06 -1.7028460838180243e-07 0.0000000000000000e+00  -5.1462280314407939e-06 -2.6208133939080810e-07 0.0000000000000000e+00  -7.2716797647608796e-06 -3.6193072179498503e-07 0.0000000000000000e+00  -9.7868405362867729e-06 -4.7260896974163925e-07 0.0000000000000000e+00  -1.2840757452195615e-05 -5.9693056525620393e-07 0.0000000000000000e+00  -1.6622830572740031e-05 -7.3770582243462880e-07 0.0000000000000000e+00  -2.1376596135408303e-05 -8.9766099164843977e-07 0.0000000000000000e+00  -2.7415716592859027e-05 -1.0793063915034971e-06 0.0000000000000000e+00  -3.5140531350076689e-05 -1.2847193978318913e-06 0.0000000000000000e+00  -4.5050610167582378e-05 -1.5151527383587125e-06 0.0000000000000000e+00  -5.7743159822598650e-05 -1.7702298873896511e-06 0.0000000000000000e+00  -7.3877577548465742e-05 -2.0461527534385530e-06 0.0000000000000000e+00  -9.4073277375551054e-05 -2.3317719789652665e-06 0.0000000000000000e+00  -1.1869939262895770e-04 -2.6012254790552841e-06 0.0000000000000000e+00  -1.4754258330125416e-04 -2.8066667619992907e-06 0.0000000000000000e+00  0.0000000000000000e+00 0.0000000000000000e+00 0.0000000000000000e+00  -1.7206776186998288e-06 -9.4597319722272885e-08 0.0000000000000000e+00  -3.5240724920118852e-06 -1.9233115159518016e-07 0.0000000000000000e+00  -5.4985850386610130e-06 -2.9638792482286917e-07 0.0000000000000000e+00  -7.7445596149227786e-06 -4.1004774557564044e-07 0.0000000000000000e+00  -1.0381684604970615e-05 -5.3671711132063088e-07 0.0000000000000000e+00  -1.3558203222567214e-05 -6.7994572994477813e-07 0.0000000000000000e+00  -1.7462636819975164e-05 -8.4342526218187152e-07 0.0000000000000000e+00  -2.2338656548896713e-05 -1.0309732249061523e-06 0.0000000000000000e+00  -2.8503373614929316e-05 -1.2465135491505239e-06 0.0000000000000000e+00  -3.6368302474511483e-05 -1.4940705611258018e-06 0.0000000000000000e+00  -4.6460009889664600e-05 -1.7777727817059624e-06 0.0000000000000000e+00  -5.9433231695368327e-05 -2.1017553556006843e-06 0.0000000000000000e+00  -7.6062477984274751e-05 -2.4695225659045633e-06 0.0000000000000000e+00  -9.7189927201923944e-05 -2.8815596832009146e-06 0.0000000000000000e+00  -1.2360353887049842e-04 -3.3284465840216266e-06 0.0000000000000000e+00  -1.5583428602246739e-04 -3.7734777976183143e-06 0.0000000000000000e+00  0.0000000000000000e+00 0.0000000000000000e+00 0.0000000000000000e+00  -1.7533342602195948e-06 -1.0219614119561601e-07 0.0000000000000000e+00  -3.5844203869594109e-06 -2.0795844126011760e-07 0.0000000000000000e+00  -5.5758830673912029e-06 -3.2093128504300646e-07 0.0000000000000000e+00  -7.8206579492671849e-06 -4.4491016630341948e-07 0.0000000000000000e+00  -1.0428576055587680e-05 -5.8390463592110917e-07 0.0000000000000000e+00  -1.3534877175595268e-05 -7.4218723921556887e-07 0.0000000000000000e+00  -1.7311643681832195e-05 -9.2432868736295951e-07 0.0000000000000000e+00  -2.1983409608482206e-05 -1.1352314546956077e-06 0.0000000000000000e+00  -2.7848410419881056e-05 -1.3802008326754613e-06 0.0000000000000000e+00  -3.5306869685384110e-05 -1.6651426801087647e-06 0.0000000000000000e+00  -4.4896897077218158e-05 -1.9970513537301682e-06 0.0000000000000000e+00  -5.7336138560010194e-05 -2.3850130731349039e-06 0.0000000000000000e+00  -7.3561962153358840e-05 -2.8418537324656722e-06 0.0000000000000000e+00  -9.4753261107267622e-05 -3.3859200836634557e-06 0.0000000000000000e+00  -1.2230289677472799e-04 -4.0405588568027752e-06 0.0000000000000000e+00  -1.5769621684092670e-04 -4.8249376393126162e-06 0.0000000000000000e+00  0.0000000000000000e+00 0.0000000000000000e+00 0.0000000000000000e+00  -1.7073241281083241e-06 -1.0618163055052402e-07 0.0000000000000000e+00  -3.4824086103757819e-06 -2.1627440781896565e-07 0.0000000000000000e+00  -5.3965104334012505e-06 -3.3430025128383707e-07 0.0000000000000000e+00  -7.5283530803498465e-06 -4.6449798313183290e-07 0.0000000000000000e+00  -9.9690897920585785e-06 -6.1141951443227865e-07 0.0000000000000000e+00  -1.2829077530836853e-05 -7.8000936738603245e-07 0.0000000000000000e+00  -1.6247695034953983e-05 -9.7566219987828955e-07 0.0000000000000000e+00  -2.0408121767628917e-05 -1.2042637753240617e-06 0.0000000000000000e+00  -2.5560000601281909e-05 -1.4722564845596787e-06 0.0000000000000000e+00  -3.2054233097659056e-05 -1.7868618820864255e-06 0.0000000000000000e+00  -4.0395544561270469e-05 -2.1567909193613384e-06 0.0000000000000000e+00  -5.1318975240513168e-05 -2.5941344243672784e-06 0.0000000000000000e+00  -6.5893681716969700e-05 -3.1186231374349553e-06 0.0000000000000000e+00  -8.5646256702786292e-05 -3.7656662498861664e-06 0.0000000000000000e+00  -1.1266797789204056e-04 -4.5980643317257882e-06 0.0000000000000000e+00  -1.4961973156448678e-04 -5.7149372043436082e-06 0.0000000000000000e+00  0.0000000000000000e+00 0.0000000000000000e+00 0.0000000000000000e+00  -1.5927357335854337e-06 -1.0620630805215399e-07 0.0000000000000000e+00  -3.2396014497873060e-06 -2.1655081807165715e-07 0.0000000000000000e+00  -4.9963787543194067e-06 -3.3531862037433206e-07 0.0000000000000000e+00  -6.9224188653539159e-06 -4.6708552461183985e-07 0.0000000000000000e+00  -9.0831474264568161e-06 -6.1685301190428124e-07 0.0000000000000000e+00  -1.1553817347140030e-05 -7.9016222614436549e-07 0.0000000000000000e+00  -1.4425720333326390e-05 -9.9316643888187574e-07 0.0000000000000000e+00  -1.7817094172627625e-05 -1.2326350862180496e-06 0.0000000000000000e+00  -2.1892747520844849e-05 -1.5158747816902838e-06 0.0000000000000000e+00  -2.6899355251263229e-05 -1.8506302064535794e-06 0.0000000000000000e+00  -3.3227792536634416e-05 -2.2452829888120539e-06 0.0000000000000000e+00  -4.1519526399807167e-05 -2.7103311320655103e-06 0.0000000000000000e+00  -5.2838643048331683e-05 -3.2635713207451181e-06 0.0000000000000000e+00  -6.8926688142179846e-05 -3.9438343051777012e-06 0.0000000000000000e+00  -9.2524660356322437e-05 -4.8401482621436191e-06 0.0000000000000000e+00  -1.2765111821054929e-04 -6.1376633348375783e-06 0.0000000000000000e+00  0.0000000000000000e+00 0.0000000000000000e+00 0.0000000000000000e+00  -1.4233097396836980e-06 -1.0204015741099332e-07 0.0000000000000000e+00  -2.8853409627839462e-06 -2.0829068500147579e-07 0.0000000000000000e+00  -4.4243655513143454e-06 -3.2314686268960365e-07 0.0000000000000000e+00  -6.0776917699498538e-06 -4.5137510814820694e-07 0.0000000000000000e+00  -7.8810353624600250e-06 -5.9829740507472902e-07 0.0000000000000000e+00  -9.8679994677438890e-06 -7.6995883741349164e-07 0.0000000000000000e+00  -1.2070374247460013e-05 -9.7324031004414139e-07 0.0000000000000000e+00  -1.4521029549390286e-05 -1.2158385326089672e-06 0.0000000000000000e+00  -1.7263322057520223e-05 -1.5059769951446109e-06 0.0000000000000000e+00  -2.0375079352300125e-05 -1.8516598930278006e-06 0.0000000000000000e+00  -2.4022779103714084e-05 -2.2593525006447606e-06 0.0000000000000000e+00  -2.8574327997070816e-05 -2.7325442259562751e-06 0.0000000000000000e+00  -3.4817877315532527e-05 -3.2727269223608984e-06 0.0000000000000000e+00  -4.4354827144399519e-05 -3.8910412173266900e-06 0.0000000000000000e+00  -6.0232461684289447e-05 -4.6508988934451081e-06 0.0000000000000000e+00  -8.7776692655220406e-05 -5.7746690667565709e-06 0.0000000000000000e+00  0.0000000000000000e+00 0.0000000000000000e+00 0.0000000000000000e+00  -1.2145564855185379e-06 -9.3607799200115914e-08 0.0000000000000000e+00  -2.4527697900561824e-06 -1.9130427040373889e-07 0.0000000000000000e+00  -3.7358278583921838e-06 -2.9739828616203844e-07 0.0000000000000000e+00  -5.0795022113327204e-06 -4.1664936266823909e-07 0.0000000000000000e+00  -6.4901600534472672e-06 -5.5451495147711033e-07 0.0000000000000000e+00  -7.9592376691324193e-06 -7.1740793624436095e-07 0.0000000000000000e+00  -9.4558122472764794e-06 -9.1292686713173260e-07 0.0000000000000000e+00  -1.0917468496835530e-05 -1.1499501077552289e-06 0.0000000000000000e+00  -1.2241227788923417e-05 -1.4383327162523762e-06 0.0000000000000000e+00  -1.3280173773559453e-05 -1.7876484891877373e-06 0.0000000000000000e+00  -1.3860178326072658e-05 -2.2039282684446637e-06 0.0000000000000000e+00  -1.3849804892385282e-05 -2.6828144911728410e-06 0.0000000000000000e+00  -1.3353740366893485e-05 -3.1980783447714866e-06 0.0000000000000000e+00  -1.3167862457233475e-05 -3.6904123726705992e-06 0.0000000000000000e+00  -1.5732494804861524e-05 -4.0867050087434287e-06 0.0000000000000000e+00  -2.6845007589085506e-05 -4.4555009933910468e-06 0.0000000000000000e+00  0.0000000000000000e+00 0.0000000000000000e+00 0.0000000000000000e+00  -9.8161259395073910e-07 -8.1027816532311222e-08 0.0000000000000000e+00  -1.9742050388998966e-06 -1.6579238075215973e-07 0.0000000000000000e+00  -2.9847746967172047e-06 -2.5827378789351136e-07 0.0000000000000000e+00  -4.0114782741589146e-06 -3.6296204939193436e-07 0.0000000000000000e+00  -5.0368046363676564e-06 -4.8517148915720714e-07 0.0000000000000000e+00  -6.0174212981424084e-06 -6.3142375041908731e-07 0.0000000000000000e+00  -6.8688482028440467e-06 -8.0990446515189542e-07 0.0000000000000000e+00  -7.4425542976134283e-06 -1.0309402258519892e-06 0.0000000000000000e+00  -7.4927493052551830e-06 -1.3072674301541261e-06 0.0000000000000000e+00  -6.6310494037731711e-06 -1.6533910168024565e-06 0.0000000000000000e+00  -4.2720730598004783e-06 -2.0821488936947421e-06 0.0000000000000000e+00  4.1109174022460521e-07 -2.5939016628257434e-06 0.0000000000000000e+00  8.4584699108612664e-06 -3.1484441652688222e-06 0.0000000000000000e+00  2.0845252948151643e-05 -3.6024528695928738e-06 0.0000000000000000e+00  3.7499951914829860e-05 -3.6018511777192017e-06 0.0000000000000000e+00  5.4558797786525815e-05 -2.5529482396805710e-06 0.0000000000000000e+00  0.0000000000000000e+00 0.0000000000000000e+00 0.0000000000000000e+00  -7.3718328387574539e-07 -6.4649532175815661e-08 0.0000000000000000e+00  -1.4765963517859911e-06 -1.3242939258354375e-07 0.0000000000000000e+00  -2.2158862150138010e-06 -2.0671058832381407e-07 0.0000000000000000e+00  -2.9424227834972712e-06 -2.9138100791067906e-07 0.0000000000000000e+00  -3.6250460311827264e-06 -3.9120237276292510e-07 0.0000000000000000e+00  -4.2012184727490200e-06 -5.1230991072364312e-07 0.0000000000000000e+00  -4.5563733942608421e-06 -6.6294684501801071e-07 0.0000000000000000e+00  -4.4902769256429692e-06 -8.5456178202022238e-07 0.0000000000000000e+00  -3.6620257445155992e-06 -1.1034028562470631e-06 0.0000000000000000e+00  -1.5004776095410102e-06 -1.4325634786451186e-06 0.0000000000000000e+00  2.9392874272686536e-06 -1.8735213927717999e-06 0.0000000000000000e+00  1.1197177839302049e-05 -2.4627814125683183e-06 0.0000000000000000e+00  2.5719057789044704e-05 -3.2178245978090390e-06 0.0000000000000000e+00  5.0192338896688256e-05 -4.0409013299437986e-06 0.0000000000000000e+00  8.9523899093040365e-05 -4.3867133697948968e-06 0.0000000000000000e+00  1.4780267327776058e-04 -2.1062023527583811e-06 0.0000000000000000e+00  0.0000000000000000e+00 0.0000000000000000e+00 0.0000000000000000e+00  -4.9000296710574575e-07 -4.5077628677053839e-08 0.0000000000000000e+00  -9.7803557746124436e-07 -9.2426293388878571e-08 0.0000000000000000e+00  -1.4581030059105497e-06 -1.4451615679699750e-07 0.0000000000000000e+00  -1.9151089197476645e-06 -2.0425444769930376e-07 0.0000000000000000e+00  -2.3173125002462103e-06 -2.7531702429987074e-07 0.0000000000000000e+00  -2.6041810715994537e-06 -3.6266428527234256e-07 0.0000000000000000e+00  -2.6659895703297296e-06 -4.7341376623283200e-07 0.0000000000000000e+00  -2.3086663399173748e-06 -6.1841480833972672e-07 0.0000000000000000e+00  -1.1919753307069223e-06 -8.1524079451700510e-07 0.0000000000000000e+00  1.2811808076938634e-06 -1.0941011848648853e-06 0.0000000000000000e+00  6.1662304244459753e-06 -1.5097988525246916e-06 0.0000000000000000e+00  1.5348534062133624e-05 -2.1659785485480750e-06 0.0000000000000000e+00  3.2234807030187256e-05 -3.2631307148490552e-06 0.0000000000000000e+00  6.3036967607884439e-05 -5.1886303232717703e-06 0.0000000000000000e+00  1.1905268289232602e-04 -8.6732592452239766e-06 0.0000000000000000e+00  2.1991552053031002e-04 -1.5031291443220586e-05 0.0000000000000000e+00  0.0000000000000000e+00 0.0000000000000000e+00 0.0000000000000000e+00  -2.4422724642080975e-07 -2.3170640965926420e-08 0.0000000000000000e+00  -4.8629210552017284e-07 -4.7540906108249929e-08 0.0000000000000000e+00  -7.2167017491949516e-07 -7.4425218862350443e-08 0.0000000000000000e+00  -9.4046208396194454e-07 -1.0539390511228471e-07 0.0000000000000000e+00  -1.1228370457982344e-06 -1.4248008280975455e-07 0.0000000000000000e+00  -1.2315209655862405e-06 -1.8852425158668653e-07 0.0000000000000000e+00  -1.1988038244944523e-06 -2.4780894659603372e-07 0.0000000000000000e+00  -9.0331531855323954e-07 -3.2733140941187854e-07 0.0000000000000000e+00  -1.2731941135557931e-07 -4.3955937624382305e-07 0.0000000000000000e+00  1.5238350428626054e-06 -6.0883100440128008e-07 0.0000000000000000e+00  4.7764537259953870e-06 -8.8715066854519121e-07 0.0000000000000000e+00  1.0985558172208980e-05 -1.3950157132690169e-06 0.0000000000000000e+00  2.2677765841138143e-05 -2.4291444884334498e-06 0.0000000000000000e+00  4.4369000304009125e-05 -4.7389575935575676e-06 0.0000000000000000e+00  8.2937282455999937e-05 -1.0143695813805309e-05 0.0000000000000000e+00  1.4369191115591601e-04 -2.2312699894607096e-05 0.0000000000000000e+00  0.0000000000000000e+00 0.0000000000000000e+00 0.0000000000000000e+00  0.0000000000000000e+00 0.0000000000000000e+00 0.0000000000000000e+00  0.0000000000000000e+00 0.0000000000000000e+00 0.0000000000000000e+00  0.0000000000000000e+00 0.0000000000000000e+00 0.0000000000000000e+00  0.0000000000000000e+00 0.0000000000000000e+00 0.0000000000000000e+00  0.0000000000000000e+00 0.0000000000000000e+00 0.0