<?xml version="1.0"?>
<VTKFile type="UnstructuredGrid"  version="0.1"  >
<UnstructuredGrid>
<Piece  NumberOfPoints="289" NumberOfCells="512">
<Points>
<DataArray  type="Float64"  NumberOfComponents="3"  format="ascii">0 0 0  0.0625 0 0  0.125 0 0  0.1875 0 0  0.25 0 0  0.3125 0 0  0.375 0 0  0.4375 0 0  0.5 0 0  0.5625 0 0  0.625 0 0  0.6875 0 0  0.75 0 0  0.8125 0 0  0.875 0 0  0.9375 0 0  1 0 0  0 0.0625 0  0.0625751467349332 0.06249105847850771 0  0.1251528552301152 0.06248191826043185 0  0.1877357662127725 0.06247238838574105 0  0.2503266434466037 0.06246229705897163 0  0.3129284380350288 0.06245150391871205 0  0.3755443585829187 0.06243991452428405 0  0.4381779586182672 0.0624274952487557 0  0.5008332695878508 0.06241428270513089 0  0.5635150488561621 0.06240037314242246 0  0.6262293163978259 0.06238585805046119 0  0.6889846344455738 0.06237062656983024 0  0.7517953919243535 0.06235383455537463 0  0.814690836014505 0.06233248153195507 0  0.8777416470293569 0.06229736829315185 0  0.9411432364477377 0.06222078506854625 0  1.005493153676461 0.06201979286822968 0  0 0.125 0  0.06264775273896206 0.1249823140267371 0  0.1253005849671516 0.1249642210595665 0  0.1879637363642544 0.1249453283701993 0  0.2506427014805616 0.1249252791787724 0  0.3133433625893106 0.1249037769447443 0  0.3760721321968342 0.1248806159150134 0  0.438836121874652 0.1248557164545075 0  0.5016433761881497 0.1248291580244508 0  0.5645032586367816 0.124801191291428 0  0.6274271793228412 0.1247721891485435 0  0.69043006558789 0.1247424580928708 0  0.7535333686221579 0.1247117758385141 0  0.8167708862556438 0.1246785018898419 0  0.8801979121245548 0.1246384811478319 0  0.9438939176889624 0.1245864899290408 0  1.007888416504674 0.1245347897087618 0  0 0.1875 0  0.0627152965365091 0.1874739761195113 0  0.1254380813259756 0.1874473196812987 0  0.1881760837948888 0.1874194163425562 0  0.2509374271899077 0.1873896992189955 0  0.3137308314902946 0.1873576838955706 0  0.3765658243532699 0.187323016379638 0  0.4394529724043597 0.1872855359105563 0  0.5024041590056858 0.1872453501164974 0  0.5654329592873433 0.1872029108940359 0  0.6285551991976253 0.187159062604155 0  0.6917898104075417 0.1871150069307839 0  0.7551599929109721 0.1870720916764237 0  0.8186940550393392 0.1870312898967904 0  0.8824229023542027 0.1869921513715611 0  0.9463646108801503 0.186950341370772 0  1.010477514508353 0.1868879584829969 0  0 0.25 0  0.06277537364533738 0.2499662712711504 0  0.125560466453516 0.249931662353491 0  0.1883653176586549 0.2498953108668566 0  0.251200506308503 0.2498564041266612 0  0.3140774267903846 0.2498142210278753 0  0.3770085679834146 0.2497681955007534 0  0.4400077989560375 0.2497180094933094 0  0.5030906648237342 0.2496637225584855 0  0.5662746922695061 0.2496059415886276 0  0.6295796793421257 0.2495460258086135 0  0.6930278512552116 0.2494863059841753 0  0.7566434817378368 0.2494302698409633 0  0.8204508488877592 0.2493826231146042 0  0.8844678451091733 0.2493490637472549 0  0.948690373860134 0.2493355137720299 0  1.013063219932868 0.2493470782644421 0  0 0.3125 0  0.06282576130081909 0.3124594477462594 0  0.1256632220192084 0.3124177455656479 0  0.1885244771116866 0.312373754603352 0  0.2514223149751338 0.3123263739966348 0  0.3143705714225882 0.3122745820029731 0  0.3773844859936536 0.312217507186837 0  0.4404810562712087 0.3121545449929295 0  0.5036793770369097 0.3120855393626524 0  0.5670009298942852 0.3120110535654861 0  0.6304697377787249 0.3119327572910106 0  0.6941121804234572 0.3118539542122586 0  0.7579560174043964 0.3117802575077118 0  0.8220277219873284 0.3117203763787043 0  0.8863467079364376 0.3116868926993042 0  0.9509153171459795 0.3116968307231262 0  1.015707358237495 0.3117720488213411 0  0 0.375 0  0.0628644867161033 0.374953775512733 0  0.1257423256965735 0.3749061160440531 0  0.188647335168716 0.3748555829627576 0  0.2515941867345342 0.3748007458336733 0  0.3145988458941333 0.3747402110359598 0  0.3776790220414507 0.3746726857398349 0  0.440854623774764 0.3745970992804331 0  0.504148204568416 0.3745128144014182 0  0.5675853615701034 0.3744199754103681 0  0.6311950041628144 0.3743200583787676 0  0.6950093177688892 0.3742167056513614 0  0.7590630876660491 0.3741169290752649 0  0.8233918274325174 0.3740327204560882 0  0.8880280419736113 0.3739829529597766 0  0.952995494150171 0.373995112049848 0  1.0183034949371 0.3741057631299224 0  0 0.4375 0  0.0628899004207987 0.4374495393746314 0  0.1257943987016315 0.4373973587225124 0  0.1887286213637179 0.4373417110462878 0  0.2517087087452841 0.4372808077008929 0  0.3147523485715413 0.4372128196343195 0  0.3778793367735726 0.437135912741299 0  0.4411121707093665 0.4370483428982123 0  0.5044766751977521 0.4369486524441595 0  0.5680026531058239 0.4368360353799007 0  0.6317245348498634 0.4367109762282511 0  0.6956819650955675 0.4365763169592481 0  0.759920193916563 0.4364389549638654 0  0.824490019768823 0.4363123775741504 0  0.8894468864819747 0.4362200860046479 0  0.9548486903430762 0.4361994752375695 0  1.020752090100155 0.4363048342409762 0  0 0.5 0  0.06290075490671189 0.4999470236065447 0  0.125816865891613 0.4998920666093707 0  0.1887642685573111 0.4998330906722719 0  0.2517600617251784 0.4997679479224706 0  0.3148231338584247 0.4996943394241183 0  0.3779748434836526 0.4996097972351563 0  0.4412397754200847 0.4995117132479986 0  0.5046466021985859 0.4993974575254512 0  0.5682290971053268 0.4992646630560507 0  0.6320273786854709 0.4991118119480095 0  0.6960895205646875 0.4989393514925942 0  0.7604737195593766 0.4987517028246664 0  0.8252512012501009 0.4985606694460331 0  0.8905097461036908 0.4983907590963305 0  0.9563567830507421 0.4982863912736142 0  1.022919241737364 0.4983191931521483 0  0 0.5625 0  0.0628962861289323 0.5624464875311379 0  0.125808124144879 0.5623907906855983 0  0.1887516791829578 0.5623306325634004 0  0.2517444011537308 0.562263548022916 0  0.3148057326362882 0.5621867875107032 0  0.3779579016129426 0.5620972237872042 0  0.4412268401756701 0.5619912744164073 0  0.5046432925032689 0.5618648704841168 0  0.568244224917858 0.5617135371292274 0  0.6320747553113012 0.5615327206237921 0  0.6961910195176914 0.561318630177877 0  0.7606647162438128 0.5610701092517884 0  0.8255904249611964 0.5607924618120104 0  0.8910966703685783 0.5605046668209952 0  0.9573598073544869 0.5602514101154287 0  1.02461443547772 0.5601190311529979 0  0 0.625 0  0.06287629193158696 0.6249481333327822 0  0.1257677071273941 0.6248939719296026 0  0.1886899928456594 0.6248350953351492 0  0.2516602547901823 0.6247688178954925 0  0.3146977214180135 0.6246920343504907 0  0.3778246217040522 0.6246010397521787 0  0.4410672333192522 0.6244913182897639 0  0.5044571905951503 0.624357303897262 0  0.5680332176650996 0.6241921376368876 0  0.6318436294936191 0.6239875020850453 0  0.6959503390898045 0.6237337467071079 0  0.7604359137165001 0.6234208352520543 0  0.8254165846216728 0.6230413680666071 0  0.8910655092929423 0.6225983955896677 0  0.9576490054293855 0.6221226786192814 0  1.025566558169626 0.6217017668100164 0  0 0.6875 0  0.06284119806642816 0.6874520697179782 0  0.1256964270929896 0.6874018627446219 0  0.188580324201098 0.6873469521269263 0  0.251508890298203 0.6872845867851295 0  0.3145002721269609 0.6872114876490033 0  0.3775756787149998 0.6871235877086126 0  0.4407604966615772 0.687015687834948 0  0.5040856997197751 0.6868809926166349 0  0.5675897245434133 0.6867104843046082 0  0.6313211868586435 0.6864920988705907 0  0.6953433537800918 0.6862097215527956 0  0.7597426801576269 0.6858422358148076 0  0.8246469773726968 0.6853636144250742 0  0.8902650005336004 0.6847475012938707 0  0.9569650421329803 0.6839868529772976 0  1.025394652295547 0.6831496505238601 0  0 0.75 0  0.06279210011305704 0.749958277278021 0  0.1255964691340085 0.7499144503119428 0  0.1884259309984402 0.7498662556869392 0  0.2512945924977834 0.7498110814876277 0  0.3142185927380463 0.7497457366648302 0  0.377216997191989 0.7496661408952257 0  0.4403128996904688 0.7495668867481722 0  0.5035348118863969 0.7494406013446296 0  0.5669184561387074 0.7492769946295961 0  0.6305091948650312 0.7490614168656687 0  0.6943657544653756 0.7487726479167659 0  0.7585674154688588 0.7483795119209233 0  0.8232318926679296 0.7478359026564052 0  0.8885663662984619 0.7470749056093539 0  0.9550103849213172 0.7460107691264602 0  1.023527574183318 0.7446108491165071 0  0 0.8125 0  0.06273076913856665 0.8124665828409079 0  0.1254714120015154 0.8124313980173393 0  0.1882322696568066 0.8123925303774642 0  0.2510247861569969 0.812347738564152 0  0.3138621660023515 0.8122942315953559 0  0.3767601737513124 0.8122283581873593 0  0.4397381341126246 0.8121451514689739 0  0.5028201886078184 0.8120376373979682 0  0.5660368375288614 0.811895754887881 0  0.6294267196909206 0.8117046262159675 0  0.6930384819585504 0.8114417057727062 0  0.7569328770429972 0.8110718996256151 0  0.821188352969727 0.8105387956379488 0  0.8859313172433446 0.8097480739746256 0  0.9514998659801825 0.8085349270872736 0  1.019263495988062 0.8065905882364686 0  0 0.875 0  0.06265961089295835 0.874976649982013 0  0.1253261532269663 0.8749520213020363 0  0.1880069007551169 0.8749247212680352 0  0.2507099473081411 0.8748931033051114 0  0.3134447067579337 0.8748550891295994 0  0.376222535606852 0.8748079163125835 0  0.4390575305911914 0.8747477604014885 0  0.5019675452394079 0.8746691492138008 0  0.5649754043520335 0.8745640325699354 0  0.62811005235495 0.8744202765540501 0  0.6914066256815111 0.8742191810879753 0  0.7549024337605275 0.8739312712203788 0  0.818621388324803 0.873508740585056 0  0.8825344112098393 0.8728705601445406 0  0.9465126201471864 0.8718733227453151 0  1.010666065186163 0.8703022384741471 0  0 0.9375 0  0.06258157283734758 0.9374879907758644 0  0.1251667249382343 0.9374753099267581 0  0.1877592188902765 0.9374612235432227 0  0.2503632605592053 0.9374448585089881 0  0.3129837758050128 0.937425103707365 0  0.3756267645809043 0.9374004681277072 0  0.4382997704136945 0.937368866062154
[...]
<PointData  Vectors="f_54"> 
<DataArray  type="Float64"  Name="f_54"  NumberOfComponents="3" format="ascii">0.0000000000000000e+00 0.0000000000000000e+00 0.0000000000000000e+00  0.0000000000000000e+00 0.0000000000000000e+00 0.0000000000000000e+00  0.0000000000000000e+00 0.0000000000000000e+00 0.0000000000000000e+00  0.0000000000000000e+00 0.0000000000000000e+00 0.0000000000000000e+00  0.0000000000000000e+00 0.0000000000000000e+00 0.0000000000000000e+00  0.0000000000000000e+00 0.0000000000000000e+00 0.0000000000000000e+00  0.0000000000000000e+00 0.0000000000000000e+00 0.0000000000000000e+00  0.0000000000000000e+00 0.0000000000000000e+00 0.0000000000000000e+00  0.0000000000000000e+00 0.0000000000000000e+00 0.0000000000000000e+00  0.0000000000000000e+00 0.0000000000000000e+00 0.0000000000000000e+00  0.0000000000000000e+00 0.0000000000000000e+00 0.0000000000000000e+00  0.0000000000000000e+00 0.0000000000000000e+00 0.0000000000000000e+00  0.0000000000000000e+00 0.0000000000000000e+00 0.0000000000000000e+00  0.0000000000000000e+00 0.0000000000000000e+00 0.0000000000000000e+00  0.0000000000000000e+00 0.0000000000000000e+00 0.0000000000000000e+00  0.0000000000000000e+00 0.0000000000000000e+00 0.0000000000000000e+00  0.0000000000000000e+00 0.0000000000000000e+00 0.0000000000000000e+00  0.0000000000000000e+00 0.0000000000000000e+00 0.0000000000000000e+00  4.3605343423094433e-07 -2.4385178398978720e-08 0.0000000000000000e+00  8.9863180490990950e-07 -4.9923403713789420e-08 0.0000000000000000e+00  1.4167480776952622e-06 -7.7879315517380413e-08 0.0000000000000000e+00  2.0244041571328289e-06 -1.0974697370898438e-07 0.0000000000000000e+00  2.7638250803945565e-06 -1.4742262022030534e-07 0.0000000000000000e+00  3.6897296763499420e-06 -1.9346479998971909e-07 0.0000000000000000e+00  4.8753511064787932e-06 -2.5151037573524651e-07 0.0000000000000000e+00  6.4215172452797970e-06 -3.2697477419714986e-07 0.0000000000000000e+00  8.4715132090188550e-06 -4.2830376880619961e-07 0.0000000000000000e+00  1.1238037806809248e-05 -5.6940742208917852e-07 0.0000000000000000e+00  1.5058385741429691e-05 -7.7497257013882946e-07 0.0000000000000000e+00  2.0522965147981376e-05 -1.0938021851739577e-06 0.0000000000000000e+00  2.8814594730995014e-05 -1.6374621255499562e-06 0.0000000000000000e+00  4.2714072525893343e-05 -2.7072725146097883e-06 0.0000000000000000e+00  6.9925594231893786e-05 -5.2591313581595495e-06 0.0000000000000000e+00  1.3561730643871361e-04 -1.2828757252648111e-05 0.0000000000000000e+00  0.0000000000000000e+00 0.0000000000000000e+00 0.0000000000000000e+00  8.4655526455885858e-07 -4.7670879561220038e-08 0.0000000000000000e+00  1.7440555096157125e-06 -9.7554959328007526e-08 0.0000000000000000e+00  2.7481814553609182e-06 -1.5206925755176577e-07 0.0000000000000000e+00  3.9241256279420397e-06 -2.1404817615051605e-07 0.0000000000000000e+00  5.3527159191464887e-06 -2.8705382958160102e-07 0.0000000000000000e+00  7.1384024956941371e-06 -3.7583656177239773e-07 0.0000000000000000e+00  9.4202520268168012e-06 -4.8705470363833618e-07 0.0000000000000000e+00  1.2387837806373075e-05 -6.3043783093270158e-07 0.0000000000000000e+00  1.6305458773478700e-05 -8.2071650430386532e-07 0.0000000000000000e+00  2.1551413267995638e-05 -1.0808983506678919e-06 0.0000000000000000e+00  2.8686062548665875e-05 -1.4479113736471590e-06 0.0000000000000000e+00  3.8576395689011374e-05 -1.9821008123622146e-06 0.0000000000000000e+00  5.2626193494710706e-05 -2.7805521937276142e-06 0.0000000000000000e+00  7.3153475448245480e-05 -3.9776427223463141e-06 0.0000000000000000e+00  1.0364182276896649e-04 -5.6106391458079120e-06 0.0000000000000000e+00  1.4627216797520669e-04 -6.6325186979369302e-06 0.0000000000000000e+00  0.0000000000000000e+00 0.0000000000000000e+00 0.0000000000000000e+00  1.2070066101223453e-06 -6.8791222447471302e-08 0.0000000000000000e+00  2.4851383757670130e-06 -1.4067711093473001e-07 0.0000000000000000e+00  3.9120062326878396e-06 -2.1901215043261257e-07 0.0000000000000000e+00  5.5782888967411436e-06 -3.0767913346104606e-07 0.0000000000000000e+00  7.5960710072914814e-06 -4.1147376350098871e-07 0.0000000000000000e+00  1.0109554280313866e-05 -5.3666424539786692e-07 0.0000000000000000e+00  1.3309378027425394e-05 -6.9184397339932663e-07 0.0000000000000000e+00  1.7452268485270761e-05 -8.8925807794098909e-07 0.0000000000000000e+00  2.2888476974668155e-05 -1.1468693242816479e-06 0.0000000000000000e+00  3.0100456353735084e-05 -1.4915076086853290e-06 0.0000000000000000e+00  3.9756880001966808e-05 -1.9633863478319552e-06 0.0000000000000000e+00  5.2783341973146679e-05 -2.6215940982088605e-06 0.0000000000000000e+00  7.0432820582765128e-05 -3.5475041771916697e-06 0.0000000000000000e+00  9.4266191276810575e-05 -4.8357466279660411e-06 0.0000000000000000e+00  1.2573075288258365e-04 -6.5547090376111459e-06 0.0000000000000000e+00  1.6461472708493584e-04 -8.7446640042946444e-06 0.0000000000000000e+00  0.0000000000000000e+00 0.0000000000000000e+00 0.0000000000000000e+00  1.4972084501137747e-06 -8.6861312761757025e-08 0.0000000000000000e+00  3.0797934010975704e-06 -1.7746813108014248e-07 0.0000000000000000e+00  4.8406844962169630e-06 -2.7583776527059665e-07 0.0000000000000000e+00  6.8881196673181833e-06 -3.8653409102424084e-07 0.0000000000000000e+00  9.3553553977819123e-06 -5.1505269926430762e-07 0.0000000000000000e+00  1.2413009062873322e-05 -6.6836775613033461e-07 0.0000000000000000e+00  1.6285205041792631e-05 -8.5574733799309520e-07 0.0000000000000000e+00  2.1270844914400801e-05 -1.0899948045831641e-06 0.0000000000000000e+00  2.7771239398514917e-05 -1.3893318759423433e-06 0.0000000000000000e+00  3.6324475535964711e-05 -1.7801665781578073e-06 0.0000000000000000e+00  4.7643810362206013e-05 -2.3008736372066598e-06 0.0000000000000000e+00  6.2648538895417101e-05 -3.0062011511181973e-06 0.0000000000000000e+00  8.2453378795585737e-05 -3.9706323737293531e-06 0.0000000000000000e+00  1.0823349818732019e-04 -5.2872149454275808e-06 0.0000000000000000e+00  1.4080427424595552e-04 -7.0600750091883850e-06 0.0000000000000000e+00  1.7974170341758123e-04 -9.4053878650197792e-06 0.0000000000000000e+00  0.0000000000000000e+00 0.0000000000000000e+00 0.0000000000000000e+00  1.7029440140792923e-06 -1.0122916596855064e-07 0.0000000000000000e+00  3.4985158226529223e-06 -2.0661308072119569e-07 0.0000000000000000e+00  5.4871737026416082e-06 -3.2054890677074429e-07 0.0000000000000000e+00  7.7854041772704731e-06 -4.4791229533762019e-07 0.0000000000000000e+00  1.0535900305556575e-05 -5.9437474119120354e-07 0.0000000000000000e+00  1.3920499257426657e-05 -7.6683562786876037e-07 0.0000000000000000e+00  1.8177036562599200e-05 -9.7405006109942338e-07 0.0000000000000000e+00  2.3621285732558358e-05 -1.2275810206257175e-06 0.0000000000000000e+00  3.0674756827897917e-05 -1.5432735212444318e-06 0.0000000000000000e+00  3.9897705621132868e-05 -1.9435346763438019e-06 0.0000000000000000e+00  5.2023032326633063e-05 -2.4607806951069292e-06 0.0000000000000000e+00  6.7978732098129832e-05 -3.1424229985565497e-06 0.0000000000000000e+00  8.8871688830945378e-05 -4.0576650088101915e-06 0.0000000000000000e+00  1.1588483029079633e-04 -5.3063196251305861e-06 0.0000000000000000e+00  1.5003188620534052e-04 -7.0302646612742607e-06 0.0000000000000000e+00  1.9178960257763985e-04 -9.4268608668654343e-06 0.0000000000000000e+00  0.0000000000000000e+00 0.0000000000000000e+00 0.0000000000000000e+00  1.8170306001544045e-06 -1.1148641027144022e-07 0.0000000000000000e+00  3.7265928359593715e-06 -2.2732238143831158e-07 0.0000000000000000e+00  5.8284982938965274e-06 -3.5204147416429953e-07 0.0000000000000000e+00  8.2376883608933132e-06 -4.9052780548532221e-07 0.0000000000000000e+00  1.1093939385740424e-05 -6.4821600711925010e-07 0.0000000000000000e+00  1.4574368925364379e-05 -8.3133023527474760e-07 0.0000000000000000e+00  1.8910026225578211e-05 -1.0472001486130668e-06 0.0000000000000000e+00  2.4408009179646983e-05 -1.3047325009687761e-06 0.0000000000000000e+00  3.1480434704919085e-05 -1.6152028246188265e-06 0.0000000000000000e+00  4.0680739039729144e-05 -1.9937053611000836e-06 0.0000000000000000e+00  5.2745386050548907e-05 -2.4619348896623183e-06 0.0000000000000000e+00  6.8634017248834164e-05 -3.0535849613449892e-06 0.0000000000000000e+00  8.9552855516024030e-05 -3.8246673732620602e-06 0.0000000000000000e+00  1.1693781204543644e-04 -4.8725221455468171e-06 0.0000000000000000e+00  1.5237844990733035e-04 -6.3687683090764566e-06 0.0000000000000000e+00  1.9751025357976984e-04 -8.6116909742132843e-06 0.0000000000000000e+00  0.0000000000000000e+00 0.0000000000000000e+00 0.0000000000000000e+00  1.8396405863993531e-06 -1.1744088758171552e-07 0.0000000000000000e+00  3.7647945640591480e-06 -2.3926496970320544e-07 0.0000000000000000e+00  5.8669060778896976e-06 -3.6997171655569464e-07 0.0000000000000000e+00  8.2500314051450409e-06 -5.1426571525261120e-07 0.0000000000000000e+00  1.1039081221301824e-05 -6.7712087926916259e-07 0.0000000000000000e+00  1.4390741418992991e-05 -8.6378933040150774e-07 0.0000000000000000e+00  1.8508558750853589e-05 -1.0797273129146941e-06 0.0000000000000000e+00  2.3664214223332557e-05 -1.3304218242351975e-06 0.0000000000000000e+00  3.0227629723056012e-05 -1.6211630027061427e-06 0.0000000000000000e+00  3.8709059805605751e-05 -1.9570006574218235e-06 0.0000000000000000e+00  4.9816233891041733e-05 -2.3436228165486767e-06 0.0000000000000000e+00  6.4528071671987480e-05 -2.7910229713725175e-06 0.0000000000000000e+00  8.4182456175781219e-05 -3.3240538369789282e-06 0.0000000000000000e+00  1.1056908301349101e-04 -4.0076321809603878e-06 0.0000000000000000e+00  1.4601392210579508e-04 -4.9985631003108783e-06 0.0000000000000000e+00  1.9345067221287725e-04 -6.6361340742567090e-06 0.0000000000000000e+00  0.0000000000000000e+00 0.0000000000000000e+00 0.0000000000000000e+00  1.7778498281137352e-06 -1.1906333769161078e-07 0.0000000000000000e+00  3.6284627841139672e-06 -2.4244269776482256e-07 0.0000000000000000e+00  5.6284944588896391e-06 -3.7451619004565681e-07 0.0000000000000000e+00  7.8632132751507909e-06 -5.1975440495441615e-07 0.0000000000000000e+00  1.0432266081693743e-05 -6.8267230700346570e-07 0.0000000000000000e+00  1.3457656719132495e-05 -8.6763400356423793e-07 0.0000000000000000e+00  1.7095517770985637e-05 -1.0784005776115760e-06 0.0000000000000000e+00  2.1554249055781035e-05 -1.3172579007636426e-06 0.0000000000000000e+00  2.7123189696526348e-05 -1.5835172433858649e-06 0.0000000000000000e+00  3.4218377011704506e-05 -1.8712268577106933e-06 0.0000000000000000e+00  4.3455119513657735e-05 -2.1662958555021950e-06 0.0000000000000000e+00  5.5760356870732728e-05 -2.4444690038727060e-06 0.0000000000000000e+00  7.2538688208887572e-05 -2.6748556487829876e-06 0.0000000000000000e+00  9.5899423955532977e-05 -2.8408477817127702e-06 0.0000000000000000e+00  1.2893209337590798e-04 -3.0026128034096258e-06 0.0000000000000000e+00  1.7598910398515524e-04 -3.4393531788189541e-06 0.0000000000000000e+00  0.0000000000000000e+00 0.0000000000000000e+00 0.0000000000000000e+00  1.6444285001443176e-06 -1.1642703771110534e-07 0.0000000000000000e+00  3.3450096776338110e-06 -2.3704783466141468e-07 0.0000000000000000e+00  5.1592752445797130e-06 -3.6609720874758012e-07 0.0000000000000000e+00  7.1482443235937993e-06 -5.0786756810700707e-07 0.0000000000000000e+00  9.3787947772602779e-06 -6.6661637619005969e-07 0.0000000000000000e+00  1.1927248033834190e-05 -8.4627205334143655e-07 0.0000000000000000e+00  1.4885482323110714e-05 -1.0497561203333699e-06 0.0000000000000000e+00  1.8372185235258731e-05 -1.2775971297400418e-06 0.0000000000000000e+00  2.2554301086121090e-05 -1.5252798822661300e-06 0.0000000000000000e+00  2.7688132683403594e-05 -1.7784443633631970e-06 0.0000000000000000e+00  3.4196945223107775e-05 -2.0047375882737191e-06 0.0000000000000000e+00  4.2812827153802289e-05 -2.1413782357945312e-06 0.0000000000000000e+00  5.4822623952331864e-05 -2.0801233573969562e-06 0.0000000000000000e+00  7.2460106674087079e-05 -1.6610326095586729e-06 0.0000000000000000e+00  9.9453380780255700e-05 -7.1205797144476348e-07 0.0000000000000000e+00  1.4164252477183269e-04 7.8240217888639931e-07 0.0000000000000000e+00  0.0000000000000000e+00 0.0000000000000000e+00 0.0000000000000000e+00  1.4559624976988635e-06 -1.0966187587252284e-07 0.0000000000000000e+00  2.9499730466110013e-06 -2.2335283723775253e-07 0.0000000000000000e+00  4.5188048444278423e-06 -3.4516393203490260e-07 0.0000000000000000e+00  6.1971113736512718e-06 -4.7930833041407857e-07 0.0000000000000000e+00  8.0158162014254115e-06 -6.3008294905070423e-07 0.0000000000000000e+00  1.0000109540601363e-05 -8.0164996149782196e-07 0.0000000000000000e+00  1.2167525930908525e-05 -9.9743915968608084e-07 0.0000000000000000e+00  1.4527725709813572e-05 -1.2187630541242056e-06 0.0000000000000000e+00  1.7088221106817855e-05 -1.4618132200957105e-06 0.0000000000000000e+00  1.9875946754849437e-05 -1.7113736791617729e-06 0.0000000000000000e+00  2.2996116808322717e-05 -1.9280447699865203e-06 0.0000000000000000e+00  2.6771529742863533e-05 -2.0232872001072398e-06 0.0000000000000000e+00  3.2040886050796514e-05 -1.8140757351854508e-06 0.0000000000000000e+00  4.0735047996500385e-05 -9.5279380627407232e-07 0.0000000000000000e+00  5.6840673777385527e-05 1.1364193683284321e-06 0.0000000000000000e+00  8.7665820489655352e-05 5.1483989116747622e-06 0.0000000000000000e+00  0.0000000000000000e+00 0.0000000000000000e+00 0.0000000000000000e+00  1.2304945474023933e-06 -9.8940895645767307e-08 0.0000000000000000e+00  2.4819843932062595e-06 -2.0167592947983735e-07 0.0000000000000000e+00  3.7718347892348415e-06 -3.1211583360840708e-07 0.0000000000000000e+00  5.1101330392935466e-06 -4.3443945746807237e-07 0.0000000000000000e+00  6.4941432755676973e-06 -5.7320382001991751e-07 0.0000000000000000e+00  7.9003350829581649e-06 -7.3339023515119399e-07 0.0000000000000000e+00  9.2730099559488283e-06 -9.2026911210214887e-07 0.0000000000000000e+00  1.0508844891219831e-05 -1.1387841732433596e-06 0.0000000000000000e+00  1.1438105929735096e-05 -1.3917093968228183e-06 0.0000000000000000e+00  1.1807833950544067e-05 -1.6747380012563572e-06 0.0000000000000000e+00  1.1284699805303349e-05 -1.9640177436902300e-06 0.0000000000000000e+00  9.5259811799396674e-06 -2.1854096279426182e-06 0.0000000000000000e+00  6.4365465208722486e-06 -2.1409016036773961e-06 0.0000000000000000e+00  2.8632515853364544e-06 -1.3417244811675602e-06 0.0000000000000000e+00  2.1364953848138919e-06 1.3223901002583079e-06 0.0000000000000000e+00  1.2677958202156678e-05 8.0034390077528031e-06 0.0000000000000000e+00  0.0000000000000000e+00 0.0000000000000000e+00 0.0000000000000000e+00  9.8499582742958557e-07 -8.4506684287178139e-08 0.0000000000000000e+00  1.9772838693484087e-06 -1.7244319186125980e-07 0.0000000000000000e+00  2.9789444905749365e-06 -2.6741864237899022e-07 0.0000000000000000e+00  3.9811522979977194e-06 -3.7347614390320025e-07 0.0000000000000000e+00  4.9556295327989761e-06 -4.9539244546762261e-07 0.0000000000000000e+00  5.8417242449483319e-06 -6.3909647190954828e-07 0.0000000000000000e+00  6.5263862837279310e-06 -8.1226797961425478e-07 0.0000000000000000e+00  6.8130746053465527e-06 -1.0251608577909847e-06 0.0000000000000000e+00  6.3741868425271088e-06 -1.2915536467797942e-06 0.0000000000000000e+00  4.6810852089611525e-06 -1.6291409229612102e-06 0.0000000000000000e+00  9.1051317585335483e-07 -2.0566084262067385e-06 0.0000000000000000e+00  -6.1496935203468837e-06 -2.5777765893781365e-06 0.0000000000000000e+00  -1.8086815392154129e-05 -3.1209599643663366e-06 0.0000000000000000e+00  -3.6370740623992140e-05 -3.3303426928921290e-06 0.0000000000000000e+00  -6.0353358678530409e-05 -1.8902177857540228e-06 0.0000000000000000e+00  -8.2391510763197895e-05 5.2785623044450144e-06 0.0000000000000000e+00  0.0000000000000000e+00 0.0000000000000000e+00 0.0000000000000000e+00  7.3308842600797785e-07 -6.6728569836027594e-08 0.0000000000000000e+00  1.4646907210108802e-06 -1.3632939033290842e-07 0.0000000000000000e+00  2.1876885891053301e-06 -2.1188998849159432e-07 0.0000000000000000e+00  2.8829100430332516e-06 -2.9703066462960375e-07 0.0000000000000000e+00  3.5094314999948938e-06 -3.9634347469741862e-07 0.0000000000000000e+00  3.9893895329264863e-06 -5.1611725256543624e-07 0.0000000000000000e+00  4.1832257734570956e-06 -6.6560722356981630e-07 0.0000000000000000e+00  3.8484017695880181e-06 -8.5933340166120134e-07 0.0000000000000000e+00  2.5694501719756667e-06 -1.1213140940701939e-06 0.0000000000000000e+00  -3.6171084283048797e-07 -1.4928851441361527e-06 0.0000000000000000e+00  -6.1502149762551375e-06 -2.0468589163836143e-06 0.0000000000000000e+00  -1.6837198845921155e-05 -2.9113600454003289e-06 0.0000000000000000e+00  -3.5804238340991757e-05 -4.3004576456164106e-06 0.0000000000000000e+00  -6.8249078044882639e-05 -6.4990417315913491e-06 0.0000000000000000e+00  -1.2018017089158738e-04 -9.4237719464251775e-06 0.0000000000000000e+00  -1.8712880580614832e-04 -8.7775580757879754e-06 0.0000000000000000e+00  0.0000000000000000e+00 0.0000000000000000e+00 0.0000000000000000e+00  4.8348325491403869e-07 -4.6164870765213444e-08 0.0000000000000000e+00  9.6208269625008815e-07 -9.4417579523686696e-08 0.0000000000000000e+00  1.4261814967263610e-06 -1.4704236477307543e-07 0.0000000000000000e+00  1.8558950968672981e-06 -2.0681517257088348e-07 0.0000000000000000e+00  2.2126441843319446e-06 -2.7744380101128449e-07 0.0000000000000000e+00  2.4256289929648250e-06 -3.6434533292463076e-07 0.0000000000000000e+00  2.3690248771801114e-06 -4.7610646904560901e-07 0.0000000000000000e+00  1.8221425524446843e-06 -6.2734408138965849e-07 0.0000000000000000e+00  3.9746503662774820e-07 -8.4450786028346143e-07 0.0000000000000000e+00  -2.5940136167005597e-06 -1.1780569491700285e-06 0.0000000000000000e+00  -8.4043242994604186e-06 -1.7289504344845065e-06 0.0000000000000000e+00  -1.9374765527271173e-05 -2.7086807175806570e-06 0.0000000000000000e+00  -4.0021424396056657e-05 -4.5823062761264667e-06 0.0000000000000000e+00  -7.9269847428981117e-05 -8.4345119591797118e-06 0.0000000000000000e+00  -1.5482460256743209e-04 -1.7040127511984301e-05 0.0000000000000000e+00  -3.0177944817249804e-04 -3.9189811205314897e-05 0.0000000000000000e+00  0.0000000000000000e+00 0.0000000000000000e+00 0.0000000000000000e+00  2.3952283835092240e-07 -2.3595868753729697e-08 0.0000000000000000e+00  4.7531104105230349e-07 -4.8292947421196987e-08 0.0000000000000000e+00  7.0094125790937890e-07 -7.5309523783388130e-08 0.0000000000000000e+00  9.0411575911958066e-07 -1.0615869819907514e-07 0.0000000000000000e+00  1.0617885325388663e-06 -1.4292262684846796e-07 0.0000000000000000e+00  1.1322372081965102e-06 -1.8875132471990789e-07 0.0000000000000000e+00  1.0414459481436719e-06 -2.4882738312829147e-07 0.0000000000000000e+00  6.5869548965778989e-07 -3.3231504932957034e-07 0.0000000000000000e+00  -2.4914945536032502e-07 -4.5645237214119845e-07 0.0000000000000000e+00  -2.1076860642446833e-06 -6.5547797430330868e-07 0.0000000000000000e+00  -5.7233043811544349e-06 -1.0008846405522242e-06 0.0000000000000000e+00  -1.2705095911810706e-05 -1.6491342210768913e-06 0.0000000000000000e+00  -2.6478192870273347e-05 -2.9568723037234615e-06 0.0000000000000000e+00  -5.4817262215320163e-05 -5.7510846933583425e-06 0.0000000000000000e+00  -1.1552345632923321e-04 -1.1809584592892195e-05 0.0000000000000000e+00  -2.3954431680173240e-04 -2.3414454119162118e-05 0.0000000000000000e+00  0.0000000000000000e+00 0.0000000000000000e+00 0.0000000000000000e+00  0.0000000000000000e+00 0.0000000000000000e+00 0.0000000000000000e+00  0.0000000000000000e+00 0.0000000000000000e+00 0.0000000000000000e+00  0.0000000000000000e+00 0.0000000000000000e+00 0.0000000000000000e+00  0.0000000000000000e+00 0.0000000000000000e+00 0.0000000000000000e+00  0.0000000000000000e+00 0.0000000000000000e+00 0.0000000000000000e+00  0.0000000000000000e+00 0.0000000000000000e+00 0.0000000000000000e+00  0.0000000000000000e+00 0.0000000000000000e+00 0.0000000000000000e+00  0.0000000000000000e+00 0.000000