<?xml version="1.0"?>
<VTKFile type="UnstructuredGrid"  version="0.1"  >
<UnstructuredGrid>
<Piece  NumberOfPoints="289" NumberOfCells="512">
<Points>
<DataArray  type="Float64"  NumberOfComponents="3"  format="ascii">0 0 0  0.0625 0 0  0.125 0 0  0.1875 0 0  0.25 0 0  0.3125 0 0  0.375 0 0  0.4375 0 0  0.5 0 0  0.5625 0 0  0.625 0 0  0.6875 0 0  0.75 0 0  0.8125 0 0  0.875 0 0  0.9375 0 0  1 0 0  0 0.0625 0  0.06256847056364657 0.0624909007222799 0  0.1251394185020755 0.06248160534038712 0  0.18771541714574 0.06247192616546254 0  0.2502992041232368 0.06246169606494604 0  0.31289377477974 0.06245078121654446 0  0.3755024931066894 0.06243909564273352 0  0.438129238428582 0.06242661519433292 0  0.5007786275340942 0.06241338408472425 0  0.5634564035380561 0.06239949736351955 0  0.626170213458459 0.06238502118222722 0  0.6889313492349504 0.06236976082810567 0  0.7517590470003659 0.06235264654337432 0  0.8146920947132534 0.0623300823001132 0  0.8778228674922167 0.06229118571591868 0  0.9414050039600838 0.06220291116320264 0  1.006222587991967 0.06196277068562007 0  0 0.125 0  0.0626344712840276 0.1249819956039124 0  0.1252738330879089 0.1249635886795546 0  0.1879231671474876 0.1249443923937385 0  0.2505878861099727 0.1249240588507202 0  0.3132739204452972 0.1249023046218754 0  0.3759879367244797 0.1248789419206306 0  0.438737615646734 0.1248539131306803 0  0.5015320461793182 0.1248273199798171 0  0.5643823520149379 0.1247994259729633 0  0.6273027939576453 0.1247705868173039 0  0.6903128560421495 0.1247410218046062 0  0.7534413222991915 0.1247102797390655 0  0.8167340132722584 0.1246762402370073 0  0.8802660941701987 0.1246339499220668 0  0.9441475051315188 0.1245776768865759 0  1.008433432730533 0.1245245390906419 0  0 0.1875 0  0.06269558765416178 0.1874734923207967 0  0.1253983337392554 0.1874463569037751 0  0.188115677182859 0.1874179864822452 0  0.2508555488447017 0.1873878260876141 0  0.3136266453430089 0.1873554104620629 0  0.3764387400520822 0.1873204140594263 0  0.4393030577933064 0.1872827147536925 0  0.5022327579248316 0.1872424671446941 0  0.5652436013073205 0.1872001709823191 0  0.6283549202869939 0.1871567017816699 0  0.6915910411599947 0.1871132420423573 0  0.7549831900950024 0.1870710160154504 0  0.8185711439161159 0.1870307031072581 0  0.8824009684866735 0.1869913630256521 0  0.9465070109879524 0.1869481032400893 0  1.010854012849573 0.1868824446105846 0  0 0.25 0  0.0627495581964181 0.2499656171175103 0  0.1255083185425022 0.2499303568246085 0  0.1882858429897146 0.2498933625844799 0  0.2510923359263792 0.2498538343154048 0  0.3139389966780281 0.2498110741907648 0  0.3768384096890772 0.249764554402164 0  0.4398049909297125 0.2497140144044015 0  0.502855512385881 0.2496595935327161 0  0.5660097231070716 0.2496020000905896 0  0.6292910545824734 0.2495427077293388 0  0.6927272815121198 0.2494841516292534 0  0.7563506577163367 0.2494298687204199 0  0.8201961416702928 0.2493844853588359 0  0.8842943915458958 0.2493533883631902 0  0.9486533729380087 0.249341806823314 0  1.013222668905289 0.2493534372033679 0  0 0.3125 0  0.06279434876866238 0.3124586203795874 0  0.1255996446910199 0.3124160883171226 0  0.1884272613435446 0.3123712660954034 0  0.251289352045304 0.3123230622931956 0  0.314199274267052 0.312270478412951 0  0.3771720531193844 0.3122126871390177 0  0.4402248969491334 0.3121491578341123 0  0.5033777720578462 0.3120798486767327 0  0.5666540222679382 0.3120054881680151 0  0.6300809592328102 0.3119279692621494 0  0.693690202792257 0.311850872348002 0  0.7575172342259838 0.3117801097973287 0  0.821599051230218 0.3117246303706371 0  0.8859680942561953 0.3116970247340413 0  0.9506407567456662 0.3117137845840158 0  1.015603138278466 0.3117952146806273 0  0 0.375 0  0.06282822203456603 0.3749527774194051 0  0.1256687689625806 0.3749041081701295 0  0.1885344439420497 0.3748525456668362 0  0.2514389510899976 0.3747966603326626 0  0.3143973859765014 0.3747350748717516 0  0.3774267722748703 0.3746665378976851 0  0.4405466601111564 0.3745900593133462 0  0.5037797965862806 0.3745051412879823 0  0.5671528613843935 0.3744121526262574 0  0.6306972134521652 0.3743129101917255 0  0.694449488342271 0.3742115424984221 0  0.7584516813764376 0.3741157004837987 0  0.8227500454247767 0.3740381116849219 0  0.8873918988114073 0.37399828341025 0  0.9524199208971479 0.374023774392403 0  1.017865916052796 0.3741498075408693 0  0 0.4375 0  0.06284980219323051 0.4374483822071999 0  0.1257128787071637 0.4373950195483359 0  0.1886030170923544 0.4373381431881084 0  0.2515350057778002 0.4372759501877099 0  0.3145251824603928 0.4372066114641505 0  0.3775920419277229 0.4371283181478521 0  0.4407569299265449 0.4370393945721744 0  0.5040448556646647 0.4369385233720936 0  0.567485461089197 0.4368251546116645 0  0.6311141836014597 0.4367002082601121 0  0.6949736241260046 0.4365672245361562 0  0.7591150539350746 0.4364341509807562 0  0.8235998233514257 0.436315922780063 0  0.8885001737268281 0.4362377716685181 0  0.9538987464181736 0.4362386094724903 0  1.019886254972936 0.4363728428823804 0  0 0.5 0  0.06285813466468125 0.4999457320810705 0  0.1257300135389838 0.4998894423236597 0  0.1886299100124752 0.4998290523982613 0  0.2515731690739416 0.499762378352083 0  0.3145767992643806 0.499687094094656 0  0.3776601394364319 0.4996007233107826 0  0.4408456422636551 0.499500686818127 0  0.5041598399844021 0.4993844543756595 0  0.5676346009196304 0.4992498878231326 0  0.6313088580690415 0.4990959250453011 0  0.6952310977584295 0.4989238507470596 0  0.7594630090297239 0.4987395282746124 0  0.8240846935024445 0.4985570763253938 0  0.8892014217871279 0.498404377211505 0  0.9549506293023001 0.498330039919293 0  1.021505563751105 0.4984093446498039 0  0 0.5625 0  0.06285273887649415 0.5624451025752368 0  0.1257191742597022 0.5623879616957159 0  0.1886135271721063 0.5623262398416795 0  0.2515511227343856 0.5622574090580048 0  0.3145490033335571 0.5621786558859431 0  0.3776266271474312 0.5620867931818019 0  0.4408067057373325 0.5619781958174795 0  0.5041162749543948 0.5618487986428035 0  0.5675881782038387 0.561694237100105 0  0.6312633097846635 0.561510291889483 0  0.6951942742103471 0.5612939508809118 0  0.7594515997545275 0.5610456699590048 0  0.8241341675539049 0.56077382912719 0  0.8893854090554002 0.5605027988089988 0  0.9554143737255836 0.5602856641051016 0  1.022513870298493 0.5602194947012427 0  0 0.625 0  0.06283365029607497 0.6249467134489989 0  0.1256804108694148 0.6248910566401197 0  0.1885538909634199 0.6248305285902253 0  0.2514687906923853 0.6247623530110497 0  0.3144415065414448 0.6246833190610247 0  0.3774908217051269 0.6245895976906588 0  0.4406387345529887 0.6244765309755022 0  0.5039115247497167 0.6243384040966481 0  0.5673412666700237 0.6241682403796747 0  0.6309682539673673 0.6239577333937149 0  0.6948453551848268 0.6236976015721071 0  0.7590464299204058 0.6233790402404629 0  0.8236827945498973 0.6229977861459333 0  0.8889336761076861 0.6225638789433059 0  0.9550947944307078 0.6221218445825848 0  1.022634218241702 0.6217817086982043 0  0 0.6875 0  0.06280144629170384 0.6874506895393847 0  0.1256148780120144 0.6873990153661375 0  0.1884527345281855 0.6873424550670889 0  0.2513284832811376 0.6872781438703002 0  0.3142571867554085 0.6872026590430406 0  0.3772561412618631 0.6871117450962031 0  0.4403456236762149 0.6869999511694953 0  0.5035498122471623 0.68686014632612 0  0.5668980368178858 0.6866828783430704 0  0.6304267704302053 0.6864555643397409 0  0.694183477937656 0.6861616001008756 0  0.7582352475881983 0.68577980905717 0  0.8226893507868249 0.6852857014750917 0  0.8877409433086677 0.6846591465697652 0  0.9537710708967767 0.6839112399088816 0  1.021499680116315 0.6831522529855568 0  0 0.75 0  0.0627572499965324 0.7499570226416091 0  0.1255248454855205 0.749911850971933 0  0.1883135239049388 0.7498621206316458 0  0.251134938378137 0.7498050944805558 0  0.3140021584816099 0.7497374143480654 0  0.3769302229938993 0.7496547653700214 0  0.4399367521078651 0.7495513997036227 0  0.5030426173625867 0.7494194394912502 0  0.5662726713280695 0.7492478364957073 0  0.6296566303935144 0.7490208020439775 0  0.6932306683952959 0.7487154375730325 0  0.757042091338467 0.7482982475926762 0  0.8211656560918545 0.7477205299655448 0  0.8857588811550404 0.7469149693171342 0  0.9512289645217915 0.7458084052611145 0  1.018584454401791 0.7444309619125667 0  0 0.8125 0  0.06270270736557161 0.8124655424200462 0  0.1254136539881683 0.8124292349996758 0  0.1881413943503275 0.8123890690140615 0  0.2508952383496438 0.8123426835873611 0  0.3136856633305443 0.812287122126593 0  0.3765247615245941 0.8122184904060772 0  0.4394267059560834 0.812131450172883 0  0.5024081653319801 0.8120184409490089 0  0.5654884822039731 0.8118684493775588 0  0.6286892002590798 0.8116650111307813 0  0.6920321873091261 0.8113828724972334 0  0.7555356103307094 0.8109822172183015 0  0.8192102789065736 0.8103982918890097 0  0.8830796267897427 0.8095223338377472 0  0.9473511515239887 0.8081689757260645 0  1.013394197720608 0.8060527258745632 0  0 0.875 0  0.0626399347868779 0.8749759044833192 0  0.1252856111076147 0.8749504674677188 0  0.1879429950060167 0.8749222239303142 0  0.2506186007201752 0.8748894330894739 0  0.3133197929907267 0.8748498828955129 0  0.3760551171495953 0.8748006091185022 0  0.438834635681475 0.8747374688348457 0  0.5016701820770653 0.8746544680686105 0  0.5645752585321731 0.8745426713018523 0  0.6275638147019558 0.8743883880321992 0  0.6906458773294026 0.874170073248444 0  0.7538148790235809 0.8738528103975022 0  0.8170147487715981 0.8733777448883361 0  0.8800651909548188 0.8726392738232698 0  0.9425433171473682 0.8714298063068956 0  1.003941555141764 0.8693088048264052 0  0 0.9375 0  0.06257143728956539 0.9374876016319128 0  0.1251458278163441 0.9374744976104147 0  0.1877262440862586 0.9374599146191106 0  0.2503160531907865 0.9374429276628093 0  0.3129190836673396 0.9374223509865863 0  0.3755398142117837 0.9373965793161867 0  0.4381835767729342 0.937363343697
[...]
<PointData  Vectors="f_54"> 
<DataArray  type="Float64"  Name="f_54"  NumberOfComponents="3" format="ascii">0.0000000000000000e+00 0.0000000000000000e+00 0.0000000000000000e+00  0.0000000000000000e+00 0.0000000000000000e+00 0.0000000000000000e+00  0.0000000000000000e+00 0.0000000000000000e+00 0.0000000000000000e+00  0.0000000000000000e+00 0.0000000000000000e+00 0.0000000000000000e+00  0.0000000000000000e+00 0.0000000000000000e+00 0.0000000000000000e+00  0.0000000000000000e+00 0.0000000000000000e+00 0.0000000000000000e+00  0.0000000000000000e+00 0.0000000000000000e+00 0.0000000000000000e+00  0.0000000000000000e+00 0.0000000000000000e+00 0.0000000000000000e+00  0.0000000000000000e+00 0.0000000000000000e+00 0.0000000000000000e+00  0.0000000000000000e+00 0.0000000000000000e+00 0.0000000000000000e+00  0.0000000000000000e+00 0.0000000000000000e+00 0.0000000000000000e+00  0.0000000000000000e+00 0.0000000000000000e+00 0.0000000000000000e+00  0.0000000000000000e+00 0.0000000000000000e+00 0.0000000000000000e+00  0.0000000000000000e+00 0.0000000000000000e+00 0.0000000000000000e+00  0.0000000000000000e+00 0.0000000000000000e+00 0.0000000000000000e+00  0.0000000000000000e+00 0.0000000000000000e+00 0.0000000000000000e+00  0.0000000000000000e+00 0.0000000000000000e+00 0.0000000000000000e+00  0.0000000000000000e+00 0.0000000000000000e+00 0.0000000000000000e+00  -1.9663731672906082e-06 -1.2092481901371038e-08 0.0000000000000000e+00  -3.9827646650746527e-06 -2.2428338270333218e-08 0.0000000000000000e+00  -6.0985145437869699e-06 -2.8963968656992880e-08 0.0000000000000000e+00  -8.3600523950022887e-06 -2.9059444400492727e-08 0.0000000000000000e+00  -1.0808515255650050e-05 -1.9148072993130094e-08 0.0000000000000000e+00  -1.3476122510315827e-05 5.6164155534749127e-09 0.0000000000000000e+00  -1.6380713788255321e-05 5.1712296749856783e-08 0.0000000000000000e+00  -1.9517619975268314e-05 1.2754639658007212e-07 0.0000000000000000e+00  -2.2847525115694902e-05 2.4359459230584455e-07 0.0000000000000000e+00  -2.6277710229675133e-05 4.1224025138868844e-07 0.0000000000000000e+00  -2.9630624856910672e-05 6.4716319505571097e-07 0.0000000000000000e+00  -3.2583654996163105e-05 9.6233516422684808e-07 0.0000000000000000e+00  -3.4532395953399965e-05 1.3716569807811625e-06 0.0000000000000000e+00  -3.4223280069897965e-05 1.8942248820706803e-06 0.0000000000000000e+00  -2.8606863410804790e-05 2.5866401917119152e-06 0.0000000000000000e+00  -8.6309999178445779e-06 3.7046120940402706e-06 0.0000000000000000e+00  0.0000000000000000e+00 0.0000000000000000e+00 0.0000000000000000e+00  -3.8865060704395959e-06 -2.5960001046746027e-08 0.0000000000000000e+00  -7.8748513383235455e-06 -4.8685104776044912e-08 0.0000000000000000e+00  -1.2065861196266569e-05 -6.4377405560635313e-08 0.0000000000000000e+00  -1.6555367845333776e-05 -6.8059155081106496e-08 0.0000000000000000e+00  -2.1429922543019578e-05 -5.2901007048251639e-08 0.0000000000000000e+00  -2.6760108072421198e-05 -9.4804629518721304e-09 0.0000000000000000e+00  -3.2590341028678066e-05 7.4997246670799946e-08 0.0000000000000000e+00  -3.8923718132514521e-05 2.1741751107558456e-07 0.0000000000000000e+00  -4.5699860988225794e-05 4.3921341888907419e-07 0.0000000000000000e+00  -5.2762494016141363e-05 7.6621861400576855e-07 0.0000000000000000e+00  -5.9810804879221051e-05 1.2273965722490687e-06 0.0000000000000000e+00  -6.6322746782717553e-05 1.8517163470560267e-06 0.0000000000000000e+00  -7.1427046172403336e-05 2.6620153345013550e-06 0.0000000000000000e+00  -7.3688434676151698e-05 3.6626239077000400e-06 0.0000000000000000e+00  -7.0823213603376275e-05 4.8056359320433491e-06 0.0000000000000000e+00  -5.9943476040382778e-05 5.8550068388904056e-06 0.0000000000000000e+00  0.0000000000000000e+00 0.0000000000000000e+00 0.0000000000000000e+00  -5.7079631275719217e-06 -4.3069794774013104e-08 0.0000000000000000e+00  -1.1572297547867318e-05 -8.1985778335853215e-08 0.0000000000000000e+00  -1.7748655994890065e-05 -1.1178776121135743e-07 0.0000000000000000e+00  -2.4387173664508727e-05 -1.2580317879329248e-07 0.0000000000000000e+00  -3.1627189129340207e-05 -1.1463112202783341e-07 0.0000000000000000e+00  -3.9588579629974119e-05 -6.4965092893700680e-08 0.0000000000000000e+00  -4.8358178116834602e-05 4.1732884202947655e-08 0.0000000000000000e+00  -5.7969414825344438e-05 2.3060306855046691e-07 0.0000000000000000e+00  -6.8372952318432719e-05 5.3454156490835912e-07 0.0000000000000000e+00  -7.9395691915722344e-05 9.9461985944506638e-07 0.0000000000000000e+00  -9.0685267784001303e-05 1.6588765368960221e-06 0.0000000000000000e+00  -1.0163778082223904e-04 2.5780766261902394e-06 0.0000000000000000e+00  -1.1131148266551089e-04 3.7964260505078166e-06 0.0000000000000000e+00  -1.1835124315515938e-04 5.3348687274982816e-06 0.0000000000000000e+00  -1.2102682369757911e-04 7.1672856818941788e-06 0.0000000000000000e+00  -1.1768987822357000e-04 9.2157294661467286e-06 0.0000000000000000e+00  0.0000000000000000e+00 0.0000000000000000e+00 0.0000000000000000e+00  -7.3757172404699816e-06 -6.4325373442261860e-08 0.0000000000000000e+00  -1.4965207385482202e-05 -1.2438831537225806e-07 0.0000000000000000e+00  -2.2982691334851075e-05 -1.7494028973838394e-07 0.0000000000000000e+00  -3.1638530853505899e-05 -2.0860079601344067e-07 0.0000000000000000e+00  -4.1134250407611004e-05 -2.1452215121662699e-07 0.0000000000000000e+00  -5.1653411119421243e-05 -1.7674698805066297e-07 0.0000000000000000e+00  -6.3346414282028699e-05 -7.2205621234517357e-08 0.0000000000000000e+00  -7.6306956090777333e-05 1.3160780706504881e-07 0.0000000000000000e+00  -9.0537640289080711e-05 4.7905243945792459e-07 0.0000000000000000e+00  -1.0590251392714572e-04 1.0282705991158253e-06 0.0000000000000000e+00  -1.2206572385859987e-04 1.8514491646743475e-06 0.0000000000000000e+00  -1.3841961280433259e-04 3.0312992462531245e-06 0.0000000000000000e+00  -1.5401568802406076e-04 4.6503557688881751e-06 0.0000000000000000e+00  -1.6753458656354039e-04 6.7682078993424527e-06 0.0000000000000000e+00  -1.7737487682801417e-04 9.3803245484934978e-06 0.0000000000000000e+00  -1.8199195068488807e-04 1.2347972512710076e-05 0.0000000000000000e+00  0.0000000000000000e+00 0.0000000000000000e+00 0.0000000000000000e+00  -8.8320883389949778e-06 -8.9819060915682146e-08 0.0000000000000000e+00  -1.7937329620488864e-05 -1.7626708231742595e-07 0.0000000000000000e+00  -2.7591530667239908e-05 -2.5491135214762347e-07 0.0000000000000000e+00  -3.8070945252241680e-05 -3.1896936902470138e-07 0.0000000000000000e+00  -4.9649207900655803e-05 -3.5773454021411745e-07 0.0000000000000000e+00  -6.2589663265309774e-05 -3.5450146821211847e-07 0.0000000000000000e+00  -7.7130761719534780e-05 -2.8381528991422968e-07 0.0000000000000000e+00  -9.3461621622719599e-05 -1.0791632731656688e-07 0.0000000000000000e+00  -1.1168443841076461e-04 2.2759312106260667e-07 0.0000000000000000e+00  -1.3176061178242685e-04 7.9845559395391508e-07 0.0000000000000000e+00  -1.5343915863671461e-04 1.7056550311155025e-06 0.0000000000000000e+00  -1.7617072366827829e-04 3.0758982941305985e-06 0.0000000000000000e+00  -1.9902052149565967e-04 5.0538177024239695e-06 0.0000000000000000e+00  -2.2061076267133184e-04 7.7781199943338127e-06 0.0000000000000000e+00  -2.3914431534853843e-04 1.1331777726179312e-05 0.0000000000000000e+00  -2.5256339164757518e-04 1.5659729592940581e-05 0.0000000000000000e+00  0.0000000000000000e+00 0.0000000000000000e+00 0.0000000000000000e+00  -1.0017720909634464e-05 -1.1864769331038069e-07 0.0000000000000000e+00  -2.0367797584756476e-05 -2.3590239553789434e-07 0.0000000000000000e+00  -3.1388549909968119e-05 -3.4938328842173229e-07 0.0000000000000000e+00  -4.3425932652790513e-05 -4.5445105748828005e-07 0.0000000000000000e+00  -5.6834241876567351e-05 -5.4255821532508335e-07 0.0000000000000000e+00  -7.1972237167589720e-05 -5.9889440174438845e-07 0.0000000000000000e+00  -8.9191971792579045e-05 -5.9897616042669266e-07 0.0000000000000000e+00  -1.0881659869229252e-04 -5.0376623175761957e-07 0.0000000000000000e+00  -1.3110229993177516e-04 -2.5291538702704371e-07 0.0000000000000000e+00  -1.5617869984755283e-04 2.4405045646210563e-07 0.0000000000000000e+00  -1.8396261337342808e-04 1.1180229408300200e-06 0.0000000000000000e+00  -2.1404345751852759e-04 2.5497104012757103e-06 0.0000000000000000e+00  -2.4554746883165583e-04 4.7722076530693309e-06 0.0000000000000000e+00  -2.7700351877928169e-04 8.0549945400768166e-06 0.0000000000000000e+00  -3.0625166738528539e-04 1.2650683891157510e-05 0.0000000000000000e+00  -3.3043842992592479e-04 1.8682743712496730e-05 0.0000000000000000e+00  0.0000000000000000e+00 0.0000000000000000e+00 0.0000000000000000e+00  -1.0873795375773972e-05 -1.4883226483604672e-07 0.0000000000000000e+00  -2.2135460001479674e-05 -2.9927223054470565e-07 0.0000000000000000e+00  -3.4183160346929583e-05 -4.5220171568484219e-07 0.0000000000000000e+00  -4.7432660018306857e-05 -6.0674623641245598e-07 0.0000000000000000e+00  -6.2323781397526280e-05 -7.5881426589244166e-07 0.0000000000000000e+00  -7.9323053857212851e-05 -8.9878560503999336e-07 0.0000000000000000e+00  -9.8919671625866365e-05 -1.0078063340979473e-06 0.0000000000000000e+00  -1.2161022538989137e-04 -1.0519005380906214e-06 0.0000000000000000e+00  -1.4786538237240832e-04 -9.7281329931482382e-07 0.0000000000000000e+00  -1.7806894801512780e-04 -6.7427871163495634e-07 0.0000000000000000e+00  -2.1241736076451435e-04 -2.6253341440833543e-09 0.0000000000000000e+00  -2.5076773966647222e-04 1.2778450544823129e-06 0.0000000000000000e+00  -2.9242910602411389e-04 3.5097525416240451e-06 0.0000000000000000e+00  -3.3590941393634263e-04 7.1529031926470750e-06 0.0000000000000000e+00  -3.7866105555151784e-04 1.2748274678299370e-05 0.0000000000000000e+00  -4.1689203616690278e-04 2.0785591849454477e-05 0.0000000000000000e+00  0.0000000000000000e+00 0.0000000000000000e+00 0.0000000000000000e+00  -1.1345544849488776e-05 -1.7738735280391710e-07 0.0000000000000000e+00  -2.3125999866061447e-05 -3.6014965948485181e-07 0.0000000000000000e+00  -3.5791645627357711e-05 -5.5340069443285072e-07 0.0000000000000000e+00  -4.9822499608490428e-05 -7.6146656080254229e-07 0.0000000000000000e+00  -6.5742387591788331e-05 -9.8696695906066252e-07 0.0000000000000000e+00  -8.4131042312948363e-05 -1.2290572229116678e-06 0.0000000000000000e+00  -1.0563170764750153e-04 -1.4801559880429853e-06 0.0000000000000000e+00  -1.3094945891252468e-04 -1.7200165271850724e-06 0.0000000000000000e+00  -1.6083175761482876e-04 -1.9052601447494504e-06 0.0000000000000000e+00  -1.9601719729034979e-04 -1.9514342932592957e-06 0.0000000000000000e+00  -2.3713105950042243e-04 -1.7034658367737024e-06 0.0000000000000000e+00  -2.8449912373026715e-04 -8.8995826379980626e-07 0.0000000000000000e+00  -3.3785044756378605e-04 9.4012353619878936e-07 0.0000000000000000e+00  -3.9589881008227963e-04 4.4869989758869195e-06 0.0000000000000000e+00  -4.5584691325863862e-04 1.0732489696482061e-05 0.0000000000000000e+00  -5.1293478664181488e-04 2.0839140113650322e-05 0.0000000000000000e+00  0.0000000000000000e+00 0.0000000000000000e+00 0.0000000000000000e+00  -1.1386976460918307e-05 -2.0057961324994758e-07 0.0000000000000000e+00  -2.3241703921516349e-05 -4.1060296514409750e-07 0.0000000000000000e+00  -3.6052583739701995e-05 -6.3989079125212937e-07 0.0000000000000000e+00  -5.0350842060861134e-05 -8.9887014403878500e-07 0.0000000000000000e+00  -6.6733517923042845e-05 -1.1985806757224352e-06 0.0000000000000000e+00  -8.5887613913288789e-05 -1.5501097168115383e-06 0.0000000000000000e+00  -1.0861415076073640e-04 -1.9628194470233540e-06 0.0000000000000000e+00  -1.3584840389487717e-04 -2.4401049799340750e-06 0.0000000000000000e+00  -1.6866785914126784e-04 -2.9702469716161294e-06 0.0000000000000000e+00  -2.0827084013099535e-04 -3.5077965964030751e-06 0.0000000000000000e+00  -2.5589448671283448e-04 -3.9373486649959700e-06 0.0000000000000000e+00  -3.1262026871891572e-04 -4.0063809304880065e-06 0.0000000000000000e+00  -3.7899443436585357e-04 -3.2092218864025911e-06 0.0000000000000000e+00  -4.5439395005817177e-04 -6.1026890819359995e-07 0.0000000000000000e+00  -5.3615183980979973e-04 5.3604752482327966e-06 0.0000000000000000e+00  -6.1867496170484070e-04 1.6984717603145233e-05 0.0000000000000000e+00  0.0000000000000000e+00 0.0000000000000000e+00 0.0000000000000000e+00  -1.0966466293140806e-05 -2.1439040312784722e-07 0.0000000000000000e+00  -2.2413274150242364e-05 -4.4194945870091961e-07 0.0000000000000000e+00  -3.4846106841003904e-05 -6.9694675047011156e-07 0.0000000000000000e+00  -4.8825589124690174e-05 -9.9589764296776859e-07 0.0000000000000000e+00  -6.4999373375655540e-05 -1.3587943232070098e-06 0.0000000000000000e+00  -8.4139732954061202e-05 -1.8103341850296183e-06 0.0000000000000000e+00  -1.0718786377468102e-04 -2.3808232241486387e-06 0.0000000000000000e+00  -1.3530437935586344e-04 -3.1058662026860224e-06 0.0000000000000000e+00  -1.6992109906582826e-04 -4.0226777520255696e-06 0.0000000000000000e+00  -2.1277920792462735e-04 -5.1580284361097007e-06 0.0000000000000000e+00  -2.6591793440026626e-04 -6.4967847934912228e-06 0.0000000000000000e+00  -3.3153838818480454e-04 -7.9076265683891347e-06 0.0000000000000000e+00  -4.1160395684663336e-04 -8.9799118493591389e-06 0.0000000000000000e+00  -5.0697244202560097e-04 -8.6963522589315691e-06 0.0000000000000000e+00  -6.1590189998639115e-04 -4.8817065506164727e-06 0.0000000000000000e+00  -7.3221040130442248e-04 6.3682698833904743e-06 0.0000000000000000e+00  0.0000000000000000e+00 0.0000000000000000e+00 0.0000000000000000e+00  -1.0072619366445860e-05 -2.1515334595187623e-07 0.0000000000000000e+00  -2.0612470092222553e-05 -4.4611985371407098e-07 0.0000000000000000e+00  -3.2115237810168035e-05 -7.1047889708317558e-07 0.0000000000000000e+00  -4.5140222165004572e-05 -1.0296154360319591e-06 0.0000000000000000e+00  -6.0349955978380158e-05 -1.4312440751823434e-06 0.0000000000000000e+00  -7.8560258199066667e-05 -1.9527231108944157e-06 0.0000000000000000e+00  -1.0080549086421018e-04 -2.6454417835141500e-06 0.0000000000000000e+00  -1.2842421457636235e-04 -3.5804009470248009e-06 0.0000000000000000e+00  -1.6316909456172795e-04 -4.8544465110110888e-06 0.0000000000000000e+00  -2.0733814163866323e-04 -6.5945243056223986e-06 0.0000000000000000e+00  -2.6390343467908262e-04 -8.9512754695181368e-06 0.0000000000000000e+00  -3.3655925900521002e-04 -1.2056481409088667e-05 0.0000000000000000e+00  -4.2948836903016890e-04 -1.5873672779695827e-05 0.0000000000000000e+00  -5.4641208677438512e-04 -1.9758445090456499e-05 0.0000000000000000e+00  -6.8824248244272123e-04 -2.1333835793937383e-05 0.0000000000000000e+00  -8.4914284154990582e-04 -1.4388170655672492e-05 0.0000000000000000e+00  0.0000000000000000e+00 0.0000000000000000e+00 0.0000000000000000e+00  -8.7195054483444125e-06 -2.0027898168628820e-07 0.0000000000000000e+00  -1.7863718376778672e-05 -4.1725581327244494e-07 0.0000000000000000e+00  -2.7886326550032779e-05 -6.6982700384278819e-07 0.0000000000000000e+00  -3.9307255472491145e-05 -9.8176029475586831e-07 0.0000000000000000e+00  -5.2756095905801653e-05 -1.3852223402836830e-06 0.0000000000000000e+00  -6.9030195530411193e-05 -1.9258828330321626e-06 0.0000000000000000e+00  -8.9176086155428916e-05 -2.6706139890803721e-06 0.0000000000000000e+00  -1.1460676003251433e-04 -3.7193344245297463e-06 0.0000000000000000e+00  -1.4727226717923381e-04 -5.2232875673690480e-06 0.0000000000000000e+00  -1.8990526254201035e-04 -7.4127811857956445e-06 0.0000000000000000e+00  -2.4635864474664254e-04 -1.0636884327767245e-05 0.0000000000000000e+00  -3.2201366715176738e-04 -1.5410188482084059e-05 0.0000000000000000e+00  -4.2408904914531363e-04 -2.2423934944616540e-05 0.0000000000000000e+00  -5.6122756105446761e-04 -3.2310546643457924e-05 0.0000000000000000e+00  -7.4060313641903031e-04 -4.4232972297126654e-05 0.0000000000000000e+00  -9.6093457188302692e-04 -5.0063029454457907e-05 0.0000000000000000e+00  0.0000000000000000e+00 0.0000000000000000e+00 0.0000000000000000e+00  -6.9501822685868045e-06 -1.6892173147014306e-07 0.0000000000000000e+00  -1.4252305849877597e-05 -3.5322337695370844e-07 0.0000000000000000e+00  -2.2284487279624930e-05 -5.7053087806308878e-07 0.0000000000000000e+00  -3.1485631172058406e-05 -8.4353259831612618e-07 0.0000000000000000e+00  -4.2396923723425141e-05 -1.2038426274577120e-06 0.0000000000000000e+00  -5.5719819530433445e-05 -1.6978930158228807e-06 0.0000000000000000e+00  -7.2401869125582146e-05 -2.3964055075732852e-06 0.0000000000000000e+00  -9.3769050887811424e-05 -3.4101643207414648e-06 0.0000000000000000e+00  -1.2173601137375409e-04 -4.9170473436525525e-06 0.0000000000000000e+00  -1.5914704473795127e-04 -7.2096593901778812e-06 0.0000000000000000e+00  -2.1033347820629818e-04 -1.0781829296867608e-05 0.0000000000000000e+00  -2.8200990703688018e-04 -1.6490929431013543e-05 0.0000000000000000e+00  -3.8461223152103937e-04 -2.5871129056368341e-05 0.0000000000000000e+00  -5.3381213363929119e-04 -4.1724827506238597e-05 0.0000000000000000e+00  -7.4975065452153743e-04 -6.8863057455865391e-05 0.0000000000000000e+00  -1.0355919385918193e-03 -1.0915628311115294e-04 0.0000000000000000e+00  0.0000000000000000e+00 0.0000000000000000e+00 0.0000000000000000e+00  -4.8374130673317884e-06 -1.2241424409058608e-07 0.0000000000000000e+00  -9.9266539207950132e-06 -2.5663905639430656e-07 0.0000000000000000e+00  -1.5539421699286884e-05 -4.1632374466271920e-07 0.0000000000000000e+00  -2.1994072282249284e-05 -6.1930627830019076e-07 0.0000000000000000e+00  -2.9688402376334530e-05 -8.9091163388191638e-07 0.0000000000000000e+00  -3.9146917881827390e-05 -1.2691338467773342e-06 0.0000000000000000e+00  -5.1093572972161321e-05 -1.8132479317074334e-06 0.0000000000000000e+00  -6.6569552490111162e-05 -2.6186990908095491e-06 0.0000000000000000e+00  -8.7132665035679255e-05 -3.8437395214781465e-06 0.0000000000000000e+00  -1.1520939889515381e-04 -5.7587899430875759e-06 0.0000000000000000e+00  -1.5474212978135266e-04 -8.8418727881018303e-06 0.0000000000000000e+00  -2.1242274076006460e-04 -1.3974604991535668e-05 0.0000000000000000e+00  -3.0010734807731456e-04 -2.2887133739686402e-05 0.0000000000000000e+00  -4.3960847761743716e-04 -3.9357902040968765e-05 0.0000000000000000e+00  -6.7253898621910994e-04 -7.3410857924498780e-05 0.0000000000000000e+00  -1.0878071534945210e-03 -1.6156038324472325e-04 0.0000000000000000e+00  0.0000000000000000e+00 0.0000000000000000e+00 0.0000000000000000e+00  -2.4807782126756326e-06 -6.4315384582276104e-08 0.0000000000000000e+00  -5.0927289274526061e-06 -1.3503838580526786e-07 0.0000000000000000e+00  -7.9777134902874494e-06 -2.1960808471184056e-07 0.0000000000000000e+00  -1.1302852274866166e-05 -3.2782633576482579e-07 0.0000000000000000e+00  -1.5278570100777623e-05 -4.7374731073674566e-07 0.0000000000000000e+00  -2.0185085502039833e-05 -6.7868672591349674e-07 0.0000000000000000e+00  -2.6414108760165816e-05 -9.7628986053081557e-07 0.0000000000000000e+00  -3.4538356641725091e-05 -1.4213915138551681e-06 0.0000000000000000e+00  -4.5433863922312917e-05 -2.1059316877553767e-06 0.0000000000000000e+00  -6.0507570614892619e-05 -3.1880142315480658e-06 0.0000000000000000e+00  -8.2146926960519217e-05 -4.9445932177294863e-06 0.0000000000000000e+00  -1.1466379260342569e-04 -7.8602498501961482e-06 0.0000000000000000e+00  -1.6637152783242372e-04 -1.2731925794154599e-05 0.0000000000000000e+00  -2.5406940261452971e-04 -2.0517791131691855e-05 0.0000000000000000e+00  -4.0995930858887526e-04 -3.0384925374290842e-05 0.0000000000000000e+00  -6.6959602034921966e-04 -3.1531834067251219e-05 0.0000000000000000e+00  0.0000000000000000e+00 0.0000000000000000e+00 0.0000000000000000e+00  0.0000000000000000e+00 0.0000000000000000e+00 0.0000000000000000e+00  0.0000000000000000e+00 0.0000000000000000e+00 0.0000000000000000e+00  0.0000000000000000e+00 0.0000000000000000e+00 0.0000000000000000e+00  0.0000000000000000e+00 0.0000000000000000e+00 0.0000000000000000e+00  0.0000000000000000e+00 0.0000000000000000e+00 0.0000000000000000e+00  0.0000000000000000e