<?xml version="1.0"?>
<VTKFile type="UnstructuredGrid"  version="0.1"  >
<UnstructuredGrid>
<Piece  NumberOfPoints="289" NumberOfCells="512">
<Points>
<DataArray  type="Float64"  NumberOfComponents="3"  format="ascii">0 0 0  0.0625 0 0  0.125 0 0  0.1875 0 0  0.25 0 0  0.3125 0 0  0.375 0 0  0.4375 0 0  0.5 0 0  0.5625 0 0  0.625 0 0  0.6875 0 0  0.75 0 0  0.8125 0 0  0.875 0 0  0.9375 0 0  1 0 0  0 0.0625 0  0.06251996968461258 0.06249510699599523 0  0.1250408970173252 0.06249012770504934 0  0.18756380335897 0.06248498342722066 0  0.2500898405831782 0.06247961215478396 0  0.3126203722809406 0.06247397863918956 0  0.3751570776712298 0.06246808576365236 0  0.4377020944302255 0.06246198591468722 0  0.5002582310842019 0.06245578845698947 0  0.5628293141400803 0.06244965415270843 0  0.6254208228869385 0.06244375622806961 0  0.6880412028415619 0.06243816202142628 0  0.7507049398278079 0.06243252130057323 0  0.8134406232991525 0.06242524250893207 0  0.8763143373711455 0.06241115023575899 0  0.9395037549847433 0.06237420821455376 0  1.003553439302637 0.06226476224646986 0  0 0.125 0  0.06253895683896608 0.1249902999201615 0  0.1250797702115165 0.1249804191863165 0  0.1876244199735059 0.124970191542013 0  0.2501751389468105 0.1249594827363485 0  0.312734569815505 0.124948210667621 0  0.3753059640547993 0.1249363693960406 0  0.4378934494795803 0.1249240557222911 0  0.500502411493858 0.1249114932090284 0  0.5631400720312592 0.1248990412527032 0  0.6258164334196579 0.1248871636815412 0  0.6885459303006638 0.1248763094660984 0  0.7513504765953071 0.1248666291256208 0  0.814265096393945 0.1248574508100298 0  0.8773470657289617 0.1248466953138112 0  0.9406820731172989 0.1248320348538598 0  1.004331865991718 0.1248233035050387 0  0 0.1875 0  0.06255606869660088 0.1874856734875091 0  0.1251147754772476 0.1874710567210764 0  0.1876789314875851 0.1874558789030917 0  0.2502517033986212 0.187439913267637 0  0.3128368325504477 0.1874230067021476 0  0.3754389091226805 0.1874051177174272 0  0.4380637304556483 0.1873863634128208 0  0.5007187846950303 0.1873670726119573 0  0.5634139196832064 0.1873478356340546 0  0.6261622820555083 0.1873295294224097 0  0.6889816266493126 0.1873132785071992 0  0.7518960191555637 0.1873002884932931 0  0.8149374746554027 0.1872914640096871 0  0.878145237973404 0.1872866748276064 0  0.9415551138997567 0.1872831404327712 0  1.005162398933307 0.1872694297073545 0  0 0.25 0  0.06257053247873726 0.2499813376003422 0  0.1251443179667135 0.2499622547787451 0  0.1877248178193604 0.2499423525735919 0  0.250315922549917 0.2499212820156202 0  0.3129222153244656 0.2498987809952692 0  0.3755492986282128 0.2498747256275936 0  0.4382042123083721 0.2498492006224522 0  0.5008959745896618 0.2498225914953072 0  0.5636362744905706 0.249795697225255 0  0.6264403189187386 0.2497698532925924 0  0.6893277505558744 0.2497470395513326 0  0.7523233065665041 0.2497299226089664 0  0.815456277251344 0.2497217448826945 0  0.878756528439224 0.2497259129206656 0  0.9422428572746 0.2497450516590241 0  1.005898972587087 0.249779495886753 0  0 0.3125 0  0.06258174132133709 0.3124774226630886 0  0.1251671483445316 0.3124542719880556 0  0.1877601126878868 0.3124299935187879 0  0.250364993493283 0.312404079228627 0  0.3129869051077225 0.3123761067935018 0  0.3756320742096622 0.3123458000120781 0  0.43830829585274 0.3123131200933525 0  0.501025518032561 0.3122783990185726 0  0.5637965727906855 0.3122425264028043 0  0.6266380301906779 0.3122071979984504 0  0.6895710434454356 0.3121752231462626 0  0.7526218182520482 0.3121508634918138 0  0.8158209098215473 0.312140127644689 0  0.8791999761551618 0.3121508746080935 0  0.9427844754747751 0.3121925320888069 0  1.006583083750838 0.3122754575828783 0  0 0.375 0  0.06258928646264503 0.3749740817287833 0  0.1251824303131115 0.3749474169919986 0  0.1877835126362303 0.3749192696229558 0  0.2503970806812648 0.3748889333711609 0  0.3130284373389185 0.3748557656148844 0  0.3756840054842478 0.3748192473818256 0  0.4383718028907104 0.3747790848777398 0  0.5011020689973904 0.374735373574737 0  0.563888082644346 0.374688852869261 0  0.626747185254484 0.3746412853334121 0  0.6897019495525999 0.3745959940862669 0  0.7527812707405604 0.3745585723452952 0  0.8160208799677077 0.3745377173389801 0  0.8794624700509029 0.3745460018575316 0  0.9431506619941384 0.3746001483270273 0  1.007128227244507 0.3747199911343703 0  0 0.4375 0  0.06259297356525148 0.4374714879158181 0  0.1251897752947416 0.4374420447320582 0  0.1877944342477209 0.4374107342569452 0  0.2504114019213125 0.4373766185084339 0  0.3130458179365176 0.4373387750860098 0  0.3757038524022637 0.4372963419718523 0  0.4383931702157189 0.4372486090082122 0  0.5011235815872963 0.4371951861463942 0  0.5639079666732019 0.4371362944303626 0  0.6267635835474119 0.4370732464686553 0  0.6897138687642146 0.437009204594959 0  0.7527907781393234 0.4369503117144596 0  0.8160375277607378 0.4369072430131783 0  0.8795112221807211 0.4368970488005636 0  0.9432843434484591 0.4369447427661923 0  1.007443703546216 0.4370834109669618 0  0 0.5 0  0.06259282194530935 0.4999698256575881 0  0.1251892417100036 0.4999385397632393 0  0.1877930157421232 0.4999050038844594 0  0.2504082374812858 0.4998680312299985 0  0.3130395505919553 0.4998263755521381 0  0.3756924309394103 0.4997787419898462 0  0.4383735895227527 0.4997238394429641 0  0.5010915849162384 0.4996605090831449 0  0.5638577942951161 0.4995879887825838 0  0.6266879853929779 0.499506413307313 0  0.6896048564328571 0.4994177083876134 0  0.7526420284089588 0.4993271063054743 0  0.8158499496089652 0.4992455498169482 0  0.8793036959836315 0.4991931312224925 0  0.9431112555747413 0.4992031492572138 0  1.0074184460485 0.4993249700894092 0  0 0.5625 0  0.06258904626004966 0.562469274993076 0  0.1251812973391299 0.5624372844109629 0  0.1877800589918751 0.5624027097343208 0  0.2503888534476902 0.5623641268169707 0  0.3130115516347781 0.5623199556032618 0  0.3756525494713592 0.562268418060257 0  0.4383170359865749 0.5622075182073233 0  0.5010114504638133 0.5621350739659914 0  0.5637443226828379 0.5620488609878957 0  0.6265278707826443 0.5619469856708775 0  0.689381041283779 0.5618287075186912 0  0.7523351350434926 0.5616961036886412 0  0.8154436357236758 0.5615572139851512 0  0.8787977366058278 0.5614315031984051 0  0.9425468159385268 0.5613581118125931 0  1.006916658771248 0.5614051856272599 0  0 0.625 0  0.06258202143343891 0.6249699893481176 0  0.1251667453585092 0.6249386121632203 0  0.187756909833581 0.6249044226253371 0  0.2503553290129849 0.6248658098899055 0  0.3129649229974416 0.6248209031082891 0  0.3755887468314976 0.6247674633022214 0  0.4382300420726725 0.6247027629824113 0  0.5008923809288308 0.6246234648855834 0  0.5635800830530292 0.624525536194674 0  0.626299331607814 0.6244042920065084 0  0.6890609341739822 0.6242547901378347 0  0.7518866736210139 0.6240730772795282 0  0.8148228325862883 0.623859352378987 0  0.8779662412713175 0.6236250981887392 0  0.9415070536075952 0.6234071784930414 0  1.00578026913841 0.6232894026984973 0  0 0.6875 0  0.06257223374579238 0.6874720689915798 0  0.1251466191548648 0.6874427505023041 0  0.1877252816091128 0.6874105566001557 0  0.2503102864006122 0.687373785057861 0  0.3129035617717741 0.687330383253958 0  0.3755067609438739 0.6872777738613243 0  0.4381210399409535 0.687212624485818 0  0.5007467446338401 0.6871305412418722 0  0.5633830701562178 0.687025670027871 0  0.6260279746090369 0.6868902137295537 0  0.6886792336446012 0.686713960940174 0  0.7513390514198662 0.686484191901947 0  0.8140281404597908 0.6861871135343229 0  0.8768218973555737 0.6858141314598301 0  0.9399290198625352 0.6853813413060749 0  1.003821685871129 0.6849760266852498 0  0 0.75 0  0.06256022405366497 0.7499755342371935 0  0.1251220581159838 0.7499497617388724 0  0.1876870402032841 0.7499212651486039 0  0.2502565451705103 0.7498883872057435 0  0.3128316218073022 0.7498490685531369 0  0.3754127099390904 0.7498006257625219 0  0.437999155867677 0.7497394327001462 0  0.5005884039233416 0.749660449462259 0  0.5631747004031183 0.7495565136663858 0  0.6257471647791389 0.7494172661511997 0  0.6882873926598319 0.7492275334005066 0  0.7507681202866336 0.7489649887595436 0  0.8131592098390179 0.748597258836454 0  0.8754614585545147 0.748080713837408 0  0.9378237571536282 0.7473732470912763 0  1.000825256537686 0.7465171531571083 0  0 0.8125 0  0.06254653227751243 0.8124803039233091 0  0.1250941846055525 0.8124594940378153 0  0.1876439857399428 0.8124363512725042 0  0.2501967563919306 0.8124094256679775 0  0.312752907506762 0.8123768735952606 0  0.3753120851807181 0.8123362255161038 0  0.4378725354364252 0.8122840361565788 0  0.5004299596331456 0.8122153374150365 0  0.5629754412113378 0.8121227568762949 0  0.6254916890159249 0.8119950567449389 0  0.6879463320904786 0.8118146341195346 0  0.7502806116474228 0.8115530742189667 0  0.8123935987363277 0.8111628710186314 0  0.8741361900991567 0.8105614856337021 0  0.9354027479337204 0.809602619951837 0  0.9967796740181063 0.8080620907895218 0  0 0.875 0  0.06253165413016057 0.8749861850499627 0  0.1250640076481597 0.8749715560647126 0  0.1875976793700193 0.8749552162064843 0  0.2501331036818362 0.8749360856434822 0  0.312670351995261 0.8749127689802343 0  0.3752088135755917 0.8748833612232216 0  0.4377466065652436 0.8748451472876096 0  0.5002794629767007 0.8747941181040396 0  0.5627985556412161 0.8747241668807145 0  0.6252861181465665 0.8746257147937542 0  0.6877062961675086 0.8744832814575413 0  0.7499854225014804 0.8742709750019596 0  0.8119687474488457 0.8739433670317671 0  0.8733272411965322 0.8734140351097708 0  0.9333787962025288 0.8724932581161786 0  0.9909126306902792 0.8706565523645421 0  0 0.9375 0  0.06251601989365856 0.9374928781521878 0  0.1250323770472801 0.9374853261222817 0  0.1875493632139951 0.9374768680774916 0  0.2500671658673916 0.9374669268628567 0  0.3125857672059519 0.9374547494654817 0  0.3751047621179613 0.9374392964161983 0  0.4376230166494316 0.937419068169
[...]
<PointData  Vectors="f_54"> 
<DataArray  type="Float64"  Name="f_54"  NumberOfComponents="3" format="ascii">0.0000000000000000e+00 0.0000000000000000e+00 0.0000000000000000e+00  0.0000000000000000e+00 0.0000000000000000e+00 0.0000000000000000e+00  0.0000000000000000e+00 0.0000000000000000e+00 0.0000000000000000e+00  0.0000000000000000e+00 0.0000000000000000e+00 0.0000000000000000e+00  0.0000000000000000e+00 0.0000000000000000e+00 0.0000000000000000e+00  0.0000000000000000e+00 0.0000000000000000e+00 0.0000000000000000e+00  0.0000000000000000e+00 0.0000000000000000e+00 0.0000000000000000e+00  0.0000000000000000e+00 0.0000000000000000e+00 0.0000000000000000e+00  0.0000000000000000e+00 0.0000000000000000e+00 0.0000000000000000e+00  0.0000000000000000e+00 0.0000000000000000e+00 0.0000000000000000e+00  0.0000000000000000e+00 0.0000000000000000e+00 0.0000000000000000e+00  0.0000000000000000e+00 0.0000000000000000e+00 0.0000000000000000e+00  0.0000000000000000e+00 0.0000000000000000e+00 0.0000000000000000e+00  0.0000000000000000e+00 0.0000000000000000e+00 0.0000000000000000e+00  0.0000000000000000e+00 0.0000000000000000e+00 0.0000000000000000e+00  0.0000000000000000e+00 0.0000000000000000e+00 0.0000000000000000e+00  0.0000000000000000e+00 0.0000000000000000e+00 0.0000000000000000e+00  0.0000000000000000e+00 0.0000000000000000e+00 0.0000000000000000e+00  -4.0699127802593369e-06 -2.2261890698454748e-08 0.0000000000000000e+00  -8.2596327678835024e-06 -4.2568570116385799e-08 0.0000000000000000e+00  -1.2689764125684892e-05 -5.8550926517391099e-08 0.0000000000000000e+00  -1.7480866332017468e-05 -6.6959615750387380e-08 0.0000000000000000e+00  -2.2752552485733902e-05 -6.3111297807001701e-08 0.0000000000000000e+00  -2.8621537219285349e-05 -4.0193761871765928e-08 0.0000000000000000e+00  -3.5198446366877628e-05 1.1629631451020703e-08 0.0000000000000000e+00  -4.2583564402533968e-05 1.0640483925202005e-07 0.0000000000000000e+00  -5.0862626747597148e-05 2.6404646074705829e-07 0.0000000000000000e+00  -6.0106155134357139e-05 5.1298055863638484e-07 0.0000000000000000e+00  -7.0382334935671867e-05 8.9537808908674736e-07 0.0000000000000000e+00  -8.1812700985119786e-05 1.4804122539096962e-06 0.0000000000000000e+00  -9.4762602118518875e-05 2.4049334956536516e-06 0.0000000000000000e+00  -1.1048149637159881e-04 4.0149539856777262e-06 0.0000000000000000e+00  -1.3337863640782392e-04 7.4061928426265456e-06 0.0000000000000000e+00  -1.8003543070168145e-04 1.6727892917386997e-05 0.0000000000000000e+00  0.0000000000000000e+00 0.0000000000000000e+00 0.0000000000000000e+00  -8.0220046565078373e-06 -4.6487887544810883e-08 0.0000000000000000e+00  -1.6283868365213642e-05 -8.9479078321809821e-08 0.0000000000000000e+00  -2.5027388818673787e-05 -1.2469227637832834e-07 0.0000000000000000e+00  -3.4495105081910683e-05 -1.4617145346717305e-07 0.0000000000000000e+00  -4.4928875331405057e-05 -1.4522340352079025e-07 0.0000000000000000e+00  -5.6566234854922660e-05 -1.0907873933710379e-07 0.0000000000000000e+00  -6.9633931088278284e-05 -1.9173727759928657e-08 0.0000000000000000e+00  -8.4338426825322500e-05 1.5106238269888314e-07 0.0000000000000000e+00  -1.0085414048334365e-04 4.3906709336923925e-07 0.0000000000000000e+00  -1.1931234952701169e-04 8.9691332383471612e-07 0.0000000000000000e+00  -1.3979807705212291e-04 1.5965010402377954e-06 0.0000000000000000e+00  -1.6237018821569149e-04 2.6369161206344829e-06 0.0000000000000000e+00  -1.8712876435913255e-04 4.1526269500099666e-06 0.0000000000000000e+00  -2.1432910921087675e-04 6.3013629784617224e-06 0.0000000000000000e+00  -2.4425241206793645e-04 9.0832828458407423e-06 0.0000000000000000e+00  -2.7462554710182876e-04 1.1109464041000053e-05 0.0000000000000000e+00  0.0000000000000000e+00 0.0000000000000000e+00 0.0000000000000000e+00  -1.1735562482447222e-05 -7.4212391570920779e-08 0.0000000000000000e+00  -2.3830734358824442e-05 -1.4417526954423323e-07 0.0000000000000000e+00  -3.6648854620471991e-05 -2.0457139479795899e-07 0.0000000000000000e+00  -5.0556381810970605e-05 -2.4778922161280780e-07 0.0000000000000000e+00  -6.5921739828123238e-05 -2.6244283476797991e-07 0.0000000000000000e+00  -8.3110660637668318e-05 -2.3148236323066880e-07 0.0000000000000000e+00  -1.0247673457636095e-04 -1.2975256054076209e-07 0.0000000000000000e+00  -1.2434598139547261e-04 7.9122867710747682e-08 0.0000000000000000e+00  -1.4899466159488183e-04 4.4658605813326959e-07 0.0000000000000000e+00  -1.7662035403206752e-04 1.0435975684625995e-06 0.0000000000000000e+00  -2.0730716029741998e-04 1.9651304979607455e-06 0.0000000000000000e+00  -2.4098447451477746e-04 3.3329649259567816e-06 0.0000000000000000e+00  -2.7736643957798998e-04 5.2919127780506336e-06 0.0000000000000000e+00  -3.1580985909635001e-04 7.9876820032825039e-06 0.0000000000000000e+00  -3.5488647290954080e-04 1.1513121228042981e-05 0.0000000000000000e+00  -3.9127041583325584e-04 1.5942737998934358e-05 0.0000000000000000e+00  0.0000000000000000e+00 0.0000000000000000e+00 0.0000000000000000e+00  -1.5090301543249525e-05 -1.0617913348217572e-07 0.0000000000000000e+00  -3.0658319249019185e-05 -2.0843317321593169e-07 0.0000000000000000e+00  -4.7188240258749794e-05 -3.0161582795007543e-07 0.0000000000000000e+00  -6.5172111752623220e-05 -3.7792862849106518e-07 0.0000000000000000e+00  -8.5110253996171917e-05 -4.2516009693741195e-07 0.0000000000000000e+00  -1.0750694350144496e-04 -4.2437839647212002e-07 0.0000000000000000e+00  -1.3285923275622199e-04 -3.4687229367969316e-07 0.0000000000000000e+00  -1.6163641414928599e-04 -1.5015853638985448e-07 0.0000000000000000e+00  -1.9424733299848855e-04 2.2701597189909744e-07 0.0000000000000000e+00  -2.3099248115457532e-04 8.7044312459326834e-07 0.0000000000000000e+00  -2.7199711913349442e-04 1.8960544175019859e-06 0.0000000000000000e+00  -3.1711899881589839e-04 3.4529685704143782e-06 0.0000000000000000e+00  -3.6581574522965519e-04 5.7190317564170606e-06 0.0000000000000000e+00  -4.1693706764226699e-04 8.8805950158887040e-06 0.0000000000000000e+00  -4.6838184195845763e-04 1.3088203875324472e-05 0.0000000000000000e+00  -5.1660711584672922e-04 1.8388803223257557e-05 0.0000000000000000e+00  0.0000000000000000e+00 0.0000000000000000e+00 0.0000000000000000e+00  -1.7967796762945330e-05 -1.4205423640582486e-07 0.0000000000000000e+00  -3.6527272081211752e-05 -2.8174486744540921e-07 0.0000000000000000e+00  -5.6280521797972299e-05 -4.1550103174028193e-07 0.0000000000000000e+00  -7.7845279992914675e-05 -5.3708649745228473e-07 0.0000000000000000e+00  -1.0185874567866936e-04 -6.3574835987437611e-07 0.0000000000000000e+00  -1.2897580042407452e-04 -6.9368691489604523e-07 0.0000000000000000e+00  -1.5985864371535473e-04 -6.8254269115721820e-07 0.0000000000000000e+00  -1.9515396016787833e-04 -5.5856702460592265e-07 0.0000000000000000e+00  -2.3545269989899383e-04 -2.5618610308115170e-07 0.0000000000000000e+00  -2.8122653774490918e-04 3.2009632039370584e-07 0.0000000000000000e+00  -3.3273426232219831e-04 1.3048653376825844e-06 0.0000000000000000e+00  -3.8989097261540005e-04 2.8800362649194341e-06 0.0000000000000000e+00  -4.5209374791799922e-04 5.2776478475162917e-06 0.0000000000000000e+00  -5.1800299607152002e-04 8.7690267418813722e-06 0.0000000000000000e+00  -5.8530369970615501e-04 1.3628310711181404e-05 0.0000000000000000e+00  -6.5055810419144722e-04 2.0054379562823119e-05 0.0000000000000000e+00  0.0000000000000000e+00 0.0000000000000000e+00 0.0000000000000000e+00  -2.0254056567998149e-05 -1.8026894473943255e-07 0.0000000000000000e+00  -4.1205650129638841e-05 -3.6096516053622432e-07 0.0000000000000000e+00  -6.3568021333384344e-05 -5.4151823470592858e-07 0.0000000000000000e+00  -8.8081272360681940e-05 -7.1909368765171424e-07 0.0000000000000000e+00  -1.1552192015213613e-04 -8.8690324063732869e-07 0.0000000000000000e+00  -1.4670667544503671e-04 -1.0317447230761632e-06 0.0000000000000000e+00  -1.8248682051998623e-04 -1.1303482740303164e-06 0.0000000000000000e+00  -2.2372799164264285e-04 -1.1439638452699858e-06 0.0000000000000000e+00  -2.7126822955895921e-04 -1.0104810113579127e-06 0.0000000000000000e+00  -3.2584514401147745e-04 -6.3331847579603525e-07 0.0000000000000000e+00  -3.8798174680331680e-04 1.3341847794259231e-07 0.0000000000000000e+00  -4.5782168418240200e-04 1.5029816556339369e-06 0.0000000000000000e+00  -5.3491158940614488e-04 3.7741242466066137e-06 0.0000000000000000e+00  -6.1794680066601013e-04 7.3412626019353231e-06 0.0000000000000000e+00  -7.0453476175205058e-04 1.2681287556779542e-05 0.0000000000000000e+00  -7.9109293634514527e-04 2.0296542312140988e-05 0.0000000000000000e+00  0.0000000000000000e+00 0.0000000000000000e+00 0.0000000000000000e+00  -2.1843523362653502e-05 -2.1803022134381529e-07 0.0000000000000000e+00  -4.4476763712354349e-05 -4.4030296471847754e-07 0.0000000000000000e+00  -6.8711692556407432e-05 -6.7047716375172050e-07 0.0000000000000000e+00  -9.5401733415378332e-05 -9.1079822415153540e-07 0.0000000000000000e+00  -1.2545959159643321e-04 -1.1608778900331590e-06 0.0000000000000000e+00  -1.5987026764146441e-04 -1.4157149153830794e-06 0.0000000000000000e+00  -1.9969539762412924e-04 -1.6624414507611298e-06 0.0000000000000000e+00  -2.4606275807497461e-04 -1.8749921848937056e-06 0.0000000000000000e+00  -3.0013158809756547e-04 -2.0054642263591370e-06 0.0000000000000000e+00  -3.6302052224761807e-04 -1.9703656817075966e-06 0.0000000000000000e+00  -4.3568140609578920e-04 -1.6293732844960880e-06 0.0000000000000000e+00  -5.1870177936230743e-04 -7.5414238158798445e-07 0.0000000000000000e+00  -6.1202684397918482e-04 1.0135168168104374e-06 0.0000000000000000e+00  -7.1461661278913232e-04 4.2084185088601366e-06 0.0000000000000000e+00  -8.2410188790929691e-04 9.5732843565183781e-06 0.0000000000000000e+00  -9.3656142420010509e-04 1.8029627493732101e-05 0.0000000000000000e+00  0.0000000000000000e+00 0.0000000000000000e+00 0.0000000000000000e+00  -2.2644641324049495e-05 -2.5152818711872243e-07 0.0000000000000000e+00  -4.6150399902521854e-05 -5.1172550561337096e-07 0.0000000000000000e+00  -7.1408082571573959e-05 -7.8927280167236429e-07 0.0000000000000000e+00  -9.9367113609520675e-05 -1.0927047624927663e-06 0.0000000000000000e+00  -1.3106402014389661e-04 -1.4299880642223163e-06 0.0000000000000000e+00  -1.6764857340587327e-04 -1.8075236461833293e-06 0.0000000000000000e+00  -2.1040426032424179e-04 -2.2280676878318699e-06 0.0000000000000000e+00  -2.6075679328860447e-04 -2.6866584570787351e-06 0.0000000000000000e+00  -3.2025970708790964e-04 -3.1629122237324982e-06 0.0000000000000000e+00  -3.9053937455450446e-04 -3.6068190678888346e-06 0.0000000000000000e+00  -4.7317340787962674e-04 -3.9132357593839735e-06 0.0000000000000000e+00  -5.6946909092282663e-04 -3.8777437685939366e-06 0.0000000000000000e+00  -6.8010988076842719e-04 -3.1247714384410620e-06 0.0000000000000000e+00  -8.0466356660664350e-04 -1.0026750743795946e-06 0.0000000000000000e+00  -9.4101438108081751e-04 3.5390694753075912e-06 0.0000000000000000e+00  -1.0848846396728918e-03 1.2024631642456919e-05 0.0000000000000000e+00  0.0000000000000000e+00 0.0000000000000000e+00 0.0000000000000000e+00  -2.2586892603332241e-05 -2.7635013037448550e-07 0.0000000000000000e+00  -4.6077328705133980e-05 -5.6580831518177108e-07 0.0000000000000000e+00  -7.1412103481521990e-05 -8.8220425051169129e-07 0.0000000000000000e+00  -9.9608674635588969e-05 -1.2407749966176111e-06 0.0000000000000000e+00  -1.3180190264832237e-04 -1.6588176080241303e-06 0.0000000000000000e+00  -1.6928667171548826e-04 -2.1561628511073447e-06 0.0000000000000000e+00  -2.1356076522931417e-04 -2.7551502389274850e-06 0.0000000000000000e+00  -2.6636320668301211e-04 -3.4793789657949005e-06 0.0000000000000000e+00  -3.2969747560666933e-04 -4.3496633190748155e-06 0.0000000000000000e+00  -4.0581901913445007e-04 -5.3738870623091173e-06 0.0000000000000000e+00  -4.9715074814880400e-04 -6.5240122868923962e-06 0.0000000000000000e+00  -6.0606900337448872e-04 -7.6871311338317862e-06 0.0000000000000000e+00  -7.3448311329973284e-04 -8.5673501541922821e-06 0.0000000000000000e+00  -8.8313974739887978e-04 -8.5052732606743955e-06 0.0000000000000000e+00  -1.0506762721070675e-03 -6.1928883634816872e-06 0.0000000000000000e+00  -1.2326917056814381e-03 6.5171181087648598e-07 0.0000000000000000e+00  0.0000000000000000e+00 0.0000000000000000e+00 0.0000000000000000e+00  -2.1628866932371241e-05 -2.8807836841822017e-07 0.0000000000000000e+00  -4.4166296084916632e-05 -5.9299728899900907e-07 0.0000000000000000e+00  -6.8564644234929336e-05 -9.3303186650856417e-07 0.0000000000000000e+00  -9.5869195928870635e-05 -1.3294635541882891e-06 0.0000000000000000e+00  -1.2727119324074985e-04 -1.8084287097498022e-06 0.0000000000000000e+00  -1.6416857922390508e-04 -2.4031678257553617e-06 0.0000000000000000e+00  -2.0823601573741264e-04 -3.1567437704544962e-06 0.0000000000000000e+00  -2.6150343496364876e-04 -4.1251049129391882e-06 0.0000000000000000e+00  -3.2643691137562833e-04 -5.3798149265817438e-06 0.0000000000000000e+00  -4.0600385909661567e-04 -7.0082792843991576e-06 0.0000000000000000e+00  -5.0368130165020977e-04 -9.1054378975797337e-06 0.0000000000000000e+00  -6.2332450623338775e-04 -1.1741298773662091e-05 0.0000000000000000e+00  -7.6875077173650522e-04 -1.4866437241959295e-05 0.0000000000000000e+00  -9.4283225998869095e-04 -1.8073359290145861e-05 0.0000000000000000e+00  -1.1459399356592076e-03 -2.0077460278204593e-05 0.0000000000000000e+00  -1.3739912698712521e-03 -1.7854851309921973e-05 0.0000000000000000e+00  0.0000000000000000e+00 0.0000000000000000e+00 0.0000000000000000e+00  -1.9766523775060643e-05 -2.8300543706512721e-07 0.0000000000000000e+00  -4.0401827859202036e-05 -5.8515201099543006e-07 0.0000000000000000e+00  -6.2822571319403979e-05 -9.2758913301533880e-07 0.0000000000000000e+00  -8.8049389692249102e-05 -1.3357935156231669e-06 0.0000000000000000e+00  -1.1726985700778760e-04 -1.8424821625999081e-06 0.0000000000000000e+00  -1.5191579921840177e-04 -2.4915549982622452e-06 0.0000000000000000e+00  -1.9376111026100964e-04 -3.3436458276572027e-06 0.0000000000000000e+00  -2.4504640778001360e-04 -4.4840891710391022e-06 0.0000000000000000e+00  -3.0863469874776924e-04 -6.0343748138991206e-06 0.0000000000000000e+00  -3.8819353573146039e-04 -8.1682114585253542e-06 0.0000000000000000e+00  -4.8837475238312019e-04 -1.1132060111751530e-05 0.0000000000000000e+00  -6.1490443587975492e-04 -1.5263301564005060e-05 0.0000000000000000e+00  -7.7437256277981944e-04 -2.0972979598700959e-05 0.0000000000000000e+00  -9.7329520807173107e-04 -2.8571671365981287e-05 0.0000000000000000e+00  -1.2158040219657571e-03 -3.7572858823771043e-05 0.0000000000000000e+00  -1.4997546698465028e-03 -4.4808978838180827e-05 0.0000000000000000e+00  0.0000000000000000e+00 0.0000000000000000e+00 0.0000000000000000e+00  -1.7040396576452541e-05 -2.5885429547609782e-07 0.0000000000000000e+00  -3.4860229907512070e-05 -5.3713122306547129e-07 0.0000000000000000e+00  -5.4286953088933738e-05 -8.5655609962211645e-07 0.0000000000000000e+00  -7.6254164752564746e-05 -1.2438928619105338e-06 0.0000000000000000e+00  -1.0186917689228639e-04 -1.7344970493224321e-06 0.0000000000000000e+00  -1.3250074542877431e-04 -2.3773632331035475e-06 0.0000000000000000e+00  -1.6989822096418820e-04 -3.2426735364388880e-06 0.0000000000000000e+00  -2.1635767981194182e-04 -4.4335212525429943e-06 0.0000000000000000e+00  -2.7495562408056122e-04 -6.1047616483872103e-06 0.0000000000000000e+00  -3.4987380424212727e-04 -8.4944574154509332e-06 0.0000000000000000e+00  -4.4683022583908295e-04 -1.1978278928684957e-05 0.0000000000000000e+00  -5.7358446751631454e-04 -1.7165525556898476e-05 0.0000000000000000e+00  -7.4033004468100671e-04 -2.5061446987997261e-05 0.0000000000000000e+00  -9.5935976261822813e-04 -3.7270826373255057e-05 0.0000000000000000e+00  -1.2424221586206164e-03 -5.5781879508807112e-05 0.0000000000000000e+00  -1.5939131681932633e-03 -7.9218743546747135e-05 0.0000000000000000e+00  0.0000000000000000e+00 0.0000000000000000e+00 0.0000000000000000e+00  -1.3540189499561487e-05 -2.1535993752575086e-07 0.0000000000000000e+00  -2.7720412156188616e-05 -4.4810005249546628e-07 0.0000000000000000e+00  -4.3223764513382847e-05 -7.1782280223668986e-07 0.0000000000000000e+00  -6.0829829896852739e-05 -1.0490366851363524e-06 0.0000000000000000e+00  -8.1478665698385937e-05 -1.4746988636681775e-06 0.0000000000000000e+00  -1.0635767721697541e-04 -2.0413552706092439e-06 0.0000000000000000e+00  -1.3702635535496954e-04 -2.8169941472907800e-06 0.0000000000000000e+00  -1.7560262787489099e-04 -3.9035191317193487e-06 0.0000000000000000e+00  -2.2504911936068253e-04 -5.4573684349541395e-06 0.0000000000000000e+00  -2.8962049615305796e-04 -7.7255020281126725e-06 0.0000000000000000e+00  -3.7556474368051262e-04 -1.1113446337376008e-05 0.0000000000000000e+00  -4.9219882003472242e-04 -1.6328673180672495e-05 0.0000000000000000e+00  -6.5343470279075652e-04 -2.4720682861550993e-05 0.0000000000000000e+00  -8.7943702379644512e-04 -3.9166920507716991e-05 0.0000000000000000e+00  -1.1961216907125402e-03 -6.6476452181396458e-05 0.0000000000000000e+00  -1.6180315290480461e-03 -1.2353215126744208e-04 0.0000000000000000e+00  0.0000000000000000e+00 0.0000000000000000e+00 0.0000000000000000e+00  -9.4051812689261445e-06 -1.5457026856009395e-07 0.0000000000000000e+00  -1.9265938523794030e-05 -3.2223099257308141e-07 0.0000000000000000e+00  -3.0070525488982096e-05 -5.1782380279864311e-07 0.0000000000000000e+00  -4.2381121284187554e-05 -7.6007391044499717e-07 0.0000000000000000e+00  -5.6884403935642496e-05 -1.0744188556934849e-06 0.0000000000000000e+00  -7.4462556932997000e-05 -1.4971232297524023e-06 0.0000000000000000e+00  -9.6299579683470246e-05 -2.0815187677323314e-06 0.0000000000000000e+00  -1.2404860536727237e-04 -2.9076571290357108e-06 0.0000000000000000e+00  -1.6010659709143237e-04 -4.0973421359412372e-06 0.0000000000000000e+00  -2.0808287138344774e-04 -5.8375696977799779e-06 0.0000000000000000e+00  -2.7362661376313375e-04 -8.4177188298003906e-06 0.0000000000000000e+00  -3.6593342838521525e-04 -1.2295080209699825e-05 0.0000000000000000e+00  -5.0055298712753350e-04 -1.8252257964589574e-05 0.0000000000000000e+00  -7.0472143509576937e-04 -2.7967678162543877e-05 0.0000000000000000e+00  -1.0279740601345617e-03 -4.6592750846696020e-05 0.0000000000000000e+00  -1.5688707840027089e-03 -9.5134452446925859e-05 0.0000000000000000e+00  0.0000000000000000e+00 0.0000000000000000e+00 0.0000000000000000e+00  -4.8192270295705843e-06 -8.0768568618947933e-08 0.0000000000000000e+00  -9.8753955271885799e-06 -1.6856687262876104e-07 0.0000000000000000e+00  -1.5423112179967075e-05 -2.7138739394433656e-07 0.0000000000000000e+00  -2.1757183484148023e-05 -3.9936147450560471e-07 0.0000000000000000e+00  -2.9240665854657074e-05 -5.6631758920199316e-07 0.0000000000000000e+00  -3.8345099078425700e-05 -7.9203138950490781e-07 0.0000000000000000e+00  -4.9712382144547778e-05 -1.1055554538527307e-06 0.0000000000000000e+00  -6.4255503555794014e-05 -1.5500426049011924e-06 0.0000000000000000e+00  -8.3331229206624430e-05 -2.1890194708637803e-06 0.0000000000000000e+00  -1.0905155986302571e-04 -3.1114889269118890e-06 0.0000000000000000e+00  -1.4487425412967447e-04 -4.4222574896781221e-06 0.0000000000000000e+00  -1.9677207916020756e-04 -6.1606248561311439e-06 0.0000000000000000e+00  -2.7558851422801895e-04 -7.9261549687442359e-06 0.0000000000000000e+00  -4.0145219853317520e-04 -7.4030191321820643e-06 0.0000000000000000e+00  -6.0869418768802355e-04 4.6794106268578426e-06 0.0000000000000000e+00  -9.2901797676176985e-04 5.5609080678788949e-05 0.0000000000000000e+00  0.0000000000000000e+00 0.0000000000000000e+00 0.0000000000000000e+00  0.0000000000000000e+00 0.0000000000000000e+00 0.0000000000000000e+00  0.0000000000000000e+00 0.0000000000000000e+00 0.0000000000000000e+00  0.0000000000000000e+00 0.0000000000000000e+00 0.0000000000000000e+00  0.0000000000000000e+00 0.0000000000000000e+00 0.0000000000000000e+00  0.0000000000000000e+00 0.0000000000000000e+00 0.0000000000000000e+00  0.00000000