<?xml version="1.0"?>
<VTKFile type="UnstructuredGrid"  version="0.1"  >
<UnstructuredGrid>
<Piece  NumberOfPoints="289" NumberOfCells="512">
<Points>
<DataArray  type="Float64"  NumberOfComponents="3"  format="ascii">0 0 0  0.0625 0 0  0.125 0 0  0.1875 0 0  0.25 0 0  0.3125 0 0  0.375 0 0  0.4375 0 0  0.5 0 0  0.5625 0 0  0.625 0 0  0.6875 0 0  0.75 0 0  0.8125 0 0  0.875 0 0  0.9375 0 0  1 0 0  0 0.0625 0  0.06246779919452242 0.06249442510998383 0  0.124934994040647 0.06248877080850869 0  0.1874010289317642 0.06248296978668023 0  0.2498654687259564 0.06247698131963651 0  0.3123280840606036 0.06247080792245474 0  0.3747889696574608 0.06246451543433371 0  0.4372487119218621 0.06245825623927044 0  0.4997086299305728 0.06245229324870258 0  0.5621711319478351 0.0624470184078955 0  0.6246402754342888 0.06244295268063491 0  0.6871227428660515 0.06244070298967532 0  0.7496298007739961 0.06244083343153459 0  0.8121818676665523 0.06244358590313852 0  0.8748205729560744 0.06244841110410763 0  0.9376433070930821 0.06245385489855687 0  1.000905122615996 0.06246521456489333 0  0 0.125 0  0.06243619358894446 0.1249889296027085 0  0.1248711264226025 0.1249776876913978 0  0.1873036278842626 0.1249661255451419 0  0.2497327520816011 0.1249541449107713 0  0.3121579397560028 0.1249417305363325 0  0.3745792450816149 0.1249289906162115 0  0.4369976579882562 0.1249162056083548 0  0.4994155635897848 0.1249038824981848 0  0.5618374016887629 0.1248928051356778 0  0.6242706345225848 0.1248840599099738 0  0.6867272283202054 0.124878997613369 0  0.7492260506253006 0.1248790660050972 0  0.8117968916953097 0.1248854189816304 0  0.874486821421145 0.1248981961299325 0  0.937366553173589 0.1249152834008058 0  1.000516039032958 0.124928194927583 0  0 0.1875 0  0.06240585404655942 0.1874836060567698 0  0.1248096911096861 0.1874669246694085 0  0.1872096093857586 0.1874496989051351 0  0.2496039997216144 0.1874317403563109 0  0.3119917632522801 0.1874129754724864 0  0.3743726220705455 0.1873935059508023 0  0.4367475645613514 0.1873736862042862 0  0.4991194759304816 0.187354217619941 0  0.561494015247283 0.1873362523430746 0  0.6238808112857398 0.1873214861153243 0  0.6862950504187043 0.1873121967047013 0  0.7487594748336054 0.1873111467391704 0  0.8113065284557938 0.1873212066256663 0  0.873979369133892 0.1873444217047147 0  0.9368276180307635 0.1873798630435161 0  0.9998888638828262 0.1874185031076224 0  0 0.25 0  0.06237755244309429 0.2499785708372439 0  0.1247522017840905 0.2499567063820606 0  0.1871211607658495 0.2499340048020284 0  0.2494819483891954 0.2499101411925982 0  0.3118326319120487 0.2498849233923932 0  0.3741721854235943 0.2498583694244258 0  0.4365010166596058 0.2498308141850436 0  0.4988217205965433 0.2498030515699596 0  0.5611401183202268 0.2497765134581945 0  0.6234666191525167 0.2497534757148191 0  0.6858178726389983 0.2497372587590457 0  0.7482184880775086 0.2497323494654397 0  0.8107021590376354 0.2497443039293331 0  0.8733106351211308 0.2497791925797653 0  0.93608759144326 0.2498422656344698 0  0.9990636661333078 0.2499358245034095 0  0 0.3125 0  0.06235218737035401 0.3124739721551973 0  0.1247004518653192 0.3124473260485531 0  0.1870409563794394 0.3124194731668945 0  0.2493701147167602 0.3123898963900044 0  0.3116848174545404 0.3123582077925355 0  0.3739827923667907 0.3123242357370349 0  0.4362631631654679 0.3122881550511656 0  0.4985272810289706 0.3122506764969739 0  0.560779904455208 0.3122133124398147 0  0.6230307759337907 0.3121787311504482 0  0.6852965537845578 0.312151195981988 0  0.747602847401423 0.3121370469150911 0  0.8099857086335505 0.3121451067881217 0  0.8724913633005338 0.3121867784342053 0  0.9351725927169696 0.3122754939324894 0  0.9980812881938054 0.3124252983025512 0  0 0.375 0  0.06233078368939737 0.3749699932186644 0  0.1246565204463849 0.3749391537105479 0  0.1869721843719092 0.3749066665378191 0  0.2492728663251528 0.3748717647850847 0  0.311553934948394 0.3748337782053839 0  0.3738113410814576 0.3747922165124849 0  0.4360421438766237 0.3747469075118664 0  0.4982453606083911 0.3746982182721217 0  0.5604232625614949 0.3746473972512185 0  0.6225832388134939 0.3745970840008019 0  0.6847402930718992 0.3745520331221773 0  0.7469200695384759 0.3745200730807384 0  0.8091619616287172 0.3745132352772776 0  0.8715213558235765 0.3745487964829893 0  0.9340696663504245 0.3746496406688008 0  0.9968911865560652 0.3748428917469699 0  0 0.4375 0  0.0623144602927462 0.4374668485377128 0  0.1246227119723716 0.437432630478177 0  0.1869184678213922 0.437396276131249 0  0.2491953420289721 0.4373567204975164 0  0.3114468912805241 0.4373129285208913 0  0.3736667913552899 0.4372639548703239 0  0.4358492403448734 0.4372090627771453 0  0.4979897249149342 0.4371479408001384 0  0.5600863451204652 0.4370810779788159 0  0.6221419562252291 0.4370103873080772 0  0.6841674213488893 0.4369402002653237 0  0.7461862054478374 0.4368787717237639 0  0.8082402546717915 0.4368403815354011 0  0.8703964483695072 0.4368478847668486 0  0.9327518695695562 0.4369349853940001 0  0.9954351391005986 0.4371465287038588 0  0 0.5 0  0.06230436288752905 0.4999647717673937 0  0.1246014219236575 0.4999282449192266 0  0.1868836653314292 0.4998890888830825 0  0.2491431954734207 0.4998459158081507 0  0.3113715934736983 0.4997972671182173 0  0.3735598841672718 0.4997416259027812 0  0.435698694160636 0.4996774789009082 0  0.4977787660028076 0.4996034709807158 0  0.5597921034879738 0.4995187282214826 0  0.6217341874581245 0.4994234808088007 0  0.6836079086729996 0.4993202015459902 0  0.74543004121038 0.4992155856331785 0  0.8072410050842869 0.4991237809625371 0  0.8691178707343645 0.49907115507018 0  0.9311884091566476 0.4991021318285641 0  0.9936405649061737 0.4992836650262124 0  0 0.5625 0  0.06230156215980613 0.5624639944177056 0  0.1245949273651343 0.5624264895325296 0  0.1868715443039229 0.5623859203395385 0  0.2491221425513123 0.5623405901702176 0  0.3113363729908032 0.5622886058318614 0  0.3735024762653654 0.5622278196690141 0  0.4356070494052839 0.562155793515056 0  0.4976350673313142 0.5620698183677316 0  0.5595704783131717 0.5619670614604231 0  0.6213979808540876 0.5618449868505031 0  0.683107060371079 0.5617023374640771 0  0.7447000222043468 0.5615412196469146 0  0.8062063716530669 0.5613712214261563 0  0.8677055709504311 0.5612168817303869 0  0.9293568454341601 0.5611294611420463 0  0.9914256987176765 0.5612008809560074 0  0 0.625 0  0.06230692287167111 0.6249647164110265 0  0.1246051115721058 0.6249277987035501 0  0.1868853349857968 0.624887513772617 0  0.2491373096354333 0.6248419216350835 0  0.3113490931212429 0.6247887538531923 0  0.3735063938684033 0.6247252712532956 0  0.4355918080815487 0.6246480981239627 0  0.4975840709625172 0.6245530400954293 0  0.5594575851039583 0.6244349193983166 0  0.6211828694573766 0.6242875276175807 0  0.6827293415601772 0.624103957115818 0  0.7440732634342671 0.6238779494971123 0  0.805215891829576 0.6236077292182698 0  0.8662190537638801 0.6233053656885267 0  0.927263327331023 0.6230165465503044 0  0.9887174291918323 0.622852921574509 0  0 0.6875 0  0.06232095642752392 0.6874670716646341 0  0.1246331468943206 0.6874324744116775 0  0.1869271978668931 0.6873944144221057 0  0.2491924146798367 0.6873508306174687 0  0.3114159496949449 0.6872992230501569 0  0.3735817490373009 0.6872364301174191 0  0.4356691906043178 0.6871583281605034 0  0.4976513469421472 0.6870594193780356 0  0.559492911521817 0.6869322683546565 0  0.621148158971665 0.6867667577949136 0  0.6825602020990197 0.686549208825558 0  0.743664974121019 0.6862617101568402 0  0.8044080955372777 0.6858830197488577 0  0.8647914139132536 0.6853955378666957 0  0.9249749079630069 0.6848109455891299 0  0.9854419346092151 0.6842362794081107 0  0 0.75 0  0.06234367746457874 0.7499710941430836 0  0.1246791784093623 0.7499406112649779 0  0.1869976706391201 0.7499068378638698 0  0.2492888695289478 0.7498677639707694 0  0.3115400629059283 0.7498208822743494 0  0.3737347852518978 0.7497629122596542 0  0.4358509358908004 0.7496894016294217 0  0.4978580545137287 0.7495941297024484 0  0.5597133861785565 0.7494681892333138 0  0.6213563875934157 0.7492985385269119 0  0.6827017938654827 0.7490656741702795 0  0.743633343508142 0.748739890505504 0  0.8040067505440711 0.7482756693177877 0  0.863689053009391 0.7476060136837041 0  0.9227047929343317 0.7466533582481097 0  0.9815799628137333 0.7454538897396339 0  0 0.8125 0  0.06237449202872888 0.812476691400897 0  0.124742068454107 0.8124520364437943 0  0.1870951971597696 0.8124245600402726 0  0.2494249618301628 0.8123925047272408 0  0.3117200869120591 0.8123536328842189 0  0.3739655420481547 0.8123049464004828 0  0.4361404289053347 0.8122422673112403 0  0.4982146572691456 0.812159585432056 0  0.5601435789667381 0.812048007208573 0  0.6218591974042518 0.811893991934322 0  0.6832558106838048 0.8116762259382025 0  0.7441674963661675 0.8113596545119068 0  0.8043376362304635 0.8108830278043319 0  0.8633999503814944 0.810130768871969 0  0.9209854867348876 0.8088675846722557 0  0.9775613224185403 0.8066054876639405 0  0 0.875 0  0.06241214763553587 0.8749836326843176 0  0.124819271176971 0.8749662807680458 0  0.1872158654713642 0.8749468591906928 0  0.2495953351705014 0.8749240612253759 0  0.3119492004192837 0.8748962002883431 0  0.3742659186508976 0.8748609823321979 0  0.4365290189388077 0.8748151613497793 0  0.4987139952539238 0.8747540011265704 0  0.560782899579866 0.8746704155208228 0  0.6226745277562936 0.8745535675906821 0  0.6842858701722236 0.8743865160754649 0  0.7454357678514261 0.8741419721965115 0  0.8057919323294699 0.8737733277054633 0  0.8647245669728348 0.8731902267370281 0  0.9210309246370655 0.8721744408796086 0  0.9725487795513168 0.8700407823495676 0  0 0.9375 0  0.06245477044690442 0.9374915566610801 0  0.1249068976727757 0.9374825929053321 0  0.1873534751808053 0.9374725332321757 0  0.2497909966160622 0.9374606802297744 0  0.3122149102495416 0.9374461268197047 0  0.3746189445366203 0.9374276294291327 0  0.43699401211717
[...]
<PointData  Vectors="f_54"> 
<DataArray  type="Float64"  Name="f_54"  NumberOfComponents="3" format="ascii">0.0000000000000000e+00 0.0000000000000000e+00 0.0000000000000000e+00  0.0000000000000000e+00 0.0000000000000000e+00 0.0000000000000000e+00  0.0000000000000000e+00 0.0000000000000000e+00 0.0000000000000000e+00  0.0000000000000000e+00 0.0000000000000000e+00 0.0000000000000000e+00  0.0000000000000000e+00 0.0000000000000000e+00 0.0000000000000000e+00  0.0000000000000000e+00 0.0000000000000000e+00 0.0000000000000000e+00  0.0000000000000000e+00 0.0000000000000000e+00 0.0000000000000000e+00  0.0000000000000000e+00 0.0000000000000000e+00 0.0000000000000000e+00  0.0000000000000000e+00 0.0000000000000000e+00 0.0000000000000000e+00  0.0000000000000000e+00 0.0000000000000000e+00 0.0000000000000000e+00  0.0000000000000000e+00 0.0000000000000000e+00 0.0000000000000000e+00  0.0000000000000000e+00 0.0000000000000000e+00 0.0000000000000000e+00  0.0000000000000000e+00 0.0000000000000000e+00 0.0000000000000000e+00  0.0000000000000000e+00 0.0000000000000000e+00 0.0000000000000000e+00  0.0000000000000000e+00 0.0000000000000000e+00 0.0000000000000000e+00  0.0000000000000000e+00 0.0000000000000000e+00 0.0000000000000000e+00  0.0000000000000000e+00 0.0000000000000000e+00 0.0000000000000000e+00  0.0000000000000000e+00 0.0000000000000000e+00 0.0000000000000000e+00  -3.4420427845919138e-06 -7.4010110334346484e-08 0.0000000000000000e+00  -6.9901206168651616e-06 -1.4897331279922025e-07 0.0000000000000000e+00  -1.0751778926118957e-05 -2.2561435329330036e-07 0.0000000000000000e+00  -1.4836342344097357e-05 -3.0413168832735737e-07 0.0000000000000000e+00  -1.9355396412778817e-05 -3.8381495361864117e-07 0.0000000000000000e+00  -2.4422871532995672e-05 -4.6250272199953381e-07 0.0000000000000000e+00  -3.0154916118053623e-05 -5.3579657684443466e-07 0.0000000000000000e+00  -3.6670345403845756e-05 -5.9590523696639537e-07 0.0000000000000000e+00  -4.4093919432700405e-05 -6.2989107024504039e-07 0.0000000000000000e+00  -5.2568427110671004e-05 -6.1680152365323433e-07 0.0000000000000000e+00  -6.2291648519025635e-05 -5.2223592842040537e-07 0.0000000000000000e+00  -7.3624045686984833e-05 -2.8565086377662590e-07 0.0000000000000000e+00  -8.7409168019602588e-05 2.1638841735969685e-07 0.0000000000000000e+00  -1.0598766574914073e-04 1.2958240061202814e-06 0.0000000000000000e+00  -1.3668704719826315e-04 3.9358109638559197e-06 0.0000000000000000e+00  -2.0508201775686839e-04 1.1832842026113078e-05 0.0000000000000000e+00  0.0000000000000000e+00 0.0000000000000000e+00 0.0000000000000000e+00  -6.7738236653206545e-06 -1.4697715101337785e-07 0.0000000000000000e+00  -1.3758364252340282e-05 -2.9609653901102848e-07 0.0000000000000000e+00  -2.1167465060536836e-05 -4.4908978247806297e-07 0.0000000000000000e+00  -2.9218838940166574e-05 -6.0673570222604299e-07 0.0000000000000000e+00  -3.8135093661512533e-05 -7.6816079068956558e-07 0.0000000000000000e+00  -4.8143744660036152e-05 -9.2984315636583240e-07 0.0000000000000000e+00  -5.9476251150295572e-05 -1.0841733400435618e-06 0.0000000000000000e+00  -7.2366803547241541e-05 -1.2173777817382533e-06 0.0000000000000000e+00  -8.7053145826498631e-05 -1.3065337494166786e-06 0.0000000000000000e+00  -1.0378508471227827e-04 -1.3152681971839337e-06 0.0000000000000000e+00  -1.2285338994721379e-04 -1.1875067014495478e-06 0.0000000000000000e+00  -1.4466549448313368e-04 -8.3854252284259352e-07 0.0000000000000000e+00  -1.6991456968683261e-04 -1.4494775899507401e-07 0.0000000000000000e+00  -1.9987652394494492e-04 1.0460742875127980e-06 0.0000000000000000e+00  -2.3652792014791410e-04 2.7474865611394117e-06 0.0000000000000000e+00  -2.7967324300580339e-04 3.6730712953893580e-06 0.0000000000000000e+00  0.0000000000000000e+00 0.0000000000000000e+00 0.0000000000000000e+00  -9.8901103049127835e-06 -2.1770023058737181e-07 0.0000000000000000e+00  -2.0093136028027681e-05 -4.3916066976578037e-07 0.0000000000000000e+00  -3.0926991559640719e-05 -6.6763334723650856e-07 0.0000000000000000e+00  -4.2716278146734936e-05 -9.0517426514144281e-07 0.0000000000000000e+00  -5.5794108346327313e-05 -1.1517442773047666e-06 0.0000000000000000e+00  -7.0502044748985723e-05 -1.4039092893328199e-06 0.0000000000000000e+00  -8.7187655964190671e-05 -1.6529467306973671e-06 0.0000000000000000e+00  -1.0619952777132705e-04 -1.8821238928375614e-06 0.0000000000000000e+00  -1.2788028215352591e-04 -2.0628868734256111e-06 0.0000000000000000e+00  -1.5255934465108537e-04 -2.1497358316326099e-06 0.0000000000000000e+00  -1.8054837507712311e-04 -2.0737989228233305e-06 0.0000000000000000e+00  -2.1214046951828516e-04 -1.7359309039930408e-06 0.0000000000000000e+00  -2.4759773591984525e-04 -1.0024684149898382e-06 0.0000000000000000e+00  -2.8704280418057076e-04 2.8855093650095432e-07 0.0000000000000000e+00  -3.2995603935898873e-04 2.3073223572974856e-06 0.0000000000000000e+00  -3.7358876439880895e-04 5.3390427285629686e-06 0.0000000000000000e+00  0.0000000000000000e+00 0.0000000000000000e+00 0.0000000000000000e+00  -1.2688242497867599e-05 -2.8455058863938013e-07 0.0000000000000000e+00  -2.5787594130397782e-05 -5.7501395745298350e-07 0.0000000000000000e+00  -3.9716475525408679e-05 -8.7681011443013113e-07 0.0000000000000000e+00  -5.4904040763157466e-05 -1.1941655983653942e-06 0.0000000000000000e+00  -7.1793412196581902e-05 -1.5291717540102321e-06 0.0000000000000000e+00  -9.0842070495282255e-05 -1.8803763303235352e-06 0.0000000000000000e+00  -1.1251817581929677e-04 -2.2406726462716075e-06 0.0000000000000000e+00  -1.3729142421031019e-04 -2.5941955116973495e-06 0.0000000000000000e+00  -1.6561683936568389e-04 -2.9119033577535288e-06 0.0000000000000000e+00  -1.9790940597065796e-04 -3.1455930868966188e-06 0.0000000000000000e+00  -2.3450569618104955e-04 -3.2204077539278494e-06 0.0000000000000000e+00  -2.7560282358928635e-04 -3.0267185289751366e-06 0.0000000000000000e+00  -3.2114856307821377e-04 -2.4138703934322138e-06 0.0000000000000000e+00  -3.7061795650805473e-04 -1.1902707237553760e-06 0.0000000000000000e+00  -4.2254842852816908e-04 8.6653750601536082e-07 0.0000000000000000e+00  -4.7369799130221629e-04 3.9917823839575392e-06 0.0000000000000000e+00  0.0000000000000000e+00 0.0000000000000000e+00 0.0000000000000000e+00  -1.5069712426854319e-05 -3.4536601104103839e-07 0.0000000000000000e+00  -3.0642575575336621e-05 -6.9932133563289626e-07 0.0000000000000000e+00  -4.7231986482908824e-05 -1.0701051013428797e-06 0.0000000000000000e+00  -6.5367851840747828e-05 -1.4650463524921515e-06 0.0000000000000000e+00  -8.5602277186200436e-05 -1.8897649566625890e-06 0.0000000000000000e+00  -1.0851164764699706e-04 -2.3468906158323398e-06 0.0000000000000000e+00  -1.3469317836215739e-04 -2.8340255487344921e-06 0.0000000000000000e+00  -1.6475337297778433e-04 -3.3405768100530088e-06 0.0000000000000000e+00  -1.9928497190207614e-04 -3.8429778238200397e-06 0.0000000000000000e+00  -2.3882774754137984e-04 -4.2977625217548271e-06 0.0000000000000000e+00  -2.8380650313291787e-04 -4.6320837472349327e-06 0.0000000000000000e+00  -3.3443600623196917e-04 -4.7318351971367973e-06 0.0000000000000000e+00  -3.9057633958137383e-04 -4.4289185828554863e-06 0.0000000000000000e+00  -4.5151501021390908e-04 -3.4917869923082433e-06 0.0000000000000000e+00  -5.1565999244586856e-04 -1.6278080337739913e-06 0.0000000000000000e+00  -5.8020919843013586e-04 1.4832440095524717e-06 0.0000000000000000e+00  0.0000000000000000e+00 0.0000000000000000e+00 0.0000000000000000e+00  -1.6942355353824865e-05 -3.9746193463856447e-07 0.0000000000000000e+00  -3.4470757459165269e-05 -8.0657114278806195e-07 0.0000000000000000e+00  -5.3185177036463959e-05 -1.2388906261666114e-06 0.0000000000000000e+00  -7.3709945663941260e-05 -1.7056363723929374e-06 0.0000000000000000e+00  -9.6703322659916471e-05 -2.2172191111059728e-06 0.0000000000000000e+00  -1.2286318067108120e-04 -2.7823629650264224e-06 0.0000000000000000e+00  -1.5292638420498638e-04 -3.4065119732936270e-06 0.0000000000000000e+00  -1.8765838553202194e-04 -4.0890725269716383e-06 0.0000000000000000e+00  -2.2782821096728429e-04 -4.8187987947985412e-06 0.0000000000000000e+00  -2.7416243991569073e-04 -5.5663144709483073e-06 0.0000000000000000e+00  -3.2727025745759859e-04 -6.2724570165855814e-06 0.0000000000000000e+00  -3.8753087409462386e-04 -6.8310883635406043e-06 0.0000000000000000e+00  -4.5493622641641667e-04 -7.0658274924315001e-06 0.0000000000000000e+00  -5.2888995577212794e-04 -6.7027989914655969e-06 0.0000000000000000e+00  -6.0798738133107223e-04 -5.3467011891039233e-06 0.0000000000000000e+00  -6.8985631484645238e-04 -2.4726060341212010e-06 0.0000000000000000e+00  0.0000000000000000e+00 0.0000000000000000e+00 0.0000000000000000e+00  -1.8223362365770485e-05 -4.3777482302866662e-07 0.0000000000000000e+00  -3.7102544721363954e-05 -8.9036458419206318e-07 0.0000000000000000e+00  -5.7311698902129117e-05 -1.3728630548514825e-06 0.0000000000000000e+00  -7.9559282198995578e-05 -1.9008109748041958e-06 0.0000000000000000e+00  -1.0460312574486184e-04 -2.4902627734863414e-06 0.0000000000000000e+00  -1.3326210813273303e-04 -3.1575884022380689e-06 0.0000000000000000e+00  -1.6642182499807882e-04 -3.9187664917337450e-06 0.0000000000000000e+00  -2.0503019902119477e-04 -4.7877144414054756e-06 0.0000000000000000e+00  -2.5007706186763674e-04 -5.7728198439131253e-06 0.0000000000000000e+00  -3.0254955559205147e-04 -6.8701894875144509e-06 0.0000000000000000e+00  -3.6335341742061523e-04 -8.0511426074637115e-06 0.0000000000000000e+00  -4.3319040783681181e-04 -9.2402620981346941e-06 0.0000000000000000e+00  -5.1238727206628866e-04 -1.0279616395547594e-05 0.0000000000000000e+00  -6.0068586127545883e-04 -1.0876645953227145e-05 0.0000000000000000e+00  -6.9703014168166668e-04 -1.0541428844119978e-05 0.0000000000000000e+00  -7.9941726672612932e-04 -8.5368498583859687e-06 0.0000000000000000e+00  0.0000000000000000e+00 0.0000000000000000e+00 0.0000000000000000e+00  -1.8843245475488581e-05 -4.6313491749267564e-07 0.0000000000000000e+00  -3.8394023803708759e-05 -9.4398676963773868e-07 0.0000000000000000e+00  -5.9383124865393934e-05 -1.4609609610997371e-06 0.0000000000000000e+00  -8.2587213980538001e-05 -2.0338291918598143e-06 0.0000000000000000e+00  -1.0885093548457606e-04 -2.6844477946361586e-06 0.0000000000000000e+00  -1.3910709197281429e-04 -3.4374768597858019e-06 0.0000000000000000e+00  -1.7439257377140777e-04 -4.3209975979707060e-06 0.0000000000000000e+00  -2.1585589536560857e-04 -5.3667362494675710e-06 0.0000000000000000e+00  -2.6474955373509374e-04 -6.6091754426163383e-06 0.0000000000000000e+00  -3.2239700188533090e-04 -8.0819270199240278e-06 0.0000000000000000e+00  -3.9012047740725439e-04 -9.8079667538193197e-06 0.0000000000000000e+00  -4.6911423973162173e-04 -1.1777265990004564e-05 0.0000000000000000e+00  -5.6025230557071360e-04 -1.3901160050095111e-05 0.0000000000000000e+00  -6.6383740442246581e-04 -1.5930092394683858e-05 0.0000000000000000e+00  -7.7933311423631724e-04 -1.7328544778641703e-05 0.0000000000000000e+00  -9.0515644254838862e-04 -1.7131342018611528e-05 0.0000000000000000e+00  0.0000000000000000e+00 0.0000000000000000e+00 0.0000000000000000e+00  -1.8750727220071778e-05 -4.7064236264115188e-07 0.0000000000000000e+00  -3.8236999898926953e-05 -9.6121003762962023e-07 0.0000000000000000e+00  -5.9222599571755366e-05 -1.4927013362521652e-06 0.0000000000000000e+00  -8.2529302762316203e-05 -2.0883660460463383e-06 0.0000000000000000e+00  -1.0906706542798745e-04 -2.7750902312472381e-06 0.0000000000000000e+00  -1.3986487441201717e-04 -3.5851203594664560e-06 0.0000000000000000e+00  -1.7610088703149697e-04 -4.5582697170440874e-06 0.0000000000000000e+00  -2.1912846003113940e-04 -5.7447056407598313e-06 0.0000000000000000e+00  -2.7049129042014522e-04 -7.2081753146744516e-06 0.0000000000000000e+00  -3.3191567834828538e-04 -9.0287391509911907e-06 0.0000000000000000e+00  -4.0526084021723840e-04 -1.1301950884810508e-05 0.0000000000000000e+00  -4.9240081894045445e-04 -1.4126418008637281e-05 0.0000000000000000e+00  -5.9500951669418903e-04 -1.7561629603424541e-05 0.0000000000000000e+00  -7.1423731025046112e-04 -2.1522622051222447e-05 0.0000000000000000e+00  -8.5032598799888092e-04 -2.5569496938649222e-05 0.0000000000000000e+00  -1.0023205086237385e-03 -2.8592541684356441e-05 0.0000000000000000e+00  0.0000000000000000e+00 0.0000000000000000e+00 0.0000000000000000e+00  -1.7918297798487401e-05 -4.5809502407851848e-07 0.0000000000000000e+00  -3.6570656318895984e-05 -9.3722302781333352e-07 0.0000000000000000e+00  -5.6723675613956638e-05 -1.4597696626918506e-06 0.0000000000000000e+00  -7.9212890284015400e-05 -2.0510352794778749e-06 0.0000000000000000e+00  -1.0498109696678226e-04 -2.7411437874058533e-06 0.0000000000000000e+00  -1.3512100572586475e-04 -3.5676076895849988e-06 0.0000000000000000e+00  -1.7092264289256809e-04 -4.5789855595014633e-06 0.0000000000000000e+00  -2.1392418297022309e-04 -5.8402988016577948e-06 0.0000000000000000e+00  -2.6596127364368301e-04 -7.4411530535069499e-06 0.0000000000000000e+00  -3.2920306408248105e-04 -9.5075943386723382e-06 0.0000000000000000e+00  -4.0615135311760704e-04 -1.2217715376671858e-05 0.0000000000000000e+00  -4.9956170473187554e-04 -1.5816220025772865e-05 0.0000000000000000e+00  -6.1222609663838458e-04 -2.0607893857847861e-05 0.0000000000000000e+00  -7.4655503828880093e-04 -2.6871923892397822e-05 0.0000000000000000e+00  -9.0396481696836920e-04 -3.4572812544054576e-05 0.0000000000000000e+00  -1.0842688689782101e-03 -4.2714660839661189e-05 0.0000000000000000e+00  0.0000000000000000e+00 0.0000000000000000e+00 0.0000000000000000e+00  -1.6347903612882156e-05 -4.2439407325191433e-07 0.0000000000000000e+00  -3.3393774642845214e-05 -8.6952482232980195e-07 0.0000000000000000e+00  -5.1870796678756443e-05 -1.3575909179549980e-06 0.0000000000000000e+00  -7.2588555816286446e-05 -1.9139831349705187e-06 0.0000000000000000e+00  -9.6478049284138816e-05 -2.5694144970534638e-06 0.0000000000000000e+00  -1.2464532825411949e-04 -3.3628611379933545e-06 0.0000000000000000e+00  -1.5843691517866137e-04 -4.3459483967565927e-06 0.0000000000000000e+00  -1.9951952072437310e-04 -5.5899409335424202e-06 0.0000000000000000e+00  -2.4997410597070636e-04 -7.1975025890126869e-06 0.0000000000000000e+00  -3.1239761190791920e-04 -9.3231794480314943e-06 0.0000000000000000e+00  -3.8999040198001926e-04 -1.2209164319141760e-05 0.0000000000000000e+00  -4.8657724260446535e-04 -1.6244510002706176e-05 0.0000000000000000e+00  -6.0645944797206748e-04 -2.2047270467837008e-05 0.0000000000000000e+00  -7.5393946325579334e-04 -3.0516931696099063e-05 0.0000000000000000e+00  -9.3239386336015681e-04 -4.2627045293951902e-05 0.0000000000000000e+00  -1.1431776266633000e-03 -5.8532206852016887e-05 0.0000000000000000e+00  0.0000000000000000e+00 0.0000000000000000e+00 0.0000000000000000e+00  -1.4075941980672385e-05 -3.6984432928015140e-07 0.0000000000000000e+00  -2.8775805950238681e-05 -7.5859531648598969e-07 0.0000000000000000e+00  -4.4758745669533004e-05 -1.1865345989376095e-06 0.0000000000000000e+00  -6.2761767713877175e-05 -1.6769538626358349e-06 0.0000000000000000e+00  -8.3647992106265109e-05 -2.2581151196526913e-06 0.0000000000000000e+00  -1.0846758040477570e-04 -2.9658953499218732e-06 0.0000000000000000e+00  -1.3853772694538710e-04 -3.8476666639521551e-06 0.0000000000000000e+00  -1.7554972688271699e-04 -4.9685352511162773e-06 0.0000000000000000e+00  -2.2171207602452258e-04 -6.4224450704713111e-06 0.0000000000000000e+00  -2.7993622363217967e-04 -8.3539830538862220e-06 0.0000000000000000e+00  -3.5405944965666801e-04 -1.1004448099946966e-05 0.0000000000000000e+00  -4.4906285789863328e-04 -1.4812080315967084e-05 0.0000000000000000e+00  -5.7115446204828455e-04 -2.0623719335329020e-05 0.0000000000000000e+00  -7.2741379832752930e-04 -3.0084938638755959e-05 0.0000000000000000e+00  -9.2449193188197127e-04 -4.6016733983408782e-05 0.0000000000000000e+00  -1.1668915861140501e-03 -7.0152353361745885e-05 0.0000000000000000e+00  0.0000000000000000e+00 0.0000000000000000e+00 0.0000000000000000e+00  -1.1176505087381065e-05 -2.9628030484435462e-07 0.0000000000000000e+00  -2.2864519315958281e-05 -6.0817750457986540e-07 0.0000000000000000e+00  -3.5607263130059679e-05 -9.5242776856169636e-07 0.0000000000000000e+00  -5.0019018750413125e-05 -1.3481977348086085e-06 0.0000000000000000e+00  -6.6831161129196883e-05 -1.8185425898779073e-06 0.0000000000000000e+00  -8.6953157567900682e-05 -2.3921589094705137e-06 0.0000000000000000e+00  -1.1155768774205659e-04 -3.1055414014846251e-06 0.0000000000000000e+00  -1.4220356286853797e-04 -4.0057516592681333e-06 0.0000000000000000e+00  -1.8101673282890161e-04 -5.1545224046327953e-06 0.0000000000000000e+00  -2.3095781756736437e-04 -6.6365867238614786e-06 0.0000000000000000e+00  -2.9620986426285889e-04 -8.5831655771573086e-06 0.0000000000000000e+00  -3.8270550355166879e-04 -1.1248936569071164e-05 0.0000000000000000e+00  -4.9872573214935546e-04 -1.5267907519021677e-05 0.0000000000000000e+00  -6.5519285517741442e-04 -2.2479620899341035e-05 0.0000000000000000e+00  -8.6426334496606373e-04 -3.8579305667944587e-05 0.0000000000000000e+00  -1.1300550146914378e-03 -8.2814584168716421e-05 0.0000000000000000e+00  0.0000000000000000e+00 0.0000000000000000e+00 0.0000000000000000e+00  -7.7617391241590251e-06 -2.0698899262041047e-07 0.0000000000000000e+00  -1.5887686111789337e-05 -4.2509841547577828e-07 0.0000000000000000e+00  -2.4766310572836884e-05 -6.6621282374930398e-07 0.0000000000000000e+00  -3.4841006377474429e-05 -9.4384665770794359e-07 0.0000000000000000e+00  -4.6646960435059493e-05 -1.2739797026673208e-06 0.0000000000000000e+00  -6.0861951864558581e-05 -1.6757652577913024e-06 0.0000000000000000e+00  -7.8380804890798602e-05 -2.1716629996720631e-06 0.0000000000000000e+00  -1.0042972747686355e-04 -2.7857959591450763e-06 0.0000000000000000e+00  -1.2874849737054995e-04 -3.5375805699648183e-06 0.0000000000000000e+00  -1.6588937122964437e-04 -4.4238757194875130e-06 0.0000000000000000e+00  -2.1571778331076313e-04 -5.3757678260554919e-06 0.0000000000000000e+00  -2.8425818830532106e-04 -6.1677515011337327e-06 0.0000000000000000e+00  -3.8110840184693801e-04 -6.2707424405919004e-06 0.0000000000000000e+00  -5.2171596447245065e-04 -4.7812793567884745e-06 0.0000000000000000e+00  -7.3075893958493793e-04 -1.1569408018169613e-06 0.0000000000000000e+00  -1.0470218135280101e-03 6.7908576929234805e-07 0.0000000000000000e+00  0.0000000000000000e+00 0.0000000000000000e+00 0.0000000000000000e+00  -3.9783728250429419e-06 -1.0645539175485658e-07 0.0000000000000000e+00  -8.1465587674544587e-06 -2.1869174792882713e-07 0.0000000000000000e+00  -1.2707639029976549e-05 -3.4287071870367131e-07 0.0000000000000000e+00  -1.7894925738288230e-05 -4.8594945034473245e-07 0.0000000000000000e+00  -2.3992772875881251e-05 -6.5601139968297220e-07 0.0000000000000000e+00  -3.1366051174240671e-05 -8.6234540005094260e-07 0.0000000000000000e+00  -4.0504885655432521e-05 -1.1147029670141626e-06 0.0000000000000000e+00  -5.2096461529532213e-05 -1.4201134956895783e-06 0.0000000000000000e+00  -6.7146034645541234e-05 -1.7726593840410047e-06 0.0000000000000000e+00  -8.7189937882076955e-05 -2.1229230813348268e-06 0.0000000000000000e+00  -1.1468345440629177e-04 -2.2878152951306032e-06 0.0000000000000000e+00  -1.5371270078535547e-04 -1.6831879048063807e-06 0.0000000000000000e+00  -2.1121499938156723e-04 1.4640199617378919e-06 0.0000000000000000e+00  -2.9841833414677373e-04 1.2299976792325585e-05 0.0000000000000000e+00  -4.2888040127815553e-04 4.4092404770099888e-05 0.0000000000000000e+00  -5.9807830001367855e-04 1.1995562643506380e-04 0.0000000000000000e+00  0.0000000000000000e+00 0.0000000000000000e+00 0.0000000000000000e+00  0.0000000000000000e+00 0.0000000000000000e+00 0.0000000000000000e+00  0.0000000000000000e+00 0.0000000000000000e+00 0.0000000000000000e+00  0.0000000000000000e+00 0.0000000000000000e+00 0.0000000000000000e+00  0.0000000000000000e+00 0.0000000000000000e+00 0.0000000000000000e+00  0.0000000000000000e+00 0.000000000000000