<?xml version="1.0"?>
<VTKFile type="UnstructuredGrid"  version="0.1"  >
<UnstructuredGrid>
<Piece  NumberOfPoints="289" NumberOfCells="512">
<Points>
<DataArray  type="Float64"  NumberOfComponents="3"  format="ascii">0 0 0  0.0625 0 0  0.125 0 0  0.1875 0 0  0.25 0 0  0.3125 0 0  0.375 0 0  0.4375 0 0  0.5 0 0  0.5625 0 0  0.625 0 0  0.6875 0 0  0.75 0 0  0.8125 0 0  0.875 0 0  0.9375 0 0  1 0 0  0 0.0625 0  0.06250537501713101 0.06249180299011464 0  0.125010977732993 0.06248347478685868 0  0.1875170470087444 0.06247489942943617 0  0.2500238471316443 0.06246599541472499 0  0.3125316837245434 0.06245673744184771 0  0.3750409244162518 0.0624471827566437 0  0.4375520278343223 0.06243750163330163 0  0.5000655873366308 0.06242800859364923 0  0.5625824019059483 0.06241918547819861 0  0.6251035998807359 0.06241167787785263 0  0.687630871413813 0.06240623106052887 0  0.750166931833271 0.06240351217250674 0  0.8127164422629416 0.06240376935427602 0  0.8752874235061088 0.06240649322384634 0  0.9378895956763016 0.06241196694795076 0  1.000495436541473 0.06244122832802425 0  0 0.125 0  0.06251047403026172 0.1249837367072609 0  0.1250213949988845 0.1249671945301072 0  0.1875332341708039 0.1249501231864748 0  0.2500465180298276 0.1249323376904215 0  0.3125618643535347 0.1249137608352074 0  0.3750800307813819 0.1248944763720665 0  0.437601984769818 0.1248747934630341 0  0.5001290100550909 0.1248553182468124 0  0.562662876481275 0.1248370191458588 0  0.6252061220205991 0.1248212558274269 0  0.6877625345810296 0.1248097132130483 0  0.7503379752656099 0.1248041360028741 0  0.8129416902238145 0.1248056860341974 0  0.8755878992720866 0.1248135857255748 0  0.9382959929660473 0.1248218913102082 0  1.001088903875748 0.1248063380224953 0  0 0.1875 0  0.06251509104304948 0.1874759499360537 0  0.1250308253774382 0.1874514424576658 0  0.1875478838575103 0.1874260581856466 0  0.2500670319695189 0.1873994660247275 0  0.3125891765071407 0.1873714836119058 0  0.3751154430430654 0.187342156882514 0  0.4376472877712404 0.187311862967337 0  0.5001866646296899 0.1872814361977433 0  0.5627362796942533 0.1872523074293292 0  0.6252999791581464 0.187226628274385 0  0.6878833270710406 0.1872073180755666 0  0.7504944009167704 0.1871979123670746 0  0.813144661887465 0.1872019838664851 0  0.8758492115171231 0.1872216747503673 0  0.9386247191968139 0.1872542808930222 0  1.001483623961303 0.1872847436249736 0  0 0.25 0  0.06251904613476661 0.2499686222028465 0  0.1250388948624045 0.2499365673925564 0  0.1875603973306979 0.2499031996895289 0  0.2500845130223838 0.2498679814361322 0  0.3126123835940425 0.2498305457563697 0  0.3751454348466121 0.2497907985701683 0  0.4376855239579976 0.249749060743141 0  0.5002351560087678 0.249706259530427 0  0.562797800975858 0.2496641727518115 0  0.6253783438021491 0.2496257150700559 0  0.6879836786386638 0.2495952267812792 0  0.7506233719992551 0.2495786722672405 0  0.8133100872236464 0.2495835668559248 0  0.8760589958361542 0.2496183290205892 0  0.9388848421782169 0.2496907094985678 0  1.00179557694312 0.2498056894934882 0  0 0.3125 0  0.06252219358678102 0.3124619738961416 0  0.1250453004820775 0.3124230064889874 0  0.1875702890421229 0.3123821918576004 0  0.2500982490600431 0.3123387133976415 0  0.3126304760432533 0.3122919182752693 0  0.3751685893729765 0.3122414316593706 0  0.4377147049593329 0.3121873298738877 0  0.5002716905284619 0.3121303955945911 0  0.5628435377586761 0.312072480669115 0  0.6254358818774165 0.3120169991184574 0  0.6880566675130253 0.3119695567252501 0  0.7507168669325348 0.311938681343201 0  0.8134309697092948 0.3119365327954831 0  0.8762167263222477 0.3119793383689772 0  0.9390937045864751 0.3120871881559139 0  1.002081690455392 0.3122829896749963 0  0 0.375 0  0.06252442760776772 0.3749562697484899 0  0.1250498238679863 0.3749112948131774 0  0.1875772126520154 0.374863849205933 0  0.2501077379983881 0.3748127633066655 0  0.3126427493680102 0.3747569850817379 0  0.3751839242795968 0.3746956880562502 0  0.4377334533095931 0.3746284536552886 0  0.5002943239432014 0.3745555670383611 0  0.5628707523219721 0.3744784803076066 0  0.6254688183520667 0.3744005124301686 0  0.6880973432388358 0.374327863111947 0  0.7507689810926496 0.374270997869582 0  0.813501352123238 0.3742463727023502 0  0.8763178609702637 0.3742782446677854 0  0.9392478444075123 0.3743998964382838 0  1.002326324413588 0.3746529842176096 0  0 0.4375 0  0.06252568528242564 0.4374518130822546 0  0.1250523386235748 0.4374020560092453 0  0.187580976135523 0.4373491488646841 0  0.2501127164378543 0.4372915083974385 0  0.3126488551743829 0.4372275768419406 0  0.3751909764438244 0.437155896934007 0  0.4377411307834455 0.4370752661443632 0  0.5003021289321642 0.436985022753003 0  0.5628780294783443 0.4368855463313716 0  0.6254749347650882 0.436779097389364 0  0.6881022407543045 0.4366711716929268 0  0.7507744790188003 0.4365725828224319 0  0.8135137773209448 0.4365024484344945 0  0.8763526670262931 0.4364920011077931 0  0.9393364638715346 0.4365884587425768 0  1.002523942912483 0.4368569760401848 0  0 0.5 0  0.06252594659171615 0.4999489286912024 0  0.1250528108455403 0.4998959689422795 0  0.1875815442222029 0.4998391836533213 0  0.2501131672473736 0.499776547920109 0  0.312648820319219 0.4997059250944861 0  0.3751898440429726 0.499625077026968 0  0.4377379206823544 0.4995317400386743 0  0.5002953383057295 0.4994238235718496 0  0.5628654931448249 0.4992998324866772 0  0.6254538349783206 0.4991596873461691 0  0.6880695888519986 0.4990062314050138 0  0.7507287221118808 0.4988478679377825 0  0.8134586378379139 0.4987029118539045 0  0.8763046456972104 0.4986061513669682 0  0.9393369005513067 0.4986172683507484 0  1.002654134967763 0.4988283753480207 0  0 0.5625 0  0.06252523153669559 0.562447933541657 0  0.1250512925433666 0.5623937077417788 0  0.1875790269060641 0.562335069435379 0  0.25010930261393 0.5622695769358483 0  0.3126430269712523 0.5621945066574059 0  0.375181173951093 0.5621067685251282 0  0.4377248494122055 0.5620028499142989 0  0.5002754571696743 0.5618788325882315 0  0.5628351087428279 0.5617305761415655 0  0.6254075793309208 0.5615542570321425 0  0.6880004028637374 0.5613476335534171 0  0.7506291469035057 0.5611127324460984 0  0.8133253769606078 0.5608611671830139 0  0.8761496597535281 0.5606238576743314 0  0.9392085218905296 0.5604666482587857 0  1.002667441768148 0.5605098943509796 0  0 0.625 0  0.06252359463400742 0.6249490967095328 0  0.1250479082798761 0.6248958573645672 0  0.187573653672085 0.624837807758678 0  0.2501015196321746 0.6247721837660228 0  0.3126321439138715 0.6246957617758087 0  0.3751660701514816 0.6246046612237293 0  0.4377036958326544 0.6244941158260701 0  0.5002452505848228 0.6243582237893265 0  0.5627909319201124 0.6241897222076672 0  0.6253415421166534 0.6239799158851917 0  0.6879004580129618 0.6237190921085151 0  0.7504787490001452 0.6233982174528858 0  0.8131068967617704 0.6230137329247482 0  0.875858217720115 0.6225792245507432 0  0.938887174690052 0.62215007573651 0  1.002471377929153 0.6218636349681037 0  0 0.6875 0  0.06252111744976553 0.6874525928838296 0  0.1250428364829146 0.6874028132585399 0  0.187565735476903 0.6873481161124899 0  0.2500903294810716 0.6872855853345313 0  0.3126170038173595 0.6872116969749196 0  0.3751458979553159 0.6871220140403055 0  0.4376767142296059 0.6870107788376227 0  0.5002084325161844 0.6868703609383635 0  0.5627389633112215 0.6866905156530412 0  0.6252649636769569 0.6864574281781199 0  0.6877826236002365 0.6861526218892235 0  0.7502917916718763 0.68575218266629 0  0.812809485546708 0.6852279715894837 0  0.8754058028299769 0.6845562351090203 0  0.9382818123602106 0.6837489174745881 0  1.00189256852045 0.6829342535539835 0  0 0.75 0  0.06251790041962083 0.7499584567347352 0  0.1250362886588702 0.7499146806304342 0  0.1875556209094423 0.7498662512343337 0  0.2500762706271782 0.7498103379115745 0  0.3125984386873675 0.7497434234731872 0  0.37512198577802 0.7496609268207137 0  0.4376461246902681 0.7495566621882486 0  0.5001688711283095 0.7494220395267333 0  0.5626861074886259 0.7492448564127876 0  0.6251901249153657 0.7490074447850981 0  0.6876678230299949 0.7486838056050958 0  0.7501002250551065 0.7482352284491272 0  0.8124702696426976 0.7476040967261136 0  0.8748020259401531 0.7467081366686629 0  0.9372926040059818 0.7454531074330254 0  1.000588996296307 0.7438678754340227 0  0 0.8125 0  0.06251405577482731 0.8124665475020035 0  0.1250284916264621 0.8124311940155874 0  0.1875436582308363 0.8123918618423258 0  0.2500598298295892 0.8123460827195358 0  0.3125771164709039 0.8122907250387945 0  0.3750952905556192 0.8122216080636805 0  0.4376134426563186 0.8121329266812849 0  0.5001292977835839 0.8120163616871716 0  0.5626378576394768 0.8118596623833606 0  0.6251287276664165 0.811644320500627 0  0.6875810164469146 0.8113416119392451 0  0.7499544333361577 0.8109055234065048 0  0.8121776870425116 0.8102592958915985 0  0.8741530961125509 0.8092682336663785 0  0.9358891018572417 0.8076847302328588 0  0.9983630736984479 0.805072215805645 0  0 0.875 0  0.06250970352533353 0.8749765332620387 0  0.1250196785454838 0.8749516787611682 0  0.1875301777634531 0.874923910785084 0  0.2500414045528331 0.8748913965770894 0  0.3125534520822486 0.8748517769643841 0  0.3750661759964705 0.8748018496167305 0  0.4375789245276533 0.8747370866696724 0  0.5000899554400883 0.8746508737004308 0  0.5625951437772811 0.8745332773252018 0  0.6250850359252687 0.8743690030470386 0  0.6875379652414646 0.8741339181467584 0  0.7499037509480817 0.8737888459765364 0  0.8120655262381247 0.8732673379965908 0  0.8737555610810153 0.8724467961420099 0  0.9344023326609336 0.8710633965590105 0  0.9930703437870222 0.8684094549568205 0  0 0.9375 0  0.06250497166671212 0.9374879018000942 0  0.1250100923683797 0.9374750708169451 0  0.1875155048099063 0.9374606985661985 0  0.250021334475417 0.9374438074025904 0  0.3125276656167196 0.9374231281335453 0  0.3750344874863264 0.9373969214197608 0  0.4375415725414937 0.937362703
[...]
<PointData  Vectors="f_54"> 
<DataArray  type="Float64"  Name="f_54"  NumberOfComponents="3" format="ascii">0.0000000000000000e+00 0.0000000000000000e+00 0.0000000000000000e+00  0.0000000000000000e+00 0.0000000000000000e+00 0.0000000000000000e+00  0.0000000000000000e+00 0.0000000000000000e+00 0.0000000000000000e+00  0.0000000000000000e+00 0.0000000000000000e+00 0.0000000000000000e+00  0.0000000000000000e+00 0.0000000000000000e+00 0.0000000000000000e+00  0.0000000000000000e+00 0.0000000000000000e+00 0.0000000000000000e+00  0.0000000000000000e+00 0.0000000000000000e+00 0.0000000000000000e+00  0.0000000000000000e+00 0.0000000000000000e+00 0.0000000000000000e+00  0.0000000000000000e+00 0.0000000000000000e+00 0.0000000000000000e+00  0.0000000000000000e+00 0.0000000000000000e+00 0.0000000000000000e+00  0.0000000000000000e+00 0.0000000000000000e+00 0.0000000000000000e+00  0.0000000000000000e+00 0.0000000000000000e+00 0.0000000000000000e+00  0.0000000000000000e+00 0.0000000000000000e+00 0.0000000000000000e+00  0.0000000000000000e+00 0.0000000000000000e+00 0.0000000000000000e+00  0.0000000000000000e+00 0.0000000000000000e+00 0.0000000000000000e+00  0.0000000000000000e+00 0.0000000000000000e+00 0.0000000000000000e+00  0.0000000000000000e+00 0.0000000000000000e+00 0.0000000000000000e+00  0.0000000000000000e+00 0.0000000000000000e+00 0.0000000000000000e+00  4.2260348592551994e-06 2.9601766889730821e-09 0.0000000000000000e+00  8.5789128374154112e-06 4.2533756776441303e-09 0.0000000000000000e+00  1.3187059780891354e-05 1.9410515120318711e-09 0.0000000000000000e+00  1.8179623273161750e-05 -6.4878911937103097e-09 0.0000000000000000e+00  2.3685985511043623e-05 -2.4471802686743852e-08 0.0000000000000000e+00  2.9834234383990948e-05 -5.6817870818993375e-08 0.0000000000000000e+00  3.6748398002245162e-05 -1.1027371105661430e-07 0.0000000000000000e+00  4.4544620381284822e-05 -1.9430421310835401e-07 0.0000000000000000e+00  5.3327443629584395e-05 -3.2224501232842805e-07 0.0000000000000000e+00  6.3189951787586985e-05 -5.1329764549825925e-07 0.0000000000000000e+00  7.4228629564469291e-05 -7.9676103652468084e-07 0.0000000000000000e+00  8.6604783661216458e-05 -1.2230042966101842e-06 0.0000000000000000e+00  1.0075215016489590e-04 -1.8968428571591485e-06 0.0000000000000000e+00  1.1806833446063603e-04 -3.0919764963311379e-06 0.0000000000000000e+00  1.4332727431484144e-04 -5.6816306715719606e-06 0.0000000000000000e+00  1.9363476315665496e-04 -1.2875551063333922e-05 0.0000000000000000e+00  0.0000000000000000e+00 0.0000000000000000e+00 0.0000000000000000e+00  8.3248672855042272e-06 7.5862946489393804e-09 0.0000000000000000e+00  1.6903045617703886e-05 1.2109794565760084e-08 0.0000000000000000e+00  2.5991269598844740e-05 9.9917471070332900e-09 0.0000000000000000e+00  3.5848466583900354e-05 -3.4381590119270913e-09 0.0000000000000000e+00  4.6735123209343070e-05 -3.4620089110366415e-08 0.0000000000000000e+00  5.8910447136491709e-05 -9.2605835348721253e-08 0.0000000000000000e+00  7.2626693025678503e-05 -1.9012984249708163e-07 0.0000000000000000e+00  8.8120399548264337e-05 -3.4499722317906887e-07 0.0000000000000000e+00  1.0560127978617129e-04 -5.8193654373670245e-07 0.0000000000000000e+00  1.2524179950361915e-04 -9.3521736001122090e-07 0.0000000000000000e+00  1.4717533136142182e-04 -1.4526529372558248e-06 0.0000000000000000e+00  1.7151996465929349e-04 -2.2019657176810563e-06 0.0000000000000000e+00  1.9845715004036241e-04 -3.2789252388039456e-06 0.0000000000000000e+00  2.2837727074028559e-04 -4.8000170852614484e-06 0.0000000000000000e+00  2.6183267999740022e-04 -6.7556418191989582e-06 0.0000000000000000e+00  2.9720219870031395e-04 -7.9980724756650300e-06 0.0000000000000000e+00  0.0000000000000000e+00 0.0000000000000000e+00 0.0000000000000000e+00  1.2169043557240666e-05 1.5271193559078949e-08 0.0000000000000000e+00  2.4716634165717388e-05 2.6600983996606124e-08 0.0000000000000000e+00  3.8027097745032222e-05 2.9340828900103164e-08 0.0000000000000000e+00  5.2489927284472804e-05 1.7336089018339384e-08 0.0000000000000000e+00  6.8499760900763142e-05 -1.8019524423045129e-08 0.0000000000000000e+00  8.6452896849308162e-05 -8.8962159053530160e-08 0.0000000000000000e+00  1.0673900967235318e-04 -2.1284411489801791e-07 0.0000000000000000e+00  1.2972677108881233e-04 -4.1399158747401346e-07 0.0000000000000000e+00  1.5574240082849176e-04 -7.2596794709682052e-07 0.0000000000000000e+00  1.8504088399425131e-04 -1.1942117571063072e-06 0.0000000000000000e+00  2.1777034890176381e-04 -1.8788578594918833e-06 0.0000000000000000e+00  2.5392863506296294e-04 -2.8570882066827555e-06 0.0000000000000000e+00  2.9329855820241240e-04 -4.2230909328849902e-06 0.0000000000000000e+00  3.3529733547038240e-04 -6.0818166832140677e-06 0.0000000000000000e+00  3.7852447936488170e-04 -8.5442085626606110e-06 0.0000000000000000e+00  4.1955085393090090e-04 -1.1886597886314103e-05 0.0000000000000000e+00  0.0000000000000000e+00 0.0000000000000000e+00 0.0000000000000000e+00  1.5632573797256053e-05 2.6888325412658699e-08 0.0000000000000000e+00  3.1766089849388523e-05 4.9668576025849523e-08 0.0000000000000000e+00  4.8910390814201867e-05 6.3411639222243406e-08 0.0000000000000000e+00  6.7585715509405425e-05 6.1420090851887067e-08 0.0000000000000000e+00  8.8324559469375738e-05 3.4092580391771272e-08 0.0000000000000000e+00  1.1166891579040811e-04 -3.2517675695156075e-08 0.0000000000000000e+00  1.3816073119041357e-04 -1.5854504836331576e-07 0.0000000000000000e+00  1.6832295849597472e-04 -3.7261163651363247e-07 0.0000000000000000e+00  2.0262811314618125e-04 -7.1454285358540863e-07 0.0000000000000000e+00  2.4145066691110237e-04 -1.2382333155577370e-06 0.0000000000000000e+00  2.8499839664103882e-04 -2.0139535180637331e-06 0.0000000000000000e+00  3.3321415275635604e-04 -3.1285888195362631e-06 0.0000000000000000e+00  3.8562906034416490e-04 -4.6811006617729444e-06 0.0000000000000000e+00  4.4112404544291304e-04 -6.7694632149832485e-06 0.0000000000000000e+00  4.9752138750188963e-04 -9.4664581017087382e-06 0.0000000000000000e+00  5.5095004245492058e-04 -1.2778038407775287e-05 0.0000000000000000e+00  0.0000000000000000e+00 0.0000000000000000e+00 0.0000000000000000e+00  1.8592647671052644e-05 4.2597230808101521e-08 0.0000000000000000e+00  3.7803076451070494e-05 8.1751006390946188e-08 0.0000000000000000e+00  5.8262059324431244e-05 1.1318256832082729e-07 0.0000000000000000e+00  8.0618882667231440e-05 1.3078266158358643e-07 0.0000000000000000e+00  1.0554688768680038e-04 1.2538805148499133e-07 0.0000000000000000e+00  1.3374364262558089e-04 8.3168869836575184e-08 0.0000000000000000e+00  1.6592281743877421e-04 -1.6516493009347328e-08 0.0000000000000000e+00  2.0279384315084005e-04 -2.0391382091925274e-07 0.0000000000000000e+00  2.4502423337040443e-04 -5.2231763341012062e-07 0.0000000000000000e+00  2.9317806995588912e-04 -1.0318899710866150e-06 0.0000000000000000e+00  3.4762262206001191e-04 -1.8129733740664366e-06 0.0000000000000000e+00  4.0839331959703233e-04 -2.9669084588303658e-06 0.0000000000000000e+00  4.7500558583716396e-04 -4.6106241286599655e-06 0.0000000000000000e+00  5.4620338141312449e-04 -6.8590599545624327e-06 0.0000000000000000e+00  6.1965357104559510e-04 -9.7871768572284722e-06 0.0000000000000000e+00  6.9167964777154132e-04 -1.3358882992878513e-05 0.0000000000000000e+00  0.0000000000000000e+00 0.0000000000000000e+00 0.0000000000000000e+00  2.0932433384783290e-05 6.1725359970135141e-08 0.0000000000000000e+00  4.2589825649097250e-05 1.2152394456578572e-07 0.0000000000000000e+00  6.5715277009860691e-05 1.7673843176899790e-07 0.0000000000000000e+00  9.1081744226866688e-05 2.2306583956927744e-07 0.0000000000000000e+00  1.1950347463054466e-04 2.5338399061994037e-07 0.0000000000000000e+00  1.5184208056949412e-04 2.5610791357112396e-07 0.0000000000000000e+00  1.8900381629676397e-04 2.1285143285012084e-07 0.0000000000000000e+00  2.3192306484881445e-04 9.5138650004636609e-08 0.0000000000000000e+00  2.8152505339270267e-04 -1.4006097297608819e-07 0.0000000000000000e+00  3.3865858949079752e-04 -5.5600331838104224e-07 0.0000000000000000e+00  4.0398772864899245e-04 -1.2424987850530460e-06 0.0000000000000000e+00  4.7783105817554957e-04 -2.3210431810543526e-06 0.0000000000000000e+00  5.5994132949622761e-04 -3.9444147848707593e-06 0.0000000000000000e+00  6.4923127638747042e-04 -6.2826253778683119e-06 0.0000000000000000e+00  7.4348132911470884e-04 -9.4834701620999574e-06 0.0000000000000000e+00  8.3911915641253141e-04 -1.3598840207341460e-05 0.0000000000000000e+00  0.0000000000000000e+00 0.0000000000000000e+00 0.0000000000000000e+00  2.2545227124627152e-05 8.2749315238998896e-08 0.0000000000000000e+00  4.5907307623292981e-05 1.6584172028590279e-07 0.0000000000000000e+00  7.0927337286496130e-05 2.4912521406202045e-07 0.0000000000000000e+00  9.8490673457321784e-05 3.3127047272975779e-07 0.0000000000000000e+00  1.2954662649497943e-04 4.0882863364995613e-07 0.0000000000000000e+00  1.6512391693356926e-04 4.7477764973098807e-07 0.0000000000000000e+00  2.0633841631561363e-04 5.1623921626097983e-07 0.0000000000000000e+00  2.5438755842672469e-04 5.1090926337396112e-07 0.0000000000000000e+00  3.1052284657735692e-04 4.2158396212626267e-07 0.0000000000000000e+00  3.7598823404248315e-04 1.8806204755441270e-07 0.0000000000000000e+00  4.5190861214243575e-04 -2.8409671563258396e-07 0.0000000000000000e+00  5.3911132401224357e-04 -1.1374033931848933e-06 0.0000000000000000e+00  6.3786873080275825e-04 -2.5752254875347935e-06 0.0000000000000000e+00  7.4756738021050412e-04 -4.8631281931854995e-06 0.0000000000000000e+00  8.6634260414696616e-04 -8.2969314282647539e-06 0.0000000000000000e+00  9.9075411299275658e-04 -1.3102559826268358e-05 0.0000000000000000e+00  0.0000000000000000e+00 0.0000000000000000e+00 0.0000000000000000e+00  2.3340063783647353e-05 1.0339613102467518e-07 0.0000000000000000e+00  4.7566573839936789e-05 2.0992609760294897e-07 0.0000000000000000e+00  7.3596896034687628e-05 3.2259007006671472e-07 0.0000000000000000e+00  1.0240925943529645e-04 4.4396770712631232e-07 0.0000000000000000e+00  1.3507280580881493e-04 5.7572398022423049e-07 0.0000000000000000e+00  1.7277595055772545e-04 7.1765845485143623e-07 0.0000000000000000e+00  2.1685026757713188e-04 8.6592543114768959e-07 0.0000000000000000e+00  2.6878452356060057e-04 1.0097852847897865e-06 0.0000000000000000e+00  3.3021944796655537e-04 1.1258126626209718e-06 0.0000000000000000e+00  4.0290803853070120e-04 1.1678456989531213e-06 0.0000000000000000e+00  4.8861903419326457e-04 1.0502036466660025e-06 0.0000000000000000e+00  5.8895483706271974e-04 6.2138867748206784e-07 0.0000000000000000e+00  7.0505558053471622e-04 -3.7255811933537290e-07 0.0000000000000000e+00  8.3717922064964327e-04 -2.3272955500419653e-06 0.0000000000000000e+00  9.8419376882140125e-04 -5.7919868883105871e-06 0.0000000000000000e+00  1.1430727954392715e-03 -1.1385189097559683e-05 0.0000000000000000e+00  0.0000000000000000e+00 0.0000000000000000e+00 0.0000000000000000e+00  2.3248652054819829e-05 1.2087764731450574e-07 0.0000000000000000e+00  4.7423087404984465e-05 2.4783785148595070e-07 0.0000000000000000e+00  7.3486566701686995e-05 3.8728540838693300e-07 0.0000000000000000e+00  1.0248030139344099e-04 5.4619570363149010e-07 0.0000000000000000e+00  1.3556511988500552e-04 7.3228351079824890e-07 0.0000000000000000e+00  1.7406555096019592e-04 9.5392123388714645e-07 0.0000000000000000e+00  2.1951528109931753e-04 1.2194891110507050e-06 0.0000000000000000e+00  2.7370033687046131e-04 1.5354970021767697e-06 0.0000000000000000e+00  3.3869158162307871e-04 1.9021436298904889e-06 0.0000000000000000e+00  4.1684998699562255e-04 2.3036988376136190e-06 0.0000000000000000e+00  5.1077553724513780e-04 2.6888116679975918e-06 0.0000000000000000e+00  6.2315410445166152e-04 2.9323051662241772e-06 0.0000000000000000e+00  7.5644252464885525e-04 2.7663554486029596e-06 0.0000000000000000e+00  9.1234053423786638e-04 1.6717028857318191e-06 0.0000000000000000e+00  1.0910702128766379e-03 -1.2511608615047162e-06 0.0000000000000000e+00  1.2906553811407250e-03 -7.3202867036668569e-06 0.0000000000000000e+00  0.0000000000000000e+00 0.0000000000000000e+00 0.0000000000000000e+00  2.2233166423030097e-05 1.3225427589690845e-07 0.0000000000000000e+00  4.5393162935044394e-05 2.7323489174313999e-07 0.0000000000000000e+00  7.0449721850489284e-05 4.3247582398586954e-07 0.0000000000000000e+00  9.8465528491465407e-05 6.2117185316465436e-07 0.0000000000000000e+00  1.3064921880844718e-04 8.5315363593141214e-07 0.0000000000000000e+00  1.6841624666328293e-04 1.1459842437592353e-06 0.0000000000000000e+00  2.1345958903173451e-04 1.5220826259225328e-06 0.0000000000000000e+00  2.6783054831405951e-04 2.0095134521338918e-06 0.0000000000000000e+00  3.3402570701780856e-04 2.6414338091460831e-06 0.0000000000000000e+00  4.1506694897774048e-04 3.4516403065259863e-06 0.0000000000000000e+00  5.1454352184690218e-04 4.4600673057698727e-06 0.0000000000000000e+00  6.3655384398618540e-04 5.6341247396106261e-06 0.0000000000000000e+00  7.8543990653526946e-04 6.7958599598350167e-06 0.0000000000000000e+00  9.6516994204381219e-04 7.4209185760878661e-06 0.0000000000000000e+00  1.1782798673490968e-03 6.2717636058214371e-06 0.0000000000000000e+00  1.4246047403853948e-03 9.4129887299203665e-07 0.0000000000000000e+00  0.0000000000000000e+00 0.0000000000000000e+00 0.0000000000000000e+00  2.0294048952856545e-05 1.3489685433652203e-07 0.0000000000000000e+00  4.1470810087998500e-05 2.8036172147131703e-07 0.0000000000000000e+00  6.4458950120469875e-05 4.4819047572736198e-07 0.0000000000000000e+00  9.0289786110793569e-05 6.5281521868950320e-07 0.0000000000000000e+00  1.2015908483297081e-04 9.1307060140556845e-07 0.0000000000000000e+00  1.5550274397598546e-04 1.2545539939499298e-06 0.0000000000000000e+00  1.9809246597691404e-04 1.7128619469579459e-06 0.0000000000000000e+00  2.5015808244198775e-04 2.3380093853317336e-06 0.0000000000000000e+00  3.1454203188579908e-04 3.2002048419666314e-06 0.0000000000000000e+00  3.9488541366434094e-04 4.3964276169288142e-06 0.0000000000000000e+00  4.9582707132979126e-04 6.0545189761904389e-06 0.0000000000000000e+00  6.2315400080694729e-04 8.3223666695149251e-06 0.0000000000000000e+00  7.8375295080836463e-04 1.1301467908195738e-05 0.0000000000000000e+00  9.8506865562313865e-04 1.4805485937457766e-05 0.0000000000000000e+00  1.2336636734665808e-03 1.7663596020743499e-05 0.0000000000000000e+00  1.5328399396173818e-03 1.6393104398940272e-05 0.0000000000000000e+00  0.0000000000000000e+00 0.0000000000000000e+00 0.0000000000000000e+00  1.7476611928829145e-05 1.2698067227530907e-07 0.0000000000000000e+00  3.5742440672515742e-05 2.6513478570297984e-07 0.0000000000000000e+00  5.5632084152328923e-05 4.2711356232213120e-07 0.0000000000000000e+00  7.8083845478340311e-05 6.2881429696642616e-07 0.0000000000000000e+00  1.0420511617221366e-04 8.9170191672645869e-07 0.0000000000000000e+00  1.3535673136740159e-04 1.2461410579914756e-06 0.0000000000000000e+00  1.7326686161743120e-04 1.7364169808268085e-06 0.0000000000000000e+00  2.2018913165097823e-04 2.4285562581677285e-06 0.0000000000000000e+00  2.7912474311412970e-04 3.4228430749542799e-06 0.0000000000000000e+00  3.5413239546457412e-04 4.8743222291205405e-06 0.0000000000000000e+00  4.5074565349554583e-04 7.0267340231987091e-06 0.0000000000000000e+00  5.7648490818311003e-04 1.0266543089329499e-05 0.0000000000000000e+00  7.4134031138751609e-04 1.5190711276428259e-05 0.0000000000000000e+00  9.5780996210091608e-04 2.2580591586379883e-05 0.0000000000000000e+00  1.2395057108103376e-03 3.2609214279445952e-05 0.0000000000000000e+00  1.5980575098550446e-03 3.9944718693563506e-05 0.0000000000000000e+00  0.0000000000000000e+00 0.0000000000000000e+00 0.0000000000000000e+00  1.3874992960194968e-05 1.0791505717761441e-07 0.0000000000000000e+00  2.8396279295730271e-05 2.2611074749629110e-07 0.0000000000000000e+00  4.4250398695109863e-05 3.6634174178335158e-07 0.0000000000000000e+00  6.2217409825679704e-05 5.4364484975217990e-07 0.0000000000000000e+00  8.3232134419436646e-05 7.7877263801834125e-07 0.0000000000000000e+00  1.0846655952304656e-04 1.1018106909908714e-06 0.0000000000000000e+00  1.3944706426529879e-04 1.5578511327883242e-06 0.0000000000000000e+00  1.7822804259103942e-04 2.2162653127740376e-06 0.0000000000000000e+00  2.2765662585304543e-04 3.1865253027795685e-06 0.0000000000000000e+00  2.9178403261917847e-04 4.6467672034844409e-06 0.0000000000000000e+00  3.7650860669126061e-04 6.8995432327036013e-06 0.0000000000000000e+00  4.9056450703879905e-04 1.0491793980247173e-05 0.0000000000000000e+00  6.4694546020830029e-04 1.6499059422986628e-05 0.0000000000000000e+00  8.6455635766173751e-04 2.7237797392885001e-05 0.0000000000000000e+00  1.1683180463093964e-03 4.7964413876888094e-05 0.0000000000000000e+00  1.5749056811796662e-03 8.8776990130586561e-05 0.0000000000000000e+00  0.0000000000000000e+00 0.0000000000000000e+00 0.0000000000000000e+00  9.6320284991075270e-06 7.8600910119343125e-08 0.0000000000000000e+00  1.9723216829549664e-05 1.6508898640451814e-07 0.0000000000000000e+00  3.0763036962513118e-05 2.6853938403920850e-07 0.0000000000000000e+00  4.3312213877211841e-05 4.0069262877659054e-07 0.0000000000000000e+00  5.8050753033317182e-05 5.7796479952176130e-07 0.0000000000000000e+00  7.5844634036333948e-05 8.2447042466437302e-07 0.0000000000000000e+00  9.7844508952755829e-05 1.1767874237333589e-06 0.0000000000000000e+00  1.2563926520134126e-04 1.6916829045843704e-06 0.0000000000000000e+00  1.6150539847686993e-04 2.4589092777824589e-06 0.0000000000000000e+00  2.0882811399524026e-04 3.6229754181503579e-06 0.0000000000000000e+00  2.7283874003638750e-04 5.4224027015193594e-06 0.0000000000000000e+00  3.6194880300575099e-04 8.2712384891821628e-06 0.0000000000000000e+00  4.9023171099690040e-04 1.2979251480797550e-05 0.0000000000000000e+00  6.8218759133405085e-04 2.1550702514715860e-05 0.0000000000000000e+00  9.8273677665274375e-04 4.0707373278859925e-05 0.0000000000000000e+00  1.4864485141644654e-03 9.9308153861387300e-05 0.0000000000000000e+00  0.0000000000000000e+00 0.0000000000000000e+00 0.0000000000000000e+00  4.9339992499231065e-06 4.1430563310383317e-08 0.0000000000000000e+00  1.0106578325805752e-05 8.7142542405588301e-08 0.0000000000000000e+00  1.5772637391618504e-05 1.4207939201255189e-07 0.0000000000000000e+00  2.2225704237305737e-05 2.1267507725557568e-07 0.0000000000000000e+00  2.9824448555883136e-05 3.0798367346049419e-07 0.0000000000000000e+00  3.9030241669502136e-05 4.4137379144337302e-07 0.0000000000000000e+00  5.0464150284428724e-05 6.3315224496840008e-07 0.0000000000000000e+00  6.4998460065057004e-05 9.1459324054732901e-07 0.0000000000000000e+00  8.3911470695790453e-05 1.3336854329810233e-06 0.0000000000000000e+00  1.0916306077932883e-04 1.9612351961111338e-06 0.0000000000000000e+00  1.4391076748255553e-04 2.8876263968934107e-06 0.0000000000000000e+00  1.9351915134548992e-04 4.1646076920323510e-06 0.0000000000000000e+00  2.6755719829790753e-04 5.5002350647947181e-06 0.0000000000000000e+00  3.8334303644528252e-04 4.9625690885036782e-06 0.0000000000000000e+00  5.6839064494536133e-04 -5.6308161110281927e-06 0.0000000000000000e+00  8.3713524153935679e-04 -4.9973716106992651e-05 0.0000000000000000e+00  0.0000000000000000e+00 0.0000000000000000e+00 0.0000000000000000e+00  0.0000000000000000e+00 0.0000000000000000e+00 0.0000000000000000e+00  0.0000000000000000e+00 0.0000000000000000e+00 0.0000000000000000e+00  0.0000000000000000e+00 0.0000000000000000e+00 0.0000000000000000e+00  0.0000000000000000e+00 0.0000000000000000e+00 0.0000000000000000e+00  0.0000000000000000e+00 0.0000000000000000e+00 0.0000000000000000e+00  0.0000000000000000e+00 0.0000000000000000e+00 0.0000000000000000e+00  0.0000000000000000e+00 0.0000000000000000e+00 0.0000000000000000e+00  0.0000000000000000e+00 0.0000000000000000e+00 0.0000000000000000e+00  0.0000000000000000e+00 0.0000000000000000e+00 0.0000000000000000e+00  0.0000000000000000e+00 0.0000000000000000e+00 0.0000000000000000e+00  0