<?xml version="1.0"?>
<VTKFile type="UnstructuredGrid"  version="0.1"  >
<UnstructuredGrid>
<Piece  NumberOfPoints="289" NumberOfCells="512">
<Points>
<DataArray  type="Float64"  NumberOfComponents="3"  format="ascii">0 0 0  0.0625 0 0  0.125 0 0  0.1875 0 0  0.25 0 0  0.3125 0 0  0.375 0 0  0.4375 0 0  0.5 0 0  0.5625 0 0  0.625 0 0  0.6875 0 0  0.75 0 0  0.8125 0 0  0.875 0 0  0.9375 0 0  1 0 0  0 0.0625 0  0.06251237024346688 0.06249020063975473 0  0.125025629375785 0.06248023931215978 0  0.1875407529574949 0.06246997050674082 0  0.2500589020846503 0.0624592865425677 0  0.3125815424597075 0.06244814080107217 0  0.375110600174469 0.06243657484791584 0  0.4376486782917726 0.06242474766241814 0  0.5001993775691843 0.06241296064442233 0  0.5627678102161195 0.06240166306999217 0  0.6253615105757777 0.06239140459745905 0  0.687992256724402 0.06238266283998666 0  0.7506802091636519 0.06237538221852574 0  0.8134645013923431 0.06236781203587423 0  0.8764332232282691 0.06235349271387747 0  0.9398155244035408 0.06231311392206321 0  1.004285158002736 0.06219634614056182 0  0 0.125 0  0.06252379946273452 0.1249805607755931 0  0.1250492941905012 0.1249607791860828 0  0.1875783465754126 0.1249403439649785 0  0.250113177570377 0.1249190160708257 0  0.312656597437485 0.1248966747061753 0  0.3752123068980808 0.1248733734112217 0  0.4377853105159401 0.1248494050007272 0  0.5003825101624703 0.1248253671954902 0  0.5630136001334898 0.1248022075640533 0  0.6256924991315101 0.1247812024832546 0  0.6884397925954959 0.1247637846690463 0  0.7512871202906377 0.1247510763882524 0  0.8142851046950675 0.124742948268175 0  0.8775160374397737 0.1247366430612415 0  0.9411029625552967 0.1247265274070039 0  1.00514678673775 0.1247124225774014 0  0 0.1875 0  0.06253349698174897 0.1874712624158148 0  0.125069331008744 0.1874419675749439 0  0.1876100707515624 0.1874115999660908 0  0.2501587832082294 0.1873797428275525 0  0.3127193549827916 0.187346144879763 0  0.3752969097097016 0.1873108068287393 0  0.4378983713817454 0.1872740906065857 0  0.5005332423067901 0.1872368479568408 0  0.5632146931262192 0.1872005522086302 0  0.6259611001476566 0.1871673939184781 0  0.6887981896370833 0.1871402630627705 0  0.7517618448470434 0.1871224848451231 0  0.8149009686885871 0.1871171005074624 0  0.8782772697982854 0.1871253369214568 0  0.9419516659752865 0.1871432306267675 0  1.005935350460638 0.1871515781512986 0  0 0.25 0  0.062540841059244 0.2499625219149521 0  0.1250844300076544 0.2499242253688053 0  0.1876337866943801 0.2498843375555937 0  0.2501925186144183 0.2498421970809575 0  0.3127652021241623 0.2497973358115529 0  0.3753578783543914 0.2497495932195446 0  0.4379787169389939 0.249699274140478 0  0.5006389095933022 0.2496473581053379 0  0.5633538560370195 0.2495957604305333 0  0.6261446743634849 0.249547627680838 0  0.68903994861745 0.2495076168992167 0  0.7520772775633245 0.2494820517275634 0  0.8153033120486869 0.2494787604323895 0  0.8787691023606838 0.2495062703683038 0  0.9425147012631171 0.2495718983686647 0  1.006536204318681 0.2496787906700771 0  0 0.3125 0  0.06254543825569078 0.3124546016100603 0  0.1250937619544013 0.3124080725502022 0  0.1876481385293588 0.3123593218979372 0  0.2502123489341179 0.3123073618055279 0  0.3127911918273915 0.3122513935103397 0  0.3753910165012717 0.31219093923475 0  0.4380204438226569 0.3121260415651264 0  0.5006913411925973 0.3120575557512584 0  0.5634201087629894 0.3119875617793779 0  0.6262292820014556 0.3119199170630411 0  0.6891493043424628 0.3118609477817018 0  0.7522199785001648 0.3118202215681484 0  0.8154904586567611 0.3118112355894588 0  0.879015762224182 0.311851684562243 0  0.9428475239305846 0.3119628315818412 0  1.007020097233314 0.3121678082857859 0  0 0.375 0  0.06254715879557118 0.3749478142860819 0  0.1250970551494606 0.3748941403511322 0  0.1876526844657175 0.3748375112425313 0  0.250217609108262 0.3747765269179952 0  0.312796342835692 0.3747099271633075 0  0.375394873321309 0.3746367203745268 0  0.4380213944471411 0.3745564009277791 0  0.5006873378219291 0.3744693009844968 0  0.5634088021236632 0.3743771385974327 0  0.6262084559158859 0.3742838386261538 0  0.6891178890299026 0.3741967039758027 0  0.7521801409907261 0.3741279737354431 0  0.8154516895577151 0.3740966680414229 0  0.8790026504058702 0.3741303095564242 0  0.9429139213231177 0.3742655722785681 0  1.007271800246829 0.3745461805022159 0  0 0.4375 0  0.06254614376322519 0.4374425172780187 0  0.1250946137458316 0.4373831623361691 0  0.1876479346664906 0.4373200517749964 0  0.2502090751674544 0.4372513009520347 0  0.3127817637920619 0.4371750610326123 0  0.3753709419008125 0.4370896131861104 0  0.437983440733277 0.4369935606081606 0  0.5006290112566655 0.4368861827467844 0  0.5633218892281537 0.4367680514537287 0  0.6260831328229607 0.4366420563031242 0  0.6889439914868417 0.4365150373801352 0  0.7519504755762129 0.4364002441567807 0  0.8151689712590147 0.4363207378378766 0  0.8786920705263103 0.4363134504817999 0  0.9426428841579788 0.4364326748523565 0  1.007175658721179 0.4367503164732435 0  0 0.5 0  0.06254278185349947 0.499939093402238 0  0.1250872722411607 0.4998759377261686 0  0.1876352867782077 0.4998082274330125 0  0.2501888895501772 0.4997335569394495 0  0.3127505879657305 0.4996493966911937 0  0.3753236421448701 0.4995531137296927 0  0.4379125845627425 0.4994420773681483 0  0.5005241169035474 0.4993139228342887 0  0.5631686691250763 0.4991671009180813 0  0.6258630860290838 0.4990019316540604 0  0.6886351438910886 0.4988225146720781 0  0.7515308143753255 0.4986400147641326 0  0.8146251241120759 0.4984779402059549 0  0.8780365415662538 0.4983797451427693 0  0.9419423467890722 0.4984177236511054 0  1.006588787677888 0.4986989438919445 0  0 0.5625 0  0.06253765546966755 0.5624379173496301 0  0.1250762843933445 0.562373263003477 0  0.1876168528635821 0.5623033553147425 0  0.2501603244909171 0.5622252924876618 0  0.3127076848338047 0.5621358460914375 0  0.375260025133833 0.5620313693921988 0  0.4378187674311301 0.5619077481749782 0  0.5003862064321024 0.5617604549391256 0  0.5629667257771909 0.5615848327524184 0  0.6255693833364195 0.5613768611554534 0  0.688213131439853 0.5611348912729173 0  0.7509367622376393 0.5608632439879869 0  0.8138164507499807 0.5605791582317277 0  0.8769933137504027 0.5603250432501496 0  0.9407089502548049 0.5601869317676593 0  1.005335690947893 0.5603143843229544 0  0 0.625 0  0.06253145901739024 0.6249393088041159 0  0.1250631505670727 0.6248758333339278 0  0.1875951785050034 0.6248066260099535 0  0.2501273715167831 0.6247283960392368 0  0.3126591050886199 0.624637310196832 0  0.3751890898679957 0.6245287635248521 0  0.43771515791162 0.6243971196129015 0  0.5002341647695422 0.6242354407959205 0  0.5627423314346721 0.6240352799909618 0  0.6252368116733985 0.6237867287854866 0  0.6877202351306615 0.6234792029453021 0  0.7502118061547229 0.623104095054245 0  0.8127714309754014 0.6226618014785674 0  0.8755460493665823 0.6221780853854877 0  0.9388436094677038 0.6217367696849256 0  1.003216138437949 0.6215271810152742 0  0 0.6875 0  0.06252489686165549 0.6874434771261617 0  0.1250493973929115 0.6873841232399222 0  0.1875728708098972 0.6873189019185897 0  0.2500941668802357 0.6872443330555629 0  0.3126112387732353 0.6871562099472502 0  0.3751206125569628 0.6870492349886851 0  0.4376166432707593 0.6869165346312077 0  0.5000905271084648 0.6867490073117352 0  0.5625291717918728 0.6865344614351008 0  0.6249144476185831 0.6862565448603895 0  0.6872244993274006 0.685893647511565 0  0.7494416910085295 0.6854185645094892 0  0.8115782288728831 0.6848016057920726 0  0.8737423130190239 0.6840254163549006 0  0.9362777245086308 0.6831334110513132 0  0.9999765150228683 0.6823416080930191 0  0 0.75 0  0.06251857434540087 0.7499504662236026 0  0.1250363374993039 0.7498982647626156 0  0.1875521781428142 0.7498405032114729 0  0.2500643077257647 0.7497737951044895 0  0.3125697379473662 0.7496939257934636 0  0.3750634903598907 0.7495953944717002 0  0.4375373648441301 0.749470755194643 0  0.4999780145590583 0.7493096386004657 0  0.5623640001780321 0.7490972692299229 0  0.6246615557040325 0.7488121892354151 0  0.6868194621711772 0.7484227586056758 0  0.7487662009410352 0.7478819288282078 0  0.8104218648397887 0.7471204579791973 0  0.871764597957197 0.7460437387368638 0  0.9330550076925557 0.7445650832272991 0  0.9952926219656796 0.7428435129165153 0  0 0.8125 0  0.0625129010134302 0.8124601110167647 0  0.1250248517098338 0.8124179483511241 0  0.1875345954760125 0.8123710257508749 0  0.2500401759438213 0.8123163840634916 0  0.3125383740257973 0.8122502588996887 0  0.3750238151231103 0.8121676075392842 0  0.4374874860575245 0.8120613981365911 0  0.4999142017754671 0.8119215006857581 0  0.5622782011863769 0.8117329016308218 0  0.6245354415171978 0.8114727357376359 0  0.6866103163525764 0.8111051526778246 0  0.7483742125220357 0.8105719638565327 0  0.8096179338554715 0.8097745039219898 0  0.870049797804242 0.8085366989002163 0  0.9295007011192461 0.8065336140575562 0  0.9893732545368656 0.8032467535943003 0  0 0.875 0  0.06250802803050794 0.8749720173133858 0  0.125015244856455 0.8749423735501641 0  0.1875205922194629 0.87490924125517 0  0.2500224428848596 0.8748704200268337 0  0.3125181303338702 0.8748230680896216 0  0.3750031796152542 0.8747633117808209 0  0.4374699750202342 0.8746856457488528 0  0.4999053489738941 0.8745819776104662 0  0.5622860379801817 0.8744400636927644 0  0.624569768076643 0.8742408813018756 0  0.6866770988983198 0.8739540690966325 0  0.7484533931677935 0.8735295443734258 0  0.8095886404601611 0.8728801773666305 0  0.869454630014708 0.8718381606980663 0  0.9268164589203007 0.8700180986191429 0  0.9795309554237815 0.8663142187735603 0  0 0.9375 0  0.06250383866558951 0.9374855739675535 0  0.1250072210777203 0.937470270581666 0  0.1875095558216154 0.9374531210985269 0  0.2500099390291023 0.9374329510622716 0  0.3125068931000499 0.9374082303436949 0  0.3749979330928517 0.9373768526809555 0  0.4374787989882316 0.9
[...]
<PointData  Vectors="f_54"> 
<DataArray  type="Float64"  Name="f_54"  NumberOfComponents="3" format="ascii">0.0000000000000000e+00 0.0000000000000000e+00 0.0000000000000000e+00  0.0000000000000000e+00 0.0000000000000000e+00 0.0000000000000000e+00  0.0000000000000000e+00 0.0000000000000000e+00 0.0000000000000000e+00  0.0000000000000000e+00 0.0000000000000000e+00 0.0000000000000000e+00  0.0000000000000000e+00 0.0000000000000000e+00 0.0000000000000000e+00  0.0000000000000000e+00 0.0000000000000000e+00 0.0000000000000000e+00  0.0000000000000000e+00 0.0000000000000000e+00 0.0000000000000000e+00  0.0000000000000000e+00 0.0000000000000000e+00 0.0000000000000000e+00  0.0000000000000000e+00 0.0000000000000000e+00 0.0000000000000000e+00  0.0000000000000000e+00 0.0000000000000000e+00 0.0000000000000000e+00  0.0000000000000000e+00 0.0000000000000000e+00 0.0000000000000000e+00  0.0000000000000000e+00 0.0000000000000000e+00 0.0000000000000000e+00  0.0000000000000000e+00 0.0000000000000000e+00 0.0000000000000000e+00  0.0000000000000000e+00 0.0000000000000000e+00 0.0000000000000000e+00  0.0000000000000000e+00 0.0000000000000000e+00 0.0000000000000000e+00  0.0000000000000000e+00 0.0000000000000000e+00 0.0000000000000000e+00  0.0000000000000000e+00 0.0000000000000000e+00 0.0000000000000000e+00  0.0000000000000000e+00 0.0000000000000000e+00 0.0000000000000000e+00  -4.1607460794672333e-06 -8.8257506668215626e-08 0.0000000000000000e+00  -8.4439587529675524e-06 -1.7563332239889698e-07 0.0000000000000000e+00  -1.2973665582304360e-05 -2.6071339269097912e-07 0.0000000000000000e+00  -1.7874192249495896e-05 -3.4089608576113552e-07 0.0000000000000000e+00  -2.3269571501854172e-05 -4.1162893972443351e-07 0.0000000000000000e+00  -2.9282074428460704e-05 -4.6543487602216051e-07 0.0000000000000000e+00  -3.6029820516009449e-05 -4.9064301630681660e-07 0.0000000000000000e+00  -4.3623908661365117e-05 -4.6970692107504261e-07 0.0000000000000000e+00  -5.2166705180066123e-05 -3.7688277018942009e-07 0.0000000000000000e+00  -6.1755945882809612e-05 -1.7465912214101820e-07 0.0000000000000000e+00  -7.2507500988711876e-05 1.9298184142334631e-07 0.0000000000000000e+00  -8.4633959059165364e-05 8.1698918847039152e-07 0.0000000000000000e+00  -9.8695367194379750e-05 1.8726417518551242e-06 0.0000000000000000e+00  -1.1642037566637731e-04 3.7899169130090401e-06 0.0000000000000000e+00  -1.4360076336451813e-04 7.9024384777332041e-06 0.0000000000000000e+00  -2.0161856485662510e-04 1.9228466028814192e-05 0.0000000000000000e+00  0.0000000000000000e+00 0.0000000000000000e+00 0.0000000000000000e+00  -8.1993744929059687e-06 -1.7740162310635348e-07 0.0000000000000000e+00  -1.6643720740956774e-05 -3.5360080545010198e-07 0.0000000000000000e+00  -2.5581373146563668e-05 -5.2639546718790094e-07 0.0000000000000000e+00  -3.5262015367989151e-05 -6.9134044519689092e-07 0.0000000000000000e+00  -4.5935813755480460e-05 -8.4029015268770858e-07 0.0000000000000000e+00  -5.7850633420502583e-05 -9.5952576740887621e-07 0.0000000000000000e+00  -7.1246973105335882e-05 -1.0273138555252266e-06 0.0000000000000000e+00  -8.6350820079924756e-05 -1.0107304589666101e-06 0.0000000000000000e+00  -1.0336591790008421e-04 -8.6154747586979916e-07 0.0000000000000000e+00  -1.2246970104698587e-04 -5.1085794700432111e-07 0.0000000000000000e+00  -1.4382275145495945e-04 1.3818773722349972e-07 0.0000000000000000e+00  -1.6761190283861565e-04 1.2205245543404773e-06 0.0000000000000000e+00  -1.9415967581243976e-04 2.9211303949042536e-06 0.0000000000000000e+00  -2.2410711828045824e-04 5.4657204456982046e-06 0.0000000000000000e+00  -2.5833114031017352e-04 8.9210886085392900e-06 0.0000000000000000e+00  -2.9487929009185408e-04 1.1775789387003218e-05 0.0000000000000000e+00  0.0000000000000000e+00 0.0000000000000000e+00 0.0000000000000000e+00  -1.1992114426009151e-05 -2.6772002047416739e-07 0.0000000000000000e+00  -2.4351109692474492e-05 -5.3497209006721952e-07 0.0000000000000000e+00  -3.7449481189360737e-05 -7.9995101497145344e-07 0.0000000000000000e+00  -5.1663568958639449e-05 -1.0578186131882513e-06 0.0000000000000000e+00  -6.7373077431376747e-05 -1.2986916286194046e-06 0.0000000000000000e+00  -8.4957447885748122e-05 -1.5050120441870933e-06 0.0000000000000000e+00  -1.0478806538085022e-04 -1.6480778824433745e-06 0.0000000000000000e+00  -1.2721554164667732e-04 -1.6835346051845379e-06 0.0000000000000000e+00  -1.5255194598565156e-04 -1.5457150124412827e-06 0.0000000000000000e+00  -1.8104893254403343e-04 -1.1409499147876976e-06 0.0000000000000000e+00  -2.1287370630002357e-04 -3.4055624485242675e-07 0.0000000000000000e+00  -2.4808274060302596e-04 1.0242705148831181e-06 0.0000000000000000e+00  -2.8657707795134117e-04 3.1593445689639411e-06 0.0000000000000000e+00  -3.2795897514390773e-04 6.2801119474078197e-06 0.0000000000000000e+00  -3.7102134363962513e-04 1.0535509381928209e-05 0.0000000000000000e+00  -4.1230867921516806e-04 1.5988727743610687e-05 0.0000000000000000e+00  0.0000000000000000e+00 0.0000000000000000e+00 0.0000000000000000e+00  -1.5416039317475622e-05 -3.5844439626968522e-07 0.0000000000000000e+00  -3.1318897447564120e-05 -7.1857384854871577e-07 0.0000000000000000e+00  -4.8203940780054776e-05 -1.0805883418302742e-06 0.0000000000000000e+00  -6.6575058434445087e-05 -1.4412596989245337e-06 0.0000000000000000e+00  -8.6945712220160861e-05 -1.7915753453609673e-06 0.0000000000000000e+00  -1.0983558372606403e-04 -2.1135614447469300e-06 0.0000000000000000e+00  -1.3576094338266280e-04 -2.3759620267948196e-06 0.0000000000000000e+00  -1.6521664366422675e-04 -2.5284650185658438e-06 0.0000000000000000e+00  -1.9864748827033593e-04 -2.4942929821187504e-06 0.0000000000000000e+00  -2.3640652039929913e-04 -2.1613617514920423e-06 0.0000000000000000e+00  -2.7869675266897889e-04 -1.3731288147625049e-06 0.0000000000000000e+00  -3.2548863965390756e-04 7.7826712335170937e-08 0.0000000000000000e+00  -3.7639253460249213e-04 2.4469419969964971e-06 0.0000000000000000e+00  -4.3043490683985017e-04 6.0140881656672442e-06 0.0000000000000000e+00  -4.8564446591389040e-04 1.1026241911820580e-05 0.0000000000000000e+00  -5.3839958796489222e-04 1.7605877389207229e-05 0.0000000000000000e+00  0.0000000000000000e+00 0.0000000000000000e+00 0.0000000000000000e+00  -1.8350595453858891e-05 -4.4739130307506639e-07 0.0000000000000000e+00  -3.7303508632304920e-05 -9.0020887789361647e-07 0.0000000000000000e+00  -5.7473438679288109e-05 -1.3624875377818464e-06 0.0000000000000000e+00  -7.9491157372477871e-05 -1.8349534657299942e-06 0.0000000000000000e+00  -1.0400778297004725e-04 -2.3126150874579681e-06 0.0000000000000000e+00  -1.3169366439800645e-04 -2.7813483084137433e-06 0.0000000000000000e+00  -1.6322911973773929e-04 -3.2130060734891025e-06 0.0000000000000000e+00  -1.9928350125105840e-04 -3.5585112894212317e-06 0.0000000000000000e+00  -2.4047820338614953e-04 -3.7384078037742628e-06 0.0000000000000000e+00  -2.8732834834291685e-04 -3.6306077284776157e-06 0.0000000000000000e+00  -3.4015691478261623e-04 -3.0558904535129812e-06 0.0000000000000000e+00  -3.9897368716164573e-04 -1.7635620571035464e-06 0.0000000000000000e+00  -4.6330930605522269e-04 5.7690796426748000e-07 0.0000000000000000e+00  -5.3199461415019006e-04 4.3675999409664084e-06 0.0000000000000000e+00  -6.0289468722016563e-04 1.0042360562521329e-05 0.0000000000000000e+00  -6.7270306232728794e-04 1.7981089031582240e-05 0.0000000000000000e+00  0.0000000000000000e+00 0.0000000000000000e+00 0.0000000000000000e+00  -2.0680193113140881e-05 -5.3079838480923900e-07 0.0000000000000000e+00  -4.2069891883748313e-05 -1.0722729464119799e-06 0.0000000000000000e+00  -6.4895862008218435e-05 -1.6340783401686427e-06 0.0000000000000000e+00  -8.9911829898619186e-05 -2.2232890780486785e-06 0.0000000000000000e+00  -1.1790816994686608e-04 -2.8423163883086783e-06 0.0000000000000000e+00  -1.4971585088739814e-04 -3.4857086822042259e-06 0.0000000000000000e+00  -1.8620115297235591e-04 -4.1352003093091213e-06 0.0000000000000000e+00  -2.2824626285408546e-04 -4.7521374754969410e-06 0.0000000000000000e+00  -2.7670918868307625e-04 -5.2661479135357491e-06 0.0000000000000000e+00  -3.3235484080099131e-04 -5.5587568801574349e-06 0.0000000000000000e+00  -3.9574834281356759e-04 -5.4409068512437442e-06 0.0000000000000000e+00  -4.6710314674258051e-04 -4.6246851725839614e-06 0.0000000000000000e+00  -5.4608297485011972e-04 -2.6931251767709168e-06 0.0000000000000000e+00  -6.3157256685263444e-04 9.2110154979228081e-07 0.0000000000000000e+00  -7.2146514076995160e-04 6.9275348697994809e-06 0.0000000000000000e+00  -8.1257261601818342e-04 1.6113742790190941e-05 0.0000000000000000e+00  0.0000000000000000e+00 0.0000000000000000e+00 0.0000000000000000e+00  -2.2298146073040202e-05 -6.0341052421680313e-07 0.0000000000000000e+00  -4.5399210491898803e-05 -1.2238873487926578e-06 0.0000000000000000e+00  -7.0129277899357435e-05 -1.8781255486960072e-06 0.0000000000000000e+00  -9.7355642369492714e-05 -2.5816125370640590e-06 0.0000000000000000e+00  -1.2800439343140177e-04 -3.3473216976567605e-06 0.0000000000000000e+00  -1.6307295626598412e-04 -4.1833424390381077e-06 0.0000000000000000e+00  -2.0363372312265658e-04 -5.0886988105108377e-06 0.0000000000000000e+00  -2.5082275997101124e-04 -6.0461662165544416e-06 0.0000000000000000e+00  -3.0580475196233882e-04 -7.0102224057886471e-06 0.0000000000000000e+00  -3.6970225867916594e-04 -7.8873510220586143e-06 0.0000000000000000e+00  -4.4347526155027941e-04 -8.5049447320841364e-06 0.0000000000000000e+00  -5.2773882014375687e-04 -8.5648126556399618e-06 0.0000000000000000e+00  -6.2251759810459651e-04 -7.5798679136412548e-06 0.0000000000000000e+00  -7.2696230741733079e-04 -4.8019976206148733e-06 0.0000000000000000e+00  -8.3909498608633365e-04 8.3002869764924124e-07 0.0000000000000000e+00  -9.5568594378034268e-04 1.0663532182553338e-05 0.0000000000000000e+00  0.0000000000000000e+00 0.0000000000000000e+00 0.0000000000000000e+00  -2.3112122627346315e-05 -6.5885376886368780e-07 0.0000000000000000e+00  -4.7099782600087224e-05 -1.3416383052503602e-06 0.0000000000000000e+00  -7.2868345584061091e-05 -2.0727997460655951e-06 0.0000000000000000e+00  -1.0138133556726515e-04 -2.8775232175049314e-06 0.0000000000000000e+00  -1.3368832878352585e-04 -3.7816669698341882e-06 0.0000000000000000e+00  -1.7094995871196127e-04 -4.8109437067961677e-06 0.0000000000000000e+00  -2.1445646169867579e-04 -5.9886471699498518e-06 0.0000000000000000e+00  -2.6563326993506316e-04 -7.3306213208983767e-06 0.0000000000000000e+00  -3.2602279193863102e-04 -8.8350824714986745e-06 0.0000000000000000e+00  -3.9722571473899441e-04 -1.0463023663803035e-05 0.0000000000000000e+00  -4.8077904909564077e-04 -1.2101945952761211e-05 0.0000000000000000e+00  -5.7794558590718698e-04 -1.3501770886926254e-05 0.0000000000000000e+00  -6.8939934815810558e-04 -1.4169300255016775e-05 0.0000000000000000e+00  -8.1482825535853203e-04 -1.3214375580159435e-05 0.0000000000000000e+00  -9.5254560347304872e-04 -9.1731651171694558e-06 0.0000000000000000e+00  -1.0992594249017598e-03 9.7548040930034467e-08 0.0000000000000000e+00  0.0000000000000000e+00 0.0000000000000000e+00 0.0000000000000000e+00  -2.3051050858029332e-05 -6.9030320417827233e-07 0.0000000000000000e+00  -4.7021265832772281e-05 -1.4109546460575675e-06 0.0000000000000000e+00  -7.2866445165178134e-05 -2.1938354117314717e-06 0.0000000000000000e+00  -1.0161863955559182e-04 -3.0738707267889991e-06 0.0000000000000000e+00  -1.3442611091055672e-04 -4.0905696901772402e-06 0.0000000000000000e+00  -1.7259433352776756e-04 -5.2894280695181561e-06 0.0000000000000000e+00  -2.1762584467209734e-04 -6.7227987493990709e-06 0.0000000000000000e+00  -2.7125336982313305e-04 -8.4492641821087332e-06 0.0000000000000000e+00  -3.3545474038215826e-04 -1.0529317638228986e-05 0.0000000000000000e+00  -4.1242859756856045e-04 -1.3012571333046526e-05 0.0000000000000000e+00  -5.0449635866696733e-04 -1.5906460174605964e-05 0.0000000000000000e+00  -6.1388132657422983e-04 -1.9106590125282150e-05 0.0000000000000000e+00  -7.4231247301166723e-04 -2.2253602200533138e-05 0.0000000000000000e+00  -8.9044022865581286e-04 -2.4468679760961624e-05 0.0000000000000000e+00  -1.0571863633433878e-03 -2.3947703632895909e-05 0.0000000000000000e+00  -1.2393847792473666e-03 -1.7542740869234741e-05 0.0000000000000000e+00  0.0000000000000000e+00 0.0000000000000000e+00 0.0000000000000000e+00  -2.2073099538773237e-05 -6.9140081700270189e-07 0.0000000000000000e+00  -4.5071418598298835e-05 -1.4180510028031422e-06 0.0000000000000000e+00  -6.9962777573461137e-05 -2.2177154383524223e-06 0.0000000000000000e+00  -9.7807920151982109e-05 -3.1334957690685194e-06 0.0000000000000000e+00  -1.2981287313558533e-04 -4.2170938294968121e-06 0.0000000000000000e+00  -1.6738803483321360e-04 -5.5327950487462839e-06 0.0000000000000000e+00  -2.1221468085105645e-04 -7.1623682088658778e-06 0.0000000000000000e+00  -2.6631664604144696e-04 -9.2108557159512804e-06 0.0000000000000000e+00  -3.3212854726047793e-04 -1.1812496627183911e-05 0.0000000000000000e+00  -4.1253913698442507e-04 -1.5133886455148652e-05 0.0000000000000000e+00  -5.1086520454728915e-04 -1.9365628637163255e-05 0.0000000000000000e+00  -6.3067495663761462e-04 -2.4678664586623130e-05 0.0000000000000000e+00  -7.7533760902671986e-04 -3.1086039054268906e-05 0.0000000000000000e+00  -9.4717483183154674e-04 -3.8082664948319143e-05 0.0000000000000000e+00  -1.1462695675429836e-03 -4.3872767099442922e-05 0.0000000000000000e+00  -1.3694879824391027e-03 -4.4174388994448009e-05 0.0000000000000000e+00  0.0000000000000000e+00 0.0000000000000000e+00 0.0000000000000000e+00  -2.0173953950875807e-05 -6.5731506283318845e-07 0.0000000000000000e+00  -4.1233906068792873e-05 -1.3522199893072192e-06 0.0000000000000000e+00  -6.4112260399094078e-05 -2.1255665509636728e-06 0.0000000000000000e+00  -8.9846148207705460e-05 -3.0253462034519248e-06 0.0000000000000000e+00  -1.1964020785619656e-04 -4.1114149430362943e-06 0.0000000000000000e+00  -1.5494289202504677e-04 -5.4618222535743731e-06 0.0000000000000000e+00  -1.9754147711744101e-04 -7.1816772674931672e-06 0.0000000000000000e+00  -2.4968011677847486e-04 -9.4159062268886784e-06 0.0000000000000000e+00  -3.1420115187701689e-04 -1.2367809078319655e-05 0.0000000000000000e+00  -3.9469771282791020e-04 -1.6325658761599646e-05 0.0000000000000000e+00  -4.9563601890818940e-04 -2.1697927126789734e-05 0.0000000000000000e+00  -6.2234273015818599e-04 -2.9047017698682324e-05 0.0000000000000000e+00  -7.8063828212002737e-04 -3.9067142478926007e-05 0.0000000000000000e+00  -9.7575230932136743e-04 -5.2301270354761825e-05 0.0000000000000000e+00  -1.2102488258351402e-03 -6.8008917361189050e-05 0.0000000000000000e+00  -1.4818176405010357e-03 -8.1722274160554340e-05 0.0000000000000000e+00  0.0000000000000000e+00 0.0000000000000000e+00 0.0000000000000000e+00  -1.7394179617754758e-05 -5.8577031868253298e-07 0.0000000000000000e+00  -3.5584651434121710e-05 -1.2081047757910712e-06 0.0000000000000000e+00  -5.5414310732851005e-05 -1.9071511698753608e-06 0.0000000000000000e+00  -7.7833866292110256e-05 -2.7310438565549053e-06 0.0000000000000000e+00  -1.0397002090797434e-04 -3.7414100519399914e-06 0.0000000000000000e+00  -1.3521353554797418e-04 -5.0210713277406430e-06 0.0000000000000000e+00  -1.7333776785752713e-04 -6.6854291915634998e-06 0.0000000000000000e+00  -2.2066152228505435e-04 -8.9000590863578525e-06 0.0000000000000000e+00  -2.8027254408311995e-04 -1.1909098198086046e-05 0.0000000000000000e+00  -3.5632510551745849e-04 -1.6083207859543767e-05 0.0000000000000000e+00  -4.5440392669290826e-04 -2.2004173761137489e-05 0.0000000000000000e+00  -5.8187490936148902e-04 -3.0616855843834393e-05 0.0000000000000000e+00  -7.4794928423570109e-04 -4.3485214941772037e-05 0.0000000000000000e+00  -9.6274093378809103e-04 -6.3078327289803205e-05 0.0000000000000000e+00  -1.2338908080819404e-03 -9.2093000124495196e-05 0.0000000000000000e+00  -1.5631752472221501e-03 -1.2495636052130713e-04 0.0000000000000000e+00  0.0000000000000000e+00 0.0000000000000000e+00 0.0000000000000000e+00  -1.3824122842312520e-05 -4.7783609784358391e-07 0.0000000000000000e+00  -2.8303376392570936e-05 -9.8748053328861766e-07 0.0000000000000000e+00  -4.4134870921560125e-05 -1.5641063793103577e-06 0.0000000000000000e+00  -6.2114587358574113e-05 -2.2504632063273766e-06 0.0000000000000000e+00  -8.3202786617930156e-05 -3.1021940734537718e-06 0.0000000000000000e+00  -1.0861280987922408e-04 -4.1953785621398609e-06 0.0000000000000000e+00  -1.3993833153398162e-04 -5.6378140559257226e-06 0.0000000000000000e+00  -1.7934246751242797e-04 -7.5866207072741636e-06 0.0000000000000000e+00  -2.2984507085716517e-04 -1.0277077200577220e-05 0.0000000000000000e+00  -2.9576218048786449e-04 -1.4073285225182435e-05 0.0000000000000000e+00  -3.8336752696869195e-04 -1.9566804317420652e-05 0.0000000000000000e+00  -5.0182953842782432e-04 -2.7794428630396806e-05 0.0000000000000000e+00  -6.6431902121833744e-04 -4.0777186383965661e-05 0.0000000000000000e+00  -8.8851685123226773e-04 -6.2948110024087437e-05 0.0000000000000000e+00  -1.1930308900722640e-03 -1.0499567946042874e-04 0.0000000000000000e+00  -1.5673752069352354e-03 -1.9402853688126905e-04 0.0000000000000000e+00  0.0000000000000000e+00 0.0000000000000000e+00 0.0000000000000000e+00  -9.6046912761516280e-06 -3.3827809957904593e-07 0.0000000000000000e+00  -1.9676580032207854e-05 -7.0008545419549504e-07 0.0000000000000000e+00  -3.0714901678112638e-05 -1.1115554404737218e-06 0.0000000000000000e+00  -4.3295283760372273e-05 -1.6047148281741507e-06 0.0000000000000000e+00  -5.8122103363576707e-05 -2.2216249268889920e-06 0.0000000000000000e+00  -7.6102369852243339e-05 -3.0202081630997542e-06 0.0000000000000000e+00  -9.8456879141815438e-05 -4.0827286255496031e-06 0.0000000000000000e+00  -1.2689584221623707e-04 -5.5282247803025462e-06 0.0000000000000000e+00  -1.6390768779478917e-04 -7.5304790013124557e-06 0.0000000000000000e+00  -2.1324999119216666e-04 -1.0343268815651763e-05 0.0000000000000000e+00  -2.8080521823041407e-04 -1.4336039715632844e-05 0.0000000000000000e+00  -3.7609047000300265e-04 -2.0057582969906701e-05 0.0000000000000000e+00  -5.1489766490842102e-04 -2.8439670483546169e-05 0.0000000000000000e+00  -7.2375912744521956e-04 -4.1733299735336203e-05 0.0000000000000000e+00  -1.0473882301508452e-03 -6.7834747587762706e-05 0.0000000000000000e+00  -1.5652232021852014e-03 -1.3770257284103374e-04 0.0000000000000000e+00  0.0000000000000000e+00 0.0000000000000000e+00 0.0000000000000000e+00  -4.9226634532321486e-06 -1.7534700523388174e-07 0.0000000000000000e+00  -1.0088707980271982e-05 -3.6320581270994790e-07 0.0000000000000000e+00  -1.5758931822414610e-05 -5.7750578628250222e-07 0.0000000000000000e+00  -2.2235972350201603e-05 -8.3539006196280417e-07 0.0000000000000000e+00  -2.9893663659633867e-05 -1.1594590096741450e-06 0.0000000000000000e+00  -3.9219544444772257e-05 -1.5808648865699472e-06 0.0000000000000000e+00  -5.0880940795810926e-05 -2.1435782852631748e-06 0.0000000000000000e+00  -6.5833843963043268e-05 -2.9097770867380556e-06 0.0000000000000000e+00  -8.5511936310583565e-05 -3.9644685137343813e-06 0.0000000000000000e+00  -1.1217139842045740e-04 -5.4101562895622059e-06 0.0000000000000000e+00  -1.4954789633565054e-04 -7.3153328424763726e-06 0.0000000000000000e+00  -2.0413868543069154e-04 -9.4835386811470034e-06 0.0000000000000000e+00  -2.8760785303152476e-04 -1.0578526643540314e-05 0.0000000000000000e+00  -4.2016496908478458e-04 -5.1890752019986715e-06 0.0000000000000000e+00  -6.2791684306041224e-04 2.3603090530481299e-05 0.0000000000000000e+00  -9.0156792239322423e-04 1.0699388744870968e-04 0.0000000000000000e+00  0.0000000000000000e+00 0.0000000000000000e+00 0.0000000000000000e+00  0.0000000000000000e+00 0.0000000000000000e+00 0.0000000000000000e+00  0.0000000000000000e+00 0.0000000000000000e+00 0.0000000000000000e+00  0.0000000000000000e+00 0.0000000000000000e+00 0.0000000000000000e+00  0.0000000000000000e+00 0.0000000000000000e+00 0.0000000000000000e+00  0.0000000000000000e+00 0.0000000000000000e+00 0.00000000