<?xml version="1.0"?>
<VTKFile type="UnstructuredGrid"  version="0.1"  >
<UnstructuredGrid>
<Piece  NumberOfPoints="289" NumberOfCells="512">
<Points>
<DataArray  type="Float64"  NumberOfComponents="3"  format="ascii">0 0 0  0.0625 0 0  0.125 0 0  0.1875 0 0  0.25 0 0  0.3125 0 0  0.375 0 0  0.4375 0 0  0.5 0 0  0.5625 0 0  0.625 0 0  0.6875 0 0  0.75 0 0  0.8125 0 0  0.875 0 0  0.9375 0 0  1 0 0  0 0.0625 0  0.06255284290858056 0.06249546500904463 0  0.1251073085184475 0.06249083095365034 0  0.1876650379837046 0.06248600347043684 0  0.2502276914414228 0.06248089893913643 0  0.3127969475581497 0.06247545153110352 0  0.3753744910881955 0.06246962183387222 0  0.4379619862332779 0.06246340648722971 0  0.5005610380291802 0.06245684651488232 0  0.5631731557534446 0.0624500283427384 0  0.6257997629273644 0.06244306360313806 0  0.6884423805702875 0.06243601598027741 0  0.7511033439542899 0.06242869881783196 0  0.8137881188963465 0.06242014192169439 0  0.8765125100586747 0.06240713675452055 0  0.9393251614830613 0.06238005256763681 0  1.002377221271041 0.06231193119266213 0  0 0.125 0  0.06260407408844625 0.12499102934502 0  0.1252113893930379 0.1249818554141713 0  0.1878252293035499 0.1249722835946894 0  0.2504489276807897 0.12496213933837 0  0.3130858751175216 0.1249512819423521 0  0.3757395017181697 0.1249396222665986 0  0.4384132304857701 0.1249271441952801 0  0.5011104009081832 0.1249139271692634 0  0.563834176212818 0.1249001620777857 0  0.6265874787817819 0.1248861431790871 0  0.6893730612497165 0.1248722017665572 0  0.7521939298828765 0.1248585223841743 0  0.8150544376948273 0.1248447691061123 0  0.8779619566892063 0.1248295765800707 0  0.9409254310520245 0.1248108359581145 0  1.003928710834771 0.1247914890481823 0  0 0.1875 0  0.06265207453970617 0.1874867974643159 0  0.1253089873386624 0.187473278054097 0  0.1879756507542902 0.1874591359705101 0  0.2506570790552244 0.1874440917285455 0  0.3133584123625708 0.1874279116722636 0  0.3760849056605977 0.1874104349122036 0  0.4388418704522372 0.1873916092268224 0  0.5016345586646254 0.1873715355298877 0  0.5644679846315277 0.1873505163005627 0  0.6273466924215294 0.1873290952511265 0  0.6902744857135227 0.1873080613354328 0  0.753254107964957 0.187288367717553 0  0.8162866557010019 0.1872708808546709 0  0.8793697549393794 0.1872557893408756 0  0.9424916270160788 0.1872410924803648 0  1.005616391788888 0.1872172979955764 0  0 0.25 0  0.06269525013111607 0.2499828831436627 0  0.1253968870684138 0.2499653238092069 0  0.1881114143005479 0.2499468904925776 0  0.2508455152961293 0.2499271790778181 0  0.3136061106403215 0.2499058357485649 0  0.3764003705547018 0.2498825915769977 0  0.4392356623774417 0.2498573132792888 0  0.5021194086530391 0.2498300743745742 0  0.5650588268817934 0.2498012493971556 0  0.6280605136400276 0.2497716295644261 0  0.6911298116369973 0.2497425493909018 0  0.7542698240256488 0.2497159972720544 0  0.8174797418418992 0.2496946546082543 0  0.8807517350095003 0.2496817617661667 0  0.9440651540280591 0.2496806703330223 0  1.007377342621057 0.2496942994586078 0  0 0.3125 0  0.06273205659588357 0.3124794121017107 0  0.1254719601148245 0.3124582441165544 0  0.1882277289774231 0.3124359233092942 0  0.2510076712024008 0.3124118979083036 0  0.3138204948856544 0.3123856591968453 0  0.3766753694925946 0.3123567792836162 0  0.4395819107071949 0.3123249725681089 0  0.5025500514810061 0.3122901912086904 0  0.5655897477433199 0.3122527673381712 0  0.6287104459894071 0.3122136164529675 0  0.6919202048512612 0.3121745153411096 0  0.7552243025352053 0.3121384602656702 0  0.8186230736431288 0.3121100910148329 0  0.8821086724616908 0.3120961314451464 0  0.9456607970544416 0.3121057781827309 0  1.009243106390098 0.3121511149383577 0  0 0.375 0  0.06276103734559182 0.3749765220043157 0  0.1255312382930164 0.3749523179556781 0  0.1883200049641666 0.3749266612219149 0  0.2511371716062717 0.3748988302509441 0  0.3139931917529679 0.3748681236462125 0  0.3768992806404651 0.3748338931754508 0  0.4398674827705054 0.374795605820513 0  0.5029106194252271 0.3747529512136959 0  0.566042049523645 0.3747060182175075 0  0.6292751477148139 0.3746555739468532 0  0.6926223648672242 0.3746034886759466 0  0.7560936921705474 0.3745533554533231 0  0.8196943261232928 0.3745113403831893 0  0.8834214148279449 0.3744872410587594 0  0.9472601669849479 0.3744955797393535 0  1.011180609846003 0.3745562258225199 0  0 0.4375 0  0.06278087696063991 0.4374743588172891 0  0.1255720203216281 0.437447845355341 0  0.188384011797533 0.4374195743026276 0  0.2512280363418762 0.4373886393083658 0  0.314116169270474 0.437354113438913 0  0.3770616354857417 0.4373150664519301 0  0.4400790143773944 0.4372706113822101 0  0.5031843461663972 0.4372200007971012 0  0.5663950696645282 0.4371628055730795 0  0.6297296861738424 0.437099227922893 0  0.6932069999071143 0.4370306266009574 0  0.756844737833163 0.436960362491254 0  0.820657321144851 0.4368950914261002 0  0.8846525940275458 0.4368465941568026 0  0.9488274908618389 0.4368340519801039 0  1.013162968802807 0.4368862432705359 0  0 0.5 0  0.06279047120644785 0.4999730687057967 0  0.1255920142362673 0.4999451314039057 0  0.1884160972685864 0.4999151527896313 0  0.2512749795822058 0.4998820414126341 0  0.314182116921877 0.4998446278522893 0  0.377152570115445 0.499801653970647 0  0.4402034028061491 0.4997517841186541 0  0.5033540373093214 0.4996936582673033 0  0.5666265121928584 0.4996260230062026 0  0.6300455492826813 0.4995480037240295 0  0.6936382903424363 0.4994596264429359 0  0.757433504031864 0.4993627669669596 0  0.8214599873334777 0.4992627947630713 0  0.8857437728454717 0.4991712465432171 0  0.9503035603034283 0.4991097625396455 0  1.015143492601499 0.4991149252128916 0  0 0.5625 0  0.06278901133349862 0.5624727852750718 0  0.125589511925726 0.5624444599972354 0  0.1884134637939673 0.5624138660914753 0  0.2512738043864255 0.5623797490916016 0  0.3141849773046532 0.5623407083408324 0  0.3771635110657773 0.5622951476321135 0  0.4402286537171672 0.5622412316730463 0  0.5034030605684159 0.5621768614476119 0  0.5667135152927978 0.5620996968093847 0  0.630191640151169 0.5620072846339111 0  0.6938745192677371 0.5618974091135299 0  0.7578051163162475 0.5617688911600263 0  0.8220322835919238 0.5616232606450395 0  0.8866099073125853 0.5614680249962907 0  0.9515939970023085 0.5613225271688751 0  1.017034913468933 0.5612270009133721 0  0 0.625 0  0.06277607643682243 0.6249736128951209 0  0.125563583731654 0.6249460585906267 0  0.1883744854021313 0.6249161051184363 0  0.2512218731313813 0.6248823851638395 0  0.3141206122825674 0.6248433168822358 0  0.3770880895605403 0.624797010899928 0  0.4401451013550852 0.6247411597409309 0  0.503316923545583 0.6246729087980329 0  0.5666346056341757 0.6245887160070458 0  0.6301365378192487 0.6244842278021778 0  0.6938703613170792 0.6243542487957693 0  0.7578953521498809 0.6241930023881952 0  0.8222855047811279 0.6239951611604961 0  0.88713347027658 0.623758748103167 0  0.9525543449861656 0.6234921442518019 0  1.018683890501678 0.6232283738766591 0  0 0.6875 0  0.06275172330499394 0.6874756080141148 0  0.1255142716038448 0.6874500578190207 0  0.1882990323756688 0.6874221137820477 0  0.2511186093711659 0.6873903754092708 0  0.3139875492605434 0.6873531735547024 0  0.3769232251251591 0.6873084379650448 0  0.4399469509819757 0.6872535214648718 0  0.5030854225591354 0.6871849614363341 0  0.566372611006397 0.6870981538251697 0  0.6298522906673748 0.6869869111772851 0  0.6935814979639111 0.6868428834182315 0  0.7576354988834169 0.6866548707310269 0  0.8221154997398298 0.6864082635613495 0  0.8871615305424237 0.6860855713243281 0  0.9529733697690507 0.6856712696602749 0  1.019834595229913 0.6851689306764879 0  0 0.75 0  0.06271655938229923 0.7499787614676005 0  0.1254427506245573 0.7499564524222799 0  0.1881887548003913 0.7499319203859278 0  0.2509659601088956 0.7499038360956267 0  0.3137877105671313 0.7498705766765444 0  0.3766702538396249 0.7498300689250351 0  0.4396339955027631 0.749779568636216 0  0.5027052099249973 0.7497153396461738 0  0.5659184242483355 0.7496321760559802 0  0.6293198019837606 0.7495226774055156 0  0.6929720693128959 0.7493761292500614 0  0.7569620598217273 0.7491767449010557 0  0.8214134734321381 0.7489008854324211 0  0.8865117948781371 0.7485128708032843 0  0.9525583285992715 0.7479606051107101 0  1.020071562904288 0.7471859768155273 0  0 0.8125 0  0.06267178242070111 0.812482985468378 0  0.1253514233982597 0.8124650716238671 0  0.1880472649984909 0.8124452832367453 0  0.2507687255020163 0.8124224798712119 0  0.3135269886892532 0.8123952430341225 0  0.3763359066368002 0.8123617198704932 0  0.439213242808085 0.812319395180978 0  0.5021824440195379 0.8122647470909279 0  0.5652752276116308 0.8121927133026551 0  0.6285354258345499 0.8120958444985865 0  0.6920247980340202 0.8119629268847542 0  0.7558321037229017 0.8117766612056626 0  0.8200885091271273 0.8115095359869141 0  0.8849993707595231 0.8111158663443198 0  0.9509319214120858 0.8105145230029557 0  1.018713660218529 0.8095435052736638 0  0 0.875 0  0.06261917141470184 0.8749881088628084 0  0.1252439127967043 0.874975567107512 0  0.1878801573026317 0.8749616654136336 0  0.2505346540297337 0.8749455659458802 0  0.3132155045769722 0.8749262125999611 0  0.3759328856849908 0.8749022041146396 0  0.4387000775735868 0.8748716050105747 0  0.501534985235462 0.8748316541115737 0  0.5644624503502227 0.8747783046561604 0  0.6275178233968133 0.8747054869763954 0  0.6907525136433813 0.8746039131733965 0  0.7542425669204699 0.8744591208664396 0  0.8181019286689253 0.8742482224808068 0  0.8825052412050223 0.8739343889496846 0  0.9477511382669301 0.8734584595263071 0  1.014633583871994 0.8727461973640979 0  0 0.9375 0  0.06256101843456374 0.9374938831720013 0  0.1251249282723737 0.937487424503209 0  0.1876948168801045 0.9374802500653046 0  0.250274214537705 0.9374719154271784 0  0.3128673914364326 0.9374618557450379 0  0.3754797661290406 0.9374493143239555 0  0.4381185016686724 0.93
[...]
<PointData  Vectors="f_54"> 
<DataArray  type="Float64"  Name="f_54"  NumberOfComponents="3" format="ascii">0.0000000000000000e+00 0.0000000000000000e+00 0.0000000000000000e+00  0.0000000000000000e+00 0.0000000000000000e+00 0.0000000000000000e+00  0.0000000000000000e+00 0.0000000000000000e+00 0.0000000000000000e+00  0.0000000000000000e+00 0.0000000000000000e+00 0.0000000000000000e+00  0.0000000000000000e+00 0.0000000000000000e+00 0.0000000000000000e+00  0.0000000000000000e+00 0.0000000000000000e+00 0.0000000000000000e+00  0.0000000000000000e+00 0.0000000000000000e+00 0.0000000000000000e+00  0.0000000000000000e+00 0.0000000000000000e+00 0.0000000000000000e+00  0.0000000000000000e+00 0.0000000000000000e+00 0.0000000000000000e+00  0.0000000000000000e+00 0.0000000000000000e+00 0.0000000000000000e+00  0.0000000000000000e+00 0.0000000000000000e+00 0.0000000000000000e+00  0.0000000000000000e+00 0.0000000000000000e+00 0.0000000000000000e+00  0.0000000000000000e+00 0.0000000000000000e+00 0.0000000000000000e+00  0.0000000000000000e+00 0.0000000000000000e+00 0.0000000000000000e+00  0.0000000000000000e+00 0.0000000000000000e+00 0.0000000000000000e+00  0.0000000000000000e+00 0.0000000000000000e+00 0.0000000000000000e+00  0.0000000000000000e+00 0.0000000000000000e+00 0.0000000000000000e+00  0.0000000000000000e+00 0.0000000000000000e+00 0.0000000000000000e+00  2.7283253975947136e-06 -6.5256726971406248e-08 0.0000000000000000e+00  5.5519254042780762e-06 -1.3414952461304964e-07 0.0000000000000000e+00  8.5690478928245198e-06 -2.1059350187118866e-07 0.0000000000000000e+00  1.1883065705793538e-05 -2.9906122702363358e-07 0.0000000000000000e+00  1.5605190869970224e-05 -4.0491414701076081e-07 0.0000000000000000e+00  1.9857472509523441e-05 -5.3480272479191575e-07 0.0000000000000000e+00  2.4776515557463584e-05 -6.9717708060860720e-07 0.0000000000000000e+00  3.0518991160060542e-05 -9.0299238243339719e-07 0.0000000000000000e+00  3.7271587821443115e-05 -1.1668185148205022e-06 0.0000000000000000e+00  4.5272146418982214e-05 -1.5089451923748992e-06 0.0000000000000000e+00  5.4859988907350205e-05 -1.9602902355322170e-06 0.0000000000000000e+00  6.6606758325962631e-05 -2.5760290169784016e-06 0.0000000000000000e+00  8.1685486479677358e-05 -3.4786765985994146e-06 0.0000000000000000e+00  1.0300281805121002e-04 -5.0082702769990747e-06 0.0000000000000000e+00  1.3898710407518418e-04 -8.2899982195644600e-06 0.0000000000000000e+00  2.1748641876693665e-04 -1.7553608074029971e-05 0.0000000000000000e+00  0.0000000000000000e+00 0.0000000000000000e+00 0.0000000000000000e+00  5.3656930930797833e-06 -1.2698293179592836e-07 0.0000000000000000e+00  1.0920068617279856e-05 -2.6099320566605905e-07 0.0000000000000000e+00  1.6857744112237754e-05 -4.0959889464226705e-07 0.0000000000000000e+00  2.3383638538351890e-05 -5.8145109499498738e-07 0.0000000000000000e+00  3.0718316309950603e-05 -7.8692670355654408e-07 0.0000000000000000e+00  3.9103657943993302e-05 -1.0388966886410468e-06 0.0000000000000000e+00  4.8809368085577900e-05 -1.3536771521596388e-06 0.0000000000000000e+00  6.0141540571935060e-05 -1.7522508612647085e-06 0.0000000000000000e+00  7.3456113272942291e-05 -2.2619245849318092e-06 0.0000000000000000e+00  8.9183632540608911e-05 -2.9187700034222972e-06 0.0000000000000000e+00  1.0787944929471348e-04 -3.7715429115191454e-06 0.0000000000000000e+00  1.3032860352860253e-04 -4.8880017901441137e-06 0.0000000000000000e+00  1.5775643346442605e-04 -6.3617647011707733e-06 0.0000000000000000e+00  1.9217874254233531e-04 -8.2939723672881639e-06 0.0000000000000000e+00  2.3653826362324319e-04 -1.0579296713977481e-05 0.0000000000000000e+00  2.9159122637321738e-04 -1.1534787751089394e-05 0.0000000000000000e+00  0.0000000000000000e+00 0.0000000000000000e+00 0.0000000000000000e+00  7.8183264411162077e-06 -1.8178160221649034e-07 0.0000000000000000e+00  1.5914323855166114e-05 -3.7348448227699977e-07 0.0000000000000000e+00  2.4574496916346676e-05 -5.8579432577704222e-07 0.0000000000000000e+00  3.4100872753430183e-05 -8.3093542711329599e-07 0.0000000000000000e+00  4.4818862455192648e-05 -1.1235862079291350e-06 0.0000000000000000e+00  5.7085205223573615e-05 -1.4819680493392892e-06 0.0000000000000000e+00  7.1296175161473531e-05 -1.9291624168499968e-06 0.0000000000000000e+00  8.7896509272217821e-05 -2.4947002585432229e-06 0.0000000000000000e+00  1.0739006762191761e-04 -3.2164369351884979e-06 0.0000000000000000e+00  1.3035408029410774e-04 -4.1426377560631210e-06 0.0000000000000000e+00  1.5745930545241107e-04 -5.3339228368063120e-06 0.0000000000000000e+00  1.8949495338109666e-04 -6.8638345599230092e-06 0.0000000000000000e+00  2.2737617061685856e-04 -8.8142316823220993e-06 0.0000000000000000e+00  2.7203053013006906e-04 -1.1256723605762232e-05 0.0000000000000000e+00  3.2382111190648773e-04 -1.4219636829684153e-05 0.0000000000000000e+00  3.8076732401156065e-04 -1.7821980680318583e-05 0.0000000000000000e+00  0.0000000000000000e+00 0.0000000000000000e+00 0.0000000000000000e+00  9.9969975591446490e-06 -2.2675795996390291e-07 0.0000000000000000e+00  2.0353641906629860e-05 -4.6561551783107485e-07 0.0000000000000000e+00  3.1441245125222447e-05 -7.2960310471924289e-07 0.0000000000000000e+00  4.3652013970205941e-05 -1.0336401105117796e-06 0.0000000000000000e+00  5.7409466121220545e-05 -1.3956721485757624e-06 0.0000000000000000e+00  7.3178581830411849e-05 -1.8380353444148235e-06 0.0000000000000000e+00  9.1475373439552137e-05 -2.3891088670988206e-06 0.0000000000000000e+00  1.1287527086475007e-04 -3.0852751523280537e-06 0.0000000000000000e+00  1.3801914050509142e-04 -3.9731016082322675e-06 0.0000000000000000e+00  1.6761437234885716e-04 -5.1114174829171541e-06 0.0000000000000000e+00  2.0242488456124260e-04 -6.5724523352944284e-06 0.0000000000000000e+00  2.4323455771865950e-04 -8.4402221424552626e-06 0.0000000000000000e+00  2.9074578466141367e-04 -1.0802785444012624e-05 0.0000000000000000e+00  3.4532657815094776e-04 -1.3733788220875507e-05 0.0000000000000000e+00  4.0644819327078356e-04 -1.7262341257719110e-05 0.0000000000000000e+00  4.7166384358777791e-04 -2.1339195933233254e-05 0.0000000000000000e+00  0.0000000000000000e+00 0.0000000000000000e+00 0.0000000000000000e+00  1.1819661477309315e-05 -2.5973709927067460e-07 0.0000000000000000e+00  2.4071259312297167e-05 -5.3287063317714900e-07 0.0000000000000000e+00  3.7201176432788679e-05 -8.3381822257125310e-07 0.0000000000000000e+00  5.1682352001215987e-05 -1.1790943884806411e-06 0.0000000000000000e+00  6.8027517179600067e-05 -1.5886023264021256e-06 0.0000000000000000e+00  8.6801994234467702e-05 -2.0872227817078727e-06 0.0000000000000000e+00  1.0863536027616982e-04 -2.7067968893514027e-06 0.0000000000000000e+00  1.3423057714113376e-04 -3.4885617596185689e-06 0.0000000000000000e+00  1.6436792205205058e-04 -4.4859841021545175e-06 0.0000000000000000e+00  1.9989871196931619e-04 -5.7676688579916501e-06 0.0000000000000000e+00  2.4171945540824854e-04 -7.4194696630525953e-06 0.0000000000000000e+00  2.9070921224073361e-04 -9.5439401081087324e-06 0.0000000000000000e+00  3.4760037988941603e-04 -1.2253769152700907e-05 0.0000000000000000e+00  4.1273940288207684e-04 -1.5654093786948344e-05 0.0000000000000000e+00  4.8570227078900707e-04 -1.9806834513655891e-05 0.0000000000000000e+00  5.6483440950127637e-04 -2.4664139993642837e-05 0.0000000000000000e+00  0.0000000000000000e+00 0.0000000000000000e+00 0.0000000000000000e+00  1.3214154851886635e-05 -2.7942820952571065e-07 0.0000000000000000e+00  2.6920052031246177e-05 -5.7257330229195220e-07 0.0000000000000000e+00  4.1626599307385529e-05 -8.9416922099839921e-07 0.0000000000000000e+00  5.7875247895390451e-05 -1.2610709093367883e-06 0.0000000000000000e+00  7.6256474480168449e-05 -1.6936051335012521e-06 0.0000000000000000e+00  9.7426065347056934e-05 -2.2172982458289825e-06 0.0000000000000000e+00  1.2212042682551981e-04 -2.8651469490736112e-06 0.0000000000000000e+00  1.5116926773881236e-04 -3.6806071543944843e-06 0.0000000000000000e+00  1.8550250767400075e-04 -4.7214327444795422e-06 0.0000000000000000e+00  2.2614581818626304e-04 -6.0643222558766584e-06 0.0000000000000000e+00  2.7419542244119056e-04 -7.8098856466194295e-06 0.0000000000000000e+00  3.3075760566223704e-04 -1.0086507712014892e-05 0.0000000000000000e+00  3.9683326933880069e-04 -1.3050009394918817e-05 0.0000000000000000e+00  4.7312862311507718e-04 -1.6873509885668985e-05 0.0000000000000000e+00  5.5979456806817427e-04 -2.1719244480896658e-05 0.0000000000000000e+00  6.5616236005820521e-04 -2.7684980433117140e-05 0.0000000000000000e+00  0.0000000000000000e+00 0.0000000000000000e+00 0.0000000000000000e+00  1.4120998249519574e-05 -2.8551724221273087e-07 0.0000000000000000e+00  2.8778146072948474e-05 -5.8409049377185546e-07 0.0000000000000000e+00  4.4527327737346799e-05 -9.0967939620018730e-07 0.0000000000000000e+00  6.1963097954960999e-05 -1.2781650684790408e-06 0.0000000000000000e+00  8.1738819586285540e-05 -1.7086249413428480e-06 0.0000000000000000e+00  1.0458737294418356e-04 -2.2250456077445261e-06 0.0000000000000000e+00  1.3134196409275887e-04 -2.8587257095262682e-06 0.0000000000000000e+00  1.6295572537057250e-04 -3.6517165770169038e-06 0.0000000000000000e+00  2.0051740058691620e-04 -4.6617550952311945e-06 0.0000000000000000e+00  2.4525819916183014e-04 -5.9692075363910656e-06 0.0000000000000000e+00  2.9854174396596212e-04 -7.6864220948248692e-06 0.0000000000000000e+00  3.6182526423318408e-04 -9.9692602705030059e-06 0.0000000000000000e+00  4.3657744335568702e-04 -1.3028818385718086e-05 0.0000000000000000e+00  5.2414076586148207e-04 -1.7137444123094186e-05 0.0000000000000000e+00  6.2554043861094580e-04 -2.2615845667293516e-05 0.0000000000000000e+00  7.4127000674060865e-04 -2.9776342893907472e-05 0.0000000000000000e+00  0.0000000000000000e+00 0.0000000000000000e+00 0.0000000000000000e+00  1.4496291365260603e-05 -2.7866958513223669e-07 0.0000000000000000e+00  2.9554814211234905e-05 -5.6885421166535517e-07 0.0000000000000000e+00  4.5759767268209816e-05 -8.8274553363784613e-07 0.0000000000000000e+00  6.3739815607274055e-05 -1.2340115270990242e-06 0.0000000000000000e+00  8.4192041218878757e-05 -1.6388215861835368e-06 0.0000000000000000e+00  1.0790774969231444e-04 -2.1173059098474486e-06 0.0000000000000000e+00  1.3580034133431936e-04 -2.6957655280838728e-06 0.0000000000000000e+00  1.6893486789851052e-04 -3.4101493521696514e-06 0.0000000000000000e+00  2.0855782717904060e-04 -4.3116304825392218e-06 0.0000000000000000e+00  2.5612393797356094e-04 -5.4755692770717487e-06 0.0000000000000000e+00  3.1331384632767614e-04 -7.0156951142448352e-06 0.0000000000000000e+00  3.8203297970432058e-04 -9.1056805989699011e-06 0.0000000000000000e+00  4.6437799269914617e-04 -1.2009519428165291e-05 0.0000000000000000e+00  5.6255605701773089e-04 -1.6118126023564340e-05 0.0000000000000000e+00  6.7874799354749693e-04 -2.1978510437861977e-05 0.0000000000000000e+00  8.1492026151658477e-04 -3.0279317732761006e-05 0.0000000000000000e+00  0.0000000000000000e+00 0.0000000000000000e+00 0.0000000000000000e+00  1.4314591966567881e-05 -2.6042718885499402e-07 0.0000000000000000e+00  2.9196466614547819e-05 -5.3016192663832623e-07 0.0000000000000000e+00  4.5236488812473251e-05 -8.1886303114443166e-07 0.0000000000000000e+00  6.3074712896427030e-05 -1.1369936132889722e-06 0.0000000000000000e+00  8.3427818976543821e-05 -1.4964074122706183e-06 0.0000000000000000e+00  1.0712005406913494e-04 -1.9112528088668770e-06 0.0000000000000000e+00  1.3511888357699230e-04 -2.3994997532303442e-06 0.0000000000000000e+00  1.6857642756941727e-04 -2.9856697422233230e-06 0.0000000000000000e+00  2.0887730631738498e-04 -3.7058608189643571e-06 0.0000000000000000e+00  2.5769242081877280e-04 -4.6170771253013194e-06 0.0000000000000000e+00  3.1703591897707723e-04 -5.8144170584417019e-06 0.0000000000000000e+00  3.8931845809105694e-04 -7.4619772695187860e-06 0.0000000000000000e+00  4.7738341665607803e-04 -9.8458841460013763e-06 0.0000000000000000e+00  5.8450508709629982e-04 -1.3458020646215388e-05 0.0000000000000000e+00  7.1432496305901970e-04 -1.9109234749116795e-05 0.0000000000000000e+00  8.7071764238947670e-04 -2.8038267252453872e-05 0.0000000000000000e+00  0.0000000000000000e+00 0.0000000000000000e+00 0.0000000000000000e+00  1.3571546660766394e-05 -2.3299450086241985e-07 0.0000000000000000e+00  2.7692263052821772e-05 -4.7273520848816935e-07 0.0000000000000000e+00  4.2935561696005661e-05 -7.2593787672145065e-07 0.0000000000000000e+00  5.9926777454586524e-05 -9.9930390578953549e-07 0.0000000000000000e+00  7.9373102530596955e-05 -1.2995136353189028e-06 0.0000000000000000e+00  1.0209875954426515e-04 -1.6332841244154901e-06 0.0000000000000000e+00  1.2908779972651695e-04 -2.0076609555072353e-06 0.0000000000000000e+00  1.6153745291482848e-04 -2.4309662427837264e-06 0.0000000000000000e+00  2.0092551398034658e-04 -2.9153815001854548e-06 0.0000000000000000e+00  2.4909552415692518e-04 -3.4833397981349716e-06 0.0000000000000000e+00  3.0836275516577335e-04 -4.1823935394736840e-06 0.0000000000000000e+00  3.8164066625011057e-04 -5.1181680480860269e-06 0.0000000000000000e+00  4.7257887205504951e-04 -6.5239345967195274e-06 0.0000000000000000e+00  5.8568688243985304e-04 -8.8982138484016944e-06 0.0000000000000000e+00  7.2639697971259255e-04 -1.3248583455176132e-05 0.0000000000000000e+00  9.0103070554087977e-04 -2.1436328012900105e-05 0.0000000000000000e+00  0.0000000000000000e+00 0.0000000000000000e+00 0.0000000000000000e+00  1.2285929447247729e-05 -1.9892664377800537e-07 0.0000000000000000e+00  2.5078612692065292e-05 -4.0205591492313371e-07 0.0000000000000000e+00  3.8908425766168667e-05 -6.1319034010878912e-07 0.0000000000000000e+00  5.4357484654756508e-05 -8.3529962566130052e-07 0.0000000000000000e+00  7.2090367034078365e-05 -1.0698690097119802e-06 0.0000000000000000e+00  9.2891503647029154e-05 -1.3159531786094889e-06 0.0000000000000000e+00  1.1771276453686277e-04 -1.5688363670823896e-06 0.0000000000000000e+00  1.4773612750579388e-04 -1.8182777362583865e-06 0.0000000000000000e+00  1.8445828150989902e-04 -2.0466131606200636e-06 0.0000000000000000e+00  2.2980661215647461e-04 -2.2278645765141872e-06 0.0000000000000000e+00  2.8629883509082358e-04 -2.3314374157988780e-06 0.0000000000000000e+00  3.5725989029116128e-04 -2.3403707247422759e-06 0.0000000000000000e+00  4.4710465117853886e-04 -2.3101405205422516e-06 0.0000000000000000e+00  5.6167188855023667e-04 -2.5314127802835919e-06 0.0000000000000000e+00  7.0853332530135889e-04 -3.9332010403240302e-06 0.0000000000000000e+00  8.9709182844209686e-04 -8.9390970543182991e-06 0.0000000000000000e+00  0.0000000000000000e+00 0.0000000000000000e+00 0.0000000000000000e+00  1.0500678707295646e-05 -1.6075968102088328e-07 0.0000000000000000e+00  2.1441663705097195e-05 -3.2355946890942666e-07 0.0000000000000000e+00  3.3284747690656583e-05 -4.8976487551464813e-07 0.0000000000000000e+00  4.6539652735396247e-05 -6.5928035754331624e-07 0.0000000000000000e+00  6.1793199497217421e-05 -8.2936251776078533e-07 0.0000000000000000e+00  7.9745847097849077e-05 -9.9277493530250731e-07 0.0000000000000000e+00  1.0125990178926253e-04 -1.1348515561359706e-06 0.0000000000000000e+00  1.2742582904156846e-04 -1.2288079185909075e-06 0.0000000000000000e+00  1.5965660105535644e-04 -1.2283248827109918e-06 0.0000000000000000e+00  1.9982564031124456e-04 -1.0561249766404074e-06 0.0000000000000000e+00  2.5047269400586510e-04 -5.8748517391854083e-07 0.0000000000000000e+00  3.1511462616583302e-04 3.6952370269101374e-07 0.0000000000000000e+00  3.9871263704572635e-04 2.0820250809766727e-06 0.0000000000000000e+00  5.0835006590732471e-04 4.8221367002203333e-06 0.0000000000000000e+00  6.5411395100217209e-04 8.4726033988328043e-06 0.0000000000000000e+00  8.4996843040230125e-04 1.1073963647593568e-05 0.0000000000000000e+00  0.0000000000000000e+00 0.0000000000000000e+00 0.0000000000000000e+00  8.2825358956096937e-06 -1.2064937389971582e-07 0.0000000000000000e+00  1.6916889136973963e-05 -2.4182974366657815e-07 0.0000000000000000e+00  2.6272652615249088e-05 -3.6329226371245574e-07 0.0000000000000000e+00  3.6759635625979854e-05 -4.8306775229365891e-07 0.0000000000000000e+00  4.8852805290246025e-05 -5.9602964976668750e-07 0.0000000000000000e+00  6.3124220413696871e-05 -6.9157699627237876e-07 0.0000000000000000e+00  8.0286323054051849e-05 -7.4975201675448963e-07 0.0000000000000000e+00  1.0125348335995559e-04 -7.3458135467462812e-07 0.0000000000000000e+00  1.2723318607869163e-04 -5.8243099081333480e-07 0.0000000000000000e+00  1.5986637018649362e-04 -1.8123852950423211e-07 0.0000000000000000e+00  2.0145146869729013e-04 6.6726866873161296e-07 0.0000000000000000e+00  2.5531515518264743e-04 2.3174823568373198e-06 0.0000000000000000e+00  3.2644715823810768e-04 5.4094497179590557e-06 0.0000000000000000e+00  4.2261456765361089e-04 1.1093897175332868e-05 0.0000000000000000e+00  5.5626567875096528e-04 2.1272905255381655e-05 0.0000000000000000e+00  7.4648113925332524e-04 3.7368392981125890e-05 0.0000000000000000e+00  0.0000000000000000e+00 0.0000000000000000e+00 0.0000000000000000e+00  5.7199981759953587e-06 -8.0099991078294660e-08 0.0000000000000000e+00  1.1685094325108631e-05 -1.5998231762538276e-07 0.0000000000000000e+00  1.8153045993067587e-05 -2.3875023670309780e-07 0.0000000000000000e+00  2.5410542090661512e-05 -3.1399308803569566e-07 0.0000000000000000e+00  3.3791367115978027e-05 -3.8049763014897402e-07 0.0000000000000000e+00  4.3699989976093712e-05 -4.2812461258812478e-07 0.0000000000000000e+00  5.5644109668951903e-05 -4.3814826864496700e-07 0.0000000000000000e+00  7.0281928655935015e-05 -3.7674470595833466e-07 0.0000000000000000e+00  8.8494101440921781e-05 -1.8305794990548023e-07 0.0000000000000000e+00  1.1149839232099659e-04 2.5342098204717298e-07 0.0000000000000000e+00  1.4104155302985895e-04 1.1375428157149522e-06 0.0000000000000000e+00  1.7973890336393694e-04 2.8617256420823825e-06 0.0000000000000000e+00  2.3171930740191793e-04 6.2162576255353240e-06 0.0000000000000000e+00  3.0398664781730665e-04 1.2925701332531159e-05 0.0000000000000000e+00  4.0991180948518412e-04 2.7324231728760663e-05 0.0000000000000000e+00  5.8251226950098716e-04 6.3707846871983434e-05 0.0000000000000000e+00  0.0000000000000000e+00 0.0000000000000000e+00 0.0000000000000000e+00  2.9194996160803996e-06 -3.9856809080339294e-08 0.0000000000000000e+00  5.9646069099649374e-06 -7.9411924351837858e-08 0.0000000000000000e+00  9.2674715502958281e-06 -1.1797056575620170e-07 0.0000000000000000e+00  1.2975283556617203e-05 -1.5395698331677507e-07 0.0000000000000000e+00  1.7259764581195687e-05 -1.8415749805141959e-07 0.0000000000000000e+00  2.2329567045963837e-05 -2.0246041101046100e-07 0.0000000000000000e+00  2.8447505032128924e-05 -1.9765665552255707e-07 0.0000000000000000e+00  3.5955799386832665e-05 -1.4947124626335493e-07 0.0000000000000000e+00  4.5314903839258862e-05 -2.1180709389570638e-08 0.0000000000000000e+00  5.7166162373627918e-05 2.5455568394478731e-07 0.0000000000000000e+00  7.2438107105889777e-05 8.0374950362496984e-07 0.0000000000000000e+00  9.2536121877150634e-05 1.8680780026478284e-06 0.0000000000000000e+00  1.1969456177976356e-04 3.9211612990021093e-06 0.0000000000000000e+00  1.5762053211947684e-04 7.8887353931809901e-06 0.0000000000000000e+00  2.1236024901641139e-04 1.5396293187555288e-05 0.0000000000000000e+00  2.9052408932921374e-04 2.7640903955009993e-05 0.0000000000000000e+00  0.0000000000000000e+00 0.0000000000000000e+00 0.0000000000000000e+00  0.0000000000000000e+00 0.0000000000000000e+00 0.0000000000000000e+00  0.0000000000000000e+00 0.0000000000000000e+00 0.0000000000000000e+00  0.0000000000000000e+00 0.0000000000000000e+00 0.0000000000000000e+00  0.0000000000000000e+00 0.0000000000000000e+00 0.0000000000000000e+00  0.0000000000000000e+00 0.0000000000000000e+00 0.0000000000000000e+00  0.0000000000000000e+00 0.0000000000000000e+00 0.0000000000000000e+00  0.0000000000000000e+00 0.0000000000000000e+00 0.0000000000000000e+00  0.0000000000000000e+00 0.0000000000000000e+00 0.0000000000000000e+00  0.00000