<?xml version="1.0"?>
<VTKFile type="UnstructuredGrid"  version="0.1"  >
<UnstructuredGrid>
<Piece  NumberOfPoints="289" NumberOfCells="512">
<Points>
<DataArray  type="Float64"  NumberOfComponents="3"  format="ascii">0 0 0  0.0625 0 0  0.125 0 0  0.1875 0 0  0.25 0 0  0.3125 0 0  0.375 0 0  0.4375 0 0  0.5 0 0  0.5625 0 0  0.625 0 0  0.6875 0 0  0.75 0 0  0.8125 0 0  0.875 0 0  0.9375 0 0  1 0 0  0 0.0625 0  0.06250864609511063 0.06249624135221724 0  0.1250174821538228 0.06249242431869075 0  0.1875266884861105 0.06248849802355387 0  0.2500364218575992 0.06248442790719031 0  0.3125467980561112 0.06248020599351718 0  0.3750578670084134 0.06247586329728114 0  0.4375695767741304 0.06247148417575003 0  0.5000817209218126 0.06246722112508768 0  0.5625938593568793 0.06246330617169014 0  0.6251051906468899 0.06246005119539186 0  0.6876143184086786 0.06245782456749398 0  0.7501187400245356 0.06245699027790048 0  0.8126134772454371 0.06245782683723469 0  0.8750866308192081 0.06246065925262472 0  0.937502349122556 0.06246770898252339 0  0.9997261024872428 0.06249671258907882 0  0 0.125 0  0.06251707724605039 0.1249925420643797 0  0.1250345466773244 0.124984959670596 0  0.1875527846526177 0.1249771424870754 0  0.2500721282176661 0.1249690111127587 0  0.3125928459664829 0.1249605371136879 0  0.3751150968439582 0.1249517679922144 0  0.437638871972549 0.1249428573385399 0  0.5001639135762213 0.1249340982361252 0  0.5626896028703239 0.1249259538012638 0  0.6252148028918425 0.124919071181291 0  0.6877376254450068 0.124914252361508 0  0.7502550443116835 0.1249123330266321 0  0.8127621573640791 0.1249138774416118 0  0.8752506964395774 0.1249184634391718 0  0.9377069142587169 0.1249226198145518 0  1.000118934186213 0.124910581610563 0  0 0.1875 0  0.06252509596197786 0.1874889683847965 0  0.1250508055666235 0.187477731752427 0  0.1875777253306965 0.1874661039540304 0  0.2501064073793918 0.1874539407298373 0  0.3126373256489541 0.1874411682094462 0  0.3751708277833198 0.1874278201834568 0  0.4377070679969413 0.187414085997868 0  0.50024591689205 0.1874003687959272 0  0.5627868459417921 0.1873873492887567 0  0.6253287872785175 0.1873760413858096 0  0.6878699729066571 0.1873678097647758 0  0.7504077596137519 0.1873642902432664 0  0.8129384506841159 0.1873670991368132 0  0.8754571989254951 0.1873771043138586 0  0.9379586043972816 0.187392796491544 0  1.000440803891268 0.1874072901246254 0  0 0.25 0  0.06253248731347039 0.2499856010261512 0  0.1250658308782593 0.2499708971019095 0  0.1876008741032278 0.2499556038802263 0  0.2501384231067595 0.2499394838136824 0  0.3126792156619338 0.2499223804121914 0  0.375223875078632 0.2499042659975685 0  0.4377728446569035 0.2498853077067123 0  0.5003263000724547 0.2498659556245989 0  0.5628840407478435 0.2498470540257123 0  0.6254453677020384 0.2498299698183522 0  0.6880089646050849 0.2498167183639919 0  0.7505728093285798 0.2498100416602986 0  0.8131341550091372 0.2498133534735056 0  0.8756896543585465 0.2498304161441059 0  0.9382358594455684 0.2498646195953612 0  1.000770725762844 0.2499181176462131 0  0 0.3125 0  0.06253901439534651 0.3124825400570926 0  0.1250791448179601 0.3124646540315945 0  0.1876215044605804 0.3124459339819948 0  0.250167188922004 0.3124260149555424 0  0.3127172552613388 0.3124046103030014 0  0.3752726862434126 0.3123815652469867 0  0.437834335422148 0.3123569372899619 0  0.5004028503720709 0.3123311136270394 0  0.5629785748267666 0.3123049764720224 0  0.6255614360613942 0.3122801253285143 0  0.6881508307815005 0.312259157442645 0  0.7507455287484394 0.3122459886805026 0  0.8133436186890223 0.3122461606805939 0  0.8759425490648923 0.3122670263862629 0  0.9385394655263211 0.3123176640624092 0  1.001132542641246 0.3124084255041091 0  0 0.375 0  0.06254441975858339 0.3749799067232705 0  0.1250902222871755 0.374959247481864 0  0.1876388029143554 0.3749374667924206 0  0.2501915712187189 0.374914037204954 0  0.3127499474161397 0.3748884887093555 0  0.3753153453794545 0.374860459675121 0  0.437889137918001 0.3748297817836209 0  0.5004726010679793 0.3747966163548652 0  0.5630668366756727 0.3747616656812469 0  0.625672676463602 0.3747264893192249 0  0.6882905745466186 0.3746939583308442 0  0.7509204955225177 0.3746688720862229 0  0.8135617997803497 0.3746587261790612 0  0.8762131307195431 0.3746745295404277 0  0.9388723771557731 0.3747313914885422 0  1.001536998730284 0.3748483114811559 0  0 0.4375 0  0.06254843390534849 0.4374778409831379 0  0.1250985079981585 0.4374549651109179 0  0.187651894974286 0.4374306527242378 0  0.2502103243653907 0.4374041847853442 0  0.3127756030999808 0.4373748575206646 0  0.3753496259201823 0.4373420184900905 0  0.4379343719476732 0.4373051390663318 0  0.5005318846870888 0.437263946868242 0  0.5631442356282305 0.4372186545816713 0  0.6257734768489474 0.4371703395339223 0  0.6884215941376252 0.4371215498797953 0  0.7510904727044531 0.4370772301190151 0  0.8137818681120457 0.4370460465140987 0  0.876497315930747 0.4370420961395312 0  0.9392378084828038 0.4370867053792118 0  1.002002955426239 0.4372094717521449 0  0 0.5 0  0.06255079130315164 0.4999764937438878 0  0.1251034491167169 0.4999521222047514 0  0.1876598955533209 0.4999259989597968 0  0.2502221601834447 0.4998971991546938 0  0.3127924305872652 0.4998647499008428 0  0.3753730983325674 0.4998276367937229 0  0.4379667985741878 0.4997848409983999 0  0.5005764433244265 0.499735432538305 0  0.5632052543542319 0.4996787644666442 0  0.6258568148766083 0.4996148437763018 0  0.6885351815757007 0.4995450028397209 0  0.7512451228241611 0.4994730602301414 0  0.8139925390419789 0.4994072232796899 0  0.8767849821258793 0.4993629719232027 0  0.9396317658499161 0.4993668769835778 0  1.002542395989959 0.49946038912447 0  0 0.5625 0  0.06255125351989349 0.56247601337024 0  0.125104542812743 0.5624510341159636 0  0.1876619833705462 0.5624240269974684 0  0.2502258523870496 0.5623938714573229 0  0.312798673026085 0.5623593198694657 0  0.3753833021996122 0.5623189604543027 0  0.4379830231710534 0.56227119414226 0  0.5006016477249612 0.5622142457042993 0  0.5632436440528255 0.5621462508053339 0  0.6259143357377852 0.5620655011067528 0  0.6886202791186949 0.5619710042932864 0  0.7513700301823973 0.5618636474475986 0  0.8141756165565908 0.5617484609904542 0  0.8770549233460896 0.5616387327268124 0  0.9400343202854836 0.5615627565382103 0  1.003148404578627 0.5615729973369099 0  0 0.625 0  0.06254963793688074 0.6249765270589139 0  0.1251013958694821 0.624951977076002 0  0.1876574957412307 0.6249252090891113 0  0.2502203726645501 0.6248949491895149 0  0.3127927931951467 0.6248597131576066 0  0.3753779873700989 0.6248177169684469 0  0.4379797996057543 0.6247667741213887 0  0.5006028678974961 0.6247041851386221 0  0.5632528568134917 0.6246266401626127 0  0.6259368175452219 0.6245301918484989 0  0.6886638707406998 0.6244104378496859 0  0.7514466774921585 0.6242632338130063 0  0.8143046370705916 0.6240866441760656 0  0.8772702103654646 0.6238855843780022 0  0.9403989464891535 0.6236816794379635 0  1.003778260434435 0.6235307645420127 0  0 0.6875 0  0.0625458491009965 0.6874781190262582 0  0.1250937906543516 0.6874551412127405 0  0.1876460357307096 0.6874298889954702 0  0.2502050489038211 0.6874010131618289 0  0.3127736959365388 0.6873668835944069 0  0.3753554168790196 0.6873254489487872 0  0.43795443362117 0.6872740502557259 0  0.5005760038836884 0.6872091704474883 0  0.5632267473881983 0.6871261013645755 0  0.6259151216603183 0.6870185197729765 0  0.6886522923770577 0.6868780072402043 0  0.7514541223063771 0.6866936918246431 0  0.8143461961731135 0.6864526236039166 0  0.8773761647588952 0.6861427454933805 0  0.9406400576059232 0.6857635578196942 0  1.004322675146092 0.6853548904930012 0  0 0.75 0  0.06253990834419038 0.7499808088673954 0  0.1250817486912651 0.7499605828712341 0  0.1876275785867969 0.7499381986008445 0  0.2501797284783465 0.7499123415570911 0  0.3127409678938627 0.7498813773774546 0  0.3753147087120786 0.7498431762662919 0  0.4379052589660477 0.7497948620813073 0  0.5005181400220278 0.7497324430694341 0  0.5631604808867383 0.7496502583754459 0  0.6258415236186406 0.7495401395478266 0  0.6885733922567829 0.7493901376753809 0  0.7513727866102912 0.7491826212350302 0  0.8142661161505311 0.7488916250225623 0  0.877306427850574 0.7484801416297597 0  0.9406248447535265 0.7479025910389606 0  1.004547166442779 0.7471404252542564 0  0 0.8125 0  0.06253197621367557 0.8124845344718404 0  0.1250655805557712 0.8124681858921703 0  0.1876025597650049 0.8124499872203225 0  0.2501449220071338 0.8124287882867731 0  0.3126951031060859 0.8124031275193884 0  0.3752561787827419 0.8123710502749512 0  0.4378321417235847 0.8123298376382129 0  0.5004282597292649 0.8122755868724766 0  0.5630515162147274 0.8122025443081661 0  0.6257110929803359 0.8121020174937029 0  0.6884187843925298 0.8119605513797244 0  0.7511892625530774 0.8117567626890909 0  0.814041156475814 0.8114555982774759 0  0.8770067174023377 0.8109974450693062 0  0.9401927578351384 0.8102774722665731 0  1.004097436510144 0.8091163429035896 0  0 0.875 0  0.06252236200026791 0.8749891440256448 0  0.1250459098109051 0.8749776421551045 0  0.187571924120936 0.8749647825426341 0  0.250101897124192 0.8749497085452276 0  0.3126376728144656 0.8749313146689036 0  0.375181634142794 0.8749080956009335 0  0.4377369601957369 0.8748779148403353 0  0.500307977432155 0.8748376366813361 0  0.5629006116328463 0.8747825239171221 0  0.6255228660709639 0.8747052267416466 0  0.6881849769488617 0.8745940383358711 0  0.750898097632319 0.8744297689059597 0  0.8136683710929753 0.8741797596462255 0  0.8764798727291714 0.8737849584988959 0  0.9392656255202194 0.8731266330499174 0  1.002002795948286 0.87192032906449 0  0 0.9375 0  0.06251151566737666 0.937494400537076 0  0.1250236601943543 0.9374884595004652 0  0.1875371165225148 0.9374817989638743 0  0.250052689216595 0.9374739608581446 0  0.3125713883060006 0.9374643485050129 0  0.37509454587862 0.9374521406105918 0  0.4376239849282371 0.9374361575
[...]
<PointData  Vectors="f_54"> 
<DataArray  type="Float64"  Name="f_54"  NumberOfComponents="3" format="ascii">0.0000000000000000e+00 0.0000000000000000e+00 0.0000000000000000e+00  0.0000000000000000e+00 0.0000000000000000e+00 0.0000000000000000e+00  0.0000000000000000e+00 0.0000000000000000e+00 0.0000000000000000e+00  0.0000000000000000e+00 0.0000000000000000e+00 0.0000000000000000e+00  0.0000000000000000e+00 0.0000000000000000e+00 0.0000000000000000e+00  0.0000000000000000e+00 0.0000000000000000e+00 0.0000000000000000e+00  0.0000000000000000e+00 0.0000000000000000e+00 0.0000000000000000e+00  0.0000000000000000e+00 0.0000000000000000e+00 0.0000000000000000e+00  0.0000000000000000e+00 0.0000000000000000e+00 0.0000000000000000e+00  0.0000000000000000e+00 0.0000000000000000e+00 0.0000000000000000e+00  0.0000000000000000e+00 0.0000000000000000e+00 0.0000000000000000e+00  0.0000000000000000e+00 0.0000000000000000e+00 0.0000000000000000e+00  0.0000000000000000e+00 0.0000000000000000e+00 0.0000000000000000e+00  0.0000000000000000e+00 0.0000000000000000e+00 0.0000000000000000e+00  0.0000000000000000e+00 0.0000000000000000e+00 0.0000000000000000e+00  0.0000000000000000e+00 0.0000000000000000e+00 0.0000000000000000e+00  0.0000000000000000e+00 0.0000000000000000e+00 0.0000000000000000e+00  0.0000000000000000e+00 0.0000000000000000e+00 0.0000000000000000e+00  4.1986685839413562e-06 -5.0322162713291108e-08 0.0000000000000000e+00  8.5267664257842719e-06 -1.0313021868610145e-07 0.0000000000000000e+00  1.3115192069289615e-05 -1.6106932211498618e-07 0.0000000000000000e+00  1.8096491767459298e-05 -2.2710152111361944e-07 0.0000000000000000e+00  2.3604899904760755e-05 -3.0469032530128652e-07 0.0000000000000000e+00  2.9775447810594377e-05 -3.9802198953254150e-07 0.0000000000000000e+00  3.6741987205002159e-05 -5.1229241281815860e-07 0.0000000000000000e+00  4.4634370329974897e-05 -6.5412465510721254e-07 0.0000000000000000e+00  5.3576096600437681e-05 -8.3228271174388321e-07 0.0000000000000000e+00  6.3686570408672498e-05 -1.0591371070108816e-06 0.0000000000000000e+00  7.5099929393575589e-05 -1.3542234328325351e-06 0.0000000000000000e+00  8.8035500755651714e-05 -1.7541601573542945e-06 0.0000000000000000e+00  1.0302914256362305e-04 -2.3437164622999110e-06 0.0000000000000000e+00  1.2169344966611916e-04 -3.3637875154846807e-06 0.0000000000000000e+00  1.4934205159325038e-04 -5.6215592713139679e-06 0.0000000000000000e+00  2.0457294831117316e-04 -1.2148644940547192e-05 0.0000000000000000e+00  0.0000000000000000e+00 0.0000000000000000e+00 0.0000000000000000e+00  8.2685955651258308e-06 -9.8167030708388858e-08 0.0000000000000000e+00  1.6795232405254161e-05 -2.0115531350479566e-07 0.0000000000000000e+00  2.5841169516517836e-05 -3.1409439168703152e-07 0.0000000000000000e+00  3.5671623412658977e-05 -4.4272757097631190e-07 0.0000000000000000e+00  4.6556139186736707e-05 -5.9376571469556225e-07 0.0000000000000000e+00  5.8766960052640420e-05 -7.7530152352031882e-07 0.0000000000000000e+00  7.2574820998492579e-05 -9.9731907559246505e-07 0.0000000000000000e+00  8.8241975104175679e-05 -1.2723641321200178e-06 0.0000000000000000e+00  1.0601330352782829e-04 -1.6165172479029527e-06 0.0000000000000000e+00  1.2610882189224168e-04 -2.0509848968964766e-06 0.0000000000000000e+00  1.4872622160334086e-04 -2.6049476941639325e-06 0.0000000000000000e+00  1.7407238116113818e-04 -3.3205712720930076e-06 0.0000000000000000e+00  2.0245693062998494e-04 -4.2591077050366832e-06 0.0000000000000000e+00  2.3446542730858272e-04 -5.4890257949655088e-06 0.0000000000000000e+00  2.7094661838320775e-04 -6.9267960302105839e-06 0.0000000000000000e+00  3.1062749855630822e-04 -7.2952343100735582e-06 0.0000000000000000e+00  0.0000000000000000e+00 0.0000000000000000e+00 0.0000000000000000e+00  1.2080732816898458e-05 -1.4119474486492087e-07 0.0000000000000000e+00  2.4546014921881197e-05 -2.8925180525978459e-07 0.0000000000000000e+00  3.7785922052973292e-05 -4.5147155065097866e-07 0.0000000000000000e+00  5.2198146895227960e-05 -6.3602873623160452e-07 0.0000000000000000e+00  6.8189382214042135e-05 -8.5247280234739130e-07 0.0000000000000000e+00  8.6173529678333193e-05 -1.1123010759668615e-06 0.0000000000000000e+00  1.0656545313127449e-04 -1.4296262827098016e-06 0.0000000000000000e+00  1.2976898826925809e-04 -1.8219584581367301e-06 0.0000000000000000e+00  1.5615817594769594e-04 -2.3111225763928784e-06 0.0000000000000000e+00  1.8605132084262711e-04 -2.9243342584129913e-06 0.0000000000000000e+00  2.1967816513174013e-04 -3.6954217580389086e-06 0.0000000000000000e+00  2.5713891150917583e-04 -4.6659651807800616e-06 0.0000000000000000e+00  2.9834087800907069e-04 -5.8854142064208158e-06 0.0000000000000000e+00  3.4284549595928708e-04 -7.4090375051533144e-06 0.0000000000000000e+00  3.8940068734167905e-04 -9.3101058291501009e-06 0.0000000000000000e+00  4.3468114798133310e-04 -1.1899778599311352e-05 0.0000000000000000e+00  0.0000000000000000e+00 0.0000000000000000e+00 0.0000000000000000e+00  1.5508254702211197e-05 -1.7736178898544863e-07 0.0000000000000000e+00  3.1523507949601701e-05 -3.6320633106014375e-07 0.0000000000000000e+00  4.8561424316740948e-05 -5.6655728974602022e-07 0.0000000000000000e+00  6.7150983189449064e-05 -7.9752477275165466e-07 0.0000000000000000e+00  8.7838050133714517e-05 -1.0679294791669549e-06 0.0000000000000000e+00  1.1118471757213715e-04 -1.3920142039076103e-06 0.0000000000000000e+00  1.3776231419089001e-04 -1.7872501599285285e-06 0.0000000000000000e+00  1.6813543269463861e-04 -2.2752100197035192e-06 0.0000000000000000e+00  2.0283367056146988e-04 -2.8824076775182820e-06 0.0000000000000000e+00  2.4230689325430326e-04 -3.6408671704854048e-06 0.0000000000000000e+00  2.8685812389183551e-04 -4.5879353707651273e-06 0.0000000000000000e+00  3.3654379001721779e-04 -5.7644559711438322e-06 0.0000000000000000e+00  3.9101959340761129e-04 -7.2099885469246002e-06 0.0000000000000000e+00  4.4928469601312706e-04 -8.9540958001268588e-06 0.0000000000000000e+00  5.0923921877888171e-04 -1.1005870795085684e-05 0.0000000000000000e+00  5.6698504427279235e-04 -1.3340416600500007e-05 0.0000000000000000e+00  0.0000000000000000e+00 0.0000000000000000e+00 0.0000000000000000e+00  1.8428559021500687e-05 -2.0504771707405181e-07 0.0000000000000000e+00  3.7479565621540312e-05 -4.1967612832398104e-07 0.0000000000000000e+00  5.7788311689057928e-05 -6.5407481142522591e-07 0.0000000000000000e+00  8.0011706171757141e-05 -9.1966951027062480e-07 0.0000000000000000e+00  1.0483571401519905e-04 -1.2298469742683373e-06 0.0000000000000000e+00  1.3297794932729985e-04 -1.6007982197120728e-06 0.0000000000000000e+00  1.6518261328467426e-04 -2.0524928846588305e-06 0.0000000000000000e+00  2.0220386737001642e-04 -2.6097445355649211e-06 0.0000000000000000e+00  2.4477228631997509e-04 -3.3032105445791691e-06 0.0000000000000000e+00  2.9353720243243493e-04 -4.1699372366965877e-06 0.0000000000000000e+00  3.4897546091122402e-04 -5.2526355392368217e-06 0.0000000000000000e+00  4.1125428384985058e-04 -6.5961774019940704e-06 0.0000000000000000e+00  4.8003306345158821e-04 -8.2388276068611718e-06 0.0000000000000000e+00  5.5418970491842644e-04 -1.0194551688110408e-05 0.0000000000000000e+00  6.3147762708285957e-04 -1.2420761978824621e-05 0.0000000000000000e+00  7.0820790289198479e-04 -1.4757242921057416e-05 0.0000000000000000e+00  0.0000000000000000e+00 0.0000000000000000e+00 0.0000000000000000e+00  2.0726244389183652e-05 -2.2315704612966399e-07 0.0000000000000000e+00  4.2179211980634527e-05 -4.5640054331909372e-07 0.0000000000000000e+00  6.5103756750423030e-05 -7.1044892525469172e-07 0.0000000000000000e+00  9.0277516851197261e-05 -9.9732341359848773e-07 0.0000000000000000e+00  1.1852426990019843e-04 -1.3311403193391178e-06 0.0000000000000000e+00  1.5072261885012262e-04 -1.7290744951546858e-06 0.0000000000000000e+00  1.8780680739928287e-04 -2.2125433568689382e-06 0.0000000000000000e+00  2.3075484603540697e-04 -2.8086227050367741e-06 0.0000000000000000e+00  2.8055693074778798e-04 -3.5515979672279069e-06 0.0000000000000000e+00  3.3815442006349485e-04 -4.4843012922237662e-06 0.0000000000000000e+00  4.0433680767172528e-04 -5.6583568422070985e-06 0.0000000000000000e+00  4.7958236620902203e-04 -7.1314706822511160e-06 0.0000000000000000e+00  5.6383021925082439e-04 -8.9582936048945180e-06 0.0000000000000000e+00  6.5618328030069006e-04 -1.1169297499387932e-05 0.0000000000000000e+00  7.5457290105760398e-04 -1.3730903414734101e-05 0.0000000000000000e+00  8.5547863787506691e-04 -1.6485702050898677e-05 0.0000000000000000e+00  0.0000000000000000e+00 0.0000000000000000e+00 0.0000000000000000e+00  2.2297302711502668e-05 -2.3118857265765978e-07 0.0000000000000000e+00  4.5408937254646699e-05 -4.7234982717961622e-07 0.0000000000000000e+00  7.0173610320807084e-05 -7.3405507309513066e-07 0.0000000000000000e+00  9.7476600909713034e-05 -1.0281336627161542e-06 0.0000000000000000e+00  1.2827116544606503e-04 -1.3684753509449426e-06 0.0000000000000000e+00  1.6359656089720795e-04 -1.7720659080098672e-06 0.0000000000000000e+00  2.0458961820311365e-04 -2.2603716527733183e-06 0.0000000000000000e+00  2.5248473078124306e-04 -2.8612052776545661e-06 0.0000000000000000e+00  3.0859411470191749e-04 -3.6111827051093614e-06 0.0000000000000000e+00  3.7425620217127804e-04 -4.5587369517996499e-06 0.0000000000000000e+00  4.5073549877507274e-04 -5.7672078787762790e-06 0.0000000000000000e+00  5.3905377508391920e-04 -7.3164143032554396e-06 0.0000000000000000e+00  6.3973378902433531e-04 -9.2987274457044781e-06 0.0000000000000000e+00  7.5244923418962112e-04 -1.1801269821387151e-05 0.0000000000000000e+00  8.7560508577080279e-04 -1.4859400772886411e-05 0.0000000000000000e+00  1.0059179542391027e-03 -1.8360662852819739e-05 0.0000000000000000e+00  0.0000000000000000e+00 0.0000000000000000e+00 0.0000000000000000e+00  2.3054607560789357e-05 -2.2926198414172963e-07 0.0000000000000000e+00  4.6987831831005690e-05 -4.6779054951544508e-07 0.0000000000000000e+00  7.2709427319894704e-05 -7.2535176746916617e-07 0.0000000000000000e+00  1.0119120867244970e-04 -1.0127859911059077e-06 0.0000000000000000e+00  1.3349829306380506e-04 -1.3427287729671933e-06 0.0000000000000000e+00  1.7081958664632573e-04 -1.7306047529262687e-06 0.0000000000000000e+00  2.1449533891493549e-04 -2.1960832624466423e-06 0.0000000000000000e+00  2.6603727776736185e-04 -2.7652893764565288e-06 0.0000000000000000e+00  3.2713308954319931e-04 -3.4742091965024168e-06 0.0000000000000000e+00  3.9962132791826623e-04 -4.3738781880304100e-06 0.0000000000000000e+00  4.8541507107317052e-04 -5.5379425981345238e-06 0.0000000000000000e+00  5.8634388488259831e-04 -7.0725670666929369e-06 0.0000000000000000e+00  7.0387790175521954e-04 -9.1262471310937639e-06 0.0000000000000000e+00  8.3870402328502084e-04 -1.1890438839266940e-05 0.0000000000000000e+00  9.9015516506806094e-04 -1.5567423680445991e-05 0.0000000000000000e+00  1.1555514389902097e-03 -2.0258075282881222e-05 0.0000000000000000e+00  0.0000000000000000e+00 0.0000000000000000e+00 0.0000000000000000e+00  2.2934533466130473e-05 -2.1808968121208172e-07 0.0000000000000000e+00  4.6781303042645338e-05 -4.4423954685478129e-07 0.0000000000000000e+00  7.2490205091788379e-05 -6.8684422958026899e-07 0.0000000000000000e+00  1.0108868612920398e-04 -9.5503961019527547e-07 0.0000000000000000e+00  1.3372370535054279e-04 -1.2592217179368437e-06 0.0000000000000000e+00  1.7170693632366236e-04 -1.6118124362042446e-06 0.0000000000000000e+00  2.1656290709589859e-04 -2.0284965494460969e-06 0.0000000000000000e+00  2.7007771389441361e-04 -2.5303468773958293e-06 0.0000000000000000e+00  3.3434199104626533e-04 -3.1476040224643970e-06 0.0000000000000000e+00  4.1177469872580682e-04 -3.9264796419109981e-06 0.0000000000000000e+00  5.0510239964586339e-04 -4.9412831398297598e-06 0.0000000000000000e+00  6.1725097687209554e-04 -6.3152628283553038e-06 0.0000000000000000e+00  7.5108544461164174e-04 -8.2536340315654211e-06 0.0000000000000000e+00  9.0892051626943954e-04 -1.1087169469750562e-05 0.0000000000000000e+00  1.0917507140644478e-03 -1.5303692999513862e-05 0.0000000000000000e+00  1.2982605065476830e-03 -2.1490668127393914e-05 0.0000000000000000e+00  0.0000000000000000e+00 0.0000000000000000e+00 0.0000000000000000e+00  2.1904223401055158e-05 -1.9888368867443945e-07 0.0000000000000000e+00  4.4716444502017886e-05 -4.0427904238866200e-07 0.0000000000000000e+00  6.9387553904675238e-05 -6.2281785647678655e-07 0.0000000000000000e+00  9.6959051732001947e-05 -8.6141812158340030e-07 0.0000000000000000e+00  1.2861508027913463e-04 -1.1274795398865968e-06 0.0000000000000000e+00  1.6574273850112616e-04 -1.4291993290654447e-06 0.0000000000000000e+00  2.1000332518874917e-04 -1.7761794613344016e-06 0.0000000000000000e+00  2.6341620666824354e-04 -2.1807105593564798e-06 0.0000000000000000e+00  3.2845418929274098e-04 -2.6605809967959663e-06 0.0000000000000000e+00  4.0814246663474100e-04 -3.2452477280491798e-06 0.0000000000000000e+00  5.0613861681535525e-04 -3.9892576767215902e-06 0.0000000000000000e+00  6.2674302858171244e-04 -5.0008404102481843e-06 0.0000000000000000e+00  7.7474201454622472e-04 -6.5005315311538644e-06 0.0000000000000000e+00  9.5492493411872227e-04 -8.9325306880129807e-06 0.0000000000000000e+00  1.1710893219460876e-03 -1.3142745535354999e-05 0.0000000000000000e+00  1.4245003841966673e-03 -2.0543240342964179e-05 0.0000000000000000e+00  0.0000000000000000e+00 0.0000000000000000e+00 0.0000000000000000e+00  1.9968672801293050e-05 -1.7319658276880019e-07 0.0000000000000000e+00  4.0797359318247766e-05 -3.5122301564655742e-07 0.0000000000000000e+00  6.3391691549602173e-05 -5.3880267181206381e-07 0.0000000000000000e+00  8.8755627966248581e-05 -7.4044533507238496e-07 0.0000000000000000e+00  1.1805081196132791e-04 -9.6024719353289947e-07 0.0000000000000000e+00  1.5266947584042294e-04 -1.2015886983762761e-06 0.0000000000000000e+00  1.9432728730546777e-04 -1.4667333502815691e-06 0.0000000000000000e+00  2.4518382064746313e-04 -1.7564365601791874e-06 0.0000000000000000e+00  3.0799886133722071e-04 -2.0699823628920039e-06 0.0000000000000000e+00  3.8633024102288535e-04 -2.4069184405241747e-06 0.0000000000000000e+00  4.8476785878171695e-04 -2.7740679057869040e-06 0.0000000000000000e+00  6.0916704607503320e-04 -3.2075718893635084e-06 0.0000000000000000e+00  7.6677010654445561e-04 -3.8358587856692838e-06 0.0000000000000000e+00  9.6595751167325914e-04 -5.0488240444634298e-06 0.0000000000000000e+00  1.2151549398610731e-03 -7.9160352436873293e-06 0.0000000000000000e+00  1.5203580004856626e-03 -1.5034855222058260e-05 0.0000000000000000e+00  0.0000000000000000e+00 0.0000000000000000e+00 0.0000000000000000e+00  1.7176488217031323e-05 -1.4271211247705321e-07 0.0000000000000000e+00  3.5118016947551345e-05 -2.8866232781734949e-07 0.0000000000000000e+00  5.4634305691506307e-05 -4.4079563758930939e-07 0.0000000000000000e+00  7.6632909492998038e-05 -6.0141812318669269e-07 0.0000000000000000e+00  1.0218080516401275e-04 -7.7163198535192984e-07 0.0000000000000000e+00  1.3258364640855076e-04 -9.5041514346298558e-07 0.0000000000000000e+00  1.6949278565654328e-04 -1.1331086768291829e-06 0.0000000000000000e+00  2.1505456286612199e-04 -1.3089482985583071e-06 0.0000000000000000e+00  2.7212258752605035e-04 -1.4570991543708597e-06 0.0000000000000000e+00  3.4456123336911766e-04 -1.5404924289762772e-06 0.0000000000000000e+00  4.3767364662615531e-04 -1.4970204905507529e-06 0.0000000000000000e+00  5.5877699530459794e-04 -1.2302188865991365e-06 0.0000000000000000e+00  7.1788242047750187e-04 -6.1471427404667493e-07 0.0000000000000000e+00  9.2821859014832243e-04 4.0969997151436999e-07 0.0000000000000000e+00  1.2057804243074211e-03 1.3361844511378350e-06 0.0000000000000000e+00  1.5663528666717166e-03 -1.0654662755149119e-06 0.0000000000000000e+00  0.0000000000000000e+00 0.0000000000000000e+00 0.0000000000000000e+00  1.3623005598041880e-05 -1.0902170562524601e-07 0.0000000000000000e+00  2.7869761409142882e-05 -2.1996589409963152e-07 0.0000000000000000e+00  4.3403309027981350e-05 -3.3436739672328728e-07 0.0000000000000000e+00  6.0973771735355864e-05 -4.5289698427273514e-07 0.0000000000000000e+00  8.1475053017927967e-05 -5.7458844837609427e-07 0.0000000000000000e+00  1.0602054842009596e-04 -6.9553813664181106e-07 0.0000000000000000e+00  1.3605017601887829e-04 -8.0664833247061005e-07 0.0000000000000000e+00  1.7348831153920973e-04 -8.8963149217341424e-07 0.0000000000000000e+00  2.2098476516771914e-04 -9.0977344926779083e-07 0.0000000000000000e+00  2.8229228274375914e-04 -8.0241186246573998e-07 0.0000000000000000e+00  3.6286904529854642e-04 -4.4654658291725698e-07 0.0000000000000000e+00  4.7084602803457474e-04 3.8962880220806080e-07 0.0000000000000000e+00  6.1854842060041475e-04 2.1677641699739894e-06 0.0000000000000000e+00  8.2468110562899976e-04 5.8450648856977787e-06 0.0000000000000000e+00  1.1164263278562265e-03 1.3389328230931419e-05 0.0000000000000000e+00  1.5250055627386815e-03 2.7694863427946615e-05 0.0000000000000000e+00  0.0000000000000000e+00 0.0000000000000000e+00 0.0000000000000000e+00  9.4495283181165826e-06 -7.3438613025471180e-08 0.0000000000000000e+00  1.9340648504422022e-05 -1.4785678121790142e-07 0.0000000000000000e+00  3.0144320116263746e-05 -2.2387482715035131e-07 0.0000000000000000e+00  4.2397150144523151e-05 -3.0130331466820331e-07 0.0000000000000000e+00  5.6745213447239863e-05 -3.7841052700383538e-07 0.0000000000000000e+00  7.4004172477318836e-05 -4.5067003159477325e-07 0.0000000000000000e+00  9.5247167652466703e-05 -5.0854153938866572e-07 0.0000000000000000e+00  1.2194001090254323e-04 -5.3344638474230999e-07 0.0000000000000000e+00  1.5615863481131614e-04 -4.9029587279917119e-07 0.0000000000000000e+00  2.0095414645398377e-04 -3.1318430335676974e-07 0.0000000000000000e+00  2.6099294304219559e-04 1.2336507665400367e-07 0.0000000000000000e+00  3.4373125966514838e-04 1.0672554973368601e-06 0.0000000000000000e+00  4.6167680788043486e-04 3.0473994386056837e-06 0.0000000000000000e+00  6.3699452418868735e-04 7.3654564236090320e-06 0.0000000000000000e+00  9.1175538809938725e-04 1.8012081368819075e-05 0.0000000000000000e+00  1.3764895299714054e-03 5.1100949299062395e-05 0.0000000000000000e+00  0.0000000000000000e+00 0.0000000000000000e+00 0.0000000000000000e+00  4.8378535793532739e-06 -3.6901691092039903e-08 0.0000000000000000e+00  9.9046019396148421e-06 -7.4188439027888183e-08 0.0000000000000000e+00  1.5444857542595836e-05 -1.1203065419186479e-07 0.0000000000000000e+00  2.1738547706993455e-05 -1.5011228847697283e-07 0.0000000000000000e+00  2.9124843740852628e-05 -1.8718843227901721e-07 0.0000000000000000e+00  3.8035528180293838e-05 -2.2032521939808464e-07 0.0000000000000000e+00  4.9044770606405273e-05 -2.4355042344669990e-07 0.0000000000000000e+00  6.2947643983923173e-05 -2.4542536327530255e-07 0.0000000000000000e+00  8.0890529840274471e-05 -2.0468225453265095e-07 0.0000000000000000e+00  1.0459937679267651e-04 -8.2614127865052870e-08 0.0000000000000000e+00  1.3680235807563823e-04 1.8883310947861880e-07 0.0000000000000000e+00  1.8206062245069437e-04 7.1859106496111248e-07 0.0000000000000000e+00  2.4849602042086055e-04 1.6280168198167668e-06 0.0000000000000000e+00  3.5149137931461737e-04 2.7666233207949889e-06 0.0000000000000000e+00  5.2093948786594263e-04 2.1530572840785545e-06 0.0000000000000000e+00  8.0637346426802798e-04 -1.0638840613047460e-05 0.0000000000000000e+00  0.0000000000000000e+00 0.0000000000000000e+00 0.0000000000000000e+00  0.0000000000000000e+00 0.0000000000000000e+00 0.0000000000000000e+00  0.0000000000000000e+00 0.0000000000000000e+00 0.0000000000000000e+00  0.0000000000000000e+00 0.0000000000000000e+00 0.0000000000000000e+00  0.0000000000000000e+00 0.0000000000000000e+00 0.0000000000000000e+00  0.0000000000000000e+00 0.0000000000000000e+00 0.0000000000000000e+00  0.0000000000000000e+00 0.0000000000000000e+00 0.0000000000000000e+00  0.0000000000000000e+00 0.0000000000000000e+00 0.0000000000000000e+00  0.0000000000000000e+00 0.0000000000000000e+00 0.0000000000000000e+00  