<?xml version="1.0"?>
<VTKFile type="UnstructuredGrid"  version="0.1"  >
<UnstructuredGrid>
<Piece  NumberOfPoints="289" NumberOfCells="512">
<Points>
<DataArray  type="Float64"  NumberOfComponents="3"  format="ascii">0 0 0  0.0625 0 0  0.125 0 0  0.1875 0 0  0.25 0 0  0.3125 0 0  0.375 0 0  0.4375 0 0  0.5 0 0  0.5625 0 0  0.625 0 0  0.6875 0 0  0.75 0 0  0.8125 0 0  0.875 0 0  0.9375 0 0  1 0 0  0 0.0625 0  0.06257168424017848 0.06249298584579156 0  0.1251458348232947 0.06248580853065996 0  0.187724993349557 0.06247830988258727 0  0.2503118256262325 0.06247034400472028 0  0.3129091871705089 0.06246178506143774 0  0.375520195548691 0.06245253617365817 0  0.4381483212315972 0.06244253764776583 0  0.5007975255635329 0.06243176934206904 0  0.5634725157666552 0.06242023454545094 0  0.6261792922393126 0.06240789585801602 0  0.6889264484504694 0.06239449178911852 0  0.7517285100334457 0.06237904709632321 0  0.8146151660947774 0.06235853014917919 0  0.8776587343575568 0.06232388212770169 0  0.9410619779003001 0.06224723066623466 0  1.005461359411283 0.06203929177599482 0  0 0.125 0  0.06264093194123847 0.1249861338248295 0  0.125286750018131 0.1249719351059664 0  0.1879424924201032 0.1249570804765211 0  0.2506134520027908 0.1249412695965249 0  0.3133053095934891 0.1249242407462647 0  0.3760242778820809 0.1249057901436196 0  0.4387772723182303 0.1248857932274828 0  0.5015721468431646 0.1248642214771156 0  0.5644180792423067 0.1248411389965182 0  0.6273262920250474 0.1248166453126525 0  0.6903115049475514 0.1247906996153034 0  0.7533949109620637 0.1247627185244549 0  0.8166099824284198 0.1247308427325036 0  0.8800117408869359 0.1246911966909269 0  0.9436798696499046 0.1246402658886982 0  1.007642606642059 0.1245973967097325 0  0 0.1875 0  0.06270532044115214 0.1874796139894925 0  0.1254178359177533 0.1874587149508179 0  0.1881449697163947 0.1874368014858828 0  0.2508945347816066 0.1874134025217581 0  0.3136749346231492 0.187388100112122 0  0.3764953725606009 0.1873605607577637 0  0.439366080623862 0.1873305759684959 0  0.5022985919167576 0.1872981091591605 0  0.5653061027640451 0.1872633387529943 0  0.6284040040701512 0.1872266745424806 0  0.6916106842652185 0.1871887047171313 0  0.7549486106100315 0.1871500079223684 0  0.8184450800942725 0.1871107504839328 0  0.8821297036821826 0.1870699626268296 0  0.9460192033240595 0.1870238646372438 0  1.010070624109524 0.1869579023022436 0  0 0.25 0  0.0627625442247591 0.2499736073341225 0  0.1255344144444599 0.2499465070933568 0  0.1883252391614949 0.2499180027689918 0  0.251145176324666 0.2498874291584518 0  0.3140051831287484 0.2498541799402256 0  0.3769172889796319 0.2498177501937917 0  0.4398948729602402 0.2497777991268688 0  0.5029529462485747 0.2497342373747738 0  0.5661084336065143 0.2496873403976484 0  0.6293804209760419 0.2496378833529944 0  0.6927902438230221 0.2495872820101097 0  0.7563610190562353 0.2495377079752191 0  0.8201155268708121 0.2494921226395777 0  0.8840698690201967 0.2494541284867496 0  0.9482182047606618 0.2494274464746993 0  1.012504283201094 0.2494151366104261 0  0 0.3125 0  0.06281047882643129 0.3124683087281501 0  0.1256321668726741 0.3124357015877052 0  0.1884766473536089 0.3124012687133619 0  0.2513561785886352 0.3123641227374718 0  0.3142840376953843 0.3123234258708343 0  0.3772748654494078 0.312278438390496 0  0.4403450059827474 0.3122285993463279 0  0.5035128244759258 0.3121736532582002 0  0.5667989626200796 0.3121138396447064 0  0.6302264386808301 0.3120501642257334 0  0.6938203821501661 0.3119847690168795 0  0.7576069540574487 0.311921408110104 0  0.8216105869585808 0.3118660076697828 0  0.8858481915283422 0.3118272348914065 0  0.9503192288485837 0.3118169599570401 0  1.014994138052435 0.3118507233400268 0  0 0.375 0  0.06284724714790438 0.3749639265786295 0  0.1257072662739675 0.3749267203757804 0  0.1885932708716407 0.3748872437640774 0  0.2515193002411012 0.3748443598315535 0  0.3145006446743333 0.3747969505638225 0  0.3775542783062371 0.3747439606491083 0  0.4406992930599634 0.3746844828017872 0  0.5039573142994627 0.374617907911442 0  0.567352853644553 0.3745441735808951 0  0.6309135051584709 0.3744641572129361 0  0.6946697987190676 0.3743802715325635 0  0.7586543686875032 0.3742973214796567 0  0.822899891872384 0.374223648783884 0  0.8874351559499766 0.3741724813844331 0  0.9522791469177194 0.3741631574941197 0  1.017435073770911 0.374221412780649 0  0 0.4375 0  0.06287128952731107 0.4374606776804246 0  0.125756518358611 0.4374200083003976 0  0.1886701284090654 0.4373766227743455 0  0.2516275378366288 0.4373291163456028 0  0.3146456539964755 0.4372760470359509 0  0.3777434112614578 0.4372159591858861 0  0.4409423359327715 0.4371474507856004 0  0.5042671328846294 0.4370693149338471 0  0.5677462750283294 0.4369808038484625 0  0.6314125518709636 0.4368820901207743 0  0.6953034881155871 0.4367750336272682 0  0.7594614649992907 0.4366643943086977 0  0.8239332613079527 0.4365596294370673 0  0.8887686158265394 0.4364773047715057 0  0.9540174325461287 0.4364438098007721 0  1.01972557429615 0.436497431201246 0  0 0.5 0  0.06288143769660169 0.4999587759493686 0  0.1257775120446235 0.4999160110999352 0  0.1887034128502982 0.4998701198785625 0  0.2516754452956427 0.499819431302323 0  0.3147116305243358 0.499762156304373 0  0.3778323574146019 0.4996963727968369 0  0.4410611039763141 0.4996200457292518 0  0.5044252503660358 0.499531113604924 0  0.567957014331865 0.4994276974383572 0  0.6316945579254698 0.4993085289965529 0  0.6956833430364411 0.4991737594218456 0  0.7599778388249482 0.4990263993055152 0  0.8246436454416191 0.4988747345226812 0  0.8897598364513559 0.4987360592466996 0  0.9554205679203589 0.4986417002623831 0  1.021733613677299 0.4986421144178777 0  0 0.5625 0  0.06287699026628701 0.5624584145294111 0  0.1257687756162318 0.5624151387972856 0  0.1886907387084115 0.5623684118967134 0  0.2516594891946822 0.5623163295388122 0  0.314693540876339 0.5622567712564147 0  0.3778140707570067 0.5621873304006392 0  0.4410457978459723 0.5621052569358234 0  0.5044180368306134 0.5620074361739471 0  0.5679660193393975 0.5618904523072431 0  0.6317326537018236 0.5617508351270145 0  0.6957710422908477 0.5615856815348875 0  0.760148311321747 0.561394011116183 0  0.8249515507529759 0.5611794866015961 0  0.8902965098668221 0.5609554572385317 0  0.9563381079835374 0.5607532761842672 0  1.023277426026129 0.5606333165229823 0  0 0.625 0  0.06285778415870566 0.6249597421211021 0  0.1257299272017289 0.6249177157905058 0  0.1886313876113496 0.6248720570582167 0  0.2515784156919847 0.6248207015305668 0  0.3145892827748631 0.6247612683906956 0  0.3776851210916024 0.6246909261590865 0  0.440890929143272 0.6246062369635328 0  0.504236825482402 0.6245029828442396 0  0.5677596965757974 0.6243759948262713 0  0.631505526063033 0.6242190468801835 0  0.6955330023379029 0.6240249735608323 0  0.7599196231089417 0.6237863909530506 0  0.8247725581127018 0.6234978852491447 0  0.8902475800420971 0.6231614852280417 0  0.9565780654472055 0.6227984975169314 0  1.024106436999499 0.6224696014079502 0  0 0.6875 0  0.06282425333175186 0.6874628361089477 0  0.1256618014632137 0.6874239228044984 0  0.1885265224074694 0.6873813966318532 0  0.2514335847192938 0.6873331496122227 0  0.3144001908133489 0.6872766761086422 0  0.3774464519306526 0.6872088785395609 0  0.4405964592506967 0.6871258117918033 0  0.5038796454897974 0.6870223414769215 0  0.5673325992731106 0.6868916885609048 0  0.6310016638896064 0.6867248410367761 0  0.6949470882522333 0.6865098588175533 0  0.7592505970502893 0.686231262123538 0  0.8240307996676862 0.685870223138639 0  0.8894757404847778 0.6854078940927586 0  0.9559067159200664 0.6848385828740587 0  1.023875380432095 0.6842057893696988 0  0 0.75 0  0.06277746410340297 0.7499676767789882 0  0.1255665298175166 0.7499337398478749 0  0.1883793323536454 0.7498964545569257 0  0.2512292138623772 0.7498538231348494 0  0.3141314317726755 0.7498034109013317 0  0.3771040081169312 0.7497421131097339 0  0.4401687854017072 0.7496658267067579 0  0.50335277493873 0.7495689735699836 0  0.5666899244058919 0.7494437937795099 0  0.6302235420516065 0.7492792846077959 0  0.6940099744854316 0.7490596003562195 0  0.7581253514341226 0.7487616676054167 0  0.822681187590519 0.7483518457919582 0  0.8878665405879408 0.7477824172378468 0  0.9540630327160825 0.7469944166893525 0  1.022089096230755 0.7459656392750693 0  0 0.8125 0  0.06271911616816588 0.8124741280666354 0  0.1254475507685712 0.8124469021977001 0  0.1881950702057194 0.8124168561707888 0  0.2509724717031542 0.8123822769807146 0  0.3137921998385476 0.8123410357391169 0  0.3766690994729999 0.8122903524265757 0  0.4396213658905865 0.8122264508093913 0  0.5026717594626824 0.8121440335820077 0  0.5658491450487311 0.8120354619927181 0  0.6291903810775302 0.8118894424841816 0  0.692742544040302 0.811688870824763 0  0.7565657547887358 0.8114071858168135 0  0.820739381943523 0.8110019789547483 0  0.8853884637387319 0.8104034488176743 0  0.9508152285713406 0.8094938201364752 0  1.01812762253539 0.8080752947200336 0  0 0.875 0  0.06265150043857787 0.8749819302908761 0  0.1253095308609123 0.8749628818378825 0  0.1879809477988043 0.8749417888962195 0  0.2506733687208698 0.8749173932090158 0  0.3133956363352227 0.874888108803444 0  0.3761583975168302 0.8748518294699952 0  0.4389748494009784 0.8748056392008732 0  0.5018617054783874 0.8747453602730875 0  0.564840396802882 0.8746648285264581 0  0.6279383587592966 0.8745547048948515 0  0.6911897183672753 0.8744004832304241 0  0.7546332024855501 0.8741790523019443 0  0.8183016441689033 0.8738524572498656 0  0.8821932727685481 0.873355671610375 0  0.9462381788831634 0.8725722392499358 0  1.010597868733293 0.8713121414624819 0  0 0.9375 0  0.06257740916911028 0.9374907088543591 0  0.1251581853302185 0.9374809037440733 0  0.18774586933024 0.9374700231000798 0  0.2503444104452269 0.937457399592287 0  0.3129584206814931 0.9374421847451145 0  0.375593499280345 0.9374232401164828 0  0.4382566631789035 0.93739
[...]
<PointData  Vectors="f_54"> 
<DataArray  type="Float64"  Name="f_54"  NumberOfComponents="3" format="ascii">0.0000000000000000e+00 0.0000000000000000e+00 0.0000000000000000e+00  0.0000000000000000e+00 0.0000000000000000e+00 0.0000000000000000e+00  0.0000000000000000e+00 0.0000000000000000e+00 0.0000000000000000e+00  0.0000000000000000e+00 0.0000000000000000e+00 0.0000000000000000e+00  0.0000000000000000e+00 0.0000000000000000e+00 0.0000000000000000e+00  0.0000000000000000e+00 0.0000000000000000e+00 0.0000000000000000e+00  0.0000000000000000e+00 0.0000000000000000e+00 0.0000000000000000e+00  0.0000000000000000e+00 0.0000000000000000e+00 0.0000000000000000e+00  0.0000000000000000e+00 0.0000000000000000e+00 0.0000000000000000e+00  0.0000000000000000e+00 0.0000000000000000e+00 0.0000000000000000e+00  0.0000000000000000e+00 0.0000000000000000e+00 0.0000000000000000e+00  0.0000000000000000e+00 0.0000000000000000e+00 0.0000000000000000e+00  0.0000000000000000e+00 0.0000000000000000e+00 0.0000000000000000e+00  0.0000000000000000e+00 0.0000000000000000e+00 0.0000000000000000e+00  0.0000000000000000e+00 0.0000000000000000e+00 0.0000000000000000e+00  0.0000000000000000e+00 0.0000000000000000e+00 0.0000000000000000e+00  0.0000000000000000e+00 0.0000000000000000e+00 0.0000000000000000e+00  0.0000000000000000e+00 0.0000000000000000e+00 0.0000000000000000e+00  -1.0362127866634607e-06 -1.9809978187661090e-09 0.0000000000000000e+00  -2.0928572023040614e-06 -3.0990537317893706e-09 0.0000000000000000e+00  -3.1889004620855298e-06 -2.3859468015714904e-09 0.0000000000000000e+00  -4.3395441181775405e-06 1.3344135161436638e-09 0.0000000000000000e+00  -5.5534566301915589e-06 9.5359158185071469e-09 0.0000000000000000e+00  -6.8288004246637016e-06 2.4046448210226821e-08 0.0000000000000000e+00  -8.1473793373712715e-06 4.7025875364773081e-08 0.0000000000000000e+00  -9.4658304791104228e-06 8.0778905720082969e-08 0.0000000000000000e+00  -1.0701870310027472e-05 1.2723537142391033e-07 0.0000000000000000e+00  -1.1711318514062937e-05 1.8675864374755924e-07 0.0000000000000000e+00  -1.2245405815397397e-05 2.5550956990973828e-07 0.0000000000000000e+00  -1.1859614624329634e-05 3.1929585333728841e-07 0.0000000000000000e+00  -9.6875094996855468e-06 3.3740236049213581e-07 0.0000000000000000e+00  -3.7953921079916049e-06 1.9326298714193025e-07 0.0000000000000000e+00  1.0906621896763819e-05 -4.7908197989574725e-07 0.0000000000000000e+00  5.0462589970330163e-05 -3.0043866485729748e-06 0.0000000000000000e+00  0.0000000000000000e+00 0.0000000000000000e+00 0.0000000000000000e+00  -2.0541496043011370e-06 -4.8269013856311167e-09 0.0000000000000000e+00  -4.1511131389203114e-06 -8.0270504404143697e-09 0.0000000000000000e+00  -6.3310937092483359e-06 -7.7580280367816527e-09 0.0000000000000000e+00  -8.6274714152263765e-06 -1.7446569558481590e-09 0.0000000000000000e+00  -1.1061711248895827e-05 1.2924954096307942e-08 0.0000000000000000e+00  -1.3636005413203868e-05 3.9959520445670092e-08 0.0000000000000000e+00  -1.6322470525426720e-05 8.3909882061925027e-08 0.0000000000000000e+00  -1.9047188923452012e-05 1.4996087975410910e-07 0.0000000000000000e+00  -2.1666353251533828e-05 2.4321906728104043e-07 0.0000000000000000e+00  -2.3929637320302100e-05 3.6706568559490256e-07 0.0000000000000000e+00  -2.5421352354202777e-05 5.1987526656800955e-07 0.0000000000000000e+00  -2.5460577682761134e-05 6.8910943928030812e-07 0.0000000000000000e+00  -2.2925779696228881e-05 8.4220275795328392e-07 0.0000000000000000e+00  -1.5965584750310070e-05 9.1933689891768910e-07 0.0000000000000000e+00  -1.7219487260734855e-06 8.6998238302849533e-07 0.0000000000000000e+00  2.2486152998394405e-05 9.8395201436881002e-07 0.0000000000000000e+00  0.0000000000000000e+00 0.0000000000000000e+00 0.0000000000000000e+00  -3.0311517510442243e-06 -9.2978874659435685e-09 0.0000000000000000e+00  -6.1308441079327119e-06 -1.6415589626577923e-08 0.0000000000000000e+00  -9.3644682583086865e-06 -1.8844055082229585e-08 0.0000000000000000e+00  -1.2788903113717790e-05 -1.3399443624196402e-08 0.0000000000000000e+00  -1.6445952723453405e-05 4.1300588677167324e-09 0.0000000000000000e+00  -2.0352705749741584e-05 3.9323749258170505e-08 0.0000000000000000e+00  -2.4487336211516131e-05 9.9384777198180575e-08 0.0000000000000000e+00  -2.8768443412419639e-05 1.9316575864418755e-07 0.0000000000000000e+00  -3.3025465043542686e-05 3.3069306173153041e-07 0.0000000000000000e+00  -3.6957022358002404e-05 5.2174950620258670e-07 0.0000000000000000e+00  -4.0073624959033127e-05 7.7290369984450161e-07 0.0000000000000000e+00  -4.1622773032796801e-05 1.0823981342512562e-06 0.0000000000000000e+00  -4.0505313030036089e-05 1.4331347126447598e-06 0.0000000000000000e+00  -3.5235939022131960e-05 1.7869723697973111e-06 0.0000000000000000e+00  -2.4140455032300074e-05 2.0887409986568269e-06 0.0000000000000000e+00  -6.2720272565155602e-06 2.2690865608290631e-06 0.0000000000000000e+00  0.0000000000000000e+00 0.0000000000000000e+00 0.0000000000000000e+00  -3.9412582460642477e-06 -1.5941637521420706e-08 0.0000000000000000e+00  -7.9808733306868697e-06 -2.9475193431443573e-08 0.0000000000000000e+00  -1.2214350176184331e-05 -3.7759251340507111e-08 0.0000000000000000e+00  -1.6728885469615497e-05 -3.7040194000020350e-08 0.0000000000000000e+00  -2.1596492134983615e-05 -2.2121490573260633e-08 0.0000000000000000e+00  -2.6863490154690805e-05 1.4231037727654822e-08 0.0000000000000000e+00  -3.2534674990554760e-05 8.1913074798001801e-08 0.0000000000000000e+00  -3.8550168973809359e-05 1.9402261083563941e-07 0.0000000000000000e+00  -4.4752827018708508e-05 3.6707154175381543e-07 0.0000000000000000e+00  -5.0844543507098244e-05 6.2041307898894467e-07 0.0000000000000000e+00  -5.6331936237998179e-05 9.7415135232794390e-07 0.0000000000000000e+00  -6.0468099508468086e-05 1.4445211386490779e-06 0.0000000000000000e+00  -6.2212705934332983e-05 2.0356074395491302e-06 0.0000000000000000e+00  -6.0266979720398628e-05 2.7263268715649648e-06 0.0000000000000000e+00  -5.3298694922337993e-05 3.4502760863165384e-06 0.0000000000000000e+00  -4.0507649497973277e-05 4.0567814210108786e-06 0.0000000000000000e+00  0.0000000000000000e+00 0.0000000000000000e+00 0.0000000000000000e+00  -4.7545151481038762e-06 -2.4979476717762515e-08 0.0000000000000000e+00  -9.6411368928960612e-06 -4.7756096677715665e-08 0.0000000000000000e+00  -1.4790401118396984e-05 -6.5619884029383908e-08 0.0000000000000000e+00  -2.0326992219155404e-05 -7.4762988048849623e-08 0.0000000000000000e+00  -2.6363929425494773e-05 -6.9571910164515504e-08 0.0000000000000000e+00  -3.2992824163480130e-05 -4.1733994796433733e-08 0.0000000000000000e+00  -4.0268292078933361e-05 2.0879530525543761e-08 0.0000000000000000e+00  -4.8184221575677997e-05 1.3553532381896782e-07 0.0000000000000000e+00  -5.6639459722234189e-05 3.2601729833159915e-07 0.0000000000000000e+00  -6.5391110960082239e-05 6.2365715443439837e-07 0.0000000000000000e+00  -7.3996111203348763e-05 1.0671373127281885e-06 0.0000000000000000e+00  -8.1747869672189191e-05 1.6994078137530829e-06 0.0000000000000000e+00  -8.7627004833841477e-05 2.5589067807975453e-06 0.0000000000000000e+00  -9.0304368015827944e-05 3.6608180733370662e-06 0.0000000000000000e+00  -8.8250997294407854e-05 4.9629370506330952e-06 0.0000000000000000e+00  -7.9981008513051096e-05 6.3131586967659847e-06 0.0000000000000000e+00  0.0000000000000000e+00 0.0000000000000000e+00 0.0000000000000000e+00  -5.4371847780627430e-06 -3.6201016119150774e-08 0.0000000000000000e+00  -1.1042932148046856e-05 -7.0915218660566671e-08 0.0000000000000000e+00  -1.6986549271515681e-05 -1.0213556804619510e-07 0.0000000000000000e+00  -2.3436365203034220e-05 -1.2669173991711342e-07 0.0000000000000000e+00  -3.0556511052580595e-05 -1.3941691255935680e-07 0.0000000000000000e+00  -3.8499821555140824e-05 -1.3198184380260859e-07 0.0000000000000000e+00  -4.7394688938275285e-05 -9.1247039533382026e-08 0.0000000000000000e+00  -5.7322985611209175e-05 3.0180480674838396e-09 0.0000000000000000e+00  -6.8285483057848429e-05 1.8113457800414280e-07 0.0000000000000000e+00  -8.0150959815500892e-05 4.8708521335275587e-07 0.0000000000000000e+00  -9.2586294671093649e-05 9.8191623265416364e-07 0.0000000000000000e+00  -1.0496875305303133e-04 1.7449616523629227e-06 0.0000000000000000e+00  -1.1629008087106484e-04 2.8685267113081965e-06 0.0000000000000000e+00  -1.2507481048174978e-04 4.4380141371743935e-06 0.0000000000000000e+00  -1.2934514289333299e-04 6.4853444444856602e-06 0.0000000000000000e+00  -1.2665064078777241e-04 8.9021291737837728e-06 0.0000000000000000e+00  0.0000000000000000e+00 0.0000000000000000e+00 0.0000000000000000e+00  -5.9530114414465760e-06 -4.8889267699017842e-08 0.0000000000000000e+00  -1.2111382664992029e-05 -9.7535677899596120e-08 0.0000000000000000e+00  -1.8684494375232622e-05 -1.4525509250066236e-07 0.0000000000000000e+00  -2.5887945339687862e-05 -1.9033140094508933e-07 0.0000000000000000e+00  -3.3944533675411072e-05 -2.2917788212774237e-07 0.0000000000000000e+00  -4.3081950149826408e-05 -2.5503360449314753e-07 0.0000000000000000e+00  -5.3524876364870583e-05 -2.5590973741434710e-07 0.0000000000000000e+00  -6.5477944921372237e-05 -2.1139011287158565e-07 0.0000000000000000e+00  -7.9094329843396383e-05 -8.7789249301565285e-08 0.0000000000000000e+00  -9.4422738596733170e-05 1.6881124889762158e-07 0.0000000000000000e+00  -1.1132387716494000e-04 6.4171362031241793e-07 0.0000000000000000e+00  -1.2934755490610087e-04 1.4536036454088432e-06 0.0000000000000000e+00  -1.4756623582097575e-04 2.7726046703950445e-06 0.0000000000000000e+00  -1.6437335285943456e-04 4.8027350045159702e-06 0.0000000000000000e+00  -1.7727515956636157e-04 7.7365773260824331e-06 0.0000000000000000e+00  -1.8272211065608951e-04 1.1638141124354025e-05 0.0000000000000000e+00  0.0000000000000000e+00 0.0000000000000000e+00 0.0000000000000000e+00  -6.2655966225002352e-06 -6.1806208933498353e-08 0.0000000000000000e+00  -1.2770257651468557e-05 -1.2506564171558642e-07 0.0000000000000000e+00  -1.9761071406772028e-05 -1.9098293369399522e-07 0.0000000000000000e+00  -2.7500409059065105e-05 -2.6011872628588258e-07 0.0000000000000000e+00  -3.6272618711954338e-05 -3.3173604785228226e-07 0.0000000000000000e+00  -4.6388817247250691e-05 -4.0262628999645711e-07 0.0000000000000000e+00  -5.8187716588020283e-05 -4.6501097491220916e-07 0.0000000000000000e+00  -7.2028672905487891e-05 -5.0285619068626989e-07 0.0000000000000000e+00  -8.8270269199085312e-05 -4.8555171812286037e-07 0.0000000000000000e+00  -1.0722331996354305e-04 -3.5742462415977781e-07 0.0000000000000000e+00  -1.2906112745627939e-04 -2.1197924278344120e-08 0.0000000000000000e+00  -1.5366327837338929e-04 6.8598339142231302e-07 0.0000000000000000e+00  -1.8036654040555516e-04 2.0220255010829041e-06 0.0000000000000000e+00  -2.0760730300861018e-04 4.3629023283283322e-06 0.0000000000000000e+00  -2.3247839673828726e-04 8.1852311452628375e-06 0.0000000000000000e+00  -2.5028942184012989e-04 1.3940168509041348e-05 0.0000000000000000e+00  0.0000000000000000e+00 0.0000000000000000e+00 0.0000000000000000e+00  -6.3418043723690787e-06 -7.3270046496498078e-08 0.0000000000000000e+00  -1.2949031080101997e-05 -1.4995036848739385e-07 0.0000000000000000e+00  -2.0099423387985477e-05 -2.3350728208936401e-07 0.0000000000000000e+00  -2.8096015354439928e-05 -3.2741804184874728e-07 0.0000000000000000e+00  -3.7280645469522878e-05 -4.3493698041179757e-07 0.0000000000000000e+00  -4.8047940209188272e-05 -5.5843375352249128e-07 0.0000000000000000e+00  -6.0858653251500479e-05 -6.9787007552094252e-07 0.0000000000000000e+00  -7.6249329200306387e-05 -8.4758790237177345e-07 0.0000000000000000e+00  -9.4831528783810671e-05 -9.8986717451756950e-07 0.0000000000000000e+00  -1.1726697771687662e-04 -1.0824812269378926e-06 0.0000000000000000e+00  -1.4419326699321433e-04 -1.0355662740947406e-06 0.0000000000000000e+00  -1.7605708126598529e-04 -6.7079244849410621e-07 0.0000000000000000e+00  -2.1279167536479213e-04 3.4489810437322175e-07 0.0000000000000000e+00  -2.5326916656833907e-04 2.5907031118352202e-06 0.0000000000000000e+00  -2.9450894712921568e-04 6.9742052474005324e-06 0.0000000000000000e+00  -3.3078714143062261e-04 1.4689469940343387e-05 0.0000000000000000e+00  0.0000000000000000e+00 0.0000000000000000e+00 0.0000000000000000e+00  -6.1559454510603880e-06 -8.1345670613812881e-08 0.0000000000000000e+00  -1.2591717722674457e-05 -1.6801458579496037e-07 0.0000000000000000e+00  -1.9603416977654260e-05 -2.6576517909836870e-07 0.0000000000000000e+00  -2.7521938080230462e-05 -3.8121692555449798e-07 0.0000000000000000e+00  -3.6733563362743719e-05 -5.2225181865602054e-07 0.0000000000000000e+00  -4.7704329764751729e-05 -6.9827569095696158e-07 0.0000000000000000e+00  -6.1008945493998418e-05 -9.2004539180161641e-07 0.0000000000000000e+00  -7.7363717524716046e-05 -1.1983583976166485e-06 0.0000000000000000e+00  -9.7659561623377532e-05 -1.5400137836552308e-06 0.0000000000000000e+00  -1.2298331325032879e-04 -1.9375735618808389e-06 0.0000000000000000e+00  -1.5459883618292516e-04 -2.3456112618443984e-06 0.0000000000000000e+00  -1.9382697496308211e-04 -2.6287947389669888e-06 0.0000000000000000e+00  -2.4170882192955302e-04 -2.4551428907221430e-06 0.0000000000000000e+00  -2.9827037839806484e-04 -1.0963519029548202e-06 0.0000000000000000e+00  -3.6120672289039607e-04 2.8782678092385144e-06 0.0000000000000000e+00  -4.2409293790034657e-04 1.1842337923942339e-05 0.0000000000000000e+00  0.0000000000000000e+00 0.0000000000000000e+00 0.0000000000000000e+00  -5.6942800452483613e-06 -8.4146373676196839e-08 0.0000000000000000e+00  -1.1666572053738251e-05 -1.7510370402331473e-07 0.0000000000000000e+00  -1.8213979622685952e-05 -2.8049552226436911e-07 0.0000000000000000e+00  -2.5675531453890279e-05 -4.0968353957555722e-07 0.0000000000000000e+00  -3.4458785686061087e-05 -5.7490631562753498e-07 0.0000000000000000e+00  -4.5073961061647325e-05 -7.9273728707738916e-07 0.0000000000000000e+00  -5.8179119067566855e-05 -1.0859133542578766e-06 0.0000000000000000e+00  -7.4640313571096460e-05 -1.4853858458813274e-06 0.0000000000000000e+00  -9.5609757306807324e-05 -2.0318341792307692e-06 0.0000000000000000e+00  -1.2262015922630143e-04 -2.7741728754437911e-06 0.0000000000000000e+00  -1.5767762163942280e-04 -3.7580244724950121e-06 0.0000000000000000e+00  -2.0329329832065969e-04 -4.9853699408822403e-06 0.0000000000000000e+00  -2.6229457120755743e-04 -6.2974809004015004e-06 0.0000000000000000e+00  -3.3705748582748093e-04 -7.0677323839795203e-06 0.0000000000000000e+00  -4.2753639610213634e-04 -5.4842967237046249e-06 0.0000000000000000e+00  -5.2760908415314123e-04 2.7311120146442335e-06 0.0000000000000000e+00  0.0000000000000000e+00 0.0000000000000000e+00 0.0000000000000000e+00  -4.9591652796867682e-06 -8.0209606171394048e-08 0.0000000000000000e+00  -1.0175239403097520e-05 -1.6791269523294595e-07 0.0000000000000000e+00  -1.5925108853323823e-05 -2.7168850419649628e-07 0.0000000000000000e+00  -2.2530372255688886e-05 -4.0251794450538738e-07 0.0000000000000000e+00  -3.0387246343133581e-05 -5.7555418170367682e-07 0.0000000000000000e+00  -4.0007212397769828e-05 -8.1271565294240228e-07 0.0000000000000000e+00  -5.2074904154242629e-05 -1.1466270946175999e-06 0.0000000000000000e+00  -6.7532792575456833e-05 -1.6266770337906492e-06 0.0000000000000000e+00  -8.7706378022737465e-05 -2.3282181323696212e-06 0.0000000000000000e+00  -1.1448772843209852e-04 -3.3658856555398463e-06 0.0000000000000000e+00  -1.5059391337307468e-04 -4.9103523935945917e-06 0.0000000000000000e+00  -1.9989115555857140e-04 -7.1998095615185311e-06 0.0000000000000000e+00  -2.6766655855820295e-04 -1.0505836177748037e-05 0.0000000000000000e+00  -3.6037560252533775e-04 -1.4895680417971046e-05 0.0000000000000000e+00  -4.8346731788125735e-04 -1.9214445421174353e-05 0.0000000000000000e+00  -6.3513814419300513e-04 -1.7626304636271016e-05 0.0000000000000000e+00  0.0000000000000000e+00 0.0000000000000000e+00 0.0000000000000000e+00  -3.9720205370955179e-06 -6.8871077475799221e-08 0.0000000000000000e+00  -8.1595491820199293e-06 -1.4483828923811804e-07 0.0000000000000000e+00  -1.2796439572811199e-05 -2.3615446164102084e-07 0.0000000000000000e+00  -1.8158172674467977e-05 -3.5368180773640893e-07 0.0000000000000000e+00  -2.4590832416326766e-05 -5.1294539738780824e-07 0.0000000000000000e+00  -3.2552204359392719e-05 -7.3734385791526502e-07 0.0000000000000000e+00  -4.2673490335991546e-05 -1.0634360498162518e-06 0.0000000000000000e+00  -5.5855794150944326e-05 -1.5499422697895525e-06 0.0000000000000000e+00  -7.3425626426079475e-05 -2.2934652059225705e-06 0.0000000000000000e+00  -9.7391300947592601e-05 -3.4565408629974220e-06 0.0000000000000000e+00  -1.3087100733162444e-04 -5.3185517280167776e-06 0.0000000000000000e+00  -1.7880195308336546e-04 -8.3687992900819784e-06 0.0000000000000000e+00  -2.4904987440606431e-04 -1.3472590653679140e-05 0.0000000000000000e+00  -3.5379932585600946e-04 -2.2124563553837372e-05 0.0000000000000000e+00  -5.0948852769958661e-04 -3.6460032602737709e-05 0.0000000000000000e+00  -7.2322035031662044e-04 -5.4844356586327054e-05 0.0000000000000000e+00  0.0000000000000000e+00 0.0000000000000000e+00 0.0000000000000000e+00  -2.7742787735821368e-06 -5.0535504353760793e-08 0.0000000000000000e+00  -5.7040484908145444e-06 -1.0662002119266751e-07 0.0000000000000000e+00  -8.9588620704119881e-06 -1.7477436229165681e-07 0.0000000000000000e+00  -1.2740481843889309e-05 -2.6373807746210710e-07 0.0000000000000000e+00  -1.7305933201722011e-05 -3.8628407322202210e-07 0.0000000000000000e+00  -2.3001184943340945e-05 -5.6216126298757485e-07 0.0000000000000000e+00  -3.0313615223481950e-05 -8.2314804293846190e-07 0.0000000000000000e+00  -3.9957917963684575e-05 -1.2220953244154861e-06 0.0000000000000000e+00  -5.3023132077827032e-05 -1.8497121283184533e-06 0.0000000000000000e+00  -7.1235449488661479e-05 -2.8669269731959864e-06 0.0000000000000000e+00  -9.7449125343654545e-05 -4.5700462321750108e-06 0.0000000000000000e+00  -1.3660396886019870e-04 -7.5293252773116126e-06 0.0000000000000000e+00  -1.9766462558239831e-04 -1.2907441388372841e-05 0.0000000000000000e+00  -2.9764907603003766e-04 -2.3287791693002048e-05 0.0000000000000000e+00  -4.7015522854013044e-04 -4.5330612074190087e-05 0.0000000000000000e+00  -7.8649863319525508e-04 -1.0193282839244123e-04 0.0000000000000000e+00  0.0000000000000000e+00 0.0000000000000000e+00 0.0000000000000000e+00  -1.4257137705087967e-06 -2.6746300182823707e-08 0.0000000000000000e+00  -2.9328006014507512e-06 -5.6534075208818823e-08 0.0000000000000000e+00  -4.6102334325091833e-06 -9.2957738016713581e-08 0.0000000000000000e+00  -6.5644866526194096e-06 -1.4088203222077174e-07 0.0000000000000000e+00  -8.9322558823271138e-06 -2.0750121361084316e-07 0.0000000000000000e+00  -1.1899346058997106e-05 -3.0408682360521582e-07 0.0000000000000000e+00  -1.5730701683552618e-05 -4.4904630603094763e-07 0.0000000000000000e+00  -2.0820881302002307e-05 -6.7350734988804879e-07 0.0000000000000000e+00  -2.7783499643836597e-05 -1.0318951909337561e-06 0.0000000000000000e+00  -3.7618902573992411e-05 -1.6226684359005325e-06 0.0000000000000000e+00  -5.2048989698173296e-05 -2.6302177781032929e-06 0.0000000000000000e+00  -7.4234489133903771e-05 -4.4109877064278794e-06 0.0000000000000000e+00  -1.1042508985071205e-04 -7.6662651575712698e-06 0.0000000000000000e+00  -1.7393896057230944e-04 -1.3731778206828691e-05 0.0000000000000000e+00  -2.9405716188244378e-04 -2.4616495523647600e-05 0.0000000000000000e+00  -5.2343947485824723e-04 -3.9807899566723561e-05 0.0000000000000000e+00  0.0000000000000000e+00 0.0000000000000000e+00 0.0000000000000000e+00  0.0000000000000000e+00 0.0000000000000000e+00 0.0000000000000000e+00  0.0000000000000000e+00 0.0000000000000000e+00 0.0000000000000000e+00  0.0000000000000000e+00 0.0000000000000000e+00 0.0000000000000000e+00  0.0000000000000000e+00 0.0000000000000000e+00 0.0000000000000000e+00  0.0000000000000000e+00 0.0000000000000000e+00 0.0000000000000000e+00  0.0000000000000000e+00 0.00000000000000