<?xml version="1.0"?>
<VTKFile type="UnstructuredGrid"  version="0.1"  >
<UnstructuredGrid>
<Piece  NumberOfPoints="289" NumberOfCells="512">
<Points>
<DataArray  type="Float64"  NumberOfComponents="3"  format="ascii">0 0 0  0.0625 0 0  0.125 0 0  0.1875 0 0  0.25 0 0  0.3125 0 0  0.375 0 0  0.4375 0 0  0.5 0 0  0.5625 0 0  0.625 0 0  0.6875 0 0  0.75 0 0  0.8125 0 0  0.875 0 0  0.9375 0 0  1 0 0  0 0.0625 0  0.06248345547015225 0.06249643170115276 0  0.1249663503822604 0.06249281421676789 0  0.1874481101942151 0.06248910649910187 0  0.2499281358814059 0.06248528509464654 0  0.3124057919965481 0.06248135522007287 0  0.3748803945023967 0.0624773642324897 0  0.4373511965019183 0.06247341750867574 0  0.4998173663479555 0.06246969566721431 0  0.5622779431553917 0.06246647027727681 0  0.6247317293965621 0.06246411288898938 0  0.6871770083234653 0.06246309167704429 0  0.749610752319927 0.06246396305351688 0  0.8120262341472658 0.06246744771820539 0  0.8744051043677806 0.06247509535274697 0  0.9366881527184745 0.06249313889679047 0  0.9986557402188163 0.062554176966022 0  0 0.125 0  0.06246745432094029 0.124992913515932 0  0.1249338019458398 0.1249857203631021 0  0.1873979096233133 0.1249783291897194 0  0.2498585981704768 0.1249706819905713 0  0.3123146220348131 0.1249627756425338 0  0.3747646517893671 0.1249546887863391 0  0.4372072594936275 0.1249466145942543 0  0.4996409041295456 0.1249388980241506 0  0.5620639071519554 0.1249320724791129 0  0.6244743904952109 0.1249268842820385 0  0.6868701073701983 0.1249242822700238 0  0.7492480014688905 0.12492532942894 0  0.8116031479731067 0.1249309411954009 0  0.8739266118370965 0.1249411342835753 0  0.9362036637538366 0.1249522191651578 0  0.998432962512301 0.1249424958114072 0  0 0.1875 0  0.06245254981922403 0.1874895030864474 0  0.1249034720877525 0.1874788263793804 0  0.1873511007986534 0.1874678105924574 0  0.2497937035378417 0.1874563416460825 0  0.312229454488516 0.1874443811768544 0  0.3746564161771089 0.1874320062794176 0  0.4370725345106193 0.1874194605736361 0  0.4994756525903882 0.1874072166747246 0  0.5618635491517516 0.187396045795327 0  0.6242340066285954 0.1873870816587662 0  0.6865849123449509 0.1873818499526945 0  0.7489144028420479 0.1873822050783102 0  0.8112211225798267 0.1873900594465723 0  0.8735049839394622 0.1874066802681769 0  0.9357700697393704 0.1874311934857703 0  0.9980346354446529 0.1874588404263761 0  0 0.25 0  0.06243927115018484 0.2499862736805401 0  0.1248764297766795 0.2499722734774633 0  0.1873093123923833 0.2499577480563292 0  0.2497356662858274 0.2499424968197797 0  0.3121531149944448 0.2499264065036084 0  0.3745591389207867 0.249909501716594 0  0.4369510810318204 0.2498920143189071 0  0.4993261923655815 0.2498744756143585 0  0.5616817388126392 0.2498578322868917 0  0.6240152000715928 0.2498435797882622 0  0.6863246056518688 0.2498338922531796 0  0.7486090771705098 0.2498317016025934 0  0.8108696998103841 0.24984063683739 0  0.8731109814882614 0.2498646868231254 0  0.9353434667845346 0.2499074683737521 0  0.9975883726495678 0.2499713293173706 0  0 0.3125 0  0.06242810998033262 0.3124833195216286 0  0.1248536700917354 0.3124662479764836 0  0.1872740650041621 0.3124484145378889 0  0.2496865614976927 0.3124294956306007 0  0.3120882621528911 0.312409252759946 0  0.3744760788986369 0.3123875890370368 0  0.4368467409375421 0.3123646330704278 0  0.499196859505236 0.3123408603187155 0  0.5615230828370562 0.312317262367389 0  0.6238223882414815 0.3122955719113296 0  0.6860925723428317 0.3122785418662175 0  0.7483330111121527 0.3122702553255058 0  0.8105457635495321 0.3122764025378124 0  0.8727370904875773 0.3123044013088145 0  0.9349194773022759 0.312363181928953 0  0.9971142918462591 0.312462458068085 0  0 0.375 0  0.06241950599248665 0.3749807579135332 0  0.1248360867120801 0.3749609867747895 0  0.187246733984076 0.3749401701042958 0  0.2496482847994424 0.3749178237397071 0  0.3120373563567795 0.3748935277943577 0  0.374410302061763 0.3748669806414008 0  0.4367632059590826 0.3748380875098209 0  0.4990919439638853 0.3748071010795692 0  0.5613923553321027 0.3747748372795082 0  0.6236605857742898 0.3747429948882888 0  0.6858936791699491 0.3747146085575283 0  0.7480904957711171 0.3746946525868317 0  0.8102530016935462 0.3746907701044132 0  0.8723878905677008 0.3747140030014677 0  0.9345083733329902 0.3747792161173016 0  0.9966358423022931 0.3749046520816144 0  0 0.4375 0  0.06241383077368269 0.4374787269340155 0  0.1248244405513491 0.4374567737628454 0  0.1872285050374249 0.4374334594938371 0  0.2496224996573738 0.4374081077331502 0  0.3120026078834669 0.4373800637541313 0  0.3743646464491845 0.4373487335723316 0  0.4367040256116679 0.4373136602851935 0  0.4990157769107331 0.4372746615150785 0  0.5612947025041951 0.4372320645672871 0  0.6235357292312372 0.4371870933034596 0  0.6857345816396789 0.437142480556995 0  0.7478889033287618 0.4371033925055594 0  0.8099999162476369 0.4370787296978303 0  0.8720745540980823 0.4370827543005149 0  0.9341276943553529 0.4371366880010117 0  0.9961837070047763 0.4372693507642088 0  0 0.5 0  0.06241136981361368 0.4999773776749373 0  0.1248193235374804 0.4999539247505752 0  0.1872203197303307 0.4999287910596164 0  0.2496105655539131 0.4999010913216448 0  0.3119858910962865 0.4998698976136816 0  0.3743416301110992 0.4998342485825693 0  0.4366725225648455 0.4997931902954078 0  0.4989726720879774 0.4997458751065976 0  0.5612356225064581 0.4996917644154105 0  0.6234546680332659 0.4996310129177543 0  0.6856235833267581 0.4995651600799362 0  0.7477380362507206 0.4994983177078646 0  0.8097979630327932 0.4994390969927274 0  0.8718109865334873 0.4994034781473419 0  0.9337963017156081 0.4994184750505982 0  0.9957872727158456 0.4995254220371896 0  0 0.5625 0  0.06241230308721026 0.5624768605930875 0  0.1248211181437263 0.5624527595950507 0  0.1872228108646061 0.5624266938770108 0  0.249613445046511 0.562397577312478 0  0.3119886189409142 0.5623642004686334 0  0.3743432906210167 0.5623251954558836 0  0.4366715996680271 0.5622790157229101 0  0.4989667113035605 0.5622239521476647 0  0.5612207490684793 0.5621582291933283 0  0.6234249613851002 0.5620802674888374 0  0.6855704103440589 0.5619892777392259 0  0.7476496916976678 0.561886487909898 0  0.8096604321106745 0.5617775176389105 0  0.8716112650081523 0.5616766486938092 0  0.9335298850301846 0.5616136821245308 0  0.9954695185996223 0.5616427993444897 0  0 0.625 0  0.06241668562361551 0.6249773065602449 0  0.124829955400742 0.6249535623483682 0  0.1872362315009255 0.624927653163207 0  0.249631593785327 0.624898332943044 0  0.3120115804999911 0.6248641469595392 0  0.3743709548822431 0.6248233429968489 0  0.4367034299523396 0.6247737697544328 0  0.4990013572599223 0.6247127685893609 0  0.5612554247071169 0.6246370815276389 0  0.6234545085233268 0.6245428377990278 0  0.6855860531124752 0.6244257706633006 0  0.7476378180640634 0.6242820148668377 0  0.8096026199223013 0.6241102556775446 0  0.871488541370209 0.6239167963434852 0  0.9333363813073724 0.6237261694092798 0  0.9952395097957014 0.6235993775128345 0  0 0.6875 0  0.0624244304309284 0.6874788045762517 0  0.1248456764255056 0.6874565332720185 0  0.1872603857699938 0.687432029397125 0  0.2496648448894222 0.6874039644456106 0  0.3120547551732613 0.6873707284220784 0  0.3744249507118728 0.6873302886526574 0  0.4367690285165627 0.6872800018416166 0  0.4990788601602756 0.6872163611485477 0  0.5613439704235591 0.687134659915146 0  0.6235508482905173 0.6870285651467175 0  0.685682515340419 0.6868896430868056 0  0.747719392588397 0.6867070432342803 0  0.8096442238033724 0.6864680490294224 0  0.8714571620832517 0.6861616493512228 0  0.9332108270330692 0.6857909723090919 0  0.9950686848458021 0.6854060490032855 0  0 0.75 0  0.06243529693774237 0.749981379558374 0  0.1248678045618041 0.7499617399200688 0  0.1872945739856236 0.749939972811844 0  0.2497123075149319 0.7499147777202532 0  0.3121171318342264 0.7498845319090401 0  0.3745042943954762 0.7498471126773306 0  0.4368677323614872 0.7497996425203046 0  0.4991994365742473 0.7497381126836303 0  0.5614884989281581 0.7496568162084293 0  0.6237197154537092 0.74954748346367 0  0.6858717298308169 0.7493979586313319 0  0.7479153347230854 0.7491902038572729 0  0.809814926111832 0.7488975159029154 0  0.8715435065604055 0.7484818765746946 0  0.933139708493109 0.747898190309789 0  0.9948476806712191 0.7471410142051986 0  0 0.8125 0  0.06244888845352706 0.8124849746905081 0  0.1248955363888146 0.8124690771631741 0  0.1873375678072845 0.8124513504717071 0  0.2497723074366852 0.8124306529202369 0  0.3121965792353268 0.8124055282446969 0  0.3746064249732061 0.8123740212619385 0  0.4369966804327771 0.8123334018790938 0  0.4993602969123332 0.8122797366959753 0  0.5616872006317096 0.8122072045845717 0  0.6239623088672441 0.8121069719270294 0  0.6861620442276324 0.8119652812260655 0  0.7482484457066705 0.8117600552596104 0  0.8101608595276428 0.8114545056600534 0  0.8718128929400706 0.8109843714285189 0  0.9331434718652662 0.8102321639594842 0  0.9944698283342851 0.808987656890149 0  0 0.875 0  0.06246466171666238 0.874989442984085 0  0.1249277592153257 0.8749782467483026 0  0.1873876312119677 0.8749657054424577 0  0.2498424007261948 0.8749509669299911 0  0.3122898273660629 0.8749329273917364 0  0.3747270961940287 0.8749100781385957 0  0.4371504882808009 0.8748802705494932 0  0.4995548240453872 0.8748403419725608 0  0.5619324487555091 0.8747855035190344 0  0.6242712449311199 0.874708312535703 0  0.6865504731082804 0.8745968970461958 0  0.7487315956224735 0.8744317451300515 0  0.8107374231036907 0.8741793722542403 0  0.8724053351513823 0.8737776781562528 0  0.9333942736734272 0.8730937555535532 0  0.9931093890495926 0.8717695267237172 0  0 0.9375 0  0.06248195014464138 0.9374945515884688 0  0.1249630994073268 0.9374887647547097 0  0.1874425974263174 0.9374822643234501 0  0.2499194837681005 0.9374745941055996 0  0.312392612841005 0.9374651576824036 0  0.3748605465946839 0.9374531312375848 0  0.437321385937
[...]
<PointData  Vectors="f_54"> 
<DataArray  type="Float64"  Name="f_54"  NumberOfComponents="3" format="ascii">0.0000000000000000e+00 0.0000000000000000e+00 0.0000000000000000e+00  0.0000000000000000e+00 0.0000000000000000e+00 0.0000000000000000e+00  0.0000000000000000e+00 0.0000000000000000e+00 0.0000000000000000e+00  0.0000000000000000e+00 0.0000000000000000e+00 0.0000000000000000e+00  0.0000000000000000e+00 0.0000000000000000e+00 0.0000000000000000e+00  0.0000000000000000e+00 0.0000000000000000e+00 0.0000000000000000e+00  0.0000000000000000e+00 0.0000000000000000e+00 0.0000000000000000e+00  0.0000000000000000e+00 0.0000000000000000e+00 0.0000000000000000e+00  0.0000000000000000e+00 0.0000000000000000e+00 0.0000000000000000e+00  0.0000000000000000e+00 0.0000000000000000e+00 0.0000000000000000e+00  0.0000000000000000e+00 0.0000000000000000e+00 0.0000000000000000e+00  0.0000000000000000e+00 0.0000000000000000e+00 0.0000000000000000e+00  0.0000000000000000e+00 0.0000000000000000e+00 0.0000000000000000e+00  0.0000000000000000e+00 0.0000000000000000e+00 0.0000000000000000e+00  0.0000000000000000e+00 0.0000000000000000e+00 0.0000000000000000e+00  0.0000000000000000e+00 0.0000000000000000e+00 0.0000000000000000e+00  0.0000000000000000e+00 0.0000000000000000e+00 0.0000000000000000e+00  0.0000000000000000e+00 0.0000000000000000e+00 0.0000000000000000e+00  4.1136326666055104e-06 -1.7659929372529509e-08 0.0000000000000000e+00  8.3466992313603375e-06 -3.6166479939637105e-08 0.0000000000000000e+00  1.2818811966186216e-05 -5.6435849672130535e-08 0.0000000000000000e+00  1.7648675332677419e-05 -7.9531398225152316e-08 0.0000000000000000e+00  2.2952514378134162e-05 -1.0676897268424863e-07 0.0000000000000000e+00  2.8841138461844716e-05 -1.3987104185997131e-07 0.0000000000000000e+00  3.5415250124427957e-05 -1.8120990576495232e-07 0.0000000000000000e+00  4.2758845713019736e-05 -2.3421803219453273e-07 0.0000000000000000e+00  5.0931220432092343e-05 -3.0413093786278948e-07 0.0000000000000000e+00  5.9959847645569613e-05 -3.9944943040335629e-07 0.0000000000000000e+00  6.9841166939863555e-05 -5.3513357749698928e-07 0.0000000000000000e+00  8.0570275732769417e-05 -7.4052646014707266e-07 0.0000000000000000e+00  9.2265527203737506e-05 -1.0820495351331322e-06 0.0000000000000000e+00  1.0561285737353913e-04 -1.7381458321420023e-06 0.0000000000000000e+00  1.2345568753107633e-04 -3.2780863893303561e-06 0.0000000000000000e+00  1.5668353888551446e-04 -7.7779373725686549e-06 0.0000000000000000e+00  0.0000000000000000e+00 0.0000000000000000e+00 0.0000000000000000e+00  8.1051636517039177e-06 -3.4461675633958587e-08 0.0000000000000000e+00  1.6449177301270251e-05 -7.0547144742296618e-08 0.0000000000000000e+00  2.5271632343560495e-05 -1.1000741616011554e-07 0.0000000000000000e+00  3.4811171691275322e-05 -1.5486108959453222e-07 0.0000000000000000e+00  4.5302784830297411e-05 -2.0758156275180274e-07 0.0000000000000000e+00  5.6972317001503541e-05 -2.7136401604807391e-07 0.0000000000000000e+00  7.0027247290310854e-05 -3.5053202401764861e-07 0.0000000000000000e+00  8.4643009577315174e-05 -4.5118966624981454e-07 0.0000000000000000e+00  1.0094480246348635e-04 -5.8231476626622903e-07 0.0000000000000000e+00  1.1898643281048472e-04 -7.5766110224010927e-07 0.0000000000000000e+00  1.3873109070942642e-04 -9.9913504570649225e-07 0.0000000000000000e+00  1.6004512226480152e-04 -1.3426076987869555e-06 0.0000000000000000e+00  1.8272349171492865e-04 -1.8459723780842725e-06 0.0000000000000000e+00  2.0655208565558840e-04 -2.5874013369863489e-06 0.0000000000000000e+00  2.3122315870407963e-04 -3.5672982284777745e-06 0.0000000000000000e+00  2.5467400571549924e-04 -4.0136397005374708e-06 0.0000000000000000e+00  0.0000000000000000e+00 0.0000000000000000e+00 0.0000000000000000e+00  1.1854808578916603e-05 -4.9626498308954444e-08 0.0000000000000000e+00  2.4067685741944550e-05 -1.0152849934121553e-07 0.0000000000000000e+00  3.6998788481889623e-05 -1.5814628322638704e-07 0.0000000000000000e+00  5.1009060779830088e-05 -2.2226392645079748e-07 0.0000000000000000e+00  6.6457346192819113e-05 -2.9724172503923577e-07 0.0000000000000000e+00  8.3693282616458718e-05 -3.8733544770586969e-07 0.0000000000000000e+00  1.0304429195736291e-04 -4.9815935781779888e-07 0.0000000000000000e+00  1.2479493035905584e-04 -6.3738278636833593e-07 0.0000000000000000e+00  1.4915707976488073e-04 -8.1580353384515485e-07 0.0000000000000000e+00  1.7623009120447392e-04 -1.0490219781387031e-06 0.0000000000000000e+00  2.0595091294010965e-04 -1.3600385065817812e-06 0.0000000000000000e+00  2.3803408608835799e-04 -1.7831507774588365e-06 0.0000000000000000e+00  2.7189463548656345e-04 -2.3694448985792835e-06 0.0000000000000000e+00  3.0651576793744805e-04 -3.1950400143063684e-06 0.0000000000000000e+00  3.4012955734107167e-04 -4.3882946743915807e-06 0.0000000000000000e+00  3.6943794477842305e-04 -6.3242312067108871e-06 0.0000000000000000e+00  0.0000000000000000e+00 0.0000000000000000e+00 0.0000000000000000e+00  1.5243065502506461e-05 -6.2501626104970245e-08 0.0000000000000000e+00  3.0962164543544899e-05 -1.2776855069154583e-07 0.0000000000000000e+00  4.7637916021359512e-05 -1.9874530302689902e-07 0.0000000000000000e+00  6.5756099078886844e-05 -2.7874671289136794e-07 0.0000000000000000e+00  8.5806101228395523e-05 -3.7169757124007312e-07 0.0000000000000000e+00  1.0827388203124433e-04 -4.8244674928853933e-07 0.0000000000000000e+00  1.3362693089169372e-04 -6.1719628868700616e-07 0.0000000000000000e+00  1.6228823656994659e-04 -7.8409863518283022e-07 0.0000000000000000e+00  1.9459590463873872e-04 -9.9408633775016481e-07 0.0000000000000000e+00  2.3074485683903249e-04 -1.2619973310455281e-06 0.0000000000000000e+00  2.7070692176991398e-04 -1.6080232495575608e-06 0.0000000000000000e+00  3.1412479868286457e-04 -2.0594122375140410e-06 0.0000000000000000e+00  3.6017156850616787e-04 -2.6522475292306997e-06 0.0000000000000000e+00  4.0735681727370514e-04 -3.4333855816582786e-06 0.0000000000000000e+00  4.5324454636871037e-04 -4.4638965499939752e-06 0.0000000000000000e+00  4.9406518945551000e-04 -5.8176960609821558e-06 0.0000000000000000e+00  0.0000000000000000e+00 0.0000000000000000e+00 0.0000000000000000e+00  1.8151798881977111e-05 -7.2596955551697579e-08 0.0000000000000000e+00  3.6894003808125855e-05 -1.4827306919628149e-07 0.0000000000000000e+00  5.6825535239240813e-05 -2.3027988363157852e-07 0.0000000000000000e+00  7.8558187945842865e-05 -3.2222127681450874e-07 0.0000000000000000e+00  1.0271848857505761e-04 -4.2826976213058235e-07 0.0000000000000000e+00  1.2994324376701500e-04 -5.5343472361242211e-07 0.0000000000000000e+00  1.6086547158434731e-04 -7.0390427315452389e-07 0.0000000000000000e+00  1.9608643267533595e-04 -8.8747911103284170e-07 0.0000000000000000e+00  2.3612841380233872e-04 -1.1140969036781820e-06 0.0000000000000000e+00  2.8136199352515336e-04 -1.3963858009117039e-06 0.0000000000000000e+00  3.3190111697903378e-04 -1.7500431787544968e-06 0.0000000000000000e+00  3.8746000460799303e-04 -2.1935456179860036e-06 0.0000000000000000e+00  4.4716877055149925e-04 -2.7461721004582809e-06 0.0000000000000000e+00  5.0935253152704712e-04 -3.4223692889149616e-06 0.0000000000000000e+00  5.7130141977241190e-04 -4.2180246755413675e-06 0.0000000000000000e+00  6.2912445255641780e-04 -5.0746684142583627e-06 0.0000000000000000e+00  0.0000000000000000e+00 0.0000000000000000e+00 0.0000000000000000e+00  2.0466599127625055e-05 -7.9599195281332586e-08 0.0000000000000000e+00  4.1630447481279014e-05 -1.6242199686755384e-07 0.0000000000000000e+00  6.4202794753337244e-05 -2.5184141482034935e-07 0.0000000000000000e+00  8.8919196080044258e-05 -3.5153227214487573e-07 0.0000000000000000e+00  1.1654728849887035e-04 -4.6564436462800688e-07 0.0000000000000000e+00  1.4788821879616962e-04 -5.9900306271503281e-07 0.0000000000000000e+00  1.8376785014584193e-04 -7.5734571913149707e-07 0.0000000000000000e+00  2.2501228062543532e-04 -9.4759438969275417e-07 0.0000000000000000e+00  2.7240024921331237e-04 -1.1781384072934227e-06 0.0000000000000000e+00  3.2658299432658912e-04 -1.4590253005128897e-06 0.0000000000000000e+00  3.8796084882710872e-04 -1.8017756353736735e-06 0.0000000000000000e+00  4.5650692287078784e-04 -2.2181417564189491e-06 0.0000000000000000e+00  5.3153457180858351e-04 -2.7163891752904169e-06 0.0000000000000000e+00  6.1142163821234616e-04 -3.2925897458152243e-06 0.0000000000000000e+00  6.9333685947715960e-04 -3.9137876006011651e-06 0.0000000000000000e+00  7.7306679939809252e-04 -4.4941645808574793e-06 0.0000000000000000e+00  0.0000000000000000e+00 0.0000000000000000e+00 0.0000000000000000e+00  2.2080731051815152e-05 -8.3365301003729512e-08 0.0000000000000000e+00  4.4952345264894040e-05 -1.6995118825682492e-07 0.0000000000000000e+00  6.9426649668641376e-05 -2.6309538834063167e-07 0.0000000000000000e+00  9.6354749703004246e-05 -3.6636892195871294e-07 0.0000000000000000e+00  1.2664342849593824e-04 -4.8369644518513900e-07 0.0000000000000000e+00  1.6126630397342754e-04 -6.1948091879196615e-07 0.0000000000000000e+00  2.0126578265197500e-04 -7.7873439869879022e-07 0.0000000000000000e+00  2.4773955789286528e-04 -9.6721698621709034e-07 0.0000000000000000e+00  3.0180226469901373e-04 -1.1915811512005927e-06 0.0000000000000000e+00  3.6450905111227723e-04 -1.4594887374018965e-06 0.0000000000000000e+00  4.3672405621669020e-04 -1.7795505197514661e-06 0.0000000000000000e+00  5.1891522054872002e-04 -2.1605719256274831e-06 0.0000000000000000e+00  6.1086177046537204e-04 -2.6086351733296672e-06 0.0000000000000000e+00  7.1127868314028748e-04 -3.1185067192173040e-06 0.0000000000000000e+00  8.1739938358566986e-04 -3.6525814940596574e-06 0.0000000000000000e+00  9.2460920644099522e-04 -4.0978913022580174e-06 0.0000000000000000e+00  0.0000000000000000e+00 0.0000000000000000e+00 0.0000000000000000e+00  2.2900812153732952e-05 -8.3900332564265083e-08 0.0000000000000000e+00  4.6665629352783702e-05 -1.7090141215984850e-07 0.0000000000000000e+00  7.2187291469992380e-05 -2.6418697133664690e-07 0.0000000000000000e+00  1.0041559412567293e-04 -3.6710248072393195e-07 0.0000000000000000e+00  1.3238469749556501e-04 -4.8322128340041609e-07 0.0000000000000000e+00  1.6923795297927026e-04 -6.1639169924156691e-07 0.0000000000000000e+00  2.1224683753240110e-04 -7.7076060758628702e-07 0.0000000000000000e+00  2.6281786141747017e-04 -9.5078231983834439e-07 0.0000000000000000e+00  3.2247689207455543e-04 -1.1612588380454045e-06 0.0000000000000000e+00  3.9281390819730685e-04 -1.4075350526631365e-06 0.0000000000000000e+00  4.7536289880564228e-04 -1.6960813886239738e-06 0.0000000000000000e+00  5.7138320893013541e-04 -2.0356988243265463e-06 0.0000000000000000e+00  6.8150540343836746e-04 -2.4389250868059491e-06 0.0000000000000000e+00  8.0521763134374020e-04 -2.9204004390778246e-06 0.0000000000000000e+00  9.4021249727802849e-04 -3.4812000475060087e-06 0.0000000000000000e+00  1.0816916985819055e-03 -4.0540240985805509e-06 0.0000000000000000e+00  0.0000000000000000e+00 0.0000000000000000e+00 0.0000000000000000e+00  2.2854094979237930e-05 -8.1326483417181741e-08 0.0000000000000000e+00  4.6616357583636464e-05 -1.6554924458387803e-07 0.0000000000000000e+00  7.2231849757198628e-05 -2.5561879288786890e-07 0.0000000000000000e+00  1.0072110737923799e-04 -3.5458764826163243e-07 0.0000000000000000e+00  1.3322013008001612e-04 -4.6562948447443358e-07 0.0000000000000000e+00  1.7102212003169758e-04 -5.9201341345124151e-07 0.0000000000000000e+00  2.1561947251735086e-04 -7.3701211957665613e-07 0.0000000000000000e+00  2.6874163988365791e-04 -9.0373551858865149e-07 0.0000000000000000e+00  3.3237924151301840e-04 -1.0949444346951406e-06 0.0000000000000000e+00  4.0877576437357691e-04 -1.3130909756034499e-06 0.0000000000000000e+00  5.0035382722607414e-04 -1.5613025275780737e-06 0.0000000000000000e+00  6.0952277475849405e-04 -1.8469452424236256e-06 0.0000000000000000e+00  7.3829237751530784e-04 -2.1905594616595584e-06 0.0000000000000000e+00  8.8760965407435081e-04 -2.6422149175136731e-06 0.0000000000000000e+00  1.0563802796296103e-03 -3.2967891580370185e-06 0.0000000000000000e+00  1.2402866718685564e-03 -4.2623839783839178e-06 0.0000000000000000e+00  0.0000000000000000e+00 0.0000000000000000e+00 0.0000000000000000e+00  2.1896869919016334e-05 -7.5850511122160807e-08 0.0000000000000000e+00  4.4708419390296620e-05 -1.5433491727443937e-07 0.0000000000000000e+00  6.9393206663688161e-05 -2.3812433225591299e-07 0.0000000000000000e+00  9.7001902620512962e-05 -3.2995800531413634e-07 0.0000000000000000e+00  1.2872977046569104e-04 -4.3263459128256861e-07 0.0000000000000000e+00  1.6597670692555837e-04 -5.4893528248642458e-07 0.0000000000000000e+00  2.1041654554757445e-04 -6.8142563774626269e-07 0.0000000000000000e+00  2.6407539790865075e-04 -8.3206092149350401e-07 0.0000000000000000e+00  3.2941421194870825e-04 -1.0015280608628983e-06 0.0000000000000000e+00  4.0940082636890904e-04 -1.1884134308990452e-06 0.0000000000000000e+00  5.0753723090727297e-04 -1.3889402216514902e-06 0.0000000000000000e+00  6.2777254717413366e-04 -1.6000504787214324e-06 0.0000000000000000e+00  7.7417715202970645e-04 -1.8336965084371206e-06 0.0000000000000000e+00  9.5018876560888036e-04 -2.1595485061668615e-06 0.0000000000000000e+00  1.1572272156889129e-03 -2.7979101817131288e-06 0.0000000000000000e+00  1.3926719851228000e-03 -4.2305006915163840e-06 0.0000000000000000e+00  0.0000000000000000e+00 0.0000000000000000e+00 0.0000000000000000e+00  2.0023086512922502e-05 -6.7736653236143910e-08 0.0000000000000000e+00  4.0922094188012924e-05 -1.3780210664337115e-07 0.0000000000000000e+00  6.3621236614587372e-05 -2.1256053888531551e-07 0.0000000000000000e+00  8.9148136893283121e-05 -2.9444549663044113e-07 0.0000000000000000e+00  1.1869628856224645e-04 -3.8595650513728945e-07 0.0000000000000000e+00  1.5370153508705351e-04 -4.8958476559848166e-07 0.0000000000000000e+00  1.9593868909407338e-04 -6.0758517269966331e-07 0.0000000000000000e+00  2.4764489800671677e-04 -7.4142284351159844e-07 0.0000000000000000e+00  3.1167511684520498e-04 -8.9055846277674232e-07 0.0000000000000000e+00  3.9168883926415747e-04 -1.0500044639062966e-06 0.0000000000000000e+00  4.9234896943038708e-04 -1.2060387347406667e-06 0.0000000000000000e+00  6.1946925339549804e-04 -1.3309090874040494e-06 0.0000000000000000e+00  7.7995201277715183e-04 -1.3851383338952125e-06 0.0000000000000000e+00  9.8118622367998187e-04 -1.3643182150181444e-06 0.0000000000000000e+00  1.2293542210722074e-03 -1.5020817944643018e-06 0.0000000000000000e+00  1.5261204380667462e-03 -2.8077345352625805e-06 0.0000000000000000e+00  0.0000000000000000e+00 0.0000000000000000e+00 0.0000000000000000e+00  1.7271883168633269e-05 -5.7291135773283721e-08 0.0000000000000000e+00  3.5330717988808587e-05 -1.1656379735306630e-07 0.0000000000000000e+00  5.5012078699064377e-05 -1.7984577657491267e-07 0.0000000000000000e+00  7.7257279660529227e-05 -2.4926704099141693e-07 0.0000000000000000e+00  1.0318039341602446e-04 -3.2710118938820222e-07 0.0000000000000000e+00  1.3415480517682673e-04 -4.1577721306095814e-07 0.0000000000000000e+00  1.7193016973329411e-04 -5.1779555333524029e-07 0.0000000000000000e+00  2.1879488257208092e-04 -6.3535658736821216e-07 0.0000000000000000e+00  2.7780454432945113e-04 -7.6916879070750211e-07 0.0000000000000000e+00  3.5310165327888333e-04 -9.1502967404193596e-07 0.0000000000000000e+00  4.5034957189546437e-04 -1.0547241094223039e-06 0.0000000000000000e+00  5.7727603165959763e-04 -1.1338301554263295e-06 0.0000000000000000e+00  7.4421977704682007e-04 -1.0155057149096865e-06 0.0000000000000000e+00  9.6428929036534885e-04 -4.2079110922379399e-07 0.0000000000000000e+00  1.2520942703809536e-03 9.4316952852342002e-07 0.0000000000000000e+00  1.6192824810461973e-03 1.7793938700175267e-06 0.0000000000000000e+00  0.0000000000000000e+00 0.0000000000000000e+00 0.0000000000000000e+00  1.3732433344552570e-05 -4.4861469830852224e-08 0.0000000000000000e+00  2.8111998556319258e-05 -9.1303547463045032e-08 0.0000000000000000e+00  4.3829554192254990e-05 -1.4096658652525731e-07 0.0000000000000000e+00  6.1672190230028468e-05 -1.9563398036049065e-07 0.0000000000000000e+00  8.2586641541097791e-05 -2.5734002724484614e-07 0.0000000000000000e+00  1.0776470934632213e-04 -3.2853443142046691e-07 0.0000000000000000e+00  1.3876486117921950e-04 -4.1233674266849168e-07 0.0000000000000000e+00  1.7769231826161530e-04 -5.1288753174923555e-07 0.0000000000000000e+00  2.2747354376486531e-04 -6.3561031188259830e-07 0.0000000000000000e+00  2.9228304352769778e-04 -7.8634035178284409e-07 0.0000000000000000e+00  3.7821336061275978e-04 -9.6499166879362300e-07 0.0000000000000000e+00  4.9431869893591055e-04 -1.1378080437335921e-06 0.0000000000000000e+00  6.5417059181724488e-04 -1.1335845275403720e-06 0.0000000000000000e+00  8.7786720017374884e-04 -2.8943444393168551e-07 0.0000000000000000e+00  1.1932950944350590e-03 3.6627296414523363e-06 0.0000000000000000e+00  1.6290758885317588e-03 1.7665345882616274e-05 0.0000000000000000e+00  0.0000000000000000e+00 0.0000000000000000e+00 0.0000000000000000e+00  9.5445089743528413e-06 -3.0847878910637538e-08 0.0000000000000000e+00  1.9550365085338901e-05 -6.2808622602702160e-08 0.0000000000000000e+00  3.0512185619817895e-05 -9.7056085674712349e-08 0.0000000000000000e+00  4.2998440180051030e-05 -1.3491723878780028e-07 0.0000000000000000e+00  5.7701568825812741e-05 -1.7801992753987911e-07 0.0000000000000000e+00  7.5507651043404307e-05 -2.2857671271025352e-07 0.0000000000000000e+00  9.7599508763319897e-05 -2.8997186882476111e-07 0.0000000000000000e+00  1.2561688509958162e-04 -3.6802741827781590e-07 0.0000000000000000e+00  1.6191580186497985e-04 -4.7379147109120072e-07 0.0000000000000000e+00  2.1000490714646243e-04 -6.2966604454176539e-07 0.0000000000000000e+00  2.7530744986216670e-04 -8.8229044739022572e-07 0.0000000000000000e+00  3.6654157164910469e-04 -1.3256994120325060e-06 0.0000000000000000e+00  4.9831370009971931e-04 -2.1201686408669795e-06 0.0000000000000000e+00  6.9619623766319690e-04 -3.3618211630526934e-06 0.0000000000000000e+00  1.0073917754592899e-03 -3.9398317137975435e-06 0.0000000000000000e+00  1.5280883274791783e-03 5.3435521774914955e-06 0.0000000000000000e+00  0.0000000000000000e+00 0.0000000000000000e+00 0.0000000000000000e+00  4.8935643079842204e-06 -1.5716571796657453e-08 0.0000000000000000e+00  1.0027494894264108e-05 -3.2011392694817957e-08 0.0000000000000000e+00  1.5660206203516836e-05 -4.9502420904848727e-08 0.0000000000000000e+00  2.2090389165056114e-05 -6.8909972414474586e-08 0.0000000000000000e+00  2.9684863235635201e-05 -9.1167611302922028e-08 0.0000000000000000e+00  3.8918077824115590e-05 -1.1765654992718712e-07 0.0000000000000000e+00  5.0432039216800300e-05 -1.5074543110162174e-07 0.0000000000000000e+00  6.5132313106916871e-05 -1.9511905231332333e-07 0.0000000000000000e+00  8.4349590200371338e-05 -2.6125829600346517e-07 0.0000000000000000e+00  1.1012517916492758e-04 -3.7513841322845534e-07 0.0000000000000000e+00  1.4574116248257344e-04 -6.0699797024260910e-07 0.0000000000000000e+00  1.9675273009737653e-04 -1.1619485217501391e-06 0.0000000000000000e+00  2.7306591665981285e-04 -2.6805158938937142e-06 0.0000000000000000e+00  3.9303620697469046e-04 -7.2671566131176229e-06 0.0000000000000000e+00  5.8982920324079132e-04 -2.1920829849738924e-05 0.0000000000000000e+00  9.0745288013145892e-04 -6.7598288080674684e-05 0.0000000000000000e+00  0.0000000000000000e+00 0.0000000000000000e+00 0.0000000000000000e+00  0.0000000000000000e+00 0.0000000000000000e+00 0.0000000000000000e+00  0.0000000000000000e+00 0.0000000000000000e+00 0.0000000000000000e+00  0.0000000000000000e+00 0.0000000000000000e+00 0.0000000000000000e+00  0.0000000000000000e+00 0.0000000000000000e+00 0.0000000000000000e+00  0.0000000000000000e+00 0.0000000000000000e+00 0.0000000000000000e+00  0.0000000000000000e+00 0.0000000000000000e+00 0.0000000000000000e+00  0.0000000000000000e+00 0.0000000000000000e+00 0.0000000000000000e+00  0.0000000000000000e+00 0.0000000000000000e+00 0.000000000