<?xml version="1.0"?>
<VTKFile type="UnstructuredGrid"  version="0.1"  >
<UnstructuredGrid>
<Piece  NumberOfPoints="289" NumberOfCells="512">
<Points>
<DataArray  type="Float64"  NumberOfComponents="3"  format="ascii">0 0 0  0.0625 0 0  0.125 0 0  0.1875 0 0  0.25 0 0  0.3125 0 0  0.375 0 0  0.4375 0 0  0.5 0 0  0.5625 0 0  0.625 0 0  0.6875 0 0  0.75 0 0  0.8125 0 0  0.875 0 0  0.9375 0 0  1 0 0  0 0.0625 0  0.06253657648977848 0.06249722664589863 0  0.1250745171080269 0.06249439076708274 0  0.1876152370523722 0.06249143199750935 0  0.2501602512857367 0.06248829471418211 0  0.312711231544458 0.06248493073877243 0  0.3752700746190171 0.06248130194035148 0  0.4378389928028893 0.06247738157500489 0  0.5004206499814027 0.0624731514570018 0  0.5630183974959522 0.0624685882805809 0  0.6256367424799455 0.06246362362053277 0  0.6882823955304673 0.06245803933061935 0  0.7509668711302949 0.06245119289582644 0  0.8137135874456358 0.06244124462464346 0  0.8765790907689938 0.06242274798272927 0  0.9397223052891068 0.06237832265744721 0  1.003652293204 0.06224774951015361 0  0 0.125 0  0.06257179218146552 0.1249945155910615 0  0.125146268481167 0.1249889037584295 0  0.1877262137747771 0.1249830411874972 0  0.2503146099556279 0.1249768137536374 0  0.3129147470947804 0.124970122215323 0  0.3755303534785827 0.1249628885056433 0  0.4381657603022153 0.1249550611869521 0  0.5008261320107148 0.1249466162612316 0  0.563517826460181 0.1249375449718271 0  0.6262490211830293 0.1249278118428132 0  0.6890308950485711 0.1249172521340098 0  0.7518799534252075 0.1249053614712546 0  0.814822516470878 0.1248909537645605 0  0.8779021045896831 0.1248719880783836 0  0.941183430779667 0.1248478750923921 0  1.004699072338581 0.1248370442607766 0  0 0.1875 0  0.06260432866875203 0.1874919318105041 0  0.125212569740569 0.1874836668692458 0  0.1878287823366634 0.1874750139543884 0  0.2504573128637501 0.1874657945890343 0  0.313102954103497 0.1874558519364823 0  0.3757711253018811 0.1874450621632035 0  0.438468086543069 0.1874333477439712 0  0.5012012089873215 0.1874206901991713 0  0.5639793368045767 0.1874071361400652 0  0.6268132970093689 0.1873927846332752 0  0.6897166265101635 0.1873777361147035 0  0.7527065208918089 0.1873619773510541 0  0.8158045983195255 0.1873451843598311 0  0.8790354841978282 0.1873264411297405 0  0.9424166000504995 0.1873036093150754 0  1.005924863507582 0.1872691093592618 0  0 0.25 0  0.06263296105679292 0.2499895446807997 0  0.1252709265565669 0.2499788173548606 0  0.1879190884221427 0.2499675519020713 0  0.2505830069151488 0.2499554964699458 0  0.3132688112851458 0.2499424250836451 0  0.3759834204477997 0.2499281545853464 0  0.438734791267373 0.2499125682902217 0  0.5015322010441958 0.2498956468136031 0  0.5643865645281976 0.2498775045385361 0  0.6273107627884084 0.2498584266632702 0  0.6903198907217964 0.2498388965009687 0  0.7534311353229505 0.2498195961755623 0  0.8166625132356221 0.2498013557400695 0  0.8800286683153309 0.2497850051614911 0  0.9435303690031188 0.2497710145896622 0  1.00713418948829 0.2497588407565412 0  0 0.3125 0  0.06265660094402083 0.31248742948826 0  0.1253191218236912 0.3124745053928896 0  0.1879937047876417 0.3124608786104741 0  0.2506869313394273 0.3124462122129698 0  0.3134060597434938 0.3124301940434634 0  0.3761592824209121 0.3124125578599077 0  0.4389560071779824 0.3123931169417923 0  0.5018071595395736 0.312371814678683 0  0.5647254867279823 0.3123487968287506 0  0.6277258042979716 0.3123245091423411 0  0.6908250394479363 0.3122998206192724 0  0.7540417500096535 0.3122761646994951 0  0.8173944942310074 0.3122556752041082 0  0.8808980495716643 0.3122412707882548 0  0.9445565054703998 0.3122366408967858 0  1.008354269511368 0.3122462827777309 0  0 0.375 0  0.06267433508600104 0.3749856678313058 0  0.1253552936477492 0.3749708955958558 0  0.1880497493094512 0.3749552438402841 0  0.25076507493828 0.3749382779202934 0  0.313509412955157 0.3749195783355388 0  0.3762919693549845 0.374898762217853 0  0.4391233365789775 0.3748755224948863 0  0.5020158441792462 0.3748496938066616 0  0.5649839211462292 0.3748213573170353 0  0.6280444204838914 0.3747909993050111 0  0.6912167899041418 0.3747597385682 0  0.7545228549094598 0.3747296300838137 0  0.8179858145337081 0.3747040272139511 0  0.8816279257372593 0.3746879267614331 0  0.9454665771324963 0.3746881117914504 0  1.00950960058665 0.374712705918893 0  0 0.4375 0  0.06268545958614555 0.4374843462037356 0  0.1253780044356458 0.4374681648799372 0  0.188084989925353 0.4374509223437508 0  0.2508143168057783 0.4374320759041554 0  0.3135747293160852 0.4374110773061227 0  0.3763761446221304 0.4373873881415766 0  0.4392300251240867 0.4373605157031972 0  0.5021498048564972 0.437330082496831 0  0.5651513778282379 0.4372959494399233 0  0.6282536449883283 0.4372584214461819 0  0.691479088399613 0.4372185725341855 0  0.7548542816969849 0.4371787290125267 0  0.8184101403895421 0.4371431273462429 0  0.8821815706794753 0.437118686815097 0  0.9462060602978422 0.437115664286764 0  1.010520799707786 0.437147683187106 0  0 0.5 0  0.0626895092983364 0.4999835520565053 0  0.1253863009377789 0.4999664950308974 0  0.1880979377592625 0.4999482041051871 0  0.250832556089233 0.4999280251536999 0  0.3135991829721879 0.4999052659291565 0  0.3764080936556424 0.499879197073778 0  0.4392712298618249 0.4998490717644462 0  0.5022027083814259 0.4998141794233262 0  0.5652194647978812 0.4997739597684887 0  0.6283421008974306 0.4997282201850645 0  0.6915960349833985 0.4996775225881095 0  0.7550130759601096 0.4996238314425149 0  0.8186335009010943 0.4995715239329043 0  0.8825084850238122 0.4995288047666917 0  0.9467021062925124 0.4995093332477104 0  1.01129100148416 0.4995333091039001 0  0 0.5625 0  0.06268628137757647 0.5624833669011183 0  0.1253797631671129 0.56246605880586 0  0.1880879254780722 0.5624473734725018 0  0.2508188272477234 0.5624265542537094 0  0.3135814292265163 0.5624027641609519 0  0.3763859632716133 0.5623750638723027 0  0.4392443757640521 0.5623424001796118 0  0.5021708911919276 0.5623036185453946 0  0.5651827778478796 0.5622575268725871 0  0.6283014653252768 0.5622030619666365 0  0.6915542813308198 0.5621396523823711 0  0.7549772498193628 0.5620679384516953 0  0.8186195609223945 0.5619910983160977 0  0.8825502105762508 0.56191708471251 0  0.9468662127188233 0.561861904712077 0  1.011698688252331 0.5618532170759343 0  0 0.625 0  0.06267585103825797 0.6249838565686515 0  0.1253585379015226 0.6249669995565832 0  0.1880551631813961 0.624948676448851 0  0.250773387457783 0.6249280541446564 0  0.3135217409854398 0.6249041732361656 0  0.3763099809814186 0.6248758967710442 0  0.4391495232124405 0.6248418543996924 0  0.5020539988469102 0.6248003879357787 0  0.5650400367202606 0.6247495161171177 0  0.6281284779388389 0.6246869623072109 0  0.6913464522452633 0.6246103443131978 0  0.7547311735603456 0.624517739149649 0  0.8183370117232754 0.6244090519569664 0  0.8822481293252427 0.6242889638759512 0  0.946598348726819 0.6241725131927707 0  1.011594114815298 0.6240934230515008 0  0 0.6875 0  0.06265857709923785 0.6874850595275834 0  0.1253233512580532 0.6874694060876526 0  0.1880007615032764 0.6874522783735335 0  0.2506977573327124 0.6874328127018641 0  0.3134220813592682 0.6874099788459015 0  0.3761825887533058 0.6873824989337418 0  0.4389896238974819 0.6873487419248729 0  0.5018554906507708 0.6873065859397884 0  0.5647950944823787 0.6872532439687725 0  0.6278269445937337 0.6871850624646788 0  0.6909749870341113 0.6870973461274973 0  0.7542724383314555 0.6869843852614264 0  0.817770381397762 0.6868401877584492 0  0.8815569549271619 0.6866612208703294 0  0.9457965774874432 0.6864541351434181 0  1.010793884143943 0.686252935563197 0  0 0.75 0  0.06263509516459502 0.7499869750408386 0  0.1252754954585776 0.7499732864765466 0  0.1879267128047636 0.7499582179342734 0  0.2505946981956866 0.7499409394646317 0  0.3132860806201069 0.7499204314797741 0  0.3760084286519312 0.7498953815487414 0  0.4387705395944199 0.7498640375888241 0  0.5015827594536068 0.7498239930780853 0  0.5644573423883902 0.7497718684335408 0  0.6274088996310325 0.7497028384893956 0  0.6904551708101528 0.7496099470275954 0  0.7536190274080723 0.7494831817084074 0  0.8169348712586828 0.7493085006287585 0  0.8804693393291687 0.7490679605191477 0  0.9443828646301891 0.7487458660568597 0  1.009076087390817 0.7483589860532449 0  0 0.8125 0  0.06260629733842771 0.8124895536508308 0  0.1252167874296907 0.8124785463215773 0  0.187835826428962 0.8124663669820595 0  0.2504681190984802 0.8124522956175156 0  0.3131189047984751 0.812435426803141 0  0.3757941527539438 0.8124145610892815 0  0.4385007562929895 0.8123880418339825 0  0.5012466930593827 0.8123535005386182 0  0.5640410699095809 0.8123074476802967 0  0.626893877391115 0.8122445989526096 0  0.6898151325534181 0.8121567405922923 0  0.7528130323093323 0.8120307794020256 0  0.8158917485759802 0.8118453528869961 0  0.8790565161317172 0.8115651016384785 0  0.942369195916584 0.8111331055311601 0  1.006255888846415 0.8104809812082528 0  0 0.875 0  0.06257329886821547 0.8749926927023939 0  0.1251495004170666 0.8749849775963637 0  0.1877316210699622 0.8749764075234484 0  0.2503229209139627 0.8749664489554013 0  0.312927032179463 0.8749544195238228 0  0.3755480898704086 0.8749393965349593 0  0.4381908485632033 0.8749200747764974 0  0.5008607371379648 0.8748945358722525 0  0.5635637222060266 0.8748598608222566 0  0.6263056466260986 0.8748114571843497 0  0.6890901923944612 0.8747418481995204 0  0.7519133252416511 0.8746383946477942 0  0.8147490380048262 0.874478728259117 0  0.8775155352610327 0.8742206596695929 0  0.9400123304935837 0.8737763867328697 0  1.001950817682796 0.8729298528143423 0  0 0.9375 0  0.06253739348826717 0.937496239081013 0  0.1250762728519206 0.9374922632834397 0  0.1876181829821576 0.9374878360227703 0  0.2501647957291507 0.9374826728481398 0  0.312717977220273 0.9374764061896487 0  0.3752798564582387 0.9374685328428377 0  0.4378528855947533 0.937458330794944 0  
[...]
<PointData  Vectors="f_54"> 
<DataArray  type="Float64"  Name="f_54"  NumberOfComponents="3" format="ascii">0.0000000000000000e+00 0.0000000000000000e+00 0.0000000000000000e+00  0.0000000000000000e+00 0.0000000000000000e+00 0.0000000000000000e+00  0.0000000000000000e+00 0.0000000000000000e+00 0.0000000000000000e+00  0.0000000000000000e+00 0.0000000000000000e+00 0.0000000000000000e+00  0.0000000000000000e+00 0.0000000000000000e+00 0.0000000000000000e+00  0.0000000000000000e+00 0.0000000000000000e+00 0.0000000000000000e+00  0.0000000000000000e+00 0.0000000000000000e+00 0.0000000000000000e+00  0.0000000000000000e+00 0.0000000000000000e+00 0.0000000000000000e+00  0.0000000000000000e+00 0.0000000000000000e+00 0.0000000000000000e+00  0.0000000000000000e+00 0.0000000000000000e+00 0.0000000000000000e+00  0.0000000000000000e+00 0.0000000000000000e+00 0.0000000000000000e+00  0.0000000000000000e+00 0.0000000000000000e+00 0.0000000000000000e+00  0.0000000000000000e+00 0.0000000000000000e+00 0.0000000000000000e+00  0.0000000000000000e+00 0.0000000000000000e+00 0.0000000000000000e+00  0.0000000000000000e+00 0.0000000000000000e+00 0.0000000000000000e+00  0.0000000000000000e+00 0.0000000000000000e+00 0.0000000000000000e+00  0.0000000000000000e+00 0.0000000000000000e+00 0.0000000000000000e+00  0.0000000000000000e+00 0.0000000000000000e+00 0.0000000000000000e+00  -3.5847654481256167e-06 2.5903454906216790e-08 0.0000000000000000e+00  -7.2735470994500690e-06 5.4714297162245483e-08 0.0000000000000000e+00  -1.1170513883009262e-05 8.9668847248352966e-08 0.0000000000000000e+00  -1.5379038072134786e-05 1.3468119094298366e-07 0.0000000000000000e+00  -2.0000329235962689e-05 1.9474508727131568e-07 0.0000000000000000e+00  -2.5130870287883739e-05 2.7641000106866539e-07 0.0000000000000000e+00  -3.0858288422570002e-05 3.8835751872807973e-07 0.0000000000000000e+00  -3.7255449298603302e-05 5.4211948023025511e-07 0.0000000000000000e+00  -4.4373015531414686e-05 7.5304321464927551e-07 0.0000000000000000e+00  -5.2231922428648400e-05 1.0418416187225406e-06 0.0000000000000000e+00  -6.0820558695356929e-05 1.4378705414796095e-06 0.0000000000000000e+00  -7.0111397140175285e-05 1.9880900402676111e-06 0.0000000000000000e+00  -8.0144564824068576e-05 2.7859174597817227e-06 0.0000000000000000e+00  -9.1343727744122501e-05 4.0737184044603030e-06 0.0000000000000000e+00  -1.0569419640770638e-04 6.6367074731347534e-06 0.0000000000000000e+00  -1.3151659995542893e-04 1.3479847988117816e-05 0.0000000000000000e+00  0.0000000000000000e+00 0.0000000000000000e+00 0.0000000000000000e+00  -7.0694422509298924e-06 4.8930408574584244e-08 0.0000000000000000e+00  -1.4347679414876047e-05 1.0336185734220430e-07 0.0000000000000000e+00  -2.2044215511487302e-05 1.6943066154095261e-07 0.0000000000000000e+00  -3.0367857145323115e-05 2.5458667484578512e-07 0.0000000000000000e+00  -3.9524434752397666e-05 3.6837921311458638e-07 0.0000000000000000e+00  -4.9712084033409681e-05 5.2339256596539751e-07 0.0000000000000000e+00  -6.1113225207280270e-05 7.3637257427436116e-07 0.0000000000000000e+00  -7.3882504584873784e-05 1.0295809285872889e-06 0.0000000000000000e+00  -8.8130401078416218e-05 1.4324241066000532e-06 0.0000000000000000e+00  -1.0390325398452826e-04 1.9834658575023510e-06 0.0000000000000000e+00  -1.2116260233960569e-04 2.7330974810821722e-06 0.0000000000000000e+00  -1.3977023647817840e-04 3.7472705015585290e-06 0.0000000000000000e+00  -1.5948753891394042e-04 5.1110190388284826e-06 0.0000000000000000e+00  -1.7997546018251262e-04 6.9152745813035568e-06 0.0000000000000000e+00  -2.0059456916993166e-04 9.1146243579705703e-06 0.0000000000000000e+00  -2.1866439656458841e-04 1.0599895290376470e-05 0.0000000000000000e+00  0.0000000000000000e+00 0.0000000000000000e+00 0.0000000000000000e+00  -1.0348875358969961e-05 6.6487836794640565e-08 0.0000000000000000e+00  -2.1011870265272202e-05 1.4045212942226452e-07 0.0000000000000000e+00  -3.2305119760963960e-05 2.3026103949484568e-07 0.0000000000000000e+00  -4.4545852882873573e-05 3.4613763120239337e-07 0.0000000000000000e+00  -5.8050105811578244e-05 5.0128897962698714e-07 0.0000000000000000e+00  -7.3126752903260303e-05 7.1326956297908891e-07 0.0000000000000000e+00  -9.0066348113677534e-05 1.0056365265728779e-06 0.0000000000000000e+00  -1.0912317731357606e-04 1.4099158013266456e-06 0.0000000000000000e+00  -1.3048901343374488e-04 1.9678168626743708e-06 0.0000000000000000e+00  -1.5425743516970313e-04 2.7334678534617116e-06 0.0000000000000000e+00  -1.8037804426471166e-04 3.7750828050462678e-06 0.0000000000000000e+00  -2.0859923150825393e-04 5.1746039786100189e-06 0.0000000000000000e+00  -2.3839153817385256e-04 7.0216706909266289e-06 0.0000000000000000e+00  -2.6881750314895026e-04 9.3937780915577729e-06 0.0000000000000000e+00  -2.9824394349674336e-04 1.2316265422753204e-05 0.0000000000000000e+00  -3.2373607308049237e-04 1.5806104631892181e-05 0.0000000000000000e+00  0.0000000000000000e+00 0.0000000000000000e+00 0.0000000000000000e+00  -1.3317442797950983e-05 7.6603493458975208e-08 0.0000000000000000e+00  -2.7053830849978606e-05 1.6178422845446819e-07 0.0000000000000000e+00  -4.1632500724836036e-05 2.6518843393299540e-07 0.0000000000000000e+00  -5.7482120591096756e-05 3.9870628777380629e-07 0.0000000000000000e+00  -7.5035796969724999e-05 5.7787677810343251e-07 0.0000000000000000e+00  -9.4725405838482353e-05 8.2363167163407833e-07 0.0000000000000000e+00  -1.1696890863883252e-04 1.1644764267502601e-06 0.0000000000000000e+00  -1.4214796593579152e-04 1.6391539468702852e-06 0.0000000000000000e+00  -1.7057277176817486e-04 2.2997047686188737e-06 0.0000000000000000e+00  -2.0243080723378760e-04 3.2145439526809197e-06 0.0000000000000000e+00  -2.3771613214607025e-04 4.4705783384502361e-06 0.0000000000000000e+00  -2.7613542564422581e-04 6.1722672388276496e-06 0.0000000000000000e+00  -3.1698491373339805e-04 8.4336832783264600e-06 0.0000000000000000e+00  -3.5898730280970809e-04 1.1357508000356609e-05 0.0000000000000000e+00  -4.0007734383725152e-04 1.4995495290924987e-05 0.0000000000000000e+00  -4.3717716153111706e-04 1.9290637194300240e-05 0.0000000000000000e+00  0.0000000000000000e+00 0.0000000000000000e+00 0.0000000000000000e+00  -1.5870163309893873e-05 7.8180999090785203e-08 0.0000000000000000e+00  -3.2261371790358965e-05 1.6498605733803662e-07 0.0000000000000000e+00  -4.9702754759608727e-05 2.7017522959346676e-07 0.0000000000000000e+00  -6.8736071421603590e-05 4.0592345764762765e-07 0.0000000000000000e+00  -8.9918105121489437e-05 5.8839498912505413e-07 0.0000000000000000e+00  -1.1381758115026838e-04 8.3978102640529582e-07 0.0000000000000000e+00  -1.4100365773888092e-04 1.1909778739264169e-06 0.0000000000000000e+00  -1.7202210991509954e-04 1.6850614925952683e-06 0.0000000000000000e+00  -2.0735430345519769e-04 2.3816101595776395e-06 0.0000000000000000e+00  -2.4735318521496301e-04 3.3616412884237596e-06 0.0000000000000000e+00  -2.9215025666635069e-04 4.7322939228715937e-06 0.0000000000000000e+00  -3.4152866636175729e-04 6.6291687557789072e-06 0.0000000000000000e+00  -3.9476173858826443e-04 9.2122228674329665e-06 0.0000000000000000e+00  -4.5042724120813624e-04 1.2648426557958263e-05 0.0000000000000000e+00  -5.0623557413750832e-04 1.7071786862657818e-05 0.0000000000000000e+00  -5.5897757966590284e-04 2.2508457598030518e-05 0.0000000000000000e+00  0.0000000000000000e+00 0.0000000000000000e+00 0.0000000000000000e+00  -1.7904976409207986e-05 7.1177129134480093e-08 0.0000000000000000e+00  -3.6426691304130592e-05 1.4990020709159965e-07 0.0000000000000000e+00  -5.6195085398570133e-05 2.4477789944083496e-07 0.0000000000000000e+00  -7.7863412202781548e-05 3.6671726586024790e-07 0.0000000000000000e+00  -1.0211620922647930e-04 5.3050705202568532e-07 0.0000000000000000e+00  -1.2967180831179964e-04 7.5698359775507928e-07 0.0000000000000000e+00  -1.6127590266882554e-04 1.0760701135953708e-06 0.0000000000000000e+00  -1.9768113934537910e-04 1.5310424569888647e-06 0.0000000000000000e+00  -2.3960576326052054e-04 2.1843971518253639e-06 0.0000000000000000e+00  -2.8766230214051237e-04 3.1255828424025050e-06 0.0000000000000000e+00  -3.4224598313038713e-04 4.4804048811631696e-06 0.0000000000000000e+00  -4.0337384474654198e-04 6.4207681358422376e-06 0.0000000000000000e+00  -4.7047280743928963e-04 9.1710703628376123e-06 0.0000000000000000e+00  -5.4213378750264153e-04 1.3003552289639132e-05 0.0000000000000000e+00  -6.1588561482827644e-04 1.8209752299169694e-05 0.0000000000000000e+00  -6.8809718087670709e-04 2.5032898568027799e-05 0.0000000000000000e+00  0.0000000000000000e+00 0.0000000000000000e+00 0.0000000000000000e+00  -1.9326453809310139e-05 5.6670479993557982e-08 0.0000000000000000e+00  -3.9353680071314375e-05 1.1875195450023040e-07 0.0000000000000000e+00  -6.0802082242793737e-05 1.9248330125818194e-07 0.0000000000000000e+00  -8.4429286035168398e-05 2.8594097535077929e-07 0.0000000000000000e+00  -1.1104614540454113e-04 4.1040822848005731e-07 0.0000000000000000e+00  -1.4152839652905170e-04 5.8239146572421485e-07 0.0000000000000000e+00  -1.7682036822494536e-04 8.2669039417979624e-07 0.0000000000000000e+00  -2.1792490848853059e-04 1.1811189775603446e-06 0.0000000000000000e+00  -2.6587048204777596e-04 1.7037239826857289e-06 0.0000000000000000e+00  -3.2164230918102217e-04 2.4836055153026271e-06 0.0000000000000000e+00  -3.8606023243263263e-04 3.6565260701739310e-06 0.0000000000000000e+00  -4.5958407233255132e-04 5.4259191810469011e-06 0.0000000000000000e+00  -5.4203272190820771e-04 8.0876271032520194e-06 0.0000000000000000e+00  -6.3222468848269113e-04 1.2050868058935144e-05 0.0000000000000000e+00  -7.2759377059386488e-04 1.7836383821616146e-05 0.0000000000000000e+00  -8.2389859802565861e-04 2.6015433021549604e-05 0.0000000000000000e+00  0.0000000000000000e+00 0.0000000000000000e+00 0.0000000000000000e+00  -2.0051048260333729e-05 3.6791527109178531e-08 0.0000000000000000e+00  -4.0868542878691913e-05 7.6031585535300952e-08 0.0000000000000000e+00  -6.3245878623872668e-05 1.2059960287539412e-07 0.0000000000000000e+00  -8.8029964336373200e-05 1.7439070280574837e-07 0.0000000000000000e+00  -1.1614749272884783e-04 2.4319998149840275e-07 0.0000000000000000e+00  -1.4862941787580026e-04 3.3619669104147954e-07 0.0000000000000000e+00  -1.8663070955192280e-04 4.6845470061745244e-07 0.0000000000000000e+00  -2.3143963625527777e-04 6.6533122684575529e-07 0.0000000000000000e+00  -2.8446623900330612e-04 9.7002158094727375e-07 0.0000000000000000e+00  -3.4719269285658766e-04 1.4564404030283570e-06 0.0000000000000000e+00  -4.2105881975005297e-04 2.2506864926649531e-06 0.0000000000000000e+00  -5.0724589106373888e-04 3.5653911621823816e-06 0.0000000000000000e+00  -6.0631743723806540e-04 5.7508671316186184e-06 0.0000000000000000e+00  -7.1769188473044842e-04 9.3614852968750724e-06 0.0000000000000000e+00  -8.3898180530795729e-04 1.5217744816620291e-05 0.0000000000000000e+00  -9.6535063667386588e-04 2.4405469011443263e-05 0.0000000000000000e+00  0.0000000000000000e+00 0.0000000000000000e+00 0.0000000000000000e+00  -2.0013748179121874e-05 1.4492573892149312e-08 0.0000000000000000e+00  -4.0833561696733959e-05 2.8035866604946806e-08 0.0000000000000000e+00  -6.3299871170795216e-05 3.9585379291222525e-08 0.0000000000000000e+00  -8.8323603548358306e-05 4.7985593900424421e-08 0.0000000000000000e+00  -1.1692412690021208e-04 5.2098351366578519e-08 0.0000000000000000e+00  -1.5026959985068556e-04 5.1283111024335100e-08 0.0000000000000000e+00  -1.8971861564007360e-04 4.6625470801319128e-08 0.0000000000000000e+00  -2.3685919555183524e-04 4.3706125732158449e-08 0.0000000000000000e+00  -2.9353575241852423e-04 5.8461452399132561e-08 0.0000000000000000e+00  -3.6184481247611791e-04 1.2910176162366397e-07 0.0000000000000000e+00  -4.4406378549083413e-04 3.3956733396944099e-07 0.0000000000000000e+00  -5.4245251509024868e-04 8.6406550638932412e-07 0.0000000000000000e+00  -6.5883875572968632e-04 2.0474627826860880e-06 0.0000000000000000e+00  -7.9388672898657048e-04 4.5385798163211370e-06 0.0000000000000000e+00  -9.4600780593331109e-04 9.4778441436474735e-06 0.0000000000000000e+00  -1.1100936915527737e-03 1.8675241514321159e-05 0.0000000000000000e+00  0.0000000000000000e+00 0.0000000000000000e+00 0.0000000000000000e+00  -1.9175684506107884e-05 -6.8434900047752495e-09 0.0000000000000000e+00  -3.9163152657964805e-05 -1.7946735022143208e-08 0.0000000000000000e+00  -6.0814918626750647e-05 -3.8245396965894602e-08 0.0000000000000000e+00  -8.5069097714782820e-05 -7.4064615353721013e-08 0.0000000000000000e+00  -1.1299887726640819e-04 -1.3393539331831981e-07 0.0000000000000000e+00  -1.4587001020958018e-04 -2.2949090191577087e-07 0.0000000000000000e+00  -1.8520845313643169e-04 -3.7630130769402431e-07 0.0000000000000000e+00  -2.3287853438253386e-04 -5.9419711209406255e-07 0.0000000000000000e+00  -2.9116746209409530e-04 -9.0591682149533249e-07 0.0000000000000000e+00  -3.6286138906653021e-04 -1.3313009818015529e-06 0.0000000000000000e+00  -4.5127590066800719e-04 -1.8706894728661101e-06 0.0000000000000000e+00  -5.6016083326500027e-04 -2.4635695155101147e-06 0.0000000000000000e+00  -6.9332699672518109e-04 -2.8934061943665407e-06 0.0000000000000000e+00  -8.5374963076754757e-04 -2.5845598474836786e-06 0.0000000000000000e+00  -1.0418739360902936e-03 -2.1766953153791352e-07 0.0000000000000000e+00  -1.2531477286513695e-03 6.8264240307693656e-06 0.0000000000000000e+00  0.0000000000000000e+00 0.0000000000000000e+00 0.0000000000000000e+00  -1.7531857556328315e-05 -2.3923315344433596e-08 0.0000000000000000e+00  -3.5840542458942141e-05 -5.4750591508981996e-08 0.0000000000000000e+00  -5.5747528688532108e-05 -1.0058536148350996e-07 0.0000000000000000e+00  -7.8169895123988633e-05 -1.7210450951144891e-07 0.0000000000000000e+00  -1.0417887099462219e-04 -2.8432823512911499e-07 0.0000000000000000e+00  -1.3507258091287181e-04 -4.5902425409611803e-07 0.0000000000000000e+00  -1.7246955334520038e-04 -7.2802975446793689e-07 0.0000000000000000e+00  -2.1843047550229597e-04 -1.1377642908756914e-06 0.0000000000000000e+00  -2.7561499095983977e-04 -1.7549947099703990e-06 0.0000000000000000e+00  -3.4747439856381543e-04 -2.6730613446544603e-06 0.0000000000000000e+00  -4.3846116684117842e-04 -4.0150354983746676e-06 0.0000000000000000e+00  -5.5418289735058432e-04 -5.9221241983060528e-06 0.0000000000000000e+00  -7.0130420376410946e-04 -8.4923456559234219e-06 0.0000000000000000e+00  -8.8675125233438512e-04 -1.1571484845857220e-05 0.0000000000000000e+00  -1.1154095292143420e-03 -1.4150378915564351e-05 0.0000000000000000e+00  -1.3854773874561266e-03 -1.2928621656813726e-05 0.0000000000000000e+00  0.0000000000000000e+00 0.0000000000000000e+00 0.0000000000000000e+00  -1.5117783486212788e-05 -3.4118455999647272e-08 0.0000000000000000e+00  -3.0932537477645257e-05 -7.6595525491269346e-08 0.0000000000000000e+00  -4.8185958403345767e-05 -1.3732917514975714e-07 0.0000000000000000e+00  -6.7716933379077560e-05 -2.2958646748269835e-07 0.0000000000000000e+00  -9.0523962012544238e-05 -3.7248340507440176e-07 0.0000000000000000e+00  -1.1784691320026970e-04 -5.9461095983270945e-07 0.0000000000000000e+00  -1.5127934531511793e-04 -9.3955832822625277e-07 0.0000000000000000e+00  -1.9292753224027623e-04 -1.4745101698326484e-06 0.0000000000000000e+00  -2.4563899434103329e-04 -2.3037806221597408e-06 0.0000000000000000e+00  -3.1333027065950404e-04 -3.5901785293154599e-06 0.0000000000000000e+00  -4.0144409277793994e-04 -5.5883260557333498e-06 0.0000000000000000e+00  -5.1753701276776166e-04 -8.6938948444210197e-06 0.0000000000000000e+00  -6.7187176927597733e-04 -1.3502517183657434e-05 0.0000000000000000e+00  -8.7748388291700597e-04 -2.0810500273155376e-05 0.0000000000000000e+00  -1.1481295515183433e-03 -3.1190671818991501e-05 0.0000000000000000e+00  -1.4909732942307711e-03 -4.2508711844406297e-05 0.0000000000000000e+00  0.0000000000000000e+00 0.0000000000000000e+00 0.0000000000000000e+00  -1.2013614290386536e-05 -3.5985277051929307e-08 0.0000000000000000e+00  -2.4599221939246457e-05 -8.0254227365825921e-08 0.0000000000000000e+00  -3.8368786640946131e-05 -1.4268056107824639e-07 0.0000000000000000e+00  -5.4022114076441265e-05 -2.3666074908310610e-07 0.0000000000000000e+00  -7.2405458921441656e-05 -3.8181232457655771e-07 0.0000000000000000e+00  -9.4591509190430464e-05 -6.0807912963445843e-07 0.0000000000000000e+00  -1.2199502778168947e-04 -9.6228954806134813e-07 0.0000000000000000e+00  -1.5654725028217055e-04 -1.5189804732859253e-06 0.0000000000000000e+00  -2.0096742821036566e-04 -2.3987726519236342e-06 0.0000000000000000e+00  -2.5919585125772071e-04 -3.8005482872491041e-06 0.0000000000000000e+00  -3.3709429287200147e-04 -6.0600611888976517e-06 0.0000000000000000e+00  -4.4357607267487344e-04 -9.7623965038648135e-06 0.0000000000000000e+00  -5.9235786724225973e-04 -1.5971874892364200e-05 0.0000000000000000e+00  -8.0429976832176978e-04 -2.6728793498919951e-05 0.0000000000000000e+00  -1.1086983269378069e-03 -4.6096944795796659e-05 0.0000000000000000e+00  -1.5322884221243289e-03 -8.1352105580667029e-05 0.0000000000000000e+00  0.0000000000000000e+00 0.0000000000000000e+00 0.0000000000000000e+00  -8.3443029706884864e-06 -2.9603139774156454e-08 0.0000000000000000e+00  -1.7095331549394348e-05 -6.5834759414246948e-08 0.0000000000000000e+00  -2.6689991729713821e-05 -1.1663142799132821e-07 0.0000000000000000e+00  -3.7632053987843603e-05 -1.9284951030277686e-07 0.0000000000000000e+00  -5.0538027130663496e-05 -3.1055460789616797e-07 0.0000000000000000e+00  -6.6201665050304010e-05 -4.9458046666004383e-07 0.0000000000000000e+00  -8.5690754056364849e-05 -7.8434701404035045e-07 0.0000000000000000e+00  -1.1049995522959670e-04 -1.2436943070171787e-06 0.0000000000000000e+00  -1.4280317433888431e-04 -1.9779731785055938e-06 0.0000000000000000e+00  -1.8588834105343283e-04 -3.1646244287791956e-06 0.0000000000000000e+00  -2.4493878106709126e-04 -5.1100082451695806e-06 0.0000000000000000e+00  -3.2849778643688428e-04 -8.3617038148767930e-06 0.0000000000000000e+00  -4.5132682904650213e-04 -1.3956797906807576e-05 0.0000000000000000e+00  -6.4020208012843403e-04 -2.4087329917046578e-05 0.0000000000000000e+00  -9.4629288257651247e-04 -4.4406449552871032e-05 0.0000000000000000e+00  -1.4764312304911768e-03 -9.4552976823864375e-05 0.0000000000000000e+00  0.0000000000000000e+00 0.0000000000000000e+00 0.0000000000000000e+00  -4.2747893404787507e-06 -1.6625570766170713e-08 0.0000000000000000e+00  -8.7608302274734759e-06 -3.6927143420026810e-08 0.0000000000000000e+00  -1.3685599679400469e-05 -6.5317206383960916e-08 0.0000000000000000e+00  -1.9312695513565842e-05 -1.0785849758094090e-07 0.0000000000000000e+00  -2.5967034436829179e-05 -1.7357278667122004e-07 0.0000000000000000e+00  -3.4070923531782974e-05 -2.7649404205530342e-07 0.0000000000000000e+00  -4.4199403615711777e-05 -4.3904912966046507e-07 0.0000000000000000e+00  -5.7170128322969116e-05 -6.9778085299446286e-07 0.0000000000000000e+00  -7.4197223225314936e-05 -1.1131692166780068e-06 0.0000000000000000e+00  -9.7169246789606035e-05 -1.7863866868339691e-06 0.0000000000000000e+00  -1.2918126668614631e-04 -2.8864374493196319e-06 0.0000000000000000e+00  -1.7561814824582650e-04 -4.6858345939312650e-06 0.0000000000000000e+00  -2.4649624642468542e-04 -7.5635307179571659e-06 0.0000000000000000e+00  -3.6172595484625612e-04 -1.1726001386998514e-05 0.0000000000000000e+00  -5.6235188492428868e-04 -1.5441634025687478e-05 0.0000000000000000e+00  -9.2406074082615627e-04 -7.2444361909047623e-06 0.0000000000000000e+00  0.0000000000000000e+00 0.0000000000000000e+00 0.0000000000000000e+00  0.0000000000000000e+00 0.0000000000000000e+00 0.0000000000000000e+00  0.0000000000000000e+00 0.0000000000000000e+00 0.0000000000000000e+00  0.0000000000000000e+00 0.0000000000000000e+00 0.0000000000000000e+00  0.0000000000000000e+00 0.0000000000000000e+00 0.0000000000000000e+00  0.0000000000000000e+00 0.0000000000000000e+00 0.0000000000000000e+00  0.0000000000000000e+00 0.0000000000000000e+00 0.0000000000000000e+00  0.0000000000000000e+00 0.00