<?xml version="1.0"?>
<VTKFile type="UnstructuredGrid"  version="0.1"  >
<UnstructuredGrid>
<Piece  NumberOfPoints="289" NumberOfCells="512">
<Points>
<DataArray  type="Float64"  NumberOfComponents="3"  format="ascii">0 0 0  0.0625 0 0  0.125 0 0  0.1875 0 0  0.25 0 0  0.3125 0 0  0.375 0 0  0.4375 0 0  0.5 0 0  0.5625 0 0  0.625 0 0  0.6875 0 0  0.75 0 0  0.8125 0 0  0.875 0 0  0.9375 0 0  1 0 0  0 0.0625 0  0.06244136761819877 0.06249097699578361 0  0.1248813192790533 0.06248181815501429 0  0.1873184700907264 0.06247240611443287 0  0.249751541639496 0.06246266539090035 0  0.3121794431970809 0.06245258917346006 0  0.3746013890192551 0.06244227243463579 0  0.4370170666473633 0.06243195167848028 0  0.4994268742187857 0.06242204900656224 0  0.5618322510649554 0.06241321346060254 0  0.6242361411035233 0.06240634518689599 0  0.6866436678907526 0.06240257926450551 0  0.7490631973728478 0.0624032079814948 0  0.8115081576527883 0.06240959647041029 0  0.8740000312782881 0.06242362557302005 0  0.9365699294455355 0.06245195441547009 0  0.9992268855130072 0.06253627899571422 0  0 0.125 0  0.06238417871425622 0.1249820905906416 0  0.1247654863613195 0.1249638896217207 0  0.187141107559711 0.1249451400939635 0  0.2495084236444598 0.1249256640360673 0  0.3118651679021384 0.1249054144113696 0  0.3742096548496958 0.1248845409930092 0  0.4365411150572603 0.1248634721801431 0  0.4988601734576718 0.1248430102880963 0  0.5611695197910028 0.1248244292145567 0  0.6234748407608803 0.1248095480401967 0  0.6857861272123442 0.124800728891106 0  0.7481195530722665 0.1248007078873165 0  0.8105002324916812 0.1248120985259864 0  0.8729661227111117 0.1248361881458012 0  0.9355728526672922 0.1248693219321541 0  0.9984036508217145 0.1248851702897892 0  0 0.1875 0  0.06232991637275554 0.1874734978006325 0  0.1246554270008576 0.1874465111816324 0  0.1869721901144028 0.1874186014492247 0  0.2492761104920247 0.187389436141002 0  0.3115635471437007 0.1873588620457397 0  0.3738316318583638 0.1873270019531503 0  0.4360787466076708 0.1872943812430344 0  0.49830521578603 0.1872620861199005 0  0.560514277172262 0.1872319456446853 0  0.6227134009218686 0.1872067105868349 0  0.6849160211696037 0.1871901671627352 0  0.7471437013521598 0.1871870622351444 0  0.8094285780738244 0.1872026043876283 0  0.8718153871530783 0.1872410720326784 0  0.9343612173751182 0.1873025506081665 0  0.9971302164951258 0.1873766541400438 0  0 0.25 0  0.06228014353908056 0.249965392664622 0  0.124554246759345 0.2499300587871811 0  0.1868163158523999 0.2498933210159752 0  0.2490605898985745 0.2498546194549942 0  0.3112817651773495 0.2498135982324214 0  0.3734753632279796 0.2497702272533496 0  0.4356383074363291 0.2497249722822116 0  0.4977697831367552 0.2496790251023868 0  0.5598724604576696 0.2496345992525412 0  0.6219541452373928 0.2495952807292988 0  0.6840298660406131 0.2495663890473667 0  0.7461242533658395 0.2495552405816435 0  0.8082737266294237 0.2495710997376737 0  0.8705273547703711 0.2496244536571727 0  0.9329443344726688 0.2497251537324006 0  0.9955854965471211 0.2498795167322985 0  0 0.3125 0  0.06223651617967219 0.3124580182562933 0  0.1244652683022474 0.3124150144825631 0  0.1866784876552869 0.3123700088177792 0  0.2488685414970609 0.3123221276664488 0  0.3110281248068512 0.3122706914410344 0  0.3731506212555554 0.3122153486021379 0  0.4352307165355492 0.3121562783554486 0  0.4972653649877123 0.3120944889273459 0  0.5592552205556331 0.3120322407191471 0  0.6212066270058235 0.3119736185670458 0  0.6831341854652996 0.3119252545976546 0  0.7450637247577981 0.3118971455865518 0  0.8070351315845707 0.3119033940883326 0  0.8691039703726149 0.3119625225805465 0  0.9313404707594006 0.3120968358884903 0  0.9938253502979276 0.3123304076649104 0  0 0.375 0  0.06220076583647822 0.3749516706351795 0  0.1243920056063345 0.3749019772180631 0  0.1865640985494886 0.3748495781655057 0  0.2487073661295592 0.3747931990088665 0  0.3108121702122332 0.3747317036167266 0  0.3728691924998108 0.3746642188299029 0  0.434869997708287 0.3745903441511591 0  0.4968080174444452 0.3745104912655708 0  0.5586801255762733 0.3744264146162807 0  0.620488989391547 0.3743420102282993 0  0.6822463337887749 0.3742644639718829 0  0.7439770823134063 0.3742057954429503 0  0.8057239659587375 0.374184717710678 0  0.8675516223401393 0.374228441553175 0  0.9295487095612489 0.3743735435969968 0  0.9918267765877432 0.3746643711788855 0  0 0.4375 0  0.06217464432784645 0.4374466918427298 0  0.124338059031884 0.4373916511496983 0  0.1864787902911916 0.4373331347786766 0  0.2485850326998475 0.4372693970211367 0  0.310644564402068 0.4371987223451969 0  0.372644852261064 0.4371195099384438 0  0.4345734448633681 0.4370304474818419 0  0.4964188317728828 0.4369308341998092 0  0.5581720269846748 0.4368211478588379 0  0.6198292205457148 0.4367039988046897 0  0.6813958947166204 0.4365856702896406 0  0.7428927291101096 0.436478478570805 0  0.8043632663003194 0.4364041141709107 0  0.8658824995092403 0.4363977698093351 0  0.9275642960408523 0.4365119728779466 0  0.9895644904193774 0.4368175743046915 0  0 0.5 0  0.06215982643284074 0.4999434496863243 0  0.1243069208681795 0.4998848059696303 0  0.1864281644379578 0.4998219201901252 0  0.2485097055206598 0.4997525437899762 0  0.3105366612484645 0.4996742996400985 0  0.3724929417784325 0.4995846903518688 0  0.434361315602816 0.4994811786839222 0  0.496123925028345 0.4993614045143686 0  0.557763604512263 0.4992236546195676 0  0.6192665620662003 0.4990677890324501 0  0.6806272386139512 0.4988969649334137 0  0.7418563605647455 0.4987206817009779 0  0.8029930570913766 0.4985598177973443 0  0.8641208456574959 0.4984541471376861 0  0.9253846284023549 0.4984716253695906 0  0.9870021492583738 0.4987156725323051 0  0 0.5625 0  0.06215777113286371 0.5624423036220481 0  0.1243016900110575 0.5623822068416601 0  0.1864173371999374 0.5623172028100568 0  0.2484891266875036 0.5622445701554104 0  0.3104997156506422 0.5621612646792146 0  0.3724294420700286 0.5620638179706158 0  0.4342558784450923 0.5619482634098715 0  0.495953701312606 0.5618101379094963 0  0.5574952835210624 0.5616446649743051 0  0.6188527798530682 0.5614473399323918 0  0.6800030593794586 0.5612153627568561 0  0.7409376236453068 0.5609507729193228 0  0.8016802982456733 0.5606667809935063 0  0.8623148000963675 0.5603994241299816 0  0.9230196433413483 0.5602260176723846 0  0.9840965716964275 0.5602867450756766 0  0 0.625 0  0.06216954886237875 0.6249435586366057 0  0.1243247083417383 0.6248845169698805 0  0.1864503499628805 0.6248201187889993 0  0.2485297528232679 0.6247472797158228 0  0.310543696556789 0.6246623930413325 0  0.3724694371290917 0.6245611001160527 0  0.4342795779054377 0.6244380178429918 0  0.495940948314148 0.6242864289009437 0  0.5574138312264753 0.624097977560465 0  0.6186523704401882 0.6238625122249589 0  0.6796079676696078 0.6235684639144348 0  0.7402392421120374 0.6232047498563229 0  0.8005347541369536 0.6227665425348221 0  0.8605568651079692 0.6222698311709113 0  0.9205110475626275 0.6217825457508556 0  0.9808225423998682 0.6214747424089467 0  0 0.6875 0  0.06219565125685087 0.6874474123541708 0  0.1243771507931592 0.6873921832440063 0  0.186529479340123 0.687331477919392 0  0.2486356915639807 0.6872620446984948 0  0.3106757248667377 0.6871799472569057 0  0.3726249128257472 0.6870802163618217 0  0.4344520903189138 0.6869563780210823 0  0.4961172094702085 0.6867998004081082 0  0.5575685322479398 0.6865987874252563 0  0.6187399161925167 0.6863373520100935 0  0.6795498965851304 0.685993702569073 0  0.7399070894871143 0.6855389320685117 0  0.7997324272907509 0.6849380484390165 0  0.8590190244742667 0.6841607237032455 0  0.9179581945845371 0.6832226197224105 0  0.9771295408892462 0.6822867594389326 0  0 0.75 0  0.0622358100778395 0.7499539038941236 0  0.1244586244570804 0.7499053231919021 0  0.1866545332211098 0.7498515648091947 0  0.2488075539910421 0.7497894789472753 0  0.3108982670647433 0.7497151511036099 0  0.3729019874445261 0.7496234802884444 0  0.4347862085391195 0.7495075703771085 0  0.4965069547805149 0.7493578176678665 0  0.558003595591221 0.749160498479939 0  0.6191917493472462 0.7488955163519285 0  0.6799546298251031 0.7485327164727453 0  0.7401360004654621 0.7480258256765361 0  0.7995467361567745 0.7473031334536536 0  0.8580212718877085 0.7462578693335761 0  0.9156126400659924 0.7447679198395607 0  0.9729812266179145 0.7429294720497168 0  0 0.8125 0  0.06228886084371833 0.8124628751184302 0  0.1245668542272197 0.812423636946227 0  0.1868222648756945 0.8123799775148782 0  0.2490414267829395 0.8123291582473748 0  0.3112073748539848 0.8122677111329442 0  0.3732979417025536 0.8121910184202595 0  0.4352829132309806 0.8120926886423675 0  0.4971196081034212 0.8119635921236122 0  0.5587458261364032 0.811790311764819 0  0.6200684541590704 0.8115525347314964 0  0.6809452064772114 0.8112183654395589 0  0.7411568998041672 0.810735142829149 0  0.8003726861742996 0.8100096486375212 0  0.8581394358713711 0.8088620880716214 0  0.9140621341206655 0.8069163401082236 0  0.9690853295158789 0.8033593595588681 0  0 0.875 0  0.06235269019949988 0.874973954622745 0  0.124697544074038 0.8749463680464883 0  0.1870260686237239 0.8749155482941314 0  0.249328244450586 0.8748794680366224 0  0.3115914334533629 0.8748355285753716 0  0.3737987784871393 0.8747802248008405 0  0.4359266962043209 0.8747086464814254 0  0.4979407379204183 0.8746137151013098 0  0.5597884363633986 0.8744849961837587 0  0.621386404592132 0.8743068228035406 0  0.6825961358352832 0.8740552321319658 0  0.7431771378313995 0.8736924547034068 0  0.8026947280702912 0.873154553879521 0  0.8603416258585125 0.8723143845373705 0  0.9146221543295417 0.870847177216432 0  0.9629501827428429 0.867704927178048 0  0 0.9375 0  0.06242429972219238 0.9374865714960147 0  0.1248444925264551 0.9374723297440832 0  0.1872561131321768 0.9374563792163924 0  0.2496538583389519 0.9374376409099047 0  0.3120309752020184 0.9374147226102696 0  0.37437834487486 0.9373857349680463 0  0.4366830063
[...]
<PointData  Vectors="f_54"> 
<DataArray  type="Float64"  Name="f_54"  NumberOfComponents="3" format="ascii">0.0000000000000000e+00 0.0000000000000000e+00 0.0000000000000000e+00  0.0000000000000000e+00 0.0000000000000000e+00 0.0000000000000000e+00  0.0000000000000000e+00 0.0000000000000000e+00 0.0000000000000000e+00  0.0000000000000000e+00 0.0000000000000000e+00 0.0000000000000000e+00  0.0000000000000000e+00 0.0000000000000000e+00 0.0000000000000000e+00  0.0000000000000000e+00 0.0000000000000000e+00 0.0000000000000000e+00  0.0000000000000000e+00 0.0000000000000000e+00 0.0000000000000000e+00  0.0000000000000000e+00 0.0000000000000000e+00 0.0000000000000000e+00  0.0000000000000000e+00 0.0000000000000000e+00 0.0000000000000000e+00  0.0000000000000000e+00 0.0000000000000000e+00 0.0000000000000000e+00  0.0000000000000000e+00 0.0000000000000000e+00 0.0000000000000000e+00  0.0000000000000000e+00 0.0000000000000000e+00 0.0000000000000000e+00  0.0000000000000000e+00 0.0000000000000000e+00 0.0000000000000000e+00  0.0000000000000000e+00 0.0000000000000000e+00 0.0000000000000000e+00  0.0000000000000000e+00 0.0000000000000000e+00 0.0000000000000000e+00  0.0000000000000000e+00 0.0000000000000000e+00 0.0000000000000000e+00  0.0000000000000000e+00 0.0000000000000000e+00 0.0000000000000000e+00  0.0000000000000000e+00 0.0000000000000000e+00 0.0000000000000000e+00  -1.7081853057040335e-07 -8.0797154205766063e-09 0.0000000000000000e+00  -3.5934725500540687e-07 -1.6515258430313902e-08 0.0000000000000000e+00  -5.8536860423230035e-07 -2.5675353990050672e-08 0.0000000000000000e+00  -8.7295550001519396e-07 -3.5947376408041385e-08 0.0000000000000000e+00  -1.2531738478433818e-06 -4.7736498231736599e-08 0.0000000000000000e+00  -1.7675399064833381e-06 -6.1446687735064413e-08 0.0000000000000000e+00  -2.4726956522293362e-06 -7.7425156622055560e-08 0.0000000000000000e+00  -3.4471408608119272e-06 -9.5833889022258005e-08 0.0000000000000000e+00  -4.8018024538253326e-06 -1.1637177905305714e-07 0.0000000000000000e+00  -6.6987056451692304e-06 -1.3766685995145223e-07 0.0000000000000000e+00  -9.3889313608636088e-06 -1.5583907788613279e-07 0.0000000000000000e+00  -1.3301609429427901e-05 -1.6060910350143523e-07 0.0000000000000000e+00  -1.9281573463827806e-05 -1.2294845340943360e-07 0.0000000000000000e+00  -2.9301934585895628e-05 5.0000103559770942e-08 0.0000000000000000e+00  -4.8834631747633414e-05 6.9705251229787530e-07 0.0000000000000000e+00  -9.5465408799757156e-05 3.1876587330769450e-06 0.0000000000000000e+00  0.0000000000000000e+00 0.0000000000000000e+00 0.0000000000000000e+00  -3.2353525861682676e-07 -1.5785716786562562e-08 0.0000000000000000e+00  -6.8034921699409946e-07 -3.2269799161866629e-08 0.0000000000000000e+00  -1.1076151569514117e-06 -5.0179227085999631e-08 0.0000000000000000e+00  -1.6505803202742516e-06 -7.0286372029271908e-08 0.0000000000000000e+00  -2.3676229656036755e-06 -9.3416747973707973e-08 0.0000000000000000e+00  -3.3366468046558092e-06 -1.2042959290044775e-07 0.0000000000000000e+00  -4.6635169016244637e-06 -1.5214399904685105e-07 0.0000000000000000e+00  -6.4936479598364636e-06 -1.8916059548077023e-07 0.0000000000000000e+00  -9.0287749951419821e-06 -2.3149027682323059e-07 0.0000000000000000e+00  -1.2553049895469426e-05 -2.7784183641855391e-07 0.0000000000000000e+00  -1.7477400554015312e-05 -3.2435771914262675e-07 0.0000000000000000e+00  -2.4421291780504342e-05 -3.6270801091267639e-07 0.0000000000000000e+00  -3.4368755786741066e-05 -3.7894452504214813e-07 0.0000000000000000e+00  -4.8942270268841825e-05 -3.6416470830426295e-07 0.0000000000000000e+00  -7.0662775056311417e-05 -4.0325335419652875e-07 0.0000000000000000e+00  -1.0161721806002413e-04 -1.2134559264484266e-06 0.0000000000000000e+00  0.0000000000000000e+00 0.0000000000000000e+00 0.0000000000000000e+00  -4.4253434456219087e-07 -2.2773426934162910e-08 0.0000000000000000e+00  -9.2998692360113387e-07 -4.6560482197565468e-08 0.0000000000000000e+00  -1.5125564029411963e-06 -7.2423163814046488e-08 0.0000000000000000e+00  -2.2514273023879325e-06 -1.0150767628706828e-07 0.0000000000000000e+00  -3.2256277908461765e-06 -1.3507498441914065e-07 0.0000000000000000e+00  -4.5406102980378997e-06 -1.7450806826194015e-07 0.0000000000000000e+00  -6.3392836784432023e-06 -2.2126979097299487e-07 0.0000000000000000e+00  -8.8163858647362507e-06 -2.7676372471716999e-07 0.0000000000000000e+00  -1.2237339171123622e-05 -3.4201830122721587e-07 0.0000000000000000e+00  -1.6963090063213252e-05 -4.1707931220407905e-07 0.0000000000000000e+00  -2.3482640676776696e-05 -4.9999688724154723e-07 0.0000000000000000e+00  -3.2453395890181039e-05 -5.8546574951185174e-07 0.0000000000000000e+00  -4.4739089494283782e-05 -6.6383973055367136e-07 0.0000000000000000e+00  -6.1391578861876397e-05 -7.2242513844471134e-07 0.0000000000000000e+00  -8.3380500196420651e-05 -7.4613093410188697e-07 0.0000000000000000e+00  -1.1056675304640180e-04 -6.4062856204516476e-07 0.0000000000000000e+00  0.0000000000000000e+00 0.0000000000000000e+00 0.0000000000000000e+00  -5.1614678531763557e-07 -2.8725947980133145e-08 0.0000000000000000e+00  -1.0835500419266736e-06 -5.8734864102434268e-08 0.0000000000000000e+00  -1.7595553100360884e-06 -9.1380284031843912e-08 0.0000000000000000e+00  -2.6142664278152743e-06 -1.2814803181217706e-07 0.0000000000000000e+00  -3.7385461289305859e-06 -1.7072235894825282e-07 0.0000000000000000e+00  -5.2540171333135718e-06 -2.2104532736094371e-07 0.0000000000000000e+00  -7.3257667963773410e-06 -2.8135325582324955e-07 0.0000000000000000e+00  -1.0178356326378973e-05 -3.5415525201954219e-07 0.0000000000000000e+00  -1.4115354813067475e-05 -4.4208625692669791e-07 0.0000000000000000e+00  -1.9541580281595647e-05 -5.4751604545370369e-07 0.0000000000000000e+00  -2.6984654606686322e-05 -6.7172649189484279e-07 0.0000000000000000e+00  -3.7106288531827899e-05 -8.1338685532881912e-07 0.0000000000000000e+00  -5.0679249300741679e-05 -9.6591109071577136e-07 0.0000000000000000e+00  -6.8474633902991508e-05 -1.1126378054088632e-06 0.0000000000000000e+00  -9.0949256558271711e-05 -1.2158924593740698e-06 0.0000000000000000e+00  -1.1758371910053276e-04 -1.1900643973957011e-06 0.0000000000000000e+00  0.0000000000000000e+00 0.0000000000000000e+00 0.0000000000000000e+00  -5.3804431710357467e-07 -3.3373059875263536e-08 0.0000000000000000e+00  -1.1275609693288171e-06 -6.8230588590105539e-08 0.0000000000000000e+00  -1.8262428881186800e-06 -1.0614789570490903e-07 0.0000000000000000e+00  -2.7049757542291172e-06 -1.4888036870575320e-07 0.0000000000000000e+00  -3.8562587220788950e-06 -1.9847064605392965e-07 0.0000000000000000e+00  -5.4048944467352755e-06 -2.5737522580207734e-07 0.0000000000000000e+00  -7.5217424147240211e-06 -3.2861274681984360e-07 0.0000000000000000e+00  -1.0441153587082883e-05 -4.1592505181174459e-07 0.0000000000000000e+00  -1.4482104513677109e-05 -5.2391352663920104e-07 0.0000000000000000e+00  -2.0071553217896086e-05 -6.5804703026266197e-07 0.0000000000000000e+00  -2.7765312963079801e-05 -8.2429655677428742e-07 0.0000000000000000e+00  -3.8255469762278168e-05 -1.0278719717018176e-06 0.0000000000000000e+00  -5.2342521251707604e-05 -1.2700275550022489e-06 0.0000000000000000e+00  -7.0835184959931020e-05 -1.5411247333829330e-06 0.0000000000000000e+00  -9.4330544224407225e-05 -1.8076500343201010e-06 0.0000000000000000e+00  -1.2285973609316264e-04 -1.9946798911392621e-06 0.0000000000000000e+00  0.0000000000000000e+00 0.0000000000000000e+00 0.0000000000000000e+00  -5.0807451932322158e-07 -3.6513434483956500e-08 0.0000000000000000e+00  -1.0615479179462709e-06 -7.4624098118997348e-08 0.0000000000000000e+00  -1.7114277392739467e-06 -1.1603230640189690e-07 0.0000000000000000e+00  -2.5208507291037825e-06 -1.6265171117057190e-07 0.0000000000000000e+00  -3.5731077635542827e-06 -2.1675072473556993e-07 0.0000000000000000e+00  -4.9822082037755397e-06 -2.8114264559334107e-07 0.0000000000000000e+00  -6.9070490193639634e-06 -3.5945208546590920e-07 0.0000000000000000e+00  -9.5702666193089720e-06 -4.5649150171502569e-07 0.0000000000000000e+00  -1.3282523944956952e-05 -5.7877671963949083e-07 0.0000000000000000e+00  -1.8471889611553487e-05 -7.3516656354870255e-07 0.0000000000000000e+00  -2.5715383934940637e-05 -9.3746440828847018e-07 0.0000000000000000e+00  -3.5764746848391994e-05 -1.2004393812008012e-06 0.0000000000000000e+00  -4.9550385804425677e-05 -1.5399053804640939e-06 0.0000000000000000e+00  -6.8137820107709514e-05 -1.9660325429254462e-06 0.0000000000000000e+00  -9.2607557116345139e-05 -2.4670312194218475e-06 0.0000000000000000e+00  -1.2385058161493574e-04 -2.9760546704044547e-06 0.0000000000000000e+00  0.0000000000000000e+00 0.0000000000000000e+00 0.0000000000000000e+00  -4.3242949425003818e-07 -3.8035703939286355e-08 0.0000000000000000e+00  -8.9845914997494360e-07 -7.7678945989905690e-08 0.0000000000000000e+00  -1.4359165580968858e-06 -1.2063868451774398e-07 0.0000000000000000e+00  -2.0920855544250112e-06 -1.6884119371935089e-07 0.0000000000000000e+00  -2.9303782833167904e-06 -2.2458430126715710e-07 0.0000000000000000e+00  -4.0396970491761873e-06 -2.9076172590768903e-07 0.0000000000000000e+00  -5.5479353912058646e-06 -3.7121066052666260e-07 0.0000000000000000e+00  -7.6415049421870045e-06 -4.7126875869996537e-07 0.0000000000000000e+00  -1.0593162305837422e-05 -5.9867195621697861e-07 0.0000000000000000e+00  -1.4800424588966007e-05 -7.6496619167199385e-07 0.0000000000000000e+00  -2.0835824234623153e-05 -9.8758075311823631e-07 0.0000000000000000e+00  -2.9506965362616273e-05 -1.2924409324650941e-06 0.0000000000000000e+00  -4.1917195861789547e-05 -1.7160894566410026e-06 0.0000000000000000e+00  -5.9505863200741104e-05 -2.3041024875094216e-06 0.0000000000000000e+00  -8.4034040060586212e-05 -3.0986940253445310e-06 0.0000000000000000e+00  -1.1747970903759874e-04 -4.1040824957959094e-06 0.0000000000000000e+00  0.0000000000000000e+00 0.0000000000000000e+00 0.0000000000000000e+00  -3.2306931423235728e-07 -3.7932112837985425e-08 0.0000000000000000e+00  -6.6355195820721178e-07 -7.7379223516784048e-08 0.0000000000000000e+00  -1.0409818910287084e-06 -1.1993909096904204e-07 0.0000000000000000e+00  -1.4800756395941181e-06 -1.6739225754087749e-07 0.0000000000000000e+00  -2.0149564089855529e-06 -2.2183557423547131e-07 0.0000000000000000e+00  -2.6958651768217280e-06 -2.8588593071149405e-07 0.0000000000000000e+00  -3.6001175053813515e-06 -3.6301959798498385e-07 0.0000000000000000e+00  -4.8500574103216140e-06 -4.5817160857622951e-07 0.0000000000000000e+00  -6.6421794648911097e-06 -5.7882879120498601e-07 0.0000000000000000e+00  -9.2933650025192902e-06 -7.3703584152541495e-07 0.0000000000000000e+00  -1.3311800258196791e-05 -9.5299979031288328e-07 0.0000000000000000e+00  -1.9500072220562724e-05 -1.2612028949215384e-06 0.0000000000000000e+00  -2.9092675043299784e-05 -1.7195932059586315e-06 0.0000000000000000e+00  -4.3913868547687444e-05 -2.4200789331220922e-06 0.0000000000000000e+00  -6.6510196630704529e-05 -3.4917648414651731e-06 0.0000000000000000e+00  -1.0017697753570472e-04 -5.0773340258961292e-06 0.0000000000000000e+00  0.0000000000000000e+00 0.0000000000000000e+00 0.0000000000000000e+00  -1.9635989127209210e-07 -3.6298563732277767e-08 0.0000000000000000e+00  -3.9164263999659220e-07 -7.3933102413591620e-08 0.0000000000000000e+00  -5.8421834345488485e-07 -1.1428882287055358e-07 0.0000000000000000e+00  -7.7201481222771711e-07 -1.5886326156720823e-07 0.0000000000000000e+00  -9.5317869832071458e-07 -2.0934324277091666e-07 0.0000000000000000e+00  -1.1283968669012779e-06 -2.6772132869715033e-07 0.0000000000000000e+00  -1.3065971690629633e-06 -3.3650008538617293e-07 0.0000000000000000e+00  -1.5172300768151080e-06 -4.1909518286058572e-07 0.0000000000000000e+00  -1.8348533061944676e-06 -5.2069279333634636e-07 0.0000000000000000e+00  -2.4257483247353863e-06 -6.5013676635423658e-07 0.0000000000000000e+00  -3.6320032116585897e-06 -8.2408295771895128e-07 0.0000000000000000e+00  -6.1149251047738088e-06 -1.0758628122075666e-06 0.0000000000000000e+00  -1.1082225317559686e-05 -1.4731221045526501e-06 0.0000000000000000e+00  -2.0609439233419064e-05 -2.1484514927593198e-06 0.0000000000000000e+00  -3.8012296216677287e-05 -3.3385996558429069e-06 0.0000000000000000e+00  -6.8122860457734791e-05 -5.3957216409649683e-06 0.0000000000000000e+00  0.0000000000000000e+00 0.0000000000000000e+00 0.0000000000000000e+00  -7.0956615416216887e-08 -3.3317621460890488e-08 0.0000000000000000e+00  -1.2272891270807591e-07 -6.7737139084792942e-08 0.0000000000000000e+00  -1.3265709108406572e-07 -1.0436944632195614e-07 0.0000000000000000e+00  -7.1278799172974687e-08 -1.4434904605831750e-07 0.0000000000000000e+00  1.0144034458830409e-07 -1.8883238639149281e-07 0.0000000000000000e+00  4.3984685924333335e-07 -2.3897836420627537e-07 0.0000000000000000e+00  1.0152688278026782e-06 -2.9590613499073221e-07 0.0000000000000000e+00  1.9149696259352710e-06 -3.6064602307175218e-07 0.0000000000000000e+00  3.2315480795839338e-06 -4.3418483066636991e-07 0.0000000000000000e+00  5.0309130251896538e-06 -5.1799265260238493e-07 0.0000000000000000e+00  7.2762740655109976e-06 -6.1626291359035641e-07 0.0000000000000000e+00  9.6684591616084587e-06 -7.4334410892749998e-07 0.0000000000000000e+00  1.1340491614842622e-05 -9.4508988552045898e-07 0.0000000000000000e+00  1.0331442867504716e-05 -1.3524274210847050e-06 0.0000000000000000e+00  2.8151082089986447e-06 -2.2914539856517345e-06 0.0000000000000000e+00  -1.7745969714610308e-05 -4.4312845871238450e-06 0.0000000000000000e+00  0.0000000000000000e+00 0.0000000000000000e+00 0.0000000000000000e+00  3.4912812302126140e-08 -2.9226318301005465e-08 0.0000000000000000e+00  1.0375708249452855e-07 -5.9304079273508237e-08 0.0000000000000000e+00  2.4662560316772567e-07 -9.1058866740182307e-08 0.0000000000000000e+00  5.1646906930504259e-07 -1.2526169563311052e-07 0.0000000000000000e+00  9.8752102227028154e-07 -1.6255635676418403e-07 0.0000000000000000e+00  1.7660503781935029e-06 -2.0331010922722454e-07 0.0000000000000000e+00  3.0038818386086975e-06 -2.4731270133192147e-07 0.0000000000000000e+00  4.9141197087489931e-06 -2.9318238777645558e-07 0.0000000000000000e+00  7.7858318350103690e-06 -3.3723277749480311e-07 0.0000000000000000e+00  1.1988063067568481e-05 -3.7145819439021006e-07 0.0000000000000000e+00  1.7939445889859258e-05 -3.8050737798518585e-07 0.0000000000000000e+00  2.5990604037824896e-05 -3.3924870787003147e-07 0.0000000000000000e+00  3.6111530729637999e-05 -2.1986866688391282e-07 0.0000000000000000e+00  4.7189185704681828e-05 -4.2098759708662437e-08 0.0000000000000000e+00  5.5689100258013800e-05 -6.3632543684984488e-08 0.0000000000000000e+00  5.3841722553453879e-05 -1.2205076768094722e-06 0.0000000000000000e+00  0.0000000000000000e+00 0.0000000000000000e+00 0.0000000000000000e+00  1.0644427782649549e-07 -2.4276800271928750e-08 0.0000000000000000e+00  2.5543516972046252e-07 -4.9172279233806119e-08 0.0000000000000000e+00  4.9752852304523402e-07 -7.5260522586519535e-08 0.0000000000000000e+00  9.0051622577772499e-07 -1.0302060987615496e-07 0.0000000000000000e+00  1.5616713628201912e-06 -1.3273367734085749e-07 0.0000000000000000e+00  2.6249121798786492e-06 -1.6428245783141255e-07 0.0000000000000000e+00  4.3054410843626485e-06 -1.9674256229601975e-07 0.0000000000000000e+00  6.9249268109767544e-06 -2.2751471818199479e-07 0.0000000000000000e+00  1.0960038932619788e-05 -2.5041798266178814e-07 0.0000000000000000e+00  1.7104088249682858e-05 -2.5141958111746798e-07 0.0000000000000000e+00  2.6330397846883354e-05 -1.9914329013566079e-07 0.0000000000000000e+00  3.9913857348106709e-05 -2.4797554877480948e-08 0.0000000000000000e+00  5.9283174465067056e-05 4.1486310246474768e-07 0.0000000000000000e+00  8.5369623332831466e-05 1.3797098041375432e-06 0.0000000000000000e+00  1.1665405245078274e-04 3.1396724391897522e-06 0.0000000000000000e+00  1.4498758534323830e-04 4.6277298730725298e-06 0.0000000000000000e+00  0.0000000000000000e+00 0.0000000000000000e+00 0.0000000000000000e+00  1.3503024147064611e-07 -1.8701922504436909e-08 0.0000000000000000e+00  3.1314458732489137e-07 -3.7826199469046570e-08 0.0000000000000000e+00  5.8586849779704143e-07 -5.7751326162284297e-08 0.0000000000000000e+00  1.0232651978611452e-06 -7.8766960029491788e-08 0.0000000000000000e+00  1.7278716775035343e-06 -1.0099455724772799e-07 0.0000000000000000e+00  2.8554449439482999e-06 -1.2425247135809886e-07 0.0000000000000000e+00  4.6471203642302597e-06 -1.4780752947414843e-07 0.0000000000000000e+00  7.4802009745176882e-06 -1.6986282468080957e-07 0.0000000000000000e+00  1.1948728430269182e-05 -1.8634134509048328e-07 0.0000000000000000e+00  1.8989975581698546e-05 -1.8760536669994858e-07 0.0000000000000000e+00  3.0076322361504438e-05 -1.4889788407929151e-07 0.0000000000000000e+00  4.7482402757046305e-05 -1.8107945784805176e-09 0.0000000000000000e+00  7.4576899323953793e-05 4.4973767296870719e-07 0.0000000000000000e+00  1.1585221442852331e-04 1.7698571849153496e-06 0.0000000000000000e+00  1.7551243468026827e-04 5.5809458638776966e-06 0.0000000000000000e+00  2.4861160567188052e-04 1.6988026410073727e-05 0.0000000000000000e+00  0.0000000000000000e+00 0.0000000000000000e+00 0.0000000000000000e+00  1.2018699572504784e-07 -1.2696603423952802e-08 0.0000000000000000e+00  2.7540233586296584e-07 -2.5655703187618522e-08 0.0000000000000000e+00  5.0778333559150453e-07 -3.9109881342519381e-08 0.0000000000000000e+00  8.7530307807958876e-07 -5.3238243126163067e-08 0.0000000000000000e+00  1.4641854497054604e-06 -6.8139735898700109e-08 0.0000000000000000e+00  2.4082044161983391e-06 -8.3827776261981728e-08 0.0000000000000000e+00  3.9202462324006756e-06 -1.0031143080473302e-07 0.0000000000000000e+00  6.3456330881707089e-06 -1.1794221231555823e-07 0.0000000000000000e+00  1.0254395751376772e-05 -1.3846534757946980e-07 0.0000000000000000e+00  1.6603886122542083e-05 -1.6770880554112696e-07 0.0000000000000000e+00  2.7028680719147834e-05 -2.2135932349322199e-07 0.0000000000000000e+00  4.4358015535300061e-05 -3.3371727796211732e-07 0.0000000000000000e+00  7.3523845300100025e-05 -5.5607623117016376e-07 0.0000000000000000e+00  1.2306592050583535e-04 -8.7588770037100743e-07 0.0000000000000000e+00  2.0721386404413942e-04 -8.2234858450724812e-07 0.0000000000000000e+00  3.4741770759095977e-04 1.8310464451277901e-06 0.0000000000000000e+00  0.0000000000000000e+00 0.0000000000000000e+00 0.0000000000000000e+00  7.0038598913709310e-08 -6.4182673913973456e-09 0.0000000000000000e+00  1.5974119270160063e-07 -1.2963098606038417e-08 0.0000000000000000e+00  2.9286696947907608e-07 -1.9747628656576533e-08 0.0000000000000000e+00  5.0238215044550163e-07 -2.6865797919338659e-08 0.0000000000000000e+00  8.3788753235844363e-07 -3.4398993943604097e-08 0.0000000000000000e+00  1.3775062109969135e-06 -4.2476504033353641e-08 0.0000000000000000e+00  2.2480332098241741e-06 -5.1511725267463034e-08 0.0000000000000000e+00  3.6605086661960490e-06 -6.2986170649224033e-08 0.0000000000000000e+00  5.9751529778739957e-06 -8.1919002079340227e-08 0.0000000000000000e+00  9.8230880915752930e-06 -1.2454284378304646e-07 0.0000000000000000e+00  1.6337163321255235e-05 -2.4217586090764369e-07 0.0000000000000000e+00  2.7577818222011938e-05 -5.9521592521621680e-07 0.0000000000000000e+00  4.7213424801098374e-05 -1.6753192365276136e-06 0.0000000000000000e+00  8.1016574076012759e-05 -4.8996196308839635e-06 0.0000000000000000e+00  1.3426721702423840e-04 -1.3662035032126079e-05 0.0000000000000000e+00  1.9842462424445086e-04 -3.2321120209213214e-05 0.0000000000000000e+00  0.0000000000000000e+00 0.0000000000000000e+00 0.0000000000000000e+00  0.0000000000000000e+00 0.0000000000000000e+00 0.0000000000000000e+00  0.0000000000000000e+00 0.0000000000000000e+00 0.0000000000000000e+00  0.0000000000000000e+00 0.0000000000000000e+00 0.0000000000000000e+00  0.0000000000000000e+00 0.0000000000000000e+00 0.0000000000000000e+00  0.0000000000000000e+00 0.0000000000000000e+00 0.0000000000000000e+00  0.0000000000000000e+00 0.0000000000000000e+00 0.0000000