<?xml version="1.0"?>
<VTKFile type="UnstructuredGrid"  version="0.1"  >
<UnstructuredGrid>
<Piece  NumberOfPoints="289" NumberOfCells="512">
<Points>
<DataArray  type="Float64"  NumberOfComponents="3"  format="ascii">0 0 0  0.0625 0 0  0.125 0 0  0.1875 0 0  0.25 0 0  0.3125 0 0  0.375 0 0  0.4375 0 0  0.5 0 0  0.5625 0 0  0.625 0 0  0.6875 0 0  0.75 0 0  0.8125 0 0  0.875 0 0  0.9375 0 0  1 0 0  0 0.0625 0  0.06244758473689292 0.0624939408608947 0  0.1248939259583831 0.06248779400557145 0  0.1873378173118475 0.06248148499398486 0  0.2497781567864303 0.06247496874529832 0  0.3122140255396799 0.06246824829308766 0  0.3746448009238826 0.06246139793311591 0  0.4370703182243987 0.06245459099765899 0  0.4994910993441362 0.06244813067955023 0  0.561908674748188 0.06244247909303741 0  0.6243260454295314 0.0624382746984332 0  0.6867483870315372 0.06243632230955684 0  0.7491842498706522 0.06243754119656485 0  0.8116479110284948 0.06244290762705851 0  0.8741644851315631 0.0624537463611906 0  0.9367807064420408 0.06247455502801494 0  0.9995774169830914 0.06253309514273234 0  0 0.125 0  0.06239643447367139 0.1249879701436865 0  0.1247903412649847 0.1249757509580979 0  0.1871792594646807 0.1249631779829365 0  0.2495609196679591 0.1249501421802097 0  0.3119333931070269 0.1249366262619024 0  0.374295309615566 0.1249227507026936 0  0.4366461737760694 0.124908830812675 0  0.4989868148780072 0.1248954431825636 0  0.561320017235805 0.1248834938747638 0  0.6236513998138756 0.1248742702259414 0  0.685990663273603 0.124869441023887 0  0.7483534237612725 0.1248709436715104 0  0.8107640138969955 0.1248806531486603 0  0.8732596867162387 0.1248995936791591 0  0.9358958279079482 0.1249256176814493 0  0.9987498576905931 0.1249419938273245 0  0 0.1875 0  0.06234785109733017 0.187482190014056 0  0.1246918108332219 0.1874640630815743 0  0.1870280670551101 0.1874453352517519 0  0.2493530470760351 0.1874257971498886 0  0.3116636156270938 0.1874053650826321 0  0.3739573743249271 0.1873841485590808 0  0.4362331060564785 0.1873625384374643 0  0.4984914143278024 0.1873413169057923 0  0.5607356137883611 0.1873217837845567 0  0.6229729315383639 0.1873058803498064 0  0.685216072450465 0.1872962676643116 0  0.747485159096269 0.1872962740864424 0  0.8098098857822753 0.1873095502972847 0  0.872231168932496 0.1873391132489716 0  0.9348001744539826 0.1873851168714351 0  0.9975704974806469 0.1874405390882996 0  0 0.25 0  0.06230321667347919 0.2499767285935206 0  0.1246010792641764 0.2499529780681476 0  0.1868882992691775 0.2499283050109006 0  0.2491598158799195 0.2499023486566643 0  0.3114110088515362 0.2498748915148534 0  0.373638041656928 0.2498459442981854 0  0.4358383926197697 0.2498158641910745 0  0.4980116396399518 0.2497855144588403 0  0.5601605656820309 0.2497564689368568 0  0.6222926358875708 0.2497312535134479 0  0.6844218395316521 0.2497135926482996 0  0.7465707437256701 0.2497085840122409 0  0.8087722823198985 0.2497226488095542 0  0.8710701783394802 0.2497629979064882 0  0.9335159597343774 0.2498362797402667 0  0.9961598766049813 0.2499464171899702 0  0 0.3125 0  0.06226400825863598 0.3124717484780128 0  0.1245211102586853 0.3124428181180811 0  0.186764418334533 0.3124125611298418 0  0.2489871837235254 0.3123804049171515 0  0.3111829788936964 0.3123459136496334 0  0.3733460322891081 0.3123088817818594 0  0.4354717892087054 0.3122694748937829 0  0.4975577870781526 0.3122284362819002 0  0.559604940075985 0.3121873791820107 0  0.6216193100330626 0.3121491806218434 0  0.6836143663828501 0.3121184764577233 0  0.7456135578640399 0.3121022159576948 0  0.8076526757320944 0.3121101524131266 0  0.8697809854733147 0.3121550166928515 0  0.9320597064459608 0.3122519898451305 0  0.9945570292686537 0.3124171386433683 0  0 0.375 0  0.06223178384877914 0.3749674496749221 0  0.1244550664929346 0.3749339878240182 0  0.1866612804268942 0.3748987204053823 0  0.248841819560447 0.3748608017660215 0  0.3109881352557275 0.3748194849075333 0  0.3730919949715587 0.3747742085778084 0  0.4351459943565814 0.3747247429491385 0  0.4971444432075023 0.3746714246109227 0  0.5590847740954044 0.3746155227881692 0  0.6209696321186339 0.3745597894349636 0  0.6828097595646416 0.3745092481750156 0  0.7446276314974275 0.3744722522528159 0  0.8064614590106118 0.3744617536048974 0  0.8683686455075579 0.3744965205036249 0  0.9304272598911801 0.3746016776211245 0  0.9927341219775668 0.3748074619502848 0  0 0.4375 0  0.06220813272542733 0.4374640649510451 0  0.1244062151849348 0.4374269664574422 0  0.1865840078443866 0.4373875355990142 0  0.2487309639723319 0.4373446039205224 0  0.3108361762479747 0.4372970271923395 0  0.3728884753037839 0.4372437448349696 0  0.4348767844588191 0.4371839007211061 0  0.4967908877588896 0.437117066559832 0  0.5586228376373503 0.4370436327973403 0  0.6203693033370229 0.4369654652034761 0  0.6820352073062163 0.4368869640901344 0  0.7436389357934597 0.436816687585521 0  0.8052191035906884 0.4367696535623777 0  0.8668421337398287 0.4367701942346859 0  0.928608749704221 0.4368546207586332 0  0.9906563161518865 0.4370718829079893 0  0 0.5 0  0.06219458633201175 0.4999618460216017 0  0.1243777498135368 0.4999222808689369 0  0.1865377236233125 0.4998798567949256 0  0.248662085874545 0.4998330594752994 0  0.3107374928728822 0.4997802893979043 0  0.3727495212241253 0.4997198686198487 0  0.4346827228277986 0.4996500969135614 0  0.4965210759567699 0.4995694013791966 0  0.5582491404532599 0.4994766590034531 0  0.6198544056673424 0.4993718316335822 0  0.6813315432956397 0.4992571473215414 0  0.7426894610869769 0.4991391895317732 0  0.8039619567568361 0.4990323648501815 0  0.8652218970816037 0.498964117427623 0  0.9265965528611517 0.4989814773246906 0  0.9882781799861199 0.49915641321774 0  0 0.5625 0  0.0621924902120651 0.562461040093422 0  0.1243725268143741 0.5624204573056051 0  0.1865271407592549 0.5623765564677228 0  0.2486423124813505 0.5623274968433254 0  0.3107024394340961 0.5622712185671943 0  0.3726898267176113 0.5622053736319008 0  0.4345842770853713 0.5621272752046068 0  0.4963629527666391 0.5620338978993829 0  0.558000859600884 0.5619220003740244 0  0.619472615775711 0.5617885198083051 0  0.6807566685651503 0.5616315406196296 0  0.7418438087822785 0.5614524198427057 0  0.8027524460070515 0.5612600976230379 0  0.8635526995029205 0.5610790963787057 0  0.9243977470985829 0.5609624095013963 0  0.9855514204901277 0.5610072039137791 0  0 0.625 0  0.06220284394872388 0.6249618580690756 0  0.1243927290000479 0.6249219542276027 0  0.1865560172647836 0.6248784197221386 0  0.2486776323075566 0.6248291619218143 0  0.3107402387514191 0.6247717315454427 0  0.3727233147104828 0.6247031651951844 0  0.4346021249923023 0.6246197975969141 0  0.4963466874018079 0.6245170463420615 0  0.5579210169918574 0.6243891962380044 0  0.6192833443034439 0.6242292751778439 0  0.6803888235626104 0.624029278148441 0  0.7411977344603751 0.6237813965507503 0  0.8016944539523604 0.6234818191247912 0  0.8619246146677264 0.6231404499776644 0  0.9220554751619071 0.6228020975074156 0  0.9824471905327711 0.6225822075350335 0  0 0.6875 0  0.06222612447360094 0.6874644380250998 0  0.1244394855159689 0.687427083350761 0  0.1866265179736321 0.6873860102635342 0  0.2487719137653742 0.687339008023211 0  0.3108575436197977 0.6872833974472509 0  0.3728611123965415 0.6872157918102647 0  0.4347544444748922 0.6871317719440163 0  0.4965013196321632 0.6870254346028377 0  0.5580548966579073 0.6868887613189129 0  0.6193551253532956 0.6867107540153561 0  0.6803275086057005 0.686476341265807 0  0.7408868701779012 0.6861653436452829 0  0.8009547045947735 0.6857528425919158 0  0.8605074513205317 0.685215693640041 0  0.9196815161273275 0.6845589293102639 0  0.9789412262918745 0.6838858497373381 0  0 0.75 0  0.06226211758533064 0.7499688098652789 0  0.1245124997861048 0.7499359315410591 0  0.1867385633491036 0.7498995330620615 0  0.2489258472627573 0.7498574700076059 0  0.3110567768658007 0.7498070744435102 0  0.3731090123180364 0.7497448655442636 0  0.4350531440994028 0.7496661313429522 0  0.4968494096023345 0.749564300298678 0  0.5584430204202918 0.7494299652286638 0  0.619757723371163 0.7492493182960903 0  0.6806877473247361 0.7490015691722511 0  0.7410904393425966 0.7486546387402596 0  0.8007887684844739 0.7481583356619766 0  0.859612054702631 0.7474364135602958 0  0.9175468126017033 0.7463950745058456 0  0.9750827371566158 0.7450589358330771 0  0 0.8125 0  0.06230979065812259 0.8124748685071923 0  0.1246097571908485 0.8124482999624572 0  0.1868892871724973 0.8124187229221295 0  0.2491359984214588 0.8123842713165348 0  0.3113345173230574 0.8123425797819069 0  0.3734647603208329 0.8122904957176909 0  0.4354993760094442 0.812223651692335 0  0.4973997880121241 0.8121358042397047 0  0.5591099108309723 0.8120177710709928 0  0.6205460268719085 0.811855639333969 0  0.6815805425277589 0.8116275373987933 0  0.7420169934965541 0.8112972774760944 0  0.8015569335911957 0.8108005221310703 0  0.8597801311258101 0.8100120884045602 0  0.9162589615861689 0.808665766932441 0  0.9714384399569369 0.8061664264444391 0  0 0.875 0  0.06236724261074113 0.8749823627461684 0  0.1247273945237817 0.8749636769093714 0  0.1870727530486172 0.8749427897679413 0  0.2493942284219995 0.8749183191835099 0  0.311680352803057 0.8748884920760356 0  0.3739158343539061 0.8748509152738747 0  0.4360793043405303 0.8748022347680713 0  0.4981396237883223 0.8747376151276671 0  0.5600495554815442 0.8746499315168269 0  0.6217344629759547 0.8745284992994106 0  0.6830713184023955 0.8743570197231774 0  0.7438483328780778 0.87410994923805 0  0.8036854771663795 0.8737445327436137 0  0.8618782148067167 0.8731771058594319 0  0.9171088908009359 0.872195663911759 0  0.9670448523160687 0.8701004530440477 0  0 0.9375 0  0.06243176117074476 0.9374909046161704 0  0.1248598031465771 0.9374812557419037 0  0.1872800719213943 0.9374704430431845 0  0.2496877503864076 0.9374577306860932 0  0.312076701874198 0.9374421686011257 0  0.3744386404205602 0.9374224668419264 0  0.43676180189
[...]
<PointData  Vectors="f_54"> 
<DataArray  type="Float64"  Name="f_54"  NumberOfComponents="3" format="ascii">0.0000000000000000e+00 0.0000000000000000e+00 0.0000000000000000e+00  0.0000000000000000e+00 0.0000000000000000e+00 0.0000000000000000e+00  0.0000000000000000e+00 0.0000000000000000e+00 0.0000000000000000e+00  0.0000000000000000e+00 0.0000000000000000e+00 0.0000000000000000e+00  0.0000000000000000e+00 0.0000000000000000e+00 0.0000000000000000e+00  0.0000000000000000e+00 0.0000000000000000e+00 0.0000000000000000e+00  0.0000000000000000e+00 0.0000000000000000e+00 0.0000000000000000e+00  0.0000000000000000e+00 0.0000000000000000e+00 0.0000000000000000e+00  0.0000000000000000e+00 0.0000000000000000e+00 0.0000000000000000e+00  0.0000000000000000e+00 0.0000000000000000e+00 0.0000000000000000e+00  0.0000000000000000e+00 0.0000000000000000e+00 0.0000000000000000e+00  0.0000000000000000e+00 0.0000000000000000e+00 0.0000000000000000e+00  0.0000000000000000e+00 0.0000000000000000e+00 0.0000000000000000e+00  0.0000000000000000e+00 0.0000000000000000e+00 0.0000000000000000e+00  0.0000000000000000e+00 0.0000000000000000e+00 0.0000000000000000e+00  0.0000000000000000e+00 0.0000000000000000e+00 0.0000000000000000e+00  0.0000000000000000e+00 0.0000000000000000e+00 0.0000000000000000e+00  0.0000000000000000e+00 0.0000000000000000e+00 0.0000000000000000e+00  -2.0320140238548209e-06 -5.5685113763967740e-08 0.0000000000000000e+00  -4.1324404862995982e-06 -1.1260687932415527e-07 0.0000000000000000e+00  -6.3715298135738296e-06 -1.7191120239491093e-07 0.0000000000000000e+00  -8.8225694856293499e-06 -2.3451702878743677e-07 0.0000000000000000e+00  -1.1563442456498493e-05 -3.0093046980439536e-07 0.0000000000000000e+00  -1.4678332436241049e-05 -3.7095863512160509e-07 0.0000000000000000e+00  -1.8259916515321182e-05 -4.4326483640368037e-07 0.0000000000000000e+00  -2.2412919033177205e-05 -5.1467446970104772e-07 0.0000000000000000e+00  -2.7261212123228944e-05 -5.7906928553122938e-07 0.0000000000000000e+00  -3.2964012857525501e-05 -6.2551531414389401e-07 0.0000000000000000e+00  -3.9755917265919973e-05 -6.3466416695809534e-07 0.0000000000000000e+00  -4.8052643460617871e-05 -5.7034198241684895e-07 0.0000000000000000e+00  -5.8751584833645095e-05 -3.5515620672239894e-07 0.0000000000000000e+00  -7.4161715466896161e-05 2.1389554986105720e-07 0.0000000000000000e+00  -1.0115620113765760e-04 1.7951426022780952e-06 0.0000000000000000e+00  -1.6286391831091585e-04 6.9013717563414967e-06 0.0000000000000000e+00  0.0000000000000000e+00 0.0000000000000000e+00 0.0000000000000000e+00  -3.9917492603341086e-06 -1.1002838362349775e-07 0.0000000000000000e+00  -8.1183887654380590e-06 -2.2262158452252771e-07 0.0000000000000000e+00  -1.2518411018359722e-05 -3.4018984134724972e-07 0.0000000000000000e+00  -1.7336284689852247e-05 -4.6474992538077325e-07 0.0000000000000000e+00  -2.2725421518822102e-05 -5.9759670703476924e-07 0.0000000000000000e+00  -2.8851225665316470e-05 -7.3879336257292174e-07 0.0000000000000000e+00  -3.5894601859601686e-05 -8.8637993072879671e-07 0.0000000000000000e+00  -4.4056902882478945e-05 -1.0351592758297084e-06 0.0000000000000000e+00  -5.3568650197981372e-05 -1.1748566397873488e-06 0.0000000000000000e+00  -6.4707343711465338e-05 -1.2873498938851291e-06 0.0000000000000000e+00  -7.7836098904096018e-05 -1.3425349356549636e-06 0.0000000000000000e+00  -9.3487809748023077e-05 -1.2924498317921468e-06 0.0000000000000000e+00  -1.1254024551695871e-04 -1.0653009927231275e-06 0.0000000000000000e+00  -1.3652598401892762e-04 -5.7590641797674583e-07 0.0000000000000000e+00  -1.6784910984483234e-04 1.4132043690870038e-07 0.0000000000000000e+00  -2.0758724913650471e-04 6.3520342232486072e-08 0.0000000000000000e+00  0.0000000000000000e+00 0.0000000000000000e+00 0.0000000000000000e+00  -5.8123935845205916e-06 -1.6169277689560960e-07 0.0000000000000000e+00  -1.1822751615188238e-05 -3.2744181645279734e-07 0.0000000000000000e+00  -1.8234326653606449e-05 -5.0113321130690824e-07 0.0000000000000000e+00  -2.5259246993017351e-05 -6.8620128697310988e-07 0.0000000000000000e+00  -3.3122749813026127e-05 -8.8523292010900954e-07 0.0000000000000000e+00  -4.2067184355960127e-05 -1.0993375968585185e-06 0.0000000000000000e+00  -5.2355871982340991e-05 -1.3271559188779441e-06 0.0000000000000000e+00  -6.4277192112301132e-05 -1.5633379756251244e-06 0.0000000000000000e+00  -7.8149811770944613e-05 -1.7962806247057954e-06 0.0000000000000000e+00  -9.4330853142520537e-05 -2.0048972545568861e-06 0.0000000000000000e+00  -1.1322960487443505e-04 -2.1542900124504941e-06 0.0000000000000000e+00  -1.3532768556227367e-04 -2.1906408269352433e-06 0.0000000000000000e+00  -1.6119242377983536e-04 -2.0369658244905776e-06 0.0000000000000000e+00  -1.9141052119767946e-04 -1.5936815468444513e-06 0.0000000000000000e+00  -2.2617917902465718e-04 -7.4066689541664941e-07 0.0000000000000000e+00  -2.6391353069548322e-04 7.8310636544396911e-07 0.0000000000000000e+00  0.0000000000000000e+00 0.0000000000000000e+00 0.0000000000000000e+00  -7.4305930105611952e-06 -2.0917895245956763e-07 0.0000000000000000e+00  -1.5117343393970956e-05 -4.2409021908585249e-07 0.0000000000000000e+00  -2.3323340867177190e-05 -6.5034168953435706e-07 0.0000000000000000e+00  -3.2323567829086785e-05 -8.9316970425714023e-07 0.0000000000000000e+00  -4.2410407720664944e-05 -1.1570721602365502e-06 0.0000000000000000e+00  -5.3898503606681088e-05 -1.4451875195438120e-06 0.0000000000000000e+00  -6.7128629144942508e-05 -1.7582753113781219e-06 0.0000000000000000e+00  -8.2470104679808212e-05 -2.0931031020831943e-06 0.0000000000000000e+00  -1.0032101301519385e-04 -2.4399932810380555e-06 0.0000000000000000e+00  -1.2110470856905536e-04 -2.7792616227959201e-06 0.0000000000000000e+00  -1.4525888456358327e-04 -3.0763594379647155e-06 0.0000000000000000e+00  -1.7320715613755101e-04 -3.2758344552009422e-06 0.0000000000000000e+00  -2.0528669192964734e-04 -3.2948388325679801e-06 0.0000000000000000e+00  -2.4156811071972853e-04 -3.0173731582150324e-06 0.0000000000000000e+00  -2.8143988145154031e-04 -2.2884202913970890e-06 0.0000000000000000e+00  -3.2279917466749734e-04 -9.0298116948469582e-07 0.0000000000000000e+00  0.0000000000000000e+00 0.0000000000000000e+00 0.0000000000000000e+00  -8.7879685809333815e-06 -2.5080414137325310e-07 0.0000000000000000e+00  -1.7883851549182552e-05 -5.0915813307053634e-07 0.0000000000000000e+00  -2.7604155328671168e-05 -7.8259706716888459e-07 0.0000000000000000e+00  -3.8280606230977073e-05 -1.0785116927865635e-06 0.0000000000000000e+00  -5.0267157818179977e-05 -1.4039153299428318e-06 0.0000000000000000e+00  -6.3946026786977815e-05 -1.7649762682456092e-06 0.0000000000000000e+00  -7.9732067853093697e-05 -2.1661660378661179e-06 0.0000000000000000e+00  -9.8074376524502979e-05 -2.6088031233800200e-06 0.0000000000000000e+00  -1.1945326924346659e-04 -3.0886787527928298e-06 0.0000000000000000e+00  -1.4436941374765814e-04 -3.5923513161872744e-06 0.0000000000000000e+00  -1.7331921383556076e-04 -4.0916352963716807e-06 0.0000000000000000e+00  -2.0674542623652173e-04 -4.5358890044992620e-06 0.0000000000000000e+00  -2.4494298361477996e-04 -4.8420878725497606e-06 0.0000000000000000e+00  -2.8788792854349271e-04 -4.8836177979263519e-06 0.0000000000000000e+00  -3.3495509645186256e-04 -4.4811408607807320e-06 0.0000000000000000e+00  -3.8454801493226177e-04 -3.4081070486809245e-06 0.0000000000000000e+00  0.0000000000000000e+00 0.0000000000000000e+00 0.0000000000000000e+00  -9.8326984061744018e-06 -2.8474558555923315e-07 0.0000000000000000e+00  -2.0016922384882943e-05 -5.7888906514535500e-07 0.0000000000000000e+00  -3.0914504782489099e-05 -8.9197760104243429e-07 0.0000000000000000e+00  -4.2906264231744509e-05 -1.2337709361889245e-06 0.0000000000000000e+00  -5.6400907258549722e-05 -1.6142419422204264e-06 0.0000000000000000e+00  -7.1842902804863807e-05 -2.0434098045574241e-06 0.0000000000000000e+00  -8.9718481198497834e-05 -2.5308736792776922e-06 0.0000000000000000e+00  -1.1055836061753217e-04 -3.0848228319952650e-06 0.0000000000000000e+00  -1.3493494606625568e-04 -3.7101500876418163e-06 0.0000000000000000e+00  -1.6345041778056859e-04 -4.4050708597814589e-06 0.0000000000000000e+00  -1.9671011334391645e-04 -5.1553523196114021e-06 0.0000000000000000e+00  -2.3527276246555499e-04 -5.9249549295501423e-06 0.0000000000000000e+00  -2.7956590033938005e-04 -6.6417977981237680e-06 0.0000000000000000e+00  -3.2975382108677362e-04 -7.1779197341552088e-06 0.0000000000000000e+00  -3.8555520700719144e-04 -7.3249808869546693e-06 0.0000000000000000e+00  -4.4604608457246130e-04 -6.7674821377634688e-06 0.0000000000000000e+00  0.0000000000000000e+00 0.0000000000000000e+00 0.0000000000000000e+00  -1.0521237309216624e-05 -3.0915203775353948e-07 0.0000000000000000e+00  -2.1427553407107005e-05 -6.2941070248625083e-07 0.0000000000000000e+00  -3.3116092373894632e-05 -9.7222786206708103e-07 0.0000000000000000e+00  -4.6007162085957193e-05 -1.3497085282005761e-06 0.0000000000000000e+00  -6.0555477611019722e-05 -1.7749204057169568e-06 0.0000000000000000e+00  -7.7260673434918523e-05 -2.2621550174706051e-06 0.0000000000000000e+00  -9.6676301573062862e-05 -2.8270631927621144e-06 0.0000000000000000e+00  -1.1941597633931584e-04 -3.4864934175371503e-06 0.0000000000000000e+00  -1.4615453044646422e-04 -4.2576743770057484e-06 0.0000000000000000e+00  -1.7762098678904533e-04 -5.1560341587711217e-06 0.0000000000000000e+00  -2.1457887919489025e-04 -6.1903535061188698e-06 0.0000000000000000e+00  -2.5778821289019972e-04 -7.3530697335369445e-06 0.0000000000000000e+00  -3.0794275980044317e-04 -8.6025678294416477e-06 0.0000000000000000e+00  -3.6557773024486573e-04 -9.8339866053075973e-06 0.0000000000000000e+00  -4.3094834377431160e-04 -1.0837129172438330e-05 0.0000000000000000e+00  -5.0389154625860922e-04 -1.1246622728791441e-05 0.0000000000000000e+00  0.0000000000000000e+00 0.0000000000000000e+00 0.0000000000000000e+00  -1.0820216831641932e-05 -3.2231418771632663e-07 0.0000000000000000e+00  -2.2046917453112107e-05 -6.5709816446266934e-07 0.0000000000000000e+00  -3.4100363242233644e-05 -1.0173609976861616e-06 0.0000000000000000e+00  -4.7428334161956156e-05 -1.4172149502150218e-06 0.0000000000000000e+00  -6.2520054898136795e-05 -1.8725207083102034e-06 0.0000000000000000e+00  -7.9920048859316597e-05 -2.4016452475521981e-06 0.0000000000000000e+00  -1.0024140689837296e-04 -3.0263569744383179e-06 0.0000000000000000e+00  -1.2417745682344799e-04 -3.7728285224728388e-06 0.0000000000000000e+00  -1.5251013157972421e-04 -4.6725601917880490e-06 0.0000000000000000e+00  -1.8611250724650399e-04 -5.7626498897764951e-06 0.0000000000000000e+00  -2.2594220515785070e-04 -7.0839937387363666e-06 0.0000000000000000e+00  -2.7302202091432674e-04 -8.6743916963256061e-06 0.0000000000000000e+00  -3.2840478011317785e-04 -1.0550961148550163e-05 0.0000000000000000e+00  -3.9312110896594366e-04 -1.2673407255064847e-05 0.0000000000000000e+00  -4.6810954351265039e-04 -1.4879678206379612e-05 0.0000000000000000e+00  -5.5412026104878444e-04 -1.6794627878416972e-05 0.0000000000000000e+00  0.0000000000000000e+00 0.0000000000000000e+00 0.0000000000000000e+00  -1.0708500163932384e-05 -3.2287128252723663e-07 0.0000000000000000e+00  -2.1830593072239725e-05 -6.5902188444517917e-07 0.0000000000000000e+00  -3.3795144848838623e-05 -1.0224222442568320e-06 0.0000000000000000e+00  -4.7062616821585092e-05 -1.4285123866993966e-06 0.0000000000000000e+00  -6.2141753357373243e-05 -1.8951371452731110e-06 0.0000000000000000e+00  -7.9607170835453923e-05 -2.4437636582319726e-06 0.0000000000000000e+00  -1.0011777925529563e-04 -3.1011444062511205e-06 0.0000000000000000e+00  -1.2443555420868946e-04 -3.9016341714597945e-06 0.0000000000000000e+00  -1.5344357552080084e-04 -4.8903637889088326e-06 0.0000000000000000e+00  -1.8816151508813914e-04 -6.1272682502550734e-06 0.0000000000000000e+00  -2.2975616012727986e-04 -7.6911959906631499e-06 0.0000000000000000e+00  -2.7954476869307562e-04 -9.6812272548406164e-06 0.0000000000000000e+00  -3.3899118778351050e-04 -1.2207656720579566e-05 0.0000000000000000e+00  -4.0969948703815993e-04 -1.5356889521193513e-05 0.0000000000000000e+00  -4.9341486512682940e-04 -1.9105836787721198e-05 0.0000000000000000e+00  -5.9203855951363922e-04 -2.3168220184534853e-05 0.0000000000000000e+00  0.0000000000000000e+00 0.0000000000000000e+00 0.0000000000000000e+00  -1.0179274255839751e-05 -3.1001886974877611e-07 0.0000000000000000e+00  -2.0762971818219859e-05 -6.3340501190964807e-07 0.0000000000000000e+00  -3.2171824607877757e-05 -9.8428952133071898e-07 0.0000000000000000e+00  -4.4861312082637805e-05 -1.3784646592027251e-06 0.0000000000000000e+00  -5.9340786399696424e-05 -1.8344799370362290e-06 0.0000000000000000e+00  -7.6194688951135314e-05 -2.3751386749735816e-06 0.0000000000000000e+00  -9.6106385853159053e-05 -3.0296896220156297e-06 0.0000000000000000e+00  -1.1988486431375767e-04 -3.8371986561054713e-06 0.0000000000000000e+00  -1.4849399716578121e-04 -4.8518710216156895e-06 0.0000000000000000e+00  -1.8308325930766682e-04 -6.1514189660646579e-06 0.0000000000000000e+00  -2.2501790409275722e-04 -7.8496073981693847e-06 0.0000000000000000e+00  -2.7590674086768943e-04 -1.0112768132037840e-05 0.0000000000000000e+00  -3.3762963208328555e-04 -1.3174482588494282e-05 0.0000000000000000e+00  -4.1237953291931397e-04 -1.7327055941979410e-05 0.0000000000000000e+00  -5.0275532925884916e-04 -2.2837457078858231e-05 0.0000000000000000e+00  -6.1193634702729209e-04 -2.9699184865667196e-05 0.0000000000000000e+00  0.0000000000000000e+00 0.0000000000000000e+00 0.0000000000000000e+00  -9.2419638104272997e-06 -2.8367543737573918e-07 0.0000000000000000e+00  -1.8861398328952655e-05 -5.7999605633728751e-07 0.0000000000000000e+00  -2.9252364602698273e-05 -9.0234379551190465e-07 0.0000000000000000e+00  -4.0845128003633361e-05 -1.2657209894623451e-06 0.0000000000000000e+00  -5.4126879607727316e-05 -1.6878123662929181e-06 0.0000000000000000e+00  -6.9665799562999961e-05 -2.1904432219661256e-06 0.0000000000000000e+00  -8.8139713386544693e-05 -2.8017718258551469e-06 0.0000000000000000e+00  -1.1037053341739427e-04 -3.5598634345522042e-06 0.0000000000000000e+00  -1.3736528855761305e-04 -4.5189076759933020e-06 0.0000000000000000e+00  -1.7036352831991918e-04 -5.7604857291369266e-06 0.0000000000000000e+00  -2.1088906206320792e-04 -7.4141609301939075e-06 0.0000000000000000e+00  -2.6080227313770156e-04 -9.6938011413895971e-06 0.0000000000000000e+00  -3.2235274240174916e-04 -1.2955132511835896e-05 0.0000000000000000e+00  -3.9825728748084821e-04 -1.7763715367882243e-05 0.0000000000000000e+00  -4.9190937714579626e-04 -2.4901727228724313e-05 0.0000000000000000e+00  -6.0790618051047762e-04 -3.5207402156320022e-05 0.0000000000000000e+00  0.0000000000000000e+00 0.0000000000000000e+00 0.0000000000000000e+00  -7.9236676695052479e-06 -2.4456864210752535e-07 0.0000000000000000e+00  -1.6179410648262159e-05 -5.0026473914040555e-07 0.0000000000000000e+00  -2.5115123519381171e-05 -7.7883275317730790e-07 0.0000000000000000e+00  -3.5113879194269099e-05 -1.0933723470065685e-06 0.0000000000000000e+00  -4.6614820516492578e-05 -1.4591633655903095e-06 0.0000000000000000e+00  -6.0138460235996265e-05 -1.8947193160789086e-06 0.0000000000000000e+00  -7.6318423115272620e-05 -2.4232772110610370e-06 0.0000000000000000e+00  -9.5942019823113349e-05 -3.0751973177766709e-06 0.0000000000000000e+00  -1.2000211565218016e-04 -3.8924307263719975e-06 0.0000000000000000e+00  -1.4976188615607202e-04 -4.9379211884902889e-06 0.0000000000000000e+00  -1.8683098453350564e-04 -6.3168418782308824e-06 0.0000000000000000e+00  -2.3324496493158829e-04 -8.2252157961546917e-06 0.0000000000000000e+00  -2.9153201457584357e-04 -1.1056633364780165e-05 0.0000000000000000e+00  -3.6476831354856701e-04 -1.5609026633970534e-05 0.0000000000000000e+00  -4.5679953669861239e-04 -2.3337975850108176e-05 0.0000000000000000e+00  -5.7376493509950514e-04 -3.5566056911608684e-05 0.0000000000000000e+00  0.0000000000000000e+00 0.0000000000000000e+00 0.0000000000000000e+00  -6.2697654781916658e-06 -1.9421829117459866e-07 0.0000000000000000e+00  -1.2808320800702102e-05 -3.9736331225811455e-07 0.0000000000000000e+00  -1.9898210382350692e-05 -6.1880304081668018e-07 0.0000000000000000e+00  -2.7853006821172773e-05 -8.6885614120070826e-07 0.0000000000000000e+00  -3.7036380436078123e-05 -1.1592577946738154e-06 0.0000000000000000e+00  -4.7886103896502630e-05 -1.5035699815976857e-06 0.0000000000000000e+00  -6.0945674052141841e-05 -1.9174311816060974e-06 0.0000000000000000e+00  -7.6907209577050674e-05 -2.4184801761426733e-06 0.0000000000000000e+00  -9.6670403375938874e-05 -3.0258684502336411e-06 0.0000000000000000e+00  -1.2142289580900284e-04 -3.7600862631396144e-06 0.0000000000000000e+00  -1.5274528168257744e-04 -4.6474363139166892e-06 0.0000000000000000e+00  -1.9273310264785273e-04 -5.7464143977759171e-06 0.0000000000000000e+00  -2.4409521043177438e-04 -7.2545718948974956e-06 0.0000000000000000e+00  -3.1011136030661236e-04 -9.8795680605042463e-06 0.0000000000000000e+00  -3.9420395590896031e-04 -1.6066643220290817e-05 0.0000000000000000e+00  -4.9866682925262537e-04 -3.4642914283213650e-05 0.0000000000000000e+00  0.0000000000000000e+00 0.0000000000000000e+00 0.0000000000000000e+00  -4.3433417875756602e-06 -1.3482167490353343e-07 0.0000000000000000e+00  -8.8763501750030803e-06 -2.7586197834798746e-07 0.0000000000000000e+00  -1.3798990106880940e-05 -4.2960071968220420e-07 0.0000000000000000e+00  -1.9334696844199201e-05 -6.0305629976322123e-07 0.0000000000000000e+00  -2.5745242080138380e-05 -8.0392497542035091e-07 0.0000000000000000e+00  -3.3350100994717090e-05 -1.0404273502346213e-06 0.0000000000000000e+00  -4.2553128063441027e-05 -1.3204310696396905e-06 0.0000000000000000e+00  -5.3880879069694241e-05 -1.6488608886697134e-06 0.0000000000000000e+00  -6.8039394738358662e-05 -2.0211896091547221e-06 0.0000000000000000e+00  -8.6000005402468230e-05 -2.4082836046681334e-06 0.0000000000000000e+00  -1.0912944461269015e-04 -2.7232784277329152e-06 0.0000000000000000e+00  -1.3938227843667152e-04 -2.7553873837183779e-06 0.0000000000000000e+00  -1.7956291674948993e-04 -2.0593690240542122e-06 0.0000000000000000e+00  -2.3360978062915907e-04 1.5214469652217215e-07 0.0000000000000000e+00  -3.0670766335971148e-04 4.8261259466765923e-06 0.0000000000000000e+00  -4.0502118030660578e-04 1.1598453532443302e-05 0.0000000000000000e+00  0.0000000000000000e+00 0.0000000000000000e+00 0.0000000000000000e+00  -2.2231491005916209e-06 -6.9077428822686436e-08 0.0000000000000000e+00  -4.5446649367787576e-06 -1.4134491984140563e-07 0.0000000000000000e+00  -7.0684944573691665e-06 -2.2010719334114560e-07 0.0000000000000000e+00  -9.9113821848747109e-06 -3.0889125093283176e-07 0.0000000000000000e+00  -1.3211169612650496e-05 -4.1143132178621000e-07 0.0000000000000000e+00  -1.7137904430807494e-05 -5.3137038782399021e-07 0.0000000000000000e+00  -2.1909704886190849e-05 -6.7123528070158204e-07 0.0000000000000000e+00  -2.7816669350459017e-05 -8.2955076519056429e-07 0.0000000000000000e+00  -3.5258670778905809e-05 -9.9310776068132181e-07 0.0000000000000000e+00  -4.4807711192631086e-05 -1.1162767706450148e-06 0.0000000000000000e+00  -5.7314179111650750e-05 -1.0647007987046080e-06 0.0000000000000000e+00  -7.4087947474423975e-05 -4.5939137672531421e-07 0.0000000000000000e+00  -9.7175847357809981e-05 1.7521678551502951e-06 0.0000000000000000e+00  -1.2957431109568931e-04 8.3868762843863860e-06 0.0000000000000000e+00  -1.7420999749981022e-04 2.6046868803729488e-05 0.0000000000000000e+00  -2.2765422711337624e-04 6.4467950381561580e-05 0.0000000000000000e+00  0.0000000000000000e+00 0.0000000000000000e+00 0.0000000000000000e+00  0.0000000000000000e+00 0.0000000000000000e+00 0.0000000000000000e+00  0.0000000000000000e+00 0.0000000000000000e+00 0.0000000000000000e+00  0.0000000000000000e+00 0.0000000000000000e+00 0.0000000000000000e+00  0.0000000000000000e+00 0.0000000000000000e+00 0.0000000000000000e+00  0.0000000000000000e+00 0.0000000000