<?xml version="1.0"?>
<VTKFile type="UnstructuredGrid"  version="0.1"  >
<UnstructuredGrid>
<Piece  NumberOfPoints="289" NumberOfCells="512">
<Points>
<DataArray  type="Float64"  NumberOfComponents="3"  format="ascii">0 0 0  0.0625 0 0  0.125 0 0  0.1875 0 0  0.25 0 0  0.3125 0 0  0.375 0 0  0.4375 0 0  0.5 0 0  0.5625 0 0  0.625 0 0  0.6875 0 0  0.75 0 0  0.8125 0 0  0.875 0 0  0.9375 0 0  1 0 0  0 0.0625 0  0.06243838329648119 0.06249636605386754 0  0.1248751292689579 0.06249267974987037 0  0.1873086218566541 0.06248889723632788 0  0.2497373081904212 0.06248499322061159 0  0.3121597530493402 0.06248097312938212 0  0.374574721631344 0.06247688855444111 0  0.4369813005163302 0.06247285661182745 0  0.4993790657663328 0.06246908311972303 0  0.5617683039127344 0.06246588833234993 0  0.6241502833923069 0.06246373283372808 0  0.6865275523585608 0.06246324311903453 0  0.7489041696727057 0.06246525512573311 0  0.8112855035161464 0.06247098998169613 0  0.8736759973007027 0.06248292638272314 0  0.9360672357878697 0.06250912059176497 0  0.9983770140192907 0.0625859322205707 0  0 0.125 0  0.06237845101967059 0.1249927854971838 0  0.1247536080063631 0.1249854576268783 0  0.1871222123999665 0.1249779188578749 0  0.2494811166981929 0.1249701064388901 0  0.311827386013141 0.1249620156946675 0  0.3741584574747343 0.1249537302217128 0  0.4364723792936183 0.1249454605913855 0  0.4987681515422041 0.1249375918161705 0  0.5610461886484382 0.1249307370879105 0  0.6233089179683389 0.1249257903617254 0  0.6855615188073529 0.1249239621696881 0  0.7478127924560467 0.1249267685718477 0  0.8100761473447617 0.1249359033955926 0  0.872370810166809 0.1249527292404158 0  0.9347248053046134 0.1249759219238719 0  0.9971935627133566 0.124988025427657 0  0 0.1875 0  0.06232187043626536 0.1874893195071664 0  0.1246387511061123 0.1874784484880553 0  0.1869456863246384 0.1874672172202601 0  0.2492378451172697 0.1874555022354337 0  0.3115106517189019 0.1874432585630882 0  0.3737600032360386 0.1874305630409053 0  0.4359826099176684 0.1874176720801458 0  0.4981764962365426 0.1874050959373969 0  0.5603417006717689 0.1873936881393026 0  0.6224812060774372 0.1873847414223315 0  0.6846021183269548 0.1873800673098563 0  0.7467170878162632 0.187382009533008 0  0.8088459435736262 0.187393289730162 0  0.8710175289054989 0.1874164848894895 0  0.933271984613448 0.1874528352144767 0  0.9956643466880114 0.1875011132281381 0  0 0.25 0  0.0622703483403162 0.2499860453967964 0  0.1245339694932112 0.2499718018585703 0  0.186784145329836 0.2499570026478664 0  0.2490142437994252 0.2499414314380251 0  0.3112178489252617 0.2499249597796894 0  0.3733890045585455 0.2499076001635777 0  0.4355226222927992 0.2498895808690197 0  0.4976151110156528 0.2498714485871893 0  0.5596652881611821 0.2498542026598323 0  0.6216756239252402 0.2498394583977068 0  0.6836538383957337 0.2498296224897903 0  0.7456148009809829 0.2498280352373408 0  0.8075825494958461 0.2498389859430163 0  0.8695920334776891 0.2498674418442104 0  0.9316898992350189 0.2499182992440374 0  0.9939332459028929 0.2499951479008471 0  0 0.3125 0  0.06222563100937791 0.3124830617209831 0  0.1244427786022737 0.3124657133734676 0  0.1866429131428469 0.3124475637816002 0  0.24881748473316 0.3124282664807396 0  0.3109580122285427 0.3124075567651602 0  0.3730563060546498 0.31238530840588 0  0.4351048910482727 0.3123616197776415 0  0.4970977106341555 0.3123369413580098 0  0.5590312047890634 0.3123122580052867 0  0.6209058503175262 0.3122893378019416 0  0.6827282129435271 0.3122710499777308 0  0.7445134554179339 0.3122617295042581 0  0.8062880367095916 0.312267514277305 0  0.8680920068341592 0.3122964942526148 0  0.9299799195681704 0.3123584035111111 0  0.9920191956347678 0.3124634986947072 0  0 0.375 0  0.06218947879081795 0.3749804897452171 0  0.1243687545750485 0.3749604288597688 0  0.1865274886573191 0.3749392768109562 0  0.2486551379584157 0.3749165202359349 0  0.3107409529663022 0.3748917019279266 0  0.372774117170726 0.3748644716409893 0  0.4347441091363433 0.374834671854496 0  0.4966413969554134 0.3748024773292156 0  0.5584586052203683 0.3747686146349234 0  0.6201923143683485 0.3747346954540998 0  0.6818456347529761 0.3747037008081074 0  0.7434315965454494 0.3746806411769346 0  0.8049771480721454 0.374673367201343 0  0.8665271116697438 0.3746933818393339 0  0.9281468602705603 0.3747562748388228 0  0.9899219958891119 0.3748810928408207 0  0 0.4375 0  0.06216360899720219 0.4374784701273887 0  0.1243154241683199 0.4374562385093832 0  0.186443392782622 0.4374325991178304 0  0.2485349948262566 0.437406843105164 0  0.310577093700861 0.437378270642157 0  0.3725559156053065 0.4373462229342071 0  0.4344572482882068 0.4373101492914533 0  0.4962669971964542 0.4372697334739633 0  0.5579722999452075 0.4372251182206539 0  0.6195634708645843 0.437177288203944 0  0.6810370996418587 0.4371286982300804 0  0.7424005990706208 0.4370842548758459 0  0.8036782703607666 0.437052742992968 0  0.8649183715485487 0.4370486580700437 0  0.9261996408450567 0.4370940365272143 0  0.9876344836968834 0.4372191722315462 0  0 0.5 0  0.06214960355436247 0.499977154008605 0  0.1242860794696057 0.4999534591667689 0  0.1863958910356537 0.4999280433579787 0  0.2484647052573801 0.4998999909283951 0  0.3104770409625015 0.499868328314966 0  0.3724160028796747 0.4998320227746296 0  0.434263188406202 0.4997900072662002 0  0.4959989209356259 0.4997412560543334 0  0.557603068871113 0.499684956495948 0  0.6190568613351665 0.4996208589980999 0  0.680346301158761 0.4995499469735136 0  0.7414679411633952 0.499475654522651 0  0.8024377491288116 0.4994059472168694 0  0.8633031560194694 0.4993565631261062 0  0.9241566183459738 0.4993553022320584 0  0.9851460386824439 0.4994459833046453 0  0 0.5625 0  0.06214878224446806 0.5624766884213708 0  0.124283517070248 0.5624524041557808 0  0.1863895857874594 0.5624261299751948 0  0.2484512091935848 0.5623967584182751 0  0.3104508503001951 0.5623630445793446 0  0.3723686228823934 0.5623235589970396 0  0.4341817643004571 0.5622766467766206 0  0.4958643092461404 0.5622204089864312 0  0.5573872444846164 0.562152743618896 0  0.6187196736859483 0.5620715280609574 0  0.679831920084336 0.561975115783942 0  0.7407020458109768 0.561863493402842 0  0.8013277951843808 0.5617407367449512 0  0.8617458101486656 0.5616197653798928 0  0.9220575276203791 0.5615303970316515 0  0.9824542198365037 0.5615300133679431 0  0 0.625 0  0.06216204869433461 0.6249771970235041 0  0.1243097142278032 0.6249533424089818 0  0.1864278916357564 0.6249273199625609 0  0.2484999675246755 0.6248978783459128 0  0.3105069637237409 0.6248635497280322 0  0.372426569284714 0.6248225513161034 0  0.4342320571132627 0.6247726639621691 0  0.495891146847375 0.6247110847717144 0  0.5573650242786763 0.6246342610260327 0  0.6186080434430919 0.6245377444649503 0  0.679569263892787 0.6244161929621437 0  0.7401981111256751 0.6242638742231857 0  0.8004582087832225 0.6240765688742202 0  0.8603552593798979 0.6238568949365986 0  0.9199838483526294 0.6236267127418151 0  0.9795866888859841 0.6234498635994226 0  0 0.6875 0  0.0621897242800019 0.6874787585109425 0  0.1243654717844728 0.687456451691266 0  0.1865124358943719 0.6874319351238649 0  0.248614039568362 0.6874038957230802 0  0.3106508541418146 0.6873707426353187 0  0.3725992664411148 0.6873304639266484 0  0.4344297938149465 0.6872804292847809 0  0.4961049601886204 0.6872171099377342 0  0.557576728208372 0.68713567421157 0  0.6187837465267331 0.6870294043680981 0  0.6796493741431225 0.6868888899525203 0  0.7400831201851868 0.6867010756356337 0  0.7999917364576098 0.6864487903906284 0  0.8593127300579871 0.6861132948408087 0  0.9180904243542163 0.6856877712202391 0  0.9766054592409908 0.6852181549714988 0  0 0.75 0  0.06223139379224792 0.7499813863124059 0  0.1244500733659573 0.7499617736995315 0  0.1866424620042511 0.7499400789722976 0  0.2487931135780614 0.7499150372005996 0  0.3108835031900988 0.7498850792966645 0  0.3728904375979605 0.7498481643849145 0  0.4347838721109301 0.7498015370798422 0  0.4965238418318069 0.7497413602059861 0  0.5580561332773152 0.7496621357721316 0  0.6193063174677425 0.7495557525958598 0  0.6801721033964248 0.7494098539677722 0  0.7405154399807863 0.749204966390065 0  0.8001605492614275 0.7489095744987684 0  0.8589173632922558 0.74847314855086 0  0.9166806281495149 0.7478254151515518 0  0.9736825713319216 0.746940351236609 0  0 0.8125 0  0.06228579380692097 0.8124850138379549 0  0.1245610280361711 0.8124691806234638 0  0.1868143497705289 0.8124515755438402 0  0.2490326656483704 0.8124311050247039 0  0.3111999637154611 0.812406390789881 0  0.3732956873798786 0.812375608496421 0  0.4352923614036374 0.8123362506667201 0  0.4971519876280405 0.81228476332227 0  0.558820422039445 0.8122159640788016 0  0.620218458199653 0.8121220544834833 0  0.681227674705451 0.8119907981816907 0  0.7416686320499147 0.8118017755548633 0  0.8012708072806942 0.8115177587141931 0  0.859646881877658 0.8110630535695057 0  0.9163477990353295 0.8102668834965359 0  0.9713791365194679 0.8087159689825808 0  0 0.875 0  0.06235077693485103 0.8749894891858279 0  0.1246939715354607 0.8749783621817372 0  0.1870213888953091 0.8749659431751765 0  0.2493234784562747 0.8749514266191566 0  0.3115883851499454 0.8749337876759292 0  0.3738005924973519 0.8749116579320261 0  0.4359388521265633 0.8748831457699521 0  0.4979728615782765 0.8748455720789128 0  0.5598576976585101 0.8747950807401483 0  0.6215241022313132 0.8747260689192394 0  0.6828608506339969 0.8746303490415841 0  0.7436815487760913 0.8744957844032183 0  0.8036601869438541 0.8743031813754228 0  0.8622043515421369 0.8740154231164502 0  0.918214101299095 0.8735312363619725 0  0.9697136708629087 0.8724770870083749 0  0 0.9375 0  0.06242337901256883 0.937494581652587 0  0.124842790618558 0.9374888386730845 0  0.1872539325536323 0.9374824141148055 0  0.2496517575575445 0.9374748806857852 0  0.31202994103271 0.9374656923434438 0  0.3743801029404241 0.9374541179876431 0  0.436690587627561 0.93743914900
[...]
<PointData  Vectors="f_54"> 
<DataArray  type="Float64"  Name="f_54"  NumberOfComponents="3" format="ascii">0.0000000000000000e+00 0.0000000000000000e+00 0.0000000000000000e+00  0.0000000000000000e+00 0.0000000000000000e+00 0.0000000000000000e+00  0.0000000000000000e+00 0.0000000000000000e+00 0.0000000000000000e+00  0.0000000000000000e+00 0.0000000000000000e+00 0.0000000000000000e+00  0.0000000000000000e+00 0.0000000000000000e+00 0.0000000000000000e+00  0.0000000000000000e+00 0.0000000000000000e+00 0.0000000000000000e+00  0.0000000000000000e+00 0.0000000000000000e+00 0.0000000000000000e+00  0.0000000000000000e+00 0.0000000000000000e+00 0.0000000000000000e+00  0.0000000000000000e+00 0.0000000000000000e+00 0.0000000000000000e+00  0.0000000000000000e+00 0.0000000000000000e+00 0.0000000000000000e+00  0.0000000000000000e+00 0.0000000000000000e+00 0.0000000000000000e+00  0.0000000000000000e+00 0.0000000000000000e+00 0.0000000000000000e+00  0.0000000000000000e+00 0.0000000000000000e+00 0.0000000000000000e+00  0.0000000000000000e+00 0.0000000000000000e+00 0.0000000000000000e+00  0.0000000000000000e+00 0.0000000000000000e+00 0.0000000000000000e+00  0.0000000000000000e+00 0.0000000000000000e+00 0.0000000000000000e+00  0.0000000000000000e+00 0.0000000000000000e+00 0.0000000000000000e+00  0.0000000000000000e+00 0.0000000000000000e+00 0.0000000000000000e+00  -1.0103630932052763e-06 -2.9751232832703619e-08 0.0000000000000000e+00  -2.0612319079141189e-06 -6.0338192719911846e-08 0.0000000000000000e+00  -3.1949737647250060e-06 -9.2576314217725182e-08 0.0000000000000000e+00  -4.4576356197266594e-06 -1.2722430818025852e-07 0.0000000000000000e+00  -5.9010934095888796e-06 -1.6492532308848655e-07 0.0000000000000000e+00  -7.5856683751835988e-06 -2.0610393775844626e-07 0.0000000000000000e+00  -9.5836067778695246e-06 -2.5078937800673836e-07 0.0000000000000000e+00  -1.1984255114096529e-05 -2.9831535172097206e-07 0.0000000000000000e+00  -1.4902843910325221e-05 -3.4680297495169811e-07 0.0000000000000000e+00  -1.8497599741736521e-05 -3.9221725992163808e-07 0.0000000000000000e+00  -2.3007628407695538e-05 -4.2642282090685517e-07 0.0000000000000000e+00  -2.8846825403456590e-05 -4.3235663148954486e-07 0.0000000000000000e+00  -3.6862072797936062e-05 -3.6929883246046384e-07 0.0000000000000000e+00  -4.9117662238978550e-05 -1.1967286290955588e-07 0.0000000000000000e+00  -7.1517979805051099e-05 7.2598229466775107e-07 0.0000000000000000e+00  -1.2331376107530716e-04 3.7944077482665458e-06 0.0000000000000000e+00  0.0000000000000000e+00 0.0000000000000000e+00 0.0000000000000000e+00  -1.9780636719334750e-06 -5.8603783141826462e-08 0.0000000000000000e+00  -4.0350600812083863e-06 -1.1889520184818653e-07 0.0000000000000000e+00  -6.2534840312409314e-06 -1.8253208929099559e-07 0.0000000000000000e+00  -8.7228578494227015e-06 -2.5108361097921828e-07 0.0000000000000000e+00  -1.1543766292577418e-05 -3.2593239464615973e-07 0.0000000000000000e+00  -1.4832633985368040e-05 -4.0809977396779685e-07 0.0000000000000000e+00  -1.8727779953262727e-05 -4.9794538678403479e-07 0.0000000000000000e+00  -2.3397762206141274e-05 -5.9466705507343249e-07 0.0000000000000000e+00  -2.9054102733570853e-05 -6.9548715413145098e-07 0.0000000000000000e+00  -3.5972906791645855e-05 -7.9435354127337342e-07 0.0000000000000000e+00  -4.4535242126158688e-05 -8.7992960992632834e-07 0.0000000000000000e+00  -5.5307240612095851e-05 -9.3282249405098149e-07 0.0000000000000000e+00  -6.9199475372935595e-05 -9.2383071753327954e-07 0.0000000000000000e+00  -8.7748940631908573e-05 -8.2668221064155537e-07 0.0000000000000000e+00  -1.1336123071106237e-04 -7.2541022579252066e-07 0.0000000000000000e+00  -1.4771858158384757e-04 -1.4633974355148441e-06 0.0000000000000000e+00  0.0000000000000000e+00 0.0000000000000000e+00 0.0000000000000000e+00  -2.8645757281243979e-06 -8.5703220763809605e-08 0.0000000000000000e+00  -5.8428074474061741e-06 -1.7397375094325961e-07 0.0000000000000000e+00  -9.0533624672886645e-06 -2.6735852738546303e-07 0.0000000000000000e+00  -1.2624785417481564e-05 -3.6832720259334613e-07 0.0000000000000000e+00  -1.6701051726933095e-05 -4.7916857067985482e-07 0.0000000000000000e+00  -2.1447921095440392e-05 -6.0179388903124669e-07 0.0000000000000000e+00  -2.7060502661112548e-05 -7.3738939042567045e-07 0.0000000000000000e+00  -3.3772642350800224e-05 -8.8583454653206460e-07 0.0000000000000000e+00  -4.1869100363997171e-05 -1.0447706219314004e-06 0.0000000000000000e+00  -5.1702033413141483e-05 -1.2081779798667968e-06 0.0000000000000000e+00  -6.3713724605874141e-05 -1.3643463551889520e-06 0.0000000000000000e+00  -7.8465918979904369e-05 -1.4933338465290351e-06 0.0000000000000000e+00  -9.6664678917358430e-05 -1.5646643205831441e-06 0.0000000000000000e+00  -1.1912178823039952e-04 -1.5366737970207749e-06 0.0000000000000000e+00  -1.4643995545285174e-04 -1.3499723057007417e-06 0.0000000000000000e+00  -1.7789031785505602e-04 -8.0663004754603627e-07 0.0000000000000000e+00  0.0000000000000000e+00 0.0000000000000000e+00 0.0000000000000000e+00  -3.6350855501887550e-06 -1.1016748047462040e-07 0.0000000000000000e+00  -7.4134477867484531e-06 -2.2380160715549138e-07 0.0000000000000000e+00  -1.1484523248126563e-05 -3.4438082159849403e-07 0.0000000000000000e+00  -1.6009908238057776e-05 -4.7536988961599483e-07 0.0000000000000000e+00  -2.1170079737700257e-05 -6.2015036190388012e-07 0.0000000000000000e+00  -2.7171868781462157e-05 -7.8185997498067045e-07 0.0000000000000000e+00  -3.4256890089089014e-05 -9.6308265275959173e-07 0.0000000000000000e+00  -4.2711005529323186e-05 -1.1653030103760689e-06 0.0000000000000000e+00  -5.2874548815284914e-05 -1.3880024516694216e-06 0.0000000000000000e+00  -6.5152113538220820e-05 -1.6272330885344638e-06 0.0000000000000000e+00  -8.0018312700077575e-05 -1.8734756947299146e-06 0.0000000000000000e+00  -9.8009856712678612e-05 -2.1085869158414007e-06 0.0000000000000000e+00  -1.1967962564297283e-04 -2.3016059587378656e-06 0.0000000000000000e+00  -1.4545626854485383e-04 -2.4025990234891624e-06 0.0000000000000000e+00  -1.7529740845587466e-04 -2.3308132549380756e-06 0.0000000000000000e+00  -2.0798863578759292e-04 -1.9499872907806364e-06 0.0000000000000000e+00  0.0000000000000000e+00 0.0000000000000000e+00 0.0000000000000000e+00  -4.2599104016658725e-06 -1.3109498353876199e-07 0.0000000000000000e+00  -8.6864844351528396e-06 -2.6654377384230113e-07 0.0000000000000000e+00  -1.3453370486208706e-05 -4.1076552683993014e-07 0.0000000000000000e+00  -1.8748075804336679e-05 -5.6827927059221971e-07 0.0000000000000000e+00  -2.4779568103458401e-05 -7.4370725320016407e-07 0.0000000000000000e+00  -3.1786622766016433e-05 -9.4170811377923454e-07 0.0000000000000000e+00  -4.0047009191307645e-05 -1.1667900225504848e-06 0.0000000000000000e+00  -4.9887315334145574e-05 -1.4229242331485231e-06 0.0000000000000000e+00  -6.1692540891868829e-05 -1.7128329083216433e-06 0.0000000000000000e+00  -7.5913153891762333e-05 -2.0367547000110869e-06 0.0000000000000000e+00  -9.3064377532404253e-05 -2.3903889278953144e-06 0.0000000000000000e+00  -1.1370687455508991e-04 -2.7615740138964053e-06 0.0000000000000000e+00  -1.3838836498573080e-04 -3.1250626819639510e-06 0.0000000000000000e+00  -1.6751257896018815e-04 -3.4346115008431420e-06 0.0000000000000000e+00  -2.0109543680905205e-04 -3.6124139457912275e-06 0.0000000000000000e+00  -2.3840775900435253e-04 -3.5429861749206992e-06 0.0000000000000000e+00  0.0000000000000000e+00 0.0000000000000000e+00 0.0000000000000000e+00  -4.7156451463950946e-06 -1.4759654188336830e-07 0.0000000000000000e+00  -9.6142620978734185e-06 -3.0036746232891432e-07 0.0000000000000000e+00  -1.4886290770116926e-05 -4.6362089632518171e-07 0.0000000000000000e+00  -2.0737121045434880e-05 -6.4291465527893507e-07 0.0000000000000000e+00  -2.7395316785139510e-05 -8.4416280140625845e-07 0.0000000000000000e+00  -3.5121698752506565e-05 -1.0737106810441457e-06 0.0000000000000000e+00  -4.4219453822678450e-05 -1.3383484041193217e-06 0.0000000000000000e+00  -5.5045190273862108e-05 -1.6452063343356731e-06 0.0000000000000000e+00  -6.8020291047816194e-05 -2.0014267291291364e-06 0.0000000000000000e+00  -8.3640729275919823e-05 -2.4134147371596602e-06 0.0000000000000000e+00  -1.0248123327557047e-04 -2.8853090732763707e-06 0.0000000000000000e+00  -1.2518575608221988e-04 -3.4160340283961664e-06 0.0000000000000000e+00  -1.5243044563260704e-04 -3.9938549290653040e-06 0.0000000000000000e+00  -1.8483951440263665e-04 -4.5867580872645326e-06 0.0000000000000000e+00  -2.2283578732108713e-04 -5.1262800652852167e-06 0.0000000000000000e+00  -2.6643284120109726e-04 -5.4808698626554625e-06 0.0000000000000000e+00  0.0000000000000000e+00 0.0000000000000000e+00 0.0000000000000000e+00  -4.9860141674057741e-06 -1.5884993219777008e-07 0.0000000000000000e+00  -1.0163689114813939e-05 -3.2355769986402817e-07 0.0000000000000000e+00  -1.5732270323007537e-05 -5.0018724077419614e-07 0.0000000000000000e+00  -2.1906368127091520e-05 -6.9521444748424707e-07 0.0000000000000000e+00  -2.8924493498939599e-05 -9.1575097834091131e-07 0.0000000000000000e+00  -3.7058658394320437e-05 -1.1697881344796616e-06 0.0000000000000000e+00  -4.6625440452801227e-05 -1.4664625070698932e-06 0.0000000000000000e+00  -5.7998889280685537e-05 -1.8163320557388353e-06 0.0000000000000000e+00  -7.1625497181700154e-05 -2.2316170972009251e-06 0.0000000000000000e+00  -8.8040994392104240e-05 -2.7262796176069810e-06 0.0000000000000000e+00  -1.0788763169844727e-04 -3.3156366137391144e-06 0.0000000000000000e+00  -1.3192835438276772e-04 -4.0148419994168229e-06 0.0000000000000000e+00  -1.6105018714895436e-04 -4.8348995832288462e-06 0.0000000000000000e+00  -1.9624293265178581e-04 -5.7737650603275921e-06 0.0000000000000000e+00  -2.3853243780165367e-04 -6.7986374208794915e-06 0.0000000000000000e+00  -2.8884569600062717e-04 -7.8145738471929204e-06 0.0000000000000000e+00  0.0000000000000000e+00 0.0000000000000000e+00 0.0000000000000000e+00  -5.0624075540603334e-06 -1.6417064276113004e-07 0.0000000000000000e+00  -1.0317341065065079e-05 -3.3466983623466556e-07 0.0000000000000000e+00  -1.5964634833843837e-05 -5.1809505231728384e-07 0.0000000000000000e+00  -2.2219129808819925e-05 -7.2160013005636025e-07 0.0000000000000000e+00  -2.9319090249224199e-05 -9.5322744670795942e-07 0.0000000000000000e+00  -3.7535861040716007e-05 -1.2223144913956989e-06 0.0000000000000000e+00  -4.7185444636467635e-05 -1.5400158368550278e-06 0.0000000000000000e+00  -5.8642971319163337e-05 -1.9199933591618434e-06 0.0000000000000000e+00  -7.2361476171873694e-05 -2.3793330598728403e-06 0.0000000000000000e+00  -8.8896974179094405e-05 -2.9397237531427323e-06 0.0000000000000000e+00  -1.0894238099916572e-04 -3.6288262348535017e-06 0.0000000000000000e+00  -1.3337276635601384e-04 -4.4814490113466804e-06 0.0000000000000000e+00  -1.6330214630891934e-04 -5.5393828015715478e-06 0.0000000000000000e+00  -2.0014408922006246e-04 -6.8471101384319319e-06 0.0000000000000000e+00  -2.4564956107102489e-04 -8.4376146806413075e-06 0.0000000000000000e+00  -3.0186276630736941e-04 -1.0298479716380686e-05 0.0000000000000000e+00  0.0000000000000000e+00 0.0000000000000000e+00 0.0000000000000000e+00  -4.9440699258976066e-06 -1.6308765934196898e-07 0.0000000000000000e+00  -1.0073875902887152e-05 -3.3269488698335378e-07 0.0000000000000000e+00  -1.5581789211055081e-05 -5.1565037430976902e-07 0.0000000000000000e+00  -2.1673991143238901e-05 -7.1943510597976398e-07 0.0000000000000000e+00  -2.8578213693652319e-05 -9.5258856026436417e-07 0.0000000000000000e+00  -3.6552701628467983e-05 -1.2252310034540995e-06 0.0000000000000000e+00  -4.5897239485804862e-05 -1.5497788878320118e-06 0.0000000000000000e+00  -5.6967668426750302e-05 -1.9419734502786961e-06 0.0000000000000000e+00  -7.0196357874591198e-05 -2.4224075090781175e-06 0.0000000000000000e+00  -8.6122861417499858e-05 -3.0188210627108722e-06 0.0000000000000000e+00  -1.0544173441085783e-04 -3.7695168468272357e-06 0.0000000000000000e+00  -1.2907810474516580e-04 -4.7282231224345403e-06 0.0000000000000000e+00  -1.5830444663877491e-04 -5.9703084805999616e-06 0.0000000000000000e+00  -1.9490825764034565e-04 -7.5986646079874208e-06 0.0000000000000000e+00  -2.4139550670365125e-04 -9.7430478976129166e-06 0.0000000000000000e+00  -3.0114721485521926e-04 -1.2536271858221478e-05 0.0000000000000000e+00  0.0000000000000000e+00 0.0000000000000000e+00 0.0000000000000000e+00  -4.6379066888107984e-06 -1.5541036764257968e-07 0.0000000000000000e+00  -9.4476655896597741e-06 -3.1720693618266427e-07 0.0000000000000000e+00  -1.4606741983935790e-05 -4.9209350829630925e-07 0.0000000000000000e+00  -2.0304421506290877e-05 -6.8745110825362080e-07 0.0000000000000000e+00  -2.6748274075003560e-05 -9.1176291796381068e-07 0.0000000000000000e+00  -3.4171489163154076e-05 -1.1751676733475119e-06 0.0000000000000000e+00  -4.2841813648173358e-05 -1.4902352232503248e-06 0.0000000000000000e+00  -5.3073503546005414e-05 -1.8731250479803382e-06 0.0000000000000000e+00  -6.5245077430716125e-05 -2.3454100234436768e-06 0.0000000000000000e+00  -7.9828351451623441e-05 -2.9370607565359408e-06 0.0000000000000000e+00  -9.7439274611179079e-05 -3.6914404925814494e-06 0.0000000000000000e+00  -1.1892990815006003e-04 -4.6736982727532074e-06 0.0000000000000000e+00  -1.4555454476236651e-04 -5.9846072924492765e-06 0.0000000000000000e+00  -1.7925808284161460e-04 -7.7821593225871067e-06 0.0000000000000000e+00  -2.2312975888131767e-04 -1.0310709928644159e-05 0.0000000000000000e+00  -2.8197327005401412e-04 -1.3921264326348344e-05 0.0000000000000000e+00  0.0000000000000000e+00 0.0000000000000000e+00 0.0000000000000000e+00  -4.1578936836713580e-06 -1.4127287961126838e-07 0.0000000000000000e+00  -8.4675846218502356e-06 -2.8846153954454128e-07 0.0000000000000000e+00  -1.3085229491756074e-05 -4.4777421943009691e-07 0.0000000000000000e+00  -1.8176237258731725e-05 -6.2604409909689338e-07 0.0000000000000000e+00  -2.3919972898460829e-05 -8.3110987462955046e-07 0.0000000000000000e+00  -3.0514631309143999e-05 -1.0722973662145152e-06 0.0000000000000000e+00  -3.8182533142578216e-05 -1.3610780892343560e-06 0.0000000000000000e+00  -4.7176531153231373e-05 -1.7120454341338890e-06 0.0000000000000000e+00  -5.7789317196002901e-05 -2.1444844948735390e-06 0.0000000000000000e+00  -7.0370044061612911e-05 -2.6850925154067935e-06 0.0000000000000000e+00  -8.5358673328417536e-05 -3.3729792262442449e-06 0.0000000000000000e+00  -1.0336167735021506e-04 -4.2692120314288204e-06 0.0000000000000000e+00  -1.2532061503726027e-04 -5.4753698793976725e-06 0.0000000000000000e+00  -1.5287929501064937e-04 -7.1698356714785802e-06 0.0000000000000000e+00  -1.8913605292963516e-04 -9.6796334370703322e-06 0.0000000000000000e+00  -2.3994678253129836e-04 -1.3632829160020501e-05 0.0000000000000000e+00  0.0000000000000000e+00 0.0000000000000000e+00 0.0000000000000000e+00  -3.5241282407863204e-06 -1.2114607678583045e-07 0.0000000000000000e+00  -7.1750101557596009e-06 -2.4742236641296094e-07 0.0000000000000000e+00  -1.1082452168261929e-05 -3.8419938034759478e-07 0.0000000000000000e+00  -1.5382746182686914e-05 -5.3735735808995886e-07 0.0000000000000000e+00  -2.0221436211188825e-05 -7.1357134472052080e-07 0.0000000000000000e+00  -2.5755363940524364e-05 -9.2063474571048781e-07 0.0000000000000000e+00  -3.2153471118634679e-05 -1.1678414232165896e-06 0.0000000000000000e+00  -3.9595640853152022e-05 -1.4664678036653184e-06 0.0000000000000000e+00  -4.8268837981720350e-05 -1.8304629906392576e-06 0.0000000000000000e+00  -5.8360581966992585e-05 -2.2776446678135725e-06 0.0000000000000000e+00  -7.0053187852117123e-05 -2.8322017380593748e-06 0.0000000000000000e+00  -8.3533386904638198e-05 -3.5305474899384944e-06 0.0000000000000000e+00  -9.9065057261374964e-05 -4.4354129212925056e-06 0.0000000000000000e+00  -1.1726693940772797e-04 -5.6689894389992527e-06 0.0000000000000000e+00  -1.3999791155927050e-04 -7.4857060021600034e-06 0.0000000000000000e+00  -1.7286039228945390e-04 -1.0396952396435105e-05 0.0000000000000000e+00  0.0000000000000000e+00 0.0000000000000000e+00 0.0000000000000000e+00  -2.7616313401388305e-06 -9.5815022167837516e-08 0.0000000000000000e+00  -5.6212591678607181e-06 -1.9570994164622602e-07 0.0000000000000000e+00  -8.6787678913871079e-06 -3.0393886510542084e-07 0.0000000000000000e+00  -1.2038013147024141e-05 -4.2511857042657187e-07 0.0000000000000000e+00  -1.5807906010467346e-05 -5.6439804606973215e-07 0.0000000000000000e+00  -2.0102034319481622e-05 -7.2759352950417133e-07 0.0000000000000000e+00  -2.5035526873851744e-05 -9.2123370835702815e-07 0.0000000000000000e+00  -3.0716850425226214e-05 -1.1524032019795833e-06 0.0000000000000000e+00  -3.7230481350719687e-05 -1.4281815669901631e-06 0.0000000000000000e+00  -4.4603573574487026e-05 -1.7543637480226419e-06 0.0000000000000000e+00  -5.2745810888987343e-05 -2.1331339518717231e-06 0.0000000000000000e+00  -6.1348402742755821e-05 -2.5599226161429416e-06 0.0000000000000000e+00  -6.9735281234309369e-05 -3.0223517625628803e-06 0.0000000000000000e+00  -7.6717103963024080e-05 -3.5136549419029149e-06 0.0000000000000000e+00  -8.0774882721106763e-05 -4.1050159420525255e-06 0.0000000000000000e+00  -8.2259167173677258e-05 -5.2532564511386685e-06 0.0000000000000000e+00  0.0000000000000000e+00 0.0000000000000000e+00 0.0000000000000000e+00  -1.8990736058423967e-06 -6.6328121715146912e-08 0.0000000000000000e+00  -3.8648505860275321e-06 -1.3548714032498902e-07 0.0000000000000000e+00  -5.9650391108881465e-06 -2.1041625879164690e-07 0.0000000000000000e+00  -8.2694093975938896e-06 -2.9427351753040626e-07 0.0000000000000000e+00  -1.0849838270455085e-05 -3.9050825556343487e-07 0.0000000000000000e+00  -1.3778692047227496e-05 -5.0285409743985915e-07 0.0000000000000000e+00  -1.7123935231791236e-05 -6.3513441709817830e-07 0.0000000000000000e+00  -2.0937832789952924e-05 -7.9064404482527955e-07 0.0000000000000000e+00  -2.5233084858558511e-05 -9.7060149680132387e-07 0.0000000000000000e+00  -2.9934171936123618e-05 -1.1706142471936732e-06 0.0000000000000000e+00  -3.4779540114885400e-05 -1.3730353246059202e-06 0.0000000000000000e+00  -3.9126031474085360e-05 -1.5313128424425801e-06 0.0000000000000000e+00  -4.1559953181191935e-05 -1.5405646440229211e-06 0.0000000000000000e+00  -3.9138854737599895e-05 -1.1910715634718818e-06 0.0000000000000000e+00  -2.6032257886442748e-05 -1.2466478960336474e-07 0.0000000000000000e+00  8.2383157054709462e-06 2.0937371939053381e-06 0.0000000000000000e+00  0.0000000000000000e+00 0.0000000000000000e+00 0.0000000000000000e+00  -9.6761575269976931e-07 -3.3931102811456347e-08 0.0000000000000000e+00  -1.9690443908512537e-06 -6.9312980498939676e-08 0.0000000000000000e+00  -3.0385183062415381e-06 -1.0764726030681643e-07 0.0000000000000000e+00  -4.2111023054768935e-06 -1.5053511010802491e-07 0.0000000000000000e+00  -5.5224673853732805e-06 -1.9969587998649033e-07 0.0000000000000000e+00  -7.0075551478525222e-06 -2.5691992450050916e-07 0.0000000000000000e+00  -8.6969938554332380e-06 -3.2386421535556032e-07 0.0000000000000000e+00  -1.0608955101753112e-05 -4.0147756327343745e-07 0.0000000000000000e+00  -1.2731682585892853e-05 -4.8855033194051881e-07 0.0000000000000000e+00  -1.4986796016020059e-05 -5.7816264178361573e-07 0.0000000000000000e+00  -1.7153165944664195e-05 -6.4897856795140342e-07 0.0000000000000000e+00  -1.8713044118731131e-05 -6.4368254187384023e-07 0.0000000000000000e+00  -1.8564718763641498e-05 -4.1565069053158793e-07 0.0000000000000000e+00  -1.4610192395198645e-05 3.9576207889864876e-07 0.0000000000000000e+00  -3.7524384964330102e-06 2.5938726535541400e-06 0.0000000000000000e+00  1.5296321628602827e-05 7.4601617318562999e-06 0.0000000000000000e+00  0.0000000000000000e+00 0.0000000000000000e+00 0.0000000000000000e+00  0.0000000000000000e+00 0.0000000000000000e+00 0.0000000000000000e+00  0.0000000000000000e+00 0.0000000000000000e+00 0.0000000000000000e+00  0.0000000000000000e+00 0.0000000000000000e+00 0.0000000000000000e+00  0.0000000000000000e+00 0.0000000000000000e+00 0.0000000000000000e+00  0.0000000000000000e+00 0.00000