<?xml version="1.0"?>
<VTKFile type="UnstructuredGrid"  version="0.1"  >
<UnstructuredGrid>
<Piece  NumberOfPoints="289" NumberOfCells="512">
<Points>
<DataArray  type="Float64"  NumberOfComponents="3"  format="ascii">0 0 0  0.0625 0 0  0.125 0 0  0.1875 0 0  0.25 0 0  0.3125 0 0  0.375 0 0  0.4375 0 0  0.5 0 0  0.5625 0 0  0.625 0 0  0.6875 0 0  0.75 0 0  0.8125 0 0  0.875 0 0  0.9375 0 0  1 0 0  0 0.0625 0  0.06247688175370607 0.06249162201624957 0  0.1249531713893253 0.06248311707378865 0  0.1874282830200485 0.06247437495786434 0  0.2499016631670956 0.06246532322171802 0  0.3123728174492042 0.06245595108029728 0  0.3748413510835512 0.06244633854526043 0  0.4373070291399624 0.06243669066312933 0  0.499769863528652 0.06242737398554163 0  0.5622302348374325 0.0624189474715716 0  0.6246890577661525 0.06241217204532041 0  0.6871479950415628 0.06240797269868591 0  0.7496096907640094 0.06240732434879191 0  0.8120777735111263 0.06241109599653699 0  0.8745550373875494 0.06242033145486085 0  0.9370302099704751 0.06244010567199342 0  0.9993955384219955 0.0625087289383759 0  0 0.125 0  0.06245432488506691 0.1249833706581747 0  0.1249074557807745 0.1249664693444631 0  0.1873582109182362 0.1249490555172854 0  0.2498054716519156 0.1249309601484941 0  0.312248237098136 0.1249121322574624 0  0.3746857098366322 0.1248926973402174 0  0.4371174275156502 0.1248730287996101 0  0.4995434595874064 0.1248538289221355 0  0.5619646950689654 0.1248362071412983 0  0.6243832576513123 0.1248217275490377 0  0.6868030995860468 0.1248123710304731 0  0.749230837051547 0.1248103138711344 0  0.8116768445636853 0.1248173444755689 0  0.8741563772255637 0.1248334955229575 0  0.9366904461575468 0.1248530889409881 0  0.9993167225894435 0.124846294028453 0  0 0.1875 0  0.06243295107297007 0.1874753920821657 0  0.1248640827845658 0.187450333421396 0  0.1872915895320039 0.1874244150848649 0  0.2497137469669823 0.1873973247856252 0  0.3121289886374555 0.1873689128416445 0  0.374536031772035 0.1873392789209881 0  0.4369340766798513 0.1873088844282261 0  0.49932311145498 0.1872786909736027 0  0.5617043627387576 0.187250315756546 0  0.6240809428727362 0.187226175877036 0  0.6864587476721216 0.1872095592045326 0  0.7488476350599811 0.1872044983823458 0  0.8112628015293801 0.1872152114105794 0  0.873725973677313 0.1872446337160168 0  0.9362657286380927 0.187291041112459 0  0.9989176652519854 0.1873415421803906 0  0 0.25 0  0.06241340724937104 0.2499678661073593 0  0.12482433886737 0.2499350577205777 0  0.1872303256038803 0.2499009456818766 0  0.2496289737558827 0.2498650084891512 0  0.3120180501692398 0.2498269112300025 0  0.3743956326222802 0.2497866160613502 0  0.4367603593436785 0.2497445356976637 0  0.4991118209415359 0.249701739761695 0  0.561451147076978 0.2496602177350545 0  0.6237818424157133 0.2496231871351795 0  0.6861109060233124 0.2495954043156675 0  0.7484501909411009 0.2495833777598967 0  0.8108177646554815 0.2495952886435467 0  0.8732386588689857 0.2496402948266959 0  0.9357439719960181 0.2497268492430763 0  0.9983673702027098 0.2498603571371252 0  0 0.3125 0  0.06239636630549464 0.3124610173270846 0  0.1247895739563574 0.3124210873360125 0  0.1871764504013536 0.3123793020833465 0  0.2495538592173294 0.3123348521092624 0  0.3119187726912839 0.3122871073820938 0  0.3742684217168023 0.3122357405021023 0  0.4366005658300522 0.3121809123517207 0  0.4989139398263068 0.3121235443563971 0  0.5612089458057279 0.3120657035768017 0  0.6234886609275934 0.3120111225187555 0  0.6857602009613177 0.3119658562646279 0  0.7480363827747769 0.3119390310468025 0  0.8103374273505414 0.3119435426530949 0  0.8726921667915041 0.3119964155085933 0  0.9351381545384304 0.3121184031864964 0  0.997721084543716 0.3123325416367124 0  0 0.375 0  0.0623825166227678 0.3749551190547839 0  0.1247611848871632 0.3749089746759577 0  0.1871321066715447 0.3748603251899305 0  0.2494913401808732 0.3748079926460887 0  0.3118349334378965 0.3747509297187323 0  0.374159039677704 0.3746883361178613 0  0.4364601661981318 0.3746198535586066 0  0.4987356301223436 0.374545880193844 0  0.560984319350454 0.3744680602978386 0  0.6232078749809793 0.3743900197704833 0  0.6854124002579375 0.3743184231980554 0  0.7476107215288943 0.3742644011883817 0  0.8098250349658925 0.3742452934563922 0  0.8720894794459382 0.3742864076690041 0  0.9344519742146959 0.3744220514967842 0  0.9969749812040082 0.3746944915522051 0  0 0.4375 0  0.06237253787236208 0.437450487379723 0  0.1247405696410645 0.4373993698385242 0  0.1870994875273263 0.4373450341014576 0  0.249444518494594 0.4372858674672601 0  0.3117706882023443 0.4372202904054778 0  0.3740728596745819 0.4371468380554432 0  0.4363459044520573 0.4370643254575501 0  0.4985850990157394 0.4369721518826747 0  0.5607868887437645 0.4368708308071353 0  0.6229502216657326 0.4367628754721766 0  0.6850787052276774 0.4366542206229567 0  0.7471838302050733 0.436556394321985 0  0.8092893405915014 0.4364895989838356 0  0.8714363851975684 0.4364865664008437 0  0.9336883377855973 0.4365962952845363 0  0.9961334220544908 0.4368854869138524 0  0 0.5 0  0.06236706187134482 0.4999474631168384 0  0.124729048926936 0.4998929854138137 0  0.1870807195407093 0.4998345765304106 0  0.249416509752783 0.4997701572691511 0  0.311730397286057 0.4996975363463085 0  0.3740158156731934 0.4996144233758865 0  0.4362656747086713 0.4995185115020378 0  0.4984725935408659 0.4994076900379337 0  0.5606295373027133 0.4992804941729839 0  0.6227311799888078 0.4991369765102797 0  0.6847764948152495 0.4989803054622858 0  0.7467732475097347 0.4988195551633585 0  0.8087450597666513 0.4986742846110814 0  0.8707411180837729 0.4985813680914199 0  0.9328468711678717 0.4986035556517011 0  0.9951912877727269 0.4988366102579633 0  0 0.5625 0  0.06236661924360339 0.562446380815897 0  0.1247277555844473 0.5623905330512396 0  0.1870776879811359 0.5623301307560951 0  0.2494101968239502 0.5622626524863465 0  0.3117183041970943 0.5621852845233294 0  0.3739940174284928 0.5620948334501339 0  0.4362281149056464 0.5619876690672927 0  0.4984100723149522 0.5618597450666656 0  0.5605283461848117 0.5617067975653972 0  0.622571455809048 0.5615249246955611 0  0.6845306915818145 0.5613119462762576 0  0.7464058462834962 0.5610702927786011 0  0.8082159239529204 0.5608127177588984 0  0.870016517895261 0.5605726842914509 0  0.93192251289966 0.5604208288729646 0  0.994126596010093 0.5604848748884214 0  0 0.625 0  0.06237157530641162 0.6249475263433649 0  0.1247374978990749 0.6248926340568305 0  0.1870918109109693 0.6248327601918234 0  0.2494278909243406 0.6247650388901881 0  0.3117380567252605 0.6246861238922199 0  0.3740131124524496 0.624591981469614 0  0.436241823772983 0.6244776500997851 0  0.4984103749518017 0.6243369777537613 0  0.5605019806058823 0.6241623853222581 0  0.6224971207473604 0.6239447973386332 0  0.6843755028124613 0.6236741025069014 0  0.7461220834540163 0.6233410203185114 0  0.8077414545652162 0.6229423774903388 0  0.8692867807953801 0.6224939376193049 0  0.9309070387281837 0.6220573335545148 0  0.9928994656580983 0.6217832980512081 0  0 0.6875 0  0.06238206192346985 0.6874510876269462 0  0.1247586103464404 0.6873997131039772 0  0.1871237817463836 0.6873432335729908 0  0.249470922608495 0.6872786172468923 0  0.3117920856205706 0.6872021947921519 0  0.3740773794400547 0.6871093381205211 0  0.4363141068318418 0.6869940301792182 0  0.4984856334390903 0.6868482803176826 0  0.5605699988097885 0.6866613354448808 0  0.6225385356450346 0.6864186578856804 0  0.6843555087704123 0.6861007536869819 0  0.7459817101339367 0.6856823545419696 0  0.8073893262922924 0.6851338466210267 0  0.8686034383888255 0.684431096799107 0  0.9297926862991019 0.6835908501927824 0  0.9914117313143537 0.6827591871440664 0  0 0.75 0  0.06239791560122968 0.7499571062969782 0  0.1247908138014487 0.749911891485171 0  0.1871733164727184 0.7498618377014659 0  0.2495392145993811 0.7498039966922193 0  0.3118809046592788 0.7497346993713261 0  0.3741886085230155 0.7496491585751049 0  0.436449238962819 0.749540898443445 0  0.4986447071596169 0.7494009076276265 0  0.560749395788638 0.7492163527550032 0  0.6227265226633273 0.7489685877764837 0  0.6845235082056568 0.7486300380436738 0  0.7460682657977283 0.7481593639349344 0  0.8072746111726559 0.7474945369196664 0  0.8680835454613417 0.7465466037977376 0  0.9286095842135628 0.7452165712407103 0  0.9894449927363307 0.7435649569749594 0  0 0.8125 0  0.06241863487375592 0.81246544013892 0  0.1248331146703121 0.8124289018567731 0  0.1872389583813518 0.8123882213806404 0  0.249630923465847 0.812340825093818 0  0.3120024657407907 0.8122834431171891 0  0.37434495374633 0.8122117040176436 0  0.4366464497387454 0.8121195299872143 0  0.4988897276017605 0.8119981999016975 0  0.5610489384142071 0.8118348514233072 0  0.6230838859634722 0.8116100042712729 0  0.6849302235439761 0.8112932828697931 0  0.7464835179400464 0.8108355732406951 0  0.8075780712288798 0.8101535188948347 0  0.867982065773117 0.8090966569059013 0  0.9275363424610117 0.8073771474092412 0  0.9871390599614537 0.8044605134117313 0  0 0.875 0  0.06244337051211428 0.874975746359607 0  0.1248837749273077 0.8749500473628182 0  0.1873180021812276 0.8749213129986456 0  0.2497422634433382 0.8748876312057138 0  0.3121517709489408 0.8748465379463521 0  0.3745401058197415 0.8747946856571892 0  0.4368981947514968 0.8747273394705088 0  0.4992125466883583 0.8746375852338917 0  0.5614620351420214 0.8745150533170981 0  0.6236116963420318 0.8743438162829592 0  0.6856001610367228 0.8740988236500659 0  0.747313169506115 0.8737394963248397 0  0.8085268160877562 0.8731966541001235 0  0.8687888905472363 0.872339273493972 0  0.9271978927504402 0.8708674686996014 0  0.9821617003350371 0.8679042372046168 0  0 0.9375 0  0.06247095875494484 0.9374874929403848 0  0.1249403783292959 0.9374742223688112 0  0.1874065902725164 0.9374593454202612 0  0.2498676197466698 0.9374418418973919 0  0.312320960187519 0.9374203862271343 0  0.3747632309645846 0.9373931612177786 0  0.4371896125336364 0.93
[...]
<PointData  Vectors="f_54"> 
<DataArray  type="Float64"  Name="f_54"  NumberOfComponents="3" format="ascii">0.0000000000000000e+00 0.0000000000000000e+00 0.0000000000000000e+00  0.0000000000000000e+00 0.0000000000000000e+00 0.0000000000000000e+00  0.0000000000000000e+00 0.0000000000000000e+00 0.0000000000000000e+00  0.0000000000000000e+00 0.0000000000000000e+00 0.0000000000000000e+00  0.0000000000000000e+00 0.0000000000000000e+00 0.0000000000000000e+00  0.0000000000000000e+00 0.0000000000000000e+00 0.0000000000000000e+00  0.0000000000000000e+00 0.0000000000000000e+00 0.0000000000000000e+00  0.0000000000000000e+00 0.0000000000000000e+00 0.0000000000000000e+00  0.0000000000000000e+00 0.0000000000000000e+00 0.0000000000000000e+00  0.0000000000000000e+00 0.0000000000000000e+00 0.0000000000000000e+00  0.0000000000000000e+00 0.0000000000000000e+00 0.0000000000000000e+00  0.0000000000000000e+00 0.0000000000000000e+00 0.0000000000000000e+00  0.0000000000000000e+00 0.0000000000000000e+00 0.0000000000000000e+00  0.0000000000000000e+00 0.0000000000000000e+00 0.0000000000000000e+00  0.0000000000000000e+00 0.0000000000000000e+00 0.0000000000000000e+00  0.0000000000000000e+00 0.0000000000000000e+00 0.0000000000000000e+00  0.0000000000000000e+00 0.0000000000000000e+00 0.0000000000000000e+00  0.0000000000000000e+00 0.0000000000000000e+00 0.0000000000000000e+00  3.8354346183844011e-06 4.1254836160921419e-08 0.0000000000000000e+00  7.7773436872908464e-06 8.2630247133968665e-08 0.0000000000000000e+00  1.1932249597867243e-05 1.2406865834666441e-07 0.0000000000000000e+00  1.6404453727851827e-05 1.6510715896825542e-07 0.0000000000000000e+00  2.1293781347035023e-05 2.0460215415890023e-07 0.0000000000000000e+00  2.6691898456297888e-05 2.4035843169634599e-07 0.0000000000000000e+00  3.2676771882365144e-05 2.6861409053707282e-07 0.0000000000000000e+00  3.9305017565032400e-05 2.8330648619399296e-07 0.0000000000000000e+00  4.6602351404794869e-05 2.7497808681168138e-07 0.0000000000000000e+00  5.4553544125981242e-05 2.2899562495953854e-07 0.0000000000000000e+00  6.3096408696901266e-05 1.2219341084775112e-07 0.0000000000000000e+00  7.2133450200354503e-05 -8.4787440778947736e-08 0.0000000000000000e+00  8.1604497330960472e-05 -4.6870496100752637e-07 0.0000000000000000e+00  9.1770541544972017e-05 -1.2126776997190377e-06 0.0000000000000000e+00  1.0427359859910986e-04 -2.8594713342502206e-06 0.0000000000000000e+00  1.2620637731063122e-04 -7.3185330482677199e-06 0.0000000000000000e+00  0.0000000000000000e+00 0.0000000000000000e+00 0.0000000000000000e+00  7.5604989755039898e-06 8.2347553160731381e-08 0.0000000000000000e+00  1.5334557350370899e-05 1.6512383976479109e-07 0.0000000000000000e+00  2.3536188293865928e-05 2.4842961702835628e-07 0.0000000000000000e+00  3.2375891491334802e-05 3.3161543315171001e-07 0.0000000000000000e+00  4.2056623635916026e-05 4.1276910036784981e-07 0.0000000000000000e+00  5.2766886910557524e-05 4.8802478566481990e-07 0.0000000000000000e+00  6.4669965703057777e-05 5.5061134506121776e-07 0.0000000000000000e+00  7.7888520863277961e-05 5.8953029579270682e-07 0.0000000000000000e+00  9.2484266560741610e-05 5.8769971019058486e-07 0.0000000000000000e+00  1.0843360092007810e-04 5.1928405484699527e-07 0.0000000000000000e+00  1.2560228598801367e-04 3.4569342675085295e-07 0.0000000000000000e+00  1.4372597144956587e-04 9.4101525277088881e-09 0.0000000000000000e+00  1.6240674647198332e-04 -5.7461109996631530e-07 0.0000000000000000e+00  1.8112104961924075e-04 -1.5214723047247780e-06 0.0000000000000000e+00  1.9908627030742451e-04 -2.9047810068426576e-06 0.0000000000000000e+00  2.1389621196182701e-04 -4.1987152585302886e-06 0.0000000000000000e+00  0.0000000000000000e+00 0.0000000000000000e+00 0.0000000000000000e+00  1.1067229269521683e-05 1.2296003401305408e-07 0.0000000000000000e+00  2.2456172019648105e-05 2.4700405720868872e-07 0.0000000000000000e+00  3.4490122682450160e-05 3.7279109599120822e-07 0.0000000000000000e+00  4.7489435357669754e-05 4.9999762479652282e-07 0.0000000000000000e+00  6.1766713606332396e-05 6.2663603547744909e-07 0.0000000000000000e+00  7.7617668157284613e-05 7.4812804615385853e-07 0.0000000000000000e+00  9.5305989008060435e-05 8.5602876600374780e-07 0.0000000000000000e+00  1.1504058818361779e-04 9.3628348813438195e-07 0.0000000000000000e+00  1.3694383674317791e-04 9.6689101119005928e-07 0.0000000000000000e+00  1.6101006494905905e-04 9.1485460609854857e-07 0.0000000000000000e+00  1.8705448998102133e-04 7.3235205128552209e-07 0.0000000000000000e+00  2.1465275987476187e-04 3.5223402462030029e-07 0.0000000000000000e+00  2.4306617183213940e-04 -3.1655393939824033e-07 0.0000000000000000e+00  2.7112467880054889e-04 -1.3926668742962021e-06 0.0000000000000000e+00  2.9697312121383695e-04 -3.0330045736809082e-06 0.0000000000000000e+00  3.1749783364498331e-04 -5.5548815330558845e-06 0.0000000000000000e+00  0.0000000000000000e+00 0.0000000000000000e+00 0.0000000000000000e+00  1.4246774184352799e-05 1.6242791350875587e-07 0.0000000000000000e+00  2.8924014211247094e-05 3.2704760400484741e-07 0.0000000000000000e+00  4.4465951217684733e-05 4.9560138844252826e-07 0.0000000000000000e+00  6.1307201672762028e-05 6.6877170334648053e-07 0.0000000000000000e+00  7.9878721619129167e-05 8.4542203095532120e-07 0.0000000000000000e+00  1.0059811174063191e-04 1.0215402917005664e-06 0.0000000000000000e+00  1.2385183619090571e-04 1.1887584593720570e-06 0.0000000000000000e+00  1.4996662239087378e-04 1.3323161386097850e-06 0.0000000000000000e+00  1.7916720288605235e-04 1.4283615137951160e-06 0.0000000000000000e+00  2.1151780366277374e-04 1.4405830352613425e-06 0.0000000000000000e+00  2.4684538712139921e-04 1.3164125953820752e-06 0.0000000000000000e+00  2.8464310187096810e-04 9.8354050913524540e-07 0.0000000000000000e+00  3.2395103697284476e-04 3.4831828214925610e-07 0.0000000000000000e+00  3.6320571060516089e-04 -7.0134735800500026e-07 0.0000000000000000e+00  4.0004255105689128e-04 -2.2851312783816655e-06 0.0000000000000000e+00  4.3106124916839588e-04 -4.4995724216061502e-06 0.0000000000000000e+00  0.0000000000000000e+00 0.0000000000000000e+00 0.0000000000000000e+00  1.6989946013487394e-05 1.9963543218665621e-07 0.0000000000000000e+00  3.4517882532932003e-05 4.0305370582796072e-07 0.0000000000000000e+00  5.3129077958604096e-05 6.1364970736609478e-07 0.0000000000000000e+00  7.3376011227311165e-05 8.3386761306343209e-07 0.0000000000000000e+00  9.5817184587830082e-05 1.0644755979103925e-06 0.0000000000000000e+00  1.2100932832560079e-04 1.3035062091623769e-06 0.0000000000000000e+00  1.4948975787709351e-04 1.5447048860210699e-06 0.0000000000000000e+00  1.8174489675928525e-04 1.7753078564921012e-06 0.0000000000000000e+00  2.1816033522318483e-04 1.9729863250731826e-06 0.0000000000000000e+00  2.5894758985584379e-04 2.1019106312120347e-06 0.0000000000000000e+00  3.0404345918141852e-04 2.1082242889877480e-06 0.0000000000000000e+00  3.5298016726705359e-04 1.9159560134935089e-06 0.0000000000000000e+00  4.0472918577932687e-04 1.4257459937112312e-06 0.0000000000000000e+00  4.5753064830403946e-04 5.2083987182789641e-07 0.0000000000000000e+00  5.0874045639985501e-04 -9.1230155080346437e-07 0.0000000000000000e+00  5.5477960957141985e-04 -2.9362708038886585e-06 0.0000000000000000e+00  0.0000000000000000e+00 0.0000000000000000e+00 0.0000000000000000e+00  1.9189110150397252e-05 2.3298537301995585e-07 0.0000000000000000e+00  3.9018982311292771e-05 4.7176917221038939e-07 0.0000000000000000e+00  6.0142644509095393e-05 7.2191490104225622e-07 0.0000000000000000e+00  8.3231120394458851e-05 9.8834827712587357e-07 0.0000000000000000e+00  1.0897766098325584e-04 1.2747951997802047e-06 0.0000000000000000e+00  1.3809508652539045e-04 1.5828765523813232e-06 0.0000000000000000e+00  1.7130230742431614e-04 1.9106644794604638e-06 0.0000000000000000e+00  2.0929471115564165e-04 2.2504378153050832e-06 0.0000000000000000e+00  2.5269159110514989e-04 2.5853153485333993e-06 0.0000000000000000e+00  3.0195262617851987e-04 2.8844595940504661e-06 0.0000000000000000e+00  3.5725556602010661e-04 3.0967845898414261e-06 0.0000000000000000e+00  4.1833042707599161e-04 3.1438702859070861e-06 0.0000000000000000e+00  4.8425415890959863e-04 2.9145378086480579e-06 0.0000000000000000e+00  5.5322682772689915e-04 2.2666125151565633e-06 0.0000000000000000e+00  6.2237794132102473e-04 1.0449449978976652e-06 0.0000000000000000e+00  6.8768777075029039e-04 -8.7625878732746959e-07 0.0000000000000000e+00  0.0000000000000000e+00 0.0000000000000000e+00 0.0000000000000000e+00  2.0741747583596936e-05 2.6045889582512365e-07 0.0000000000000000e+00  4.2216859617607535e-05 5.2900111511462659e-07 0.0000000000000000e+00  6.5177375001441063e-05 8.1371382080168829e-07 0.0000000000000000e+00  9.0408048284423164e-05 1.1225581917416649e-06 0.0000000000000000e+00  1.1873882221315898e-04 1.4631120837041344e-06 0.0000000000000000e+00  1.5105120804705181e-04 1.8420133695964632e-06 0.0000000000000000e+00  1.8827428635030078e-04 2.2638847413571511e-06 0.0000000000000000e+00  2.3136385543656054e-04 2.7293863206423822e-06 0.0000000000000000e+00  2.8125542767180428e-04 3.2318443202918464e-06 0.0000000000000000e+00  3.3877869977748615e-04 3.7516625880081928e-06 0.0000000000000000e+00  4.0451899451442424e-04 4.2475697276104022e-06 0.0000000000000000e+00  4.7861259954442659e-04 4.6440986992891658e-06 0.0000000000000000e+00  5.6047238301616567e-04 4.8164956193475756e-06 0.0000000000000000e+00  6.4846274154234092e-04 4.5791167515186698e-06 0.0000000000000000e+00  7.3957908353225563e-04 3.6925132699860488e-06 0.0000000000000000e+00  8.2922007529827053e-04 1.9150369145305456e-06 0.0000000000000000e+00  0.0000000000000000e+00 0.0000000000000000e+00 0.0000000000000000e+00  2.1555868349650075e-05 2.7977196703720260e-07 0.0000000000000000e+00  4.3920285585305295e-05 5.6993447019509947e-07 0.0000000000000000e+00  6.7927956479791219e-05 8.8118483859294877e-07 0.0000000000000000e+00  9.4464214544283444e-05 1.2247658405205101e-06 0.0000000000000000e+00  1.2448844024108536e-04 1.6126477024559869e-06 0.0000000000000000e+00  1.5905369586973340e-04 2.0575362457128158e-06 0.0000000000000000e+00  1.9931862222718656e-04 2.5725155247538182e-06 0.0000000000000000e+00  2.4654464577750787e-04 3.1699435302806140e-06 0.0000000000000000e+00  3.0206705750543698e-04 3.8588633716173437e-06 0.0000000000000000e+00  3.6722244541422119e-04 4.6395694858647797e-06 0.0000000000000000e+00  4.4320810280063725e-04 5.4930183021241270e-06 0.0000000000000000e+00  5.3084443936676242e-04 6.3617450065007426e-06 0.0000000000000000e+00  6.3021632483887787e-04 7.1191524323957276e-06 0.0000000000000000e+00  7.4019586133456164e-04 7.5292576289507361e-06 0.0000000000000000e+00  8.5790631814623805e-04 7.2161037452089137e-06 0.0000000000000000e+00  9.7824661115082428e-04 5.6937023938960930e-06 0.0000000000000000e+00  0.0000000000000000e+00 0.0000000000000000e+00 0.0000000000000000e+00  2.1557204668811501e-05 2.8862322450305413e-07 0.0000000000000000e+00  4.3972054218707993e-05 5.8964898124383850e-07 0.0000000000000000e+00  6.8136184090459754e-05 9.1611325935741204e-07 0.0000000000000000e+00  9.5011288693124272e-05 1.2823435753484789e-06 0.0000000000000000e+00  1.2566547639340363e-04 1.7046718374653423e-06 0.0000000000000000e+00  1.6130998328614293e-04 2.2021935591976203e-06 0.0000000000000000e+00  2.0333376608674199e-04 2.7975010391852846e-06 0.0000000000000000e+00  2.5333006426809439e-04 3.5171458065817940e-06 0.0000000000000000e+00  3.1310304263039380e-04 4.3911724235658155e-06 0.0000000000000000e+00  3.8463290307414583e-04 5.4501273340275616e-06 0.0000000000000000e+00  4.6996361592531027e-04 6.7159713130114309e-06 0.0000000000000000e+00  5.7096031960834708e-04 8.1796650714792502e-06 0.0000000000000000e+00  6.8887235560927519e-04 9.7530560376317590e-06 0.0000000000000000e+00  8.2365745837424209e-04 1.1180984562614211e-05 0.0000000000000000e+00  9.7311792557496933e-04 1.1920153222512865e-05 0.0000000000000000e+00  1.1320998440560225e-03 1.1073066485669731e-05 0.0000000000000000e+00  0.0000000000000000e+00 0.0000000000000000e+00 0.0000000000000000e+00  2.0697762630197561e-05 2.8501139894663547e-07 0.0000000000000000e+00  4.2266941576492066e-05 5.8379563416839456e-07 0.0000000000000000e+00  6.5620005620076329e-05 9.1105183538135544e-07 0.0000000000000000e+00  9.1757708762277217e-05 1.2834604584632535e-06 0.0000000000000000e+00  1.2181884661144423e-04 1.7209259180350743e-06 0.0000000000000000e+00  1.5713631424452563e-04 2.2481507619520578e-06 0.0000000000000000e+00  1.9930001171560214e-04 2.8966890421275873e-06 0.0000000000000000e+00  2.5022427057194826e-04 3.7076064061980986e-06 0.0000000000000000e+00  3.1221126285580040e-04 4.7346846410819600e-06 0.0000000000000000e+00  3.8798947421947845e-04 6.0473622230470406e-06 0.0000000000000000e+00  4.8068369344174704e-04 7.7302590022893715e-06 0.0000000000000000e+00  5.9363620425443447e-04 9.8697270579256782e-06 0.0000000000000000e+00  7.2995086528649484e-04 1.2502789914330191e-05 0.0000000000000000e+00  8.9160240095481071e-04 1.5476584923161422e-05 0.0000000000000000e+00  1.0780416738876985e-03 1.8148334796383220e-05 0.0000000000000000e+00  1.2845920695900371e-03 1.8946925540360198e-05 0.0000000000000000e+00  0.0000000000000000e+00 0.0000000000000000e+00 0.0000000000000000e+00  1.8964878463063546e-05 2.6758019434780076e-07 0.0000000000000000e+00  3.8771148003870632e-05 5.4934672860583086e-07 0.0000000000000000e+00  6.0306075091361211e-05 8.6060719715220327e-07 0.0000000000000000e+00  8.4558597050107459e-05 1.2191288947689730e-06 0.0000000000000000e+00  1.1268050185089828e-04 1.6467761620274242e-06 0.0000000000000000e+00  1.4606095083591190e-04 2.1717392592023991e-06 0.0000000000000000e+00  1.8641951518235021e-04 2.8317566807462578e-06 0.0000000000000000e+00  2.3592224030319649e-04 3.6789891676447501e-06 0.0000000000000000e+00  2.9732165266660931e-04 4.7876116414026675e-06 0.0000000000000000e+00  3.7411082213595836e-04 6.2656474794360608e-06 0.0000000000000000e+00  4.7065511618254823e-04 8.2722567917875306e-06 0.0000000000000000e+00  5.9220839343465095e-04 1.1037047875481616e-05 0.0000000000000000e+00  7.4461407750442009e-04 1.4856777570517314e-05 0.0000000000000000e+00  9.3333674877426860e-04 1.9973687602572577e-05 0.0000000000000000e+00  1.1614048044802151e-03 2.6077784969659556e-05 0.0000000000000000e+00  1.4264232861664011e-03 3.1328772003378043e-05 0.0000000000000000e+00  0.0000000000000000e+00 0.0000000000000000e+00 0.0000000000000000e+00  1.6389469891219469e-05 2.3593023463495527e-07 0.0000000000000000e+00  3.3540513844896646e-05 4.8528800131383971e-07 0.0000000000000000e+00  5.2261578083722960e-05 7.6266763230646427e-07 0.0000000000000000e+00  7.3467287115464968e-05 1.0852578517348586e-06 0.0000000000000000e+00  9.8245893469830204e-05 1.4746066809054771e-06 0.0000000000000000e+00  1.2794659462224514e-04 1.9590853829340052e-06 0.0000000000000000e+00  1.6429735222071022e-04 2.5775860813894847e-06 0.0000000000000000e+00  2.0956728118440440e-04 3.3854700470590783e-06 0.0000000000000000e+00  2.6679084008811413e-04 4.4648650136108584e-06 0.0000000000000000e+00  3.4007025183206170e-04 5.9438285475598711e-06 0.0000000000000000e+00  4.3495727587209565e-04 8.0339728604757258e-06 0.0000000000000000e+00  5.5885916689384486e-04 1.1104767956378952e-05 0.0000000000000000e+00  7.2125758106597138e-04 1.5816463128090632e-05 0.0000000000000000e+00  9.3316593217629049e-04 2.3263979146000689e-05 0.0000000000000000e+00  1.2046262966724053e-03 3.4536340803415100e-05 0.0000000000000000e+00  1.5403049245352332e-03 4.5846884868852136e-05 0.0000000000000000e+00  0.0000000000000000e+00 0.0000000000000000e+00 0.0000000000000000e+00  1.3051810766884728e-05 1.9083042557222809e-07 0.0000000000000000e+00  2.6733899493792370e-05 3.9309759155773196e-07 0.0000000000000000e+00  4.1719269645269829e-05 6.1928235795184110e-07 0.0000000000000000e+00  5.8779261890326937e-05 8.8419786797765107e-07 0.0000000000000000e+00  7.8848866679459917e-05 1.2065564118958646e-06 0.0000000000000000e+00  1.0311547912967036e-04 1.6111108389599097e-06 0.0000000000000000e+00  1.3314612437988430e-04 2.1317616586788525e-06 0.0000000000000000e+00  1.7107651003411389e-04 2.8163709917473818e-06 0.0000000000000000e+00  2.1989844182391559e-04 3.7349863215170806e-06 0.0000000000000000e+00  2.8390119472496394e-04 4.9960926655115387e-06 0.0000000000000000e+00  3.6934405764484806e-04 6.7847268117184046e-06 0.0000000000000000e+00  4.8544029812852291e-04 9.4653277206277348e-06 0.0000000000000000e+00  6.4563511623418740e-04 1.3880554736437185e-05 0.0000000000000000e+00  8.6867859940421637e-04 2.2230837432837158e-05 0.0000000000000000e+00  1.1769936216643408e-03 4.0598566270343252e-05 0.0000000000000000e+00  1.5774764506510245e-03 8.5766978355295600e-05 0.0000000000000000e+00  0.0000000000000000e+00 0.0000000000000000e+00 0.0000000000000000e+00  9.0830548115290771e-06 1.3427370989849907e-07 0.0000000000000000e+00  1.8617729718483916e-05 2.7688022486656811e-07 0.0000000000000000e+00  2.9088530498271190e-05 4.3692767171826001e-07 0.0000000000000000e+00  4.1056494398884653e-05 6.2525193711478959e-07 0.0000000000000000e+00  5.5211800153535271e-05 8.5552763220904008e-07 0.0000000000000000e+00  7.2447960564509491e-05 1.1456701740257218e-06 0.0000000000000000e+00  9.3973191288683776e-05 1.5195551031655294e-06 0.0000000000000000e+00  1.2148568551719400e-04 2.0088592821420532e-06 0.0000000000000000e+00  1.5746038471803282e-04 2.6542267424035817e-06 0.0000000000000000e+00  2.0563417145311587e-04 3.5036754354728807e-06 0.0000000000000000e+00  2.7185043549503551e-04 4.6047487757733976e-06 0.0000000000000000e+00  3.6556048201314632e-04 5.9929269590125351e-06 0.0000000000000000e+00  5.0252175736147802e-04 7.7371844801466153e-06 0.0000000000000000e+00  7.0966765610199509e-04 1.0425765984688102e-05 0.0000000000000000e+00  1.0342259435074065e-03 1.7950263762616467e-05 0.0000000000000000e+00  1.5659087566876043e-03 5.0551327629915539e-05 0.0000000000000000e+00  0.0000000000000000e+00 0.0000000000000000e+00 0.0000000000000000e+00  4.6610682622562999e-06 6.9356021528449879e-08 0.0000000000000000e+00  9.5582654858499523e-06 1.4310466280282312e-07 0.0000000000000000e+00  1.4945717070744681e-05 2.2604872011903415e-07 0.0000000000000000e+00  2.1119709551351758e-05 3.2390009806539239e-07 0.0000000000000000e+00  2.8448344040962974e-05 4.4383241902681681e-07 0.0000000000000000e+00  3.7414394197069787e-05 5.9509463139017284e-07 0.0000000000000000e+00  4.8681645427749824e-05 7.8949292909380191e-07 0.0000000000000000e+00  6.3203396089880944e-05 1.0409622882195940e-06 0.0000000000000000e+00  8.2408869514453400e-05 1.3615305561697281e-06 0.0000000000000000e+00  1.0853878815885073e-04 1.7446531362253805e-06 0.0000000000000000e+00  1.4527553359263009e-04 2.1056821942384305e-06 0.0000000000000000e+00  1.9895857698403415e-04 2.0772073485422148e-06 0.0000000000000000e+00  2.8087344324692772e-04 3.1670017560559819e-07 0.0000000000000000e+00  4.1073252832924729e-04 -7.7283285053718641e-06 0.0000000000000000e+00  6.1620482156420401e-04 -3.5766016020862645e-05 0.0000000000000000e+00  8.9875132174558920e-04 -1.1189790661149190e-04 0.0000000000000000e+00  0.0000000000000000e+00 0.0000000000000000e+00 0.0000000000000000e+00  0.0000000000000000e+00 0.0000000000000000e+00 0.0000000000000000e+00  0.0000000000000000e+00 0.0000000000000000e+00 0.0000000000000000e+00  0.0000000000000000e+00 0.0000000000000000e+00 0.0000000000000000e+00  0.0000000000000000e+00 0.0000000000000000e+00 0.0000000000000000e+00  0.0000000000000000e+00 0.0000000000000000e+00 0.0000000000000000e+00  0.0000000000000000e+00 0.0000000000000000e+00 0.0000000000000000e+00  0.0000000000000000e+00 0.0000000000000000e+00 0.0000000000000000e+00  0.0000000000000000e+00 0.0000000000000000e+00 0.0000000000000000e+00  0.0000000000000000e+00 0.0000000000000000e+00 0.0000000000000000e+00  0.0000000000000000e+00 0.0000000000000000e+00 0.0000000000000000e+00  0.0000000000000000e+00 0.0000000000000000e+00 0.000000000000