<?xml version="1.0"?>
<VTKFile type="UnstructuredGrid"  version="0.1"  >
<UnstructuredGrid>
<Piece  NumberOfPoints="289" NumberOfCells="512">
<Points>
<DataArray  type="Float64"  NumberOfComponents="3"  format="ascii">0 0 0  0.0625 0 0  0.125 0 0  0.1875 0 0  0.25 0 0  0.3125 0 0  0.375 0 0  0.4375 0 0  0.5 0 0  0.5625 0 0  0.625 0 0  0.6875 0 0  0.75 0 0  0.8125 0 0  0.875 0 0  0.9375 0 0  1 0 0  0 0.0625 0  0.06247316879768738 0.06249157685983352 0  0.1249456437314502 0.06248302644746199 0  0.187416737328923 0.06247423840219933 0  0.249885797109596 0.06246514051747171 0  0.3123522347277875 0.06245572290069235 0  0.3748155703781691 0.06244606747078659 0  0.4372754988558101 0.06243638270396612 0  0.4997319845565394 0.06242704083041774 0  0.5621853934475982 0.06241860981689032 0  0.6246366696950185 0.06241186466277195 0  0.6870875582399487 0.06240775271444357 0  0.7495408333678543 0.06240728668473763 0  0.8120002487244841 0.0624114082686753 0  0.8744684950064298 0.06242133140251183 0  0.9369331113177556 0.06244262677061502 0  0.9992807352854566 0.06251532991042612 0  0 0.125 0  0.06244700494213781 0.124983280709784 0  0.1248926116532535 0.1249662886434808 0  0.187335434077134 0.1249487827620788 0  0.2497741535093181 0.1249305942512467 0  0.3122075776499424 0.124911673549035 0  0.3746347336342482 0.1248921494485301 0  0.4370550108741439 0.1248724014652336 0  0.4994683737791735 0.1248531421255799 0  0.56187567064944 0.1248354970789383 0  0.6242790744891644 0.1248210552656893 0  0.6866827047720504 0.1248118350088047 0  0.7490934875963035 0.1248100686872032 0  0.8115222644686395 0.1248176279887135 0  0.8739849257891206 0.1248346598206726 0  0.9365034313713362 0.1248555703992911 0  0.9991179328697124 0.1248500915817589 0  0 0.1875 0  0.06242223345869455 0.1874752582076652 0  0.1248423394390171 0.1874500640505948 0  0.1872582032332025 0.1874240073674101 0  0.2496677953786756 0.1873967755657791 0  0.312069253667468 0.1873682202332567 0  0.3744610186601767 0.1873384447809583 0  0.4368420488365902 0.1873079180826179 0  0.4992121487220162 0.1872776146741061 0  0.5615724521330476 0.1872491724797704 0  0.6239261116380425 0.1872250402102713 0  0.6862792483302592 0.1872085521494853 0  0.7486421918214022 0.1872038068407693 0  0.8110309312069357 0.1872151126319775 0  0.8734684169462958 0.1872455242447336 0  0.9359851044656023 0.1872934770704782 0  0.9986196033794735 0.1873463920139502 0  0 0.25 0  0.06239960583266808 0.2499676899998166 0  0.1247963229701455 0.2499347026438206 0  0.1871872660915511 0.2499004063203498 0  0.2495696264059938 0.2498642780532676 0  0.3119407614224606 0.2498259831529901 0  0.3742983557778912 0.2497854867104388 0  0.4366406892975205 0.2497432085274056 0  0.49896705825031 0.2497002314788157 0  0.5612784048672911 0.2496585671684353 0  0.6235782120358159 0.2496214675415544 0  0.6858736988760596 0.2495937396596875 0  0.7481772745036561 0.2495819628398086 0  0.8105080114077965 0.2495944114493892 0  0.8728925307203986 0.2496403569587904 0  0.9353642698888779 0.2497283764857039 0  0.997960159254798 0.2498639798233262 0  0 0.3125 0  0.06237990033238473 0.3124608019276116 0  0.1247561246005981 0.3124206519924512 0  0.1871249764662105 0.3123786380442862 0  0.2494827901751157 0.3123339472679824 0  0.3118260052138245 0.3122859477976485 0  0.3741513249283979 0.312234312919224 0  0.4364560051469327 0.3121792082092669 0  0.4987383331580294 0.3121215659626091 0  0.5609983703544229 0.312063473314843 0  0.623239033315606 0.3120086960351138 0  0.6854675568825226 0.3119633403769075 0  0.7476972830264594 0.3119366061921431 0  0.8099495122948481 0.3119414874668378 0  0.8722548665990602 0.311995126801592 0  0.9346535278449286 0.3121183972859047 0  0.9971946759010267 0.312334410631797 0  0 0.375 0  0.06236390980814899 0.3749548689935216 0  0.1247233534873667 0.3749084679504882 0  0.1870738038921569 0.3748595487737714 0  0.249410674144573 0.3748069276133839 0  0.3117293479455163 0.374749552261635 0  0.3740252987582943 0.3746866193867378 0  0.4362943533390032 0.3746177708483787 0  0.4985331783215404 0.3745434102666026 0  0.5607400947974992 0.3744651959712414 0  0.62291634482658 0.3743867812534882 0  0.6850679221537317 0.3743148778132203 0  0.7472079962642882 0.3742606905788743 0  0.8093597580174383 0.3742416671675399 0  0.8715592043643736 0.3742832567678958 0  0.9338571510096816 0.3744199270352043 0  0.9963200498596139 0.3746940843220602 0  0 0.4375 0  0.06235241407325021 0.4374502093481261 0  0.1246996131871486 0.4373988049001652 0  0.1870362631193816 0.4373441644465009 0  0.2493568338300823 0.4372846663589617 0  0.3116555521480463 0.4372187223675012 0  0.3739264354075967 0.4371448595136596 0  0.4361634681237753 0.4370618863203795 0  0.4983610209632608 0.4369691988892979 0  0.5605146634955664 0.4368673140253064 0  0.6226225851398948 0.4367587601466417 0  0.684687891547393 0.4366495076063216 0  0.7467220327603863 0.4365511531172253 0  0.8087494442172861 0.4364840166072849 0  0.8708130154546512 0.4364810098325775 0  0.9329792163434825 0.4365913709022057 0  0.9953409281075192 0.4368820553177951 0  0 0.5 0  0.06234613547054189 0.4999471660773309 0  0.1246864126125408 0.4998923802219063 0  0.187014781241443 0.4998336406051619 0  0.2493248205016439 0.499768855908842 0  0.3116095807861681 0.499695821816427 0  0.3738614797731898 0.4996122338774297 0  0.4360723128409974 0.4995157703302227 0  0.4982334912225747 0.4994043055942144 0  0.5603367103115732 0.4992763621972784 0  0.6223753883434819 0.4991319872352462 0  0.6843474008763092 0.4989743607216485 0  0.7462598149216862 0.4988126039732997 0  0.8081363128053312 0.4986663893134953 0  0.8700273763116834 0.498572812018282 0  0.9320215114631607 0.498594985753281 0  0.9942529631949854 0.4988291597248829 0  0 0.5625 0  0.0623456784326639 0.5624460759623856 0  0.1246850408376409 0.5623899103396887 0  0.1870115001303915 0.5623291635117865 0  0.2493179029050681 0.5622612989964616 0  0.311596234709185 0.5621834858946693 0  0.3738373285427299 0.5620925106084272 0  0.4360306182000875 0.5619847188555541 0  0.498164040739002 0.5618560355933627 0  0.5602243171281451 0.5617021635300704 0  0.6221980740907906 0.5615191649005296 0  0.6840746713154759 0.5613048289719608 0  0.7458521835448647 0.5610615816521317 0  0.8075485554892643 0.5608022439733461 0  0.8692196633651664 0.5605605050824295 0  0.9309828828451391 0.5604075092205841 0  0.9930363905512489 0.5604718448360405 0  0 0.625 0  0.06235145686261206 0.6249472267503744 0  0.124696412561713 0.6248920206523679 0  0.1870280216956599 0.6248318036048258 0  0.2493386861969442 0.6247636925904005 0  0.3116196156416305 0.6246843209140305 0  0.3738603159846567 0.6245896295066699 0  0.4360480050223972 0.6244746244305349 0  0.4981670051093485 0.6243331112656961 0  0.5601982959715504 0.6241574548411549 0  0.6221197178961826 0.6239385060544865 0  0.6839079735578369 0.6236660610697971 0  0.7455448426903806 0.623330738202293 0  0.8070320430257816 0.6229293003128871 0  0.8684210812469975 0.6224776181033533 0  0.9298619083326084 0.6220378964475802 0  0.9916569858996183 0.6217623482130276 0  0 0.6875 0  0.06236361691390293 0.6874508075688601 0  0.1247208993898641 0.6873991385247203 0  0.1870651178941323 0.6873423344462783 0  0.2493886531080051 0.6872773455625931 0  0.311682432079172 0.6872004805225899 0  0.3739352049109414 0.687107082980954 0  0.4361325918458149 0.6869910981696576 0  0.4982558388868768 0.6868444833239515 0  0.5602802933571022 0.6866564109853119 0  0.6221738764394307 0.6864122342820753 0  0.6838966025113516 0.6860922961293052 0  0.7454041777280983 0.685671087778953 0  0.8066631974197535 0.6851186725763435 0  0.8676936589669532 0.6844106181143783 0  0.9286617358907897 0.683563865743105 0  0.9900252614947552 0.6827261252549135 0  0 0.75 0  0.06238196674671149 0.749956860278841 0  0.1247581716492361 0.7499113858976181 0  0.187122445858893 0.7498610443228025 0  0.2494676849216916 0.7498028701372051 0  0.3117852185662723 0.7497331729141816 0  0.3740639443543998 0.7496471376298137 0  0.4362890768271118 0.7495382505242373 0  0.4984402948110791 0.7493974466016916 0  0.560488993925827 0.7492118130613454 0  0.622394354244369 0.7489625795833122 0  0.6840983380359106 0.7486219641467201 0  0.7455215970474061 0.7481482594605269 0  0.8065687056541274 0.7474787673116622 0  0.8671700616773643 0.7465233961062417 0  0.9274308365101956 0.7451819343133006 0  0.9879397322472397 0.743518425349017 0  0 0.8125 0  0.06240592797911668 0.812465241744347 0  0.1248070838072385 0.8124284936177074 0  0.1871983270566161 0.812387579416077 0  0.2495736584154144 0.8123399108995581 0  0.3119256147914518 0.8122821999301078 0  0.3742443955132805 0.8122100512438433 0  0.4365165168130868 0.8121173548737237 0  0.4987226416716545 0.8119953449932271 0  0.5608339596124593 0.8118310947972216 0  0.622806024163857 0.8116050251074058 0  0.6845682847694191 0.8112865911150198 0  0.7460071854524323 0.8108263385023959 0  0.8069437539066456 0.8101400989580017 0  0.8671277782366521 0.8090752289691298 0  0.9263784368440764 0.8073377274116021 0  0.9855884970762324 0.8043755669675179 0  0 0.875 0  0.06243452416191256 0.8749756070694239 0  0.1248656395107242 0.8749497604888978 0  0.1872896595752877 0.874920861238261 0  0.2497022441296676 0.8748869866558238 0  0.3120979256432931 0.8748456595294485 0  0.3744694030711102 0.8747935153728762 0  0.4368064071979472 0.8747257973520379 0  0.4990937618080429 0.8746355632767708 0  0.5613078785853994 0.8745124098342266 0  0.6234100689208706 0.8743403750104206 0  0.6853331300613503 0.8740943869504109 0  0.7469533610142587 0.8737338820590809 0  0.8080311275639182 0.8731897094153848 0  0.8680874156235006 0.8723304465533174 0  0.9261740578707292 0.8708527263052267 0  0.980611762316714 0.8678606727428579 0  0 0.9375 0  0.06246641794705449 0.9374874210879259 0  0.1249310650305582 0.9374740743074029 0  0.187392023188035 0.937459112063142 0  0.2498470260153472 0.9374415086030849 0  0.3122932038187234 0.9374199315051047 0  0.3747266983612194 0.9373925549744598 0  0.437142031408177
[...]
<PointData  Vectors="f_54"> 
<DataArray  type="Float64"  Name="f_54"  NumberOfComponents="3" format="ascii">0.0000000000000000e+00 0.0000000000000000e+00 0.0000000000000000e+00  0.0000000000000000e+00 0.0000000000000000e+00 0.0000000000000000e+00  0.0000000000000000e+00 0.0000000000000000e+00 0.0000000000000000e+00  0.0000000000000000e+00 0.0000000000000000e+00 0.0000000000000000e+00  0.0000000000000000e+00 0.0000000000000000e+00 0.0000000000000000e+00  0.0000000000000000e+00 0.0000000000000000e+00 0.0000000000000000e+00  0.0000000000000000e+00 0.0000000000000000e+00 0.0000000000000000e+00  0.0000000000000000e+00 0.0000000000000000e+00 0.0000000000000000e+00  0.0000000000000000e+00 0.0000000000000000e+00 0.0000000000000000e+00  0.0000000000000000e+00 0.0000000000000000e+00 0.0000000000000000e+00  0.0000000000000000e+00 0.0000000000000000e+00 0.0000000000000000e+00  0.0000000000000000e+00 0.0000000000000000e+00 0.0000000000000000e+00  0.0000000000000000e+00 0.0000000000000000e+00 0.0000000000000000e+00  0.0000000000000000e+00 0.0000000000000000e+00 0.0000000000000000e+00  0.0000000000000000e+00 0.0000000000000000e+00 0.0000000000000000e+00  0.0000000000000000e+00 0.0000000000000000e+00 0.0000000000000000e+00  0.0000000000000000e+00 0.0000000000000000e+00 0.0000000000000000e+00  0.0000000000000000e+00 0.0000000000000000e+00 0.0000000000000000e+00  3.7129560186923615e-06 4.5156416050200583e-08 0.0000000000000000e+00  7.5276578750858592e-06 9.0626326667906971e-08 0.0000000000000000e+00  1.1545691125521115e-05 1.3655566500271238e-07 0.0000000000000000e+00  1.5866057499553692e-05 1.8270424630668436e-07 0.0000000000000000e+00  2.0582721416715788e-05 2.2817960492829643e-07 0.0000000000000000e+00  2.5780705382002348e-05 2.7107447383791642e-07 0.0000000000000000e+00  3.1530284152388513e-05 3.0795916320177743e-07 0.0000000000000000e+00  3.7878972112666405e-05 3.3315512388710993e-07 0.0000000000000000e+00  4.4841389834301172e-05 3.3765468128020914e-07 0.0000000000000000e+00  5.2388071133963507e-05 3.0738254845946209e-07 0.0000000000000000e+00  6.0436801614011649e-05 2.1998424234622961e-07 0.0000000000000000e+00  6.8857396155103169e-05 3.7664054277441721e-08 0.0000000000000000e+00  7.7524786642250537e-05 -3.1227213830871688e-07 0.0000000000000000e+00  8.6542381119588158e-05 -9.9994765098024307e-07 0.0000000000000000e+00  9.7098652719562750e-05 -2.5210986215957618e-06 0.0000000000000000e+00  1.1480313653893163e-04 -6.6009720502105114e-06 0.0000000000000000e+00  0.0000000000000000e+00 0.0000000000000000e+00 0.0000000000000000e+00  7.3199429291008157e-06 8.9948390742088561e-08 0.0000000000000000e+00  1.4844127520957517e-05 1.8070098225142192e-07 0.0000000000000000e+00  2.2776841102181695e-05 2.7275520659301776e-07 0.0000000000000000e+00  3.1318142597427383e-05 3.6589724741719595e-07 0.0000000000000000e+00  4.0659448193515414e-05 4.5870842741990146e-07 0.0000000000000000e+00  5.0976202383954655e-05 5.4789168730675690e-07 0.0000000000000000e+00  6.2416641506315347e-05 6.2733437647506583e-07 0.0000000000000000e+00  7.5085808232891872e-05 6.8679655560081543e-07 0.0000000000000000e+00  8.9024419525441086e-05 7.1006235999454133e-07 0.0000000000000000e+00  1.0418316214789624e-04 6.7228334841848833e-07 0.0000000000000000e+00  1.2039481399634767e-04 5.3602166838308735e-07 0.0000000000000000e+00  1.3734945524354961e-04 2.4518393116618315e-07 0.0000000000000000e+00  1.5458009504581719e-04 -2.8351314455443595e-07 0.0000000000000000e+00  1.7145143644312536e-04 -1.1642977150575405e-06 0.0000000000000000e+00  1.8701478621059060e-04 -2.4814583029557179e-06 0.0000000000000000e+00  1.9878971973111574e-04 -3.7975533059129594e-06 0.0000000000000000e+00  0.0000000000000000e+00 0.0000000000000000e+00 0.0000000000000000e+00  1.0717614275519898e-05 1.3387450050041575e-07 0.0000000000000000e+00  2.1743345548660630e-05 2.6937080128254359e-07 0.0000000000000000e+00  3.3386298801455233e-05 4.0771745474915737e-07 0.0000000000000000e+00  4.5951588306684788e-05 5.4921984604704788e-07 0.0000000000000000e+00  5.9734969987494840e-05 6.9260838779748573e-07 0.0000000000000000e+00  7.5013111858240601e-05 8.3414002978141280e-07 0.0000000000000000e+00  9.2027843261137355e-05 9.6634560822318982e-07 0.0000000000000000e+00  1.1096273296379900e-04 1.0762994965988915e-06 0.0000000000000000e+00  1.3191060570995014e-04 1.1432767756256756e-06 0.0000000000000000e+00  1.5483123469371969e-04 1.1356667646992565e-06 0.0000000000000000e+00  1.7949934186237634e-04 1.0070550472737718e-06 0.0000000000000000e+00  2.0544323857882272e-04 6.9154157640669441e-07 0.0000000000000000e+00  2.3187032244445827e-04 9.8778601898686097e-08 0.0000000000000000e+00  2.5755673101718264e-04 -8.9052871679536549e-07 0.0000000000000000e+00  2.8062417249034714e-04 -2.4359580192987370e-06 0.0000000000000000e+00  2.9806187251189598e-04 -4.8498335595964052e-06 0.0000000000000000e+00  0.0000000000000000e+00 0.0000000000000000e+00 0.0000000000000000e+00  1.3801416702959057e-05 1.7610754273295692e-07 0.0000000000000000e+00  2.8015897224517259e-05 3.5507675707979126e-07 0.0000000000000000e+00  4.3059512329171426e-05 5.3936152680167842e-07 0.0000000000000000e+00  5.9347349888874492e-05 7.3043588362632916e-07 0.0000000000000000e+00  7.7288746779223606e-05 9.2807701231878688e-07 0.0000000000000000e+00  9.7276844389051459e-05 1.1293509114954286e-06 0.0000000000000000e+00  1.1967004615800935e-04 1.3271702580799763e-06 0.0000000000000000e+00  1.4476269122595632e-04 1.5082828792651254e-06 0.0000000000000000e+00  1.7274220968690028e-04 1.6505666192224557e-06 0.0000000000000000e+00  2.0363037989742764e-04 1.7195936251461190e-06 0.0000000000000000e+00  2.3720714725270460e-04 1.6646559800672541e-06 0.0000000000000000e+00  2.7291643744479968e-04 1.4149200880379172e-06 0.0000000000000000e+00  3.0975324768504691e-04 8.7719415748220445e-07 0.0000000000000000e+00  3.4612814858701261e-04 -6.2132094532182781e-08 0.0000000000000000e+00  3.7970210714018593e-04 -1.5272426276031174e-06 0.0000000000000000e+00  4.0721094791185320e-04 -3.6226862009619664e-06 0.0000000000000000e+00  0.0000000000000000e+00 0.0000000000000000e+00 0.0000000000000000e+00  1.6465973109906273e-05 2.1539947308104158e-07 0.0000000000000000e+00  3.3449355759360459e-05 4.3534356123408140e-07 0.0000000000000000e+00  5.1473935143158222e-05 6.6403906028084514e-07 0.0000000000000000e+00  7.1069042213724859e-05 9.0484128009539193e-07 0.0000000000000000e+00  9.2767477459413587e-05 1.1595844453329275e-06 0.0000000000000000e+00  1.1709678840437200e-04 1.4275828783419722e-06 0.0000000000000000e+00  1.4456068311950802e-04 1.7041424538549316e-06 0.0000000000000000e+00  1.7560666827737137e-04 1.9783937878962244e-06 0.0000000000000000e+00  2.1057545130496905e-04 2.2302619586875319e-06 0.0000000000000000e+00  2.4962761198732989e-04 2.4264836416341310e-06 0.0000000000000000e+00  2.9264407879517936e-04 2.5158877203625791e-06 0.0000000000000000e+00  3.3909974831746495e-04 2.4248546594168569e-06 0.0000000000000000e+00  3.8791505569328453e-04 2.0551862571054461e-06 0.0000000000000000e+00  4.3730019244388635e-04 1.2887070013226310e-06 0.0000000000000000e+00  4.8462669350183820e-04 5.9005916694257088e-09 0.0000000000000000e+00  5.2640864268925155e-04 -1.8689950845894972e-06 0.0000000000000000e+00  0.0000000000000000e+00 0.0000000000000000e+00 0.0000000000000000e+00  1.8606814618804427e-05 2.5006126230268783e-07 0.0000000000000000e+00  3.7831399796501159e-05 5.0672546953723151e-07 0.0000000000000000e+00  5.8302779387777663e-05 7.7641615909590346e-07 0.0000000000000000e+00  8.0666036300190179e-05 1.0650327048033871e-06 0.0000000000000000e+00  1.0558549238025746e-04 1.3774570972106881e-06 0.0000000000000000e+00  1.3374091940969693e-04 1.7167311235026907e-06 0.0000000000000000e+00  1.6581285912861926e-04 2.0827102279130252e-06 0.0000000000000000e+00  2.0245180080318966e-04 2.4699272413730717e-06 0.0000000000000000e+00  2.4422455295486047e-04 2.8643265972332306e-06 0.0000000000000000e+00  2.9153015439930223e-04 3.2385169951440773e-06 0.0000000000000000e+00  3.4447810420578295e-04 3.5453848351260424e-06 0.0000000000000000e+00  4.0272526460599721e-04 3.7106095073378869e-06 0.0000000000000000e+00  4.6527694845426861e-04 3.6262888523092751e-06 0.0000000000000000e+00  5.3027508156454383e-04 3.1509011082414035e-06 0.0000000000000000e+00  5.9482320501433122e-04 2.1244615798841713e-06 0.0000000000000000e+00  6.5493134439428727e-04 4.0723014491273191e-07 0.0000000000000000e+00  0.0000000000000000e+00 0.0000000000000000e+00 0.0000000000000000e+00  2.0123799111872021e-05 2.7803159699327470e-07 0.0000000000000000e+00  4.0956453915855118e-05 5.6493835899098704e-07 0.0000000000000000e+00  6.3224407944697530e-05 8.6965495666879052e-07 0.0000000000000000e+00  8.7684664511710112e-05 1.2011082983603289e-06 0.0000000000000000e+00  1.1513605429804813e-04 1.5680379766045363e-06 0.0000000000000000e+00  1.4642426698518532e-04 1.9785417836496466e-06 0.0000000000000000e+00  1.8243632828204002e-04 2.4391371707031979e-06 0.0000000000000000e+00  2.2407805247865589e-04 2.9529933767965867e-06 0.0000000000000000e+00  2.7222524819804915e-04 3.5167818289679521e-06 0.0000000000000000e+00  3.2763652583772814e-04 4.1153255348859870e-06 0.0000000000000000e+00  3.9081368028449226e-04 4.7130166351364510e-06 0.0000000000000000e+00  4.6179744468698039e-04 5.2412047596840476e-06 0.0000000000000000e+00  5.3989637421520884e-04 5.5823765507267305e-06 0.0000000000000000e+00  6.2336974291716868e-04 5.5565682661751886e-06 0.0000000000000000e+00  7.0912144211491006e-04 4.9243823305255643e-06 0.0000000000000000e+00  7.9249394697167373e-04 3.4315960573123818e-06 0.0000000000000000e+00  0.0000000000000000e+00 0.0000000000000000e+00 0.0000000000000000e+00  2.0926400802927129e-05 2.9703950751560788e-07 0.0000000000000000e+00  4.2636314395113733e-05 6.0519190743832856e-07 0.0000000000000000e+00  6.5938299266297593e-05 9.3592524867334070e-07 0.0000000000000000e+00  9.1689251139037269e-05 1.3013603091176750e-06 0.0000000000000000e+00  1.2081649988886025e-04 1.7145298815274183e-06 0.0000000000000000e+00  1.5433590000362031e-04 2.1894984568390567e-06 0.0000000000000000e+00  1.9336186767391199e-04 2.7411718151349811e-06 0.0000000000000000e+00  2.3910231829117514e-04 3.3844437192846200e-06 0.0000000000000000e+00  2.9282699114012005e-04 4.1319757055067356e-06 0.0000000000000000e+00  3.5579164532582337e-04 4.9892750335198218e-06 0.0000000000000000e+00  4.2909393894025066e-04 5.9447406373609334e-06 0.0000000000000000e+00  5.1343258804843522e-04 6.9511900587092154e-06 0.0000000000000000e+00  6.0874696132017783e-04 7.8952975860777262e-06 0.0000000000000000e+00  7.1374177208948387e-04 8.5560731379151416e-06 0.0000000000000000e+00  8.2535970471099411e-04 8.5698984200839593e-06 0.0000000000000000e+00  9.3832457774155288e-04 7.4505330804235146e-06 0.0000000000000000e+00  0.0000000000000000e+00 0.0000000000000000e+00 0.0000000000000000e+00  2.0940810939494293e-05 3.0485351143939242e-07 0.0000000000000000e+00  4.2714746806408223e-05 6.2271155103052904e-07 0.0000000000000000e+00  6.6187850744385199e-05 9.6724430853971291e-07 0.0000000000000000e+00  9.2293918882105136e-05 1.3534898849368894e-06 0.0000000000000000e+00  1.2206948790932362e-04 1.7986286601630121e-06 0.0000000000000000e+00  1.5668888576292336e-04 2.3228417065976604e-06 0.0000000000000000e+00  1.9749670555893080e-04 2.9502117385922138e-06 0.0000000000000000e+00  2.4603157595020248e-04 3.7094733028665161e-06 0.0000000000000000e+00  3.0402905666663345e-04 4.6340353267544231e-06 0.0000000000000000e+00  3.7338171825741507e-04 5.7597950315714370e-06 0.0000000000000000e+00  4.5602026633853517e-04 7.1173042967626481e-06 0.0000000000000000e+00  5.5366273863143446e-04 8.7111264693803734e-06 0.0000000000000000e+00  6.6736846365611849e-04 1.0473785552355252e-05 0.0000000000000000e+00  7.9685453009464640e-04 1.2179209021440630e-05 0.0000000000000000e+00  9.3963005452094147e-04 1.3319652380509957e-05 0.0000000000000000e+00  1.0902054588441091e-03 1.3030052380855854e-05 0.0000000000000000e+00  0.0000000000000000e+00 0.0000000000000000e+00 0.0000000000000000e+00  2.0118443799551477e-05 2.9959299051222458e-07 0.0000000000000000e+00  4.1085337361985723e-05 6.1340446260341665e-07 0.0000000000000000e+00  6.3789215309406096e-05 9.5658699762249174e-07 0.0000000000000000e+00  8.9204727396375550e-05 1.3462997875083452e-06 0.0000000000000000e+00  1.1844108363000291e-04 1.8029781894191635e-06 0.0000000000000000e+00  1.5279646779284894e-04 2.3519629442234841e-06 0.0000000000000000e+00  1.9381875058582430e-04 3.0256692501549708e-06 0.0000000000000000e+00  2.4336984245320665e-04 3.8664880651472342e-06 0.0000000000000000e+00  3.0368463433196323e-04 4.9304811031208464e-06 0.0000000000000000e+00  3.7740285117777750e-04 6.2912841466765855e-06 0.0000000000000000e+00  4.6752925462433128e-04 8.0414371042776961e-06 0.0000000000000000e+00  5.7724076363578560e-04 1.0282116218328869e-05 0.0000000000000000e+00  7.0941153943456545e-04 1.3077177451688450e-05 0.0000000000000000e+00  8.6569954838270442e-04 1.6319515951654170e-05 0.0000000000000000e+00  1.0451303955753015e-03 1.9437106934477373e-05 0.0000000000000000e+00  1.2424797584800029e-03 2.0949838180589418e-05 0.0000000000000000e+00  0.0000000000000000e+00 0.0000000000000000e+00 0.0000000000000000e+00  1.8445009566920648e-05 2.8005808610124868e-07 0.0000000000000000e+00  3.7710956576286684e-05 5.7457925688110400e-07 0.0000000000000000e+00  5.8663852251285417e-05 8.9912671242764270e-07 0.0000000000000000e+00  8.2269500489898611e-05 1.2716842991865094e-06 0.0000000000000000e+00  1.0965354139867145e-04 1.7142695621025640e-06 0.0000000000000000e+00  1.4217452911329215e-04 2.2551395670959861e-06 0.0000000000000000e+00  1.8151498602688007e-04 2.9320095606140862e-06 0.0000000000000000e+00  2.2979455221350825e-04 3.7969937311110711e-06 0.0000000000000000e+00  2.8970545268639766e-04 4.9244595689191823e-06 0.0000000000000000e+00  3.6465920560388692e-04 6.4236036050522620e-06 0.0000000000000000e+00  4.5890625906062774e-04 8.4575576765916232e-06 0.0000000000000000e+00  5.7753240583840321e-04 1.1266763016596791e-05 0.0000000000000000e+00  7.2612887253897492e-04 1.5174044683178004e-05 0.0000000000000000e+00  9.0977942187231474e-04 2.0478684728677207e-05 0.0000000000000000e+00  1.1309504083121839e-03 2.6984449677403327e-05 0.0000000000000000e+00  1.3864698195984178e-03 3.3061889152885428e-05 0.0000000000000000e+00  0.0000000000000000e+00 0.0000000000000000e+00 0.0000000000000000e+00  1.5948854518193493e-05 2.4601813719761506e-07 0.0000000000000000e+00  3.2642152212620299e-05 5.0558755296463789e-07 0.0000000000000000e+00  5.0870613825441430e-05 7.9337866330849077e-07 0.0000000000000000e+00  7.1529677689421696e-05 1.1265550141924277e-06 0.0000000000000000e+00  9.5686093006453442e-05 1.5264571444785278e-06 0.0000000000000000e+00  1.2466416861575195e-04 2.0209452911858785e-06 0.0000000000000000e+00  1.6016213570720401e-04 2.6479192076218636e-06 0.0000000000000000e+00  2.0441234853777287e-04 3.4610259348761419e-06 0.0000000000000000e+00  2.6040186281108479e-04 4.5396936577259404e-06 0.0000000000000000e+00  3.3216841895831686e-04 6.0081931714297365e-06 0.0000000000000000e+00  4.2517016974618683e-04 8.0738969537222592e-06 0.0000000000000000e+00  5.4666875032223700e-04 1.1104474407536569e-05 0.0000000000000000e+00  7.0590551852849851e-04 1.5769608004249619e-05 0.0000000000000000e+00  9.1348378397734938e-04 2.3207691495900040e-05 0.0000000000000000e+00  1.1787477033671182e-03 3.4636927409626943e-05 0.0000000000000000e+00  1.5052604890909576e-03 4.6531625942375601e-05 0.0000000000000000e+00  0.0000000000000000e+00 0.0000000000000000e+00 0.0000000000000000e+00  1.2706894639240480e-05 1.9839457298299728e-07 0.0000000000000000e+00  2.6030863073572378e-05 4.0823906560954593e-07 0.0000000000000000e+00  4.0631324735737383e-05 6.4196456344915758e-07 0.0000000000000000e+00  5.7265050432554944e-05 9.1419425988966253e-07 0.0000000000000000e+00  7.6850949338846017e-05 1.2431870814252809e-06 0.0000000000000000e+00  1.0055823304951254e-04 1.6527738003787878e-06 0.0000000000000000e+00  1.2993292565855822e-04 2.1751134905349870e-06 0.0000000000000000e+00  1.6708593010605921e-04 2.8549084704374027e-06 0.0000000000000000e+00  2.1497880174784167e-04 3.7566260856966827e-06 0.0000000000000000e+00  2.7786179961520176e-04 4.9791638671157013e-06 0.0000000000000000e+00  3.6193877455701365e-04 6.6917547732501104e-06 0.0000000000000000e+00  4.7633248761415993e-04 9.2347382991169515e-06 0.0000000000000000e+00  6.3431732223419508e-04 1.3419936833010447e-05 0.0000000000000000e+00  8.5428753646483394e-04 2.1427936771559768e-05 0.0000000000000000e+00  1.1579056169353228e-03 3.9419997638958874e-05 0.0000000000000000e+00  1.5505628852213124e-03 8.4946444213417402e-05 0.0000000000000000e+00  0.0000000000000000e+00 0.0000000000000000e+00 0.0000000000000000e+00  8.8463502017130397e-06 1.3929018308052120e-07 0.0000000000000000e+00  1.8135416583526259e-05 2.8687392035144340e-07 0.0000000000000000e+00  2.8342605939899467e-05 4.5176038460104731e-07 0.0000000000000000e+00  4.0019313670617777e-05 6.4454988999017236e-07 0.0000000000000000e+00  5.3845305647684961e-05 8.7841690371504736e-07 0.0000000000000000e+00  7.0702748631321202e-05 1.1702843130387050e-06 0.0000000000000000e+00  9.1787553549616715e-05 1.5421184709362006e-06 0.0000000000000000e+00  1.1878488031535927e-04 2.0219571208147353e-06 0.0000000000000000e+00  1.5415655662195531e-04 2.6434828715108011e-06 0.0000000000000000e+00  2.0162742116130582e-04 3.4412725385545835e-06 0.0000000000000000e+00  2.6703097537252057e-04 4.4366996549714748e-06 0.0000000000000000e+00  3.5980849185634128e-04 5.6142657588316350e-06 0.0000000000000000e+00  4.9568852383804324e-04 6.9446847386695407e-06 0.0000000000000000e+00  7.0147492373577873e-04 8.8269406546316575e-06 0.0000000000000000e+00  1.0238348797110153e-03 1.4742394374673586e-05 0.0000000000000000e+00  1.5499380183231534e-03 4.3564461758944068e-05 0.0000000000000000e+00  0.0000000000000000e+00 0.0000000000000000e+00 0.0000000000000000e+00  4.5408078903414240e-06 7.1852458880488043e-08 0.0000000000000000e+00  9.3132987376171450e-06 1.4806140823461718e-07 0.0000000000000000e+00  1.4567084481397777e-05 2.3335711918956573e-07 0.0000000000000000e+00  2.0593731322588192e-05 3.3329430687757578e-07 0.0000000000000000e+00  2.7756368795525334e-05 4.5472202961966287e-07 0.0000000000000000e+00  3.6532603365247185e-05 6.0624331872553457e-07 0.0000000000000000e+00  4.7581125459117667e-05 7.9839282558524595e-07 0.0000000000000000e+00  6.1850918398624591e-05 1.0425761095181769e-06 0.0000000000000000e+00  8.0769269015680567e-05 1.3456504835761979e-06 0.0000000000000000e+00  1.0658065189943421e-04 1.6900660113477627e-06 0.0000000000000000e+00  1.4298300524098157e-04 1.9665792139417150e-06 0.0000000000000000e+00  1.9635128236946431e-04 1.7501419014103526e-06 0.0000000000000000e+00  2.7802041187182714e-04 -4.4019213777199758e-07 0.0000000000000000e+00  4.0765394976411421e-04 -9.4726258389846179e-06 0.0000000000000000e+00  6.1223326910636784e-04 -3.9583462993110976e-05 0.0000000000000000e+00  8.9091109440739768e-04 -1.1873702485510709e-04 0.0000000000000000e+00  0.0000000000000000e+00 0.0000000000000000e+00 0.0000000000000000e+00  0.0000000000000000e+00 0.0000000000000000e+00 0.0000000000000000e+00  0.0000000000000000e+00 0.0000000000000000e+00 0.0000000000000000e+00  0.0000000000000000e+00 0.0000000000000000e+00 0.0000000000000000e+00  0.0000000000000000e+00 0.0000000000000000e+00 0.0000000000000000e+00  0.0000000000000000e+00 0.0000000000000000e+00 0.0000000000000000e+00  0.0000000000000000e+00 0.0000000000000000e+00 0.0000000000000000e+00  0.0000000000000000e+00 0.0000000000000000e+00 0.0000000000000000e+00  0.0000000000000000e+00 0.0000000000000000e+00 0.0000000000000000e+00  0.0000000000000000e+00 0.0000000000000000e+00 0.0000000000000000e+00  0.0000000000000000e+00 0.0000000000000000e+00 0.0000000000000000e+00  0.0000000000000000e+00 0.0000000000000000e+00 0.000000000000000