<?xml version="1.0"?>
<VTKFile type="UnstructuredGrid"  version="0.1"  >
<UnstructuredGrid>
<Piece  NumberOfPoints="289" NumberOfCells="512">
<Points>
<DataArray  type="Float64"  NumberOfComponents="3"  format="ascii">0 0 0  0.0625 0 0  0.125 0 0  0.1875 0 0  0.25 0 0  0.3125 0 0  0.375 0 0  0.4375 0 0  0.5 0 0  0.5625 0 0  0.625 0 0  0.6875 0 0  0.75 0 0  0.8125 0 0  0.875 0 0  0.9375 0 0  1 0 0  0 0.0625 0  0.06255629523185394 0.06249873907862893 0  0.1251143579077866 0.062497428000326 0  0.1876759756385118 0.06249601445921354 0  0.2502429700904192 0.06249444181382869 0  0.3128172059410815 0.06249264657874261 0  0.3754005912482014 0.06249055537408128 0  0.4379950700770757 0.06248808079155573 0  0.5006026159591436 0.06248511492789493 0  0.5632252544286909 0.06248151744888551 0  0.6258651937278161 0.06247708971226056 0  0.6885252811416048 0.06247151024858312 0  0.7512104084330379 0.06246415329252864 0  0.8139317863158383 0.06245351989119464 0  0.8767205076139357 0.0624352691832188 0  0.9396737305291482 0.0623947759559625 0  1.003126412477769 0.06227654362641308 0  0 0.125 0  0.06261087089037895 0.1249975270225697 0  0.1252252645279668 0.1249949556232329 0  0.1878467478896196 0.1249921831749934 0  0.2504789639387254 0.1249890985868326 0  0.3131256523740842 0.1249855775064296 0  0.375790650331138 0.1249814766989443 0  0.4384778699586938 0.1249766269423774 0  0.5011912581612685 0.1249708231075268 0  0.5639347641216482 0.1249638085769357 0  0.6267123859204425 0.124955247957967 0  0.6895284642009826 0.1249446763333055 0  0.7523885751909704 0.1249314089504832 0  0.815301624783569 0.1249144308999131 0  0.8782834578095402 0.1248926025060715 0  0.941357251676751 0.1248674416491861 0  1.004511758190929 0.1248613091838586 0  0 0.1875 0  0.06266197070790802 0.1874964121107694 0  0.1253291847035242 0.187492681445604 0  0.1880069609638932 0.1874886591517932 0  0.2507007517776666 0.1874841841690676 0  0.3134161821347635 0.1874790764683171 0  0.3761590546234027 0.1874731294616021 0  0.4389353074013068 0.1874661011870223 0  0.5017509151051388 0.1874577037004562 0  0.5646117298228417 0.1874475898385649 0  0.6275232733519057 0.187435336373372 0  0.6904905070008125 0.1874204237951517 0  0.7535175806591125 0.1874022200683219 0  0.8166073380505151 0.1873800000255152 0  0.8797594291277339 0.18735307498934 0  0.9429631530048632 0.1873209320346616 0  1.006177011367285 0.1872806578805652 0  0 0.25 0  0.06270787380720017 0.2499954386890627 0  0.1254226463647221 0.2499906960051681 0  0.1881513346165042 0.2499855828620537 0  0.2509011698746714 0.2499798946729413 0  0.3136796689401713 0.2499734028894623 0  0.3764946564428197 0.2499658457840932 0  0.4393542140131063 0.2499569184288754 0  0.5022665253869731 0.2499462621779479 0  0.5652395783356955 0.2499334547564783 0  0.6282806714419671 0.2499180038211566 0  0.6913956447019369 0.249899350652029 0  0.7545876739624764 0.249876898085593 0  0.8178552622961685 0.2498500878567542 0  0.8811886084258662 0.2498185538768961 0  0.9445628932309237 0.2497823166922909 0  1.007927419482454 0.2497418946537196 0  0 0.3125 0  0.06274692513167129 0.3124946453298257 0  0.1255022976016128 0.3124890780730348 0  0.1882747395353263 0.3124830765655418 0  0.2510731996776828 0.3124764008335433 0  0.3139070763842367 0.3124687825896745 0  0.3767862827152338 0.3124599143788473 0  0.4397212184805797 0.3124494379788693 0  0.5027225988368915 0.3124369328143627 0  0.5658010677620053 0.3124219065053619 0  0.6289664953008501 0.312403792343057 0  0.6922268162737237 0.3123819633376078 0  0.755586210966593 0.3123557803792781 0  0.8190423616376367 0.3123247028512663 0  0.8825825108825202 0.3122885020317096 0  0.9461783893346423 0.312247640594324 0  1.009781603537693 0.3122040228125136 0  0 0.375 0  0.06277757730427014 0.3749940632141538 0  0.1255649872513587 0.3749878913824944 0  0.1883723092101253 0.3749812393515155 0  0.2512100964838692 0.3749738414378923 0  0.3140895768927746 0.3749654000230893 0  0.3770227969098211 0.3749555728965444 0  0.4400226680636045 0.3749439592451161 0  0.5031028513592641 0.3749300847974127 0  0.5662773827818885 0.374913387984868 0  0.6295598997956946 0.3748932117283659 0  0.6929622787328081 0.3748688105609174 0  0.7564924517129746 0.3748393912978202 0  0.820151183913343 0.3748042175440366 0  0.8839277630904308 0.3747628207429418 0  0.9477950861712522 0.374715359129905 0  1.01170577289288 0.3746630898737366 0  0 0.4375 0  0.06279844703288098 0.4374937147697758 0  0.1256078764370923 0.4374871818424692 0  0.1884396027558815 0.4374801428229236 0  0.2513055941333248 0.4374723173911241 0  0.3142187779300267 0.4374633907948042 0  0.3771933066545787 0.4374529994231931 0  0.440244744599902 0.4374407137838244 0  0.5033901065916538 0.4374260183943308 0  0.5666476365765178 0.4374082887990507 0  0.6300361528498237 0.4373867677914552 0  0.6935737119427591 0.437360547236828 0  0.7572752741763686 0.4373285708025464 0  0.8211490443160976 0.4372896894572661 0  0.8851913185792025 0.4372428285424055 0  0.9493801481514239 0.4371873611001877 0  1.013669003220112 0.4371238164507311 0  0 0.5 0  0.06280838731895824 0.4999936126247535 0  0.1256285848869008 0.4999869753359278 0  0.1884728280714973 0.4999798275051621 0  0.2513542060304392 0.4999718863438826 0  0.3142870954734622 0.4999628339175199 0  0.3772875899285022 0.4999523015479839 0  0.4403738976177445 0.4999398501485034 0  0.503566649742009 0.4999249444766097 0  0.566889008733318 0.4999069186535814 0  0.6303663837960573 0.4998849299940767 0  0.6940254419428967 0.4998578994922742 0  0.7578919529703567 0.4998244434825055 0  0.8219868692456955 0.4997828191959156 0  0.8863200325119747 0.4997309502423117 0  0.9508812382216264 0.4996666837823824 0  1.015629321482399 0.4995885663135768 0  0 0.5625 0  0.06280657355516958 0.5624937589840333 0  0.1256253692806757 0.5624872763342766 0  0.1884691242662736 0.5624803003663429 0  0.2513516278194263 0.5624725584645406 0  0.3142882943517983 0.5624637446205547 0  0.3772967854110243 0.5624535040284847 0  0.4403976804728295 0.5624414126462949 0  0.5036151700151817 0.5624269482207239 0  0.5669776928340077 0.5624094468492926 0  0.630518343218864 0.5623880353147386 0  0.6942747046033698 0.5623615242751917 0  0.7582874939866838 0.5623282432919541 0  0.822597019249713 0.56228580486558 0  0.8872360519787089 0.5622308266375653 0  0.9522176421075665 0.5621587711762911 0  1.017517393799541 0.5620643374169815 0  0 0.625 0  0.06279259735841056 0.6249941455665978 0  0.125597321780396 0.6249880676583599 0  0.1884268871448064 0.6249815341007888 0  0.2512952242118658 0.6249742945677552 0  0.3142181829240796 0.6249660698867434 0  0.3772143509068535 0.624956538813695 0  0.4403060285240542 0.6249453201510653 0  0.5035203921064562 0.6249319461633707 0  0.5668908459762259 0.6249158193726865 0  0.6304584824383598 0.6248961371972189 0  0.6942733827678759 0.6248717545909859 0  0.7583951073766363 0.6248409304337725 0  0.8228910074923006 0.6248008702443634 0  0.8878298541557521 0.6247469625617755 0  0.9532670050674869 0.6246717236081684 0  1.019217419774227 0.6245640763359316 0  0 0.6875 0  0.0627665572892865 0.687494754217119 0  0.1255445664912863 0.6874893116893172 0  0.1883461033426391 0.6874834688551544 0  0.2511845533849965 0.6874770080362143 0  0.3140754060236531 0.6874696896353744 0  0.3770372334431321 0.6874612431117075 0  0.4400929449892291 0.6874513555125825 0  0.503271430616599 0.6874396548392827 0  0.5666097259880737 0.6874256818945339 0  0.6301558218401978 0.6874088355710781 0  0.6939721357209733 0.6873882559913143 0  0.7581393087527927 0.6873625626091264 0  0.8227590476969789 0.6873292615505674 0  0.8879525965908828 0.6872834382238538 0  0.9538474092993753 0.687215062621039 0  1.020539519051663 0.6871041144937764 0  0 0.75 0  0.06272913147282207 0.7499955582070853 0  0.1254684219517583 0.7499909531190408 0  0.1882286405407893 0.7499860167243849 0  0.2510218506438411 0.7499805714761808 0  0.3138622274263995 0.7499744259263114 0  0.3767671120235557 0.7499673710266578 0  0.4397584406214332 0.7499591776293765 0  0.5028647507000659 0.7499495958115253 0  0.5661240629300257 0.7499383560612952 0  0.6295880688274776 0.7499251690552132 0  0.6933281972087705 0.7499097080449938 0  0.7574441631664477 0.7498915146844853 0  0.8220750896248344 0.7498696320402002 0  0.8874109495420162 0.7498413643163542 0  0.9536946775222555 0.749798524665336 0  1.021187537050951 0.7497176399024815 0  0 0.8125 0  0.06268161493021393 0.8124965240811846 0  0.1253714918581041 0.8124929229529456 0  0.1880784281063585 0.8124890686161794 0  0.2508123660636484 0.8124848277312399 0  0.3135851404014344 0.8124800603059712 0  0.3764114762457866 0.8124746207354693 0  0.4393104023234991 0.812468363556901 0  0.5023073422723904 0.8124611585219033 0  0.5654373214971417 0.8124529239586347 0  0.6287500329541139 0.812443695749331 0  0.6923180381847915 0.8124337642033341 0  0.7562502718580336 0.8124239321310955 0  0.8207143221931368 0.8124159435400811 0  0.8859719362932104 0.8124128886252486 0  0.9524276438682497 0.8124177362139066 0  1.020651927315611 0.8124198312706876 0  0 0.875 0  0.06262590563378961 0.8749976137427348 0  0.1252576475926575 0.8749951430683706 0  0.1879014612113666 0.8749925022104138 0  0.250564440432247 0.8749896030900561 0  0.3132551115520024 0.8749863558133508 0  0.375984219377744 0.8749826720909625 0  0.4387658755838446 0.8749784747070323 0  0.5016193244848085 0.8749737195757907 0  0.5645717837429688 0.8749684444991876 0  0.6276632189352601 0.8749628762576223 0  0.6909547413956402 0.8749576704520478 0  0.7545441209412687 0.8749544705984933 0  0.8185960368676521 0.874957293021284 0  0.8834048662168674 0.8749762489114407 0  0.9495360750764723 0.8750385285441701 0  1.018193597998945 0.8752231425676436 0  0 0.9375 0  0.06256442894069601 0.9374987863918367 0  0.1251318775480019 0.9374975304040051 0  0.1877055783924957 0.9374961891743225 0  0.2502892237946054 0.9374947191552091 0  0.3128872773617472 0.9374930768784845 0  0.3755054072708722 0.9374912216951558 0  0.4381511309679764 0.937
[...]
<PointData  Vectors="f_54"> 
<DataArray  type="Float64"  Name="f_54"  NumberOfComponents="3" format="ascii">0.0000000000000000e+00 0.0000000000000000e+00 0.0000000000000000e+00  0.0000000000000000e+00 0.0000000000000000e+00 0.0000000000000000e+00  0.0000000000000000e+00 0.0000000000000000e+00 0.0000000000000000e+00  0.0000000000000000e+00 0.0000000000000000e+00 0.0000000000000000e+00  0.0000000000000000e+00 0.0000000000000000e+00 0.0000000000000000e+00  0.0000000000000000e+00 0.0000000000000000e+00 0.0000000000000000e+00  0.0000000000000000e+00 0.0000000000000000e+00 0.0000000000000000e+00  0.0000000000000000e+00 0.0000000000000000e+00 0.0000000000000000e+00  0.0000000000000000e+00 0.0000000000000000e+00 0.0000000000000000e+00  0.0000000000000000e+00 0.0000000000000000e+00 0.0000000000000000e+00  0.0000000000000000e+00 0.0000000000000000e+00 0.0000000000000000e+00  0.0000000000000000e+00 0.0000000000000000e+00 0.0000000000000000e+00  0.0000000000000000e+00 0.0000000000000000e+00 0.0000000000000000e+00  0.0000000000000000e+00 0.0000000000000000e+00 0.0000000000000000e+00  0.0000000000000000e+00 0.0000000000000000e+00 0.0000000000000000e+00  0.0000000000000000e+00 0.0000000000000000e+00 0.0000000000000000e+00  0.0000000000000000e+00 0.0000000000000000e+00 0.0000000000000000e+00  0.0000000000000000e+00 0.0000000000000000e+00 0.0000000000000000e+00  -4.2735886927936026e-07 9.1321640770545587e-09 0.0000000000000000e+00  -8.5794573846094567e-07 1.8496290055563719e-08 0.0000000000000000e+00  -1.2934423564479723e-06 2.8298239963366355e-08 0.0000000000000000e+00  -1.7321474212927018e-06 3.8679928818918617e-08 0.0000000000000000e+00  -2.1666500844063985e-06 4.9658081924464249e-08 0.0000000000000000e+00  -2.5806502192508510e-06 6.1019541775767700e-08 0.0000000000000000e+00  -2.9444448883678680e-06 7.2142089855538631e-08 0.0000000000000000e+00  -3.2082935264411414e-06 8.1687529551420390e-08 0.0000000000000000e+00  -3.2921456658525244e-06 8.7065878777621867e-08 0.0000000000000000e+00  -3.0683338375981850e-06 8.3448231073572023e-08 0.0000000000000000e+00  -2.3286096103847952e-06 6.1747635053029031e-08 0.0000000000000000e+00  -7.1135500150070861e-07 3.7972835097351195e-09 0.0000000000000000e+00  2.4848203420184291e-06 -1.3134792541071914e-07 0.0000000000000000e+00  8.8453238985013553e-06 -4.5268723617174164e-07 0.0000000000000000e+00  2.2620814378444157e-05 -1.3053932351262201e-06 0.0000000000000000e+00  5.7289768680285432e-05 -3.9662794378801260e-06 0.0000000000000000e+00  0.0000000000000000e+00 0.0000000000000000e+00 0.0000000000000000e+00  -8.5223845280496422e-07 1.8048662097072593e-08 0.0000000000000000e+00  -1.7125451283985003e-06 3.6589758270592478e-08 0.0000000000000000e+00  -2.5861242525199418e-06 5.6073999884694473e-08 0.0000000000000000e+00  -3.4718946490502944e-06 7.6847766181621161e-08 0.0000000000000000e+00  -4.3581413331051521e-06 9.9049288924061582e-08 0.0000000000000000e+00  -5.2165744462299839e-06 1.2242846394593482e-07 0.0000000000000000e+00  -5.9939813517222780e-06 1.4603790004687513e-07 0.0000000000000000e+00  -6.6002880862049154e-06 1.6771264743942280e-07 0.0000000000000000e+00  -6.8910991663838640e-06 1.8320692713049859e-07 0.0000000000000000e+00  -6.6411781436467563e-06 1.8477680168036567e-07 0.0000000000000000e+00  -5.5018200685506739e-06 1.5888361684932080e-07 0.0000000000000000e+00  -2.9278288441028541e-06 8.2647826286069077e-08 0.0000000000000000e+00  1.9518449206377612e-06 -8.0446568284579327e-08 0.0000000000000000e+00  1.0544503124415220e-05 -3.7818434255862267e-07 0.0000000000000000e+00  2.4956546993136186e-05 -8.1201221390632743e-07 0.0000000000000000e+00  4.6829417862419554e-05 -9.5040533910966030e-07 0.0000000000000000e+00  0.0000000000000000e+00 0.0000000000000000e+00 0.0000000000000000e+00  -1.2697561036111495e-06 2.6488506579464948e-08 0.0000000000000000e+00  -2.5553802612633328e-06 5.3774739335838548e-08 0.0000000000000000e+00  -3.8690080638373521e-06 8.2617728476051719e-08 0.0000000000000000e+00  -5.2145330334522610e-06 1.1367394696451093e-07 0.0000000000000000e+00  -6.5818222249210191e-06 1.4738441688384631e-07 0.0000000000000000e+00  -7.9387712926855145e-06 1.8377005133644764e-07 0.0000000000000000e+00  -9.2202096929093613e-06 2.2207256984790214e-07 0.0000000000000000e+00  -1.0312435227342807e-05 2.6014691822816887e-07 0.0000000000000000e+00  -1.1031877641615893e-05 2.9347195806724976e-07 0.0000000000000000e+00  -1.1096140660322882e-05 3.1361500615670625e-07 0.0000000000000000e+00  -1.0085846641909003e-05 3.0602169600509760e-07 0.0000000000000000e+00  -7.3979911599102376e-06 2.4728917700209944e-07 0.0000000000000000e+00  -2.2021302166577393e-06 1.0309464671754900e-07 0.0000000000000000e+00  6.5504978705911616e-06 -1.6957505483867082e-07 0.0000000000000000e+00  1.9899408841070492e-05 -6.1098636485626946e-07 0.0000000000000000e+00  3.8044804096454531e-05 -1.2718007839361618e-06 0.0000000000000000e+00  0.0000000000000000e+00 0.0000000000000000e+00 0.0000000000000000e+00  -1.6720709889323523e-06 3.4146211198593530e-08 0.0000000000000000e+00  -3.3716674520305749e-06 6.9437874420614561e-08 0.0000000000000000e+00  -5.1223431095784173e-06 1.0700702267977512e-07 0.0000000000000000e+00  -6.9387736581391645e-06 1.4793566995654131e-07 0.0000000000000000e+00  -8.8203250298591778e-06 1.9317483233012133e-07 0.0000000000000000e+00  -1.0742043963271249e-05 2.4337734687312109e-07 0.0000000000000000e+00  -1.2641952937194154e-05 2.9858095072016612e-07 0.0000000000000000e+00  -1.4403429006637866e-05 3.5764293593440521e-07 0.0000000000000000e+00  -1.5831573084251896e-05 4.1728255915822073e-07 0.0000000000000000e+00  -1.6623246952952367e-05 4.7054609626374125e-07 0.0000000000000000e+00  -1.6332813154939764e-05 5.0451550377094166e-07 0.0000000000000000e+00  -1.4341650817306587e-05 4.9723122581276439e-07 0.0000000000000000e+00  -9.8535119998868916e-06 4.1421901221765107e-07 0.0000000000000000e+00  -1.9665176450666802e-06 2.0555640725476129e-07 0.0000000000000000e+00  1.0082029623993270e-05 -1.9646874662286612e-07 0.0000000000000000e+00  2.6382237063747541e-05 -8.8496187592596390e-07 0.0000000000000000e+00  0.0000000000000000e+00 0.0000000000000000e+00 0.0000000000000000e+00  -2.0475044534621842e-06 4.0674441670406483e-08 0.0000000000000000e+00  -4.1383156453044208e-06 8.2859753714448196e-08 0.0000000000000000e+00  -6.3122872270312971e-06 1.2809867319354808e-07 0.0000000000000000e+00  -8.6013544840187186e-06 1.7798324314420817e-07 0.0000000000000000e+00  -1.1023398756536272e-05 2.3414604981675052e-07 0.0000000000000000e+00  -1.3573249044753767e-05 2.9819415858548669e-07 0.0000000000000000e+00  -1.6209513658844846e-05 3.7153267164383170e-07 0.0000000000000000e+00  -1.8835782826903014e-05 4.5498393556139681e-07 0.0000000000000000e+00  -2.1274877595946431e-05 5.4804285134336174e-07 0.0000000000000000e+00  -2.3235720598770138e-05 6.4751276985208496e-07 0.0000000000000000e+00  -2.4274983349790350e-05 7.4514454648054031e-07 0.0000000000000000e+00  -2.3761433469218847e-05 8.2378227717170738e-07 0.0000000000000000e+00  -2.0861705681167587e-05 8.5146956335110367e-07 0.0000000000000000e+00  -1.4582137900953726e-05 7.7310477373318696e-07 0.0000000000000000e+00  -3.9133997245774087e-06 4.9990589554286052e-07 0.0000000000000000e+00  1.1901287749866456e-05 -9.9655299095513646e-08 0.0000000000000000e+00  0.0000000000000000e+00 0.0000000000000000e+00 0.0000000000000000e+00  -2.3802928546726424e-06 4.5708884285299773e-08 0.0000000000000000e+00  -4.8233006002956870e-06 9.3266842375518299e-08 0.0000000000000000e+00  -7.3896284458817284e-06 1.4461163421783585e-07 0.0000000000000000e+00  -1.0134681242085256e-05 2.0185875891186059e-07 0.0000000000000000e+00  -1.3103905433028662e-05 2.6739505099172631e-07 0.0000000000000000e+00  -1.6325074923560141e-05 3.4396791846938267e-07 0.0000000000000000e+00  -1.9796054798234060e-05 4.3474475747706604e-07 0.0000000000000000e+00  -2.3466045417851323e-05 5.4327765501494653e-07 0.0000000000000000e+00  -2.7207977383896851e-05 6.7322721484388061e-07 0.0000000000000000e+00  -3.0779869462686877e-05 8.2754160328037569e-07 0.0000000000000000e+00  -3.3774309650146790e-05 1.0065018010101509e-06 0.0000000000000000e+00  -3.5558950094474131e-05 1.2035760853290729e-06 0.0000000000000000e+00  -3.5218329024641016e-05 1.3973705301582656e-06 0.0000000000000000e+00  -3.1518444116345864e-05 1.5373200399811691e-06 0.0000000000000000e+00  -2.2925594627863551e-05 1.5208767710915512e-06 0.0000000000000000e+00  -7.7072774282383895e-06 1.1623465361499832e-06 0.0000000000000000e+00  0.0000000000000000e+00 0.0000000000000000e+00 0.0000000000000000e+00  -2.6510989097482410e-06 4.8913030127018929e-08 0.0000000000000000e+00  -5.3866184917950561e-06 9.9929480461179835e-08 0.0000000000000000e+00  -8.2910202012597857e-06 1.5529588552301322e-07 0.0000000000000000e+00  -1.1448046880053917e-05 2.1756358774341359e-07 0.0000000000000000e+00  -1.4938530583565880e-05 2.8979359515765652e-07 0.0000000000000000e+00  -1.8835505124950604e-05 3.7582892016087845e-07 0.0000000000000000e+00  -2.3194846399158533e-05 4.8065843889940321e-07 0.0000000000000000e+00  -2.8038784959359192e-05 6.1087876040129189e-07 0.0000000000000000e+00  -3.3328454119130283e-05 7.7519741029739743e-07 0.0000000000000000e+00  -3.8920278283446911e-05 9.8474890034548590e-07 0.0000000000000000e+00  -4.4499933905335120e-05 1.2525933797859270e-06 0.0000000000000000e+00  -4.9487947615125653e-05 1.5909347162826166e-06 0.0000000000000000e+00  -5.2914842992952789e-05 2.0030895257557016e-06 0.0000000000000000e+00  -5.3274193333184984e-05 2.4650280035358700e-06 0.0000000000000000e+00  -4.8381996554480792e-05 2.8893247103582217e-06 0.0000000000000000e+00  -3.5301307799739892e-05 3.0661173724038997e-06 0.0000000000000000e+00  0.0000000000000000e+00 0.0000000000000000e+00 0.0000000000000000e+00  -2.8383455851909243e-06 5.0034430525787193e-08 0.0000000000000000e+00  -5.7829703781687724e-06 1.0228828780915537e-07 0.0000000000000000e+00  -8.9430140331620570e-06 1.5915934275083219e-07 0.0000000000000000e+00  -1.2432905272003887e-05 2.2343730480674910e-07 0.0000000000000000e+00  -1.6373925397111222e-05 2.9859695991394465e-07 0.0000000000000000e+00  -2.0893914390669439e-05 3.8923338509343006e-07 0.0000000000000000e+00  -2.6123405627907518e-05 5.0173042846212778e-07 0.0000000000000000e+00  -3.2185150545168499e-05 6.4528777046592740e-07 0.0000000000000000e+00  -3.9171815564076723e-05 8.3344991564661844e-07 0.0000000000000000e+00  -4.7103268430696778e-05 1.0862145678121675e-06 0.0000000000000000e+00  -5.5850177927292212e-05 1.4324718450810683e-06 0.0000000000000000e+00  -6.5005310080051010e-05 1.9115442432852374e-06 0.0000000000000000e+00  -7.3680784756743610e-05 2.5702109626071525e-06 0.0000000000000000e+00  -8.0215914697695804e-05 3.4467461848008754e-06 0.0000000000000000e+00  -8.1809523655777691e-05 4.5256547861227188e-06 0.0000000000000000e+00  -7.4159335925071172e-05 5.6388371718206915e-06 0.0000000000000000e+00  0.0000000000000000e+00 0.0000000000000000e+00 0.0000000000000000e+00  -2.9203524723389089e-06 4.8958646016856903e-08 0.0000000000000000e+00  -5.9661739589015475e-06 1.0007885234064291e-07 0.0000000000000000e+00  -9.2689877343486933e-06 1.5570162826107059e-07 0.0000000000000000e+00  -1.2972558325346744e-05 2.1857058802705002e-07 0.0000000000000000e+00  -1.7239177185463488e-05 2.9215377043058470e-07 0.0000000000000000e+00  -2.2255686126675623e-05 3.8115609663037106e-07 0.0000000000000000e+00  -2.8238132419401205e-05 4.9237759346028413e-07 0.0000000000000000e+00  -3.5432454533724423e-05 6.3618170210838417e-07 0.0000000000000000e+00  -4.4105714534059740e-05 8.2900757390614385e-07 0.0000000000000000e+00  -5.4517088506763875e-05 1.0975788184166107e-06 0.0000000000000000e+00  -6.6848683441211442e-05 1.4856053926653184e-06 0.0000000000000000e+00  -8.1062071561605685e-05 2.0633777661751728e-06 0.0000000000000000e+00  -9.6628542396435299e-05 2.9383780013713213e-06 0.0000000000000000e+00  -1.1206912298917409e-04 4.2578155853741821e-06 0.0000000000000000e+00  -1.2426230281800926e-04 6.1766920464617005e-06 0.0000000000000000e+00  -1.2758458109781343e-04 8.7347168437871644e-06 0.0000000000000000e+00  0.0000000000000000e+00 0.0000000000000000e+00 0.0000000000000000e+00  -2.8781352807235221e-06 4.5744315305085075e-08 0.0000000000000000e+00  -5.8950611542458861e-06 9.3416797359258953e-08 0.0000000000000000e+00  -9.1987241764835171e-06 1.4508533526090153e-07 0.0000000000000000e+00  -1.2956225676559350e-05 2.0313517917798368e-07 0.0000000000000000e+00  -1.7365230651632024e-05 2.7053199592345804e-07 0.0000000000000000e+00  -2.2667455852712181e-05 3.5126384354729700e-07 0.0000000000000000e+00  -2.9164478719615121e-05 4.5113973902402970e-07 0.0000000000000000e+00  -3.7235056437945929e-05 5.7929541113591235e-07 0.0000000000000000e+00  -4.7350538465226840e-05 7.5109622304493547e-07 0.0000000000000000e+00  -6.0079019086066825e-05 9.9376488421474594e-07 0.0000000000000000e+00  -7.6056263936800494e-05 1.3571593988810396e-06 0.0000000000000000e+00  -9.5876683090978681e-05 1.9336643842253296e-06 0.0000000000000000e+00  -1.1981441802070987e-04 2.8920513071823987e-06 0.0000000000000000e+00  -1.4722461176685679e-04 4.5255294060099063e-06 0.0000000000000000e+00  -1.7543547706965742e-04 7.2890837042901888e-06 0.0000000000000000e+00  -1.9804850874222891e-04 1.1722668597366780e-05 0.0000000000000000e+00  0.0000000000000000e+00 0.0000000000000000e+00 0.0000000000000000e+00  -2.6985734663087329e-06 4.0624639455214037e-08 0.0000000000000000e+00  -5.5402850065971533e-06 8.2807493501461660e-08 0.0000000000000000e+00  -8.6798386888052768e-06 1.2817308491981280e-07 0.0000000000000000e+00  -1.2296640486305160e-05 1.7849482894942409e-07 0.0000000000000000e+00  -1.6610783097241094e-05 2.3581147791433843e-07 0.0000000000000000e+00  -2.1903849302168507e-05 3.0262972582506368e-07 0.0000000000000000e+00  -2.8546801000130540e-05 3.8233167335021656e-07 0.0000000000000000e+00  -3.7037462656990597e-05 4.8007031347201584e-07 0.0000000000000000e+00  -4.8049488713734093e-05 6.0482862433389052e-07 0.0000000000000000e+00  -6.2491319695352922e-05 7.7424268465907843e-07 0.0000000000000000e+00  -8.1562689620966021e-05 1.0259157727985893e-06 0.0000000000000000e+00  -1.0676659496401985e-04 1.4435970206096139e-06 0.0000000000000000e+00  -1.3976337199727979e-04 2.2156754273365382e-06 0.0000000000000000e+00  -1.8180525940947673e-04 3.7565754810018318e-06 0.0000000000000000e+00  -2.3225388300964544e-04 6.9212263669500898e-06 0.0000000000000000e+00  -2.8553316372438071e-04 1.3246589210555089e-05 0.0000000000000000e+00  0.0000000000000000e+00 0.0000000000000000e+00 0.0000000000000000e+00  -2.3774819234339010e-06 3.3968641318775582e-08 0.0000000000000000e+00  -4.8910685074538494e-06 6.9061528543408490e-08 0.0000000000000000e+00  -7.6895252779142085e-06 1.0638436270098793e-07 0.0000000000000000e+00  -1.0949058447418984e-05 1.4699068856695507e-07 0.0000000000000000e+00  -1.4892117531371978e-05 1.9180514193641337e-07 0.0000000000000000e+00  -1.9813418218122383e-05 2.4147655451616696e-07 0.0000000000000000e+00  -2.6117664299859181e-05 2.9613152225082150e-07 0.0000000000000000e+00  -3.4375681094720921e-05 3.5503408189920018e-07 0.0000000000000000e+00  -4.5408885547717644e-05 4.1632576522204737e-07 0.0000000000000000e+00  -6.0415759737930970e-05 4.7763111141076691e-07 0.0000000000000000e+00  -8.1155274336693856e-05 5.4030744331162950e-07 0.0000000000000000e+00  -1.1018928270398311e-04 6.2627842288940007e-07 0.0000000000000000e+00  -1.5112020370840318e-04 8.3453960369327592e-07 0.0000000000000000e+00  -2.0853315963038238e-04 1.5138415079252830e-06 0.0000000000000000e+00  -2.8673465205719857e-04 3.7385911055054105e-06 0.0000000000000000e+00  -3.8527638676045736e-04 1.0378635473648418e-05 0.0000000000000000e+00  0.0000000000000000e+00 0.0000000000000000e+00 0.0000000000000000e+00  -1.9219912225675185e-06 2.6209138333615703e-08 0.0000000000000000e+00  -3.9605932466223516e-06 5.3128569139850715e-08 0.0000000000000000e+00  -6.2443826986383439e-06 8.1384804346303863e-08 0.0000000000000000e+00  -8.9281511639303059e-06 1.1139426522759560e-07 0.0000000000000000e+00  -1.2211624251543263e-05 1.4312458106840587e-07 0.0000000000000000e+00  -1.6366505181398869e-05 1.7563300020386074e-07 0.0000000000000000e+00  -2.1777804085092717e-05 2.0617468868082903e-07 0.0000000000000000e+00  -2.9009538986565475e-05 2.2849272074511455e-07 0.0000000000000000e+00  -3.8912442359638695e-05 2.2957388597179047e-07 0.0000000000000000e+00  -5.2805075796758389e-05 1.8362442588261763e-07 0.0000000000000000e+00  -7.2784221671393535e-05 4.1451211407223976e-08 0.0000000000000000e+00  -1.0225968915705004e-04 -2.8567454296629953e-07 0.0000000000000000e+00  -1.4684913943899906e-04 -9.3812156205354343e-07 0.0000000000000000e+00  -2.1568578459043293e-04 -2.0472365273197877e-06 0.0000000000000000e+00  -3.2233903579099153e-04 -3.2461841287108838e-06 0.0000000000000000e+00  -4.8057693539045636e-04 -1.1520631441222551e-06 0.0000000000000000e+00  0.0000000000000000e+00 0.0000000000000000e+00 0.0000000000000000e+00  -1.3516171856543011e-06 1.7759213417014135e-08 0.0000000000000000e+00  -2.7886153816763152e-06 3.5899450788955174e-08 0.0000000000000000e+00  -4.4057175183356599e-06 5.4698750953754134e-08 0.0000000000000000e+00  -6.3182641478150666e-06 7.4178002084946603e-08 0.0000000000000000e+00  -8.6773519461934768e-06 9.3812206917628762e-08 0.0000000000000000e+00  -1.1692339406069150e-05 1.1196052692898843e-07 0.0000000000000000e+00  -1.5666465800081011e-05 1.2471603100644748e-07 0.0000000000000000e+00  -2.1055993881743863e-05 1.2354286912614018e-07 0.0000000000000000e+00  -2.8572758356224375e-05 9.0317000272596564e-08 0.0000000000000000e+00  -3.9370027785515056e-05 -1.3365576739927374e-08 0.0000000000000000e+00  -5.5395963734511994e-05 -2.6998631041776158e-07 0.0000000000000000e+00  -8.0102085113772678e-05 -8.6100576213929683e-07 0.0000000000000000e+00  -1.1994293695942300e-04 -2.1982691654678761e-06 0.0000000000000000e+00  -1.8770059388771273e-04 -5.2475540747817593e-06 0.0000000000000000e+00  -3.0984113056691551e-04 -1.2312852695615576e-05 0.0000000000000000e+00  -5.3871822769618622e-04 -2.8479992812819633e-05 0.0000000000000000e+00  0.0000000000000000e+00 0.0000000000000000e+00 0.0000000000000000e+00  -6.9754694573302912e-07 8.9477231837419532e-09 0.0000000000000000e+00  -1.4401754676464867e-06 1.8050943700978565e-08 0.0000000000000000e+00  -2.2780723386210340e-06 2.7396192012798381e-08 0.0000000000000000e+00  -3.2727366069299626e-06 3.6897671691267918e-08 0.0000000000000000e+00  -4.5054107606644213e-06 4.6103382045514186e-08 0.0000000000000000e+00  -6.0898071006871009e-06 5.3807746524121336e-08 0.0000000000000000e+00  -8.1926271309005774e-06 5.7253412427924263e-08 0.0000000000000000e+00  -1.1068433951527867e-05 5.0441499446713224e-08 0.0000000000000000e+00  -1.5121979297725058e-05 2.0435899529173335e-08 0.0000000000000000e+00  -2.1025927587791783e-05 -6.1058850626416641e-08 0.0000000000000000e+00  -2.9958269552273365e-05 -2.5790246733083323e-07 0.0000000000000000e+00  -4.4121556742925240e-05 -7.2118889789782616e-07 0.0000000000000000e+00  -6.8001730434431705e-05 -1.8324028787959940e-06 0.0000000000000000e+00  -1.1185542155153956e-04 -4.6431592535566389e-06 0.0000000000000000e+00  -2.0323107052799464e-04 -1.2429077525864955e-05 0.0000000000000000e+00  -4.3540221416781650e-04 -3.7433866767220537e-05 0.0000000000000000e+00  0.0000000000000000e+00 0.0000000000000000e+00 0.0000000000000000e+00  0.0000000000000000e+00 0.0000000000000000e+00 0.0000000000000000e+00  0.0000000000000000e+00 0.0000000000000000e+00 0.0000000000000000e+00  0.0000000000000000e+00 0.0000000000000000e+00 0.0000000000000000e+00  0.0000000000000000e+00 0.0000000000000000e+00 0.0000000000000000e+00  0.0000000000000000e+00 0.0000000000000000e+00 0.0000000000000000e+00  0.0000000000000000e+00 0.0000000000000000e+00 0.0000000000000000e+00  0.0000000000000000e+00 0.0000000000000000e+00 0.0000000000000000e+00  0.0000000000000000e+00 0.00000000