<?xml version="1.0"?>
<VTKFile type="UnstructuredGrid"  version="0.1"  >
<UnstructuredGrid>
<Piece  NumberOfPoints="289" NumberOfCells="512">
<Points>
<DataArray  type="Float64"  NumberOfComponents="3"  format="ascii">0 0 0  0.0625 0 0  0.125 0 0  0.1875 0 0  0.25 0 0  0.3125 0 0  0.375 0 0  0.4375 0 0  0.5 0 0  0.5625 0 0  0.625 0 0  0.6875 0 0  0.75 0 0  0.8125 0 0  0.875 0 0  0.9375 0 0  1 0 0  0 0.0625 0  0.06255806813749085 0.06249342980899539 0  0.1251179949270682 0.06248672115745114 0  0.1876816755926834 0.0624797428782101 0  0.2502510550467176 0.06247238079193661 0  0.3128281469535819 0.06246454869285875 0  0.3754150465625872 0.06245620166003035 0  0.4380139392667834 0.06244735080126686 0  0.5006271148347254 0.06243807589028439 0  0.5632570172390468 0.06242852682900811 0  0.6259064108841585 0.06241889317094357 0  0.6885788800012306 0.06240929480570359 0  0.7512802644679436 0.06239948264318731 0  0.8140228003250773 0.06238806086684409 0  0.8768373963891893 0.06237040664802338 0  0.939811169231543 0.06233287522137325 0  1.003203254741366 0.06223897683649195 0  0 0.125 0  0.06261428163767448 0.1249869979382581 0  0.1252322644423299 0.1249737107369277 0  0.1878577271420554 0.124959866760849 0  0.2504945594448535 0.1249452262460983 0  0.3131468068168745 0.1249296028380403 0  0.3758187029545086 0.1249128909898231 0  0.4385146913912358 0.124895098842437 0  0.5012394482278257 0.1248763824162535 0  0.5639979420092132 0.1248570692998946 0  0.6267956186318951 0.1248376455156796 0  0.6896389044328218 0.1248186537297845 0  0.7525364079352084 0.1248004131016262 0  0.8155014018768656 0.1247824469549628 0  0.8785556355648103 0.1247626672707472 0  0.9417291174011264 0.1247375087284284 0  1.005022057146611 0.1247088702540743 0  0 0.1875 0  0.06266679744213609 0.1874808516703 0  0.1253390910712009 0.1874612564893025 0  0.1880225010981952 0.1874407850356282 0  0.2507228357872616 0.1874190500596732 0  0.3134461700508147 0.1873957371400817 0  0.3761989043007616 0.1873706464925191 0  0.4389877998575147 0.1873437481441391 0  0.5018199932582621 0.1873152496542073 0  0.5647030041111327 0.1872856690643817 0  0.6276447704357894 0.1872558933224569 0  0.6906537599847836 0.187227180892539 0  0.7537391545304933 0.1872010334698084 0  0.8169107670898799 0.1871788095716452 0  0.8801771186677233 0.1871608318367153 0  0.9435369106594482 0.1871441739789085 0  1.006955548170125 0.1871152170069084 0  0 0.25 0  0.06271382512328423 0.24997515320236 0  0.1254348547684772 0.249949678427395 0  0.1881704702725858 0.2499229653153572 0  0.2509283378865584 0.2498944482005707 0  0.3137165322712749 0.2498636424394726 0  0.3765436331657427 0.2498301984422748 0  0.4394187838636945 0.2497939801062332 0  0.5023516984572803 0.2497551738260528 0  0.5653526013804632 0.2497144316034323 0  0.6284320703720744 0.2496730449336459 0  0.6916007091856928 0.249633132041118 0  0.754868437272855 0.2495977953665296 0  0.8182428188276218 0.2495711626440963 0  0.8817250885308333 0.2495581554567204 0  0.9453015227232806 0.2495637710435961 0  1.008928349818054 0.2495921741594535 0  0 0.3125 0  0.06275366284469194 0.312470083995279 0  0.1255161029111542 0.3124393390398462 0  0.1882963337500345 0.3124069487109069 0  0.2511037734927865 0.3123721324429543 0  0.3139484280452932 0.3123341812159483 0  0.3768410445636876 0.3122925172358669 0  0.439793217560534 0.3122467897698344 0  0.502817421559363 0.3121970226462738 0  0.5659269294719339 0.312143832322253 0  0.6291355469437931 0.3120887372997147 0  0.6924570326598308 0.3120345766709077 0  0.7559039536826524 0.3119860412365306 0  0.8194855196988333 0.3119502850380497 0  0.8832037356899701 0.3119375228835632 0  0.9470475284480572 0.3119614738059703 0  1.010986908345256 0.3120396959387055 0  0 0.375 0  0.06278474293728363 0.3749658451719822 0  0.1255796401676298 0.3749306456807108 0  0.1883951478440315 0.3748933577870102 0  0.2512422693386953 0.3748529503229029 0  0.3141328154362204 0.3748084303540134 0  0.3770796401650591 0.3747588965866182 0  0.4400968331850463 0.3747036376205164 0  0.5031998377493371 0.3746423001039228 0  0.5664054441208116 0.3745751629451605 0  0.6297315765902873 0.3745035676026219 0  0.6931967393928052 0.3744305680692317 0  0.7568189054529647 0.3743618678791243 0  0.820613538416804 0.3743070824328728 0  0.8845904401104807 0.3742812598236645 0  0.9487495279553504 0.3743063477817449 0  1.013076968003966 0.3744118124371225 0  0 0.4375 0  0.06280568947598122 0.4374626523730122 0  0.1256226437845346 0.4374240415496398 0  0.1884624986394046 0.4373828867465184 0  0.2513375978068993 0.4373378806714389 0  0.3142613468711957 0.437287693503309 0  0.3772485589826312 0.4372310033011453 0  0.4403157790695981 0.4371665724086076 0  0.503481561825587 0.4370934016723331 0  0.5667666623764664 0.4370110136340798 0  0.6301940746047454 0.4369199446876068 0  0.6937888171079922 0.4368225650236044 0  0.7575773167300955 0.4367243866183925 0  0.8215861763519624 0.4366360341836104 0  0.8858400629413934 0.4365759664021131 0  0.9503584859999358 0.4365737074640879 0  1.015151416912254 0.4366726623832239 0  0 0.5 0  0.0628153885089644 0.4999607238125289 0  0.1256428064907227 0.4999199821956664 0  0.1884947219637854 0.4998762677124941 0  0.2513844787875991 0.4998279932637901 0  0.3143267551739656 0.4997734624647482 0  0.3773380420456998 0.499710858020618 0  0.4404371408431498 0.4996382655829576 0  0.5036456743649624 0.4995537651374929 0  0.5669885980321335 0.4994556475309868 0  0.6304946949593647 0.4993428573229798 0  0.6941970382567362 0.49921583408212 0  0.7581334012003258 0.4990780295085651 0  0.8223465521139048 0.4989385029862099 0  0.8868841759080458 0.4988160535917713 0  0.9517976139555142 0.4987450617276212 0  1.017137564220719 0.4987820762946125 0  0 0.5625 0  0.06281306873055231 0.5624602611648869 0  0.1256385033053252 0.5624188962460835 0  0.188489167181915 0.5623742095652915 0  0.2513789562946281 0.5623243642813539 0  0.3143233628878411 0.5622673100777699 0  0.3773400964912917 0.5622007127117065 0  0.4404497811768498 0.5621218947566666 0  0.5036767511732949 0.5620278097052039 0  0.5670499780610186 0.5619150971451795 0  0.6306041939909757 0.5617803169586942 0  0.69438134550678 0.5616205576540523 0  0.7584326335996704 0.5614347954450362 0  0.8228215107399403 0.5612266928620315 0  0.887627822858771 0.5610099568471717 0  0.9529520300490024 0.5608175932714262 0  1.018915046117406 0.5607152132777485 0  0 0.625 0  0.06279838669525398 0.6249614243480087 0  0.1256089706971178 0.6249211321319196 0  0.1884444882022774 0.6248773108762206 0  0.2513188294099842 0.6248279468754222 0  0.3142476929407502 0.624770707570278 0  0.3772493394481923 0.6247028037600533 0  0.4403454867204656 0.6246208268905818 0  0.5035624021695506 0.6245205622320422 0  0.5669322803034504 0.6243967938269267 0  0.6304950699711451 0.6242431548462546 0  0.6943010977915133 0.6240521684817967 0  0.7584152192128847 0.6238158419263635 0  0.8229238885489886 0.6235276766196125 0  0.8879471445384546 0.6231880118880434 0  0.9536562320386098 0.6228162750766547 0  1.020289826428389 0.6224736835322241 0  0 0.6875 0  0.06277150675965702 0.6874643030536454 0  0.1255544780630667 0.6874268965658653 0  0.1883609306494813 0.6873859555548272 0  0.2512040944212044 0.6873394077421866 0  0.3140991241555455 0.6872847775314931 0  0.3770639503943846 0.6872189865521663 0  0.4401203347208159 0.6871380887317134 0  0.5032952174308722 0.6870369114305389 0  0.566622492337769 0.6869085678512736 0  0.63014545553319 0.6867438059336564 0  0.6939204667145181 0.6865301865950844 0  0.7580231168687679 0.6862512104883359 0  0.8225599899124264 0.6858859707233297 0  0.8876925442219741 0.6854114338077841 0  0.9536826710192365 0.6848139659430772 0  1.020958794495156 0.6841246217311531 0  0 0.75 0  0.06273316269667988 0.7499688895920618 0  0.1254764642037847 0.7499361945392338 0  0.1882405711892595 0.7499002074414343 0  0.2510373337899462 0.7498589542306259 0  0.3138805018540443 0.7498100173001732 0  0.376786609840656 0.7497502973659168 0  0.439776114278897 0.7496756769168739 0  0.5028748962041497 0.7495805290816956 0  0.5661162890994712 0.7494569845699355 0  0.6295438962002182 0.7492938182812184 0  0.6932157503354005 0.749074734300149 0  0.7572112984481797 0.7487757047000444 0  0.8216457083879719 0.7483609144497053 0  0.8867050587783541 0.7477773204256424 0  0.9527375675644991 0.7469523210937304 0  1.020439993388385 0.7458303485295168 0  0 0.8125 0  0.06268468640562294 0.8124750587028418 0  0.1253776075578258 0.8124487833457501 0  0.1880874569411682 0.8124197258591708 0  0.2508239727139718 0.8123861881181843 0  0.3135985885180542 0.8123460503846252 0  0.3764252621336357 0.8122965326089061 0  0.439321576141564 0.8122338445641356 0  0.5023102367452702 0.8121526546012923 0  0.5654211360810879 0.8120452610607436 0  0.628694188765867 0.8119002679300197 0  0.6921832391460931 0.8117004087856804 0  0.7559617354887376 0.8114188358978331 0  0.8201331081676029 0.8110124513687572 0  0.8848602910520291 0.8104090860822509 0  0.950483269175701 0.8094809123968205 0  1.018033496894282 0.8079811886530177 0  0 0.875 0  0.06262799034975486 0.8749825598748119 0  0.125261800578455 0.8749641532487279 0  0.187907593266091 0.8749437253368045 0  0.2505723203398429 0.8749200264874586 0  0.3132642280139967 0.8748914754766443 0  0.3759935179861236 0.8748559653475688 0  0.4387732542496752 0.8748105726953512 0  0.5016206389921815 0.8747511070902989 0  0.5645588140579642 0.874671395777409 0  0.6276193323902428 0.8745621274981811 0  0.6908452471370803 0.8744089539604351 0  0.7542940336207025 0.8741893064100641 0  0.8180377835135093 0.8738668271407238 0  0.882157055982119 0.8733808487299468 0  0.9467503918452133 0.8726260775835782 0  1.012285477154027 0.8714383669853448 0  0 0.9375 0  0.06256549494208852 0.9374910260998029 0  0.1251340073816056 0.9374815440277741 0  0.1877087398859452 0.9374709973370164 0  0.2502933244435466 0.9374587226253102 0  0.3128921034178 0.937443873500137 0  0.3755105066433395 0.9374253112885713 0  0.4381555844465023 0.93740143
[...]
<PointData  Vectors="f_54"> 
<DataArray  type="Float64"  Name="f_54"  NumberOfComponents="3" format="ascii">0.0000000000000000e+00 0.0000000000000000e+00 0.0000000000000000e+00  0.0000000000000000e+00 0.0000000000000000e+00 0.0000000000000000e+00  0.0000000000000000e+00 0.0000000000000000e+00 0.0000000000000000e+00  0.0000000000000000e+00 0.0000000000000000e+00 0.0000000000000000e+00  0.0000000000000000e+00 0.0000000000000000e+00 0.0000000000000000e+00  0.0000000000000000e+00 0.0000000000000000e+00 0.0000000000000000e+00  0.0000000000000000e+00 0.0000000000000000e+00 0.0000000000000000e+00  0.0000000000000000e+00 0.0000000000000000e+00 0.0000000000000000e+00  0.0000000000000000e+00 0.0000000000000000e+00 0.0000000000000000e+00  0.0000000000000000e+00 0.0000000000000000e+00 0.0000000000000000e+00  0.0000000000000000e+00 0.0000000000000000e+00 0.0000000000000000e+00  0.0000000000000000e+00 0.0000000000000000e+00 0.0000000000000000e+00  0.0000000000000000e+00 0.0000000000000000e+00 0.0000000000000000e+00  0.0000000000000000e+00 0.0000000000000000e+00 0.0000000000000000e+00  0.0000000000000000e+00 0.0000000000000000e+00 0.0000000000000000e+00  0.0000000000000000e+00 0.0000000000000000e+00 0.0000000000000000e+00  0.0000000000000000e+00 0.0000000000000000e+00 0.0000000000000000e+00  0.0000000000000000e+00 0.0000000000000000e+00 0.0000000000000000e+00  2.5212505395040657e-06 -5.2934096556724449e-08 0.0000000000000000e+00  5.1318138313521620e-06 -1.0930208058451336e-07 0.0000000000000000e+00  7.9241531354475318e-06 -1.7284998967401083e-07 0.0000000000000000e+00  1.0995994370890313e-05 -2.4795145420906713e-07 0.0000000000000000e+00  1.4453205753846871e-05 -3.3999138614498987e-07 0.0000000000000000e+00  1.8413079770133605e-05 -4.5584121455998523e-07 0.0000000000000000e+00  2.3008515600522296e-05 -6.0447968850334319e-07 0.0000000000000000e+00  2.8394258008758163e-05 -7.9786164514622045e-07 0.0000000000000000e+00  3.4757973021854203e-05 -1.0522754575119705e-06 0.0000000000000000e+00  4.2343140222123298e-05 -1.3908456697419692e-06 0.0000000000000000e+00  5.1502291812802732e-05 -1.8491552909071168e-06 0.0000000000000000e+00  6.2833295645675841e-05 -2.4903966621409724e-06 0.0000000000000000e+00  7.7560604582596181e-05 -3.4523600811955148e-06 0.0000000000000000e+00  9.8700729600314626e-05 -5.1093094253752713e-06 0.0000000000000000e+00  1.3496251010612395e-04 -8.6794556861462699e-06 0.0000000000000000e+00  2.1518137151931642e-04 -1.8712822605491329e-05 0.0000000000000000e+00  0.0000000000000000e+00 0.0000000000000000e+00 0.0000000000000000e+00  4.9574458299992883e-06 -1.0252667119955902e-07 0.0000000000000000e+00  1.0091633188985158e-05 -2.1164541986228136e-07 0.0000000000000000e+00  1.5585551346702587e-05 -3.3454909409550861e-07 0.0000000000000000e+00  2.1632714455016964e-05 -4.7964203805790958e-07 0.0000000000000000e+00  2.8442806811366397e-05 -6.5728019147060661e-07 0.0000000000000000e+00  3.6247889222077496e-05 -8.8068060480735955e-07 0.0000000000000000e+00  4.5309798326231215e-05 -1.1670804518640049e-06 0.0000000000000000e+00  5.5930123295615228e-05 -1.5392642918242424e-06 0.0000000000000000e+00  6.8465828670151300e-05 -2.0276695081668308e-06 0.0000000000000000e+00  8.3357306668328123e-05 -2.6734869917398204e-06 0.0000000000000000e+00  1.0118359208849145e-04 -3.5335706777124659e-06 0.0000000000000000e+00  1.2277508695718455e-04 -4.6882912697628362e-06 0.0000000000000000e+00  1.4943665085545872e-04 -6.2507972921527406e-06 0.0000000000000000e+00  1.8331637676293641e-04 -8.3518637072205549e-06 0.0000000000000000e+00  2.2755582387841284e-04 -1.0924933769306769e-05 0.0000000000000000e+00  2.8306859961303070e-04 -1.2290047339305496e-05 0.0000000000000000e+00  0.0000000000000000e+00 0.0000000000000000e+00 0.0000000000000000e+00  7.2206679123522444e-06 -1.4561347602705969e-07 0.0000000000000000e+00  1.4701050663426347e-05 -3.0042295233240458e-07 0.0000000000000000e+00  2.2710054921657128e-05 -4.7446323581544048e-07 0.0000000000000000e+00  3.1532297701852023e-05 -6.7946998978419220e-07 0.0000000000000000e+00  4.1476328916930700e-05 -9.2992204364385124e-07 0.0000000000000000e+00  5.2883270174178109e-05 -1.2443180814241419e-06 0.0000000000000000e+00  6.6136223175616081e-05 -1.6467740938226035e-06 0.0000000000000000e+00  8.1671135618655803e-05 -2.1690258649229874e-06 0.0000000000000000e+00  9.9990438454180213e-05 -2.8528984764569635e-06 0.0000000000000000e+00  1.2168169955072646e-04 -3.7532170241117823e-06 0.0000000000000000e+00  1.4744407899408939e-04 -4.9408242021435091e-06 0.0000000000000000e+00  1.7812180687952912e-04 -6.5043398223999295e-06 0.0000000000000000e+00  2.1472199097003812e-04 -8.5462168519892640e-06 0.0000000000000000e+00  2.5830905014203069e-04 -1.1161941395271275e-05 0.0000000000000000e+00  3.0941703946935290e-04 -1.4394429720826630e-05 0.0000000000000000e+00  3.6619855796730754e-04 -1.8326627035110307e-05 0.0000000000000000e+00  0.0000000000000000e+00 0.0000000000000000e+00 0.0000000000000000e+00  9.2276151303570769e-06 -1.7959051536419592e-07 0.0000000000000000e+00  1.8790905859299357e-05 -3.7019384630775490e-07 0.0000000000000000e+00  2.9037487457913054e-05 -5.8382492580040507e-07 0.0000000000000000e+00  4.0335841655477462e-05 -8.3454879503740062e-07 0.0000000000000000e+00  5.3086036688966751e-05 -1.1397515662216202e-06 0.0000000000000000e+00  6.7730586310092941e-05 -1.5217109346745589e-06 0.0000000000000000e+00  8.4765346375561594e-05 -2.0095666358118701e-06 0.0000000000000000e+00  1.0475013206496942e-04 -2.6417616124551446e-06 0.0000000000000000e+00  1.2831823584173743e-04 -3.4689299113162763e-06 0.0000000000000000e+00  1.5618270260800001e-04 -4.5569656532049383e-06 0.0000000000000000e+00  1.8913359295723753e-04 -5.9894567362821871e-06 0.0000000000000000e+00  2.2801077458429358e-04 -7.8675326108329984e-06 0.0000000000000000e+00  2.7361277422719425e-04 -1.0303213172426318e-05 0.0000000000000000e+00  3.2645101844155596e-04 -1.3400348376493389e-05 0.0000000000000000e+00  3.8618224326746579e-04 -1.7220087485094203e-05 0.0000000000000000e+00  4.5056134424390696e-04 -2.1739690302154156e-05 0.0000000000000000e+00  0.0000000000000000e+00 0.0000000000000000e+00 0.0000000000000000e+00  1.0902213038355139e-05 -2.0264594564031872e-07 0.0000000000000000e+00  2.2206494754713029e-05 -4.1717020826059872e-07 0.0000000000000000e+00  3.4329397049485198e-05 -6.5652036702157251e-07 0.0000000000000000e+00  4.7713562802371176e-05 -9.3585965920862432e-07 0.0000000000000000e+00  6.2841059338429288e-05 -1.2739715277432665e-06 0.0000000000000000e+00  8.0246706733095051e-05 -1.6950369443614087e-06 0.0000000000000000e+00  1.0053095002266179e-04 -2.2309268387752349e-06 0.0000000000000000e+00  1.2437121478350169e-04 -2.9241334064290344e-06 0.0000000000000000e+00  1.5252952278229764e-04 -3.8313753576915920e-06 0.0000000000000000e+00  1.8585188781445266e-04 -5.0276683367052638e-06 0.0000000000000000e+00  2.2525063312750656e-04 -6.6101093394055930e-06 0.0000000000000000e+00  2.7165260600769812e-04 -8.6995926876835632e-06 0.0000000000000000e+00  3.2588276541814466e-04 -1.1437041342532077e-05 0.0000000000000000e+00  3.8843702168973838e-04 -1.4968792027069921e-05 0.0000000000000000e+00  4.5910452346955845e-04 -1.9414227650255174e-05 0.0000000000000000e+00  5.3650684591385282e-04 -2.4804825524287257e-05 0.0000000000000000e+00  0.0000000000000000e+00 0.0000000000000000e+00 0.0000000000000000e+00  1.2178202223850478e-05 -2.1392197131862767e-07 0.0000000000000000e+00  2.4812718924198241e-05 -4.3956222187650325e-07 0.0000000000000000e+00  3.8376670548719232e-05 -6.8966130066753010e-07 0.0000000000000000e+00  5.3374584933821453e-05 -9.7911498019554073e-07 0.0000000000000000e+00  7.0358603767153142e-05 -1.3263864819000143e-06 0.0000000000000000e+00  8.9944892899375319e-05 -1.7553623216791764e-06 0.0000000000000000e+00  1.1282974197224696e-04 -2.2978646172665104e-06 0.0000000000000000e+00  1.3980408195540220e-04 -2.9970700232470811e-06 0.0000000000000000e+00  1.7176381647669592e-04 -3.9120870580234565e-06 0.0000000000000000e+00  2.0971109373431402e-04 -5.1238369941195114e-06 0.0000000000000000e+00  2.5473799817797045e-04 -6.7420295749753795e-06 0.0000000000000000e+00  3.0797892062931555e-04 -8.9121964330259362e-06 0.0000000000000000e+00  3.7051229941515584e-04 -1.1820157539619537e-05 0.0000000000000000e+00  4.4319220395594482e-04 -1.5688791631117080e-05 0.0000000000000000e+00  5.2641071908164270e-04 -2.0759074634617567e-05 0.0000000000000000e+00  6.1985821336696498e-04 -2.7247093402942395e-05 0.0000000000000000e+00  0.0000000000000000e+00 0.0000000000000000e+00 0.0000000000000000e+00  1.3001723293816547e-05 -2.1358597712958232e-07 0.0000000000000000e+00  2.6499265374251563e-05 -4.3773947462807096e-07 0.0000000000000000e+00  4.1007286701834984e-05 -6.8387846129115851e-07 0.0000000000000000e+00  5.7077101656458210e-05 -9.6525651605464688e-07 0.0000000000000000e+00  7.5316001695651684e-05 -1.2982192338596124e-06 0.0000000000000000e+00  9.6407446670270121e-05 -1.7039406896877330e-06 0.0000000000000000e+00  1.2113189382128150e-04 -2.2109299389624525e-06 0.0000000000000000e+00  1.5038735515869033e-04 -2.8587258709877119e-06 0.0000000000000000e+00  1.8520760661578907e-04 -3.7033661238053683e-06 0.0000000000000000e+00  2.2677409045661123e-04 -4.8253895933549647e-06 0.0000000000000000e+00  2.7641480114986303e-04 -6.3411997511957679e-06 0.0000000000000000e+00  3.3558009086934653e-04 -8.4182873426699772e-06 0.0000000000000000e+00  4.0578286052975188e-04 -1.1293459739305568e-05 0.0000000000000000e+00  4.8849297882043528e-04 -1.5289718923076160e-05 0.0000000000000000e+00  5.8498972741862995e-04 -2.0820159056696776e-05 0.0000000000000000e+00  6.9620446842018357e-04 -2.8354434200856307e-05 0.0000000000000000e+00  0.0000000000000000e+00 0.0000000000000000e+00 0.0000000000000000e+00  1.3333883801017116e-05 -2.0279265603667770e-07 0.0000000000000000e+00  2.7185832778212619e-05 -4.1416796853389995e-07 0.0000000000000000e+00  4.2094365190555463e-05 -6.4326607912694221e-07 0.0000000000000000e+00  5.8639428739915436e-05 -9.0047718585061508e-07 0.0000000000000000e+00  7.7464861871003144e-05 -1.1983486910542509e-06 0.0000000000000000e+00  9.9302812835235432e-05 -1.5529281634624399e-06 0.0000000000000000e+00  1.2500049519082427e-04 -1.9858734660597074e-06 0.0000000000000000e+00  1.5554924427104910e-04 -2.5278870918444502e-06 0.0000000000000000e+00  1.9211506956782830e-04 -3.2244052847882176e-06 0.0000000000000000e+00  2.3606858461193235e-04 -4.1450534588847021e-06 0.0000000000000000e+00  2.8901018072151075e-04 -5.3991853734020807e-06 0.0000000000000000e+00  3.5278368826269842e-04 -7.1606730504848901e-06 0.0000000000000000e+00  4.2946937871679184e-04 -9.7052352371578315e-06 0.0000000000000000e+00  5.2134732439994855e-04 -1.3460879905292811e-05 0.0000000000000000e+00  6.3082868964655443e-04 -1.9062303280285490e-05 0.0000000000000000e+00  7.6036639852039643e-04 -2.7378185099886764e-05 0.0000000000000000e+00  0.0000000000000000e+00 0.0000000000000000e+00 0.0000000000000000e+00  1.3153211939373243e-05 -1.8352528346664704e-07 0.0000000000000000e+00  2.6827236620606734e-05 -3.7309157235918072e-07 0.0000000000000000e+00  4.1564324657309063e-05 -5.7490954759248864e-07 0.0000000000000000e+00  5.7951839069433916e-05 -7.9563031935165031e-07 0.0000000000000000e+00  7.6647459365389138e-05 -1.0427110809587290e-06 0.0000000000000000e+00  9.8407707085150530e-05 -1.3250495120710651e-06 0.0000000000000000e+00  1.2412102573475573e-04 -1.6541711297787623e-06 0.0000000000000000e+00  1.5484666433740680e-04 -2.0465314997422785e-06 0.0000000000000000e+00  1.9186047115721095e-04 -2.5280292521304532e-06 0.0000000000000000e+00  2.3670821726955296e-04 -3.1428239519567474e-06 0.0000000000000000e+00  2.9126594948392082e-04 -3.9703337677711669e-06 0.0000000000000000e+00  3.5780476007194308e-04 -5.1572022806136162e-06 0.0000000000000000e+00  4.3905409183994919e-04 -6.9749767733839834e-06 0.0000000000000000e+00  5.3825425156450756e-04 -9.9171089391557666e-06 0.0000000000000000e+00  6.5918981613979173e-04 -1.4843103640820628e-05 0.0000000000000000e+00  8.0621291392702244e-04 -2.3148515990160548e-05 0.0000000000000000e+00  0.0000000000000000e+00 0.0000000000000000e+00 0.0000000000000000e+00  1.2457801472739355e-05 -1.5831797373472462e-07 0.0000000000000000e+00  2.5417992594452016e-05 -3.1995276713586910e-07 0.0000000000000000e+00  3.9404523632817266e-05 -4.8796218720673711e-07 0.0000000000000000e+00  5.4988295800683111e-05 -6.6491806240216136e-07 0.0000000000000000e+00  7.2814162348310344e-05 -8.5259492387935689e-07 0.0000000000000000e+00  9.3632635548346427e-05 -1.0516268882880951e-06 0.0000000000000000e+00  1.1833849608359067e-04 -1.2612415080468173e-06 0.0000000000000000e+00  1.4801909078473075e-04 -1.4793997338593464e-06 0.0000000000000000e+00  1.8401585296220683e-04 -1.7041803297458900e-06 0.0000000000000000e+00  2.2800338964367600e-04 -1.9383922029315662e-06 0.0000000000000000e+00  2.8209104719954385e-04 -2.2019061267264214e-06 0.0000000000000000e+00  3.4895146354062441e-04 -2.5614870947003145e-06 0.0000000000000000e+00  4.3197783853746348e-04 -3.1982939337428096e-06 0.0000000000000000e+00  5.3546474865954672e-04 -4.5504861829807057e-06 0.0000000000000000e+00  6.6479845113089921e-04 -7.5848809025975330e-06 0.0000000000000000e+00  8.2665936502074767e-04 -1.4222032141905484e-05 0.0000000000000000e+00  0.0000000000000000e+00 0.0000000000000000e+00 0.0000000000000000e+00  1.1266863776402745e-05 -1.2988294621871710e-07 0.0000000000000000e+00  2.2995767623474079e-05 -2.6059509075732186e-07 0.0000000000000000e+00  3.5669356113592262e-05 -3.9231546889948989e-07 0.0000000000000000e+00  4.9816484979729287e-05 -5.2386474811509102e-07 0.0000000000000000e+00  6.6039492686228318e-05 -6.5170529897374865e-07 0.0000000000000000e+00  8.5047259368131818e-05 -7.6852292891704910e-07 0.0000000000000000e+00  1.0769712229911391e-04 -8.6120387526049872e-07 0.0000000000000000e+00  1.3504994860279727e-04 -9.0803609657502409e-07 0.0000000000000000e+00  1.6844452409028768e-04 -8.7513343639292498e-07 0.0000000000000000e+00  2.0960010569595703e-04 -7.1272648959600131e-07 0.0000000000000000e+00  2.6075962957827119e-04 -3.5397388241207675e-07 0.0000000000000000e+00  3.2489039595000091e-04 2.7525917837563473e-07 0.0000000000000000e+00  4.0596250138908899e-04 1.2112774327277227e-06 0.0000000000000000e+00  5.0932244023795914e-04 2.3066475597529211e-06 0.0000000000000000e+00  6.4215401694764341e-04 2.8286166239762772e-06 0.0000000000000000e+00  8.1393693514103115e-04 5.4913446600712783e-07 0.0000000000000000e+00  0.0000000000000000e+00 0.0000000000000000e+00 0.0000000000000000e+00  9.6213574406786569e-06 -1.0069442256638363e-07 0.0000000000000000e+00  1.9642970432828208e-05 -2.0035334699878896e-07 0.0000000000000000e+00  3.0483526858700841e-05 -2.9702544962199807e-07 0.0000000000000000e+00  4.2604073770708035e-05 -3.8678584442170075e-07 0.0000000000000000e+00  5.6533559137570122e-05 -4.6220988921945292e-07 0.0000000000000000e+00  7.2900605882199700e-05 -5.1006867295672283e-07 0.0000000000000000e+00  9.2475116798257899e-05 -5.0773006174225414e-07 0.0000000000000000e+00  1.1622508644343976e-04 -4.1745727654498042e-07 0.0000000000000000e+00  1.4539693128794523e-04 -1.7734088226028311e-07 0.0000000000000000e+00  1.8163248213403299e-04 3.1303545629001528e-07 0.0000000000000000e+00  2.2714374063008151e-04 1.2146747368206682e-06 0.0000000000000000e+00  2.8497958974271602e-04 2.7805555613644535e-06 0.0000000000000000e+00  3.5943994880916977e-04 5.3887853176964432e-06 0.0000000000000000e+00  4.5672533586047371e-04 9.5237107998679766e-06 0.0000000000000000e+00  5.8594291560189085e-04 1.5450516725622474e-05 0.0000000000000000e+00  7.6058882718604576e-04 2.1649177268890162e-05 0.0000000000000000e+00  0.0000000000000000e+00 0.0000000000000000e+00 0.0000000000000000e+00  7.5833876839187423e-06 -7.2605559123721110e-08 0.0000000000000000e+00  1.5485783106091998e-05 -1.4319922664617071e-07 0.0000000000000000e+00  2.4041236374600441e-05 -2.0878546397315894e-07 0.0000000000000000e+00  3.3619035135485204e-05 -2.6421333750674841e-07 0.0000000000000000e+00  4.4645299520596290e-05 -3.0045805401270244e-07 0.0000000000000000e+00  5.7630371334951451e-05 -3.0193554548197991e-07 0.0000000000000000e+00  7.3205542820719730e-05 -2.4211729058475424e-07 0.0000000000000000e+00  9.2174660752255118e-05 -7.6164034169618729e-08 0.0000000000000000e+00  1.1558963576667878e-04 2.7175307472115407e-07 0.0000000000000000e+00  1.4486514550112362e-04 9.3085005627395019e-07 0.0000000000000000e+00  1.8195940908489043e-04 2.1245259966357423e-06 0.0000000000000000e+00  2.2967046696447061e-04 4.2474234683142909e-06 0.0000000000000000e+00  2.9214459777300984e-04 8.0166056430102464e-06 0.0000000000000000e+00  3.7579987804698111e-04 1.4771746059386986e-05 0.0000000000000000e+00  4.9107897382801534e-04 2.6977175338272238e-05 0.0000000000000000e+00  6.5480795566896137e-04 4.7536310345539964e-05 0.0000000000000000e+00  0.0000000000000000e+00 0.0000000000000000e+00 0.0000000000000000e+00  5.2341679525183084e-06 -4.6585168716329077e-08 0.0000000000000000e+00  1.0690140379985113e-05 -9.1141267510588586e-08 0.0000000000000000e+00  1.6600323152136547e-05 -1.3081511040470199e-07 0.0000000000000000e+00  2.3222305201217887e-05 -1.6092994814945613e-07 0.0000000000000000e+00  3.0854449860041613e-05 -1.7350437401744138e-07 0.0000000000000000e+00  3.9855912320628681e-05 -1.5489265491022941e-07 0.0000000000000000e+00  5.0673885136761149e-05 -8.1840757196051616e-08 0.0000000000000000e+00  6.3882560928858710e-05 8.5325131033803924e-08 0.0000000000000000e+00  8.0241361406739760e-05 4.1481512711592044e-07 0.0000000000000000e+00  1.0078568859516160e-04 1.0256414675443654e-06 0.0000000000000000e+00  1.2697456067900070e-04 2.1302419551185327e-06 0.0000000000000000e+00  1.6094271956538234e-04 4.1209839356032398e-06 0.0000000000000000e+00  2.0596117047805249e-04 7.7632648416270243e-06 0.0000000000000000e+00  2.6739457731602637e-04 1.4704251667920497e-05 0.0000000000000000e+00  3.5535812622197185e-04 2.9229139993420205e-05 0.0000000000000000e+00  4.9703621145473378e-04 6.7190698962231517e-05 0.0000000000000000e+00  0.0000000000000000e+00 0.0000000000000000e+00 0.0000000000000000e+00  2.6705072432691720e-06 -2.2646639443553923e-08 0.0000000000000000e+00  5.4545344797014554e-06 -4.4051763318975108e-08 0.0000000000000000e+00  8.4710410480227086e-06 -6.2506408788870214e-08 0.0000000000000000e+00  1.1852019930426005e-05 -7.5262250619714288e-08 0.0000000000000000e+00  1.5750597289672383e-05 -7.7680280697259603e-08 0.0000000000000000e+00  2.0351479340402889e-05 -6.1863470336259547e-08 0.0000000000000000e+00  2.5885247766309219e-05 -1.4352245605285719e-08 0.0000000000000000e+00  3.2648924142245669e-05 8.7883730179210051e-08 0.0000000000000000e+00  4.1036888600821510e-05 2.8459046147805689e-07 0.0000000000000000e+00  5.1589275056070263e-05 6.4520765883029644e-07 0.0000000000000000e+00  6.5070362981930048e-05 1.2925817000576730e-06 0.0000000000000000e+00  8.2597533423691118e-05 2.4449398982675436e-06 0.0000000000000000e+00  1.0584202416647642e-04 4.4787159847926733e-06 0.0000000000000000e+00  1.3723057427550246e-04 7.9469776072508091e-06 0.0000000000000000e+00  1.7934662215863241e-04 1.3040608850879905e-05 0.0000000000000000e+00  2.2890784808691161e-04 1.5967170233172849e-05 0.0000000000000000e+00  0.0000000000000000e+00 0.0000000000000000e+00 0.0000000000000000e+00  0.0000000000000000e+00 0.0000000000000000e+00 0.0000000000000000e+00  0.0000000000000000e+00 0.0000000000000000e+00 0.0000000000000000e+00  0.0000000000000000e+00 0.0000000000000000e+00 0.0000000000000000e+00  0.0000000000000000e+00 0.0000000000000000e+00 0.0000000000000000e+00  0.0000000000000000e+00 0.0000000000000000e+00 0.0000000000000000e+00  0.0000000000000000e+00 0.0000000000000000e+00 0.0000000000000000e+00  0.0000000000000000e+00 0.0000000000000000e+00 0.0000000000000000e+00  0.0000000000000000e+00 0.0000000000000000e+00 0.0000000000000000e+00  0.0000000000000000e+