<?xml version="1.0"?>
<VTKFile type="UnstructuredGrid"  version="0.1"  >
<UnstructuredGrid>
<Piece  NumberOfPoints="289" NumberOfCells="512">
<Points>
<DataArray  type="Float64"  NumberOfComponents="3"  format="ascii">0 0 0  0.0625 0 0  0.125 0 0  0.1875 0 0  0.25 0 0  0.3125 0 0  0.375 0 0  0.4375 0 0  0.5 0 0  0.5625 0 0  0.625 0 0  0.6875 0 0  0.75 0 0  0.8125 0 0  0.875 0 0  0.9375 0 0  1 0 0  0 0.0625 0  0.06243859680979572 0.06249366652095159 0  0.1248756007838947 0.06248723842498521 0  0.1873094406564166 0.06248063467753668 0  0.249738620279519 0.06247380442575576 0  0.3121617804934591 0.062466746489076 0  0.3745777916336041 0.06245953370457046 0  0.4369858879812827 0.06245234265559675 0  0.4993858555421506 0.06244548769063801 0  0.5617782835878492 0.06243945532382825 0  0.6241648874328752 0.06243493117026324 0  0.686548900861109 0.06243280918061964 0  0.7489354976200483 0.06243418668451755 0  0.8113319924724341 0.06244044762359268 0  0.8737463920284112 0.06245405262743503 0  0.9361761461122093 0.06248334511376586 0  0.9985399527496663 0.06257111201261867 0  0 0.125 0  0.06237882623944587 0.1249874289210541 0  0.124754442606837 0.1249746544097575 0  0.1871236761051306 0.1249614983983673 0  0.2494834892308656 0.1249478396179699 0  0.311831097202102 0.1249336511919993 0  0.3741641484455971 0.1249190487312916 0  0.436480993406853 0.1249043507965855 0  0.4987810689774924 0.1248901507688147 0  0.5610654276684651 0.1248773936045774 0  0.6233374426938247 0.1248674410271258 0  0.6856037245025015 0.124862092276417 0  0.7478752929859751 0.1248635004674062 0  0.8101690569963699 0.1248738664395301 0  0.8725096853677755 0.1248945601427158 0  0.9349328949430977 0.1249229096575777 0  0.9975032754986151 0.1249352114597713 0  0 0.1875 0  0.06232232457046943 0.1874813966125475 0  0.124639772162629 0.1874624544426149 0  0.1869475028304067 0.1874428681824449 0  0.2492408369192072 0.187422408558013 0  0.3115154089454303 0.1874009748823746 0  0.3737674172033087 0.187378665040155 0  0.4359940093087688 0.1873558677067846 0  0.4981938487736017 0.1873333788402509 0  0.5603679106795767 0.1873125380386649 0  0.6225205530173092 0.1872953672503252 0  0.6846608998879578 0.187284669735631 0  0.746804543268352 0.1872840025465503 0  0.8089754963785148 0.187297352191493 0  0.871208183637492 0.1873281747528893 0  0.9335491662406149 0.1873771745673558 0  0.9960589151892539 0.1874388469521348 0  0 0.25 0  0.06227077855961823 0.2499757054887231 0  0.1245349548120951 0.2499509017478888 0  0.1867859399942403 0.2499251154629439 0  0.2490172747230837 0.2498979569208743 0  0.3112227881878158 0.2498691818414329 0  0.3733968824916436 0.2498387785510095 0  0.4355349984855977 0.2498070901642931 0  0.4976343282962103 0.2497749806643359 0  0.5596948439623635 0.2497440496246221 0  0.6217207025140413 0.2497168891618695 0  0.6837220494368575 0.2496973526102857 0  0.7457171460743321 0.2496907587123071 0  0.8077345460485866 0.2497038781868318 0  0.8698146930649537 0.2497444438358292 0  0.9320098446040699 0.2498198718413372 0  0.9943808561735473 0.2499352585925967 0  0 0.3125 0  0.0622259286351718 0.3124705264520006 0  0.1244434905116628 0.3124403353965733 0  0.1866442781429999 0.3124087400635422 0  0.2488199094899652 0.3123751287386213 0  0.3109621489402813 0.3123390268592217 0  0.3730631758676278 0.3123001919363467 0  0.4351160742179848 0.3122587572614828 0  0.4971156335227493 0.3122154437244732 0  0.5590595638035297 0.3121718609747031 0  0.6209502202641592 0.312130915888972 0  0.6827968830420252 0.3120973306037908 0  0.7446185026496133 0.3120782319239169 0  0.8064465578623781 0.3120836925579973 0  0.8683272787204158 0.3121269745214478 0  0.9303221405406013 0.3122240864558963 0  0.9925057925212124 0.312392260526226 0  0 0.375 0  0.06218954516305392 0.3749660680910629 0  0.1243689742485 0.374931177670804 0  0.1865280409446884 0.374894386689914 0  0.2486563358374191 0.3748547997836487 0  0.3107433150182138 0.374811618006002 0  0.3727784856843941 0.374764225910812 0  0.4347518389015499 0.374712338172815 0  0.4966546514470102 0.3746562372401462 0  0.5584808117680935 0.3745971452734191 0  0.6202288443589072 0.3745377853516762 0  0.6819047803496036 0.3744831908496782 0  0.743525895437032 0.3744417994920015 0  0.8051250420309224 0.3744267837155382 0  0.8667548142316325 0.3744573675335167 0  0.9284902413221388 0.3745595183279907 0  0.9904285085772802 0.3747649277965949 0  0 0.4375 0  0.06216337116196725 0.4374625714992547 0  0.1243149862475582 0.4374239252359769 0  0.1864428341963927 0.4373828361535219 0  0.2485344657656016 0.4373380761443536 0  0.3105768685520729 0.4372884359920061 0  0.3725564866083467 0.4372327829660763 0  0.4344594865036723 0.4371701799222343 0  0.4962724250813164 0.4371001075015752 0  0.5579835450148594 0.4370228553061565 0  0.6195850031668574 0.4369401823121887 0  0.6810763916769821 0.4368563878030196 0  0.7424698680417341 0.4367799626171763 0  0.8037969341616942 0.4367259501185372 0  0.8651162277935408 0.4367189140565904 0  0.9265205645137999 0.4367958002108712 0  0.9881402902835418 0.4370069006888567 0  0 0.5 0  0.06214902772489414 0.4999602957204112 0  0.1242849025338851 0.4999191204469707 0  0.1863940630629489 0.4998749640555091 0  0.2484621609141323 0.4998262445920452 0  0.3104737210422203 0.4997712865529522 0  0.372411901847464 0.4997083238968075 0  0.4342584543655648 0.4996355515216563 0  0.4959940572866677 0.499551269019626 0  0.5575993265722149 0.4994541961635525 0  0.6190569752440072 0.4993441003928304 0  0.680355818655887 0.4992229732270449 0  0.7414975046251285 0.4990971250273253 0  0.8025067668361233 0.4989806865836224 0  0.8634451808256218 0.4989009205041952 0  0.9244262368513585 0.498904985910082 0  0.9856262173187696 0.4990656920707076 0  0 0.5625 0  0.06214788292906016 0.5624594934444841 0  0.1242816252007135 0.5624173013233366 0  0.1863865105725947 0.5623716626962575 0  0.2484466456558163 0.5623206644975984 0  0.3104443572807438 0.5622621638589708 0  0.3723596031680569 0.5621937137796329 0  0.4341694659952703 0.5621125051713071 0  0.4958478931023303 0.5620153567967771 0  0.5573660148458354 0.5618988229519908 0  0.6186936737229339 0.5617595666967853 0  0.6798032771422153 0.5615952999536282 0  0.7406777452309337 0.561406875498887 0  0.8013249145782783 0.5612025728113806 0  0.8618003748881456 0.561006121115129 0  0.9222372820906355 0.5608697521929905 0  0.9828726964690032 0.5608903721963682 0  0 0.625 0  0.06216089151902533 0.6249603784086101 0  0.1243072449928058 0.6249189325999281 0  0.1864237904051443 0.6248737282277074 0  0.2484937044220545 0.6248225999421678 0  0.310497727147549 0.6247630140551402 0  0.3724131634972206 0.6246919050179088 0  0.4342127712672432 0.6246054790244753 0  0.4958636175303324 0.624498985701146 0  0.5573261676346677 0.6243664818863726 0  0.6185542626611493 0.624200674327527 0  0.6794974235160255 0.6239930902398172 0  0.7401083396119923 0.6237352233304055 0  0.8003605642725109 0.6234222156608812 0  0.8602834557388985 0.623062437829959 0  0.9200190600238022 0.6226986135803211 0  0.9798890443482575 0.6224438819047061 0  0 0.6875 0  0.06218842099666732 0.6874630882774766 0  0.1243626667863022 0.6874243254412001 0  0.1865077167525525 0.687381724257961 0  0.2486067100308893 0.6873330056576075 0  0.3106398159030654 0.6872754110366005 0  0.3725828336328363 0.6872054575435248 0  0.4344054152569067 0.6871186051808483 0  0.4960688255226878 0.687008792818501 0  0.55752326195567 0.6868677864986836 0  0.6187051022606543 0.6866842787306155 0  0.6795353625776768 0.6864427280956645 0  0.739922842151252 0.686122201138084 0  0.7997801263811374 0.6856965179088783 0  0.8590689329218896 0.6851403859532711 0  0.9178991105760731 0.6844552210279637 0  0.9766866408510319 0.6837382294128671 0  0 0.75 0  0.06223008891239294 0.7499676490356166 0  0.1244472495092676 0.7499335587522149 0  0.186637672212303 0.7498958434597706 0  0.2487855933092895 0.7498522993131617 0  0.3108720216632118 0.7498001899255679 0  0.3728730512337662 0.7497359529800139 0  0.434757524088411 0.7496547767957973 0  0.4964837209867542 0.7495499644900225 0  0.5579946719465462 0.7494119457347688 0  0.6192117068279169 0.7492266883694064 0  0.6800263699478115 0.7489730659628063 0  0.740292888911929 0.7486184356314811 0  0.7998299953286935 0.748111550268272 0  0.8584592584050321 0.7473740491448992 0  0.9161481848037201 0.7463079612484255 0  0.9733336694102855 0.7449315836330118 0  0 0.8125 0  0.06228464381635691 0.8124739483083124 0  0.124558531205072 0.8124464186343492 0  0.1868100940889195 0.8124157967096457 0  0.2490259399636982 0.8123801695217816 0  0.3111896065447253 0.8123371186206847 0  0.3732798259830421 0.8122834303752109 0  0.4352679631670218 0.8122146672811683 0  0.4971140818457174 0.8121245072951644 0  0.5587607358659589 0.8120036846379939 0  0.6201230182682006 0.8118382057079636 0  0.6810726593178871 0.8116061285454005 0  0.7414136432183857 0.8112711868758463 0  0.8008500288386814 0.8107688078722362 0  0.8589669902844123 0.8099727854949128 0  0.9153431482452673 0.8086127953940957 0  0.9704095120043128 0.8060772785211794 0  0 0.875 0  0.06234992496791275 0.8749817247117752 0  0.1246921191011238 0.8749623723229082 0  0.1870182250999209 0.8749407604206093 0  0.2493184640724834 0.874915474683059 0  0.3115806318762106 0.874884706497395 0  0.3737886487579197 0.8748460238415317 0  0.4359203195090905 0.8747960327743348 0  0.4979436896063948 0.8747298642683197 0  0.5598108417542402 0.8746403853783488 0  0.6214468734613097 0.8745169736696133 0  0.6827294993208516 0.8743435612391762 0  0.7434499236779007 0.8740952042320069 0  0.8032359198256965 0.8737304736996344 0  0.8614006632726184 0.8731682255554643 0  0.9166631481702986 0.8722001789932817 0  0.9667565541244597 0.8701287848867849 0  0 0.9375 0  0.06242292968397727 0.9374905779157764 0  0.1248418138651543 0.9374805876959724 0  0.1872522653011765 0.9374694038160911 0  0.2496491169465353 0.9374562741262805 0  0.3120258602506766 0.9374402309176876 0  0.3743738158173983 0.9374199658957378 0  0.4366808171453452 
[...]
<PointData  Vectors="f_54"> 
<DataArray  type="Float64"  Name="f_54"  NumberOfComponents="3" format="ascii">0.0000000000000000e+00 0.0000000000000000e+00 0.0000000000000000e+00  0.0000000000000000e+00 0.0000000000000000e+00 0.0000000000000000e+00  0.0000000000000000e+00 0.0000000000000000e+00 0.0000000000000000e+00  0.0000000000000000e+00 0.0000000000000000e+00 0.0000000000000000e+00  0.0000000000000000e+00 0.0000000000000000e+00 0.0000000000000000e+00  0.0000000000000000e+00 0.0000000000000000e+00 0.0000000000000000e+00  0.0000000000000000e+00 0.0000000000000000e+00 0.0000000000000000e+00  0.0000000000000000e+00 0.0000000000000000e+00 0.0000000000000000e+00  0.0000000000000000e+00 0.0000000000000000e+00 0.0000000000000000e+00  0.0000000000000000e+00 0.0000000000000000e+00 0.0000000000000000e+00  0.0000000000000000e+00 0.0000000000000000e+00 0.0000000000000000e+00  0.0000000000000000e+00 0.0000000000000000e+00 0.0000000000000000e+00  0.0000000000000000e+00 0.0000000000000000e+00 0.0000000000000000e+00  0.0000000000000000e+00 0.0000000000000000e+00 0.0000000000000000e+00  0.0000000000000000e+00 0.0000000000000000e+00 0.0000000000000000e+00  0.0000000000000000e+00 0.0000000000000000e+00 0.0000000000000000e+00  0.0000000000000000e+00 0.0000000000000000e+00 0.0000000000000000e+00  0.0000000000000000e+00 0.0000000000000000e+00 0.0000000000000000e+00  1.0043040885505287e-07 -4.4357893447070928e-09 0.0000000000000000e+00  1.9102336650213654e-07 -9.0847301836023338e-09 0.0000000000000000e+00  2.5992004890636081e-07 -1.4175657997958900e-08 0.0000000000000000e+00  2.9093396609407101e-07 -1.9967914319747512e-08 0.0000000000000000e+00  2.6077041101332984e-07 -2.6767060463130408e-08 0.0000000000000000e+00  1.3542173845088269e-07 -3.4938412192169485e-08 0.0000000000000000e+00  -1.3472982235859138e-07 -4.4911244827348592e-08 0.0000000000000000e+00  -6.2190895179469901e-07 -5.7155607957951412e-08 0.0000000000000000e+00  -1.4317005760267181e-06 -7.2087129318772876e-08 0.0000000000000000e+00  -2.7214665087211373e-06 -8.9782098473991644e-08 0.0000000000000000e+00  -4.7366166746663615e-06 -1.0915160338572226e-07 0.0000000000000000e+00  -7.8936021884346058e-06 -1.2537227046628131e-07 0.0000000000000000e+00  -1.2998175060618879e-05 -1.2096059212080810e-07 0.0000000000000000e+00  -2.1893715320555578e-05 -3.1319951816917908e-08 0.0000000000000000e+00  -3.9601844648227414e-05 3.9919348269247203e-07 0.0000000000000000e+00  -8.2007566932831155e-05 2.2465013073242508e-06 0.0000000000000000e+00  0.0000000000000000e+00 0.0000000000000000e+00 0.0000000000000000e+00  2.1049723452668084e-07 -8.6485626031640185e-09 0.0000000000000000e+00  4.0341675746364994e-07 -1.7706955139788706e-08 0.0000000000000000e+00  5.5740343643592955e-07 -2.7615524286061252e-08 0.0000000000000000e+00  6.4300333566247088e-07 -3.8874890046585879e-08 0.0000000000000000e+00  6.1747399606101795e-07 -5.2079403018586377e-08 0.0000000000000000e+00  4.1811193499338097e-07 -6.7950993341405826e-08 0.0000000000000000e+00  -4.6634169631908453e-08 -8.7365355628448795e-08 0.0000000000000000e+00  -9.0935802509631349e-07 -1.1135025791452165e-07 0.0000000000000000e+00  -2.3611053214256797e-06 -1.4101350010367922e-07 0.0000000000000000e+00  -4.6777895290942789e-06 -1.7732399017741279e-07 0.0000000000000000e+00  -8.2637197695500397e-06 -2.2064753380012795e-07 0.0000000000000000e+00  -1.3729626477629266e-05 -2.7011234016341494e-07 0.0000000000000000e+00  -2.2038947831300579e-05 -3.2432043728654646e-07 0.0000000000000000e+00  -3.4763695339057199e-05 -3.9353324283932162e-07 0.0000000000000000e+00  -5.4339800228816936e-05 -5.8115262860848776e-07 0.0000000000000000e+00  -8.2947813298979924e-05 -1.5513623331395979e-06 0.0000000000000000e+00  0.0000000000000000e+00 0.0000000000000000e+00 0.0000000000000000e+00  3.3793680761546794e-07 -1.2440860309919410e-08 0.0000000000000000e+00  6.5442509666669150e-07 -2.5457586410655465e-08 0.0000000000000000e+00  9.2295218509724592e-07 -3.9669223944715398e-08 0.0000000000000000e+00  1.1061075431519840e-06 -5.5781896090749187e-08 0.0000000000000000e+00  1.1485863408529466e-06 -7.4641633045756064e-08 0.0000000000000000e+00  9.6823951701561292e-07 -9.7296062087406230e-08 0.0000000000000000e+00  4.4436994681109209e-07 -1.2506209443498560e-07 0.0000000000000000e+00  -5.9766082604788256e-07 -1.5958733103565148e-07 0.0000000000000000e+00  -2.4066430477764890e-06 -2.0287647506793366e-07 0.0000000000000000e+00  -5.3319206552701864e-06 -2.5723406189894023e-07 0.0000000000000000e+00  -9.8574174263372929e-06 -3.2507819075490350e-07 0.0000000000000000e+00  -1.6643144420932129e-05 -4.0870232704208925e-07 0.0000000000000000e+00  -2.6564673082989872e-05 -5.1051265706746373e-07 0.0000000000000000e+00  -4.0702387864906789e-05 -6.3485105676096399e-07 0.0000000000000000e+00  -6.0106111101346097e-05 -7.8683890924461193e-07 0.0000000000000000e+00  -8.4885099620773678e-05 -8.9523140354030909e-07 0.0000000000000000e+00  0.0000000000000000e+00 0.0000000000000000e+00 0.0000000000000000e+00  4.8661391198961526e-07 -1.5646033236035654e-08 0.0000000000000000e+00  9.5308304415671903e-07 -3.1991109612800839e-08 0.0000000000000000e+00  1.3735405029617394e-06 -4.9785694634776597e-08 0.0000000000000000e+00  1.7097137033082590e-06 -6.9886321683863770e-08 0.0000000000000000e+00  1.9028607846052030e-06 -9.3325766333253569e-08 0.0000000000000000e+00  1.8633924850120198e-06 -1.2140476167550573e-07 0.0000000000000000e+00  1.4573478234310468e-06 -1.5581239641431447e-07 0.0000000000000000e+00  4.8898595080770421e-07 -1.9877768226970476e-07 0.0000000000000000e+00  -1.3208578816802099e-06 -2.5324075834687789e-07 0.0000000000000000e+00  -4.3599506347663252e-06 -3.2299995822761043e-07 0.0000000000000000e+00  -9.1501148553061881e-06 -4.1272672799157425e-07 0.0000000000000000e+00  -1.6363733557030609e-05 -5.2761579611046586e-07 0.0000000000000000e+00  -2.6808548860970519e-05 -6.7214558672325578e-07 0.0000000000000000e+00  -4.1329311972923410e-05 -8.4648827600697182e-07 0.0000000000000000e+00  -6.0525073926636325e-05 -1.0359904173925174e-06 0.0000000000000000e+00  -8.4142921669444116e-05 -1.1837990510743998e-06 0.0000000000000000e+00  0.0000000000000000e+00 0.0000000000000000e+00 0.0000000000000000e+00  6.5519925970681919e-07 -1.8140654782544417e-08 0.0000000000000000e+00  1.2974090535836438e-06 -3.7052599743946466e-08 0.0000000000000000e+00  1.9080065416349008e-06 -5.7559670509626175e-08 0.0000000000000000e+00  2.4559901725494103e-06 -8.0596479282846317e-08 0.0000000000000000e+00  2.8896894844439922e-06 -1.0728771379271641e-07 0.0000000000000000e+00  3.1258297850981620e-06 -1.3906195658798984e-07 0.0000000000000000e+00  3.0349728983270596e-06 -1.7782092226347664e-07 0.0000000000000000e+00  2.4224859273694630e-06 -2.2619029283357811e-07 0.0000000000000000e+00  1.0047424569727542e-06 -2.8787558989920726e-07 0.0000000000000000e+00  -1.6182883639586654e-06 -3.6811660679791204e-07 0.0000000000000000e+00  -5.9897312248439118e-06 -4.7413391014495700e-07 0.0000000000000000e+00  -1.2811255309573182e-05 -6.1520634813148546e-07 0.0000000000000000e+00  -2.2926117488565176e-05 -8.0147202272367342e-07 0.0000000000000000e+00  -3.7233653061947619e-05 -1.0395906402556950e-06 0.0000000000000000e+00  -5.6488016763701509e-05 -1.3225098094973972e-06 0.0000000000000000e+00  -8.0959764755792298e-05 -1.6134901003466861e-06 0.0000000000000000e+00  0.0000000000000000e+00 0.0000000000000000e+00 0.0000000000000000e+00  8.3647876168084497e-07 -1.9852737470299197e-08 0.0000000000000000e+00  1.6729006384177447e-06 -4.0496844007198455e-08 0.0000000000000000e+00  2.5044897198756250e-06 -6.2768204555561640e-08 0.0000000000000000e+00  3.3158408109644246e-06 -8.7598245465208259e-08 0.0000000000000000e+00  4.0733671405376945e-06 -1.1608694145005225e-07 0.0000000000000000e+00  4.7148163520025133e-06 -1.4961707033591143e-07 0.0000000000000000e+00  5.1345622403001200e-06 -1.9004457068693338e-07 0.0000000000000000e+00  5.1632823702870802e-06 -2.4002211222359059e-07 0.0000000000000000e+00  4.5408543809269981e-06 -3.0354017020504991e-07 0.0000000000000000e+00  2.8822924674457128e-06 -3.8678499553900686e-07 0.0000000000000000e+00  -3.6095094880847152e-07 -4.9936289680770565e-07 0.0000000000000000e+00  -5.9369476503722563e-06 -6.5569841380148183e-07 0.0000000000000000e+00  -1.4810739942938993e-05 -8.7573940683310375e-07 0.0000000000000000e+00  -2.8136790736908755e-05 -1.1826673094848705e-06 0.0000000000000000e+00  -4.7153712747958439e-05 -1.5929282432160610e-06 0.0000000000000000e+00  -7.2983442737317757e-05 -2.0906204681718762e-06 0.0000000000000000e+00  0.0000000000000000e+00 0.0000000000000000e+00 0.0000000000000000e+00  1.0174225881655166e-06 -2.0763002859686487e-08 0.0000000000000000e+00  2.0525846618098111e-06 -4.2292959108347204e-08 0.0000000000000000e+00  3.1202732947149470e-06 -6.5384326927985080e-08 0.0000000000000000e+00  4.2282258807402580e-06 -9.0890686314006736e-08 0.0000000000000000e+00  5.3714367565288991e-06 -1.1977081793930889e-07 0.0000000000000000e+00  6.5234350842126551e-06 -1.5316796009106396e-07 0.0000000000000000e+00  7.6228435119897437e-06 -1.9256284164736542e-07 0.0000000000000000e+00  8.5529653229704392e-06 -2.4008250641654095e-07 0.0000000000000000e+00  9.1115916381336649e-06 -2.9911974642816835e-07 0.0000000000000000e+00  8.9680013705208889e-06 -3.7552868186018907e-07 0.0000000000000000e+00  7.6049624908287084e-06 -4.7978543076734465e-07 0.0000000000000000e+00  4.2467445856238624e-06 -6.3051245482785454e-07 0.0000000000000000e+00  -2.2183751316767517e-06 -8.5929833730258365e-07 0.0000000000000000e+00  -1.3299319749650042e-05 -1.2150540141427702e-06 0.0000000000000000e+00  -3.0908163469090148e-05 -1.7622860622385350e-06 0.0000000000000000e+00  -5.7261584155601908e-05 -2.5618487067909501e-06 0.0000000000000000e+00  0.0000000000000000e+00 0.0000000000000000e+00 0.0000000000000000e+00  1.1801043840315329e-06 -2.0897081322764400e-08 0.0000000000000000e+00  2.3988185421942691e-06 -4.2508701181282403e-08 0.0000000000000000e+00  3.6943571629252793e-06 -6.5554724285742685e-08 0.0000000000000000e+00  5.1032374382256523e-06 -9.0763614856651847e-08 0.0000000000000000e+00  6.6576925598194100e-06 -1.1887240283287901e-07 0.0000000000000000e+00  8.3804039997604722e-06 -1.5063023076470821e-07 0.0000000000000000e+00  1.0274585786962503e-05 -1.8683152590500411e-07 0.0000000000000000e+00  1.2306305646823093e-05 -2.2845328463154759e-07 0.0000000000000000e+00  1.4374272489488477e-05 -2.7708092451118693e-07 0.0000000000000000e+00  1.6260210917143353e-05 -3.3603392042383973e-07 0.0000000000000000e+00  1.7550887147176572e-05 -4.1301487594823122e-07 0.0000000000000000e+00  1.7522442734537568e-05 -5.2571065191879738e-07 0.0000000000000000e+00  1.4982660237101593e-05 -7.1225134270475443e-07 0.0000000000000000e+00  8.0837920231778744e-06 -1.0475082599280459e-06 0.0000000000000000e+00  -5.8454670981470145e-06 -1.6609495835223763e-06 0.0000000000000000e+00  -3.0352039481012582e-05 -2.7395538005180755e-06 0.0000000000000000e+00  0.0000000000000000e+00 0.0000000000000000e+00 0.0000000000000000e+00  1.3035073684779148e-06 -2.0308731440427738e-08 0.0000000000000000e+00  2.6669551183165426e-06 -4.1273176718580148e-08 0.0000000000000000e+00  4.1530353922366512e-06 -6.3534832189856035e-08 0.0000000000000000e+00  5.8295129781871868e-06 -8.7696503674213786e-08 0.0000000000000000e+00  7.7709646173832931e-06 -1.1426994641770110e-07 0.0000000000000000e+00  1.0058911149678314e-05 -1.4357837772822433e-07 0.0000000000000000e+00  1.2778515016622463e-05 -1.7559649385361333e-07 0.0000000000000000e+00  1.6008374969003794e-05 -2.0973316385740603e-07 0.0000000000000000e+00  1.9797157342612328e-05 -2.4465229835129821e-07 0.0000000000000000e+00  2.4116351235418968e-05 -2.7849601268083635e-07 0.0000000000000000e+00  2.8772033159484549e-05 -3.1055219918983037e-07 0.0000000000000000e+00  3.3251055458508910e-05 -3.4688376632286302e-07 0.0000000000000000e+00  3.6472997728456080e-05 -4.1504493135471202e-07 0.0000000000000000e+00  3.6431391264629458e-05 -5.9580555792030237e-07 0.0000000000000000e+00  2.9761987923689800e-05 -1.0766576762021141e-06 0.0000000000000000e+00  1.1396557791246767e-05 -2.2057380301569345e-06 0.0000000000000000e+00  0.0000000000000000e+00 0.0000000000000000e+00 0.0000000000000000e+00  1.3661608320781976e-06 -1.9057878348469538e-08 0.0000000000000000e+00  2.8108138468332092e-06 -3.8725171041016680e-08 0.0000000000000000e+00  4.4185533017311472e-06 -5.9590003415895464e-08 0.0000000000000000e+00  6.2864539963201635e-06 -8.2181994199081243e-08 0.0000000000000000e+00  8.5310116444677016e-06 -1.0688678971745342e-07 0.0000000000000000e+00  1.1295445792643664e-05 -1.3376695597399962e-07 0.0000000000000000e+00  1.4756394893244976e-05 -1.6220784660101021e-07 0.0000000000000000e+00  1.9127322829012873e-05 -1.9025818752065866e-07 0.0000000000000000e+00  2.4652537428686461e-05 -2.1349588181057129e-07 0.0000000000000000e+00  3.1579246149566967e-05 -2.2332813285133588e-07 0.0000000000000000e+00  4.0083580113641405e-05 -2.0518150765179514e-07 0.0000000000000000e+00  5.0107963992919337e-05 -1.3899481935907094e-07 0.0000000000000000e+00  6.1042235320601685e-05 -9.8867958446493108e-09 0.0000000000000000e+00  7.1162417626462608e-05 1.5108149941632899e-07 0.0000000000000000e+00  7.6778851225380536e-05 1.5988039144747077e-07 0.0000000000000000e+00  7.1237735091949790e-05 -5.1478489816494176e-07 0.0000000000000000e+00  0.0000000000000000e+00 0.0000000000000000e+00 0.0000000000000000e+00  1.3494021889816763e-06 -1.7191355444067705e-08 0.0000000000000000e+00  2.7895976322433134e-06 -3.4964801394611331e-08 0.0000000000000000e+00  4.4204584382843351e-06 -5.3893612137578646e-08 0.0000000000000000e+00  6.3611298229712731e-06 -7.4520331318420706e-08 0.0000000000000000e+00  8.7622588337555864e-06 -9.7286905841745968e-08 0.0000000000000000e+00  1.1821326005596548e-05 -1.2235925691956127e-07 0.0000000000000000e+00  1.5801840256011075e-05 -1.4921817713650152e-07 0.0000000000000000e+00  2.1056172157682054e-05 -1.7574678158002325e-07 0.0000000000000000e+00  2.8049076712167846e-05 -1.9627306689963057e-07 0.0000000000000000e+00  3.7372365919173008e-05 -1.9757486462552229e-07 0.0000000000000000e+00  4.9726567875948954e-05 -1.5134869985411084e-07 0.0000000000000000e+00  6.5815268249470033e-05 -2.0309985060244929e-09 0.0000000000000000e+00  8.6040826746196022e-05 3.4602243121540614e-07 0.0000000000000000e+00  1.0979806208750325e-04 1.0159371350752377e-06 0.0000000000000000e+00  1.3408245306823164e-04 2.0276645478879517e-06 0.0000000000000000e+00  1.5139689193817950e-04 2.8840252414103775e-06 0.0000000000000000e+00  0.0000000000000000e+00 0.0000000000000000e+00 0.0000000000000000e+00  1.2408639854557033e-06 -1.4736324538332262e-08 0.0000000000000000e+00  2.5754616126998261e-06 -3.0033273407084120e-08 0.0000000000000000e+00  4.1085088709592613e-06 -4.6472759679156987e-08 0.0000000000000000e+00  5.9685701331561597e-06 -6.4680728610857147e-08 0.0000000000000000e+00  8.3244228596032123e-06 -8.5334813851430120e-08 0.0000000000000000e+00  1.1407454200437087e-05 -1.0912661381149773e-07 0.0000000000000000e+00  1.5543235332749866e-05 -1.3658262008055053e-07 0.0000000000000000e+00  2.1196143498832590e-05 -1.6747788609129503e-07 0.0000000000000000e+00  2.9030926716658071e-05 -1.9913885805752816e-07 0.0000000000000000e+00  3.9992394369401297e-05 -2.2186016288595534e-07 0.0000000000000000e+00  5.5393657174002245e-05 -2.0722964031537091e-07 0.0000000000000000e+00  7.6971602456536785e-05 -8.0360480903612042e-08 0.0000000000000000e+00  1.0678568909465027e-04 3.3953059342083202e-07 0.0000000000000000e+00  1.4663658792970287e-04 1.4402941182106214e-06 0.0000000000000000e+00  1.9624188124670343e-04 3.8581438717740280e-06 0.0000000000000000e+00  2.4902417863701987e-04 7.4990162327126022e-06 0.0000000000000000e+00  0.0000000000000000e+00 0.0000000000000000e+00 0.0000000000000000e+00  1.0375846267080151e-06 -1.1713520259837024e-08 0.0000000000000000e+00  2.1604606359540318e-06 -2.3941322312278336e-08 0.0000000000000000e+00  3.4650715528436023e-06 -3.7252353878635785e-08 0.0000000000000000e+00  5.0724749844946664e-06 -5.2347815396654356e-08 0.0000000000000000e+00  7.1462208009021819e-06 -7.0180868320477638e-08 0.0000000000000000e+00  9.9183218027773650e-06 -9.2158919245404949e-08 0.0000000000000000e+00  1.3728702767234194e-05 -1.2047994171303149e-07 0.0000000000000000e+00  1.9086541228672285e-05 -1.5863398804352156e-07 0.0000000000000000e+00  2.6766520853121030e-05 -2.1190981828336410e-07 0.0000000000000000e+00  3.7959120108217277e-05 -2.8689720148340606e-07 0.0000000000000000e+00  5.4499233035738792e-05 -3.8588770717445630e-07 0.0000000000000000e+00  7.9191018066314349e-05 -4.8199353260672614e-07 0.0000000000000000e+00  1.1619231590103077e-04 -4.3030384453208154e-07 0.0000000000000000e+00  1.7120133432502822e-04 3.1809524632438210e-07 0.0000000000000000e+00  2.5037577422818021e-04 3.6105431758324051e-06 0.0000000000000000e+00  3.5304551523769367e-04 1.5824851110992722e-05 0.0000000000000000e+00  0.0000000000000000e+00 0.0000000000000000e+00 0.0000000000000000e+00  7.4801481582358955e-07 -8.1682795056298116e-09 0.0000000000000000e+00  1.5612501695143899e-06 -1.6745785293784313e-08 0.0000000000000000e+00  2.5141288527374339e-06 -2.6210906794147647e-08 0.0000000000000000e+00  3.7016268640276606e-06 -3.7217569179920817e-08 0.0000000000000000e+00  5.2548476153319782e-06 -5.0788752354483652e-08 0.0000000000000000e+00  7.3646464906286929e-06 -6.8709442870351988e-08 0.0000000000000000e+00  1.0319469275778224e-05 -9.4358490415589828e-08 0.0000000000000000e+00  1.4568186931751403e-05 -1.3450704379158580e-07 0.0000000000000000e+00  2.0827305472987463e-05 -2.0323648528512769e-07 0.0000000000000000e+00  3.0267835589522088e-05 -3.3039448533920239e-07 0.0000000000000000e+00  4.4846040461764978e-05 -5.7915174359962698e-07 0.0000000000000000e+00  6.7892812111475066e-05 -1.0790336335545621e-06 0.0000000000000000e+00  1.0515653050853902e-04 -2.0740076665796031e-06 0.0000000000000000e+00  1.6658290760512858e-04 -3.9392350750830302e-06 0.0000000000000000e+00  2.6899789630699270e-04 -6.9564794219215905e-06 0.0000000000000000e+00  4.3884191395678496e-04 -1.0180005971096302e-05 0.0000000000000000e+00  0.0000000000000000e+00 0.0000000000000000e+00 0.0000000000000000e+00  3.9223641146022654e-07 -4.2046447695843649e-09 0.0000000000000000e+00  8.1992895679787304e-07 -8.6401971993842748e-09 0.0000000000000000e+00  1.3237821469635105e-06 -1.3586575097809589e-08 0.0000000000000000e+00  1.9563151508721160e-06 -1.9451220018010866e-08 0.0000000000000000e+00  2.7910751401103721e-06 -2.6922471646969875e-08 0.0000000000000000e+00  3.9370263098209708e-06 -3.7305749916784786e-08 0.0000000000000000e+00  5.5624292232572974e-06 -5.3304174484851547e-08 0.0000000000000000e+00  7.9362507624017778e-06 -8.0918070558268629e-08 0.0000000000000000e+00  1.1502628486424105e-05 -1.3428168254028557e-07 0.0000000000000000e+00  1.7018845450590019e-05 -2.4854053387435797e-07 0.0000000000000000e+00  2.5815443560224445e-05 -5.1553765234578784e-07 0.0000000000000000e+00  4.0279400603582836e-05 -1.1854180312675635e-06 0.0000000000000000e+00  6.4661979818684341e-05 -2.9548873233631308e-06 0.0000000000000000e+00  1.0590112637787401e-04 -7.7242549531040210e-06 0.0000000000000000e+00  1.7178733851758586e-04 -2.0062507916687654e-05 0.0000000000000000e+00  2.5736254096280728e-04 -4.6948501845426514e-05 0.0000000000000000e+00  0.0000000000000000e+00 0.0000000000000000e+00 0.0000000000000000e+00  0.0000000000000000e+00 0.0000000000000000e+00 0.0000000000000000e+00  0.0000000000000000e+00 0.0000000000000000e+00 0.0000000000000000e+00  0.0000000000000000e+00 0.0000000000000000e+00 0.0000000000000000e+00  0.0000000000000000e+00 0.0000000000000000e+00 0.0000000000000000e+00  0.0000000000000000e+00 0.0000000000000000e+00 0.0000000000000000e+00  0.0000000000000000e+00 0.0000000000000000e+00 0.0000000000000000e+00  0.0000000000000000e+00 0.0000000000000000e+00 0.0000000000000000e+00  0.000000000