<?xml version="1.0"?>
<VTKFile type="UnstructuredGrid"  version="0.1"  >
<UnstructuredGrid>
<Piece  NumberOfPoints="289" NumberOfCells="512">
<Points>
<DataArray  type="Float64"  NumberOfComponents="3"  format="ascii">0 0 0  0.0625 0 0  0.125 0 0  0.1875 0 0  0.25 0 0  0.3125 0 0  0.375 0 0  0.4375 0 0  0.5 0 0  0.5625 0 0  0.625 0 0  0.6875 0 0  0.75 0 0  0.8125 0 0  0.875 0 0  0.9375 0 0  1 0 0  0 0.0625 0  0.06246558107380448 0.06248881009223023 0  0.1249303491761861 0.06247744856750265 0  0.1873935075881718 0.06246576541737867 0  0.249854329944888 0.0624536605729216 0  0.3123122137737752 0.06244111557648693 0  0.3747667584916866 0.06242823232159925 0  0.437217878956486 0.06241527875393493 0  0.4996659689926267 0.06240273782500098 0  0.5621121356159342 0.06239134943494087 0  0.6245585381824369 0.06238212428256984 0  0.6870088969944897 0.06237629361814295 0  0.7494692964662397 0.06237514996114519 0  0.8119494534307878 0.06237979472689907 0  0.8744640129847852 0.06239129678737658 0  0.9370272121403473 0.06241485107431135 0  0.9995877236990817 0.06249433100686365 0  0 0.125 0  0.06243195119267439 0.1249777903814381 0  0.1248622511909851 0.1249552135291104 0  0.1872892795528904 0.1249319427133306 0  0.2497115501659156 0.1249077457042507 0  0.312127817250517 0.1248825464285355 0  0.3745372336940583 0.1248565026411039 0  0.4369395865596927 0.1248301012499619 0  0.4993356424998539 0.1248042669772082 0  0.56172764917491 0.1247804685065308 0  0.6241200630437073 0.1247607856053825 0  0.6865206179996381 0.1247478661078894 0  0.7489419166190784 0.1247446463109038 0  0.8114037598816928 0.1247536130863647 0  0.8739361514747354 0.1247751195120376 0  0.9365820257746605 0.1248027441856809 0  0.9994056530732477 0.1248019602172159 0  0 0.1875 0  0.06239997890157051 0.1874671385776586 0  0.1247974138620838 0.1874336695743442 0  0.1871897978018408 0.1873990391309881 0  0.2495747979488933 0.187362820926211 0  0.3119504019399056 0.1873248034803525 0  0.3743151439279992 0.1872851053675818 0  0.43666844909935 0.1872443250377002 0  0.4990111453777561 0.1872037262564019 0  0.561346204145787 0.187165447694401 0  0.6236797857846851 0.1871327007502002 0  0.6860226714701431 0.1871098752596002 0  0.7483921234515403 0.1871023947201132 0  0.8108140187194026 0.1871160196985285 0  0.8733245016716908 0.1871549937721176 0  0.9359693232785301 0.1872177103060846 0  0.9987994077098014 0.1872878893754485 0  0 0.25 0  0.0623705884989916 0.2499570969463573 0  0.124737668509015 0.2499132864934543 0  0.1870977594151597 0.2498677191585133 0  0.2494475535053209 0.2498196871678071 0  0.311784078471946 0.2497687287439282 0  0.3741049642778639 0.2497147746252148 0  0.4364088656195027 0.2496583523573024 0  0.4986961034327266 0.2496008619712448 0  0.5609695987487247 0.249544928834837 0  0.6232361692389842 0.2494948197885665 0  0.6855082179807717 0.2494568677137774 0  0.7478057102941119 0.2494397738610229 0  0.810158005561665 0.2494545308255045 0  0.8726044700345793 0.2495135326276932 0  0.9351919688272131 0.249628349598654 0  0.9979672149916979 0.2498064895020024 0  0 0.3125 0  0.06234476825797497 0.3124479668192934 0  0.1246849945407597 0.3123946617275866 0  0.1870161348180421 0.3123388624592944 0  0.2493337602456822 0.3122794757239909 0  0.3116337020786713 0.3122156438097467 0  0.3739123191042353 0.312146907614588 0  0.4361669519861853 0.3120734532832485 0  0.4983966464370052 0.3119964751864758 0  0.5606032405608176 0.3119186910463483 0  0.6227929054739693 0.3118450394772604 0  0.6849781708828615 0.3117835642434565 0  0.7471803062494569 0.3117464231786936 0  0.8094316072434221 0.3117508272528067 0  0.8717766948489264 0.3118195089548715 0  0.9342717927446177 0.3119801352330422 0  0.9969823929239263 0.3122632786726819 0  0 0.375 0  0.0623235590708424 0.3749401135297304 0  0.1246415035117651 0.3748785338784405 0  0.1869481618151172 0.3748135939711438 0  0.2492378535135352 0.374743708944237 0  0.3115049738427187 0.3746674636595663 0  0.373744208684061 0.3745837661528633 0  0.4359509577481505 0.3744921060064604 0  0.498122073881053 0.3743929728110713 0  0.5602570580986797 0.3742885102464831 0  0.6223598678965865 0.3741835014680285 0  0.6844414667730342 0.3740867879133763 0  0.7465231092580287 0.3740131841802632 0  0.8086400585868514 0.3739858040300822 0  0.8708449998643808 0.3740383668313371 0  0.9332101430916981 0.3742164480989763 0  0.9958275793562401 0.3745758621198053 0  0 0.4375 0  0.06230801916178802 0.4374339581772775 0  0.1246093726657797 0.4373657692161781 0  0.1868972574899572 0.4372932722330301 0  0.2491646687225915 0.4372143041582435 0  0.3114043753914298 0.4371267412205899 0  0.3736090171077106 0.4370286053121086 0  0.4357714101254228 0.4369182818878599 0  0.497885201546722 0.4367949239942548 0  0.5599460791787724 0.4366591596295243 0  0.6219538241556625 0.4365142790196507 0  0.6839155529820033 0.4363681471326784 0  0.745850460070417 0.4362361287448859 0  0.8077961069039492 0.4361452261007701 0  0.8698156567943932 0.436139198457894 0  0.9320044451634233 0.4362833686377431 0  0.9944934422932368 0.4366661171260861 0  0 0.5 0  0.06229916265915388 0.4999299533345678 0  0.1245907220650817 0.4998573142339296 0  0.1868668354487601 0.4997794223209673 0  0.2491192056410386 0.4996934960090527 0  0.3113388989639908 0.4995965994279765 0  0.3735162481556845 0.4994856570042701 0  0.4356409284833362 0.4993575602891608 0  0.4977023690671547 0.4992094482557826 0  0.5596907832679121 0.4990393062811956 0  0.6215992867373529 0.4988471362109679 0  0.6834278126329439 0.4986371162605355 0  0.7451897491748726 0.4984213882864094 0  0.8069221562992553 0.4982262793624636 0  0.8686995180045775 0.498101521446227 0  0.9306485897295349 0.4981315474001348 0  0.9929585033923799 0.4984442292037984 0  0 0.5625 0  0.06229787291703612 0.5624285416725324 0  0.1245874354463047 0.5623541108844923 0  0.1868600242045625 0.5622736046137272 0  0.2491062340705803 0.562183657186637 0  0.3113155382959948 0.562080509434721 0  0.3734759233425654 0.5619598893103507 0  0.4355736028020769 0.5618169315785269 0  0.4975929642779967 0.5616461999794011 0  0.559517077927238 0.5614419474742767 0  0.6213294168115225 0.5611988932953199 0  0.6830179782007404 0.5609140702539734 0  0.7445837564881888 0.5605907895588784 0  0.8060561969675916 0.5602465309284165 0  0.8675176909715675 0.5599272780726035 0  0.9291347400427867 0.5597298832312231 0  0.9911824648875662 0.5598277649615238 0  0 0.625 0  0.06230479578594444 0.6249300996212128 0  0.1246009338182061 0.624856977732837 0  0.1868792959316241 0.6247772211767403 0  0.2491297426022061 0.6246870124041101 0  0.3113405194123762 0.6245818918750986 0  0.3734975723569881 0.6244564798484702 0  0.4355837772661421 0.6243041517285933 0  0.4975781665437649 0.6241166803124457 0  0.5594554272380458 0.6238839092770871 0  0.6211863763673607 0.6235936507242208 0  0.6827410222806995 0.6232323130466394 0  0.7440975146277923 0.6227875051229094 0  0.8052628890190531 0.6222555000682903 0  0.8663136916373948 0.6216595078917684 0  0.9274603240173764 0.621087693673963 0  0.9891156663575607 0.6207515079064907 0  0 0.6875 0  0.0623202235521236 0.6874348722664374 0  0.1246319229477818 0.6873664693323871 0  0.1869260353681775 0.6872912774970779 0  0.2491922625142858 0.6872052661216019 0  0.3114182887400678 0.6871035567951509 0  0.3735887805752103 0.6869799949735855 0  0.4356840764782019 0.6868265743328468 0  0.4976784948796333 0.6866326506741913 0  0.5595383042816435 0.686383874174291 0  0.6212197893199265 0.6860607946663364 0  0.682668939121049 0.6856372525576415 0  0.7438270069550951 0.6850792805794347 0  0.8046521775472782 0.6843473263069335 0  0.865178031254319 0.6834110820008864 0  0.9256366192819167 0.6823026768726245 0  0.9866429746091815 0.6812415760478397 0  0 0.75 0  0.06234398636443321 0.7499429098111114 0  0.1246801502843751 0.7498827358194491 0  0.187000105946027 0.749816135787053 0  0.2492941461571344 0.7497391976591135 0  0.3115503514228173 0.7496470551658795 0  0.3737533652793165 0.7495333616661076 0  0.4358826309191164 0.7493895330322828 0  0.4979097953281674 0.7492036202954464 0  0.5597948997564709 0.748958586805747 0  0.6214810193493749 0.7486296180345378 0  0.6828876554800989 0.7481798575710863 0  0.7439058855748123 0.7475536973544596 0  0.8044072146524064 0.7466671179252294 0  0.8643035500494002 0.7453996348131423 0  0.9237507587939684 0.7436247144907923 0  0.9835151134941028 0.7414951023804124 0  0 0.8125 0  0.06237537306150178 0.812454018715392 0  0.1247442201265047 0.812405411845068 0  0.187099498915907 0.8123513113394334 0  0.2494329372747083 0.8122883085511764 0  0.3117341642436927 0.8122120772996478 0  0.3739894524227165 0.8121168412029922 0  0.4361797825172067 0.811994579604526 0  0.4982777331390993 0.8118337975612848 0  0.5602423299788856 0.811617555270523 0  0.6220103788749006 0.811320188790804 0  0.6834819990860264 0.8109015687496464 0  0.744497902807694 0.8102963283438471 0  0.8048109404806481 0.8093919254389813 0  0.8640847688670077 0.8079808164670689 0  0.9221018785604658 0.8056564157465677 0  0.9802249279526177 0.8016518975323409 0  0 0.875 0  0.06241310486331367 0.8749677405828111 0  0.1248215217455867 0.8749335648265477 0  0.1872201691510787 0.8748953678159064 0  0.2496030183589003 0.8748506212870898 0  0.31196240329522 0.874796072757966 0  0.3742879868560758 0.8747273135102166 0  0.4365650968321506 0.8746381258517573 0  0.4987718853879065 0.8745194645751347 0  0.5608742170051362 0.8743578313209127 0  0.6228159972332189 0.8741326261537196 0  0.6845000354151001 0.873811694626656 0  0.7457489013351761 0.8733432746026314 0  0.8062241184959144 0.8726388531987203 0  0.8652650205929298 0.8715263011294123 0  0.9216052512772025 0.8695911286890213 0  0.9730547179918239 0.8655853781696375 0  0 0.9375 0  0.06245538063604072 0.9374833680753056 0  0.1249083162849099 0.9374657245538524 0  0.1873561514164524 0.9374459546550844 0  0.2497957206923808 0.937422711110349 0  0.3122229724534905 0.9373942474108802 0  0.3746323955029527 0.9373581770170156 0  0.4370160744347739 
[...]
<PointData  Vectors="f_54"> 
<DataArray  type="Float64"  Name="f_54"  NumberOfComponents="3" format="ascii">0.0000000000000000e+00 0.0000000000000000e+00 0.0000000000000000e+00  0.0000000000000000e+00 0.0000000000000000e+00 0.0000000000000000e+00  0.0000000000000000e+00 0.0000000000000000e+00 0.0000000000000000e+00  0.0000000000000000e+00 0.0000000000000000e+00 0.0000000000000000e+00  0.0000000000000000e+00 0.0000000000000000e+00 0.0000000000000000e+00  0.0000000000000000e+00 0.0000000000000000e+00 0.0000000000000000e+00  0.0000000000000000e+00 0.0000000000000000e+00 0.0000000000000000e+00  0.0000000000000000e+00 0.0000000000000000e+00 0.0000000000000000e+00  0.0000000000000000e+00 0.0000000000000000e+00 0.0000000000000000e+00  0.0000000000000000e+00 0.0000000000000000e+00 0.0000000000000000e+00  0.0000000000000000e+00 0.0000000000000000e+00 0.0000000000000000e+00  0.0000000000000000e+00 0.0000000000000000e+00 0.0000000000000000e+00  0.0000000000000000e+00 0.0000000000000000e+00 0.0000000000000000e+00  0.0000000000000000e+00 0.0000000000000000e+00 0.0000000000000000e+00  0.0000000000000000e+00 0.0000000000000000e+00 0.0000000000000000e+00  0.0000000000000000e+00 0.0000000000000000e+00 0.0000000000000000e+00  0.0000000000000000e+00 0.0000000000000000e+00 0.0000000000000000e+00  0.0000000000000000e+00 0.0000000000000000e+00 0.0000000000000000e+00  3.2502579168207261e-06 7.2638474786947796e-08 0.0000000000000000e+00  6.5851370291804030e-06 1.4611338370518616e-07 0.0000000000000000e+00  1.0088741968208003e-05 2.2106397362125121e-07 0.0000000000000000e+00  1.3841583647889774e-05 2.9765317516857607e-07 0.0000000000000000e+00  1.7917635886826570e-05 3.7524385737722488e-07 0.0000000000000000e+00  2.2379942900269744e-05 4.5196618103097913e-07 0.0000000000000000e+00  2.7274295751281596e-05 5.2413027324918524e-07 0.0000000000000000e+00  3.2620556213784262e-05 5.8542462932819935e-07 0.0000000000000000e+00  3.8401360436100075e-05 6.2580274747590548e-07 0.0000000000000000e+00  4.4548254670896338e-05 6.2984340203146461e-07 0.0000000000000000e+00  5.0925998386879203e-05 5.7399383158354513e-07 0.0000000000000000e+00  5.7317601890223263e-05 4.2085700270722826e-07 0.0000000000000000e+00  6.3419106869605962e-05 1.0431683512008761e-07 0.0000000000000000e+00  6.8879604437875676e-05 -5.1709280199721372e-07 0.0000000000000000e+00  7.3538082428974900e-05 -1.8271330039675556e-06 0.0000000000000000e+00  7.8530164086675015e-05 -5.1048118160458163e-06 0.0000000000000000e+00  0.0000000000000000e+00 0.0000000000000000e+00 0.0000000000000000e+00  6.4111120815346036e-06 1.4433422821875783e-07 0.0000000000000000e+00  1.2992708441396077e-05 2.9055833920031364e-07 0.0000000000000000e+00  1.9914595092948622e-05 4.4020105942263092e-07 0.0000000000000000e+00  2.7340337460734594e-05 5.9391051710242171e-07 0.0000000000000000e+00  3.5421884042007240e-05 7.5084867865334409e-07 0.0000000000000000e+00  4.4291313858155916e-05 9.0787599266226845e-07 0.0000000000000000e+00  5.4048709818898749e-05 1.0584425260911486e-06 0.0000000000000000e+00  6.4745237084541213e-05 1.1910903622243510e-06 0.0000000000000000e+00  7.6360732332139708e-05 1.2874495869176798e-06 0.0000000000000000e+00  8.8775528259830806e-05 1.3195510317584339e-06 0.0000000000000000e+00  1.0173677461081358e-04 1.2461255414324231e-06 0.0000000000000000e+00  1.1481968590482485e-04 1.0072620336046002e-06 0.0000000000000000e+00  1.2738180842781951e-04 5.1678145909346961e-07 0.0000000000000000e+00  1.3849370498255996e-04 -3.4409312298577933e-07 0.0000000000000000e+00  1.4675304729705311e-04 -1.6948217263519793e-06 0.0000000000000000e+00  1.4948908482730825e-04 -3.3445695540438573e-06 0.0000000000000000e+00  0.0000000000000000e+00 0.0000000000000000e+00 0.0000000000000000e+00  9.3956969316606794e-06 2.1401080346618581e-07 0.0000000000000000e+00  1.9050119403861773e-05 4.3136819499309413e-07 0.0000000000000000e+00  2.9221856038495681e-05 6.5495629581248866e-07 0.0000000000000000e+00  4.0162476674316819e-05 8.8651058073973542e-07 0.0000000000000000e+00  5.2109728484720950e-05 1.1258079535156568e-06 0.0000000000000000e+00  6.5276469718337458e-05 1.3695559162646772e-06 0.0000000000000000e+00  7.9833759719966061e-05 1.6098625241660177e-06 0.0000000000000000e+00  9.5886551000960783e-05 1.8321664809408706e-06 0.0000000000000000e+00  1.1344067284555566e-04 2.0125228711130300e-06 0.0000000000000000e+00  1.3236034339980988e-04 2.1141901222008971e-06 0.0000000000000000e+00  1.5231622845586986e-04 2.0835707259141644e-06 0.0000000000000000e+00  1.7272452285640387e-04 1.8457694489711234e-06 0.0000000000000000e+00  1.9267590638641173e-04 1.3004500181605858e-06 0.0000000000000000e+00  2.1084549235419792e-04 3.1912080486804939e-07 0.0000000000000000e+00  2.2535688265627526e-04 -1.2593763428894321e-06 0.0000000000000000e+00  2.3357949280051644e-04 -3.6928319308725477e-06 0.0000000000000000e+00  0.0000000000000000e+00 0.0000000000000000e+00 0.0000000000000000e+00  1.2114961855147094e-05 2.8019128876070852e-07 0.0000000000000000e+00  2.4579471413048693e-05 5.6570888904310222e-07 0.0000000000000000e+00  3.7744501987201071e-05 8.6140308713000071e-07 0.0000000000000000e+00  5.1955959475556128e-05 1.1709004915251914e-06 0.0000000000000000e+00  6.7547960710491475e-05 1.4956999328125766e-06 0.0000000000000000e+00  8.4830575056226297e-05 1.8338871543405436e-06 0.0000000000000000e+00  1.0406977625086430e-04 2.1783082351783482e-06 0.0000000000000000e+00  1.2545721670108320e-04 2.5140363912476881e-06 0.0000000000000000e+00  1.4906759068478447e-04 2.8150032720302401e-06 0.0000000000000000e+00  1.7480204001113018e-04 3.0397963451222572e-06 0.0000000000000000e+00  2.0231750492614504e-04 3.1269342913179665e-06 0.0000000000000000e+00  2.3094419355874443e-04 2.9905449830949289e-06 0.0000000000000000e+00  2.5959619342013246e-04 2.5184207389026902e-06 0.0000000000000000e+00  2.8668374641430572e-04 1.5759898846148231e-06 0.0000000000000000e+00  3.1004402338840600e-04 2.2090223377354054e-08 0.0000000000000000e+00  3.2693971784079277e-04 -2.2482428213648880e-06 0.0000000000000000e+00  0.0000000000000000e+00 0.0000000000000000e+00 0.0000000000000000e+00  1.4477555677373139e-05 3.4087961789967404e-07 0.0000000000000000e+00  2.9396912698445820e-05 6.8961421683876912e-07 0.0000000000000000e+00  4.5204144655444540e-05 1.0536755890953323e-06 0.0000000000000000e+00  6.2345676902408651e-05 1.4394758821134864e-06 0.0000000000000000e+00  8.1263659675191830e-05 1.8515116306932859e-06 0.0000000000000000e+00  1.0238479488340450e-04 2.2910655773308811e-06 0.0000000000000000e+00  1.2609961132970971e-04 2.7542515807481327e-06 0.0000000000000000e+00  1.5272869825214583e-04 3.2291503569234953e-06 0.0000000000000000e+00  1.8247221152975707e-04 3.6917862887296090e-06 0.0000000000000000e+00  2.1533950647156252e-04 4.1008159995882287e-06 0.0000000000000000e+00  2.5105767991621855e-04 4.3911841401307218e-06 0.0000000000000000e+00  2.8896193986563130e-04 4.4678807555228741e-06 0.0000000000000000e+00  3.2787793694002184e-04 4.2025739185763558e-06 0.0000000000000000e+00  3.6601756236346152e-04 3.4384022818071386e-06 0.0000000000000000e+00  4.0092784959336119e-04 2.0112271962121909e-06 0.0000000000000000e+00  4.2956479388255432e-04 -2.0184835010712740e-07 0.0000000000000000e+00  0.0000000000000000e+00 0.0000000000000000e+00 0.0000000000000000e+00  1.6391046985023351e-05 3.9353614211494660e-07 0.0000000000000000e+00  3.3314731313928862e-05 7.9791571895101129e-07 0.0000000000000000e+00  5.1312257047261568e-05 1.2238068655173458e-06 0.0000000000000000e+00  7.0934569713367108e-05 1.6812490842013779e-06 0.0000000000000000e+00  9.2742295455398117e-05 2.1790180078579919e-06 0.0000000000000000e+00  1.1729865648315377e-04 2.7235289333448598e-06 0.0000000000000000e+00  1.4515160280928723e-04 3.3170060724035525e-06 0.0000000000000000e+00  1.7680030694080707e-04 3.9545385867131475e-06 0.0000000000000000e+00  2.1264017468528200e-04 4.6195344841778893e-06 0.0000000000000000e+00  2.5288023138670372e-04 5.2770458513982444e-06 0.0000000000000000e+00  2.9742824554987614e-04 5.8646651354048870e-06 0.0000000000000000e+00  3.4574393884670337e-04 6.2815698725373951e-06 0.0000000000000000e+00  3.9667110427934744e-04 6.3784231440714141e-06 0.0000000000000000e+00  4.4827658012426297e-04 5.9547060319595929e-06 0.0000000000000000e+00  4.9774580211956441e-04 4.7748044645612632e-06 0.0000000000000000e+00  5.4140336674241907e-04 2.6148674185106587e-06 0.0000000000000000e+00  0.0000000000000000e+00 0.0000000000000000e+00 0.0000000000000000e+00  1.7764817512294505e-05 4.3516868429393948e-07 0.0000000000000000e+00  3.6146923964931850e-05 8.8441359645956083e-07 0.0000000000000000e+00  5.5777914401167745e-05 1.3619517665036659e-06 0.0000000000000000e+00  7.7312576892960819e-05 1.8820656971140726e-06 0.0000000000000000e+00  1.0143618910723779e-04 2.4588807455095210e-06 0.0000000000000000e+00  1.2886524053523320e-04 3.1057408021207172e-06 0.0000000000000000e+00  1.6033726467471962e-04 3.8338778192668831e-06 0.0000000000000000e+00  1.9658350205256766e-04 4.6498743526448278e-06 0.0000000000000000e+00  2.3827574702013334e-04 5.5511207430172706e-06 0.0000000000000000e+00  2.8593653069372105e-04 6.5180844977044183e-06 0.0000000000000000e+00  3.3980118336644874e-04 7.5018938329621462e-06 0.0000000000000000e+00  3.9962408730397428e-04 8.4060112985057496e-06 0.0000000000000000e+00  4.6443376203308240e-04 9.0628716701270092e-06 0.0000000000000000e+00  5.3226580161726245e-04 9.2123271413304512e-06 0.0000000000000000e+00  5.9993479048434854e-04 8.4999466269615756e-06 0.0000000000000000e+00  6.6292358647290805e-04 6.5256322040684591e-06 0.0000000000000000e+00  0.0000000000000000e+00 0.0000000000000000e+00 0.0000000000000000e+00  1.8514831737277060e-05 4.6254980227324361e-07 0.0000000000000000e+00  3.7718733587180341e-05 9.4231640417832549e-07 0.0000000000000000e+00  5.8322007824961872e-05 1.4570529717170788e-06 0.0000000000000000e+00  8.1075109717410266e-05 2.0254815190555216e-06 0.0000000000000000e+00  1.0678610944068491e-04 2.6676645071107407e-06 0.0000000000000000e+00  1.3633343588720598e-04 3.4051508361543290e-06 0.0000000000000000e+00  1.7066959314587435e-04 4.2606373952030649e-06 0.0000000000000000e+00  2.1080858765014975e-04 5.2566242170661480e-06 0.0000000000000000e+00  2.5778554399166276e-04 6.4120443380908581e-06 0.0000000000000000e+00  3.1257156478791569e-04 7.7349729106739492e-06 0.0000000000000000e+00  3.7592156744173475e-04 9.2081625173677263e-06 0.0000000000000000e+00  4.4813136388721175e-04 1.0762611713324754e-05 0.0000000000000000e+00  5.2869061578724168e-04 1.2234334771352097e-05 0.0000000000000000e+00  6.1585208095010042e-04 1.3305800104247014e-05 0.0000000000000000e+00  7.0619744703438487e-04 1.3454370809691809e-05 0.0000000000000000e+00  7.9431814012711577e-04 1.1965699866634408e-05 0.0000000000000000e+00  0.0000000000000000e+00 0.0000000000000000e+00 0.0000000000000000e+00  1.8570267679361993e-05 4.7255423118507937e-07 0.0000000000000000e+00  3.7880234396767427e-05 9.6494487726536898e-07 0.0000000000000000e+00  5.8698336587219501e-05 1.4979651108071823e-06 0.0000000000000000e+00  8.1852183066708062e-05 2.0943710820946226e-06 0.0000000000000000e+00  1.0825846838011577e-04 2.7799660401750742e-06 0.0000000000000000e+00  1.3895186248218808e-04 3.5847641413381188e-06 0.0000000000000000e+00  1.7510964439408386e-04 4.5441474663438584e-06 0.0000000000000000e+00  2.1806516096398176e-04 5.6997028546062547e-06 0.0000000000000000e+00  2.6929696878196213e-04 7.0988750205098024e-06 0.0000000000000000e+00  3.3037081006075933e-04 8.7913143187707327e-06 0.0000000000000000e+00  4.0279825637134408e-04 1.0817139553877884e-05 0.0000000000000000e+00  4.8776203316601571e-04 1.3177406753666584e-05 0.0000000000000000e+00  5.8565536565122482e-04 1.5770161526556135e-05 0.0000000000000000e+00  6.9541943350496605e-04 1.8273174474136645e-05 0.0000000000000000e+00  8.1378226532963108e-04 1.9981324697585978e-05 0.0000000000000000e+00  9.3470497413175352e-04 1.9708087386391483e-05 0.0000000000000000e+00  0.0000000000000000e+00 0.0000000000000000e+00 0.0000000000000000e+00  1.7881672828452045e-05 4.6258652301875702e-07 0.0000000000000000e+00  3.6523399846299634e-05 9.4664480693895241e-07 0.0000000000000000e+00  5.6721037737971251e-05 1.4749716048061632e-06 0.0000000000000000e+00  7.9348172977471498e-05 2.0732304769923918e-06 0.0000000000000000e+00  1.0539945004496435e-04 2.7717354924847121e-06 0.0000000000000000e+00  1.3603853645736342e-04 3.6077013011699281e-06 0.0000000000000000e+00  1.7265016222030145e-04 4.6281771812378605e-06 0.0000000000000000e+00  2.1689215874954354e-04 5.8938717743836169e-06 0.0000000000000000e+00  2.7073623801230170e-04 7.4838477442070155e-06 0.0000000000000000e+00  3.3647261223056072e-04 9.5001079134211093e-06 0.0000000000000000e+00  4.1662988920887164e-04 1.2068024374591601e-05 0.0000000000000000e+00  5.1372594858384790e-04 1.5320134883329253e-05 0.0000000000000000e+00  6.2972575040623263e-04 1.9331134694520045e-05 0.0000000000000000e+00  7.6508011101521656e-04 2.3937377750212408e-05 0.0000000000000000e+00  9.1737087759773378e-04 2.8356695866513159e-05 0.0000000000000000e+00  1.0799931570530602e-03 3.0630287362703718e-05 0.0000000000000000e+00  0.0000000000000000e+00 0.0000000000000000e+00 0.0000000000000000e+00  1.6429888943355285e-05 4.3104050513477629e-07 0.0000000000000000e+00  3.3601201536182192e-05 8.8378902291630510e-07 0.0000000000000000e+00  5.2296384667536331e-05 1.3815106647373534e-06 0.0000000000000000e+00  7.3390159501721740e-05 1.9509403245501165e-06 0.0000000000000000e+00  9.7904923221397853e-05 2.6245684680982272e-06 0.0000000000000000e+00  1.2707788183655101e-04 3.4437331172583733e-06 0.0000000000000000e+00  1.6244383905726346e-04 4.4630741568989514e-06 0.0000000000000000e+00  2.0593593907916659e-04 5.7572699532499599e-06 0.0000000000000000e+00  2.6000127272114752e-04 7.4315592179817805e-06 0.0000000000000000e+00  3.2771434310973491e-04 9.6382169201184439e-06 0.0000000000000000e+00  4.1284005764387458e-04 1.2600785312983646e-05 0.0000000000000000e+00  5.1973515613714576e-04 1.6641687756403449e-05 0.0000000000000000e+00  6.5286919565365337e-04 2.2180791015031746e-05 0.0000000000000000e+00  8.1561642881406533e-04 2.9580276388076679e-05 0.0000000000000000e+00  1.0080392096147800e-03 3.8521604260849168e-05 0.0000000000000000e+00  1.2242702385488438e-03 4.7097891748073814e-05 0.0000000000000000e+00  0.0000000000000000e+00 0.0000000000000000e+00 0.0000000000000000e+00  1.4234517139277347e-05 3.7770751502574593e-07 0.0000000000000000e+00  2.9146229069650565e-05 7.7568639300069290e-07 0.0000000000000000e+00  4.5455123973184316e-05 1.2157963468339867e-06 0.0000000000000000e+00  6.3979851116318609e-05 1.7234954177357628e-06 0.0000000000000000e+00  8.5700655323484913e-05 2.3302546523267648e-06 0.0000000000000000e+00  1.1184104390477676e-04 3.0768981979306040e-06 0.0000000000000000e+00  1.4397783562566341e-04 4.0185830925291949e-06 0.0000000000000000e+00  1.8419167733091217e-04 5.2327905242221217e-06 0.0000000000000000e+00  2.3527108281706045e-04 6.8331774739758226e-06 0.0000000000000000e+00  3.0097750539502251e-04 8.9954146534499286e-06 0.0000000000000000e+00  3.8635384362504420e-04 1.2007865545586867e-05 0.0000000000000000e+00  4.9798380532722040e-04 1.6370807907227010e-05 0.0000000000000000e+00  6.4392290937520167e-04 2.2970114583184980e-05 0.0000000000000000e+00  8.3262557713356146e-04 3.3250314243970704e-05 0.0000000000000000e+00  1.0696447769007950e-03 4.8546103703218416e-05 0.0000000000000000e+00  1.3540889129185919e-03 6.3060555799532872e-05 0.0000000000000000e+00  0.0000000000000000e+00 0.0000000000000000e+00 0.0000000000000000e+00  1.1360279113714256e-05 3.0404210777997105e-07 0.0000000000000000e+00  2.3285306987861352e-05 6.2518720318348017e-07 0.0000000000000000e+00  3.6379515061948101e-05 9.8193816436520781e-07 0.0000000000000000e+00  5.1340432169269365e-05 1.3959901882781318e-06 0.0000000000000000e+00  6.9021102881640180e-05 1.8943332161695474e-06 0.0000000000000000e+00  9.0515602887993824e-05 2.5120768741001966e-06 0.0000000000000000e+00  1.1728237800682405e-04 3.2964803069310426e-06 0.0000000000000000e+00  1.5132798386709829e-04 4.3131161240186617e-06 0.0000000000000000e+00  1.9548553324949980e-04 5.6563761990666661e-06 0.0000000000000000e+00  2.5383699326902705e-04 7.4704811924599832e-06 0.0000000000000000e+00  3.3233833012962714e-04 9.9996089386174006e-06 0.0000000000000000e+00  4.3967846552801256e-04 1.3724055680490091e-05 0.0000000000000000e+00  5.8822919727084973e-04 1.9751082925769764e-05 0.0000000000000000e+00  7.9428792244238514e-04 3.0934040418213724e-05 0.0000000000000000e+00  1.0743564244469316e-03 5.4996655311360365e-05 0.0000000000000000e+00  1.4183097386450503e-03 1.1342749315723746e-04 0.0000000000000000e+00  0.0000000000000000e+00 0.0000000000000000e+00 0.0000000000000000e+00  7.9194447645117495e-06 2.1321362245702830e-07 0.0000000000000000e+00  1.6245999267030312e-05 4.3881245289604359e-07 0.0000000000000000e+00  2.5417737852492891e-05 6.9020919092252408e-07 0.0000000000000000e+00  3.5946248599265486e-05 9.8315632846442344e-07 0.0000000000000000e+00  4.8467880514021371e-05 1.3372048528584197e-06 0.0000000000000000e+00  6.3816953643287114e-05 1.7774769077497077e-06 0.0000000000000000e+00  8.3137004468155935e-05 2.3366970271929892e-06 0.0000000000000000e+00  1.0805770214478822e-04 3.0570322386099154e-06 0.0000000000000000e+00  1.4098648416768460e-04 3.9903085333723515e-06 0.0000000000000000e+00  1.8560329731869810e-04 5.1932305209973341e-06 0.0000000000000000e+00  2.4771700381634785e-04 6.7125243635171349e-06 0.0000000000000000e+00  3.3675808173765602e-04 8.5653667702038365e-06 0.0000000000000000e+00  4.6834467230147901e-04 1.0805868515046719e-05 0.0000000000000000e+00  6.6851956814132989e-04 1.4186909998373633e-05 0.0000000000000000e+00  9.8046073428592422e-04 2.3585288146109012e-05 0.0000000000000000e+00  1.4778291359448701e-03 6.1381245503483645e-05 0.0000000000000000e+00  0.0000000000000000e+00 0.0000000000000000e+00 0.0000000000000000e+00  4.0687436751034022e-06 1.0992018195680740e-07 0.0000000000000000e+00  8.3512364057072424e-06 2.2634891723781467e-07 0.0000000000000000e+00  1.3078342870211988e-05 3.5633463361247945e-07 0.0000000000000000e+00  1.8521851548540345e-05 5.0814855425473659e-07 0.0000000000000000e+00  2.5023770809466444e-05 6.9199519381021924e-07 0.0000000000000000e+00  3.3039386225453888e-05 9.2073945606792930e-07 0.0000000000000000e+00  4.3205062070857559e-05 1.2102949806049883e-06 0.0000000000000000e+00  5.6451019028644775e-05 1.5783761868333409e-06 0.0000000000000000e+00  7.4198187578459137e-05 2.0373090004358865e-06 0.0000000000000000e+00  9.8717253280721168e-05 2.5668877393291604e-06 0.0000000000000000e+00  1.3380702869957310e-04 3.0215043373380857e-06 0.0000000000000000e+00  1.8608814494688820e-04 2.8220622112776975e-06 0.0000000000000000e+00  2.6729864805445587e-04 -3.7411825534723447e-08 0.0000000000000000e+00  3.9694110846156551e-04 -1.1917236688735171e-05 0.0000000000000000e+00  5.9686699508389965e-04 -4.9656296450807079e-05 0.0000000000000000e+00  8.4674318757932648e-04 -1.3769084590223380e-04 0.0000000000000000e+00  0.0000000000000000e+00 0.0000000000000000e+00 0.0000000000000000e+00  0.0000000000000000e+00 0.0000000000000000e+00 0.0000000000000000e+00  0.0000000000000000e+00 0.0000000000000000e+00 0.0000000000000000e+00  0.0000000000000000e+00 0.0000000000000000e+00 0.0000000000000000e+00  0.0000000000000000e+00 0.0000000000000000e+00 0.0000000000000000e+00  0.0000000000000000e+00 0.0000000000000000e+00 0.0000000000000000e+00  0.0000000000000000e+00 0.0000000000000000e+00 0.0000000000000000e+00  0.0000000000000000e+00 0.0000000000000000e+00 0.0000000000000000e+00  0.0000000000000000e+00 0.0000000000000000e+00 0.0000000000000000e+00  0.0000000000000000e+00 0.0000000000000000e+00 0.0000000000000000e+00  0.0000000000000000e+00 0.0000000000000000e+00 0.0000000000000000e+00  0.0000000000000000e+00 0.0000000000000000e+00 0.0000000000000000e+00