<?xml version="1.0"?>
<VTKFile type="UnstructuredGrid"  version="0.1"  >
<UnstructuredGrid>
<Piece  NumberOfPoints="289" NumberOfCells="512">
<Points>
<DataArray  type="Float64"  NumberOfComponents="3"  format="ascii">0 0 0  0.0625 0 0  0.125 0 0  0.1875 0 0  0.25 0 0  0.3125 0 0  0.375 0 0  0.4375 0 0  0.5 0 0  0.5625 0 0  0.625 0 0  0.6875 0 0  0.75 0 0  0.8125 0 0  0.875 0 0  0.9375 0 0  1 0 0  0 0.0625 0  0.06248019252955062 0.06249866822768751 0  0.1249596490468464 0.06249732376321721 0  0.1874376076734912 0.06249595786755851 0  0.2499132541484513 0.06249457017621945 0  0.312385692348664 0.06249317394162452 0  0.3748539094169776 0.0624918024307439 0  0.4373167301342582 0.06249051662743211 0  0.4997727486977455 0.06248941412671632 0  0.5622202100329329 0.06248863888500759 0  0.6246567711839773 0.0624883920701633 0  0.6870789587024515 0.06248894894469242 0  0.7494807973800187 0.06249070923680881 0  0.8118499840959511 0.06249440710890003 0  0.8741560918982187 0.06250204031614766 0  0.9363104235936087 0.06252105776038874 0  0.9980171051365641 0.0625840511932256 0  0 0.125 0  0.06246111713876087 0.1249973499631898 0  0.1249207893328207 0.1249946706211741 0  0.1873775217754833 0.124991940129925 0  0.2498297191709032 0.1249891525327919 0  0.31227563080846 0.1249863279040963 0  0.374713288403171 0.12498352495626 0  0.4371404303714076 0.1249808564999794 0  0.499554399449774 0.1249785074983356 0  0.5619519851987002 0.1249767542840384 0  0.6243291482883739 0.1249759815293957 0  0.6866804869192795 0.1249766899753329 0  0.7489981467182467 0.1249794783618042 0  0.8112696085929968 0.1249849407448748 0  0.8734737476291761 0.1249931889140085 0  0.9355777178674247 0.1250013961235869 0  0.9975627404222885 0.1249902690717815 0  0 0.1875 0  0.0624434852605776 0.1874960618167848 0  0.1248848673990442 0.187492070276291 0  0.1873219718416355 0.1874879820848613 0  0.249752480731879 0.1874837755796295 0  0.3121738572176844 0.1874794650429465 0  0.3745832643625885 0.1874751191007673 0  0.4369774756077038 0.1874708841631052 0  0.4993527714790286 0.1874670130439718 0  0.5617048128190698 0.1874638971184459 0  0.6240284737517779 0.1874620967948032 0  0.6863176121435737 0.187462358037849 0  0.7485647779432081 0.1874655885476148 0  0.8107610203987582 0.1874727387222508 0  0.8728966303698005 0.1874844888469849 0  0.9349658451024839 0.1875007308252211 0  0.9969830939097923 0.1875215204614422 0  0 0.25 0  0.06242795816299382 0.2499948278369673 0  0.1248532271169026 0.2499895682177603 0  0.1872730268843142 0.2499841449432857 0  0.2496843960669105 0.2499785063822366 0  0.3120840986220196 0.2499726426589 0  0.3744685287931404 0.2499666088687237 0  0.4368336159100274 0.2499605563464885 0  0.4991747338451297 0.2499547735027232 0  0.5614866260936103 0.2499497362365266 0  0.6237633710090619 0.2499461644886259 0  0.6859984437564828 0.2499450746788613 0  0.7481850097554942 0.2499478059131898 0  0.8103167719047758 0.2499559812791151 0  0.8723901049791744 0.2499713561829325 0  0.9344089177572102 0.2499955533723998 0  0.9963940808337974 0.2500298437613092 0  0 0.3125 0  0.06241512449940572 0.3124936821330187 0  0.1248270649386284 0.3124872314714492 0  0.1872325289793185 0.3124805257434213 0  0.2496280079210677 0.3124734662437003 0  0.3120096670125576 0.3124659958061997 0  0.3743732364920743 0.3124581248112459 0  0.4367139087104295 0.3124499687741601 0  0.4990262532468007 0.3124418014281592 0  0.5613041737279989 0.3124341269371642 0  0.6235409511842726 0.3124277730070396 0  0.6857294562346458 0.3124240016103742 0  0.7478626769064289 0.3124246235524952 0  0.8099348112497662 0.3124320850526299 0  0.8719433018421739 0.3124494688983526 0  0.9338922214579092 0.3124803201370115 0  0.9957969018810718 0.312528126655052 0  0 0.375 0  0.06240548007963964 0.3749926700809725 0  0.1248073898929768 0.3749851515327214 0  0.187202034894496 0.3749772631422941 0  0.2495854714307846 0.3749688412775352 0  0.3119533799259477 0.3749597556202388 0  0.3743009385101729 0.3749499344365747 0  0.436622703531546 0.3749394046107447 0  0.4989125111873123 0.3749283534187994 0  0.5611634276072092 0.3749172209270097 0  0.6233677955351796 0.3749068331792897 0  0.6855174563137215 0.3748985851291834 0  0.7476042650575601 0.3748946747430322 0  0.8096210537031576 0.3748983689986217 0  0.8715631961353464 0.3749142386887784 0  0.9334308093922681 0.3749482243513987 0  0.9952312353777824 0.3750073133970322 0  0 0.4375 0  0.06239940972675697 0.437491847587504 0  0.1247949875482222 0.4374834433410139 0  0.1871827630749911 0.4374745371479438 0  0.2495584867047862 0.4374648848797262 0  0.3119174847392082 0.4374542580145189 0  0.3742545110896641 0.4374424629858919 0  0.4365636003507865 0.4374293767616567 0  0.4988379344644011 0.4374150085718474 0  0.5610697475798042 0.437399602597308 0  0.6232503126289706 0.4373838027045222 0  0.6853700784453364 0.4373689066360156 0  0.7474190524310241 0.4373572388821906 0  0.8093875339361352 0.4373526570988909 0  0.8712672645522561 0.4373611517969515 0  0.933052933161726 0.4373913623715904 0  0.9947437587131971 0.4374545735926915 0  0 0.5 0  0.0623971712187162 0.4999912779621369 0  0.1247903875246843 0.4999822392430008 0  0.187175544161936 0.4999725608006351 0  0.2495482319795415 0.4999619086023291 0  0.3119035749329289 0.4999499368777985 0  0.3742360571363432 0.4999362951108244 0  0.4365393402374595 0.4999206493728051 0  0.4988060780266376 0.4999027294421202 0  0.5610277464887854 0.4998824211735103 0  0.6231945265786373 0.499859936231402 0  0.6852953053610855 0.499836109684235 0  0.747317894355541 0.4998128984461496 0  0.8092495812358617 0.4997941690526898 0  0.8710780821228551 0.4997868355559217 0  0.932792773591588 0.4998022489686377 0  0.9943857616342479 0.4998572912748701 0  0 0.5625 0  0.06239888179431816 0.5624910261788024 0  0.124793835357241 0.5624816773158747 0  0.1871807758051883 0.5624715623259435 0  0.2495552974586558 0.5624602582932018 0  0.3119124970178241 0.5624472956089771 0  0.3742467772737303 0.5624321461039257 0  0.4365516263292482 0.5624142188834015 0  0.4988193712285147 0.5623928737549306 0  0.561040914736961 0.5623674719424671 0  0.6232054856678174 0.562337501895867 0  0.6853004751222882 0.5623028503384676 0  0.7473114993566082 0.5622643430394126 0  0.8092229075515308 0.5622247603058135 0  0.8710189458848577 0.5621906158619069 0  0.9326854502276186 0.5621749530384896 0  0.9942109275159537 0.5622008963542056 0  0 0.625 0  0.0624045082883769 0.6249911507291729 0  0.1248052709820926 0.6249818842866305 0  0.187198385572327 0.6249717576076184 0  0.2495796257566113 0.6249602740981987 0  0.3119442572929592 0.6249468526939693 0  0.3742868252593831 0.624930792561345 0  0.4366009007967047 0.6249112338060961 0  0.4988787756321192 0.6248871180452047 0  0.561111098827469 0.6248571608015154 0  0.6232864728702652 0.624819865789068 0  0.6853910877576385 0.6247736505703677 0  0.7474086097683692 0.6247172366136218 0  0.8093207890349581 0.6246506261776898 0  0.8711095195815178 0.6245772987587823 0  0.9327608173147824 0.6245086816438487 0  0.9942688031880219 0.6244718905803519 0  0 0.6875 0  0.06241386238404617 0.687491693859943 0  0.1248243172291156 0.6874829545682378 0  0.1872278081111376 0.6874733150156344 0  0.2496204693855173 0.6874622362927565 0  0.3119979454839195 0.6874490618254283 0  0.3743551747787498 0.687432958458616 0  0.436686119316487 0.6874128385159752 0  0.498983416240478 0.6873872562356359 0  0.5612379239784577 0.6873542732798229 0  0.6234381492155231 0.6873112955971734 0  0.6855696070538634 0.6872549096335625 0  0.7476143815611812 0.6871808218872733 0  0.8095517121119467 0.6870842184430581 0  0.8713615663748375 0.6869614307085748 0  0.9330344249482362 0.6868151836569686 0  0.994587990861352 0.6866680957634856 0  0 0.75 0  0.06242660253278626 0.7499926716380734 0  0.1248502819930757 0.7499849284306221 0  0.1872679836236143 0.7499763173925382 0  0.2496763778943061 0.7499663036742195 0  0.3120716966883115 0.7499542149101783 0  0.374449532076723 0.7499391648880696 0  0.43680457448385 0.7499199439765677 0  0.4991302548178564 0.7498948575459606 0  0.5614182375266721 0.7498614840814681 0  0.623657694592886 0.7498163109390094 0  0.6858343085114105 0.7497541889798651 0  0.7479291392644934 0.7496675405721037 0  0.8099182880113095 0.7495453253952244 0  0.8717769185064043 0.7493722177397224 0  0.933497832875204 0.7491305915493722 0  0.9951410068260761 0.748817391440828 0  0 0.8125 0  0.0624422437110416 0.8124940658082558 0  0.124882177020908 0.8124877736072186 0  0.187317383741471 0.8124807286223709 0  0.2497452264574292 0.8124724563216578 0  0.3121627133688332 0.8124623458583939 0  0.3745663322970177 0.8124495691863571 0  0.4369518290720983 0.8124329591575942 0  0.499313890925102 0.812410819218223 0  0.5616456633105028 0.8123806181190484 0  0.6239379680434962 0.8123384876369298 0  0.6861779895872639 0.8122783728617892 0  0.7483470965995165 0.8121905443521518 0  0.8104177575676785 0.8120588801181066 0  0.8723523406210244 0.8118556973170408 0  0.934122122802353 0.8115320253063584 0  0.9958362912419128 0.8110039199299641 0  0 0.875 0  0.06246017539801023 0.8749958195532214 0  0.1249187545172367 0.874991375130733 0  0.1873740679296799 0.8749863735654096 0  0.2498242933289314 0.8749804578993258 0  0.3122673638586114 0.8749731608534146 0  0.3747008540608517 0.8749638364739162 0  0.4371218270727929 0.8749515540078241 0  0.4995266121431151 0.8749349267783385 0  0.5619104474948122 0.874911827859939 0  0.6242668398349049 0.8748789042589681 0  0.6865862789499944 0.8748307202314805 0  0.7488534009952145 0.8747581784597989 0  0.8110403515640957 0.8746453867922777 0  0.8730912662057699 0.8744626023177002 0  0.9348907426088087 0.8741471936336344 0  0.9962515435077688 0.8735401779763482 0  0 0.9375 0  0.06247968713217473 0.9374978388403273 0  0.1249585603351448 0.9374955373754097 0  0.1874357688742708 0.9374929390948687 0  0.2499103853558572 0.9374898519197122 0  0.3123813605868425 0.9374860218174181 0  0.3748474686743444 0.9374810934364629 0  0.4373072355525638 0.93747
[...]
<PointData  Vectors="f_54"> 
<DataArray  type="Float64"  Name="f_54"  NumberOfComponents="3" format="ascii">0.0000000000000000e+00 0.0000000000000000e+00 0.0000000000000000e+00  0.0000000000000000e+00 0.0000000000000000e+00 0.0000000000000000e+00  0.0000000000000000e+00 0.0000000000000000e+00 0.0000000000000000e+00  0.0000000000000000e+00 0.0000000000000000e+00 0.0000000000000000e+00  0.0000000000000000e+00 0.0000000000000000e+00 0.0000000000000000e+00  0.0000000000000000e+00 0.0000000000000000e+00 0.0000000000000000e+00  0.0000000000000000e+00 0.0000000000000000e+00 0.0000000000000000e+00  0.0000000000000000e+00 0.0000000000000000e+00 0.0000000000000000e+00  0.0000000000000000e+00 0.0000000000000000e+00 0.0000000000000000e+00  0.0000000000000000e+00 0.0000000000000000e+00 0.0000000000000000e+00  0.0000000000000000e+00 0.0000000000000000e+00 0.0000000000000000e+00  0.0000000000000000e+00 0.0000000000000000e+00 0.0000000000000000e+00  0.0000000000000000e+00 0.0000000000000000e+00 0.0000000000000000e+00  0.0000000000000000e+00 0.0000000000000000e+00 0.0000000000000000e+00  0.0000000000000000e+00 0.0000000000000000e+00 0.0000000000000000e+00  0.0000000000000000e+00 0.0000000000000000e+00 0.0000000000000000e+00  0.0000000000000000e+00 0.0000000000000000e+00 0.0000000000000000e+00  0.0000000000000000e+00 0.0000000000000000e+00 0.0000000000000000e+00  4.1433515118005257e-06 -3.9111869581074853e-08 0.0000000000000000e+00  8.4076646257621974e-06 -7.9179917664686727e-08 0.0000000000000000e+00  1.2913849041718542e-05 -1.2115060876759902e-07 0.0000000000000000e+00  1.7782001160783448e-05 -1.6595158570578293e-07 0.0000000000000000e+00  2.3129848274183563e-05 -2.1449383198731750e-07 0.0000000000000000e+00  2.9069801232175068e-05 -2.6770051133470761e-07 0.0000000000000000e+00  3.5704206539790102e-05 -3.2659955558624558e-07 0.0000000000000000e+00  4.3118619460349528e-05 -3.9255944408249562e-07 0.0000000000000000e+00  5.1373583005531199e-05 -4.6783942383540140e-07 0.0000000000000000e+00  6.0497162979779602e-05 -5.5684221544110611e-07 0.0000000000000000e+00  7.0485284613192145e-05 -6.6903682137142185e-07 0.0000000000000000e+00  8.1330937323866577e-05 -8.2630764230957817e-07 0.0000000000000000e+00  9.3148366025261922e-05 -1.0838044595955938e-06 0.0000000000000000e+00  1.0661680145358234e-04 -1.5981888213689174e-06 0.0000000000000000e+00  1.2456465423595544e-04 -2.8814771639600595e-06 0.0000000000000000e+00  1.5778549594481592e-04 -6.8182097923734604e-06 0.0000000000000000e+00  0.0000000000000000e+00 0.0000000000000000e+00 0.0000000000000000e+00  8.1629132577945740e-06 -7.7240971001806189e-08 0.0000000000000000e+00  1.6567598366024321e-05 -1.5640249439910193e-07 0.0000000000000000e+00  2.5456136136993600e-05 -2.3938232155211732e-07 0.0000000000000000e+00  3.5069841866988250e-05 -3.2803010687449187e-07 0.0000000000000000e+00  4.5646592517894622e-05 -4.2413479374885812e-07 0.0000000000000000e+00  5.7415317446299707e-05 -5.2944477143351247e-07 0.0000000000000000e+00  7.0586669527159508e-05 -6.4577265695554850e-07 0.0000000000000000e+00  8.5339097278462633e-05 -7.7529332620576563e-07 0.0000000000000000e+00  1.0180019822039483e-04 -9.2125079333622844e-07 0.0000000000000000e+00  1.2002483598522816e-04 -1.0894834912633057e-06 0.0000000000000000e+00  1.3997490627630835e-04 -1.2914899824810649e-06 0.0000000000000000e+00  1.6151196425593251e-04 -1.5500319836119435e-06 0.0000000000000000e+00  1.8442198095043109e-04 -1.9070352627846599e-06 0.0000000000000000e+00  2.0847920883172637e-04 -2.4217472388703243e-06 0.0000000000000000e+00  2.3337210026921136e-04 -3.0749076242426907e-06 0.0000000000000000e+00  2.5709620754813147e-04 -3.0996001624437117e-06 0.0000000000000000e+00  0.0000000000000000e+00 0.0000000000000000e+00 0.0000000000000000e+00  1.1937784351363277e-05 -1.1342218518433940e-07 0.0000000000000000e+00  2.4237758479182143e-05 -2.2975175522014817e-07 0.0000000000000000e+00  3.7263627979430215e-05 -3.5185761126016261e-07 0.0000000000000000e+00  5.1380162237703889e-05 -4.8252065131514707e-07 0.0000000000000000e+00  6.6950367803267756e-05 -6.2438373604247074e-07 0.0000000000000000e+00  8.4328379724262758e-05 -7.7991117889582304e-07 0.0000000000000000e+00  1.0384632921944425e-04 -9.5139690510015964e-07 0.0000000000000000e+00  1.2579337137309297e-04 -1.1411086261312659e-06 0.0000000000000000e+00  1.5038524211231699e-04 -1.3517403785870557e-06 0.0000000000000000e+00  1.7772332897352612e-04 -1.5874847468314486e-06 0.0000000000000000e+00  2.0774320842783535e-04 -1.8562370686658021e-06 0.0000000000000000e+00  2.4015266151001334e-04 -2.1736798551644217e-06 0.0000000000000000e+00  2.7435292845310292e-04 -2.5702825264418900e-06 0.0000000000000000e+00  3.0930733092518557e-04 -3.1040306648017244e-06 0.0000000000000000e+00  3.4323083450125172e-04 -3.8992193777242515e-06 0.0000000000000000e+00  3.7283693439336762e-04 -5.3689500414114396e-06 0.0000000000000000e+00  0.0000000000000000e+00 0.0000000000000000e+00 0.0000000000000000e+00  1.5347483012278883e-05 -1.4666824076652532e-07 0.0000000000000000e+00  3.1176065633209372e-05 -2.9726977735919877e-07 0.0000000000000000e+00  4.7970809461594931e-05 -4.5568778049474048e-07 0.0000000000000000e+00  6.6222317345834348e-05 -6.2568110821275485e-07 0.0000000000000000e+00  8.6425292256330627e-05 -8.1078345038259253e-07 0.0000000000000000e+00  1.0907155178640193e-04 -1.0141632228041925e-06 0.0000000000000000e+00  1.3463491401416200e-04 -1.2384483550302190e-06 0.0000000000000000e+00  1.6354486867686208e-04 -1.4855454906128826e-06 0.0000000000000000e+00  1.9614551294141165e-04 -1.7565290878368819e-06 0.0000000000000000e+00  2.3263597738238463e-04 -2.0517519410132616e-06 0.0000000000000000e+00  2.7298844027249218e-04 -2.3714447740695722e-06 0.0000000000000000e+00  3.1683915691301938e-04 -2.7172492470093860e-06 0.0000000000000000e+00  3.6334463870424188e-04 -3.0954668412641813e-06 0.0000000000000000e+00  4.1098555763683704e-04 -3.5237110256839549e-06 0.0000000000000000e+00  4.5728599084813882e-04 -4.0445160480137937e-06 0.0000000000000000e+00  4.9842884145195681e-04 -4.7411930911450384e-06 0.0000000000000000e+00  0.0000000000000000e+00 0.0000000000000000e+00 0.0000000000000000e+00  1.8273057647128413e-05 -1.7595297471362949e-07 0.0000000000000000e+00  3.7142219586327601e-05 -3.5691645603566194e-07 0.0000000000000000e+00  5.7211535885382298e-05 -5.4785498364399189e-07 0.0000000000000000e+00  7.9098420865331403e-05 -7.5360292449602672e-07 0.0000000000000000e+00  1.0343569519479335e-04 -9.7872150944038962e-07 0.0000000000000000e+00  1.3086728767439489e-04 -1.2272555230227898e-06 0.0000000000000000e+00  1.6203423330930813e-04 -1.5023465347574614e-06 0.0000000000000000e+00  1.9754657719333636e-04 -1.8056544583433752e-06 0.0000000000000000e+00  2.3793565029388782e-04 -2.1365371842764279e-06 0.0000000000000000e+00  2.8358015200611513e-04 -2.4909417927813351e-06 0.0000000000000000e+00  3.3459896142583269e-04 -2.8599723659950695e-06 0.0000000000000000e+00  3.9070427517220823e-04 -3.2281155829109861e-06 0.0000000000000000e+00  4.5101177479604543e-04 -3.5710869979770569e-06 0.0000000000000000e+00  5.1381318516361980e-04 -3.8529225400136381e-06 0.0000000000000000e+00  5.7634028668862960e-04 -4.0196249746240572e-06 0.0000000000000000e+00  6.3461483463776020e-04 -3.9749163155844721e-06 0.0000000000000000e+00  0.0000000000000000e+00 0.0000000000000000e+00 0.0000000000000000e+00  2.0599478203137266e-05 -2.0019894318763223e-07 0.0000000000000000e+00  4.1902171401689845e-05 -4.0653284036639660e-07 0.0000000000000000e+00  6.4624886868877948e-05 -6.2512439602892082e-07 0.0000000000000000e+00  8.9509321822227341e-05 -8.6202306157754960e-07 0.0000000000000000e+00  1.1733011410159632e-04 -1.1230575678440734e-06 0.0000000000000000e+00  1.4889656996379719e-04 -1.4135333171079763e-06 0.0000000000000000e+00  1.8504416977792337e-04 -1.7376842196277255e-06 0.0000000000000000e+00  2.2661030894858430e-04 -2.0977510344045507e-06 0.0000000000000000e+00  2.7438667727962263e-04 -2.4925062844523988e-06 0.0000000000000000e+00  3.2903849686489512e-04 -2.9149765766661332e-06 0.0000000000000000e+00  3.9097928317941754e-04 -3.3490247505566089e-06 0.0000000000000000e+00  4.6019049739159939e-04 -3.7643509063061731e-06 0.0000000000000000e+00  5.3598148275544840e-04 -4.1093863491963138e-06 0.0000000000000000e+00  6.1670150071300978e-04 -4.3016503620338398e-06 0.0000000000000000e+00  6.9944957128448759e-04 -4.2161900711578391e-06 0.0000000000000000e+00  7.7988529032806250e-04 -3.6786572675280811e-06 0.0000000000000000e+00  0.0000000000000000e+00 0.0000000000000000e+00 0.0000000000000000e+00  2.2219621574013229e-05 -2.1828132381159706e-07 0.0000000000000000e+00  4.5235960036295540e-05 -4.4383505322631819e-07 0.0000000000000000e+00  6.9866494970549151e-05 -6.8399575667795638e-07 0.0000000000000000e+00  9.6968636771571477e-05 -9.4617181916316829e-07 0.0000000000000000e+00  1.2745646435030207e-04 -1.2377585117708720e-06 0.0000000000000000e+00  1.6231234466649030e-04 -1.5658674574939383e-06 0.0000000000000000e+00  2.0258948393322312e-04 -1.9367473997137232e-06 0.0000000000000000e+00  2.4939916530803536e-04 -2.3547044447892222e-06 0.0000000000000000e+00  3.0387321208219910e-04 -2.8202318614993839e-06 0.0000000000000000e+00  3.6708816010456525e-04 -3.3269208069537444e-06 0.0000000000000000e+00  4.3993340947412794e-04 -3.8565329276002947e-06 0.0000000000000000e+00  5.2290320961847158e-04 -4.3713614209178580e-06 0.0000000000000000e+00  6.1579586033733993e-04 -4.8026918595696788e-06 0.0000000000000000e+00  7.1731986416299106e-04 -5.0339162659213103e-06 0.0000000000000000e+00  8.2464376850822528e-04 -4.8772625253568620e-06 0.0000000000000000e+00  9.3298492012303992e-04 -4.0460586261187851e-06 0.0000000000000000e+00  0.0000000000000000e+00 0.0000000000000000e+00 0.0000000000000000e+00  2.3039986861283397e-05 -2.2906206166211038e-07 0.0000000000000000e+00  4.6949278694461423e-05 -4.6647135485822041e-07 0.0000000000000000e+00  7.2626148853327903e-05 -7.2075589599684284e-07 0.0000000000000000e+00  1.0102642036257620e-04 -1.0007658611859626e-06 0.0000000000000000e+00  1.3319127698569123e-04 -1.3157294235326985e-06 0.0000000000000000e+00  1.7027267676738268e-04 -1.6751403663932534e-06 0.0000000000000000e+00  2.1355317082794923e-04 -2.0883421957616752e-06 0.0000000000000000e+00  2.6445414293771620e-04 -2.5635860040393527e-06 0.0000000000000000e+00  3.2452206609258789e-04 -3.1062057198389316e-06 0.0000000000000000e+00  3.9537582013140479e-04 -3.7153593071372049e-06 0.0000000000000000e+00  4.7858934146580948e-04 -4.3785071288925374e-06 0.0000000000000000e+00  5.7547418135635027e-04 -5.0623936722371759e-06 0.0000000000000000e+00  6.8672046188450366e-04 -5.6986371430076535e-06 0.0000000000000000e+00  8.1186246946292763e-04 -6.1608067139118077e-06 0.0000000000000000e+00  9.4857321393906858e-04 -6.2277303588862937e-06 0.0000000000000000e+00  1.0918740002140432e-03 -5.5258807036701020e-06 0.0000000000000000e+00  0.0000000000000000e+00 0.0000000000000000e+00 0.0000000000000000e+00  2.2988003696134613e-05 -2.3146553713106263e-07 0.0000000000000000e+00  4.6888586794644588e-05 -4.7216995048470524e-07 0.0000000000000000e+00  7.2651645345010957e-05 -7.3168748136962414e-07 0.0000000000000000e+00  1.0130298409292618e-04 -1.0202494255689201e-06 0.0000000000000000e+00  1.3398466993787248e-04 -1.3490239278114279e-06 0.0000000000000000e+00  1.7199736664943907e-04 -1.7302978288553594e-06 0.0000000000000000e+00  2.1684335173316683e-04 -2.1774493182919935e-06 0.0000000000000000e+00  2.7026616903329969e-04 -2.7045056498005607e-06 0.0000000000000000e+00  3.3427780239622868e-04 -3.3249278523666221e-06 0.0000000000000000e+00  4.1115538859320505e-04 -4.0490362376300669e-06 0.0000000000000000e+00  5.0337499989358298e-04 -4.8791755316283080e-06 0.0000000000000000e+00  6.1342869079705764e-04 -5.8012983425846441e-06 0.0000000000000000e+00  7.4344510862005102e-04 -6.7709567511815136e-06 0.0000000000000000e+00  8.9451604025339137e-04 -7.6898747509078346e-06 0.0000000000000000e+00  1.0656548757497347e-03 -8.3634593685370338e-06 0.0000000000000000e+00  1.2524366501756353e-03 -8.4146111370994441e-06 0.0000000000000000e+00  0.0000000000000000e+00 0.0000000000000000e+00 0.0000000000000000e+00  2.2020434764159257e-05 -2.2459928126523013e-07 0.0000000000000000e+00  4.4958826787597775e-05 -4.5898879215789496e-07 0.0000000000000000e+00  6.9777659838456870e-05 -7.1346258965960092e-07 0.0000000000000000e+00  9.7531675926061933e-05 -9.9934732542120063e-07 0.0000000000000000e+00  1.2942056402003453e-04 -1.3295621184860836e-06 0.0000000000000000e+00  1.6684941167811160e-04 -1.7192062525108824e-06 0.0000000000000000e+00  2.1149886184012855e-04 -2.1861279617998640e-06 0.0000000000000000e+00  2.6540523157439234e-04 -2.7513452205285892e-06 0.0000000000000000e+00  3.3104668191998146e-04 -3.4390380690052439e-06 0.0000000000000000e+00  4.1142231769516639e-04 -4.2755845451618209e-06 0.0000000000000000e+00  5.1009241299196134e-04 -5.2867823582854540e-06 0.0000000000000000e+00  6.3111321040409344e-04 -6.4921360132987868e-06 0.0000000000000000e+00  7.7874227755225431e-04 -7.8952618123464352e-06 0.0000000000000000e+00  9.5671369013503179e-04 -9.4700321052328916e-06 0.0000000000000000e+00  1.1668299586079746e-03 -1.1138066484708159e-05 0.0000000000000000e+00  1.4067310382279764e-03 -1.2696510821484169e-05 0.0000000000000000e+00  0.0000000000000000e+00 0.0000000000000000e+00 0.0000000000000000e+00  2.0131955770924889e-05 -2.0791129568946682e-07 0.0000000000000000e+00  4.1141896966590349e-05 -4.2565258481375663e-07 0.0000000000000000e+00  6.3956866266926541e-05 -6.6370534522266432e-07 0.0000000000000000e+00  8.9607079219123473e-05 -9.3392421207712237e-07 0.0000000000000000e+00  1.1928832348734986e-04 -1.2503818123350682e-06 0.0000000000000000e+00  1.5443843318293829e-04 -1.6304086105001175e-06 0.0000000000000000e+00  1.9683414346951419e-04 -2.0958875160373992e-06 0.0000000000000000e+00  2.4871539889593055e-04 -2.6748215884294615e-06 0.0000000000000000e+00  3.1294356909955827e-04 -3.4030715554368788e-06 0.0000000000000000e+00  3.9319512017737103e-04 -4.3258819307771314e-06 0.0000000000000000e+00  4.9417651189622759e-04 -5.4983218843930865e-06 0.0000000000000000e+00  6.2180569888702064e-04 -6.9832967991578442e-06 0.0000000000000000e+00  7.8321541194435143e-04 -8.8468882267585775e-06 0.0000000000000000e+00  9.8625847249597556e-04 -1.1158967351809413e-05 0.0000000000000000e+00  1.2379288834633590e-03 -1.4034443532887204e-05 0.0000000000000000e+00  1.5409390515144070e-03 -1.7790379355170324e-05 0.0000000000000000e+00  0.0000000000000000e+00 0.0000000000000000e+00 0.0000000000000000e+00  1.7362595740728505e-05 -1.8136148824666500e-07 0.0000000000000000e+00  3.5513114044028904e-05 -3.7193079815480285e-07 0.0000000000000000e+00  5.5288855570788285e-05 -5.8165227050232235e-07 0.0000000000000000e+00  7.7632243150204443e-05 -8.2205432394583017e-07 0.0000000000000000e+00  1.0365745013389895e-04 -1.1073100923206055e-06 0.0000000000000000e+00  1.3473637338851452e-04 -1.4556679454528229e-06 0.0000000000000000e+00  1.7261480454444010e-04 -1.8914520326050914e-06 0.0000000000000000e+00  2.1957406943611351e-04 -2.4478802807616757e-06 0.0000000000000000e+00  2.7865931041311828e-04 -3.1709337047343152e-06 0.0000000000000000e+00  3.5400183856155266e-04 -4.1242638848864381e-06 0.0000000000000000e+00  4.5126462346953576e-04 -5.3942310978917228e-06 0.0000000000000000e+00  5.7822118381863573e-04 -7.0919076476568674e-06 0.0000000000000000e+00  7.4539508257700420e-04 -9.3452988557952757e-06 0.0000000000000000e+00  9.6643308191224602e-04 -1.2278707028625213e-05 0.0000000000000000e+00  1.2572510087802235e-03 -1.6044393974050619e-05 0.0000000000000000e+00  1.6318796111380296e-03 -2.1389340291620682e-05 0.0000000000000000e+00  0.0000000000000000e+00 0.0000000000000000e+00 0.0000000000000000e+00  1.3802454932585895e-05 -1.4557196573786176e-07 0.0000000000000000e+00  2.8252222504437418e-05 -2.9898061078375348e-07 0.0000000000000000e+00  4.4040977554692073e-05 -4.6878277890394209e-07 0.0000000000000000e+00  6.1955763751426170e-05 -6.6510863554379566e-07 0.0000000000000000e+00  8.2941754734248383e-05 -9.0078420601656151e-07 0.0000000000000000e+00  1.0818657001686711e-04 -1.1929488418036840e-06 0.0000000000000000e+00  1.3924001764990967e-04 -1.5655092698390682e-06 0.0000000000000000e+00  1.7819114725332468e-04 -2.0529683333601828e-06 0.0000000000000000e+00  2.2793807125839893e-04 -2.7064370550447944e-06 0.0000000000000000e+00  2.9260855738837864e-04 -3.6028456997583464e-06 0.0000000000000000e+00  3.7822514940967381e-04 -4.8578030858035450e-06 0.0000000000000000e+00  4.9375835242636843e-04 -6.6384319390682672e-06 0.0000000000000000e+00  6.5275212154982775e-04 -9.1552566492608709e-06 0.0000000000000000e+00  8.7560572637509332e-04 -1.2552415331267504e-05 0.0000000000000000e+00  1.1917622456520905e-03 -1.6436938970309027e-05 0.0000000000000000e+00  1.6366488013469761e-03 -1.8378556408136968e-05 0.0000000000000000e+00  0.0000000000000000e+00 0.0000000000000000e+00 0.0000000000000000e+00  9.5921316116854466e-06 -1.0191378437382042e-07 0.0000000000000000e+00  1.9645408033882282e-05 -2.0955966518443968e-07 0.0000000000000000e+00  3.0654689018307560e-05 -3.2925025035314156e-07 0.0000000000000000e+00  4.3187841488540204e-05 -4.6858159447753070e-07 0.0000000000000000e+00  5.7935154252939130e-05 -6.3739405224814598e-07 0.0000000000000000e+00  7.5777734463650437e-05 -8.4922901842371857e-07 0.0000000000000000e+00  9.7888269421503128e-05 -1.1236882056123436e-06 0.0000000000000000e+00  1.2588685505392639e-04 -1.4904482452798300e-06 0.0000000000000000e+00  1.6209223554599099e-04 -1.9963789079343590e-06 0.0000000000000000e+00  2.0994310508090755e-04 -2.7186050324433448e-06 0.0000000000000000e+00  2.7473305155147277e-04 -3.7889862905841000e-06 0.0000000000000000e+00  3.6494636247431342e-04 -5.4394099301939775e-06 0.0000000000000000e+00  4.9479442330902228e-04 -8.0766524428164688e-06 0.0000000000000000e+00  6.8927671360803709e-04 -1.2348020050144116e-05 0.0000000000000000e+00  9.9498989894367920e-04 -1.8826882872885170e-05 0.0000000000000000e+00  1.5065660029087284e-03 -2.5014983833075064e-05 0.0000000000000000e+00  0.0000000000000000e+00 0.0000000000000000e+00 0.0000000000000000e+00  4.9177078832107565e-06 -5.2490991911523810e-08 0.0000000000000000e+00  1.0075576056407969e-05 -1.0801632111526102e-07 0.0000000000000000e+00  1.5732038336294098e-05 -1.6993618830610356e-07 0.0000000000000000e+00  2.2185279642443189e-05 -2.4233691294064216e-07 0.0000000000000000e+00  2.9800625499311332e-05 -3.3059207380837352e-07 0.0000000000000000e+00  3.9049173296344632e-05 -4.4224330459889538e-07 0.0000000000000000e+00  5.0566035747984668e-05 -5.8849541380799102e-07 0.0000000000000000e+00  6.5243006996870828e-05 -7.8693546575254922e-07 0.0000000000000000e+00  8.4383365531870880e-05 -1.0668511212541992e-06 0.0000000000000000e+00  1.0997344410257223e-04 -1.4805468701779818e-06 0.0000000000000000e+00  1.4518433010821816e-04 -2.1298941599308623e-06 0.0000000000000000e+00  1.9535060133808518e-04 -3.2356530572329197e-06 0.0000000000000000e+00  2.6998331554024905e-04 -5.3386967731668209e-06 0.0000000000000000e+00  3.8706654133275828e-04 -9.9398794433738503e-06 0.0000000000000000e+00  5.8200454434443499e-04 -2.1653287036016924e-05 0.0000000000000000e+00  9.2112706080220723e-04 -5.5206723589053584e-05 0.0000000000000000e+00  0.0000000000000000e+00 0.0000000000000000e+00 0.0000000000000000e+00  0.0000000000000000e+00 0.0000000000000000e+00 0.0000000000000000e+00  0.0000000000000000e+00 0.0000000000000000e+00 0.0000000000000000e+00  0.0000000000000000e+00 0.0000000000000000e+00 0.0000000000000000e+00  0.0000000000000000e+00 0.0000000000000000e+00 0.0000000000000000e+00  0.0000000000000000e+00 0.0000000000000000e+00 0.0000000000000000e+00  0.0000000000000000e+00 0.0000000000000000e+00 0.0000000000000000e+00  0.0000000000000000e+00 0.0000000000000000e+00 0.0000000000000000e+00  0.0000000000000000e+00 0.0000000000000000e+00 0.0000