<?xml version="1.0"?>
<VTKFile type="UnstructuredGrid"  version="0.1"  >
<UnstructuredGrid>
<Piece  NumberOfPoints="289" NumberOfCells="512">
<Points>
<DataArray  type="Float64"  NumberOfComponents="3"  format="ascii">0 0 0  0.0625 0 0  0.125 0 0  0.1875 0 0  0.25 0 0  0.3125 0 0  0.375 0 0  0.4375 0 0  0.5 0 0  0.5625 0 0  0.625 0 0  0.6875 0 0  0.75 0 0  0.8125 0 0  0.875 0 0  0.9375 0 0  1 0 0  0 0.0625 0  0.06244294035593214 0.06249878777959724 0  0.1248841289025146 0.06249756068041758 0  0.1873218001994508 0.06249630732277829 0  0.2497541676039688 0.06249502387847101 0  0.3121794227576206 0.06249371919319455 0  0.3745957460908993 0.06249242158643489 0  0.4370013286346369 0.06249118799420124 0  0.4993943981367241 0.06249011628368212 0  0.5617732238146818 0.06248936213370537 0  0.6241360258074664 0.06248916405916809 0  0.6864805839542464 0.06248988865906726 0  0.7488029528370895 0.0624921415842602 0  0.8110934351516239 0.0624971252705564 0  0.8733235125013142 0.06250799993837955 0  0.9354003322631694 0.06253557527851276 0  0.9969964712692737 0.06262384192579133 0  0 0.125 0  0.06238767843222311 0.1249975911408132 0  0.1247718729145257 0.1249951490725704 0  0.1871490692328525 0.1249926470500944 0  0.2495157049375359 0.1249900723351918 0  0.3118681667886827 0.1249874358258522 0  0.3742028135101365 0.1249847849502037 0  0.4365160293967436 0.1249822210486891 0  0.49880430687034 0.1249799224849933 0  0.5610643376045411 0.1249781746549578 0  0.6232930498307686 0.1249774078658825 0  0.6854874392112055 0.1249782431974336 0  0.747643861804599 0.1249815399117905 0  0.8097561823362009 0.124988391507038 0  0.8718122552936514 0.1249997257875089 0  0.9337923506813735 0.1250134588836468 0  0.995704360473622 0.1250074655209057 0  0 0.1875 0  0.06233594921887226 0.1874964284173271 0  0.1246667177209079 0.1874927988729209 0  0.1869870704945844 0.1874890618016379 0  0.2492916821707185 0.1874851859849891 0  0.3115751257809499 0.1874811715216799 0  0.3738319040777082 0.1874770675694373 0  0.4360565393043866 0.1874729966882036 0  0.4982437357000129 0.187469187531037 0  0.5603886227026793 0.1874660170008125 0  0.622487073557861 0.1874640610955816 0  0.6845360774701025 0.1874641488737793 0  0.7465341547643086 0.1874674024915213 0  0.8084819758028372 0.1874752211840871 0  0.8703841177290552 0.1874891371843384 0  0.9322553862279106 0.1875106698649778 0  0.994139910889244 0.1875438183594798 0  0 0.25 0  0.06228945285040053 0.2499953243691508 0  0.1245720869885594 0.2499905576670464 0  0.1868409934461785 0.2499856176734936 0  0.2490891056242539 0.2499804418051677 0  0.3113091655158818 0.2499750017138739 0  0.3734937494731195 0.249969324046285 0  0.4356353820055245 0.2499635200055275 0  0.4977267724903291 0.2499578265284507 0  0.5597612167161539 0.2499526614615811 0  0.621733214193734 0.2499486932171455 0  0.6836393707867503 0.2499469205012729 0  0.7454797099366965 0.2499487477827545 0  0.8072596698909297 0.2499560268590344 0  0.8689934400763487 0.2499710255066305 0  0.9307099459948441 0.2499963257808434 0  0.9924629888376635 0.2500347169085801 0  0 0.3125 0  0.06224983032055698 0.3124943121268859 0  0.124491298423044 0.3124884912654893 0  0.186715900069764 0.3124824118990567 0  0.2489148718862871 0.312475965602157 0  0.3110791133968859 0.3124690749794539 0  0.3731991805685257 0.312461714830115 0  0.4352653909429716 0.3124539441643138 0  0.4972680948423954 0.3124459535818194 0  0.5591981852966242 0.3124381331716527 0  0.6210479408398673 0.3124311656981785 0  0.6828123195655192 0.3124261467761061 0  0.7444908489836919 0.3124247251849721 0  0.8060902791171323 0.3124292383159347 0  0.867628151468361 0.3124427841985796 0  0.9291372241777408 0.312469105348325 0  0.9906697414047003 0.3125119621605595 0  0 0.375 0  0.06221862692100711 0.3749934336484507 0  0.1244274945809592 0.3749866849744169 0  0.1866166321148012 0.374979575719342 0  0.2487756683567167 0.3749719378395271 0  0.3108936817280852 0.374963623963994 0  0.3729591235112487 0.3749545253954925 0  0.4349598624377416 0.3749446021771061 0  0.4968834208417533 0.3749339317012891 0  0.5587175018150474 0.3749227848845709 0  0.6204509403370936 0.3749117416394542 0  0.6820752407260103 0.374901858773026 0  0.7435868674662768 0.374894899820286 0  0.8049903948523953 0.3748936200026831 0  0.8663024183719434 0.3749020579853009 0  0.9275556709431844 0.3749257091257948 0  0.9888019303535737 0.3749713809519337 0  0 0.4375 0  0.06219723970818138 0.4374927383276001 0  0.1243835398373289 0.4374852410079691 0  0.1865476629499831 0.4374772710928413 0  0.2486777916594874 0.4374685906715975 0  0.3107612757280909 0.4374589647174831 0  0.3727844395541318 0.4374481714971314 0  0.4347324993641336 0.4374360243823495 0  0.496589669657174 0.4374224129758827 0  0.5583395811991008 0.4374073763588426 0  0.6199661870000827 0.4373912285288121 0  0.6814553881916149 0.4373747654839185 0  0.7427976391427624 0.4373595918232702 0  0.803991727509063 0.4373486016135711 0  0.8650496659668003 0.4373466079368133 0  0.9260020647679045 0.4373609915550383 0  0.9869024903772503 0.4374019799545651 0  0 0.5 0  0.06218684714763722 0.4999922795585399 0  0.1243618784724168 0.4999842715471722 0  0.1865128828549376 0.4999756802159248 0  0.248626861542853 0.4999661941994781 0  0.310689644847723 0.4999554808167337 0  0.3726855374636269 0.4999431841848376 0  0.4345970332178822 0.4999289311169685 0  0.496404676632881 0.4999123524287879 0  0.5580872068264576 0.4998931340444323 0  0.6196222052378055 0.4998711243987745 0  0.6809875816147102 0.4998465450226567 0  0.7421643486978462 0.4998203816871816 0  0.8031411770600205 0.4997950677286596 0  0.8639210144249493 0.4997755757569368 0  0.9245293301153354 0.4997709125749248 0  0.9850221512634418 0.4997955815628303 0  0 0.5625 0  0.06218832221458793 0.5624921093299907 0  0.1243643552626487 0.5624838874836474 0  0.1865153165768541 0.5624749875873385 0  0.2486274217819656 0.5624650308284769 0  0.3106853541454734 0.5624535892584882 0  0.3726717104633509 0.562440167820616 0  0.4345664418199083 0.5624241870541916 0  0.4963463447428045 0.5624049708657682 0  0.557984727165916 0.5623817503050698 0  0.6194514949467792 0.5623537085088992 0  0.6807141031805762 0.5623201217883275 0  0.741740103714853 0.5622807106089566 0  0.8025023390646657 0.562236417503245 0  0.8629879277816986 0.5621909687835425 0  0.923211401618517 0.5621536298003769 0  0.9832296393965744 0.5621430939951482 0  0 0.625 0  0.06220213449267459 0.6249922712985039 0  0.124392008976515 0.6249841836873227 0  0.1865567866203282 0.6249753556604024 0  0.2486824408228049 0.6249653585054726 0  0.3107530805725719 0.6249536875614088 0  0.3727501826270994 0.6249397269299122 0  0.4346517099915651 0.6249227050389808 0  0.4964311214499865 0.6249016388474393 0  0.5580563387049934 0.6248752670017059 0  0.6194888748819437 0.6248419812140769 0  0.6806836092878172 0.6247997919424428 0  0.7415902195256096 0.6247464372831009 0  0.8021581382252175 0.6246799243236312 0  0.862347925336131 0.6246001818278117 0  0.9221520519008267 0.6245131300421337 0  0.9816241301981264 0.6244386270096917 0  0 0.6875 0  0.06222825174554518 0.6874927932253738 0  0.1244448599544574 0.6874852226190682 0  0.1866375541208682 0.6874768968998443 0  0.2487927531853567 0.6874673665824724 0  0.3108947790025 0.6874560862274179 0  0.3729249000016187 0.6874423646960381 0  0.4348601310903028 0.6874252963145624 0  0.496671711245866 0.6874036623355801 0  0.5583232005588048 0.6873757866975702 0  0.6197682322521036 0.6873393233329107 0  0.6809482355307444 0.6872909501536348 0  0.7417911541930996 0.6872259751162294 0  0.8022137704392205 0.6871380237137105 0  0.8621332519234418 0.6870195879287826 0  0.9214974742986476 0.6868660343296819 0  0.9803423615129588 0.6866892895809417 0  0 0.75 0  0.06226605617032884 0.7499936800410637 0  0.1245217238170171 0.7499870190261479 0  0.1867559890915045 0.7499796468922302 0  0.2489565162877565 0.7499711315347398 0  0.3111088161222256 0.7499609371589678 0  0.3731951797472103 0.7499483674488221 0  0.4351932477936126 0.7499324835214453 0  0.4970740325640445 0.7499119799370908 0  0.5587991481575569 0.7498849888240774 0  0.6203169553603332 0.7498487552834447 0  0.6815573993616476 0.7497990725419273 0  0.7424258351098577 0.7497292630448967 0  0.8027980208520661 0.7496283577322089 0  0.8625240216948835 0.7494782726150505 0  0.9214622104357484 0.7492521303613762 0  0.9795824819998631 0.74893025949618 0  0 0.8125 0  0.0623142937458773 0.8124949089688819 0  0.1246200914787048 0.8124895289346308 0  0.1869083388850443 0.8124835443164726 0  0.2491687906809389 0.8124765824458456 0  0.3113892321015974 0.8124681746773051 0  0.3735544387842815 0.8124577027582601 0  0.4356447058162728 0.812444320848504 0  0.4976336780523974 0.8124268372682473 0  0.5594850468315142 0.8124035269211473 0  0.6211474049528942 0.8123718145458597 0  0.6825461422818883 0.8123276879030227 0  0.7435708141209744 0.8122644693384066 0  0.8040566781943603 0.8121698981337773 0  0.863763738136087 0.8120185313339973 0  0.922381607796176 0.8117512556353393 0  0.9797028959787241 0.8112216259038428 0  0 0.875 0  0.0623710750893188 0.8749964279573821 0  0.1247361171673686 0.8749926458198505 0  0.1870886707207888 0.8749884232245081 0  0.2494213728051579 0.8749834862260927 0  0.3117253427843491 0.8749774875940339 0  0.3739893416750815 0.8749699661913194 0  0.4361985369346666 0.8749602893685944 0  0.4983325913123794 0.8749475703467046 0  0.5603625685287285 0.8749305508929053 0  0.6222457000700189 0.8749074395292773 0  0.68391613606409 0.8748756955103965 0  0.7452678505427142 0.874831717730413 0  0.8061216489191815 0.874770129077629 0  0.8661592045539519 0.8746807784226721 0  0.9247903577991931 0.8745338884610181 0  0.9809179298858274 0.8742075298613635 0  0 0.9375 0  0.06243394150956513 0.9374981581096284 0  0.1248647471063326 0.9374962055711085 0  0.1872890525031779 0.9374940207859009 0  0.249703000853417 0.9374914586212945 0  0.3121019056027111 0.9374883344704963 0  0.3744797772207066 0.9374844028303321 0  0.436828611240103 0
[...]
<PointData  Vectors="f_54"> 
<DataArray  type="Float64"  Name="f_54"  NumberOfComponents="3" format="ascii">0.0000000000000000e+00 0.0000000000000000e+00 0.0000000000000000e+00  0.0000000000000000e+00 0.0000000000000000e+00 0.0000000000000000e+00  0.0000000000000000e+00 0.0000000000000000e+00 0.0000000000000000e+00  0.0000000000000000e+00 0.0000000000000000e+00 0.0000000000000000e+00  0.0000000000000000e+00 0.0000000000000000e+00 0.0000000000000000e+00  0.0000000000000000e+00 0.0000000000000000e+00 0.0000000000000000e+00  0.0000000000000000e+00 0.0000000000000000e+00 0.0000000000000000e+00  0.0000000000000000e+00 0.0000000000000000e+00 0.0000000000000000e+00  0.0000000000000000e+00 0.0000000000000000e+00 0.0000000000000000e+00  0.0000000000000000e+00 0.0000000000000000e+00 0.0000000000000000e+00  0.0000000000000000e+00 0.0000000000000000e+00 0.0000000000000000e+00  0.0000000000000000e+00 0.0000000000000000e+00 0.0000000000000000e+00  0.0000000000000000e+00 0.0000000000000000e+00 0.0000000000000000e+00  0.0000000000000000e+00 0.0000000000000000e+00 0.0000000000000000e+00  0.0000000000000000e+00 0.0000000000000000e+00 0.0000000000000000e+00  0.0000000000000000e+00 0.0000000000000000e+00 0.0000000000000000e+00  0.0000000000000000e+00 0.0000000000000000e+00 0.0000000000000000e+00  0.0000000000000000e+00 0.0000000000000000e+00 0.0000000000000000e+00  2.4835725774056913e-06 4.2362172125389915e-09 0.0000000000000000e+00  5.0289039817582141e-06 9.1572909036002596e-09 0.0000000000000000e+00  7.6959810012525654e-06 1.5488801413546558e-08 0.0000000000000000e+00  1.0540737403431889e-05 2.4026506643505282e-08 0.0000000000000000e+00  1.3611885878242174e-05 3.5637419197435904e-08 0.0000000000000000e+00  1.6946332293919408e-05 5.1205319102084781e-08 0.0000000000000000e+00  2.0562626998964044e-05 7.1474615383605779e-08 0.0000000000000000e+00  2.4451848211141664e-05 9.6716473246354979e-08 0.0000000000000000e+00  2.8565187336402984e-05 1.2609306218640170e-07 0.0000000000000000e+00  3.2797128143945580e-05 1.5651386439191513e-07 0.0000000000000000e+00  3.6961890412079688e-05 1.8061790824888310e-07 0.0000000000000000e+00  4.0756953255515933e-05 1.8313704079681310e-07 0.0000000000000000e+00  4.3695414539197728e-05 1.3380885276378316e-07 0.0000000000000000e+00  4.4950326911550376e-05 -2.8643435331768753e-08 0.0000000000000000e+00  4.2925202709246673e-05 -4.4071559972009041e-07 0.0000000000000000e+00  3.3932473696975721e-05 -1.4597920737989887e-06 0.0000000000000000e+00  0.0000000000000000e+00 0.0000000000000000e+00 0.0000000000000000e+00  4.9007125990036295e-06 7.7786176995728674e-09 0.0000000000000000e+00  9.9262561251004980e-06 1.6881888254489768e-08 0.0000000000000000e+00  1.5198345862833159e-05 2.8726684344059200e-08 0.0000000000000000e+00  2.0831480414671746e-05 4.4896808032039802e-08 0.0000000000000000e+00  2.6927121882142977e-05 6.7172063930284697e-08 0.0000000000000000e+00  3.3565125738701936e-05 9.7465716274228528e-08 0.0000000000000000e+00  4.0791372399116504e-05 1.3759076389252814e-07 0.0000000000000000e+00  4.8600492159974838e-05 1.8872352116225408e-07 0.0000000000000000e+00  5.6912521683380651e-05 2.5035487600724819e-07 0.0000000000000000e+00  6.5542175812903709e-05 3.1840359767589298e-07 0.0000000000000000e+00  7.4158789905962488e-05 3.8199153052085050e-07 0.0000000000000000e+00  8.2232929111482962e-05 4.1811704616075581e-07 0.0000000000000000e+00  8.8960244955906093e-05 3.8314092389355453e-07 0.0000000000000000e+00  9.3142274626735087e-05 2.0028370982222385e-07 0.0000000000000000e+00  9.2995233608362065e-05 -2.5196112248640341e-07 0.0000000000000000e+00  8.5929238237623392e-05 -1.1062593360386406e-06 0.0000000000000000e+00  0.0000000000000000e+00 0.0000000000000000e+00 0.0000000000000000e+00  7.1883498770672949e-06 9.9862927776013651e-09 0.0000000000000000e+00  1.4567277767400926e-05 2.1840344525287177e-08 0.0000000000000000e+00  2.2323742587297690e-05 3.7590830358706437e-08 0.0000000000000000e+00  3.0636064035248698e-05 5.9573358231262661e-08 0.0000000000000000e+00  3.9666434503524268e-05 9.0533014358716513e-08 0.0000000000000000e+00  4.9549462574064945e-05 1.3363279536111758e-07 0.0000000000000000e+00  6.0375210115220264e-05 1.9227461641017335e-07 0.0000000000000000e+00  7.2165139662390171e-05 2.6957408030785119e-07 0.0000000000000000e+00  8.4839519121651677e-05 3.6723535498349528e-07 0.0000000000000000e+00  9.8175264172645213e-05 4.8344526823887038e-07 0.0000000000000000e+00  1.1175407607434397e-04 6.0924943679293179e-07 0.0000000000000000e+00  1.2490227111196443e-04 7.2269724417067676e-07 0.0000000000000000e+00  1.3662665496573322e-04 7.7982690739086782e-07 0.0000000000000000e+00  1.4555844593134819e-04 7.0099662263212244e-07 0.0000000000000000e+00  1.4994180668193298e-04 3.4786587446782473e-07 0.0000000000000000e+00  1.4778119591123498e-04 -5.3423837573205826e-07 0.0000000000000000e+00  0.0000000000000000e+00 0.0000000000000000e+00 0.0000000000000000e+00  9.2807368987512383e-06 1.0314396773905497e-08 0.0000000000000000e+00  1.8820979347853420e-05 2.2874088772689139e-08 0.0000000000000000e+00  2.8877312348367194e-05 4.0168724767742013e-08 0.0000000000000000e+00  3.9698757714803165e-05 6.5175255657212266e-08 0.0000000000000000e+00  5.1519039918815059e-05 1.0158367283952612e-07 0.0000000000000000e+00  6.4543821081430313e-05 1.5396795786021788e-07 0.0000000000000000e+00  7.8930832773847092e-05 2.2781914987587428e-07 0.0000000000000000e+00  9.4760707001471521e-05 3.2928496019153129e-07 0.0000000000000000e+00  1.1199649808602225e-04 4.6435306988351705e-07 0.0000000000000000e+00  1.3043074622066410e-04 6.3707474346274752e-07 0.0000000000000000e+00  1.4962101719968610e-04 8.4627784860303606e-07 0.0000000000000000e+00  1.6881900331733489e-04 1.0801431056943978e-06 0.0000000000000000e+00  1.8690576724236910e-04 1.3081919725363710e-06 0.0000000000000000e+00  2.0235847371435523e-04 1.4710182798383641e-06 0.0000000000000000e+00  2.1329408645317214e-04 1.4703940110604948e-06 0.0000000000000000e+00  2.1765937794030867e-04 1.1703509615623271e-06 0.0000000000000000e+00  0.0000000000000000e+00 0.0000000000000000e+00 0.0000000000000000e+00  1.1108914611159469e-05 8.3835704153635195e-09 0.0000000000000000e+00  2.2548726745591883e-05 1.9140718403745509e-08 0.0000000000000000e+00  3.4649598009947652e-05 3.4974192056150153e-08 0.0000000000000000e+00  4.7738318175433269e-05 5.9267713415985950e-08 0.0000000000000000e+00  6.2132161521979935e-05 9.6470998071592929e-08 0.0000000000000000e+00  7.8126910112362728e-05 1.5251302182176694e-07 0.0000000000000000e+00  9.5976366608484229e-05 2.3519836659898135e-07 0.0000000000000000e+00  1.1586027000421219e-04 3.5446949399717614e-07 0.0000000000000000e+00  1.3783742632587719e-04 5.2229742913738647e-07 0.0000000000000000e+00  1.6178157605736099e-04 7.5178478093201778e-07 0.0000000000000000e+00  1.8729987943372746e-04 1.0548471181081963e-06 0.0000000000000000e+00  2.1363914777087931e-04 1.4376793544204550e-06 0.0000000000000000e+00  2.3959458636971213e-04 1.8933851486766492e-06 0.0000000000000000e+00  2.6345093737260530e-04 2.3922614093920276e-06 0.0000000000000000e+00  2.8300543115560359e-04 2.8735561309875449e-06 0.0000000000000000e+00  2.9573941942935447e-04 3.2507751752731674e-06 0.0000000000000000e+00  0.0000000000000000e+00 0.0000000000000000e+00 0.0000000000000000e+00  1.2601397965455973e-05 4.0644800285211404e-09 0.0000000000000000e+00  2.5605324851401346e-05 1.0296465177551959e-08 0.0000000000000000e+00  3.9417406255698840e-05 2.1254909007831787e-08 0.0000000000000000e+00  5.4447594489570082e-05 4.0335460939619589e-08 0.0000000000000000e+00  7.1107820081445130e-05 7.2317548264048004e-08 0.0000000000000000e+00  8.9803482709299229e-05 1.2406006147535698e-07 0.0000000000000000e+00  1.1091549398987958e-04 2.0537036336204066e-07 0.0000000000000000e+00  1.3476863402006725e-04 3.3001554094588271e-07 0.0000000000000000e+00  1.6158110306697157e-04 5.1672205537073745e-07 0.0000000000000000e+00  1.9138986764214734e-04 7.8977676039211794e-07 0.0000000000000000e+00  2.2394773609637792e-04 1.1784600693692209e-06 0.0000000000000000e+00  2.5859275464523918e-04 1.7140298442116700e-06 0.0000000000000000e+00  2.9410083462891632e-04 2.4225248113138507e-06 0.0000000000000000e+00  3.2855070855589667e-04 3.3118057975540323e-06 0.0000000000000000e+00  3.5925612334890820e-04 4.3529134042733352e-06 0.0000000000000000e+00  3.8284692892443629e-04 5.4593095355648057e-06 0.0000000000000000e+00  0.0000000000000000e+00 0.0000000000000000e+00 0.0000000000000000e+00  1.3686377841880707e-05 -2.4359994388315200e-09 0.0000000000000000e+00  2.7843256416832429e-05 -3.3074130969665062e-09 0.0000000000000000e+00  4.2949686595818969e-05 -6.4953131672364907e-10 0.0000000000000000e+00  5.9500279124722118e-05 8.3874166520115632e-09 0.0000000000000000e+00  7.8009100359720092e-05 2.8197644307576977e-08 0.0000000000000000e+00  9.9007888704017084e-05 6.5666138948208808e-08 0.0000000000000000e+00  1.2303488794904917e-04 1.3152964350950751e-07 0.0000000000000000e+00  1.5060888910490807e-04 2.4227197564166354e-07 0.0000000000000000e+00  1.8218091341320572e-04 4.2259209123326794e-07 0.0000000000000000e+00  2.1805370266294934e-04 7.0823712001634321e-07 0.0000000000000000e+00  2.5825779193700796e-04 1.1484361541004218e-06 0.0000000000000000e+00  3.0237457292220198e-04 1.8061326525396828e-06 0.0000000000000000e+00  3.4930530644203066e-04 2.7526381737288600e-06 0.0000000000000000e+00  3.9700614257481121e-04 4.0516427258067135e-06 0.0000000000000000e+00  4.4224790919456257e-04 5.7272310156945089e-06 0.0000000000000000e+00  4.8051273499837179e-04 7.7147042156464739e-06 0.0000000000000000e+00  0.0000000000000000e+00 0.0000000000000000e+00 0.0000000000000000e+00  1.4295612561907802e-05 -1.0511257843705917e-08 0.0000000000000000e+00  2.9120490107753819e-05 -2.0466300002009095e-08 0.0000000000000000e+00  4.5019221815678859e-05 -2.8984634198205161e-08 0.0000000000000000e+00  6.2566197007533764e-05 -3.4432972193607068e-08 0.0000000000000000e+00  8.2378167085371651e-05 -3.3769921963005531e-08 0.0000000000000000e+00  1.0512281719290288e-04 -2.1485941628660401e-08 0.0000000000000000e+00  1.3151976133762256e-04 1.2113472764465796e-08 0.0000000000000000e+00  1.6232789095403769e-04 8.3620548382060583e-08 0.0000000000000000e+00  1.9830926910836263e-04 2.2062409169386879e-07 0.0000000000000000e+00  2.4015459706318976e-04 4.6747303865794645e-07 0.0000000000000000e+00  2.8834910254686176e-04 8.9243572526553013e-07 0.0000000000000000e+00  3.4295249521687710e-04 1.5945131500382315e-06 0.0000000000000000e+00  4.0326774283578769e-04 2.7051174279350760e-06 0.0000000000000000e+00  4.6739192426689425e-04 4.3749147423243312e-06 0.0000000000000000e+00  5.3169570578519201e-04 6.7309514235088721e-06 0.0000000000000000e+00  5.9037969439440616e-04 9.7894669726415810e-06 0.0000000000000000e+00  0.0000000000000000e+00 0.0000000000000000e+00 0.0000000000000000e+00  1.4369989156473975e-05 -1.9145793143356407e-08 0.0000000000000000e+00  2.9311903519312093e-05 -3.9072669552032421e-08 0.0000000000000000e+00  4.5420433376404454e-05 -6.0417096877534678e-08 0.0000000000000000e+00  6.3336034021687558e-05 -8.3428358104291725e-08 0.0000000000000000e+00  8.3768071313896684e-05 -1.0749995966439194e-07 0.0000000000000000e+00  1.0751719792415822e-04 -1.3025941926042212e-07 0.0000000000000000e+00  1.3549445324200252e-04 -1.4585673329149097e-07 0.0000000000000000e+00  1.6873166097873600e-04 -1.4186460960487448e-07 0.0000000000000000e+00  2.0837261742121606e-04 -9.3897691360052493e-08 0.0000000000000000e+00  2.5562619581254674e-04 4.3236980665108017e-08 0.0000000000000000e+00  3.1164974307138789e-04 3.4900524104627571e-07 0.0000000000000000e+00  3.7731410236988071e-04 9.5515707183346729e-07 0.0000000000000000e+00  4.5278462612062423e-04 2.0641128346118390e-06 0.0000000000000000e+00  5.3685105762078659e-04 3.9541112106822882e-06 0.0000000000000000e+00  6.2599064343690119e-04 6.9420531483033351e-06 0.0000000000000000e+00  7.1331849346711331e-04 1.1263182970617219e-05 0.0000000000000000e+00  0.0000000000000000e+00 0.0000000000000000e+00 0.0000000000000000e+00  1.3866454102008031e-05 -2.6992109141325842e-08 0.0000000000000000e+00  2.8323802426321972e-05 -5.6250240875169345e-08 0.0000000000000000e+00  4.3992768160903513e-05 -9.0172670579215466e-08 0.0000000000000000e+00  6.1555367514101714e-05 -1.3136842431278710e-07 0.0000000000000000e+00  8.1789363661679111e-05 -1.8259614518252144e-07 0.0000000000000000e+00  1.0560672594131801e-04 -2.4637698694905022e-07 0.0000000000000000e+00  1.3409599415334145e-04 -3.2390326562189717e-07 0.0000000000000000e+00  1.6856596568417037e-04 -4.1250017068989775e-07 0.0000000000000000e+00  2.1058289720527628e-04 -5.0025660131927119e-07 0.0000000000000000e+00  2.6198309063958343e-04 -5.5542530555130792e-07 0.0000000000000000e+00  3.2482363005680292e-04 -5.0689028544757145e-07 0.0000000000000000e+00  4.0120142474994828e-04 -2.1122292062765121e-07 0.0000000000000000e+00  4.9282158690369931e-04 5.9559823909645718e-07 0.0000000000000000e+00  6.0013934999731983e-04 2.3509511015205805e-06 0.0000000000000000e+00  7.2088360128121315e-04 5.6778614222835963e-06 0.0000000000000000e+00  8.4793326252657810e-04 1.1258028001779802e-05 0.0000000000000000e+00  0.0000000000000000e+00 0.0000000000000000e+00 0.0000000000000000e+00  1.2765649623806739e-05 -3.2553527258187017e-08 0.0000000000000000e+00  2.6110246410967286e-05 -6.8725967544642624e-08 0.0000000000000000e+00  4.0647879512058274e-05 -1.1259764819696632e-07 0.0000000000000000e+00  5.7066057757733673e-05 -1.6920206233015052e-07 0.0000000000000000e+00  7.6170206337898723e-05 -2.4506306290763502e-07 0.0000000000000000e+00  9.8937942809300145e-05 -3.4872335817971977e-07 0.0000000000000000e+00  1.2658679709281418e-04 -4.9104908122260735e-07 0.0000000000000000e+00  1.6065837777578770e-04 -6.8471044570921663e-07 0.0000000000000000e+00  2.0311904825506770e-04 -9.4137988334038112e-07 0.0000000000000000e+00  2.5646877626736954e-04 -1.2633945230780983e-06 0.0000000000000000e+00  3.2382950102813861e-04 -1.6232056917020683e-06 0.0000000000000000e+00  4.0894006275286443e-04 -1.9183688931392343e-06 0.0000000000000000e+00  5.1589681762891873e-04 -1.8838316280346833e-06 0.0000000000000000e+00  6.4832480668494208e-04 -9.4766483232053935e-07 0.0000000000000000e+00  8.0745488340265017e-04 1.9325003279922408e-06 0.0000000000000000e+00  9.8852762285736931e-04 8.2516470103353208e-06 0.0000000000000000e+00  0.0000000000000000e+00 0.0000000000000000e+00 0.0000000000000000e+00  1.1079190389978783e-05 -3.4466291826850041e-08 0.0000000000000000e+00  2.2688990854491501e-05 -7.3439216721106865e-08 0.0000000000000000e+00  3.5397216443809009e-05 -1.2218284001772128e-07 0.0000000000000000e+00  4.9850462539904095e-05 -1.8761285859465597e-07 0.0000000000000000e+00  6.6824733637490597e-05 -2.7948794903464168e-07 0.0000000000000000e+00  8.7291300982289020e-05 -4.1207994088905146e-07 0.0000000000000000e+00  1.1250591981278960e-04 -6.0650598601231559e-07 0.0000000000000000e+00  1.4413215733822572e-04 -8.9377183674361460e-07 0.0000000000000000e+00  1.8441216239732024e-04 -1.3180044494959438e-06 0.0000000000000000e+00  2.3639840522099811e-04 -1.9375567765391024e-06 0.0000000000000000e+00  3.0425103642246705e-04 -2.8167649066236960e-06 0.0000000000000000e+00  3.9357041132656562e-04 -3.9891495538727702e-06 0.0000000000000000e+00  5.1163263887561185e-04 -5.3473149724656760e-06 0.0000000000000000e+00  6.6714083557684772e-04 -6.3738321956596217e-06 0.0000000000000000e+00  8.6853519159555749e-04 -5.6250457190225758e-06 0.0000000000000000e+00  1.1189156010092626e-03 -3.3483286699779693e-07 0.0000000000000000e+00  0.0000000000000000e+00 0.0000000000000000e+00 0.0000000000000000e+00  8.8551765157341438e-06 -3.1835184327068676e-08 0.0000000000000000e+00  1.8154030891867182e-05 -6.8298919386900463e-08 0.0000000000000000e+00  2.8374994828216268e-05 -1.1493160127202202e-07 0.0000000000000000e+00  4.0070898471538679e-05 -1.7932237525795833e-07 0.0000000000000000e+00  5.3919064304575489e-05 -2.7276833297334685e-07 0.0000000000000000e+00  7.0789762562242100e-05 -4.1290256529520701e-07 0.0000000000000000e+00  9.1844758684173154e-05 -6.2801741479407753e-07 0.0000000000000000e+00  1.1868411521860392e-04 -9.6425453492566604e-07 0.0000000000000000e+00  1.5356968949457419e-04 -1.4974139907213161e-06 0.0000000000000000e+00  1.9976923092734596e-04 -2.3514283258495272e-06 0.0000000000000000e+00  2.6208533429489543e-04 -3.7236309217294576e-06 0.0000000000000000e+00  3.4765052562142032e-04 -5.9058097752254190e-06 0.0000000000000000e+00  4.6704670123184986e-04 -9.2466488754028557e-06 0.0000000000000000e+00  6.3561420251264180e-04 -1.3853820286369762e-05 0.0000000000000000e+00  8.7401088560549469e-04 -1.8353112970255572e-05 0.0000000000000000e+00  1.2038220104726397e-03 -1.5279480048719540e-05 0.0000000000000000e+00  0.0000000000000000e+00 0.0000000000000000e+00 0.0000000000000000e+00  6.1804114198961898e-06 -2.4535585132820754e-08 0.0000000000000000e+00  1.2681320088995258e-05 -5.2897023162218308e-08 0.0000000000000000e+00  1.9850434408516996e-05 -8.9744136984421046e-08 0.0000000000000000e+00  2.8094209450523425e-05 -1.4164860589097190e-07 0.0000000000000000e+00  3.7918836677236674e-05 -2.1875989347357958e-07 0.0000000000000000e+00  4.9988374704737856e-05 -3.3764175440054590e-07 0.0000000000000000e+00  6.5212305863706499e-05 -5.2637711368428874e-07 0.0000000000000000e+00  8.4883351562631946e-05 -8.3410693221239048e-07 0.0000000000000000e+00  1.1090219167618183e-04 -1.3493928286416094e-06 0.0000000000000000e+00  1.4615527117249437e-04 -2.2364172969095024e-06 0.0000000000000000e+00  1.9516763108164028e-04 -3.8074183029883179e-06 0.0000000000000000e+00  2.6525885226132893e-04 -6.6674428576921706e-06 0.0000000000000000e+00  3.6863439133720326e-04 -1.1994892672355776e-05 0.0000000000000000e+00  5.2624368514778131e-04 -2.2040493900294390e-05 0.0000000000000000e+00  7.7501538023922584e-04 -4.0846007406495842e-05 0.0000000000000000e+00  1.1815881980621193e-03 -7.4683130902400156e-05 0.0000000000000000e+00  0.0000000000000000e+00 0.0000000000000000e+00 0.0000000000000000e+00  3.1780365184949010e-06 -1.3371783890034106e-08 0.0000000000000000e+00  6.5246305835899041e-06 -2.8916737443582025e-08 0.0000000000000000e+00  1.0223410057469785e-05 -4.9310970546922849e-08 0.0000000000000000e+00  1.4490725366581814e-05 -7.8398348475538302e-08 0.0000000000000000e+00  1.9599038816399879e-05 -1.2225503315559912e-07 0.0000000000000000e+00  2.5910934003052127e-05 -1.9108422494503173e-07 0.0000000000000000e+00  3.3931924937796463e-05 -3.0281975295961877e-07 0.0000000000000000e+00  4.4396707599991086e-05 -4.9035638402324032e-07 0.0000000000000000e+00  5.8416290535536192e-05 -8.1684122502142188e-07 0.0000000000000000e+00  7.7739208709968845e-05 -1.4098629711502349e-06 0.0000000000000000e+00  1.0523205275561255e-04 -2.5424515440932382e-06 0.0000000000000000e+00  1.4578504498025327e-04 -4.8359951295394452e-06 0.0000000000000000e+00  2.0800799839490274e-04 -9.7917147632282306e-06 0.0000000000000000e+00  3.0712703190080256e-04 -2.1203713480120586e-05 0.0000000000000000e+00  4.6812398789501940e-04 -4.8702447011780167e-05 0.0000000000000000e+00  7.1922758746801143e-04 -1.1432696613987163e-04 0.0000000000000000e+00  0.0000000000000000e+00 0.0000000000000000e+00 0.0000000000000000e+00  0.0000000000000000e+00 0.0000000000000000e+00 0.0000000000000000e+00  0.0000000000000000e+00 0.0000000000000000e+00 0.0000000000000000e+00  0.0000000000000000e+00 0.0000000000000000e+00 0.0000000000000000e+00  0.0000000000000000e+00 0.0000000000000000e+00 0.0000000000000000e+00  0.0000000000000000e+00 0.0000000000000000e+00 0.0000000000000000e+00  0.0000000000000000e+00 0.0000000000000000e+00 0.0000000000000000e+00  0.0000000000000000e+00 0.0000000000000000e+00 0.0000000000000000e+00  0.0000000000000000e+00 0.0000000000000000e+00 0.0000000000000000e+00  0.0000000000000000e+00 0.0000000000000000e+00 0.0000000000000000e+00  0.0000000000000000e+00 0.0000000000000