<?xml version="1.0"?>
<VTKFile type="UnstructuredGrid"  version="0.1"  >
<UnstructuredGrid>
<Piece  NumberOfPoints="289" NumberOfCells="512">
<Points>
<DataArray  type="Float64"  NumberOfComponents="3"  format="ascii">0 0 0  0.0625 0 0  0.125 0 0  0.1875 0 0  0.25 0 0  0.3125 0 0  0.375 0 0  0.4375 0 0  0.5 0 0  0.5625 0 0  0.625 0 0  0.6875 0 0  0.75 0 0  0.8125 0 0  0.875 0 0  0.9375 0 0  1 0 0  0 0.0625 0  0.06249899657899188 0.0624994772652149 0  0.1249981545804081 0.06249894823629963 0  0.1874976666220986 0.06249840773630579 0  0.249997793117215 0.06249785287593402 0  0.3124989069652023 0.06249728424333395 0  0.3750015530862105 0.06249670697305934 0  0.4375065319136245 0.06249613127398865 0  0.5000150227471046 0.06249557144450476 0  0.5625287790931068 0.06249504124048189 0  0.6250504697022017 0.06249454075540684 0  0.6875843530661264 0.06249402272602236 0  0.7501378085373026 0.06249330368250103 0  0.8127253084531856 0.06249180634757801 0  0.8753800343110062 0.06248771633439525 0  0.9381916366899823 0.06247490290849052 0  1.00144170102459 0.06243085926922299 0  0 0.125 0  0.06249782699919073 0.1249989604181583 0  0.1249959450296295 0.1249979070894973 0  0.1874947036788732 0.1249968284622574 0  0.2499945798554163 0.1249957175367927 0  0.3124962615764531 0.124994574394914 0  0.3750007587619439 0.1249934087616787 0  0.4375095557926446 0.1249922420341357 0  0.5000248286858769 0.1249911074367626 0  0.5625497666564963 0.1249900455656903 0  0.6250890745330532 0.1249890901914926 0  0.6876498123070461 0.1249882356224329 0  0.7502428913335742 0.1249873744902771 0  0.8128858106011053 0.1249862116750342 0  0.8756072195790525 0.1249843017998034 0  0.9384507303024821 0.124982183769022 0  1.001451724560398 0.1249889278466989 0  0 0.1875 0  0.06249636318850912 0.1874984569156331 0  0.1249930871963792 0.1874968903875882 0  0.187490611362609 0.1874952801118955 0  0.2499895460267497 0.1874936124201338 0  0.3124907851920036 0.1874918843083371 0  0.374995654614185 0.18749010806876 0  0.4375061119085233 0.1874883161788315 0  0.500025019945755 0.1874865653653821 0  0.5625565214083873 0.1874849375109259 0  0.6251065503438087 0.1874835332120771 0  0.6876835192843385 0.1874824517460644 0  0.7502991852290033 0.1874817509634334 0  0.8129694975424181 0.1874813873357959 0  0.8757144557119002 0.1874811502750926 0  0.9385536541296932 0.1874805210640119 0  1.001489721205756 0.187477263155918 0  0 0.25 0  0.06249453704240706 0.2499979764581732 0  0.1249894243775356 0.249995916578687 0  0.1874851006268407 0.249993787796599 0  0.2499821975531254 0.2499915657195658 0  0.3124816686082358 0.2499892396188379 0  0.3749849584853004 0.2499868194983089 0  0.4374942307573488 0.2499843449653061 0  0.5000126715470375 0.2499818956068049 0  0.5625448837969204 0.2499796015682368 0  0.6250973716434407 0.2499776513144915 0  0.6876790700831595 0.2499762909889883 0  0.7503017613393546 0.2499758064202028 0  0.8129799518688404 0.2499764740833161 0  0.8757292262402752 0.249978455184145 0  0.9385612015672786 0.2499815646272308 0  1.001472793250807 0.2499847860054346 0  0 0.3125 0  0.06249236042173961 0.3124975319422153 0  0.1249849701287511 0.3124950108144649 0  0.1874781644921189 0.3124923873851333 0  0.2499724687161904 0.3124896210236605 0  0.3124687275753852 0.3124866862115845 0  0.3749682801058574 0.3124835818577708 0  0.4374731981003342 0.3124803445089501 0  0.4999866074505744 0.3124770664498222 0  0.5625131052947667 0.3124739191528279 0  0.6250592646575041 0.3124711810770582 0  0.6876341652217235 0.3124692656032024 0  0.7502497772466532 0.3124687386472085 0  0.8129208249086969 0.3124703045994923 0  0.875663474321191 0.3124747236211134 0  0.9384920242966144 0.3124826162698578 0  1.001413426846758 0.3124941919661586 0  0 0.375 0  0.06248993482834034 0.37499714009768 0  0.1249799295607602 0.3749942064820534 0  0.1874701148486774 0.3749911284913111 0  0.2499607800464478 0.3749878427244609 0  0.3124524878371438 0.3749842995727655 0  0.3749462360064895 0.3749804737341799 0  0.4374436891421658 0.3749763808546363 0  0.4999475070005646 0.374972103044788 0  0.5624617963602427 0.3749678264498102 0  0.6249927019828485 0.3749638936398881 0  0.6875491164174377 0.374960870873264 0  0.7501434081039804 0.3749596224192278 0  0.8127919250665174 0.3749613664866216 0  0.8755148442787613 0.3749676544615302 0  0.9383348266797553 0.3749801651921986 0  1.001274200518092 0.3750001408140354 0  0 0.4375 0  0.06248744895136419 0.4374968215542639 0  0.124974695499869 0.4374935456227152 0  0.1874615795633702 0.4374900759031574 0  0.2499480402909289 0.437486319671284 0  0.3124341975752754 0.4374821927355531 0  0.3749204789868927 0.437477629063251 0  0.4374078195518218 0.4374725982160603 0  0.4998979732427445 0.4374671353135355 0  0.5623939889294274 0.4374613903070064 0  0.6249009160283782 0.437455705427121 0  0.687426806105397 0.4374507301548766 0  0.7499840450620648 0.4374475778311622 0  0.8125909504496113 0.4374480083601044 0  0.8752733556731734 0.4374545727446865 0  0.9380655573693131 0.437470561866257 0  1.001009593512365 0.4374994733854702 0  0 0.5 0  0.06248516313415946 0.4999966000522252 0  0.1249698174018181 0.4999930775824283 0  0.187453456304299 0.4999893082439541 0  0.24993558727502 0.4999851650075581 0  0.3124157612335795 0.4999805194944845 0  0.3748936381874781 0.4999752476443479 0  0.4373691181253008 0.4999692433696987 0  0.4998425866356639 0.499962446463217 0  0.5623153568021391 0.4999548952193476 0  0.6247904361199877 0.4999468204195137 0  0.6872738073610959 0.4999388050461934 0  0.7497764660972498 0.4999320398120035 0  0.8123174435776005 0.499928696663293 0  0.8749278217007407 0.4999323919657172 0  0.9376550834224262 0.4999485634941849 0  1.0005658426901 0.4999842783795326 0  0 0.5625 0  0.06248338084617244 0.562496500572008 0  0.1249659426760631 0.5624928553300196 0  0.1874468211477755 0.562488912709494 0  0.2499250620119765 0.5624845100022399 0  0.3123995818154596 0.56247946898138 0  0.3748691438965102 0.562473594037939 0  0.4373323731483362 0.5624666759646432 0  0.4997878589132042 0.5624585077147778 0  0.5622344437501585 0.5624489244536071 0  0.6246718817967296 0.5624378910621334 0  0.6871021920840198 0.5624256787459712 0  0.7495322359885473 0.5624132004528481 0  0.8119782613669926 0.5624026063725031 0  0.8744731519684232 0.5623982403525476 0  0.9370763106906633 0.5624079125291144 0  0.9998835024172207 0.562443915934061 0  0 0.625 0  0.06248240876213109 0.6249965463274176 0  0.1249637329581785 0.6249929292192322 0  0.1874427937282097 0.6249889752182305 0  0.2499182134106517 0.624984490243737 0  0.3123882974860428 0.6249792480522157 0  0.3748508983855768 0.6249729777886569 0  0.4373032670762954 0.6249653517736335 0  0.4997419210070568 0.6249559772621596 0  0.5621626085303469 0.6249444017871666 0  0.6245605604047145 0.6249301546599738 0  0.6869314420433954 0.6249128749291695 0  0.7492738357709832 0.6248926327433032 0  0.8115947577027023 0.6248706567283675 0  0.8739205116408875 0.6248508378818172 0  0.9363151782509721 0.6248424608184211 0  0.9989054361966831 0.6248639638787713 0  0 0.6875 0  0.06248250921894344 0.6874967548486015 0  0.1249637624304709 0.687493338579774 0  0.18744236796613 0.6874895663272199 0  0.2499166409514464 0.6874852240638386 0  0.3123844099443888 0.6874800498725862 0  0.3748427632373047 0.6874737098353794 0  0.437287710702943 0.6874657662856907 0  0.4997137423672011 0.6874556364778637 0  0.5621132925500232 0.6874425419570197 0  0.6244762065708797 0.6874254568912246 0  0.6867895452915529 0.6874030876496967 0  0.7490386472420516 0.6873739830654337 0  0.8112116743569596 0.6873370529158147 0  0.873312399998452 0.6872932103072158 0  0.9353895129873212 0.6872497593862442 0  0.9975904114089895 0.6872300859633671 0  0 0.75 0  0.06248385144068662 0.7499971337284531 0  0.1249664112660342 0.7499941023186645 0  0.1874462282918427 0.7499907247304557 0  0.2499215009282293 0.7499867855442092 0  0.3123898306620135 0.7499820110618622 0  0.3748478749116335 0.7499760358125743 0  0.437290838928264 0.7499683533504027 0  0.499711720476318 0.7499582420033821 0  0.5621001907898087 0.7499446513761184 0  0.6244409822184831 0.7499260291486874 0  0.6867117370568746 0.749900063738144 0  0.748880710767211 0.7498633353741833 0  0.8109062717096758 0.7498109852413841 0  0.8727447766822631 0.7497370428771595 0  0.9343850560575542 0.7496381574960665 0  0.9959457728061452 0.7495308380937152 0  0 0.8125 0  0.06248647029822875 0.8124976769189891 0  0.1249717731831062 0.8124952104809064 0  0.18745458344446 0.8124924417161854 0  0.2499332253669836 0.8124891774636901 0  0.3124054145852247 0.8124851653752866 0  0.3748678767175509 0.812480057098799 0  0.437315754513706 0.8124733509382528 0  0.4997416555811505 0.8124642990313189 0  0.5621340872688998 0.812451752287194 0  0.6244748442551689 0.8124338934258167 0  0.6867346286915693 0.8124077622109217 0  0.7488658475015529 0.8123683800850331 0  0.8107917011922193 0.8123070786140372 0  0.8723942521637286 0.8122082764104145 0  0.9335241976158088 0.8120439619542676 0  0.9941464356708514 0.8117719192300777 0  0 0.875 0  0.06249024237969145 0.8749983626029354 0  0.1249795993031494 0.8749966191240395 0  0.1874670583923051 0.8749946509686081 0  0.2499513230794229 0.8749923119103369 0  0.3124305965723427 0.8749894072533857 0  0.3749022521442126 0.8749856622412943 0  0.437362299488838 0.8749806712846416 0  0.49980448275824 0.8749738129251883 0  0.5622186964669503 0.8749641023937336 0  0.6245880945285754 0.8749499269646385 0  0.6868835982191382 0.8749285513108694 0  0.7490530238601619 0.8748951403750885 0  0.8109987166184092 0.8748406573389665 0  0.8725304167934862 0.8747466930862223 0  0.9332687507828001 0.8745700985784324 0  0.9924975502921229 0.8741850486147502 0  0 0.9375 0  0.06249488761050124 0.9374991535037677 0  0.1249892979631103 0.9374982505717809 0  0.1874826831264212 0.9374972278104601 0  0.2499743361854297 0.9374960063927315 0  0.3124632681628299 0.9374944802294016 0  0.3749480166472172 0.9374924977863599 0  0.4374263288346446 0.937489832474
[...]
<PointData  Vectors="f_54"> 
<DataArray  type="Float64"  Name="f_54"  NumberOfComponents="3" format="ascii">0.0000000000000000e+00 0.0000000000000000e+00 0.0000000000000000e+00  0.0000000000000000e+00 0.0000000000000000e+00 0.0000000000000000e+00  0.0000000000000000e+00 0.0000000000000000e+00 0.0000000000000000e+00  0.0000000000000000e+00 0.0000000000000000e+00 0.0000000000000000e+00  0.0000000000000000e+00 0.0000000000000000e+00 0.0000000000000000e+00  0.0000000000000000e+00 0.0000000000000000e+00 0.0000000000000000e+00  0.0000000000000000e+00 0.0000000000000000e+00 0.0000000000000000e+00  0.0000000000000000e+00 0.0000000000000000e+00 0.0000000000000000e+00  0.0000000000000000e+00 0.0000000000000000e+00 0.0000000000000000e+00  0.0000000000000000e+00 0.0000000000000000e+00 0.0000000000000000e+00  0.0000000000000000e+00 0.0000000000000000e+00 0.0000000000000000e+00  0.0000000000000000e+00 0.0000000000000000e+00 0.0000000000000000e+00  0.0000000000000000e+00 0.0000000000000000e+00 0.0000000000000000e+00  0.0000000000000000e+00 0.0000000000000000e+00 0.0000000000000000e+00  0.0000000000000000e+00 0.0000000000000000e+00 0.0000000000000000e+00  0.0000000000000000e+00 0.0000000000000000e+00 0.0000000000000000e+00  0.0000000000000000e+00 0.0000000000000000e+00 0.0000000000000000e+00  0.0000000000000000e+00 0.0000000000000000e+00 0.0000000000000000e+00  -4.0438994636441726e-06 6.3766206206082508e-09 0.0000000000000000e+00  -8.2082092673009486e-06 1.4132057248011628e-08 0.0000000000000000e+00  -1.2613718484659904e-05 2.4856426080017122e-08 0.0000000000000000e+00  -1.7381491105624234e-05 4.0590147354386090e-08 0.0000000000000000e+00  -2.2632142214280512e-05 6.4122145130736392e-08 0.0000000000000000e+00  -2.8484135940529792e-05 9.9386645871451065e-08 0.0000000000000000e+00  -3.5050976528209862e-05 1.5201529681457043e-07 0.0000000000000000e+00  -4.2437594554215689e-05 2.3014063913981323e-07 0.0000000000000000e+00  -5.0737324402266523e-05 3.4564889071972688e-07 0.0000000000000000e+00  -6.0033666293158308e-05 5.1637564978002535e-07 0.0000000000000000e+00  -7.0418582903622034e-05 7.7067503342836113e-07 0.0000000000000000e+00  -8.2061286876637164e-05 1.1589948075878904e-06 0.0000000000000000e+00  -9.5433126902083398e-05 1.7888355758946264e-06 0.0000000000000000e+00  -1.1204714191583171e-04 2.9455745680614830e-06 0.0000000000000000e+00  -1.3704465143454664e-04 5.5554114822681775e-06 0.0000000000000000e+00  -1.8913633800534283e-04 1.3140367142669288e-05 0.0000000000000000e+00  0.0000000000000000e+00 0.0000000000000000e+00 0.0000000000000000e+00  -7.9671768252157349e-06 1.1374084313168941e-08 0.0000000000000000e+00  -1.6174875935087028e-05 2.5294535458765975e-08 0.0000000000000000e+00  -2.4864730586072011e-05 4.4702504226249370e-08 0.0000000000000000e+00  -3.4279639140623335e-05 7.3380871826023151e-08 0.0000000000000000e+00  -4.4662626979479450e-05 1.1651154245718559e-07 0.0000000000000000e+00  -5.6253604175837457e-05 1.8141321524414311e-07 0.0000000000000000e+00  -6.9283496002057725e-05 2.7855161691934611e-07 0.0000000000000000e+00  -8.3965694089562884e-05 4.2295298807760113e-07 0.0000000000000000e+00  -1.0048592776458376e-04 6.3622588081737505e-07 0.0000000000000000e+00  -1.1899420393442346e-04 9.4954366835067258e-07 0.0000000000000000e+00  -1.3960772523919851e-04 1.4081984002488086e-06 0.0000000000000000e+00  -1.6244346272838273e-04 2.0784848517912227e-06 0.0000000000000000e+00  -1.8771154194707225e-04 3.0554925332959115e-06 0.0000000000000000e+00  -2.1588088675131124e-04 4.4516487555335213e-06 0.0000000000000000e+00  -2.4763286589466019e-04 6.2295901727176300e-06 0.0000000000000000e+00  -2.8130452052624625e-04 7.0849988357962432e-06 0.0000000000000000e+00  0.0000000000000000e+00 0.0000000000000000e+00 0.0000000000000000e+00  -1.1649622903117546e-05 1.3824768593997971e-08 0.0000000000000000e+00  -2.3658905536762961e-05 3.0968777678847544e-08 0.0000000000000000e+00  -3.6390054993949189e-05 5.5277228814365936e-08 0.0000000000000000e+00  -5.0208979459658051e-05 9.1718497522966272e-08 0.0000000000000000e+00  -6.5484435715562587e-05 1.4713069349929037e-07 0.0000000000000000e+00  -8.2583798711408554e-05 2.3120935239256522e-07 0.0000000000000000e+00  -1.0186422666548501e-04 3.5784705245360657e-07 0.0000000000000000e+00  -1.2365813633379697e-04 5.4695630041856387e-07 0.0000000000000000e+00  -1.4825239051332749e-04 8.2691723282545702e-07 0.0000000000000000e+00  -1.7586157028920125e-04 1.2377549362132330e-06 0.0000000000000000e+00  -2.0659684238392143e-04 1.8349534790755210e-06 0.0000000000000000e+00  -2.4043095938956524e-04 2.6931166299325377e-06 0.0000000000000000e+00  -2.7714784406812794e-04 3.9066687133095284e-06 0.0000000000000000e+00  -3.1621397932016606e-04 5.5809034365959821e-06 0.0000000000000000e+00  -3.5635638729226797e-04 7.8133752510022511e-06 0.0000000000000000e+00  -3.9440118918139213e-04 1.0812965026295652e-05 0.0000000000000000e+00  0.0000000000000000e+00 0.0000000000000000e+00 0.0000000000000000e+00  -1.4972004758838245e-05 1.2955863086017837e-08 0.0000000000000000e+00  -3.0420432969819685e-05 2.9477972925691711e-08 0.0000000000000000e+00  -4.6826741333339688e-05 5.3718532552751582e-08 0.0000000000000000e+00  -6.4680723551714390e-05 9.1085336278614586e-08 0.0000000000000000e+00  -8.4481154757641048e-05 1.4908628522443291e-07 0.0000000000000000e+00  -1.0673182292333552e-04 2.3845721863971639e-07 0.0000000000000000e+00  -1.3193084675742228e-04 3.7470174957961901e-07 0.0000000000000000e+00  -1.6055081273834640e-04 5.8018652064163390e-07 0.0000000000000000e+00  -1.9300693841260025e-04 8.8691889967118995e-07 0.0000000000000000e+00  -2.2961014667900306e-04 1.3400280662915524e-06 0.0000000000000000e+00  -2.7050115462016252e-04 2.0016530529228502e-06 0.0000000000000000e+00  -3.1555878862159849e-04 2.9542030099328859e-06 0.0000000000000000e+00  -3.6426662378870420e-04 4.3005998132142892e-06 0.0000000000000000e+00  -4.1550018526043136e-04 6.1576479349345244e-06 0.0000000000000000e+00  -4.6716515632872743e-04 8.6402255851311570e-06 0.0000000000000000e+00  -5.1564285271426711e-04 1.1839058013933558e-05 0.0000000000000000e+00  0.0000000000000000e+00 0.0000000000000000e+00 0.0000000000000000e+00  -1.7817480815259232e-05 8.5206257779854504e-09 0.0000000000000000e+00  -3.6223301409229967e-05 2.0268536670523889e-08 0.0000000000000000e+00  -5.5814659472400968e-05 3.9033826379700705e-08 0.0000000000000000e+00  -7.7204594223851590e-05 6.9819904396943722e-08 0.0000000000000000e+00  -1.0102589447774966e-04 1.1967832051373932e-07 0.0000000000000000e+00  -1.2792950795377582e-04 1.9884919907207026e-07 0.0000000000000000e+00  -1.5857449951204951e-04 3.2236026274960736e-07 0.0000000000000000e+00  -1.9360566175000821e-04 5.1227216602066113e-07 0.0000000000000000e+00  -2.3361376695260662e-04 8.0077401081090199e-07 0.0000000000000000e+00  -2.7907226307161961e-04 1.2342791412527714e-06 0.0000000000000000e+00  -3.3024309826372965e-04 1.8784404671049472e-06 0.0000000000000000e+00  -3.8704352851850137e-04 2.8234075481156761e-06 0.0000000000000000e+00  -4.4886598433623324e-04 4.1874172965011911e-06 0.0000000000000000e+00  -5.1434799820278894e-04 6.1146312675528007e-06 0.0000000000000000e+00  -5.8111330276715051e-04 8.7591305300694975e-06 0.0000000000000000e+00  -6.4559103933133825e-04 1.2235359692342372e-05 0.0000000000000000e+00  0.0000000000000000e+00 0.0000000000000000e+00 0.0000000000000000e+00  -2.0074087638741690e-05 8.5849241164572741e-10 0.0000000000000000e+00  -4.0839742782819579e-05 4.0423227730356791e-09 0.0000000000000000e+00  -6.3002705589790525e-05 1.2329956815043614e-08 0.0000000000000000e+00  -8.7295334058850633e-05 2.9486585238723952e-08 0.0000000000000000e+00  -1.1448601092880723e-04 6.0969177411860971e-08 0.0000000000000000e+00  -1.4538288861673586e-04 1.1492789797535559e-07 0.0000000000000000e+00  -1.8082838859454070e-04 2.0367934049400425e-07 0.0000000000000000e+00  -2.2167929128976235e-04 3.4590335281504764e-07 0.0000000000000000e+00  -2.6876523800350684e-04 5.6991577487486315e-07 0.0000000000000000e+00  -3.2281625076920756e-04 9.1847480547408821e-07 0.0000000000000000e+00  -3.8434815939818358e-04 1.4556199967898589e-06 0.0000000000000000e+00  -4.5349525259263750e-04 2.2758421879410194e-06 0.0000000000000000e+00  -5.2978544489340332e-04 3.5150649385793147e-06 0.0000000000000000e+00  -6.1187107497740465e-04 5.3608592654085042e-06 0.0000000000000000e+00  -6.9726792957046054e-04 8.0554957814412966e-06 0.0000000000000000e+00  -7.8222513828007890e-04 1.1882084990196364e-05 0.0000000000000000e+00  0.0000000000000000e+00 0.0000000000000000e+00 0.0000000000000000e+00  -2.1638588069443976e-05 -9.1279597446970149e-09 0.0000000000000000e+00  -4.4057921789228581e-05 -1.7285993453963378e-08 0.0000000000000000e+00  -6.8059639232260610e-05 -2.3239398692211509e-08 0.0000000000000000e+00  -9.4485964371839818e-05 -2.5164961363491055e-08 0.0000000000000000e+00  -1.2423707386839924e-04 -2.0198921574992658e-08 0.0000000000000000e+00  -1.5828375364655922e-04 -3.7483813897088556e-09 0.0000000000000000e+00  -1.9767158679462983e-04 3.1607691040852364e-08 0.0000000000000000e+00  -2.4351066417189351e-04 9.7920922002550709e-08 0.0000000000000000e+00  -2.9694165061232980e-04 2.1487758391214926e-07 0.0000000000000000e+00  -3.5906508129157134e-04 4.1483600954986362e-07 0.0000000000000000e+00  -4.3081679571384284e-04 7.5121750207602467e-07 0.0000000000000000e+00  -5.1277073609478762e-04 1.3121308641955029e-06 0.0000000000000000e+00  -6.0485593734265820e-04 2.2413076608499106e-06 0.0000000000000000e+00  -7.0599593276334948e-04 3.7669933864248070e-06 0.0000000000000000e+00  -8.1372560043487126e-04 6.2337008199858310e-06 0.0000000000000000e+00  -9.2391113482568016e-04 1.0117754770260292e-05 0.0000000000000000e+00  0.0000000000000000e+00 0.0000000000000000e+00 0.0000000000000000e+00  -2.2421830500813666e-05 -2.0082635564398608e-08 0.0000000000000000e+00  -4.5692742013314991e-05 -4.0815944135321284e-08 0.0000000000000000e+00  -7.0690416179962890e-05 -6.2830881089847690e-08 0.0000000000000000e+00  -9.8349498821363423e-05 -8.6696639912644913e-08 0.0000000000000000e+00  -1.2968919647358189e-04 -1.1282787775645840e-07 0.0000000000000000e+00  -1.6583857910713710e-04 -1.4128079211313697e-07 0.0000000000000000e+00  -2.0805642120923080e-04 -1.7131727638321289e-07 0.0000000000000000e+00  -2.5773961784777895e-04 -2.0048654844967350e-07 0.0000000000000000e+00  -3.1640979019300562e-04 -2.2270520771608689e-07 0.0000000000000000e+00  -3.8566119631161045e-04 -2.2427920887835385e-07 0.0000000000000000e+00  -4.6704457531252192e-04 -1.7579336961999146e-07 0.0000000000000000e+00  -5.6185288781685448e-04 -1.6048762147398785e-08 0.0000000000000000e+00  -6.7077191944893053e-04 3.7822005879840876e-07 0.0000000000000000e+00  -7.9337449032807405e-04 1.2449539639032623e-06 0.0000000000000000e+00  -9.2749263378979552e-04 3.0161470571831774e-06 0.0000000000000000e+00  -1.0686124580227688e-03 6.4082817047308520e-06 0.0000000000000000e+00  0.0000000000000000e+00 0.0000000000000000e+00 0.0000000000000000e+00  -2.2355531080980701e-05 -3.0384322457733057e-08 0.0000000000000000e+00  -4.5599833214597634e-05 -6.3059961354128859e-08 0.0000000000000000e+00  -7.0658161610452465e-05 -1.0056352407328311e-07 0.0000000000000000e+00  -9.8529873846930666e-05 -1.4594748564969946e-07 0.0000000000000000e+00  -1.3032773469204943e-04 -2.0310488506762046e-07 0.0000000000000000e+00  -1.6731898842526502e-04 -2.7716847262288638e-07 0.0000000000000000e+00  -2.1096673669314847e-04 -3.7498353308765827e-07 0.0000000000000000e+00  -2.6296729908922189e-04 -5.0558173581150193e-07 0.0000000000000000e+00  -3.2527397716372803e-04 -6.8037870536524963e-07 0.0000000000000000e+00  -4.0008849876721714e-04 -9.1228230118249663e-07 0.0000000000000000e+00  -4.8978663056652291e-04 -1.2115907307171093e-06 0.0000000000000000e+00  -5.9672315559199270e-04 -1.5736051527513958e-06 0.0000000000000000e+00  -7.2283730222348294e-04 -1.9469083647959554e-06 0.0000000000000000e+00  -8.6896969694372076e-04 -2.1613860214624929e-06 0.0000000000000000e+00  -1.0338510530456060e-03 -1.7857354467242521e-06 0.0000000000000000e+00  -1.2129105993633886e-03 1.0214840958022598e-07 0.0000000000000000e+00  0.0000000000000000e+00 0.0000000000000000e+00 0.0000000000000000e+00  -2.1400057637036303e-05 -3.8391939069337218e-08 0.0000000000000000e+00  -4.3691942267593025e-05 -8.0470597240556299e-08 0.0000000000000000e+00  -6.7810817114456111e-05 -1.3040558483608601e-07 0.0000000000000000e+00  -9.4781290812009903e-05 -1.9340576065192487e-07 0.0000000000000000e+00  -1.2576837170921143e-04 -2.7643887250700125e-07 0.0000000000000000e+00  -1.6213570157741066e-04 -3.8923183470669397e-07 0.0000000000000000e+00  -2.0551266645036284e-04 -5.4571887791594500e-07 0.0000000000000000e+00  -2.5787004657085519e-04 -7.6617145969409266e-07 0.0000000000000000e+00  -3.2159922541820976e-04 -1.0802955749426355e-06 0.0000000000000000e+00  -3.9957988363187725e-04 -1.5314761754938481e-06 0.0000000000000000e+00  -4.9520082693518526e-04 -2.1815969565030240e-06 0.0000000000000000e+00  -6.1226117934042707e-04 -3.1130257845901668e-06 0.0000000000000000e+00  -7.5461806568181966e-04 -4.4157282648799283e-06 0.0000000000000000e+00  -9.2536893721347835e-04 -6.1253835327922018e-06 0.0000000000000000e+00  -1.1253229722853646e-03 -8.0344637419568563e-06 0.0000000000000000e+00  -1.3507263392265800e-03 -9.2586234884961125e-06 0.0000000000000000e+00  0.0000000000000000e+00 0.0000000000000000e+00 0.0000000000000000e+00  -1.9552396365234595e-05 -4.2709876100958297e-08 0.0000000000000000e+00  -3.9956086269559457e-05 -9.0018586234335067e-08 0.0000000000000000e+00  -6.2110034248030871e-05 -1.4717043224623093e-07 0.0000000000000000e+00  -8.7012939630934908e-05 -2.2080847610310017e-07 0.0000000000000000e+00  -1.1582348855544753e-04 -3.1996972804269781e-07 0.0000000000000000e+00  -1.4993404657936247e-04 -4.5751624068380891e-07 0.0000000000000000e+00  -1.9106364972935536e-04 -6.5231783674161969e-07 0.0000000000000000e+00  -2.4137656662332399e-04 -9.3273666401567148e-07 0.0000000000000000e+00  -3.0363134522439714e-04 -1.3424069027749480e-06 0.0000000000000000e+00  -3.8135879290955566e-04 -1.9500932693857102e-06 0.0000000000000000e+00  -4.7904827149956571e-04 -2.8665977200702821e-06 0.0000000000000000e+00  -6.0227443140449131e-04 -4.2725025047928990e-06 0.0000000000000000e+00  -7.5759236154077417e-04 -6.4565793533571676e-06 0.0000000000000000e+00  -9.5182834519687959e-04 -9.8386840084864374e-06 0.0000000000000000e+00  -1.1900964881542866e-03 -1.4850181259275203e-05 0.0000000000000000e+00  -1.4717775522147796e-03 -2.1276117145292701e-05 0.0000000000000000e+00  0.0000000000000000e+00 0.0000000000000000e+00 0.0000000000000000e+00  -1.6853087442745583e-05 -4.2426029792620919e-08 0.0000000000000000e+00  -3.4468924168459183e-05 -8.9716612388601541e-08 0.0000000000000000e+00  -5.3658241339587299e-05 -1.4743566690332552e-07 0.0000000000000000e+00  -7.5333312229887919e-05 -2.2266233789642938e-07 0.0000000000000000e+00  -1.0057236660705314e-04 -3.2506584742076400e-07 0.0000000000000000e+00  -1.3070273092364920e-04 -4.6844811232315257e-07 0.0000000000000000e+00  -1.6741314087525500e-04 -6.7310283825974994e-07 0.0000000000000000e+00  -2.1290975662682888e-04 -9.6964276445027352e-07 0.0000000000000000e+00  -2.7013553974687850e-04 -1.4056331898454146e-06 0.0000000000000000e+00  -3.4307704271443611e-04 -2.0579812985453954e-06 0.0000000000000000e+00  -4.3717979483386712e-04 -3.0578316209344236e-06 0.0000000000000000e+00  -5.5986373266545886e-04 -4.6433018470729445e-06 0.0000000000000000e+00  -7.2102043499036041e-04 -7.2722306613696153e-06 0.0000000000000000e+00  -9.3305334985322526e-04 -1.1846256408648186e-05 0.0000000000000000e+00  -1.2092183789380786e-03 -2.0034318592927991e-05 0.0000000000000000e+00  -1.5575829111546670e-03 -3.3975495381379986e-05 0.0000000000000000e+00  0.0000000000000000e+00 0.0000000000000000e+00 0.0000000000000000e+00  -1.3390635193978730e-05 -3.7274832199487794e-08 0.0000000000000000e+00  -2.7407097701354945e-05 -7.8979152712366227e-08 0.0000000000000000e+00  -4.2718347639169703e-05 -1.3017899857274415e-07 0.0000000000000000e+00  -6.0085488766258422e-05 -1.9731141576647872e-07 0.0000000000000000e+00  -8.0422586981628095e-05 -2.8912843299375226e-07 0.0000000000000000e+00  -1.0487859110318836e-04 -4.1799834104873661e-07 0.0000000000000000e+00  -1.3495400792291990e-04 -6.0177993894641084e-07 0.0000000000000000e+00  -1.7267385778610349e-04 -8.6663144515531347e-07 0.0000000000000000e+00  -2.2085160437276171e-04 -1.2514908882536544e-06 0.0000000000000000e+00  -2.8350004165589863e-04 -1.8160954544391947e-06 0.0000000000000000e+00  -3.6647703352149356e-04 -2.6581218689123071e-06 0.0000000000000000e+00  -4.7849236837399847e-04 -3.9575697919667189e-06 0.0000000000000000e+00  -6.3260995764801234e-04 -6.1086041601146596e-06 0.0000000000000000e+00  -8.4818763042681755e-04 -1.0137304187994483e-05 0.0000000000000000e+00  -1.1520890684230520e-03 -1.9047605054878191e-05 0.0000000000000000e+00  -1.5724503074638905e-03 -4.2179739904697133e-05 0.0000000000000000e+00  0.0000000000000000e+00 0.0000000000000000e+00 0.0000000000000000e+00  -9.3018762601073797e-06 -2.7691524739755580e-08 0.0000000000000000e+00  -1.9049114534299166e-05 -5.8739191155979766e-08 0.0000000000000000e+00  -2.9719873142388152e-05 -9.6975113655562016e-08 0.0000000000000000e+00  -4.1862876996986981e-05 -1.4724664719495775e-07 0.0000000000000000e+00  -5.6145414135301924e-05 -2.1607998590600662e-07 0.0000000000000000e+00  -7.3420085321759164e-05 -3.1251998141241815e-07 0.0000000000000000e+00  -9.4823699971228803e-05 -4.4914754850325919e-07 0.0000000000000000e+00  -1.2193116956551172e-04 -6.4310817997211182e-07 0.0000000000000000e+00  -1.5700513985727766e-04 -9.1650447657604378e-07 0.0000000000000000e+00  -2.0341665026683484e-04 -1.2942649718416834e-06 0.0000000000000000e+00  -2.6638038860421048e-04 -1.7947588100850684e-06 0.0000000000000000e+00  -3.5428606185577695e-04 -2.4033603108732613e-06 0.0000000000000000e+00  -4.8119249261300022e-04 -3.0175169034925331e-06 0.0000000000000000e+00  -6.7166312316250848e-04 -3.3996246071089856e-06 0.0000000000000000e+00  -9.7058201997327412e-04 -3.5139461606562740e-06 0.0000000000000000e+00  -1.4653658233870206e-03 -6.3683017956542503e-06 0.0000000000000000e+00  0.0000000000000000e+00 0.0000000000000000e+00 0.0000000000000000e+00  -4.7671592378512725e-06 -1.4749552629287379e-08 0.0000000000000000e+00  -9.7660393821999151e-06 -3.1304128098358850e-08 0.0000000000000000e+00  -1.5246134038101313e-05 -5.1721032996850689e-08 0.0000000000000000e+00  -2.1495354975147448e-05 -7.8590617416864716e-08 0.0000000000000000e+00  -2.8866671498859770e-05 -1.1536598047865225e-07 0.0000000000000000e+00  -3.7815925973026117e-05 -1.6673581485092822e-07 0.0000000000000000e+00  -4.8959305114933031e-05 -2.3894269430337684e-07 0.0000000000000000e+00  -6.3165633104923856e-05 -3.3965965825441221e-07 0.0000000000000000e+00  -8.1712129747730727e-05 -4.7614210596037547e-07 0.0000000000000000e+00  -1.0656041913375926e-04 -6.4757882373189205e-07 0.0000000000000000e+00  -1.4087042998419771e-04 -8.1865361162349901e-07 0.0000000000000000e+00  -1.9000423721294936e-04 -8.3205299074280701e-07 0.0000000000000000e+00  -2.6356283855329213e-04 -1.1911001758220761e-07 0.0000000000000000e+00  -3.7953908487061089e-04 3.2646286966411548e-06 0.0000000000000000e+00  -5.7196104441643197e-04 1.5801111769983378e-05 0.0000000000000000e+00  -8.9772890784213619e-04 5.7708499475145553e-05 0.0000000000000000e+00  0.0000000000000000e+00 0.0000000000000000e+00 0.0000000000000000e+00  0.0000000000000000e+00 0.0000000000000000e+00 0.0000000000000000e+00  0.0000000000000000e+00 0.0000000000000000e+00 0.0000000000000000e+00  0.0000000000000000e+00 0.0000000000000000e+00 0.0000000000000000e+00  0.0000000000000000e+00 0.0000000000000000e+00 0.0000000000000000e+00  0.0000000000000000e+00 0.0000000000000000e+00 0.0000000000000000e+00  0.0000000000000000e+00 0.0000000000000000e+00 0.0000000000000000e+