<?xml version="1.0"?>
<VTKFile type="UnstructuredGrid"  version="0.1"  >
<UnstructuredGrid>
<Piece  NumberOfPoints="289" NumberOfCells="512">
<Points>
<DataArray  type="Float64"  NumberOfComponents="3"  format="ascii">0 0 0  0.0625 0 0  0.125 0 0  0.1875 0 0  0.25 0 0  0.3125 0 0  0.375 0 0  0.4375 0 0  0.5 0 0  0.5625 0 0  0.625 0 0  0.6875 0 0  0.75 0 0  0.8125 0 0  0.875 0 0  0.9375 0 0  1 0 0  0 0.0625 0  0.06251381525704848 0.06249180299831158 0  0.1250281128289261 0.06248347119782992 0  0.1875433895684179 0.06247488447447011 0  0.2500601696345612 0.0624659559901581 0  0.31257901971014 0.06245665321466581 0  0.3751005669794161 0.06244702337403508 0  0.4376255230822974 0.06243722277708921 0  0.5001547208884776 0.06242754646984146 0  0.5626891789868254 0.06241844898511811 0  0.625230227396818 0.062410536747518 0  0.687779772939745 0.06240449540894734 0  0.7503408925249219 0.06240088963570218 0  0.8129191872778072 0.06239975376095663 0  0.8755256330307752 0.06240001803378651 0  0.9381799206643107 0.06240017283042349 0  1.000890064184933 0.06241465522678435 0  0 0.125 0  0.06252709975605177 0.1249837403268346 0  0.1250551547987192 0.1249671951128171 0  0.187585151989362 0.1249501063580073 0  0.250118138628714 0.1249322791215121 0  0.3126552578028456 0.1249136226203908 0  0.3751977919656975 0.1248942016977635 0  0.4377472224621051 0.1248742991086205 0  0.5003053197077003 0.124854484289447 0  0.5628742925359006 0.1248356749467214 0  0.6254570519270012 0.124819160776018 0  0.6880576931512167 0.1248065294554095 0  0.7506823735210822 0.1247993884136132 0  0.8133407937394678 0.1247987059966984 0  0.8760480973163342 0.1248034709478976 0  0.9388249865656256 0.1248077693589226 0  1.00169129685221 0.1247897142344195 0  0 0.1875 0  0.06253939179492771 0.1874759638162639 0  0.1250801861778499 0.1874514615706302 0  0.187623835407889 0.1874260637782684 0  0.250171887861273 0.1873994261442318 0  0.3127260454055281 0.1873713480775676 0  0.3752882348507115 0.1873418498570774 0  0.4378607044641266 0.1873112725140264 0  0.5004461639601234 0.1872804000884609 0  0.5630479981127346 0.187250594413859 0  0.6256705998949932 0.1872239141050683 0  0.6883198803931446 0.1872031560109234 0  0.7510039814926953 0.1871916992880052 0  0.8137340200201046 0.1871929272416874 0  0.8765240408945482 0.187208773917836 0  0.9393880160545885 0.1872363214594509 0  1.002331541551777 0.1872599728213827 0  0 0.25 0  0.06255025899963612 0.2499686549741323 0  0.1251023246894254 0.2499366237596785 0  0.1876580707550145 0.2499032596024711 0  0.2502195013587533 0.2498680103246759 0  0.3127888295791769 0.2498304885532968 0  0.3753685749939056 0.2497905707871053 0  0.4379616932973454 0.2497485357957565 0  0.5005717568285803 0.2497052514028901 0  0.5632032110427277 0.2496624131935205 0  0.6258617321363551 0.2496228250844953 0  0.6885546868364625 0.2495906836558338 0  0.7512916011002995 0.2495717765378342 0  0.8140842898992772 0.2495734192366165 0  0.876945782558847 0.2496038351056223 0  0.9398865445888631 0.2496706353357274 0  1.002906789970455 0.2497788027543925 0  0 0.3125 0  0.0625593100302827 0.3124620347026296 0  0.1251207705996653 0.3124231201132244 0  0.1876866139340531 0.312382340583933 0  0.2502592321249179 0.3123388659896252 0  0.3128412734257148 0.31229202365792 0  0.3754357619840751 0.3122414092880057 0  0.4380462558749021 0.3121870557127048 0  0.5006770638305019 0.3121296824029545 0  0.5633335446794371 0.312071051299423 0  0.6260225070044906 0.3120144521216267 0  0.6887526913322781 0.3119653253926208 0  0.7515352204064299 0.3119319914221892 0  0.8143837115771648 0.3119263717816022 0  0.8773135102226969 0.3119644614110756 0  0.9403396175964174 0.3120662022995879 0  1.00347453198632 0.3122545835427433 0  0 0.375 0  0.062566205993876 0.3749563665313103 0  0.1251348311108902 0.3749114833441081 0  0.187708386563321 0.3748641178808642 0  0.2502895647296847 0.3748130905114567 0  0.3128813481767176 0.3747573333131285 0  0.3754871456715505 0.3746959946435182 0  0.438110973432989 0.3746286166652921 0  0.5007577082708796 0.3745554244313746 0  0.5634334478145111 0.3744777799618102 0  0.6261460148890209 0.3743988706148982 0  0.6889056226784306 0.3743247101413951 0  0.7517256489543256 0.3742655135015459 0  0.8146233308716753 0.3742374227308649 0  0.8776200332950675 0.3742643467126826 0  0.9407408040345713 0.3743792668857168 0  1.004013671709372 0.3746237364283715 0  0 0.4375 0  0.06257067170810364 0.4374519508144779 0  0.1251439441145641 0.4374023309698321 0  0.187722514888396 0.4373495589827728 0  0.2503092737163479 0.4372920475274892 0  0.3129074169535484 0.4372282302724791 0  0.3755205910695644 0.4371566338591504 0  0.4381530877474489 0.4370760273925652 0  0.5008101288672788 0.4369857011339416 0  0.5634983026018525 0.4368859557053132 0  0.6262262408161861 0.4367789251118845 0  0.6890056520853939 0.4366699080613798 0  0.7518528141462182 0.4365694223358838 0  0.8147905274599057 0.4364961651561762 0  0.8778502674881246 0.4364808216337052 0  0.9410738373567589 0.4365700007214892 0  1.004513390598504 0.4368283914110778 0  0 0.5 0  0.06257250687483773 0.4999491078083182 0  0.1251477012677294 0.4998963323168379 0  0.1877283665293239 0.4998397412348176 0  0.2503174773078033 0.499777313487229 0  0.3129183109346192 0.4997069141916797 0  0.3755345852925144 0.4996263028666573 0  0.4381706493981761 0.499533205647789 0  0.5008317778524271 0.4994255071443016 0  0.5635246663141158 0.4993016607008274 0  0.6262583030356789 0.4991614879053557 0  0.6890455057789037 0.4990076510425335 0  0.7519055363250039 0.4988482365268002 0  0.8148682172203169 0.4987010316985977 0  0.8779795804103251 0.4986000066255138 0  0.9413078072065547 0.4986037104482254 0  1.004945963718185 0.4988029788914179 0  0 0.5625 0  0.06257159691586658 0.562448148839877 0  0.1251458697540365 0.562394149503185 0  0.1877255837000687 0.5623357605888056 0  0.2503136838158884 0.5622705532109281 0  0.3129133936670201 0.5621958178842343 0  0.3755283311750734 0.5621084796586009 0  0.4381626655501855 0.5620050405791234 0  0.5008213713784888 0.5618815925661684 0  0.5635107065092615 0.5617339914637962 0  0.626239184240527 0.5615583759668409 0  0.6890195758887131 0.5613523917756079 0  0.7518728951823606 0.5611177995442312 0  0.8148357564891392 0.5608656522465528 0  0.877972354308417 0.5606257930583306 0  0.9413900183391005 0.5604622110379035 0  1.005250797153964 0.5604925466355312 0  0 0.625 0  0.06256792280722263 0.6249493369788119 0  0.1251384112972301 0.6248963545311715 0  0.1877141102410169 0.6248385966742322 0  0.2502978255551641 0.6247733207765733 0  0.3128926027318493 0.6246973299056667 0  0.375501805192197 0.6246067774917166 0  0.4381292035801622 0.6244969406966173 0  0.5007791161533861 0.6243619719824688 0  0.5634567202283811 0.6241946719590895 0  0.626168853511272 0.6239864084186975 0  0.6889260773763555 0.6237275004013035 0  0.7517476965455234 0.6234088345359129 0  0.8146729796389549 0.623026469106158 0  0.8777833980776415 0.6225928941824092 0  0.9412388909393328 0.6221609392724103 0  1.005317407028016 0.6218630174105174 0  0 0.6875 0  0.06256156890208799 0.6874528414807708 0  0.1251254964953045 0.6874033309635825 0  0.1876942094292279 0.6873489464130718 0  0.250270274790574 0.6872867999798891 0  0.3128564563714165 0.6872134048079641 0  0.3754557488072663 0.6871243745676441 0  0.4380713763909933 0.6870140222837003 0  0.5007067511592131 0.6868748171067099 0  0.5633654342112897 0.6866966541672911 0  0.6260513248312101 0.6864659113319012 0  0.6887698506334544 0.6861643642323221 0  0.7515324097653598 0.6857683855380553 0  0.814369820241216 0.6852500174392357 0  0.8773672174572601 0.6845850848467991 0  0.940739181029845 0.6837830907944913 0  1.004948129392458 0.6829651073351134 0  0 0.75 0  0.06255272760869128 0.7499586931674929 0  0.1251075126972258 0.7499151754140893 0  0.1876664709227515 0.7498670511958035 0  0.2502318405789897 0.749811521350961 0  0.3128060221531044 0.7497451114373755 0  0.3753915776140626 0.7496633011485345 0  0.4379911480204292 0.7495599937677977 0  0.5006072172600419 0.7494267324472468 0  0.5632416158821223 0.7492515174772302 0  0.6258946784154578 0.7490169943126006 0  0.6885642749061861 0.7486976558824785 0  0.7512463545569187 0.7482555681548319 0  0.8139437298963139 0.747634303548811 0  0.8767054470748535 0.7467531182725098 0  0.9397560895894668 0.7455180211647916 0  1.003766683495009 0.7439471002332615 0  0 0.8125 0  0.06254169990306604 0.8124667499021024 0  0.1250850643397668 0.8124316191156488 0  0.187631807926968 0.812392553239861 0  0.2501837536914502 0.8123471139825345 0  0.3127428662313015 0.8122922113480985 0  0.3753112408290478 0.8122237252671828 0  0.4378909903929636 0.8121359420078731 0  0.5004839039127585 0.8120206835566168 0  0.5630906104771808 0.8118659228117718 0  0.6257087176044003 0.8116535162063552 0  0.6883289808063849 0.8113553592680548 0  0.7509283600756146 0.8109265555414561 0  0.8134612567266304 0.8102925265552096 0  0.875867470565078 0.8093232216755534 0  0.9382051576270654 0.8077814235818858 0  1.001486095419546 0.8052498426667232 0  0 0.875 0  0.06252889083085651 0.874976681396298 0  0.1250589651554867 0.8749519906663688 0  0.1875914474448918 0.8749244201583324 0  0.250127653458619 0.8748921606139776 0  0.3126690240113487 0.8748528859221707 0  0.3752171289247615 0.8748034426136609 0  0.4377735911872008 0.8747393773738392 0  0.5003398055325554 0.8746541921687804 0  0.5629161356820986 0.8745381388251707 0  0.62549979471595 0.8743762232436242 0  0.6880794079381025 0.8741448125793841 0  0.7506213323384657 0.8738056041760263 0  0.8130363691268325 0.8732938598248373 0  0.8751049987679318 0.8724911615242628 0  0.9363443203071714 0.8711474418555165 0  0.996006569403536 0.8686135821655679 0  0 0.9375 0  0.06251479914223729 0.9374879800970958 0  0.1250302209872421 0.9374752359174342 0  0.1875469140492239 0.9374609688362293 0  0.2500655857642421 0.9374442141149728 0  0.3125870306489422 0.9374237208405303 0  0.3751121503260407 0.9373977768390926 0  0.4376419435332461 0.93736393967
[...]
<PointData  Vectors="f_54"> 
<DataArray  type="Float64"  Name="f_54"  NumberOfComponents="3" format="ascii">0.0000000000000000e+00 0.0000000000000000e+00 0.0000000000000000e+00  0.0000000000000000e+00 0.0000000000000000e+00 0.0000000000000000e+00  0.0000000000000000e+00 0.0000000000000000e+00 0.0000000000000000e+00  0.0000000000000000e+00 0.0000000000000000e+00 0.0000000000000000e+00  0.0000000000000000e+00 0.0000000000000000e+00 0.0000000000000000e+00  0.0000000000000000e+00 0.0000000000000000e+00 0.0000000000000000e+00  0.0000000000000000e+00 0.0000000000000000e+00 0.0000000000000000e+00  0.0000000000000000e+00 0.0000000000000000e+00 0.0000000000000000e+00  0.0000000000000000e+00 0.0000000000000000e+00 0.0000000000000000e+00  0.0000000000000000e+00 0.0000000000000000e+00 0.0000000000000000e+00  0.0000000000000000e+00 0.0000000000000000e+00 0.0000000000000000e+00  0.0000000000000000e+00 0.0000000000000000e+00 0.0000000000000000e+00  0.0000000000000000e+00 0.0000000000000000e+00 0.0000000000000000e+00  0.0000000000000000e+00 0.0000000000000000e+00 0.0000000000000000e+00  0.0000000000000000e+00 0.0000000000000000e+00 0.0000000000000000e+00  0.0000000000000000e+00 0.0000000000000000e+00 0.0000000000000000e+00  0.0000000000000000e+00 0.0000000000000000e+00 0.0000000000000000e+00  0.0000000000000000e+00 0.0000000000000000e+00 0.0000000000000000e+00  4.1858074805056345e-06 -8.6996507526488462e-09 0.0000000000000000e+00  8.4998000232292716e-06 -1.9600624974827376e-08 0.0000000000000000e+00  1.3072157988959586e-05 -3.5205041649521467e-08 0.0000000000000000e+00  1.8034650159050235e-05 -5.8640361346061915e-08 0.0000000000000000e+00  2.3520711803374735e-05 -9.4040863352443839e-08 0.0000000000000000e+00  2.9664652176175006e-05 -1.4701553223619405e-07 0.0000000000000000e+00  3.6599887087186402e-05 -2.2524473895867870e-07 0.0000000000000000e+00  4.4456519419237293e-05 -3.3928165531260479e-07 0.0000000000000000e+00  5.3359713483249907e-05 -5.0373815255977713e-07 0.0000000000000000e+00  6.3433258433962233e-05 -7.3935760809814394e-07 0.0000000000000000e+00  7.4820828033094191e-05 -1.0775077897706817e-06 0.0000000000000000e+00  8.7761473305948784e-05 -1.5720922703104753e-06 0.0000000000000000e+00  1.0283334770880051e-04 -2.3363287533466393e-06 0.0000000000000000e+00  1.2175082652238655e-04 -3.6697858633328336e-06 0.0000000000000000e+00  1.5012208038940112e-04 -6.5376206315355178e-06 0.0000000000000000e+00  2.0766022686978923e-04 -1.4508472782367950e-05 0.0000000000000000e+00  0.0000000000000000e+00 0.0000000000000000e+00 0.0000000000000000e+00  8.2442234331871362e-06 -1.5200963413905631e-08 0.0000000000000000e+00  1.6744178309856966e-05 -3.4509719578556467e-08 0.0000000000000000e+00  2.5759805703927108e-05 -6.2608538454274642e-08 0.0000000000000000e+00  3.5554893527537691e-05 -1.0537834612841707e-07 0.0000000000000000e+00  4.6397519266288805e-05 -1.7063230175160719e-07 0.0000000000000000e+00  5.8558604808784656e-05 -2.6901270217357082e-07 0.0000000000000000e+00  7.2308101485693777e-05 -4.1511413558736825e-07 0.0000000000000000e+00  8.7908761627620495e-05 -6.2891611755000257e-07 0.0000000000000000e+00  1.0560857946049082e-04 -9.3766895254131204e-07 0.0000000000000000e+00  1.2563557421168972e-04 -1.3785356177102885e-06 0.0000000000000000e+00  1.4820411430224262e-04 -2.0026302485575062e-06 0.0000000000000000e+00  1.7355257001789079e-04 -2.8814523033002475e-06 0.0000000000000000e+00  2.0204637054545849e-04 -4.1148821055004135e-06 0.0000000000000000e+00  2.3436270457967374e-04 -5.8211757096126286e-06 0.0000000000000000e+00  2.7146936874134273e-04 -7.9703164194202979e-06 0.0000000000000000e+00  3.1204213030531602e-04 -9.2535860893045241e-06 0.0000000000000000e+00  0.0000000000000000e+00 0.0000000000000000e+00 0.0000000000000000e+00  1.2046715144042356e-05 -1.7598445430145234e-08 0.0000000000000000e+00  2.4474845134687208e-05 -4.0643546171515196e-08 0.0000000000000000e+00  3.7672657736974533e-05 -7.5375951365390155e-08 0.0000000000000000e+00  5.2035858669716404e-05 -1.2970445840131227e-07 0.0000000000000000e+00  6.7969050979647518e-05 -2.1423763365603285e-07 0.0000000000000000e+00  8.5884161912384778e-05 -3.4355060881067984e-07 0.0000000000000000e+00  1.0619467676376134e-04 -5.3775759085378291e-07 0.0000000000000000e+00  1.2930458270304012e-04 -8.2444174395343364e-07 0.0000000000000000e+00  1.5559127425172418e-04 -1.2409532753614695e-06 0.0000000000000000e+00  1.8538240245458037e-04 -1.8370005350259735e-06 0.0000000000000000e+00  2.1892734943103763e-04 -2.6772521889986688e-06 0.0000000000000000e+00  2.5636209222124154e-04 -3.8430882566458434e-06 0.0000000000000000e+00  2.9765162484194410e-04 -5.4310473691858919e-06 0.0000000000000000e+00  3.4243546250784700e-04 -7.5429001330812091e-06 0.0000000000000000e+00  3.8952822835481448e-04 -1.0273475732684352e-05 0.0000000000000000e+00  4.3554631886939094e-04 -1.3869253881181786e-05 0.0000000000000000e+00  0.0000000000000000e+00 0.0000000000000000e+00 0.0000000000000000e+00  1.5466853696686650e-05 -1.4557491789987793e-08 0.0000000000000000e+00  3.1437049287364281e-05 -3.5111444773892948e-08 0.0000000000000000e+00  4.8424067868977347e-05 -6.8591888316004541e-08 0.0000000000000000e+00  6.6954429712842576e-05 -1.2391231241690895e-07 0.0000000000000000e+00  8.7571300045456612e-05 -2.1322423432782222e-07 0.0000000000000000e+00  1.1083399800005754e-04 -3.5348743315136921e-07 0.0000000000000000e+00  1.3731143729431611e-04 -5.6844669426148332e-07 0.0000000000000000e+00  1.6756705948844095e-04 -8.9105822314000131e-07 0.0000000000000000e+00  2.0213227463359952e-04 -1.3662895742598903e-06 0.0000000000000000e+00  2.4146464207510100e-04 -2.0539582049152485e-06 0.0000000000000000e+00  2.8588529721634473e-04 -3.0307630317984396e-06 0.0000000000000000e+00  3.3548528740342859e-04 -4.3897465212518798e-06 0.0000000000000000e+00  3.8997739077191045e-04 -6.2340401975015976e-06 0.0000000000000000e+00  4.4844059817026249e-04 -8.6605573719014999e-06 0.0000000000000000e+00  5.0886140948895999e-04 -1.1730857119539968e-05 0.0000000000000000e+00  5.6739754827008783e-04 -1.5424815325104204e-05 0.0000000000000000e+00  0.0000000000000000e+00 0.0000000000000000e+00 0.0000000000000000e+00  1.8382317534096911e-05 -5.5355583158571307e-09 0.0000000000000000e+00  3.7383267592726343e-05 -1.6683628670027668e-08 0.0000000000000000e+00  5.7635726457757705e-05 -4.0024906871259392e-08 0.0000000000000000e+00  7.9793795592073504e-05 -8.4231899316100507e-08 0.0000000000000000e+00  1.0454018376629434e-04 -1.6144414067239053e-07 0.0000000000000000e+00  1.3258882592897341e-04 -2.8905549768893773e-07 0.0000000000000000e+00  1.6468004079967714e-04 -4.9205919594306098e-07 0.0000000000000000e+00  2.0156451987016875e-04 -8.0605808265110648e-07 0.0000000000000000e+00  2.4397113289860933e-04 -1.2809171365870552e-06 0.0000000000000000e+00  2.9255187908746184e-04 -1.9847130930641460e-06 0.0000000000000000e+00  3.4779516127456681e-04 -3.0069641315835250e-06 0.0000000000000000e+00  4.0989561659903937e-04 -4.4589025975025597e-06 0.0000000000000000e+00  4.7856502067662238e-04 -6.4666680036909954e-06 0.0000000000000000e+00  5.5276756487326125e-04 -9.1509806997187808e-06 0.0000000000000000e+00  6.3038111540115105e-04 -1.2584649908327352e-05 0.0000000000000000e+00  7.0787829081609245e-04 -1.6715189742426813e-05 0.0000000000000000e+00  0.0000000000000000e+00 0.0000000000000000e+00 0.0000000000000000e+00  2.0677857633028399e-05 9.0746056103329402e-09 0.0000000000000000e+00  4.2078882177967259e-05 1.3896606228917515e-08 0.0000000000000000e+00  6.4945476231464334e-05 9.3385792379159360e-09 0.0000000000000000e+00  9.0052330747497449e-05 -1.1665115409218939e-08 0.0000000000000000e+00  1.1821959802104974e-04 -5.9471115180375531e-08 0.0000000000000000e+00  1.5032138229777628e-04 -1.4959085636588839e-07 0.0000000000000000e+00  1.8728640550804782e-04 -3.0530473673562095e-07 0.0000000000000000e+00  2.3008617249723682e-04 -5.6129258392652341e-07 0.0000000000000000e+00  2.7970392493580618e-04 -9.6850396749336727e-07 0.0000000000000000e+00  3.3707524424088088e-04 -1.6002625805615830e-06 0.0000000000000000e+00  4.0298878169940303e-04 -2.5589565385352296e-06 0.0000000000000000e+00  4.7793440317593790e-04 -3.9812414780815693e-06 0.0000000000000000e+00  5.6188859062463825e-04 -6.0370288331827963e-06 0.0000000000000000e+00  6.5403845440169760e-04 -8.9135303344676753e-06 0.0000000000000000e+00  7.5247546588265576e-04 -1.2771753632267178e-05 0.0000000000000000e+00  8.5394840407691276e-04 -1.7665587097970474e-05 0.0000000000000000e+00  0.0000000000000000e+00 0.0000000000000000e+00 0.0000000000000000e+00  2.2249461207543148e-05 2.7905201878017573e-08 0.0000000000000000e+00  4.5310401278640102e-05 5.3808606817499035e-08 0.0000000000000000e+00  7.0019300859996172e-05 7.5070708250527911e-08 0.0000000000000000e+00  9.7258678092135010e-05 8.7575787380948897e-08 0.0000000000000000e+00  1.2797818802789585e-04 8.4596310382209573e-08 0.0000000000000000e+00  1.6321219901050015e-04 5.5085986067971155e-08 0.0000000000000000e+00  2.0409074124321165e-04 -1.8947903398043352e-08 0.0000000000000000e+00  2.5183869898142097e-04 -1.6648900329562497e-07 0.0000000000000000e+00  3.0775525034132617e-04 -4.3363400169084474e-07 0.0000000000000000e+00  3.7316191770159169e-04 -8.9254350524713635e-07 0.0000000000000000e+00  4.4930383428048434e-04 -1.6537287127834980e-06 0.0000000000000000e+00  5.3718687286763715e-04 -2.8809952882901756e-06 0.0000000000000000e+00  6.3733711554040079e-04 -4.8050595469253475e-06 0.0000000000000000e+00  7.4948482180061532e-04 -7.7247017669128531e-06 0.0000000000000000e+00  8.7220676254914562e-04 -1.1972227949313132e-05 0.0000000000000000e+00  1.0025979288866337e-03 -1.7805686240030584e-05 0.0000000000000000e+00  0.0000000000000000e+00 0.0000000000000000e+00 0.0000000000000000e+00  2.3009802828890264e-05 4.8701324112283036e-08 0.0000000000000000e+00  4.6896493504747585e-05 9.8312092802428196e-08 0.0000000000000000e+00  7.2568138060265030e-05 1.4948354026274151e-07 0.0000000000000000e+00  1.0099441665122700e-04 2.0217556951054177e-07 0.0000000000000000e+00  1.3323749562360972e-04 2.5497799108964112e-07 0.0000000000000000e+00  1.7048187347109319e-04 3.0390252632726650e-07 0.0000000000000000e+00  2.1406085461146218e-04 3.4022436280301567e-07 0.0000000000000000e+00  2.6547494033807929e-04 3.4666029511895029e-07 0.0000000000000000e+00  3.2639368760413332e-04 2.9070340544962425e-07 0.0000000000000000e+00  3.9862714745179587e-04 1.1325953984033532e-07 0.0000000000000000e+00  4.8404610268077986e-04 -2.9003823323046106e-07 0.0000000000000000e+00  5.8442389040839408e-04 -1.0977153531592761e-06 0.0000000000000000e+00  7.0117203250802775e-04 -2.6022553539991315e-06 0.0000000000000000e+00  8.3495753048074331e-04 -5.2524807130697683e-06 0.0000000000000000e+00  9.8523183791203125e-04 -9.6670861629610509e-06 0.0000000000000000e+00  1.1497541019072576e-03 -1.6547906516337245e-05 0.0000000000000000e+00  0.0000000000000000e+00 0.0000000000000000e+00 0.0000000000000000e+00  2.2894835796369026e-05 6.8553892110851319e-08 0.0000000000000000e+00  4.6701622960721452e-05 1.4121201414447797e-07 0.0000000000000000e+00  7.2369421542446875e-05 2.2231179406861428e-07 0.0000000000000000e+00  1.0092466420878327e-04 3.1655794969465754e-07 0.0000000000000000e+00  1.3351280917417552e-04 4.2904647738098539e-07 0.0000000000000000e+00  1.7144288784845909e-04 5.6496792065211413e-07 0.0000000000000000e+00  2.1623433968227218e-04 7.2861354310688772e-07 0.0000000000000000e+00  2.6966325316713657e-04 9.2092166942403601e-07 0.0000000000000000e+00  3.3380090607764313e-04 1.1340570366235970e-06 0.0000000000000000e+00  4.1103016991758011e-04 1.3401313581112649e-06 0.0000000000000000e+00  5.0401378968365407e-04 1.4687609777028559e-06 0.0000000000000000e+00  6.1557305553887494e-04 1.3645116089128243e-06 0.0000000000000000e+00  7.4842139968259299e-04 7.1166829597494316e-07 0.0000000000000000e+00  9.0470317100643089e-04 -1.0830881984989012e-06 0.0000000000000000e+00  1.0853516403591609e-03 -5.0295633108590356e-06 0.0000000000000000e+00  1.2894391866912524e-03 -1.2603741073768740e-05 0.0000000000000000e+00  0.0000000000000000e+00 0.0000000000000000e+00 0.0000000000000000e+00  2.1871065340021626e-05 8.4277607394872492e-08 0.0000000000000000e+00  4.4651414607381200e-05 1.7564347008671475e-07 0.0000000000000000e+00  6.9292186883929312e-05 2.8195426459543506e-07 0.0000000000000000e+00  9.6835411267775129e-05 4.1262720321132220e-07 0.0000000000000000e+00  1.2846596746746774e-04 5.7954313157477050e-07 0.0000000000000000e+00  1.6557153545517650e-04 7.9802719846749814e-07 0.0000000000000000e+00  2.0981280399661140e-04 1.0877603360545429e-06 0.0000000000000000e+00  2.6320487696200134e-04 1.4731532902045465e-06 0.0000000000000000e+00  3.2820732547992075e-04 1.9819591309698608e-06 0.0000000000000000e+00  4.0781246301019704e-04 2.6391597817586838e-06 0.0000000000000000e+00  5.0560556742959648e-04 3.4492502865262768e-06 0.0000000000000000e+00  6.2574249470682313e-04 4.3516374820788979e-06 0.0000000000000000e+00  7.7274844465165975e-04 5.1175508513360845e-06 0.0000000000000000e+00  9.5100471494318514e-04 5.1329766986066524e-06 0.0000000000000000e+00  1.1638350066296109e-03 3.0100750785709779e-06 0.0000000000000000e+00  1.4123992734163602e-03 -3.8923189637866923e-06 0.0000000000000000e+00  0.0000000000000000e+00 0.0000000000000000e+00 0.0000000000000000e+00  1.9942695324123108e-05 9.2904149509820787e-08 0.0000000000000000e+00  4.0748111732125800e-05 1.9512637328920537e-07 0.0000000000000000e+00  6.3323261446894302e-05 3.1722924766184620e-07 0.0000000000000000e+00  8.8674346624896834e-05 4.7243351016417556e-07 0.0000000000000000e+00  1.1796645715490516e-04 6.7840967112943211e-07 0.0000000000000000e+00  1.5259675242748898e-04 9.5967242153067409e-07 0.0000000000000000e+00  1.9428723686110800e-04 1.3508411140125142e-06 0.0000000000000000e+00  2.4520407084514226e-04 1.9010068147809809e-06 0.0000000000000000e+00  3.0810988251230270e-04 2.6791990888455572e-06 0.0000000000000000e+00  3.8655096037148572e-04 3.7799584706770192e-06 0.0000000000000000e+00  4.8506628632748969e-04 5.3247405548900956e-06 0.0000000000000000e+00  6.0936788072796569e-04 7.4447143556181390e-06 0.0000000000000000e+00  7.6636259225692724e-04 1.0200612160651353e-05 0.0000000000000000e+00  9.6375117181435842e-04 1.3315030482491028e-05 0.0000000000000000e+00  1.2088246372923403e-03 1.5431717473088223e-05 0.0000000000000000e+00  1.5063715867570002e-03 1.2698540831026964e-05 0.0000000000000000e+00  0.0000000000000000e+00 0.0000000000000000e+00 0.0000000000000000e+00  1.7157517262029811e-05 9.2222214500998970e-08 0.0000000000000000e+00  3.5083738465514767e-05 1.9475062114306741e-07 0.0000000000000000e+00  5.4590670331642371e-05 3.1943485824138109e-07 0.0000000000000000e+00  7.6589572258759322e-05 4.8150540095351035e-07 0.0000000000000000e+00  1.0215337088875983e-04 7.0201989454390301e-07 0.0000000000000000e+00  1.3259707235950652e-04 1.0113994391428368e-06 0.0000000000000000e+00  1.6958628974621237e-04 1.4547751800366458e-06 0.0000000000000000e+00  2.1528812285160546e-04 2.1002960540543040e-06 0.0000000000000000e+00  2.7258396724061628e-04 3.0522824282574033e-06 0.0000000000000000e+00  3.4536886786435344e-04 4.4722972210267047e-06 0.0000000000000000e+00  4.3896089452933050e-04 6.6127164161411746e-06 0.0000000000000000e+00  5.6061916052445023e-04 9.8668952004137314e-06 0.0000000000000000e+00  7.2007561556585830e-04 1.4823170888957817e-05 0.0000000000000000e+00  9.2972724368611099e-04 2.2202445737137438e-05 0.0000000000000000e+00  1.2036068504425136e-03 3.2000746026068590e-05 0.0000000000000000e+00  1.5548128265355909e-03 3.8699182242693297e-05 0.0000000000000000e+00  0.0000000000000000e+00 0.0000000000000000e+00 0.0000000000000000e+00  1.3610211714103915e-05 8.1260128758857455e-08 0.0000000000000000e+00  2.7848056500107722e-05 1.7226298360339999e-07 0.0000000000000000e+00  4.3379257436030371e-05 2.8431885876851377e-07 0.0000000000000000e+00  6.0958344349779216e-05 4.3222395868541472e-07 0.0000000000000000e+00  8.1486552177865794e-05 6.3688722374739161e-07 0.0000000000000000e+00  1.0608946590025604e-04 9.2928346547271013e-07 0.0000000000000000e+00  1.3622718098108783e-04 1.3567205522636785e-06 0.0000000000000000e+00  1.7385720506984031e-04 1.9931591661678126e-06 0.0000000000000000e+00  2.2168285474727156e-04 2.9568485859128408e-06 0.0000000000000000e+00  2.8354017504569868e-04 4.4418911934862489e-06 0.0000000000000000e+00  3.6500641629541678e-04 6.7784098146966452e-06 0.0000000000000000e+00  4.7434686142327142e-04 1.0556951451677107e-05 0.0000000000000000e+00  6.2391174770650250e-04 1.6908765523367086e-05 0.0000000000000000e+00  8.3186177683239771e-04 2.8171471751108323e-05 0.0000000000000000e+00  1.1227308943731859e-03 4.9356900905302412e-05 0.0000000000000000e+00  1.5151761767839831e-03 8.8787542079128454e-05 0.0000000000000000e+00  0.0000000000000000e+00 0.0000000000000000e+00 0.0000000000000000e+00  9.4417742581550684e-06 6.0591072605429835e-08 0.0000000000000000e+00  1.9328379641528126e-05 1.2877923718678993e-07 0.0000000000000000e+00  3.0133148617238383e-05 2.1343950255188191e-07 0.0000000000000000e+00  4.2396653740079146e-05 3.2631388974172784e-07 0.0000000000000000e+00  5.6771754565867758e-05 4.8421918090351519e-07 0.0000000000000000e+00  7.4085847936030641e-05 7.1242947838340040e-07 0.0000000000000000e+00  9.5432564858119009e-05 1.0501216247071647e-06 0.0000000000000000e+00  1.2231388035688180e-04 1.5594242498278955e-06 0.0000000000000000e+00  1.5687021650227079e-04 2.3408511453356614e-06 0.0000000000000000e+00  2.0226841618589707e-04 3.5604355989009919e-06 0.0000000000000000e+00  2.6338146664030520e-04 5.4999812779494736e-06 0.0000000000000000e+00  3.4802234932197729e-04 8.6606985427911872e-06 0.0000000000000000e+00  4.6925690470479755e-04 1.4024877272424148e-05 0.0000000000000000e+00  6.4990860492280481e-04 2.3921409505634660e-05 0.0000000000000000e+00  9.3225155191100186e-04 4.5652923786358155e-05 0.0000000000000000e+00  1.4075026634878796e-03 1.0961322224613009e-04 0.0000000000000000e+00  0.0000000000000000e+00 0.0000000000000000e+00 0.0000000000000000e+00  4.8341615244028861e-06 3.2361170507143768e-08 0.0000000000000000e+00  9.8990500768074566e-06 6.8882040906093385e-08 0.0000000000000000e+00  1.5440662761732808e-05 1.1443892436198670e-07 0.0000000000000000e+00  2.1741275677012330e-05 1.7552289007427034e-07 0.0000000000000000e+00  2.9144161124152365e-05 2.6149419742826634e-07 0.0000000000000000e+00  3.8088384524612277e-05 3.8651149438578794e-07 0.0000000000000000e+00  4.9161275990326424e-05 5.7262157588247720e-07 0.0000000000000000e+00  6.3182194646697122e-05 8.5476118419445438e-07 0.0000000000000000e+00  8.1343447257014136e-05 1.2886525018215665e-06 0.0000000000000000e+00  1.0546005904541301e-04 1.9619766380729102e-06 0.0000000000000000e+00  1.3843633911711728e-04 3.0039933165587604e-06 0.0000000000000000e+00  1.8517919000700996e-04 4.5622692252034963e-06 0.0000000000000000e+00  2.5441990273058476e-04 6.5970443775165817e-06 0.0000000000000000e+00  3.6203420078112074e-04 7.8612877444354478e-06 0.0000000000000000e+00  5.3381109509698826e-04 1.8783008143651234e-06 0.0000000000000000e+00  7.8563814252632707e-04 -3.2559953678841428e-05 0.0000000000000000e+00  0.0000000000000000e+00 0.0000000000000000e+00 0.0000000000000000e+00  0.0000000000000000e+00 0.0000000000000000e+00 0.0000000000000000e+00  0.0000000000000000e+00 0.0000000000000000e+00 0.0000000000000000e+00  0.0000000000000000e+00 0.0000000000000000e+00 0.0000000000000000e+00  0.0000000000000000e+00 0.0000000000000000e+00 0.0000000000000000e+00  0.0000000000000000e+00 0.0000000000000000e+00 0.0000000000000000e+00  0.0000000000000000e+00 0.0000000000000000e+00 0.0000000000000000e+00  0.0000000000000000e+00 0.0000000000000000e+00 0.0000000000000000e+00  0.0000000000000000e+00 0.0000000000000000e+00 0.0000000000000000e+00  0.0000000000000000e+00 0.0000000000000000e+00 0.0000000000000000e+00  0.0000000000000000e+00 0.0000000000000