<?xml version="1.0"?>
<VTKFile type="UnstructuredGrid"  version="0.1"  >
<UnstructuredGrid>
<Piece  NumberOfPoints="289" NumberOfCells="512">
<Points>
<DataArray  type="Float64"  NumberOfComponents="3"  format="ascii">0 0 0  0.0625 0 0  0.125 0 0  0.1875 0 0  0.25 0 0  0.3125 0 0  0.375 0 0  0.4375 0 0  0.5 0 0  0.5625 0 0  0.625 0 0  0.6875 0 0  0.75 0 0  0.8125 0 0  0.875 0 0  0.9375 0 0  1 0 0  0 0.0625 0  0.06252471400017415 0.0624894913225286 0  0.1250503100940321 0.06247880263590492 0  0.1875777012894157 0.06246777125833081 0  0.25010785645364 0.06245627489640859 0  0.3126418321246241 0.06244425720723292 0  0.3751808106385427 0.06243175875176511 0  0.4377261512006017 0.06241895250046154 0  0.5002794678806516 0.06240617908003569 0  0.5628427653637542 0.06239396925604063 0  0.6254187038237402 0.06238302673927474 0  0.6880111675133996 0.06237411791924398 0  0.7506265870368742 0.06236776734983943 0  0.8132772084889514 0.06236358000505661 0  0.8759893725256622 0.06235896890264335 0  0.9388231386888822 0.06234798594448814 0  1.001901660752668 0.06233447955707756 0  0 0.125 0  0.06254848866398895 0.1249791606343016 0  0.1250987204903959 0.124957941730458 0  0.1876525029094527 0.1249359962159103 0  0.2502117613143093 0.1249130534887929 0  0.3127786077748695 0.1248889694573793 0  0.3753554247273088 0.1248637893673759 0  0.4379449770156597 0.1248378238231081 0  0.5005505778201156 0.1248117322261072 0  0.5631763585305366 0.1247865956913399 0  0.6258277417100173 0.1247639391060644 0  0.6885123106772686 0.1247456233807385 0  0.7512414266401227 0.1247334680310886 0  0.814033082038449 0.1247283829216995 0  0.8769159461108852 0.1247287062251681 0  0.9399305695361939 0.1247271644032657 0  1.003110210537104 0.1247012961704692 0  0 0.1875 0  0.06257047522889164 0.1874692093114627 0  0.1251435032550945 0.1874378032842083 0  0.1877217344365085 0.1874052095233785 0  0.2503080002977382 0.1873709587528324 0  0.3129054197087757 0.1873347561188093 0  0.3755175277295816 0.187296575720428 0  0.4381484440456561 0.1872567834502973 0  0.5008031091192189 0.1872162877139489 0  0.5634876340999683 0.1871767056645101 0  0.6262098348862221 0.1871405093910599 0  0.6889800382331759 0.1871110748525079 0  0.75181219603473 0.187092485222224 0  0.8147250117060671 0.187088814984121 0  0.877741630246051 0.1871023465345537 0  0.9408837537403228 0.1871293464563836 0  1.004154004691169 0.1871495966249122 0  0 0.25 0  0.06258988152801093 0.2499598748253277 0  0.125183043044826 0.2499188504510216 0  0.1877828926110379 0.2498760735449869 0  0.2503930785258531 0.249830804719247 0  0.3130176299720792 0.2497825040404405 0  0.375661126165593 0.2497309526288346 0  0.4383289119829326 0.2496764236896971 0  0.5010273854951985 0.2496199147765993 0  0.5637643895582884 0.249563446621508 0  0.626549735637611 0.2495104175573162 0  0.6893958440730339 0.2494659686464147 0  0.7523183278765261 0.2494372519236309 0  0.815335928588514 0.2494333887842594 0  0.8784683462297513 0.2494647539154341 0  0.9417293660136008 0.249541141209921 0  1.005112980876545 0.2496692963181087 0  0 0.3125 0  0.0626059957924011 0.3124514423178166 0  0.1252158870295751 0.31240164974672 0  0.1878337224269493 0.3123494255850349 0  0.2504638413487291 0.3122936749377588 0  0.3131110435763785 0.3122334919169476 0  0.3757807924527025 0.312168295678645 0  0.4384794708027155 0.3120980392785775 0  0.5012147147150415 0.312023520888062 0  0.5639958517213287 0.3119468311178699 0  0.6268344545619414 0.3118719684538926 0  0.6897449616523088 0.3118056378483702 0  0.7527451612856568 0.3117581989441505 0  0.8158560374504779 0.3117446275427925 0  0.8791001017767124 0.3117851871501123 0  0.9424974700502198 0.3119053620429262 0  1.006061386467069 0.3121348354047681 0  0 0.375 0  0.06261820891393295 0.3749442481146675 0  0.1252407914175826 0.3748868812879142 0  0.1878722920919419 0.3748263019697261 0  0.2505175841073126 0.3747609729600505 0  0.3131820607799988 0.3746894876971838 0  0.3758718651096307 0.3746106977840329 0  0.4385941807774951 0.3745239321736406 0  0.5013576172351585 0.3744293574386766 0  0.5641727293095792 0.3743285483109786 0  0.6270527082158633 0.3742253594758702 0  0.6900142442982986 0.374127203487912 0  0.7530784577333804 0.3740468198660529 0  0.8162715972887136 0.3740045133279732 0  0.8796249938607646 0.3740305591061492 0  0.943173883976013 0.3741669376050324 0  1.006955884807948 0.3744667643751499 0  0 0.4375 0  0.06262603532353601 0.4374386720050856 0  0.1252567647452911 0.4373753259951846 0  0.1878970619719476 0.4373079264837462 0  0.2505521516401603 0.4372344243706354 0  0.3132278128919926 0.4371527868360137 0  0.3759306241729836 0.4370610833489029 0  0.4386682792634942 0.4369576685892826 0  0.5014500231764389 0.4368415279977599 0  0.5642872840840316 0.4367128902462761 0  0.6271946113531186 0.4365742662377646 0  0.6901910560224785 0.4364321425251155 0  0.7533021112429086 0.4362996119129294 0  0.8165621968007217 0.4362001834482933 0  0.8800173438674754 0.4361726949766321 0  0.9437272231471358 0.4362763819780213 0  1.007765216283445 0.4365936678652038 0  0 0.5 0  0.06262913255783566 0.4999351157236009 0  0.1252631080168471 0.4998678235646922 0  0.1879069476818178 0.4997956509528493 0  0.2505660285702539 0.4997160079302462 0  0.3132462865587647 0.49962615191792 0  0.3759544593752984 0.4995231932464403 0  0.4386984049933101 0.4994041798971011 0  0.5014875627709695 0.4992663316091793 0  0.5643336833783255 0.4991075490622504 0  0.6272520530908263 0.4989274176304409 0  0.6902635845848306 0.4987290735400166 0  0.7533983054609431 0.4985225046027164 0  0.8167007975236673 0.4983300475394815 0  0.8802376511053098 0.4981947353690434 0  0.9441054211248547 0.4981910376402759 0  1.008434822908463 0.4984344443859007 0  0 0.5625 0  0.06262731909550066 0.5624339667269097 0  0.1252594507309704 0.5623651982384396 0  0.1879013755099881 0.5622908402405853 0  0.2505584172481448 0.5622077982180668 0  0.3132364317670788 0.5621126171896517 0  0.3759420254362238 0.5620013705606695 0  0.4386828373763961 0.5618695813752872 0  0.5014679614220972 0.5617122295148496 0  0.5643086758768674 0.5615239591168807 0  0.6272198359196428 0.5612997204990575 0  0.6902226277006862 0.5610363119305007 0  0.753349920644539 0.5607357077289001 0  0.8166560248778801 0.5604117334925537 0  0.8802324848785616 0.5601023804203421 0  0.9442286591282222 0.5598896221951424 0  1.008867824478572 0.5599239568591368 0  0 0.625 0  0.06262058936513927 0.624935549132502 0  0.1252457804346931 0.6248681552697549 0  0.1878803258702222 0.6247947034429887 0  0.2505292951872863 0.6247117158500903 0  0.3131982371095016 0.6246151391985061 0  0.3758933508701469 0.6245000961022759 0  0.4386216850846996 0.6243605950322337 0  0.5013914219901875 0.6241892092537602 0  0.5642124102853309 0.6239767770582398 0  0.6270973699709729 0.6237122798170103 0  0.6900647814390255 0.6233833064325652 0  0.7531456620757071 0.6229781067497285 0  0.8163984183674982 0.6224915662509767 0  0.8799379273346506 0.6219400149843264 0  0.9439825628454844 0.6213926682152909 0  1.008905570020769 0.6210213234459565 0  0 0.6875 0  0.06260912428026251 0.6874400672475073 0  0.1252224625308842 0.6873771589118307 0  0.1878443594011958 0.6873080870588868 0  0.2504794423133412 0.6872292040492934 0  0.3131327516806929 0.6871361094705318 0  0.3758098522934561 0.6870232721255962 0  0.4385169139917162 0.6868835243282685 0  0.5012607621481742 0.6867073748759903 0  0.5640489662456852 0.6864820809809453 0  0.626890274755176 0.6861904406365966 0  0.6897964229559742 0.685809389785292 0  0.7527882578801131 0.6853089543089 0  0.8159136311639514 0.6846536824693897 0  0.8792929643284375 0.6838136673308544 0  0.9432156149452976 0.6828058353828313 0  1.008289702200339 0.6817999757562472 0  0 0.75 0  0.06259329550276843 0.7499475506685704 0  0.1251902472418034 0.7498923110780084 0  0.1877946220182849 0.7498312617592205 0  0.2504104336462215 0.7497608787076978 0  0.3130420446177058 0.7496767942584717 0  0.3756942250042856 0.7495733346517107 0  0.4383721201610771 0.7494428578868728 0  0.5010810416574203 0.7492747745840466 0  0.5638259571624274 0.7490540668760967 0  0.6266105904288761 0.7487590098325577 0  0.6894364612205724 0.7483576304140388 0  0.752304068778154 0.7478022490386591 0  0.8152250677337645 0.747021656582853 0  0.8782745022489514 0.7459136272954691 0  0.941759130718035 0.7443608264337711 0  1.006542607967669 0.742410596338679 0  0 0.8125 0  0.06257366191039081 0.8124578122995005 0  0.1251502617889812 0.8124132558409263 0  0.1877328291693826 0.8123637471749485 0  0.2503246044206746 0.8123062250129457 0  0.312929121971242 0.8122368177959844 0  0.3755502441416068 0.8121503748988093 0  0.4381920744332278 0.8120397696066937 0  0.500858592906865 0.8118948239889452 0  0.5635526798058114 0.8117006002724524 0  0.6262738608504119 0.8114346020300385 0  0.6890136051290134 0.8110620153399131 0  0.7517468354723827 0.8105271996998644 0  0.8144216981596611 0.8097374775596202 0  0.8769723910675019 0.8085303835528936 0  0.9394968762542401 0.8066076496664737 0  1.003375883118248 0.8034396973718657 0  0 0.875 0  0.06255095719209419 0.8749704305819132 0  0.1251039869759445 0.8749391356198332 0  0.1876612327021031 0.8749042226575263 0  0.250225004679372 0.87486342510899 0  0.3127978515886178 0.8748138363592735 0  0.3753825983057529 0.874751527501441 0  0.4379822876718769 0.874670968031416 0  0.500599865934517 0.8745641170544136 0  0.5632372056556877 0.8744189614309401 0  0.6258924392073042 0.8742171129369044 0  0.6885530271740448 0.8739297550099464 0  0.7511782890476909 0.8735104727489968 0  0.8136572943812664 0.8728811892155263 0  0.8757165874821132 0.8718990051860034 0  0.9367650852677001 0.8702607933912658 0  0.9959156753249581 0.8671934497824091 0  0 0.9375 0  0.06252606774359615 0.9374847640217605 0  0.1250532170818411 0.9374686181968092 0  0.1875825717192807 0.9374505613410257 0  0.2501153563399695 0.9374293867368126 0  0.3126529469326046 0.937403534364492 0  0.37519691283034 0.9373708764421764 0  0.4377490226841888 0.9373283899
[...]
<PointData  Vectors="f_54"> 
<DataArray  type="Float64"  Name="f_54"  NumberOfComponents="3" format="ascii">0.0000000000000000e+00 0.0000000000000000e+00 0.0000000000000000e+00  0.0000000000000000e+00 0.0000000000000000e+00 0.0000000000000000e+00  0.0000000000000000e+00 0.0000000000000000e+00 0.0000000000000000e+00  0.0000000000000000e+00 0.0000000000000000e+00 0.0000000000000000e+00  0.0000000000000000e+00 0.0000000000000000e+00 0.0000000000000000e+00  0.0000000000000000e+00 0.0000000000000000e+00 0.0000000000000000e+00  0.0000000000000000e+00 0.0000000000000000e+00 0.0000000000000000e+00  0.0000000000000000e+00 0.0000000000000000e+00 0.0000000000000000e+00  0.0000000000000000e+00 0.0000000000000000e+00 0.0000000000000000e+00  0.0000000000000000e+00 0.0000000000000000e+00 0.0000000000000000e+00  0.0000000000000000e+00 0.0000000000000000e+00 0.0000000000000000e+00  0.0000000000000000e+00 0.0000000000000000e+00 0.0000000000000000e+00  0.0000000000000000e+00 0.0000000000000000e+00 0.0000000000000000e+00  0.0000000000000000e+00 0.0000000000000000e+00 0.0000000000000000e+00  0.0000000000000000e+00 0.0000000000000000e+00 0.0000000000000000e+00  0.0000000000000000e+00 0.0000000000000000e+00 0.0000000000000000e+00  0.0000000000000000e+00 0.0000000000000000e+00 0.0000000000000000e+00  0.0000000000000000e+00 0.0000000000000000e+00 0.0000000000000000e+00  4.0718195330222551e-06 7.4306894204197199e-10 0.0000000000000000e+00  8.2704590290242558e-06 -1.0559731048606930e-09 0.0000000000000000e+00  1.2725377832028061e-05 -8.3313052885552200e-09 0.0000000000000000e+00  1.7568434242752042e-05 -2.4839482653956412e-08 0.0000000000000000e+00  2.2934549105762891e-05 -5.5661897955446801e-08 0.0000000000000000e+00  2.8961719709815222e-05 -1.0781983831828695e-07 0.0000000000000000e+00  3.5790401757401342e-05 -1.9105264912744043e-07 0.0000000000000000e+00  4.3562773257401131e-05 -3.1884495242993087e-07 0.0000000000000000e+00  5.2423673607867323e-05 -5.0990475033546174e-07 0.0000000000000000e+00  6.2528356866753726e-05 -7.9066690493985825e-07 0.0000000000000000e+00  7.4071413074586353e-05 -1.2006093973970514e-06 0.0000000000000000e+00  8.7378558815221584e-05 -1.8062775261114221e-06 0.0000000000000000e+00  1.0319118108245586e-04 -2.7446561059120242e-06 0.0000000000000000e+00  1.2358192443058709e-04 -4.3729945691941598e-06 0.0000000000000000e+00  1.5510409874980760e-04 -7.8326861104950520e-06 0.0000000000000000e+00  2.2052275510733280e-04 -1.7337507995092941e-05 0.0000000000000000e+00  0.0000000000000000e+00 0.0000000000000000e+00 0.0000000000000000e+00  8.0187346884923367e-06 4.0258054373057083e-09 0.0000000000000000e+00  1.6290303963576462e-05 3.3525517257239221e-09 0.0000000000000000e+00  2.5072967470759094e-05 -7.4677139035992887e-09 0.0000000000000000e+00  3.4630367421757270e-05 -3.5461281451623882e-08 0.0000000000000000e+00  4.5233082525427212e-05 -9.0202685102909923e-08 0.0000000000000000e+00  5.7158708704928771e-05 -1.8500230398635260e-07 0.0000000000000000e+00  7.0690198065687158e-05 -3.3838974799666241e-07 0.0000000000000000e+00  8.6112715638214383e-05 -5.7598790310133746e-07 0.0000000000000000e+00  1.0371057187572071e-04 -9.3293076808009852e-07 0.0000000000000000e+00  1.2376873277832520e-04 -1.4571452552193294e-06 0.0000000000000000e+00  1.4658968465353645e-04 -2.2141918100764291e-06 0.0000000000000000e+00  1.7254851200161595e-04 -3.2947847245124535e-06 0.0000000000000000e+00  2.0222552385864605e-04 -4.8241220770523395e-06 0.0000000000000000e+00  2.3663612812357149e-04 -6.9510612129030139e-06 0.0000000000000000e+00  2.7723303932691731e-04 -9.6596070192225697e-06 0.0000000000000000e+00  3.2299131555686472e-04 -1.1478841778897869e-05 0.0000000000000000e+00  0.0000000000000000e+00 0.0000000000000000e+00 0.0000000000000000e+00  1.1713485379208708e-05 1.1999211641964856e-08 0.0000000000000000e+00  2.3803474467600814e-05 1.7886599339038577e-08 0.0000000000000000e+00  3.6654950561309866e-05 1.0516806981601963e-08 0.0000000000000000e+00  5.0662393303936779e-05 -1.9452596665317416e-08 0.0000000000000000e+00  6.6232741570462005e-05 -8.4929851397913734e-08 0.0000000000000000e+00  8.3785888385487663e-05 -2.0407951935607287e-07 0.0000000000000000e+00  1.0375181468792915e-04 -4.0242983416904741e-07 0.0000000000000000e+00  1.2656360015920253e-04 -7.1546198424026113e-07 0.0000000000000000e+00  1.5264598224247908e-04 -1.1916801204426720e-06 0.0000000000000000e+00  1.8239994459483857e-04 -1.8960201886346071e-06 0.0000000000000000e+00  2.1618448374502084e-04 -2.9131277779781066e-06 0.0000000000000000e+00  2.5429419210822870e-04 -4.3491559091603237e-06 0.0000000000000000e+00  2.9691391137494979e-04 -6.3283280941000478e-06 0.0000000000000000e+00  3.4396292396444690e-04 -8.9756938063066277e-06 0.0000000000000000e+00  3.9453775430765034e-04 -1.2384176131092315e-05 0.0000000000000000e+00  4.4532804040616104e-04 -1.6733888169315001e-05 0.0000000000000000e+00  0.0000000000000000e+00 0.0000000000000000e+00 0.0000000000000000e+00  1.5031465513401658e-05 2.6065199546408510e-08 0.0000000000000000e+00  3.0558642788882046e-05 4.5640876498589082e-08 0.0000000000000000e+00  4.7089190004770885e-05 5.1027466731907082e-08 0.0000000000000000e+00  6.5146090189245560e-05 3.1918261253342468e-08 0.0000000000000000e+00  8.5272965954140615e-05 -2.6267612689387301e-08 0.0000000000000000e+00  1.0803596817229123e-04 -1.4449257525384240e-07 0.0000000000000000e+00  1.3402057049747464e-04 -3.5278129361126423e-07 0.0000000000000000e+00  1.6382117748429961e-04 -6.9354885392285180e-07 0.0000000000000000e+00  1.9802091169426111e-04 -1.2254967855804131e-06 0.0000000000000000e+00  2.3715803470709341e-04 -2.0276549663928471e-06 0.0000000000000000e+00  2.8167324336737652e-04 -3.2024553883000172e-06 0.0000000000000000e+00  3.3182586262465790e-04 -4.8754410183636341e-06 0.0000000000000000e+00  3.8755047284169257e-04 -7.1871511271064524e-06 0.0000000000000000e+00  4.4818896405846145e-04 -1.0270518403702154e-05 0.0000000000000000e+00  5.1197942464929562e-04 -1.4208148231003124e-05 0.0000000000000000e+00  5.7520762119693471e-04 -1.8965904541945109e-05 0.0000000000000000e+00  0.0000000000000000e+00 0.0000000000000000e+00 0.0000000000000000e+00  1.7852981381369854e-05 4.6587008632465209e-08 0.0000000000000000e+00  3.6313456404263601e-05 8.7528829442333659e-08 0.0000000000000000e+00  5.6004871936253174e-05 1.1593685746459470e-07 0.0000000000000000e+00  7.7574053191340641e-05 1.2218977005820850e-07 0.0000000000000000e+00  1.0170027584568594e-04 9.2110674080026116e-08 0.0000000000000000e+00  1.2910031140342561e-04 4.5660085736127718e-09 0.0000000000000000e+00  1.6052708938691534e-04 -1.7173032574166017e-07 0.0000000000000000e+00  1.9675866065820425e-04 -4.8238867731150657e-07 0.0000000000000000e+00  2.3857283711999896e-04 -9.9252372561606613e-07 0.0000000000000000e+00  2.8670107316034052e-04 -1.7925860638215406e-06 0.0000000000000000e+00  3.4175249076661654e-04 -3.0036506064589503e-06 0.0000000000000000e+00  4.0409477013505205e-04 -4.7794135606951121e-06 0.0000000000000000e+00  4.7367245823117578e-04 -7.2997154177362708e-06 0.0000000000000000e+00  5.4973830798089201e-04 -1.0747471260478510e-05 0.0000000000000000e+00  6.3048922865716224e-04 -1.5258782575713838e-05 0.0000000000000000e+00  7.1270009092157098e-04 -2.0834907783893904e-05 0.0000000000000000e+00  0.0000000000000000e+00 0.0000000000000000e+00 0.0000000000000000e+00  2.0066325149184460e-05 7.2705532104909635e-08 0.0000000000000000e+00  4.0840461703477441e-05 1.4187874584071842e-07 0.0000000000000000e+00  6.3050771147980014e-05 2.0288515371003083e-07 0.0000000000000000e+00  8.7459530828781759e-05 2.4859392551264883e-07 0.0000000000000000e+00  1.1487752667941700e-04 2.6760102171516706e-07 0.0000000000000000e+00  1.4617471678803431e-04 2.4173994082653018e-07 0.0000000000000000e+00  1.8228420830468321e-04 1.4253328722679538e-07 0.0000000000000000e+00  2.2419535372491606e-04 -7.3819998096280781e-08 0.0000000000000000e+00  2.7292981796433623e-04 -4.7331180276452089e-07 0.0000000000000000e+00  3.2949203321758159e-04 -1.1530042274033941e-06 0.0000000000000000e+00  3.9478284885897518e-04 -2.2513486126407428e-06 0.0000000000000000e+00  4.6946332619695989e-04 -3.9576762236760459e-06 0.0000000000000000e+00  5.5375684797953227e-04 -6.5153543759089634e-06 0.0000000000000000e+00  6.4718732254765950e-04 -1.0208120867965189e-05 0.0000000000000000e+00  7.4827982635241068e-04 -1.5313994653399277e-05 0.0000000000000000e+00  8.5431089120903468e-04 -2.2012628246645582e-05 0.0000000000000000e+00  0.0000000000000000e+00 0.0000000000000000e+00 0.0000000000000000e+00  2.1571865573581411e-05 1.0229755184389441e-07 0.0000000000000000e+00  4.3935192851345711e-05 2.0431562092858558e-07 0.0000000000000000e+00  6.7907083237073076e-05 3.0500857004376360e-07 0.0000000000000000e+00  9.4351388987846482e-05 4.0149503735222228e-07 0.0000000000000000e+00  1.2420069660120788e-04 4.8759942708193216e-07 0.0000000000000000e+00  1.5847548327693777e-04 5.5160859032922177e-07 0.0000000000000000e+00  1.9829775609227362e-04 5.7275360767429127e-07 0.0000000000000000e+00  2.4489463046347424e-04 5.1570753025567805e-07 0.0000000000000000e+00  2.9958466262959099e-04 3.2212505450694852e-07 0.0000000000000000e+00  3.6373637701899992e-04 -1.0195802709678528e-07 0.0000000000000000e+00  4.3868493586027898e-04 -9.0389060404349583e-07 0.0000000000000000e+00  5.2559110465474088e-04 -2.3070977758431078e-06 0.0000000000000000e+00  6.2523041074422970e-04 -4.6346199240776402e-06 0.0000000000000000e+00  7.3771549637872752e-04 -8.3208346946096815e-06 0.0000000000000000e+00  8.6218492338850010e-04 -1.3883886346941161e-05 0.0000000000000000e+00  9.9652555431564553e-04 -2.1813101304500815e-05 0.0000000000000000e+00  0.0000000000000000e+00 0.0000000000000000e+00 0.0000000000000000e+00  2.2287226444333250e-05 1.3210933930274360e-07 0.0000000000000000e+00  4.5426655558238839e-05 2.6800423250134167e-07 0.0000000000000000e+00  7.0301406015457478e-05 4.1123030336106071e-07 0.0000000000000000e+00  9.7855677192708245e-05 5.6459676119803224e-07 0.0000000000000000e+00  1.2912571442522911e-04 7.2936525837015777e-07 0.0000000000000000e+00  1.6527027947514045e-04 9.0372754938055889e-07 0.0000000000000000e+00  2.0759867381488033e-04 1.0799984770642243e-06 0.0000000000000000e+00  2.5759224007188084e-04 1.2395464709580188e-06 0.0000000000000000e+00  3.1691191369203909e-04 1.3438292118426402e-06 0.0000000000000000e+00  3.8737955355064698e-04 1.3189347773859750e-06 0.0000000000000000e+00  4.7091478038805090e-04 1.0298546259840396e-06 0.0000000000000000e+00  5.6940389987393460e-04 2.4004468296897749e-07 0.0000000000000000e+00  6.8447862460713248e-04 -1.4460212530647804e-06 0.0000000000000000e+00  8.1719972535191634e-04 -4.6491752521382679e-06 0.0000000000000000e+00  9.6768297470739399e-04 -1.0255427900131266e-05 0.0000000000000000e+00  1.1347499163933705e-03 -1.9348193733413516e-05 0.0000000000000000e+00  0.0000000000000000e+00 0.0000000000000000e+00 0.0000000000000000e+00  2.2153408316181016e-05 1.5808812539583021e-07 0.0000000000000000e+00  4.5189993219721329e-05 3.2431299462990715e-07 0.0000000000000000e+00  7.0028758229078768e-05 5.0724318453711835e-07 0.0000000000000000e+00  9.7664088952876442e-05 7.1617396666326971e-07 0.0000000000000000e+00  1.2920650790016318e-04 9.6129302526334341e-07 0.0000000000000000e+00  1.6592655699686023e-04 1.2534349452759315e-06 0.0000000000000000e+00  2.0930148220928119e-04 1.6029276656202139e-06 0.0000000000000000e+00  2.6106238986994492e-04 2.0165171539978992e-06 0.0000000000000000e+00  3.2323580575948171e-04 2.4903594487740320e-06 0.0000000000000000e+00  3.9816711029463681e-04 2.9952101725555551e-06 0.0000000000000000e+00  4.8850330011735842e-04 3.4466837881477806e-06 0.0000000000000000e+00  5.9709966813012026e-04 3.6484533580444886e-06 0.0000000000000000e+00  7.2680539772816037e-04 3.1909843759556766e-06 0.0000000000000000e+00  8.8009557530255886e-04 1.2911418018836249e-06 0.0000000000000000e+00  1.0585893000891954e-03 -3.4066382391984620e-06 0.0000000000000000e+00  1.2626548365629717e-03 -1.2941705225567327e-05 0.0000000000000000e+00  0.0000000000000000e+00 0.0000000000000000e+00 0.0000000000000000e+00  2.1141425834895977e-05 1.7590880521684313e-07 0.0000000000000000e+00  4.3160520662939175e-05 3.6391019729503662e-07 0.0000000000000000e+00  6.6974535664483025e-05 5.7725110482948014e-07 0.0000000000000000e+00  9.3588151133522268e-05 8.3153529870838036e-07 0.0000000000000000e+00  1.2414346367201100e-04 1.1460930158376591e-06 0.0000000000000000e+00  1.5997776887843567e-04 1.5454897337245994e-06 0.0000000000000000e+00  2.0269146221997929e-04 2.0609972260144412e-06 0.0000000000000000e+00  2.5422725359447738e-04 2.7314297476037683e-06 0.0000000000000000e+00  3.1695883796507932e-04 3.6017579205157857e-06 0.0000000000000000e+00  3.9378021031713061e-04 4.7156332896613525e-06 0.0000000000000000e+00  4.8817284806129473e-04 6.0928399580473625e-06 0.0000000000000000e+00  6.0420353518299264e-04 7.6717062551455576e-06 0.0000000000000000e+00  7.4637154990860402e-04 9.1751996400415379e-06 0.0000000000000000e+00  9.1920177022081022e-04 9.8283402377606743e-06 0.0000000000000000e+00  1.1265510200217561e-03 7.8524018233496441e-06 0.0000000000000000e+00  1.3709183329615471e-03 -1.7161890227491461e-07 0.0000000000000000e+00  0.0000000000000000e+00 0.0000000000000000e+00 0.0000000000000000e+00  1.9258717905924545e-05 1.8165188710629645e-07 0.0000000000000000e+00  3.9347616529263671e-05 3.7821587791171263e-07 0.0000000000000000e+00  6.1138108584195830e-05 6.0639180922956516e-07 0.0000000000000000e+00  8.5596113694848280e-05 8.8671690737183131e-07 0.0000000000000000e+00  1.1383880741565271e-04 1.2461360979605082e-06 0.0000000000000000e+00  1.4720416395850745e-04 1.7214235198186343e-06 0.0000000000000000e+00  1.8733912221478356e-04 2.3638303896422633e-06 0.0000000000000000e+00  2.3631305593972693e-04 3.2453104249083147e-06 0.0000000000000000e+00  2.9676290539503358e-04 4.4663522442904994e-06 0.0000000000000000e+00  3.7207225913682667e-04 6.1641500961290527e-06 0.0000000000000000e+00  4.6657321251460977e-04 8.5155476807637004e-06 0.0000000000000000e+00  5.8572619195878953e-04 1.1715964812901479e-05 0.0000000000000000e+00  7.3616343308897730e-04 1.5876839259114728e-05 0.0000000000000000e+00  9.2537211554427959e-04 2.0681284005906294e-05 0.0000000000000000e+00  1.1607383999255078e-03 2.4443156228054646e-05 0.0000000000000000e+00  1.4480563897476570e-03 2.2455801489910449e-05 0.0000000000000000e+00  0.0000000000000000e+00 0.0000000000000000e+00 0.0000000000000000e+00  1.6554302256517417e-05 1.7253686300464734e-07 0.0000000000000000e+00  3.3846298992725138e-05 3.6101299278736194e-07 0.0000000000000000e+00  5.2653523367947165e-05 5.8354187063992307e-07 0.0000000000000000e+00  7.3847392053133948e-05 8.6302737520015751e-07 0.0000000000000000e+00  9.8452026584847007e-05 1.2306042492751275e-06 0.0000000000000000e+00  1.2771993349525382e-04 1.7305839672513464e-06 0.0000000000000000e+00  1.6323401775498767e-04 2.4278907704373708e-06 0.0000000000000000e+00  2.0704926438370303e-04 3.4195434171147936e-06 0.0000000000000000e+00  2.6189239625642324e-04 4.8526853491090092e-06 0.0000000000000000e+00  3.3144240401220112e-04 6.9531327496299635e-06 0.0000000000000000e+00  4.2071339659020742e-04 1.0070097650507060e-05 0.0000000000000000e+00  5.3653725285544298e-04 1.4741353347234545e-05 0.0000000000000000e+00  6.8805627138725440e-04 2.1759401207355102e-05 0.0000000000000000e+00  8.8690355407245358e-04 3.2074844133726303e-05 0.0000000000000000e+00  1.1463255935307839e-03 4.5628517354952855e-05 0.0000000000000000e+00  1.4799084762137874e-03 5.5082142497356836e-05 0.0000000000000000e+00  0.0000000000000000e+00 0.0000000000000000e+00 0.0000000000000000e+00  1.3121476733441791e-05 1.4756847386563346e-07 0.0000000000000000e+00  2.6843856502252233e-05 3.0990475805293669e-07 0.0000000000000000e+00  4.1802779051650553e-05 5.0396153221924460e-07 0.0000000000000000e+00  5.8717418590244037e-05 7.5158275253860172e-07 0.0000000000000000e+00  7.8444701125158917e-05 1.0831636423730686e-06 0.0000000000000000e+00  1.0205188573897399e-04 1.5431322704839953e-06 0.0000000000000000e+00  1.3091937698070388e-04 2.1985995136170307e-06 0.0000000000000000e+00  1.6689256481844432e-04 3.1535284536462084e-06 0.0000000000000000e+00  2.1251307837604313e-04 4.5727758626548848e-06 0.0000000000000000e+00  2.7137839485949646e-04 6.7246399462838761e-06 0.0000000000000000e+00  3.4870549488339272e-04 1.0060540156764342e-05 0.0000000000000000e+00  4.5220183908375083e-04 1.5375646894451310e-05 0.0000000000000000e+00  5.9333154188706203e-04 2.4159540172229056e-05 0.0000000000000000e+00  7.8882157453925405e-04 3.9398076099969890e-05 0.0000000000000000e+00  1.0608735942080859e-03 6.7209335640478247e-05 0.0000000000000000e+00  1.4231799930666859e-03 1.1587499437936702e-04 0.0000000000000000e+00  0.0000000000000000e+00 0.0000000000000000e+00 0.0000000000000000e+00  9.0969200506350356e-06 1.0793439892292280e-07 0.0000000000000000e+00  1.8618907448409012e-05 2.2724619013498161e-07 0.0000000000000000e+00  2.9016854025329183e-05 3.7108282563858946e-07 0.0000000000000000e+00  4.0804624142182108e-05 5.5659244362233459e-07 0.0000000000000000e+00  5.4601032190985461e-05 8.0798631833594741e-07 0.0000000000000000e+00  7.1187741282565951e-05 1.1612168255936042e-06 0.0000000000000000e+00  9.1594417460460112e-05 1.6714962606858983e-06 0.0000000000000000e+00  1.1723057290794827e-04 2.4257913395690441e-06 0.0000000000000000e+00  1.5009894408348298e-04 3.5641620915082061e-06 0.0000000000000000e+00  1.9315508999423855e-04 5.3173407233882879e-06 0.0000000000000000e+00  2.5093638044950290e-04 8.0762189829495480e-06 0.0000000000000000e+00  3.3069823698420096e-04 1.2533439701150234e-05 0.0000000000000000e+00  4.4452062916131019e-04 2.0030799877212425e-05 0.0000000000000000e+00  6.1333772053418010e-04 3.3670196135463381e-05 0.0000000000000000e+00  8.7553995935850447e-04 6.2889587434345484e-05 0.0000000000000000e+00  1.3144434912293018e-03 1.4593949237784798e-04 0.0000000000000000e+00  0.0000000000000000e+00 0.0000000000000000e+00 0.0000000000000000e+00  4.6554024323281455e-06 5.7021736659261566e-08 0.0000000000000000e+00  9.5309564920175345e-06 1.2023134286822215e-07 0.0000000000000000e+00  1.4860584680264013e-05 1.9680552756301494e-07 0.0000000000000000e+00  2.0912069036355641e-05 2.9616686002446509e-07 0.0000000000000000e+00  2.8009994666516899e-05 4.3171991867912060e-07 0.0000000000000000e+00  3.6567982920004900e-05 6.2351848707825852e-07 0.0000000000000000e+00  4.7137222385244605e-05 9.0254760018479593e-07 0.0000000000000000e+00  6.0483897426870721e-05 1.3177153472354142e-06 0.0000000000000000e+00  7.7719516168381074e-05 1.9471278125470796e-06 0.0000000000000000e+00  1.0053225875089547e-04 2.9149703298915177e-06 0.0000000000000000e+00  1.3161987596201752e-04 4.4101781779770691e-06 0.0000000000000000e+00  1.7553641151060495e-04 6.6739740601971193e-06 0.0000000000000000e+00  2.4035970533616878e-04 9.7880161804698568e-06 0.0000000000000000e+00  3.4053630672402574e-04 1.2537006863823270e-05 0.0000000000000000e+00  4.9778451515163124e-04 7.9457781835632349e-06 0.0000000000000000e+00  7.1645604326271933e-04 -2.5507922546871773e-05 0.0000000000000000e+00  0.0000000000000000e+00 0.0000000000000000e+00 0.0000000000000000e+00  0.0000000000000000e+00 0.0000000000000000e+00 0.0000000000000000e+00  0.0000000000000000e+00 0.0000000000000000e+00 0.0000000000000000e+00  0.0000000000000000e+00 0.0000000000000000e+00 0.0000000000000000e+00  0.0000000000000000e+00 0.0000000000000000e+00 0.0000000000000000e+00  0.0000000000000000e+00 0.0000000000000000e+00 0.0000000000000000e+00  0.0000000000000000e+00 0.0000000000000000e+00 0.0000000000000000e+00  0.0000000000000000e+00 0.0000000000000000e+00 0.0000000000000000e+00  0.0000000000000000e+00 0.0000000000000000e+00 0.0000000000000000e+00  0.0000000000000000e+00 0.0000000000000000e+00 0.0000000000000000e+00  0.0000000000000000e+00 0.0000000000000000e+00 0.0000000000000000