<?xml version="1.0"?>
<VTKFile type="UnstructuredGrid"  version="0.1"  >
<UnstructuredGrid>
<Piece  NumberOfPoints="289" NumberOfCells="512">
<Points>
<DataArray  type="Float64"  NumberOfComponents="3"  format="ascii">0 0 0  0.0625 0 0  0.125 0 0  0.1875 0 0  0.25 0 0  0.3125 0 0  0.375 0 0  0.4375 0 0  0.5 0 0  0.5625 0 0  0.625 0 0  0.6875 0 0  0.75 0 0  0.8125 0 0  0.875 0 0  0.9375 0 0  1 0 0  0 0.0625 0  0.06252867592285705 0.06249049757370482 0  0.1250587172446661 0.06248082743269848 0  0.1875915814640862 0.06247083612440277 0  0.2501289113393348 0.06246040319553101 0  0.312672650613747 0.06244946137228956 0  0.3752251925594651 0.06243801985040311 0  0.4377895849214506 0.06242618861866238 0  0.5003698357196088 0.06241419708751456 0  0.5629714139406066 0.06240239089871121 0  0.6256021643678896 0.06239117128957863 0  0.6882741936185525 0.0623807977930317 0  0.751008258981439 0.06237086564421951 0  0.8138451890154926 0.06235895684635136 0  0.87687862986047 0.06233697805638964 0  0.9403569673514656 0.06228054697162649 0  1.005026294046002 0.06212020653904907 0  0 0.125 0  0.0625559411726364 0.124981160498038 0  0.1251145320806708 0.1249619694179121 0  0.1876786015512471 0.1249421021329575 0  0.2502513397068429 0.1249212970622581 0  0.312836523486528 0.1248993958217767 0  0.3754388042505284 0.1248763918926596 0  0.4380640973368037 0.1248524860404226 0  0.5007201413048509 0.1248281397932829 0  0.563417352656598 0.1248041049664473 0  0.6261702247779378 0.1247813829209866 0  0.6889997768492908 0.1247610259952783 0  0.7519380535094066 0.1247436347862116 0  0.8150363742696528 0.1247283756954314 0  0.878378547303683 0.1247116469293364 0  0.9420894354714817 0.1246876025383526 0  1.00626087907933 0.1246619081690343 0  0 0.1875 0  0.06258052217432386 0.1874721741270315 0  0.1251648133047683 0.1874437826456463 0  0.1877568945025266 0.1874142960876495 0  0.2503612971578023 0.1873832712006494 0  0.3129833800777906 0.1873504094956905 0  0.3756297294420767 0.187315633207012 0  0.4383086867509505 0.1872791808360633 0  0.5010310696483895 0.1872417182395819 0  0.5638111812623202 0.1872044488891367 0  0.6266682451768293 0.1871691848002655 0  0.6896284309191224 0.1871383040631567 0  0.7527275236639748 0.1871144713773024 0  0.8160135724182888 0.1870999383913124 0  0.8795461033073552 0.1870951310874147 0  0.9433806698353352 0.1870955873019029 0  1.007514941627358 0.1870820194486373 0  0 0.25 0  0.06260131579069024 0.2499637538255974 0  0.1252072831851952 0.2499266875779002 0  0.1878228578394684 0.2498880205132598 0  0.2504536134568421 0.2498470689226314 0  0.3131061248816512 0.2498033182558433 0  0.3757884475962801 0.2497565245332216 0  0.4385107388154511 0.2497068547571325 0  0.5012860732340466 0.2496550734070155 0  0.5641315062186321 0.2496027747400347 0  0.6270694061479514 0.2495526447411565 0  0.6901289552579455 0.249508707197919 0  0.7533473563812159 0.2494764599494861 0  0.8167693644379819 0.2494627333587544 0  0.8804417980443699 0.2494749920880563 0  0.9443966855254773 0.2495196728113521 0  1.008616151672544 0.2495996157878809 0  0 0.3125 0  0.06261745442540508 0.3124561550727328 0  0.1252401544674799 0.3124111912866455 0  0.1878736752693203 0.3123640234433864 0  0.2505242663289192 0.3123136552170994 0  0.3131992706896618 0.3122592550105898 0  0.3759076507861006 0.312200273666595 0  0.4386606688514896 0.3121366237945004 0  0.5014727733229177 0.3120689441173039 0  0.5643627304452112 0.3119989738537391 0  0.6273549848602733 0.3119300574200303 0  0.6904810788569082 0.311867780526373 0  0.7537806123026738 0.3118206912718413 0  0.8173005772228118 0.3118009652778213 0  0.8810910285099107 0.311824723994216 0  0.9451948833700908 0.3119115893037014 0  1.009633386933348 0.3120833539332444 0  0 0.375 0  0.06262835159547102 0.3749496771477444 0  0.1252622264966702 0.3748978978167328 0  0.1879074732623708 0.3748432220724869 0  0.2505706124594115 0.3747842653133305 0  0.3132592582786387 0.3747197621005016 0  0.3759826549735459 0.3746486812418411 0  0.4387523855807704 0.3745704222844613 0  0.5015833223371983 0.3744851358099364 0  0.5644948904687863 0.3743942250286424 0  0.6275126875094075 0.3743011004373297 0  0.6906703968012994 0.37421226184715 0  0.7540116943944097 0.3741387473878788 0  0.8175914319954375 0.3740978677626363 0  0.8814749157065612 0.3741148631242201 0  0.9457342184178852 0.3742236203274418 0  1.010442480983935 0.3744648837823181 0  0 0.4375 0  0.06263372494773135 0.4374446574377383 0  0.1252729344591251 0.4373874994950337 0  0.1879234031704791 0.4373266974252011 0  0.2505915126547067 0.4372604149544031 0  0.3132846369311768 0.4371868391526441 0  0.3760116447648162 0.4371042638907198 0  0.4387835903259107 0.4370112634254214 0  0.5016146963015766 0.4369070155749595 0  0.5645237754924407 0.4367918666580504 0  0.6275362785451294 0.4366682744570489 0  0.6906871670860296 0.4365423132488885 0  0.7540247283520567 0.4364259455609635 0  0.8176151657625734 0.4363401765729152 0  0.8815472335114899 0.4363188438182224 0  0.9459354577175433 0.4364119419816336 0  1.010920194954072 0.4366860621656739 0  0 0.5 0  0.06263359505466196 0.499941453734949 0  0.1252723481796426 0.4998807429173436 0  0.187921643377155 0.4998156479183704 0  0.2505873450339742 0.499743850550613 0  0.3132761044442118 0.4996629088396756 0  0.3759957698191799 0.499570272831262 0  0.4387559812543724 0.4994633789500511 0  0.5015690913173253 0.4993398901369601 0  0.5644516516637726 0.4991981996958415 0  0.627426861411048 0.4990383992306819 0  0.6905285825860369 0.4988640340956275 0  0.7538077274132506 0.4986851214850186 0  0.817341787308776 0.498522998603672 0  0.8812475018831356 0.4984173153828615 0  0.945694486801131 0.4984342600603263 0  1.010914263387793 0.4986721684555154 0  0 0.5625 0  0.06262825948818537 0.5624404132155866 0  0.1252611185719933 0.5623783658556901 0  0.1879033161613561 0.5623112929842646 0  0.2505598939808003 0.5622364204555842 0  0.3132363818480893 0.562150663658458 0  0.3759390475355291 0.5620505400315696 0  0.438675284975761 0.5619321210281251 0  0.5014542941516277 0.5617910798489298 0  0.5642883638823581 0.5616229513094727 0  0.6271953654423487 0.5614238353734854 0  0.6902035771599682 0.5611919891478363 0  0.7533607161446014 0.5609311198925224 0  0.8167498061612058 0.5606567267819738 0  0.880514198326675 0.5604072643368454 0  0.9448901546250357 0.5602609734795687 0  1.010235181764308 0.5603541936046456 0  0 0.625 0  0.06261824341844188 0.6249418292245442 0  0.1252403728986256 0.6248810064157273 0  0.1878703167846167 0.6248147260018502 0  0.2505121009047983 0.6247398598046313 0  0.3131698816884897 0.6246527702980256 0  0.3758479743374624 0.6245490962796739 0  0.4385509113713712 0.6244235109821442 0  0.5012836419052201 0.6242694720104636 0  0.564052162482679 0.6240790301493021 0  0.6268652792869879 0.6238428770049866 0  0.6897390685055834 0.6235510723606088 0  0.7527072708750743 0.6231954775597497 0  0.815843547967445 0.6227761556364936 0  0.8793041701729529 0.6223161881108022 0  0.9433966416784664 0.6218911727505625 0  1.008657940538609 0.6216719265570808 0  0 0.6875 0  0.06260423097814534 0.687445890299593 0  0.1252115663677269 0.6873890930817091 0  0.1878250624531997 0.6873267284856782 0  0.2504476760526 0.6872555014736142 0  0.3130821404388416 0.6871714378107915 0  0.3757307442012803 0.6870695450148402 0  0.4383949753775171 0.6869433624325219 0  0.501075020555139 0.6867843589385234 0  0.5637692262055186 0.6865811413865754 0  0.626474002645899 0.6863184805432822 0  0.6891856889600027 0.6859763303721179 0  0.7519085249554672 0.6855295711063828 0  0.8146788455563742 0.6849509141986259 0  0.8776267117639679 0.6842243664310389 0  0.9411063477580273 0.6833887625099417 0  1.005898003409929 0.6826391062503978 0  0 0.75 0  0.06258698586187551 0.7499526293726592 0  0.1251763075912827 0.7499027324304498 0  0.1877701878888793 0.7498475727958391 0  0.2503706040642382 0.7497839526308556 0  0.3129790398258216 0.7497079011903952 0  0.3755960508684208 0.749614248748075 0  0.4382205153805158 0.7494960149147124 0  0.5008483762708337 0.7493435032784695 0  0.5634706205887732 0.7491429352196334 0  0.6260702957466799 0.7488743666251053 0  0.6886189506783329 0.7485085185018028 0  0.7510753860744218 0.7480021205374868 0  0.8133981072554228 0.7472920303392948 0  0.8756082189344407 0.7462928831545117 0  0.9379996779173264 0.7449269389804035 0  1.001577655214561 0.7433279666439723 0  0 0.8125 0  0.06256727403495903 0.8124618836798262 0  0.1251361866963714 0.8124216177981465 0  0.18770823841777 0.8123768542002434 0  0.2502846250871917 0.8123248032739948 0  0.3128659374310592 0.812261924039005 0  0.3754516256308348 0.8121834833249775 0  0.4380390306255332 0.8120828939396467 0  0.5006216193425977 0.8119506829893179 0  0.563185756504007 0.811772834030861 0  0.6257048161427603 0.8115280418650613 0  0.6881286775713814 0.8111830032760373 0  0.7503663204807866 0.8106839647780831 0  0.8122632929836666 0.8099407215956672 0  0.8736030059627986 0.8087951466293081 0  0.9342990251317992 0.8069637971740863 0  0.995721186619539 0.8040239994333364 0  0 0.875 0  0.06254580393052377 0.8749732763292355 0  0.1250926422379054 0.8749449839673763 0  0.1876414302189615 0.8749133987823579 0  0.2501928187537229 0.8748764484557804 0  0.312746933187928 0.8748314618747327 0  0.3753028999905565 0.8747748043240615 0  0.4378579605376696 0.87470131633614 0  0.5004057669795554 0.8746034175888849 0  0.5629330053917093 0.8744696339526333 0  0.6254124768123936 0.8742821107809333 0  0.6877884502356922 0.8740122777807356 0  0.7499449064369088 0.8736128822180624 0  0.8116365673816286 0.8730017724364526 0  0.8723456816145087 0.8720225269489921 0  0.931028235490168 0.870326216944763 0  0.9858967439908696 0.8669471349140301 0  0 0.9375 0  0.06252319773043644 0.9374862278074011 0  0.1250469000622156 0.9374716275536191 0  0.187571545809989 0.9374552857787797 0  0.2500974276541269 0.9374360969118964 0  0.3126245476666202 0.9374126230975453 0  0.3751523529353614 0.9373828877327851 0  0.4376792310651284 0.9373440545
[...]
<PointData  Vectors="f_54"> 
<DataArray  type="Float64"  Name="f_54"  NumberOfComponents="3" format="ascii">0.0000000000000000e+00 0.0000000000000000e+00 0.0000000000000000e+00  0.0000000000000000e+00 0.0000000000000000e+00 0.0000000000000000e+00  0.0000000000000000e+00 0.0000000000000000e+00 0.0000000000000000e+00  0.0000000000000000e+00 0.0000000000000000e+00 0.0000000000000000e+00  0.0000000000000000e+00 0.0000000000000000e+00 0.0000000000000000e+00  0.0000000000000000e+00 0.0000000000000000e+00 0.0000000000000000e+00  0.0000000000000000e+00 0.0000000000000000e+00 0.0000000000000000e+00  0.0000000000000000e+00 0.0000000000000000e+00 0.0000000000000000e+00  0.0000000000000000e+00 0.0000000000000000e+00 0.0000000000000000e+00  0.0000000000000000e+00 0.0000000000000000e+00 0.0000000000000000e+00  0.0000000000000000e+00 0.0000000000000000e+00 0.0000000000000000e+00  0.0000000000000000e+00 0.0000000000000000e+00 0.0000000000000000e+00  0.0000000000000000e+00 0.0000000000000000e+00 0.0000000000000000e+00  0.0000000000000000e+00 0.0000000000000000e+00 0.0000000000000000e+00  0.0000000000000000e+00 0.0000000000000000e+00 0.0000000000000000e+00  0.0000000000000000e+00 0.0000000000000000e+00 0.0000000000000000e+00  0.0000000000000000e+00 0.0000000000000000e+00 0.0000000000000000e+00  0.0000000000000000e+00 0.0000000000000000e+00 0.0000000000000000e+00  -3.9938571286573326e-06 -6.5431234864053175e-08 0.0000000000000000e+00  -8.1038856388538493e-06 -1.2911837907354761e-07 0.0000000000000000e+00  -1.2447478520278428e-05 -1.8876461203330942e-07 0.0000000000000000e+00  -1.7141732253641126e-05 -2.4086586598861439e-07 0.0000000000000000e+00  -2.2302464165720085e-05 -2.7995545085381873e-07 0.0000000000000000e+00  -2.8042203771896123e-05 -2.9766527495773433e-07 0.0000000000000000e+00  -3.4466981485666312e-05 -2.8153754235070806e-07 0.0000000000000000e+00  -4.1672089559673700e-05 -2.1349930437653080e-07 0.0000000000000000e+00  -4.9737872823971520e-05 -6.7821252346726329e-08 0.0000000000000000e+00  -5.8728852808640970e-05 1.9195713972465255e-07 0.0000000000000000e+00  -6.8705585237208792e-05 6.1885280612939214e-07 0.0000000000000000e+00  -7.9776777524827457e-05 1.2969586000762548e-06 0.0000000000000000e+00  -9.2278454044741176e-05 2.3859938741615361e-06 0.0000000000000000e+00  -1.0737878903992880e-04 4.2763479986711498e-06 0.0000000000000000e+00  -1.2924193767902052e-04 8.1806519298984333e-06 0.0000000000000000e+00  -1.7376864109359196e-04 1.8678463101761955e-05 0.0000000000000000e+00  0.0000000000000000e+00 0.0000000000000000e+00 0.0000000000000000e+00  -7.8740294572137402e-06 -1.3264301986141882e-07 0.0000000000000000e+00  -1.5980954711411333e-05 -2.6236773453993175e-07 0.0000000000000000e+00  -2.4556411578169380e-05 -3.8520764236410226e-07 0.0000000000000000e+00  -3.3836299362865639e-05 -4.9489376028728249e-07 0.0000000000000000e+00  -4.4055209110683885e-05 -5.8139670102248412e-07 0.0000000000000000e+00  -5.5442686251552019e-05 -6.2909890833120333e-07 0.0000000000000000e+00  -6.8216761288455587e-05 -6.1447648122343715e-07 0.0000000000000000e+00  -8.2574576817220181e-05 -5.0317488155418840e-07 0.0000000000000000e+00  -9.8680884922533102e-05 -2.4635174999823073e-07 0.0000000000000000e+00  -1.1665722924475911e-04 2.2392173496349079e-07 0.0000000000000000e+00  -1.3657870712728134e-04 1.0006584208065316e-06 0.0000000000000000e+00  -1.5849239342152513e-04 2.2101115645343141e-06 0.0000000000000000e+00  -1.8247891195727941e-04 4.0209242971586894e-06 0.0000000000000000e+00  -2.0875190764290148e-04 6.6328117256083013e-06 0.0000000000000000e+00  -2.3750210344683029e-04 1.0089435254960228e-05 0.0000000000000000e+00  -2.6629373786392975e-04 1.2975359439490464e-05 0.0000000000000000e+00  0.0000000000000000e+00 0.0000000000000000e+00 0.0000000000000000e+00  -1.1522585117549429e-05 -2.0278157083780336e-07 0.0000000000000000e+00  -2.3394943831690168e-05 -4.0255683444647507e-07 0.0000000000000000e+00  -3.5971645847388263e-05 -5.9489448598522639e-07 0.0000000000000000e+00  -4.9609689823628489e-05 -7.7220146517486499e-07 0.0000000000000000e+00  -6.4667128332334257e-05 -9.2167683692440977e-07 0.0000000000000000e+00  -8.1498269648984712e-05 -1.0226984421351012e-06 0.0000000000000000e+00  -1.0044423946049438e-04 -1.0434599428424145e-06 0.0000000000000000e+00  -1.2181782166823118e-04 -9.3672099291129976e-07 0.0000000000000000e+00  -1.4588193316839585e-04 -6.3465259373526061e-07 0.0000000000000000e+00  -1.7282189120218009e-04 -4.3031590703308443e-08 0.0000000000000000e+00  -2.0271237617087886e-04 9.6434595048704929e-07 0.0000000000000000e+00  -2.3547830973676489e-04 2.5486561589929562e-06 0.0000000000000000e+00  -2.7083606107968980e-04 4.9001430297263604e-06 0.0000000000000000e+00  -3.0815150968414330e-04 8.2077813199284736e-06 0.0000000000000000e+00  -3.4600997989949394e-04 1.2580695789405180e-05 0.0000000000000000e+00  -3.8110252895906012e-04 1.8016210490932029e-05 0.0000000000000000e+00  0.0000000000000000e+00 0.0000000000000000e+00 0.0000000000000000e+00  -1.4821681537369146e-05 -2.7590402317952849e-07 0.0000000000000000e+00  -3.0108959054351519e-05 -5.5019844600391776e-07 0.0000000000000000e+00  -4.6335065832309489e-05 -8.1965124768064702e-07 0.0000000000000000e+00  -6.3980197515993897e-05 -1.0773733373083458e-06 0.0000000000000000e+00  -8.3531612587601817e-05 -1.3103666551815262e-06 0.0000000000000000e+00  -1.0547908631857877e-04 -1.4962891475442173e-06 0.0000000000000000e+00  -1.3030368537426799e-04 -1.5991512473029521e-06 0.0000000000000000e+00  -1.5845754323723038e-04 -1.5637011267591702e-06 0.0000000000000000e+00  -1.9033211568520911e-04 -1.3084248430799615e-06 0.0000000000000000e+00  -2.2621224474613335e-04 -7.1752864610511685e-07 0.0000000000000000e+00  -2.6621277771050341e-04 3.6674876908133417e-07 0.0000000000000000e+00  -3.1019179144955837e-04 2.1481812556606267e-06 0.0000000000000000e+00  -3.5762566444644982e-04 4.8701469671923010e-06 0.0000000000000000e+00  -4.0741083912808714e-04 8.7871461400175550e-06 0.0000000000000000e+00  -4.5753293790277202e-04 1.4100962561332370e-05 0.0000000000000000e+00  -5.0460243746849062e-04 2.0859974581580674e-05 0.0000000000000000e+00  0.0000000000000000e+00 0.0000000000000000e+00 0.0000000000000000e+00  -1.7654928712543457e-05 -3.5058467680728172e-07 0.0000000000000000e+00  -3.5887838735230280e-05 -7.0265938550630919e-07 0.0000000000000000e+00  -5.5288195224234039e-05 -1.0561306178586218e-06 0.0000000000000000e+00  -7.6460008509430394e-05 -1.4072459551365942e-06 0.0000000000000000e+00  -1.0002522555903273e-04 -1.7460034082234888e-06 0.0000000000000000e+00  -1.2662155755516593e-04 -2.0525597156557544e-06 0.0000000000000000e+00  -1.5689187129653640e-04 -2.2921921290341523e-06 0.0000000000000000e+00  -1.9146145847418489e-04 -2.4083282582726833e-06 0.0000000000000000e+00  -2.3089862872621640e-04 -2.3132280955999751e-06 0.0000000000000000e+00  -2.7565330184618547e-04 -1.8762528345248864e-06 0.0000000000000000e+00  -3.2596776127381133e-04 -9.1059912164604654e-07 0.0000000000000000e+00  -3.8175358331024893e-04 8.3860887122445748e-07 0.0000000000000000e+00  -4.4242936330407491e-04 3.6984157355228320e-06 0.0000000000000000e+00  -5.0671832981257154e-04 8.0529805820773154e-06 0.0000000000000000e+00  -5.7242803052531105e-04 1.4294295047178848e-05 0.0000000000000000e+00  -6.3632054877627909e-04 2.2726173618573374e-05 0.0000000000000000e+00  0.0000000000000000e+00 0.0000000000000000e+00 0.0000000000000000e+00  -1.9909896878619900e-05 -4.2370374243670534e-07 0.0000000000000000e+00  -4.0502861234878748e-05 -8.5367761227691452e-07 0.0000000000000000e+00  -6.2478426864317040e-05 -1.2949282485989970e-06 0.0000000000000000e+00  -8.6561740336683614e-05 -1.7494102926424567e-06 0.0000000000000000e+00  -1.1351253283658211e-04 -2.2136643401332907e-06 0.0000000000000000e+00  -1.4412827279028010e-04 -2.6752909333751433e-06 0.0000000000000000e+00  -1.7923792655547295e-04 -3.1076203952966213e-06 0.0000000000000000e+00  -2.1968128629034692e-04 -3.4617270133640957e-06 0.0000000000000000e+00  -2.6626707997951953e-04 -3.6547297018256068e-06 0.0000000000000000e+00  -3.1970142338159474e-04 -3.5532704882453999e-06 0.0000000000000000e+00  -3.8047746738828714e-04 -2.9515225268324066e-06 0.0000000000000000e+00  -4.4871904443965447e-04 -1.5447556586259962e-06 0.0000000000000000e+00  -5.2397871839251228e-04 1.0965072899394276e-06 0.0000000000000000e+00  -6.0500855487562362e-04 5.5393190120511654e-06 0.0000000000000000e+00  -6.8955612537502516e-04 1.2465792451307262e-05 0.0000000000000000e+00  -7.7429127009828443e-04 2.2587220539416711e-05 0.0000000000000000e+00  0.0000000000000000e+00 0.0000000000000000e+00 0.0000000000000000e+00  -2.1482049593402005e-05 -4.9047756006583100e-07 0.0000000000000000e+00  -4.3739438112013786e-05 -9.9337308978800152e-07 0.0000000000000000e+00  -6.7570046653343357e-05 -1.5204598944870055e-06 0.0000000000000000e+00  -9.3811895631923620e-05 -2.0817408987139270e-06 0.0000000000000000e+00  -1.2336025719460395e-04 -2.6837769353544692e-06 0.0000000000000000e+00  -1.5717977221531282e-04 -3.3268397772527545e-06 0.0000000000000000e+00  -1.9630766548162242e-04 -4.0000901901083747e-06 0.0000000000000000e+00  -2.4184189685703611e-04 -4.6735393649960213e-06 0.0000000000000000e+00  -2.9490506469060355e-04 -5.2849088994977108e-06 0.0000000000000000e+00  -3.5657143584824977e-04 -5.7186892611233889e-06 0.0000000000000000e+00  -4.2774186816678411e-04 -5.7739774115440531e-06 0.0000000000000000e+00  -5.0895263509060848e-04 -5.1179446172825813e-06 0.0000000000000000e+00  -6.0011484922287280e-04 -3.2252300688589035e-06 0.0000000000000000e+00  -7.0020842348367067e-04 6.8583557905434167e-07 0.0000000000000000e+00  -8.0699951447086432e-04 7.6873406153820158e-06 0.0000000000000000e+00  -9.1689048639725479e-04 1.9082968306192682e-05 0.0000000000000000e+00  0.0000000000000000e+00 0.0000000000000000e+00 0.0000000000000000e+00  -2.2280248626846636e-05 -5.4477765580274403e-07 0.0000000000000000e+00  -4.5408186748753597e-05 -1.1088635997551367e-06 0.0000000000000000e+00  -7.0260907065593529e-05 -1.7118092963653911e-06 0.0000000000000000e+00  -9.7772902067192453e-05 -2.3733176484317728e-06 0.0000000000000000e+00  -1.2896376723985859e-04 -3.1127668125075891e-06 0.0000000000000000e+00  -1.6496323874996027e-04 -3.9478105835704645e-06 0.0000000000000000e+00  -2.0703003651717877e-04 -4.8912432441148149e-06 0.0000000000000000e+00  -2.5655794609471757e-04 -5.9446698821522159e-06 0.0000000000000000e+00  -3.1505790968521826e-04 -7.0863937400335020e-06 0.0000000000000000e+00  -3.8409844137255096e-04 -8.2490594323362566e-06 0.0000000000000000e+00  -4.6517933246889153e-04 -9.2797813562954089e-06 0.0000000000000000e+00  -5.5950906627129794e-04 -9.8721729911074343e-06 0.0000000000000000e+00  -6.6766386655101072e-04 -9.4585495846508682e-06 0.0000000000000000e+00  -7.8914198076094277e-04 -7.0597882367188445e-06 0.0000000000000000e+00  -9.2190240477291196e-04 -1.1257843078426733e-06 0.0000000000000000e+00  -1.0620525092129970e-03 1.0529435254386275e-05 0.0000000000000000e+00  0.0000000000000000e+00 0.0000000000000000e+00 0.0000000000000000e+00  -2.2233747822108815e-05 -5.7975836382999032e-07 0.0000000000000000e+00  -4.5359324146943591e-05 -1.1855468445290225e-06 0.0000000000000000e+00  -7.0304952147603068e-05 -1.8447005210179480e-06 0.0000000000000000e+00  -9.8074613107328371e-05 -2.5870816803571868e-06 0.0000000000000000e+00  -1.2978808733252862e-04 -3.4462379113130859e-06 0.0000000000000000e+00  -1.6672247102777140e-04 -4.4602262795379331e-06 0.0000000000000000e+00  -2.1035317645224795e-04 -5.6715476336794425e-06 0.0000000000000000e+00  -2.6238899458793763e-04 -7.1249540372133900e-06 0.0000000000000000e+00  -3.2478963534511839e-04 -8.8604966861403112e-06 0.0000000000000000e+00  -3.9974385798513263e-04 -1.0896379233867285e-05 0.0000000000000000e+00  -4.8957090928901273e-04 -1.3190770497066042e-05 0.0000000000000000e+00  -5.9648955516896859e-04 -1.5562125216024437e-05 0.0000000000000000e+00  -7.2218920139145964e-04 -1.7533661003518041e-05 0.0000000000000000e+00  -8.6717006672193983e-04 -1.8058799432151451e-05 0.0000000000000000e+00  -1.0299552770905592e-03 -1.5119559985709735e-05 0.0000000000000000e+00  -1.2065409081652521e-03 -5.3452382504441897e-06 0.0000000000000000e+00  0.0000000000000000e+00 0.0000000000000000e+00 0.0000000000000000e+00  -2.1300265176137172e-05 -5.8876399872938847e-07 0.0000000000000000e+00  -4.3499646681897178e-05 -1.2090106445490582e-06 0.0000000000000000e+00  -6.7539742944276227e-05 -1.8945981106714178e-06 0.0000000000000000e+00  -9.4454722116716955e-05 -2.6843797303260535e-06 0.0000000000000000e+00  -1.2542394565887087e-04 -3.6252094669284810e-06 0.0000000000000000e+00  -1.6183196406383373e-04 -4.7755082941192953e-06 0.0000000000000000e+00  -2.0533699405278334e-04 -6.2094184887945088e-06 0.0000000000000000e+00  -2.5794620538844036e-04 -8.0211835725189310e-06 0.0000000000000000e+00  -3.2208979360077164e-04 -1.0328345649652753e-05 0.0000000000000000e+00  -4.0067260178592982e-04 -1.3269662809223223e-05 0.0000000000000000e+00  -4.9705700612036254e-04 -1.6986941963295345e-05 0.0000000000000000e+00  -6.1488889437294675e-04 -2.1563886599872796e-05 0.0000000000000000e+00  -7.5762381265710721e-04 -2.6859359376313015e-05 0.0000000000000000e+00  -9.2758647830395481e-04 -3.2107861125522088e-05 0.0000000000000000e+00  -1.1245558119677538e-03 -3.5111540058738950e-05 0.0000000000000000e+00  -1.3444249839395146e-03 -3.1072294029052777e-05 0.0000000000000000e+00  0.0000000000000000e+00 0.0000000000000000e+00 0.0000000000000000e+00  -1.9474317081200807e-05 -5.6641900351713733e-07 0.0000000000000000e+00  -3.9810485426108212e-05 -1.1673840980457757e-06 0.0000000000000000e+00  -6.1916673295209904e-05 -1.8406805682404606e-06 0.0000000000000000e+00  -8.6805378187180580e-05 -2.6311469439210622e-06 0.0000000000000000e+00  -1.1565648764715001e-04 -3.5953541300922628e-06 0.0000000000000000e+00  -1.4989462886365478e-04 -4.8078521304520589e-06 0.0000000000000000e+00  -1.9128661885143742e-04 -6.3698196655561924e-06 0.0000000000000000e+00  -2.4206443880705198e-04 -8.4212091630329896e-06 0.0000000000000000e+00  -3.0507567821382178e-04 -1.1157650321582699e-05 0.0000000000000000e+00  -3.8395190496282429e-04 -1.4852863911121473e-05 0.0000000000000000e+00  -4.8325558960519023e-04 -1.9883924366731700e-05 0.0000000000000000e+00  -6.0849892487322527e-04 -2.6742695475462718e-05 0.0000000000000000e+00  -7.6579637846025935e-04 -3.5967192858844810e-05 0.0000000000000000e+00  -9.6071815328992573e-04 -4.7770556312768507e-05 0.0000000000000000e+00  -1.1958955591480169e-03 -6.0767685988601152e-05 0.0000000000000000e+00  -1.4680295725506675e-03 -6.9268779258816723e-05 0.0000000000000000e+00  0.0000000000000000e+00 0.0000000000000000e+00 0.0000000000000000e+00  -1.6794576678804070e-05 -5.0973179842000680e-07 0.0000000000000000e+00  -3.4364061691989772e-05 -1.0537713868591808e-06 0.0000000000000000e+00  -5.3529815692486492e-05 -1.6701044428225017e-06 0.0000000000000000e+00  -7.5220400230193010e-05 -2.4048871853133595e-06 0.0000000000000000e+00  -1.0053985305758419e-04 -3.3181589115705393e-06 0.0000000000000000e+00  -1.3085653972224955e-04 -4.4919063736636718e-06 0.0000000000000000e+00  -1.6792388710523923e-04 -6.0420415609498355e-06 0.0000000000000000e+00  -2.1404825630522273e-04 -8.1368486548580811e-06 0.0000000000000000e+00  -2.7232307743719228e-04 -1.1026298033705041e-05 0.0000000000000000e+00  -3.4694798523058181e-04 -1.5090074814557244e-05 0.0000000000000000e+00  -4.4363442318838320e-04 -2.0918314705968034e-05 0.0000000000000000e+00  -5.7003119261487081e-04 -2.9447209047700321e-05 0.0000000000000000e+00  -7.3590288972468225e-04 -4.2164813662811212e-05 0.0000000000000000e+00  -9.5228836793581238e-04 -6.1264426638783711e-05 0.0000000000000000e+00  -1.2279007734396180e-03 -8.8675816300465117e-05 0.0000000000000000e+00  -1.5639756252646356e-03 -1.1765269207589272e-04 0.0000000000000000e+00  0.0000000000000000e+00 0.0000000000000000e+00 0.0000000000000000e+00  -1.3348691663285304e-05 -4.1899028743967363e-07 0.0000000000000000e+00  -2.7334843040237459e-05 -8.6827395321304263e-07 0.0000000000000000e+00  -4.2637636001742379e-05 -1.3816816671421028e-06 0.0000000000000000e+00  -6.0034241715983290e-05 -2.0009985187529427e-06 0.0000000000000000e+00  -8.0464999544722945e-05 -2.7816884074651384e-06 0.0000000000000000e+00  -1.0512239579944233e-04 -3.8011965903608113e-06 0.0000000000000000e+00  -1.3557944054444059e-04 -5.1716438825855966e-06 0.0000000000000000e+00  -1.7398208007380193e-04 -7.0600165842460624e-06 0.0000000000000000e+00  -2.2334484464519758e-04 -9.7215840243194490e-06 0.0000000000000000e+00  -2.8801037254472549e-04 -1.3558190036705486e-05 0.0000000000000000e+00  -3.7435805482447952e-04 -1.9227924316418690e-05 0.0000000000000000e+00  -4.9184902883037845e-04 -2.7873262837307981e-05 0.0000000000000000e+00  -6.5436971386593427e-04 -4.1648916328642201e-05 0.0000000000000000e+00  -8.8120271858768934e-04 -6.5038560988207734e-05 0.0000000000000000e+00  -1.1941044104275031e-03 -1.0813753310196108e-04 0.0000000000000000e+00  -1.5864281592764937e-03 -1.9275777893641848e-04 0.0000000000000000e+00  0.0000000000000000e+00 0.0000000000000000e+00 0.0000000000000000e+00  -9.2739244238838590e-06 -2.9822340405091112e-07 0.0000000000000000e+00  -1.9002178843193705e-05 -6.1907985194104005e-07 0.0000000000000000e+00  -2.9670808932852349e-05 -9.8798730415577043e-07 0.0000000000000000e+00  -4.1841256687482204e-05 -1.4366695095102393e-06 0.0000000000000000e+00  -5.6202213720641582e-05 -2.0077527242433671e-06 0.0000000000000000e+00  -7.3643034109556067e-05 -2.7614829594886773e-06 0.0000000000000000e+00  -9.5364606419103738e-05 -3.7859908378944790e-06 0.0000000000000000e+00  -1.2305536545734240e-04 -5.2133577926452199e-06 0.0000000000000000e+00  -1.5918256310125533e-04 -7.2450860865118468e-06 0.0000000000000000e+00  -2.0749193022209523e-04 -1.0192941926447720e-05 0.0000000000000000e+00  -2.7389069508377862e-04 -1.4546763054282470e-05 0.0000000000000000e+00  -3.6803872235588979e-04 -2.1101902485417256e-05 0.0000000000000000e+00  -5.0622400758527258e-04 -3.1279764549350807e-05 0.0000000000000000e+00  -7.1648901020371488e-04 -4.8265552837901637e-05 0.0000000000000000e+00  -1.0479760083615982e-03 -8.1853921829914625e-05 0.0000000000000000e+00  -1.5946081817868143e-03 -1.6932193338984523e-04 0.0000000000000000e+00  0.0000000000000000e+00 0.0000000000000000e+00 0.0000000000000000e+00  -4.7523248237922047e-06 -1.5506738925291811e-07 0.0000000000000000e+00  -9.7411011650300516e-06 -3.2223516983709069e-07 0.0000000000000000e+00  -1.5219944780301154e-05 -5.1513445194999105e-07 0.0000000000000000e+00  -2.1483573990299976e-05 -7.5087352996796881e-07 0.0000000000000000e+00  -2.8896690517298467e-05 -1.0525803947749686e-06 0.0000000000000000e+00  -3.7935839505806412e-05 -1.4531039149943067e-06 0.0000000000000000e+00  -4.9254542062600718e-05 -2.0005629775106912e-06 0.0000000000000000e+00  -6.3790708809332406e-05 -2.7665592466127763e-06 0.0000000000000000e+00  -8.2953424039632255e-05 -3.8573121673262823e-06 0.0000000000000000e+00  -1.0896487908295103e-04 -5.4241542792047630e-06 0.0000000000000000e+00  -1.4551727410677388e-04 -7.6525353311899577e-06 0.0000000000000000e+00  -1.9907921300825831e-04 -1.0638681527334395e-05 0.0000000000000000e+00  -2.8145949708251075e-04 -1.3797415053200266e-05 0.0000000000000000e+00  -4.1395331403961782e-04 -1.3559354180663942e-05 0.0000000000000000e+00  -6.2741480533011918e-04 3.5723319657886439e-06 0.0000000000000000e+00  -9.2382446028045628e-04 6.8334040381159869e-05 0.0000000000000000e+00  0.0000000000000000e+00 0.0000000000000000e+00 0.0000000000000000e+00  0.0000000000000000e+00 0.0000000000000000e+00 0.0000000000000000e+00  0.0000000000000000e+00 0.0000000000000000e+00 0.0000000000000000e+00  0.0000000000000000e+00 0.0000000000000000e+00 0.0000000000000000e+00  0.0000000000000000e+00 0.0000000000000000e+00 0.0000000000000000e+00  0.0000000000000000e+00 0.0000000000000000e+00 0.000000000000000