<?xml version="1.0"?>
<VTKFile type="UnstructuredGrid"  version="0.1"  >
<UnstructuredGrid>
<Piece  NumberOfPoints="289" NumberOfCells="512">
<Points>
<DataArray  type="Float64"  NumberOfComponents="3"  format="ascii">0 0 0  0.0625 0 0  0.125 0 0  0.1875 0 0  0.25 0 0  0.3125 0 0  0.375 0 0  0.4375 0 0  0.5 0 0  0.5625 0 0  0.625 0 0  0.6875 0 0  0.75 0 0  0.8125 0 0  0.875 0 0  0.9375 0 0  1 0 0  0 0.0625 0  0.0625546560675319 0.06249507112588431 0  0.1251112677576514 0.06249002984655917 0  0.1876718571318109 0.0624847675343956 0  0.2502385670524921 0.06247918433030234 0  0.3128137281445559 0.06247319446445048 0  0.3753999367160809 0.06246673197386209 0  0.4380001562360795 0.06245975522935059 0  0.5006178708194462 0.06245224599562327 0  0.5632573577890737 0.06244419292771899 0  0.625924245003738 0.06243553606266149 0  0.6886267864503565 0.0624260151815069 0  0.751379069634655 0.06241476903032198 0  0.8142098090289726 0.06239922516169422 0  0.8771885546785306 0.06237173794873677 0  0.9405104121506832 0.06230838876677124 0  1.004794992066915 0.0621294441823901 0  0 0.125 0  0.06260737007853769 0.1249902541880532 0  0.1252186015017447 0.1249802791690021 0  0.1878376881611675 0.1249698528004328 0  0.2504688663750572 0.1249587696248013 0  0.313116747794237 0.1249468517308359 0  0.3757864704463402 0.1249339616145562 0  0.4384838861005168 0.1249200152546983 0  0.5012158218103855 0.1249049899347677 0  0.5639904964080467 0.1248889141291442 0  0.6268182654316649 0.1248718132587114 0  0.6897130626222524 0.1248535618614411 0  0.7526952796726782 0.1248335625257367 0  0.8157973409744679 0.1248101882183948 0  0.8790727466642203 0.1247803272098453 0  0.9426001739528266 0.1247419332811234 0  1.006414520617759 0.1247155543888137 0  0 0.1875 0  0.06265623656480085 0.1874856662938461 0  0.1253181306136315 0.1874709785571532 0  0.1879915353616031 0.1874555919902504 0  0.2506826648798788 0.1874391842979733 0  0.3133982883936132 0.1874214719964638 0  0.376145943560357 0.1874022320896947 0  0.4389341832590234 0.1873813290166286 0  0.5017728816805025 0.1873587437836249 0  0.564673645234928 0.1873345965121755 0  0.6276504023661763 0.1873091439514136 0  0.6907202657934945 0.1872827195486647 0  0.753904676291178 0.1872555697196736 0  0.8172302932223954 0.1872275393102955 0  0.88072701411512 0.1871975617855805 0  0.9444145607842395 0.1871625201593659 0  1.00825973580246 0.1871110546036351 0  0 0.25 0  0.06269946350378544 0.2499814324924696 0  0.1254062124464171 0.2499623756946478 0  0.188127786618799 0.2499423496596136 0  0.2508722002796377 0.2499208986335112 0  0.3136481936641135 0.2498976114390411 0  0.3764655008368145 0.2498721520160792 0  0.4393351404377742 0.2498443033032934 0  0.5022697351923651 0.2498140265432403 0  0.5652838595666203 0.2497815353817143 0  0.6283943883216364 0.2497473788698656 0  0.6916207317594246 0.249712518961724 0  0.7549845947511612 0.2496783763970918 0  0.8185082677377225 0.2496468031456917 0  0.8822091187400264 0.2496199067983786 0  0.9460859704072513 0.2495995679111422 0  1.01009311689393 0.2495866365144892 0  0 0.3125 0  0.06273542843596508 0.3124776881900351 0  0.1254795454634879 0.3124547411577493 0  0.1882413471389562 0.3124305299446974 0  0.2510304125377331 0.3124044447241282 0  0.3138572108230533 0.3123759158009626 0  0.3767334238174381 0.3123444498544471 0  0.4396722848982557 0.3123096887776476 0  0.5026889265093335 0.312271500082834 0  0.5658007077804175 0.3122301091296785 0  0.6290274448742942 0.3121862833440288 0  0.6923913580703408 0.3121415751178493 0  0.755916328271442 0.3120986195570382 0  0.8196256689474299 0.3120614598833062 0  0.8835371510652725 0.3120358339838133 0  0.9476541416442295 0.3120293370673484 0  1.011954637010098 0.3120516047847548 0  0 0.375 0  0.06276273240076773 0.3749745793846 0  0.1255352775391539 0.3749483700513066 0  0.1883278022122601 0.3749205822154933 0  0.2511511586093341 0.3748904308467906 0  0.3140172469970256 0.3748571513946442 0  0.3769393990013934 0.374820034483239 0  0.4399327830674065 0.3747784909920095 0  0.5030148244937824 0.3747321638396239 0  0.5662056121436733 0.3746811091749586 0  0.629528221096879 0.3746260766711935 0  0.6930087964514113 0.3745689231501287 0  0.7566760973081033 0.3745131879662478 0  0.8205599992833384 0.3744648258430209 0  0.8846883287839585 0.3744330047044672 0  0.9490817835299084 0.374430694136854 0  1.013748359576267 0.3744744269513688 0  0 0.4375 0  0.06278025211554397 0.4374722595484668 0  0.1255711111037789 0.4374435768464675 0  0.1883835762106462 0.4374129964295045 0  0.2512294243437119 0.4373795423182955 0  0.3141216270617573 0.4373422205253564 0  0.377074800177767 0.4373000409860807 0  0.4401056955095736 0.4372520729949388 0  0.5032337414376588 0.43719755652815 0  0.5664816317339157 0.4371361042631065 0  0.6298759451837278 0.4370680461335705 0  0.6934477415632765 0.4369949878851246 0  0.7572330070567241 0.4369206682437528 0  0.821272701704143 0.4368521808924273 0  0.8856120139095517 0.4368015244008707 0  0.950298360929227 0.4367871758011266 0  1.015377863344994 0.4368349190848795 0  0 0.5 0  0.06278719025756822 0.4999708820871889 0  0.1255854056145968 0.4999406808588657 0  0.1884060908612098 0.499908283195954 0  0.2512615433081773 0.4998725197582976 0  0.3141653777473047 0.4998321455201527 0  0.3771330405151999 0.4997858351659486 0  0.4401823948843552 0.4997322071587715 0  0.5033344082498691 0.4996699011223301 0  0.5666139868165413 0.4995977513666347 0  0.630051029158437 0.4995151285374378 0  0.693681805902712 0.4994225646019188 0  0.7575508019165489 0.4993228310673413 0  0.821713115817654 0.4992226828873135 0  0.8862372424068433 0.4991354318752598 0  0.9512073109032211 0.4990841865337498 0  1.016722488941949 0.4991046985690957 0  0 0.5625 0  0.06278312220054599 0.562470587826966 0  0.1255772743308805 0.5624399808190567 0  0.188393919044826 0.5624069349644567 0  0.2512454192890099 0.5623701072292542 0  0.3141455373400572 0.562328006689783 0  0.3771099990695071 0.5622789500053426 0  0.4401571583192456 0.5622210303992407 0  0.5033088165164369 0.562152120214895 0  0.5665912942422769 0.5620699479251752 0  0.6300369332654233 0.5619723292686861 0  0.6936863554459504 0.5618577020474647 0  0.7575920317127316 0.5617262321850119 0  0.8218239418831286 0.5615819321891496 0  0.8864779677680839 0.5614364000598507 0  0.9516862151448178 0.5613146425210751 0  1.017624407225093 0.5612621864455591 0  0 0.625 0  0.06276803565829273 0.6249714879510886 0  0.1255466679736372 0.6249417190301829 0  0.188346921966399 0.6249093680521771 0  0.2511807336959943 0.6248729674514274 0  0.3140614616375642 0.6248308256447889 0  0.3770044738223988 0.624780933943728 0  0.4400278526472255 0.6247208615663432 0  0.5031532864823481 0.6246476451273545 0  0.5664072781370755 0.6245576952688566 0  0.6298229355971123 0.6244467802770679 0  0.6934428998491319 0.624310228925866 0  0.7573245343398302 0.624143671804413 0  0.8215494463594777 0.6239450001370782 0  0.8862403880824926 0.6237188580146854 0  0.9515875875696731 0.6234856730149089 0  1.017878264266255 0.623296011959073 0  0 0.6875 0  0.06274235810987566 0.6874736441127459 0  0.1254944342472916 0.6874460384918276 0  0.1882663508520986 0.6874158502370767 0  0.2510691071894028 0.6873815692518251 0  0.3139150756275398 0.6873413972191158 0  0.3768185754678017 0.6872931070053319 0  0.4397965637662671 0.6872338587095335 0  0.502869505576524 0.6871599566595861 0  0.5660625430535307 0.6870665335007362 0  0.6294072305358676 0.6869471624926899 0  0.6929444860925833 0.686793453298655 0  0.7567303708983335 0.6865948518734275 0  0.8208485268081784 0.686339336811868 0  0.885437383034226 0.6860169755391451 0  0.9507449292166789 0.6856312807451512 0  1.017215143297815 0.6852266998545632 0  0 0.75 0  0.0627069662353834 0.7499770488250943 0  0.1254223407788087 0.7499529395401427 0  0.1881548918988363 0.7499264245506501 0  0.2509141810398409 0.7498960626648945 0  0.3137110143667288 0.7498600903425079 0  0.376557965486235 0.7498162479968846 0  0.4394699978597224 0.749761534229976 0  0.5024652214948866 0.7496918476769119 0  0.5655658372919625 0.749601456202254 0  0.6287993948135897 0.7494822056730795 0  0.6922007653826604 0.749322351532055 0  0.7558162198167887 0.7491049043355842 0  0.8197142780891519 0.7488056025932603 0  0.8840178579812815 0.7483918301896175 0  0.9489963722632205 0.7478292554663668 0  1.015274066787679 0.7471258115118145 0  0 0.8125 0  0.06266317220801416 0.8124816102505641 0  0.1253330504450912 0.8124622450829267 0  0.1880166360478673 0.8124408450930547 0  0.2507215896325085 0.8124161671941226 0  0.3134566089860361 0.8123866572794832 0  0.3762318670992498 0.8123502711507571 0  0.4390595261954092 0.8123042086291625 0  0.5019543287726166 0.8122445037511173 0  0.5649342267558902 0.8121653750509111 0  0.6280209235264607 0.8120581701632751 0  0.6912400742584466 0.8119096106757906 0  0.7546209516523963 0.8116988017566447 0  0.8181971319996215 0.8113920268852712 0  0.8820206591971369 0.8109337251786163 0  0.9462563712847538 0.810233004725204 0  1.01166973575782 0.8091665670668189 0  0 0.875 0  0.06261268351651056 0.8749871457021879 0  0.1252300420290141 0.8749735842554474 0  0.187856962290069 0.8749585429487446 0  0.2504988086043933 0.8749411046197352 0  0.3131616997224369 0.8749201046717768 0  0.3758528326881523 0.8748939822939068 0  0.4385808626178764 0.8748605528014924 0  0.5013563235001794 0.8748166449365928 0  0.564191999650857 0.8747575042914447 0  0.627102939020008 0.8746757831711965 0  0.6901051986167039 0.8745597767960674 0  0.7532108465645865 0.8743902197976131 0  0.8164130868110101 0.874134106403279 0  0.8796494211817609 0.8737315785032167 0  0.9427406741815328 0.8730644746060178 0  1.005525960182992 0.8718707418780155 0  0 0.9375 0  0.06255753565339531 0.9374933871724604 0  0.1251174746197305 0.9374864023498942 0  0.1876823320236137 0.9374786375123112 0  0.2502548769576234 0.9374696049193924 0  0.3128382823271084 0.9374586793245427 0  0.3754363037448915 0.9374450131757671 0  0.4380534948524759 0.9374274046367195 0 
[...]
<PointData  Vectors="f_54"> 
<DataArray  type="Float64"  Name="f_54"  NumberOfComponents="3" format="ascii">0.0000000000000000e+00 0.0000000000000000e+00 0.0000000000000000e+00  0.0000000000000000e+00 0.0000000000000000e+00 0.0000000000000000e+00  0.0000000000000000e+00 0.0000000000000000e+00 0.0000000000000000e+00  0.0000000000000000e+00 0.0000000000000000e+00 0.0000000000000000e+00  0.0000000000000000e+00 0.0000000000000000e+00 0.0000000000000000e+00  0.0000000000000000e+00 0.0000000000000000e+00 0.0000000000000000e+00  0.0000000000000000e+00 0.0000000000000000e+00 0.0000000000000000e+00  0.0000000000000000e+00 0.0000000000000000e+00 0.0000000000000000e+00  0.0000000000000000e+00 0.0000000000000000e+00 0.0000000000000000e+00  0.0000000000000000e+00 0.0000000000000000e+00 0.0000000000000000e+00  0.0000000000000000e+00 0.0000000000000000e+00 0.0000000000000000e+00  0.0000000000000000e+00 0.0000000000000000e+00 0.0000000000000000e+00  0.0000000000000000e+00 0.0000000000000000e+00 0.0000000000000000e+00  0.0000000000000000e+00 0.0000000000000000e+00 0.0000000000000000e+00  0.0000000000000000e+00 0.0000000000000000e+00 0.0000000000000000e+00  0.0000000000000000e+00 0.0000000000000000e+00 0.0000000000000000e+00  0.0000000000000000e+00 0.0000000000000000e+00 0.0000000000000000e+00  0.0000000000000000e+00 0.0000000000000000e+00 0.0000000000000000e+00  -2.7817952368409249e-06 1.7880113372790415e-08 0.0000000000000000e+00  -5.6408997008303200e-06 3.8446737307630236e-08 0.0000000000000000e+00  -8.6543666644061623e-06 6.4701415096985525e-08 0.0000000000000000e+00  -1.1897403568768991e-05 1.0028815967524455e-07 0.0000000000000000e+00  -1.5441490879894282e-05 1.4985910517647204e-07 0.0000000000000000e+00  -1.9351260925764815e-05 2.1948407703587015e-07 0.0000000000000000e+00  -2.3679638273568660e-05 3.1710433572554069e-07 0.0000000000000000e+00  -2.8460687189027465e-05 4.5302291614722974e-07 0.0000000000000000e+00  -3.3699549242899571e-05 6.4043743055821587e-07 0.0000000000000000e+00  -3.9358753652878228e-05 8.9612616543608658e-07 0.0000000000000000e+00  -4.5339946509928141e-05 1.2418353262205279e-06 0.0000000000000000e+00  -5.1459520669273758e-05 1.7085330065065000e-06 0.0000000000000000e+00  -5.7415641463328660e-05 2.3516598815850820e-06 0.0000000000000000e+00  -6.2744396407182776e-05 3.3084256200288090e-06 0.0000000000000000e+00  -6.6778036847044652e-05 5.0228451061189577e-06 0.0000000000000000e+00  -6.8750953548891883e-05 9.2159201643963564e-06 0.0000000000000000e+00  0.0000000000000000e+00 0.0000000000000000e+00 0.0000000000000000e+00  -5.4907655352512368e-06 3.3106421496553164e-08 0.0000000000000000e+00  -1.1137506063987118e-05 7.1290962869669222e-08 0.0000000000000000e+00  -1.7096067983993845e-05 1.2024667473745863e-07 0.0000000000000000e+00  -2.3519492276251009e-05 1.8692808780575355e-07 0.0000000000000000e+00  -3.0554734131098637e-05 2.8028132961441914e-07 0.0000000000000000e+00  -3.8336931652181400e-05 4.1207534692766606e-07 0.0000000000000000e+00  -4.6980209719374131e-05 5.9783504860819347e-07 0.0000000000000000e+00  -5.6563879776360989e-05 8.5784196862667156e-07 0.0000000000000000e+00  -6.7112778692405618e-05 1.2181246344546134e-06 0.0000000000000000e+00  -7.8570340821322379e-05 1.7113286409605209e-06 0.0000000000000000e+00  -9.0762597942661784e-05 2.3773700141466855e-06 0.0000000000000000e+00  -1.0334987373947917e-04 3.2637695594735916e-06 0.0000000000000000e+00  -1.1575790133707657e-04 4.4245305183792511e-06 0.0000000000000000e+00  -1.2706243279733109e-04 5.9075175315846492e-06 0.0000000000000000e+00  -1.3573644633171938e-04 7.6643761034466634e-06 0.0000000000000000e+00  -1.3891041765436512e-04 9.0002706760971690e-06 0.0000000000000000e+00  0.0000000000000000e+00 0.0000000000000000e+00 0.0000000000000000e+00  -8.0477534147132611e-06 4.3289519048335295e-08 0.0000000000000000e+00  -1.6331835409828920e-05 9.3455948279244194e-08 0.0000000000000000e+00  -2.5089275632172217e-05 1.5825220599870508e-07 0.0000000000000000e+00  -3.4554995632054152e-05 2.4724542805281952e-07 0.0000000000000000e+00  -4.4958062227602234e-05 3.7289660856416014e-07 0.0000000000000000e+00  -5.6514376343531047e-05 5.5182576290766274e-07 0.0000000000000000e+00  -6.9414248816942591e-05 8.0627819339261872e-07 0.0000000000000000e+00  -8.3803087211984485e-05 1.1657403826133205e-06 0.0000000000000000e+00  -9.9753250107269644e-05 1.6685319131371065e-06 0.0000000000000000e+00  -1.1722508359564719e-04 2.3629869771173617e-06 0.0000000000000000e+00  -1.3601523986159295e-04 3.3074648597615955e-06 0.0000000000000000e+00  -1.5569038432748140e-04 4.5677148624319972e-06 0.0000000000000000e+00  -1.7550378183098694e-04 6.2086226863433673e-06 0.0000000000000000e+00  -1.9429095926921055e-04 8.2746085759808479e-06 0.0000000000000000e+00  -2.1034688459842425e-04 1.0754340109375988e-05 0.0000000000000000e+00  -2.2136511477375949e-04 1.3592886062545457e-05 0.0000000000000000e+00  0.0000000000000000e+00 0.0000000000000000e+00 0.0000000000000000e+00  -1.0372018980887379e-05 4.6636860216104116e-08 0.0000000000000000e+00  -2.1061936235621182e-05 1.0109474464724220e-07 0.0000000000000000e+00  -3.2390163132023718e-05 1.7226328317709032e-07 0.0000000000000000e+00  -4.4678047392271370e-05 2.7127470042744255e-07 0.0000000000000000e+00  -5.8245032380246957e-05 4.1289254202929606e-07 0.0000000000000000e+00  -7.3401337134767461e-05 6.1720950380946752e-07 0.0000000000000000e+00  -9.0434052710913903e-05 9.1171997246983299e-07 0.0000000000000000e+00  -1.0958413122566220e-04 1.3337557989519454e-06 0.0000000000000000e+00  -1.3101142095347365e-04 1.9331054114937783e-06 0.0000000000000000e+00  -1.5474490279316892e-04 2.7743019470471423e-06 0.0000000000000000e+00  -1.8061597488288269e-04 3.9374491639007004e-06 0.0000000000000000e+00  -2.0817458666879893e-04 5.5153962400600441e-06 0.0000000000000000e+00  -2.3659231957139776e-04 7.6034526589326275e-06 0.0000000000000000e+00  -2.6456594517631327e-04 1.0275966218862265e-05 0.0000000000000000e+00  -2.9025778843073301e-04 1.3543779813096880e-05 0.0000000000000000e+00  -3.1136394305596014e-04 1.7288443611990981e-05 0.0000000000000000e+00  0.0000000000000000e+00 0.0000000000000000e+00 0.0000000000000000e+00  -1.2381792504222302e-05 4.2212552545822511e-08 0.0000000000000000e+00  -2.5162667815781716e-05 9.2139033317871205e-08 0.0000000000000000e+00  -3.8747221877528544e-05 1.5865005618178433e-07 0.0000000000000000e+00  -5.3546912258783433e-05 2.5308608827466917e-07 0.0000000000000000e+00  -6.9979898430212444e-05 3.9086901792808658e-07 0.0000000000000000e+00  -8.8465850013847938e-05 5.9358299871291975e-07 0.0000000000000000e+00  -1.0941306921323382e-04 8.9169001318065387e-07 0.0000000000000000e+00  -1.3319450444300272e-04 1.3280036029869060e-06 0.0000000000000000e+00  -1.6010848342545687e-04 1.9619017788468077e-06 0.0000000000000000e+00  -1.9031962199062957e-04 2.8739099250449631e-06 0.0000000000000000e+00  -2.2377606048906826e-04 4.1695523370425991e-06 0.0000000000000000e+00  -2.6010215609577271e-04 5.9800238413753642e-06 0.0000000000000000e+00  -2.9847298479020038e-04 8.4550880058395775e-06 0.0000000000000000e+00  -3.3749143939568594e-04 1.1740885214349839e-05 0.0000000000000000e+00  -3.7511399866595652e-04 1.5933305113337947e-05 0.0000000000000000e+00  -4.0870769989539101e-04 2.0998766187914673e-05 0.0000000000000000e+00  0.0000000000000000e+00 0.0000000000000000e+00 0.0000000000000000e+00  -1.3995945294761869e-05 3.0130513351653041e-08 0.0000000000000000e+00  -2.8468801642115901e-05 6.6721896389335968e-08 0.0000000000000000e+00  -4.3905263218055486e-05 1.1733647588797161e-07 0.0000000000000000e+00  -6.0807957746637785e-05 1.9194270884169170e-07 0.0000000000000000e+00  -7.9700058849594549e-05 3.0459416673832164e-07 0.0000000000000000e+00  -1.0112492376796016e-04 4.7574598499945880e-07 0.0000000000000000e+00  -1.2563766364163256e-04 7.3552014965077554e-07 0.0000000000000000e+00  -1.5378424520384818e-04 1.1282849318928578e-06 0.0000000000000000e+00  -1.8606214974489500e-04 1.7189047131486551e-06 0.0000000000000000e+00  -2.2285513149546065e-04 2.6008182340154651e-06 0.0000000000000000e+00  -2.6433410389362560e-04 3.9054652523661180e-06 0.0000000000000000e+00  -3.1031841497771351e-04 5.8110719810102873e-06 0.0000000000000000e+00  -3.6009971352796036e-04 8.5458362531030082e-06 0.0000000000000000e+00  -4.1224794551404453e-04 1.2375716974787670e-05 0.0000000000000000e+00  -4.6444733787203682e-04 1.7561195792547086e-05 0.0000000000000000e+00  -5.1344121431431890e-04 2.4264999065919156e-05 0.0000000000000000e+00  0.0000000000000000e+00 0.0000000000000000e+00 0.0000000000000000e+00  -1.5137002372202670e-05 1.1645273796660883e-08 0.0000000000000000e+00  -3.0820948650205062e-05 2.7399381501778329e-08 0.0000000000000000e+00  -4.7614000291139978e-05 5.2241895117590482e-08 0.0000000000000000e+00  -6.6106317823936989e-05 9.3120329068199723e-08 0.0000000000000000e+00  -8.6927670336649812e-05 1.6045746152676799e-07 0.0000000000000000e+00  -1.1075506367222374e-04 2.7041248231039004e-07 0.0000000000000000e+00  -1.3831318363424105e-04 4.4836700325144302e-07 0.0000000000000000e+00  -1.7036247861833371e-04 7.3431700693031775e-07 0.0000000000000000e+00  -2.0766690946742481e-04 1.1911066771720388e-06 0.0000000000000000e+00  -2.5092986992808171e-04 1.9166459579560594e-06 0.0000000000000000e+00  -3.0068328044186211e-04 3.0611308430643673e-06 0.0000000000000000e+00  -3.5711355746587700e-04 4.8491635145480190e-06 0.0000000000000000e+00  -4.1981364543264310e-04 7.6032101492796604e-06 0.0000000000000000e+00  -4.8746967420275832e-04 1.1756959864935384e-05 0.0000000000000000e+00  -5.5752962106671549e-04 1.7833115478697731e-05 0.0000000000000000e+00  -6.2595017983807716e-04 2.6342314022358497e-05 0.0000000000000000e+00  0.0000000000000000e+00 0.0000000000000000e+00 0.0000000000000000e+00  -1.5735579051593581e-05 -1.0898401973345308e-08 0.0000000000000000e+00  -3.2074547207907301e-05 -2.0916456653006114e-08 0.0000000000000000e+00  -4.9641747468840784e-05 -2.8719968515776078e-08 0.0000000000000000e+00  -6.9104334464368671e-05 -3.1862307299760102e-08 0.0000000000000000e+00  -9.1192410557252031e-05 -2.5760830602443568e-08 0.0000000000000000e+00  -1.1671794504085100e-04 -1.9390823646954255e-09 0.0000000000000000e+00  -1.4658932529384419e-04 5.5042409743534387e-08 0.0000000000000000e+00  -1.8181634863943276e-04 1.7293593572033742e-07 0.0000000000000000e+00  -2.2349629197458373e-04 4.0103026095999948e-07 0.0000000000000000e+00  -2.7276531765552055e-04 8.2574579019899501e-07 0.0000000000000000e+00  -3.3069079096049141e-04 1.5961733436872862e-06 0.0000000000000000e+00  -3.9807079438807967e-04 2.9637282920129277e-06 0.0000000000000000e+00  -4.7510338835813639e-04 5.3381850139969829e-06 0.0000000000000000e+00  -5.6090412699305147e-04 9.3531163453322027e-06 0.0000000000000000e+00  -6.5290705177249524e-04 1.5908915591377869e-05 0.0000000000000000e+00  -7.4628724601189076e-04 2.6115048501022131e-05 0.0000000000000000e+00  0.0000000000000000e+00 0.0000000000000000e+00 0.0000000000000000e+00  -1.5736115672909541e-05 -3.4289604044254875e-08 0.0000000000000000e+00  -3.2111735291180256e-05 -7.1393435022458681e-08 0.0000000000000000e+00  -4.9794182284406182e-05 -1.1424705593063416e-07 0.0000000000000000e+00  -6.9508162492840268e-05 -1.6590605672769818e-07 0.0000000000000000e+00  -9.2066750648191754e-05 -2.2934006546524419e-07 0.0000000000000000e+00  -1.1840438971984120e-04 -3.0673061554357053e-07 0.0000000000000000e+00  -1.4961085330410289e-04 -3.9773717474410154e-07 0.0000000000000000e+00  -1.8696252004041073e-04 -4.9568013836476841e-07 0.0000000000000000e+00  -2.3194226064614105e-04 -5.7962160722356339e-07 0.0000000000000000e+00  -2.8623000103057179e-04 -5.9857359786793530e-07 0.0000000000000000e+00  -3.5163039406041838e-04 -4.4109277009620540e-07 0.0000000000000000e+00  -4.2988071476177093e-04 1.2089229424620514e-07 0.0000000000000000e+00  -5.2225543481392543e-04 1.5297048593417345e-06 0.0000000000000000e+00  -6.2887543840896884e-04 4.5944485543674075e-06 0.0000000000000000e+00  -7.4769552911139374e-04 1.0682414215254590e-05 0.0000000000000000e+00  -8.7336502081554728e-04 2.1841689275407834e-05 0.0000000000000000e+00  0.0000000000000000e+00 0.0000000000000000e+00 0.0000000000000000e+00  -1.5103506705032177e-05 -5.4860346806277210e-08 0.0000000000000000e+00  -3.0855353483876503e-05 -1.1612416635248370e-07 0.0000000000000000e+00  -4.7937211865966948e-05 -1.9097110898409131e-07 0.0000000000000000e+00  -6.7101698587341044e-05 -2.8815152847249973e-07 0.0000000000000000e+00  -8.9213668633382088e-05 -4.1885660599731644e-07 0.0000000000000000e+00  -1.1529854467415538e-04 -5.9758317401838449e-07 0.0000000000000000e+00  -1.4659953917905722e-04 -8.4273128530712438e-07 0.0000000000000000e+00  -1.8464401756032134e-04 -1.1762170665938365e-06 0.0000000000000000e+00  -2.3131494428936232e-04 -1.6203604018036964e-06 0.0000000000000000e+00  -2.8891325613073198e-04 -2.1880623330116356e-06 0.0000000000000000e+00  -3.6017547807610281e-04 -2.8574949869124518e-06 0.0000000000000000e+00  -4.4816923318056974e-04 -3.5127551423156648e-06 0.0000000000000000e+00  -5.5591929000108715e-04 -3.8138619482855031e-06 0.0000000000000000e+00  -6.8553021218969816e-04 -2.9339210577515834e-06 0.0000000000000000e+00  -8.3656241288337474e-04 9.0116341447534938e-07 0.0000000000000000e+00  -1.0037664793429379e-03 1.0973237882898584e-05 0.0000000000000000e+00  0.0000000000000000e+00 0.0000000000000000e+00 0.0000000000000000e+00  -1.3829892468982188e-05 -6.9052608504682556e-08 0.0000000000000000e+00  -2.8283609362249967e-05 -1.4733861058222319e-07 0.0000000000000000e+00  -4.4021767904540171e-05 -2.4547464449235897e-07 0.0000000000000000e+00  -6.1785131287002935e-05 -3.7703550621556925e-07 0.0000000000000000e+00  -8.2444123407358712e-05 -5.6055826500310468e-07 0.0000000000000000e+00  -1.0706092661941482e-04 -8.2221694296876374e-07 0.0000000000000000e+00  -1.3697005763770964e-04 -1.1994193195409442e-06 0.0000000000000000e+00  -1.7388417893322863e-04 -1.7454637750889552e-06 0.0000000000000000e+00  -2.2003123926145872e-04 -2.5349034019490699e-06 0.0000000000000000e+00  -2.7832329504158792e-04 -3.6676921161129267e-06 0.0000000000000000e+00  -3.5253786636122358e-04 -5.2656412913368387e-06 0.0000000000000000e+00  -4.4743999169461217e-04 -7.4421754294934689e-06 0.0000000000000000e+00  -5.6864922887543505e-04 -1.0192989480921559e-05 0.0000000000000000e+00  -7.2180795242430683e-04 -1.3071874722584317e-05 0.0000000000000000e+00  -9.1026416996132804e-04 -1.4345364503406070e-05 0.0000000000000000e+00  -1.1305873292289854e-03 -9.2167292051845060e-06 0.0000000000000000e+00  0.0000000000000000e+00 0.0000000000000000e+00 0.0000000000000000e+00  -1.1940560972429576e-05 -7.4065827605028015e-08 0.0000000000000000e+00  -2.4443187793051105e-05 -1.5882738747503662e-07 0.0000000000000000e+00  -3.8106960040979125e-05 -2.6677034452705421e-07 0.0000000000000000e+00  -5.3613003358042268e-05 -4.1430698491798839e-07 0.0000000000000000e+00  -7.1777693928425207e-05 -6.2466656356264669e-07 0.0000000000000000e+00  -9.3623060036617924e-05 -9.3212202415428662e-07 0.0000000000000000e+00  -1.2047453200910642e-04 -1.3884204926282989e-06 0.0000000000000000e+00  -1.5410078819555416e-04 -2.0727440606738010e-06 0.0000000000000000e+00  -1.9691672745132609e-04 -3.1071900437876031e-06 0.0000000000000000e+00  -2.5227717229902696e-04 -4.6805068140239057e-06 0.0000000000000000e+00  -3.2488902093725201e-04 -7.0828191234280627e-06 0.0000000000000000e+00  -4.2133976913958748e-04 -1.0749527100924704e-05 0.0000000000000000e+00  -5.5060969963595624e-04 -1.6287606910544158e-05 0.0000000000000000e+00  -7.2401247805153771e-04 -2.4347042921218997e-05 0.0000000000000000e+00  -9.5290010068658300e-04 -3.4743348504480783e-05 0.0000000000000000e+00  -1.2412917607103021e-03 -4.2639220174404116e-05 0.0000000000000000e+00  0.0000000000000000e+00 0.0000000000000000e+00 0.0000000000000000e+00  -9.4976930648886612e-06 -6.8458640586660507e-08 0.0000000000000000e+00  -1.9458030491606746e-05 -1.4729954914049305e-07 0.0000000000000000e+00  -3.0376800031117673e-05 -2.4876809003038665e-07 0.0000000000000000e+00  -4.2824217670201676e-05 -3.8926035059756510e-07 0.0000000000000000e+00  -5.7495074478074496e-05 -5.9253061193375326e-07 0.0000000000000000e+00  -7.5277897625930865e-05 -8.9461699738865748e-07 0.0000000000000000e+00  -9.7356044199997972e-05 -1.3517943463865979e-06 0.0000000000000000e+00  -1.2536186934709011e-04 -2.0538462184715554e-06 0.0000000000000000e+00  -1.6161953153709982e-04 -3.1468208948766404e-06 0.0000000000000000e+00  -2.0953676354784994e-04 -4.8731058203698827e-06 0.0000000000000000e+00  -2.7424604799578456e-04 -7.6441166945643916e-06 0.0000000000000000e+00  -3.6364969936828986e-04 -1.2176612804259087e-05 0.0000000000000000e+00  -4.9004697594971715e-04 -1.9756521056729432e-05 0.0000000000000000e+00  -6.7226256108092973e-04 -3.2748262517452619e-05 0.0000000000000000e+00  -9.3637210678191804e-04 -5.5380269365782428e-05 0.0000000000000000e+00  -1.3013015827340255e-03 -9.2176231303523989e-05 0.0000000000000000e+00  0.0000000000000000e+00 0.0000000000000000e+00 0.0000000000000000e+00  -6.6007025849443869e-06 -5.2553121732710952e-08 0.0000000000000000e+00  -1.3530931799522050e-05 -1.1332610672592756e-07 0.0000000000000000e+00  -2.1145240427429923e-05 -1.9207997426751521e-07 0.0000000000000000e+00  -2.9854894040521190e-05 -3.0204210193761637e-07 0.0000000000000000e+00  -4.0167151374899835e-05 -4.6266414529869695e-07 0.0000000000000000e+00  -5.2741068108051007e-05 -7.0397621338692175e-07 0.0000000000000000e+00  -6.8472125187984007e-05 -1.0738412117963443e-06 0.0000000000000000e+00  -8.8627359828291814e-05 -1.6505018479288859e-06 0.0000000000000000e+00  -1.1507113951061954e-04 -2.5649997555669679e-06 0.0000000000000000e+00  -1.5065915996239054e-04 -4.0426220783827105e-06 0.0000000000000000e+00  -1.9995655178224456e-04 -6.4827595780114982e-06 0.0000000000000000e+00  -2.7060388208712471e-04 -1.0622038420283432e-05 0.0000000000000000e+00  -3.7601993400221536e-04 -1.7900630899107128e-05 0.0000000000000000e+00  -5.4093523770039787e-04 -3.1426461899305683e-05 0.0000000000000000e+00  -8.1326308408206710e-04 -5.9202739942178466e-05 0.0000000000000000e+00  -1.2952746437968016e-03 -1.2903483519387636e-04 0.0000000000000000e+00  0.0000000000000000e+00 0.0000000000000000e+00 0.0000000000000000e+00  -3.3822834443365189e-06 -2.8508297207272186e-08 0.0000000000000000e+00  -6.9357974642767772e-06 -6.1549971490592489e-08 0.0000000000000000e+00  -1.0845203769175517e-05 -1.0452824194146580e-07 0.0000000000000000e+00  -1.5325763001895494e-05 -1.6481252450477587e-07 0.0000000000000000e+00  -2.0644868053286032e-05 -2.5332573885576369e-07 0.0000000000000000e+00  -2.7153163224979430e-05 -3.8708282350411385e-07 0.0000000000000000e+00  -3.5332760711949094e-05 -5.9347509909834889e-07 0.0000000000000000e+00  -4.5876352575015196e-05 -9.1776442444253855e-07 0.0000000000000000e+00  -5.9824163705497802e-05 -1.4365472714019480e-06 0.0000000000000000e+00  -7.8814581689488618e-05 -2.2823846628450848e-06 0.0000000000000000e+00  -1.0557140745517165e-04 -3.6888667947848298e-06 0.0000000000000000e+00  -1.4491483283084124e-04 -6.0691706206722011e-06 0.0000000000000000e+00  -2.0599556696468575e-04 -1.0125278855384625e-05 0.0000000000000000e+00  -3.0741449520499853e-04 -1.6829866373037325e-05 0.0000000000000000e+00  -4.8799504411241676e-04 -2.6216151876357242e-05 0.0000000000000000e+00  -8.1514937839093277e-04 -3.0326608421695445e-05 0.0000000000000000e+00  0.0000000000000000e+00 0.0000000000000000e+00 0.0000000000000000e+00  0.0000000000000000e+00 0.0000000000000000e+00 0.0000000000000000e+00  0.0000000000000000e+00 0.0000000000000000e+00 0.0000000000000000e+00  0.0000000000000000e+00 0.0000000000000000e+00 0.0000000000000000e+00  0.0000000000000000e+00 0.0000000000000000e+00 0.0000000000000000e+00  0.0000000000000000e+00 0.0000000000000000e+00 0.0000000000000000e+00  0.0000000000000000e+00 0.0000000000000000e+00 0.0000000000000000e+00  0.000000000