<?xml version="1.0"?>
<VTKFile type="UnstructuredGrid"  version="0.1"  >
<UnstructuredGrid>
<Piece  NumberOfPoints="289" NumberOfCells="512">
<Points>
<DataArray  type="Float64"  NumberOfComponents="3"  format="ascii">0 0 0  0.0625 0 0  0.125 0 0  0.1875 0 0  0.25 0 0  0.3125 0 0  0.375 0 0  0.4375 0 0  0.5 0 0  0.5625 0 0  0.625 0 0  0.6875 0 0  0.75 0 0  0.8125 0 0  0.875 0 0  0.9375 0 0  1 0 0  0 0.0625 0  0.062509773990538 0.0624982792088204 0  0.1250197017552297 0.06249653318619321 0  0.1875299153639411 0.06249474041708378 0  0.2500404976557004 0.06249288730942335 0  0.3125514473655698 0.06249097316487693 0  0.3750626305101968 0.06248901618328009 0  0.4375737105745488 0.06248706044715326 0  0.5000840457217738 0.06248518328943439 0  0.5625925312349135 0.06248350155137968 0  0.6250973398920329 0.06248217409200317 0  0.6875954424636133 0.06248139771233793 0  0.7500815797001081 0.06248140061029444 0  0.8125456719165326 0.0624824805110415 0  0.8749652179355081 0.06248534965398921 0  0.9372798043140813 0.06249311431881132 0  0.9992955320410917 0.06252206425932789 0  0 0.125 0  0.06251938212010831 0.1249965845521995 0  0.1250390950074776 0.1249931149497543 0  0.1875594304342423 0.124989544039321 0  0.2500805913437766 0.1249858396948147 0  0.3126026287126011 0.124981994501713 0  0.3751253538154466 0.1249780377845656 0  0.437648213855131 0.1249740501222278 0  0.5001701141193673 0.1249701795188272 0  0.5626891603164336 0.124966656546174 0  0.6252022742414723 0.1249638024614774 0  0.6877045899401819 0.124962018479027 0  0.7501884369952182 0.124961733035745 0  0.8126415296259839 0.1249632532065808 0  0.875043846688636 0.1249663387342833 0  0.9373642405692827 0.124968631803073 0  0.9995725195804831 0.1249580046078516 0  0 0.1875 0  0.06252864897927637 0.1874949449626459 0  0.1250578470591824 0.1874897998451227 0  0.187588094660634 0.1874844839537647 0  0.2501197801937565 0.1874789369869446 0  0.3126530991862994 0.1874731327973085 0  0.3751879413413679 0.187467097271607 0  0.437723731494213 0.1874609311758016 0  0.5002592077679625 0.1874548377952648 0  0.5627921171763209 0.1874491530324446 0  0.6253188060786465 0.187444371367299 0  0.6878336833002818 0.187441153076331 0  0.7503285518403089 0.1874402830991727 0  0.8127919011335286 0.1874425230397445 0  0.8752086453503762 0.1874482435116092 0  0.937562135223295 0.1874566740945444 0  0.9998434874451558 0.1874651634893039 0  0 0.25 0  0.06253735871052386 0.2499933963696814 0  0.1250755365239315 0.2499866573287909 0  0.1876153041023363 0.2499796578025162 0  0.2501573182071216 0.2499722956159457 0  0.3127020360716661 0.2499645080569416 0  0.3752495930378301 0.24995629474587 0  0.4377996283130753 0.2499477489666783 0  0.5003510428789014 0.2499390991227543 0  0.5629016756726195 0.24993076047769 0  0.6254478934742438 0.2499233938748563 0  0.687984115491861 0.2499179612349903 0  0.7505023548889098 0.2499157554554152 0  0.8129919978946434 0.2499183640878327 0  0.8754403350441508 0.2499275092251763 0  0.9378348891240684 0.2499447329427665 0  1.000169066634238 0.2499711032287502 0  0 0.3125 0  0.06254524360272858 0.3124919841166878 0  0.1250916280927631 0.3124837771323001 0  0.1876402574599454 0.3124751972293154 0  0.25019214419501 0.3124660838903472 0  0.312748133418295 0.3124563150656183 0  0.3753087879572214 0.3124458328774644 0  0.4378742176378546 0.3124346817806681 0  0.5004438348950137 0.3124230637068403 0  0.5630160211522993 0.3124114148497615 0  0.6255876990433911 0.3124005075391864 0  0.6881538327740578 0.3123915765998835 0  0.7507069360086817 0.3123864604752599 0  0.8132367712702018 0.3123877309925291 0  0.8757305896657912 0.3123987628662742 0  0.9381744515594002 0.3124236754574503 0  1.000556187454485 0.3124670787601332 0  0 0.375 0  0.06255198291838668 0.3749907639292968 0  0.1251054686895412 0.374981271767948 0  0.1876619465024497 0.3749712731734861 0  0.25022286186147 0.3749605322486574 0  0.3127895660669838 0.3749488420589554 0  0.3753632272409982 0.374936049269992 0  0.4379446840796751 0.3749220946424387 0  0.5005342195959622 0.3749070772774529 0  0.5631312298346155 0.3748913531290025 0  0.6257337654554622 0.3748756808171824 0  0.6883379382557265 0.3748614286168326 0  0.7509372189861926 0.3748508521002529 0  0.813521717142293 0.3748474352815823 0  0.8760776319149941 0.3748562474526913 0  0.9385871758166789 0.37488418744873 0  1.001029314158936 0.3749398549536065 0  0 0.4375 0  0.06255721377733366 0.4374898008617163 0  0.1251163087333785 0.4374792749065004 0  0.187679186496803 0.4374680948270961 0  0.2502477770503444 0.4374559350025461 0  0.3128240296418631 0.4374424792058076 0  0.3754098704699448 0.437427438475253 0  0.4380071071527396 0.4374105861220982 0  0.5006172519092111 0.437391820692651 0  0.5632412254759274 0.4373712734074853 0  0.6258788935565496 0.4373494843911243 0  0.6885283805452465 0.4373276811363571 0  0.7511851078516872 0.437308199489257 0  0.8138405265897583 0.4372950814309393 0  0.8764805704695752 0.4372948405144487 0  0.9390839594810864 0.4373172590288225 0  1.001620647612409 0.4373758113117393 0  0 0.5 0  0.06256055484447683 0.4999891657330908 0  0.1251233502313839 0.4999779344722519 0  0.1876906897745636 0.4999659000385177 0  0.2502649972794188 0.4999526396045181 0  0.3128488641828199 0.4999377100932376 0  0.3754450759161339 0.4999206523777744 0  0.4380565992786047 0.4999010101031884 0  0.5006865011154104 0.4998783750729017 0  0.5633377509901706 0.4998524797324791 0  0.6260128359355681 0.4998233711312075 0  0.6887130837224178 0.4997917217288515 0  0.7514375549222553 0.4997593606617499 0  0.8141813301717274 0.4997301371223316 0  0.8769330015062355 0.4997112254004601 0  0.9396712068728644 0.4997148667496129 0  1.002360210937056 0.4997601495153518 0  0 0.5625 0  0.06256164219374041 0.5624889288314338 0  0.1251258208566126 0.562477399804134 0  0.1876951823301025 0.5624649356035952 0  0.2502725960212543 0.5624510200818984 0  0.3128612697227048 0.5624350795246937 0  0.3754648646278246 0.5624164664563495 0  0.4380875999515653 0.5623944505163909 0  0.5007343243705158 0.5623682260968963 0  0.5634105099607948 0.562336956217122 0  0.6261220898689169 0.5622998903022385 0  0.6888750092173777 0.5622566264642165 0  0.7516742854696856 0.5622076459563061 0  0.8145222731568866 0.5621553381666555 0  0.8774156800633173 0.5621058509874249 0  0.9403406506089582 0.5620721567555399 0  1.003264947001523 0.5620784014297614 0  0 0.625 0  0.06256017488657505 0.6249891511346745 0  0.1251230695359207 0.6249778032141727 0  0.187691558120784 0.6249654274366304 0  0.250268838046646 0.6249514334207135 0  0.3128586167585524 0.6249351335368172 0  0.3754653273209367 0.624915701919126 0  0.4380943778155886 0.6248921279592369 0  0.5007524312095551 0.6248631672279571 0  0.5634476950550292 0.6248273001646735 0  0.6261901684000539 0.6247827254854932 0  0.6889917396494991 0.6247274515707233 0  0.7518659460464393 0.6246596267768101 0  0.8148270758373126 0.624578410971111 0  0.8778880415510519 0.6244860042941527 0  0.9410557903786865 0.6243919574330055 0  1.004321311139163 0.6243212644291 0  0 0.6875 0  0.06255596551560044 0.6874898739374543 0  0.1251146742468039 0.6874792376772321 0  0.187679057929424 0.6874675430328068 0  0.250252450857493 0.687454161492839 0  0.3128388395844965 0.6874383331628815 0  0.3754431750754063 0.6874191013602227 0  0.4380717741064823 0.6873952261051122 0  0.5007328393325785 0.6873650686467696 0  0.563437126197626 0.6873264394667382 0  0.6261987753343758 0.687276407505372 0  0.689036307680051 0.6872110883329267 0  0.7519737513368817 0.6871254896524676 0  0.8150418572266405 0.6870136640190792 0  0.8782793457642616 0.686869885362842 0  0.9417335660441789 0.6866927514688782 0  1.005456077663359 0.6864964034231913 0  0 0.75 0  0.06254898854000597 0.7499911084532049 0  0.1251005472744159 0.7499817339538167 0  0.1876574499139123 0.7499713515459517 0  0.2502229111843667 0.7499593461725325 0  0.3128008752671562 0.7499449519011436 0  0.3753963971934552 0.7499271690876365 0  0.4380161680925236 0.7499046461400217 0  0.5006692546777731 0.7498755060076031 0  0.5633681502251721 0.7498370874691838 0  0.6261302702645494 0.7497855566286706 0  0.6889800787645852 0.7497153249745171 0  0.7519521382599846 0.7496181947299955 0  0.8150956995088778 0.7494821826135296 0  0.8784824766687277 0.7492902460937576 0  0.9422216890824372 0.7490205345676696 0  1.006485077444922 0.7486564062313461 0  0 0.8125 0  0.06253941736047111 0.8124928274773271 0  0.1250810185446663 0.8124852417224193 0  0.1876271795966885 0.8124767894136713 0  0.2501806978581274 0.8124669303467896 0  0.3127450793059498 0.8124549763914015 0  0.3753249352137404 0.8124400048627585 0  0.4379265571073871 0.8124207289693045 0  0.500558776167067 0.8123952971727323 0  0.5632342734556475 0.8123609742541481 0  0.6259716038094013 0.8123136228820121 0  0.6887983535546489 0.8122468420719049 0  0.751756138974169 0.8121504999343435 0  0.8149088506793367 0.8120081631662447 0  0.8783579913394676 0.8117924700677781 0  0.9422792379747985 0.8114568302089777 0  1.007035522620214 0.8109228759608479 0  0 0.875 0  0.06252764068120219 0.8749949613070468 0  0.1250568759501791 0.8749896197044547 0  0.1875894518525296 0.8749836406494153 0  0.2501274492548798 0.8749766205538123 0  0.3126735197613315 0.8749680369116587 0  0.3752312223619575 0.8749571756204688 0  0.437805530938531 0.8749430190087368 0  0.5004036284882304 0.8749240666073164 0  0.5630361847334512 0.8748980395662708 0  0.6257194556185338 0.8748613798949927 0  0.6884787903804476 0.87480837823225 0  0.7513545660709756 0.8747296025985013 0  0.8144124143518428 0.8746089274397925 0  0.8777619888715407 0.8744174790421078 0  0.9416004576858327 0.8740999878167767 0  1.006388455750189 0.8735406646114481 0  0 0.9375 0  0.06251425066045162 0.9374973996303255 0  0.1250293450160122 0.9374946388195924 0  0.1875462109287934 0.9374915396272089 0  0.2500659634147547 0.9374878857507246 0  0.312590039573925 0.937483394347561 0  0.3751203956956024 0.9374776743139112 0  0.4376598128299228 0.9374701608673356 0 
[...]
<PointData  Vectors="f_54"> 
<DataArray  type="Float64"  Name="f_54"  NumberOfComponents="3" format="ascii">0.0000000000000000e+00 0.0000000000000000e+00 0.0000000000000000e+00  0.0000000000000000e+00 0.0000000000000000e+00 0.0000000000000000e+00  0.0000000000000000e+00 0.0000000000000000e+00 0.0000000000000000e+00  0.0000000000000000e+00 0.0000000000000000e+00 0.0000000000000000e+00  0.0000000000000000e+00 0.0000000000000000e+00 0.0000000000000000e+00  0.0000000000000000e+00 0.0000000000000000e+00 0.0000000000000000e+00  0.0000000000000000e+00 0.0000000000000000e+00 0.0000000000000000e+00  0.0000000000000000e+00 0.0000000000000000e+00 0.0000000000000000e+00  0.0000000000000000e+00 0.0000000000000000e+00 0.0000000000000000e+00  0.0000000000000000e+00 0.0000000000000000e+00 0.0000000000000000e+00  0.0000000000000000e+00 0.0000000000000000e+00 0.0000000000000000e+00  0.0000000000000000e+00 0.0000000000000000e+00 0.0000000000000000e+00  0.0000000000000000e+00 0.0000000000000000e+00 0.0000000000000000e+00  0.0000000000000000e+00 0.0000000000000000e+00 0.0000000000000000e+00  0.0000000000000000e+00 0.0000000000000000e+00 0.0000000000000000e+00  0.0000000000000000e+00 0.0000000000000000e+00 0.0000000000000000e+00  0.0000000000000000e+00 0.0000000000000000e+00 0.0000000000000000e+00  0.0000000000000000e+00 0.0000000000000000e+00 0.0000000000000000e+00  4.1791046543723037e-06 -7.4878817245620963e-08 0.0000000000000000e+00  8.4887268048186768e-06 -1.5262414216526295e-07 0.0000000000000000e+00  1.3060823548879874e-05 -2.3620351216082174e-07 0.0000000000000000e+00  1.8029470868163267e-05 -3.2877952860508931e-07 0.0000000000000000e+00  2.3531179734528678e-05 -4.3381184707964166e-07 0.0000000000000000e+00  2.9704345324887960e-05 -5.5516985400498110e-07 0.0000000000000000e+00  3.6687701746522785e-05 -6.9727636826664027e-07 0.0000000000000000e+00  4.4618064369223119e-05 -8.6533946847565084e-07 0.0000000000000000e+00  5.3628752550334666e-05 -1.0658301006622004e-06 0.0000000000000000e+00  6.3853046329140692e-05 -1.3076465185294161e-06 0.0000000000000000e+00  7.5445207420102124e-05 -1.6052589682984005e-06 0.0000000000000000e+00  8.8655745205531476e-05 -1.9879280068519743e-06 0.0000000000000000e+00  1.0407498938190546e-04 -2.5291906857293088e-06 0.0000000000000000e+00  1.2342787518984408e-04 -3.4503853048251453e-06 0.0000000000000000e+00  1.5230226935597101e-04 -5.5166528495112322e-06 0.0000000000000000e+00  2.1002426503200988e-04 -1.1641400507227540e-05 0.0000000000000000e+00  0.0000000000000000e+00 0.0000000000000000e+00 0.0000000000000000e+00  8.2288035561961090e-06 -1.4691122737788296e-07 0.0000000000000000e+00  1.6717593188277350e-05 -2.9946199776767951e-07 0.0000000000000000e+00  2.5729518331209257e-05 -4.6349248536648584e-07 0.0000000000000000e+00  3.5532577327283925e-05 -6.4522982240153603e-07 0.0000000000000000e+00  4.6400509439036267e-05 -8.5148515609853054e-07 0.0000000000000000e+00  5.8611804205273947e-05 -1.0898585837117903e-06 0.0000000000000000e+00  7.2446292298026024e-05 -1.3689690024161413e-06 0.0000000000000000e+00  8.8179171225466379e-05 -1.6987589815221701e-06 0.0000000000000000e+00  1.0607338923704698e-04 -2.0910065061627147e-06 0.0000000000000000e+00  1.2637386103990582e-04 -2.5603548520856755e-06 0.0000000000000000e+00  1.4931255369310121e-04 -3.1264918028003489e-06 0.0000000000000000e+00  1.7514433537305332e-04 -3.8183238882996487e-06 0.0000000000000000e+00  2.0424868339871997e-04 -4.6788070447556132e-06 0.0000000000000000e+00  2.3731778835370834e-04 -5.7504901576621206e-06 0.0000000000000000e+00  2.7536382025186847e-04 -6.9101947753535148e-06 0.0000000000000000e+00  3.1732252429892202e-04 -6.8165924836721249e-06 0.0000000000000000e+00  0.0000000000000000e+00 0.0000000000000000e+00 0.0000000000000000e+00  1.2019444147237554e-05 -2.1332117849346458e-07 0.0000000000000000e+00  2.4425793632991628e-05 -4.3486578444040767e-07 0.0000000000000000e+00  3.7611414409581672e-05 -6.7315581664981000e-07 0.0000000000000000e+00  5.1977512258500050e-05 -9.3729003973900129e-07 0.0000000000000000e+00  6.7936235444620812e-05 -1.2372310547045891e-06 0.0000000000000000e+00  8.5909769010909429e-05 -1.5840854361305857e-06 0.0000000000000000e+00  1.0632518028493112e-04 -1.9903691904186586e-06 0.0000000000000000e+00  1.2960375037288861e-04 -2.4702525317063939e-06 0.0000000000000000e+00  1.5614375366476382e-04 -3.0397913803437490e-06 0.0000000000000000e+00  1.8629624631436446e-04 -3.7171841589100459e-06 0.0000000000000000e+00  2.2033407469408645e-04 -4.5231226143773964e-06 0.0000000000000000e+00  2.5841270230434236e-04 -5.4812249932218028e-06 0.0000000000000000e+00  3.0050827863541498e-04 -6.6181624289606913e-06 0.0000000000000000e+00  3.4626434522741690e-04 -7.9638701076524510e-06 0.0000000000000000e+00  3.9451791816117029e-04 -9.5731609479792497e-06 0.0000000000000000e+00  4.4201791445301104e-04 -1.1778635376165814e-05 0.0000000000000000e+00  0.0000000000000000e+00 0.0000000000000000e+00 0.0000000000000000e+00  1.5423988938220751e-05 -2.7152314512126967e-07 0.0000000000000000e+00  3.1357132045882337e-05 -5.5356942484802506e-07 0.0000000000000000e+00  4.8317191601897121e-05 -8.5705746702911877e-07 0.0000000000000000e+00  6.6836676530799706e-05 -1.1936750854662131e-06 0.0000000000000000e+00  8.7467273717770408e-05 -1.5762616250791130e-06 0.0000000000000000e+00  1.1078026469068763e-04 -2.0191711343700968e-06 0.0000000000000000e+00  1.3736087479622745e-04 -2.5385791123260249e-06 0.0000000000000000e+00  1.6779391137226906e-04 -3.1526585309016878e-06 0.0000000000000000e+00  2.0263730990522009e-04 -3.8814892567430292e-06 0.0000000000000000e+00  2.4237917234287785e-04 -4.7464656463380393e-06 0.0000000000000000e+00  2.8737192770272217e-04 -5.7688155094183699e-06 0.0000000000000000e+00  3.3773248785253624e-04 -6.9666552994456853e-06 0.0000000000000000e+00  3.9318524695917218e-04 -8.3499868866434856e-06 0.0000000000000000e+00  4.5279839769050945e-04 -9.9141249719310363e-06 0.0000000000000000e+00  5.1452499399627584e-04 -1.1636211554899092e-05 0.0000000000000000e+00  5.7447127913035805e-04 -1.3475742271551723e-05 0.0000000000000000e+00  0.0000000000000000e+00 0.0000000000000000e+00 0.0000000000000000e+00  1.8320154251082296e-05 -3.1921736809546252e-07 0.0000000000000000e+00  3.7263999356264136e-05 -6.5087795601180961e-07 0.0000000000000000e+00  5.7468040197391544e-05 -1.0079153372896151e-06 0.0000000000000000e+00  7.9591883528397231e-05 -1.4042289392592911e-06 0.0000000000000000e+00  1.0432660614691875e-04 -1.8551778039818246e-06 0.0000000000000000e+00  1.3239855489250967e-04 -2.3780643298054104e-06 0.0000000000000000e+00  1.6456584369015884e-04 -2.9925565860433950e-06 0.0000000000000000e+00  2.0160366801303358e-04 -3.7209306854460624e-06 0.0000000000000000e+00  2.4427300460796606e-04 -4.5878909093973810e-06 0.0000000000000000e+00  2.9326521982115213e-04 -5.6195090750791545e-06 0.0000000000000000e+00  3.4911245064838374e-04 -6.8404747242961187e-06 0.0000000000000000e+00  4.1205025450161852e-04 -8.2683442151422525e-06 0.0000000000000000e+00  4.8181550376927290e-04 -9.9028728353872841e-06 0.0000000000000000e+00  5.5736286407875142e-04 -1.1707865843888825e-05 0.0000000000000000e+00  6.3650397866687775e-04 -1.3581224313429745e-05 0.0000000000000000e+00  7.1556329236291763e-04 -1.5298335114409416e-05 0.0000000000000000e+00  0.0000000000000000e+00 0.0000000000000000e+00 0.0000000000000000e+00  2.0593465822813744e-05 -3.5448537161691250e-07 0.0000000000000000e+00  4.1913258014036904e-05 -7.2285932128901593e-07 0.0000000000000000e+00  6.4703841880226360e-05 -1.1195877054370779e-06 0.0000000000000000e+00  8.9743813771208050e-05 -1.5602932345514226e-06 0.0000000000000000e+00  1.1786016285696187e-04 -2.0623779197443632e-06 0.0000000000000000e+00  1.4993821179349102e-04 -2.6456793748200387e-06 0.0000000000000000e+00  1.8692416507210457e-04 -3.3331277467975819e-06 0.0000000000000000e+00  2.2981555746922391e-04 -4.1512970168990591e-06 0.0000000000000000e+00  2.7963261402369927e-04 -5.1305939419395590e-06 0.0000000000000000e+00  3.3736060808155146e-04 -6.3045358236066861e-06 0.0000000000000000e+00  4.0385005250909492e-04 -7.7070394510617048e-06 0.0000000000000000e+00  4.7965907735143354e-04 -9.3657706370660468e-06 0.0000000000000000e+00  5.6482343455597334e-04 -1.1288356219834928e-05 0.0000000000000000e+00  6.5855032758831741e-04 -1.3436953164765117e-05 0.0000000000000000e+00  7.5886378879036042e-04 -1.5686784370237539e-05 0.0000000000000000e+00  8.6229495001679580e-04 -1.7771776831663683e-05 0.0000000000000000e+00  0.0000000000000000e+00 0.0000000000000000e+00 0.0000000000000000e+00  2.2141455966186808e-05 -3.7588498706779709e-07 0.0000000000000000e+00  4.5094565292004544e-05 -7.6654021001471789e-07 0.0000000000000000e+00  6.9695394618291768e-05 -1.1873798061130866e-06 0.0000000000000000e+00  9.6827568516384780e-05 -1.6551333771962907e-06 0.0000000000000000e+00  1.2744443587023194e-04 -2.1885977071740898e-06 0.0000000000000000e+00  1.6258826337583700e-04 -2.8094998530842969e-06 0.0000000000000000e+00  2.0340359684917978e-04 -3.5434962902650175e-06 0.0000000000000000e+00  2.5113990826845735e-04 -4.4212917803735963e-06 0.0000000000000000e+00  3.0713564405275481e-04 -5.4797489710118755e-06 0.0000000000000000e+00  3.7277168139744182e-04 -6.7625877190931383e-06 0.0000000000000000e+00  4.4937728187354793e-04 -8.3196741169665932e-06 0.0000000000000000e+00  5.3806726481908141e-04 -1.0202688311708094e-05 0.0000000000000000e+00  6.3948872418816919e-04 -1.2452747996162473e-05 0.0000000000000000e+00  7.5346550148956888e-04 -1.5072082534573904e-05 0.0000000000000000e+00  8.7855664644435048e-04 -1.7967734577145594e-05 0.0000000000000000e+00  1.0115921047778446e-03 -2.0853565097553612e-05 0.0000000000000000e+00  0.0000000000000000e+00 0.0000000000000000e+00 0.0000000000000000e+00  2.2879069750253918e-05 -3.8253907088904218e-07 0.0000000000000000e+00  4.6631356952938651e-05 -7.8009603239154147e-07 0.0000000000000000e+00  7.2161251838819427e-05 -1.2083617806844026e-06 0.0000000000000000e+00  1.0043558891122807e-04 -1.6844278685241484e-06 0.0000000000000000e+00  1.3251534931321723e-04 -2.2276321669053699e-06 0.0000000000000000e+00  1.6958703013364521e-04 -2.8606055980928864e-06 0.0000000000000000e+00  2.1299179304075868e-04 -3.6106322172973400e-06 0.0000000000000000e+00  2.6424833648591321e-04 -4.5114687187272559e-06 0.0000000000000000e+00  3.2506185645104954e-04 -5.6057834578156574e-06 0.0000000000000000e+00  3.9730590248695830e-04 -6.9482936291987162e-06 0.0000000000000000e+00  4.8295603825529893e-04 -8.6093012565870152e-06 0.0000000000000000e+00  5.8394458690595643e-04 -1.0677180161518086e-05 0.0000000000000000e+00  7.0189747747944340e-04 -1.3255465118551507e-05 0.0000000000000000e+00  8.3771496609893060e-04 -1.6443863460017633e-05 0.0000000000000000e+00  9.9098034116129976e-04 -2.0280882655593311e-05 0.0000000000000000e+00  1.1592336141780764e-03 -2.4609664214544901e-05 0.0000000000000000e+00  0.0000000000000000e+00 0.0000000000000000e+00 0.0000000000000000e+00  2.2745104434670465e-05 -3.7420536554833243e-07 0.0000000000000000e+00  4.6394208085944109e-05 -7.6300831318523543e-07 0.0000000000000000e+00  7.1888945016657308e-05 -1.1816545967149912e-06 0.0000000000000000e+00  1.0024806152825235e-04 -1.6467596276152549e-06 0.0000000000000000e+00  1.3260936087338446e-04 -2.1771665109860738e-06 0.0000000000000000e+00  1.7027522759030183e-04 -2.7950663306401580e-06 0.0000000000000000e+00  2.1476175910689347e-04 -3.5275767864711191e-06 0.0000000000000000e+00  2.6784972399040524e-04 -4.4091090248719319e-06 0.0000000000000000e+00  3.3163201255700876e-04 -5.4850710789774266e-06 0.0000000000000000e+00  4.0854566498511289e-04 -6.8177722928538397e-06 0.0000000000000000e+00  5.0136519213429375e-04 -8.4957250416280058e-06 0.0000000000000000e+00  6.1311607050998319e-04 -1.0647471463748851e-05 0.0000000000000000e+00  7.4684356462150674e-04 -1.3459220300139512e-05 0.0000000000000000e+00  9.0515060520419575e-04 -1.7188337186524181e-05 0.0000000000000000e+00  1.0894241679761127e-03 -2.2144600454279570e-05 0.0000000000000000e+00  1.2987472007002460e-03 -2.8569273277361691e-05 0.0000000000000000e+00  0.0000000000000000e+00 0.0000000000000000e+00 0.0000000000000000e+00  2.1709196433733952e-05 -3.5130985138105633e-07 0.0000000000000000e+00  4.4315624990471992e-05 -7.1614852624378727e-07 0.0000000000000000e+00  6.8759259634757633e-05 -1.1086070584621793e-06 0.0000000000000000e+00  9.6069284021260332e-05 -1.5439750430870034e-06 0.0000000000000000e+00  1.2741547013205912e-04 -2.0394929467641166e-06 0.0000000000000000e+00  1.6416795688688646e-04 -2.6153527939623511e-06 0.0000000000000000e+00  2.0796834575631122e-04 -3.2961708038722436e-06 0.0000000000000000e+00  2.6081441190180683e-04 -4.1133632777042613e-06 0.0000000000000000e+00  3.2515853987860610e-04 -5.1092710611880569e-06 0.0000000000000000e+00  4.0401427438446064e-04 -6.3446817946421579e-06 0.0000000000000000e+00  5.0105245944241606e-04 -7.9128830965388338e-06 0.0000000000000000e+00  6.2064229331882542e-04 -9.9658382073296395e-06 0.0000000000000000e+00  7.6774587986162682e-04 -1.2761122067111878e-05 0.0000000000000000e+00  9.4750660308309071e-04 -1.6738082310323977e-05 0.0000000000000000e+00  1.1643135321051214e-03 -2.2612432813314088e-05 0.0000000000000000e+00  1.4201957241763332e-03 -3.1391196208494661e-05 0.0000000000000000e+00  0.0000000000000000e+00 0.0000000000000000e+00 0.0000000000000000e+00  1.9778537150979847e-05 -3.1492652204583344e-07 0.0000000000000000e+00  4.0404585424861265e-05 -6.4174571596547352e-07 0.0000000000000000e+00  6.2770950978064088e-05 -9.9277506754299039e-07 0.0000000000000000e+00  8.7866423016653487e-05 -1.3812350723361024e-06 0.0000000000000000e+00  1.1683376815429026e-04 -1.8217766146875599e-06 0.0000000000000000e+00  1.5104101943000441e-04 -2.3311421897485337e-06 0.0000000000000000e+00  1.9217251892274728e-04 -2.9291082418436281e-06 0.0000000000000000e+00  2.4234774888057486e-04 -3.6400389345513895e-06 0.0000000000000000e+00  3.0427720243115944e-04 -4.4958128848305022e-06 0.0000000000000000e+00  3.8146354691239739e-04 -5.5418997385695339e-06 0.0000000000000000e+00  4.7844834264129627e-04 -6.8507428160487872e-06 0.0000000000000000e+00  6.0107851741715795e-04 -8.5520903043144248e-06 0.0000000000000000e+00  7.5670008378701640e-04 -1.0902047001736801e-05 0.0000000000000000e+00  9.5404321163384284e-04 -1.4436779996187546e-05 0.0000000000000000e+00  1.2023211050779061e-03 -2.0292302970097406e-05 0.0000000000000000e+00  1.5088533873263957e-03 -3.0765507253519612e-05 0.0000000000000000e+00  0.0000000000000000e+00 0.0000000000000000e+00 0.0000000000000000e+00  1.7003213810618939e-05 -2.6669561129993282e-07 0.0000000000000000e+00  3.4758478238223140e-05 -5.4321416142997834e-07 0.0000000000000000e+00  5.4062031184258882e-05 -8.3964297315583988e-07 0.0000000000000000e+00  7.5804905044679128e-05 -1.1666154847861046e-06 0.0000000000000000e+00  1.0103253084275778e-04 -1.5355462631670378e-06 0.0000000000000000e+00  1.3102131321235242e-04 -1.9588096178797113e-06 0.0000000000000000e+00  1.6738197977626463e-04 -2.4498294262805585e-06 0.0000000000000000e+00  2.1220396573126503e-04 -3.0230665354672231e-06 0.0000000000000000e+00  2.6826168910592629e-04 -3.6940107220634329e-06 0.0000000000000000e+00  3.3931233452200594e-04 -4.4797535280410928e-06 0.0000000000000000e+00  4.3052342101454878e-04 -5.4023135296566515e-06 0.0000000000000000e+00  5.4906673456351968e-04 -6.5020500738821641e-06 0.0000000000000000e+00  7.0486918292515506e-04 -7.8849252466042911e-06 0.0000000000000000e+00  9.1132609216497211e-04 -9.8788726304974798e-06 0.0000000000000000e+00  1.1852524304658805e-03 -1.3529419033621656e-05 0.0000000000000000e+00  1.5443417654126379e-03 -2.2065586760205330e-05 0.0000000000000000e+00  0.0000000000000000e+00 0.0000000000000000e+00 0.0000000000000000e+00  1.3478928563920825e-05 -2.0868916503666762e-07 0.0000000000000000e+00  2.7569704144256110e-05 -4.2485686175545619e-07 0.0000000000000000e+00  4.2922879933477746e-05 -6.5610181114026088e-07 0.0000000000000000e+00  6.0272846810321153e-05 -9.1024483420056818e-07 0.0000000000000000e+00  8.0492249179649571e-05 -1.1952999022088486e-06 0.0000000000000000e+00  1.0466435405758840e-04 -1.5192062938510613e-06 0.0000000000000000e+00  1.3418499481063800e-04 -1.8890867507364450e-06 0.0000000000000000e+00  1.7091264560242174e-04 -2.3095770191770185e-06 0.0000000000000000e+00  2.1739731596734428e-04 -2.7793444069009497e-06 0.0000000000000000e+00  2.7724013911545212e-04 -3.2840888915874577e-06 0.0000000000000000e+00  3.5567194147697733e-04 -3.7827908087955322e-06 0.0000000000000000e+00  4.6049793137955804e-04 -4.1814911104596592e-06 0.0000000000000000e+00  6.0363173527310768e-04 -4.2871505116082526e-06 0.0000000000000000e+00  8.0344467238512311e-04 -3.7495090872911780e-06 0.0000000000000000e+00  1.0875525359430921e-03 -2.1451037993592905e-06 0.0000000000000000e+00  1.4916647795627297e-03 -3.9687145063922876e-07 0.0000000000000000e+00  0.0000000000000000e+00 0.0000000000000000e+00 0.0000000000000000e+00  9.3459496870261251e-06 -1.4325170185189493e-07 0.0000000000000000e+00  1.9124327663343376e-05 -2.9150799760892731e-07 0.0000000000000000e+00  2.9796390747279071e-05 -4.4979938932283631e-07 0.0000000000000000e+00  4.1886270625395911e-05 -6.2317221110072504e-07 0.0000000000000000e+00  5.6022734857942299e-05 -8.1652104319152541e-07 0.0000000000000000e+00  7.2996125372876120e-05 -1.0341119808991941e-06 0.0000000000000000e+00  9.3841073393767922e-05 -1.2784672611156048e-06 0.0000000000000000e+00  1.1996297547903376e-04 -1.5479243504732475e-06 0.0000000000000000e+00  1.5334038777589770e-04 -1.8313954252119045e-06 0.0000000000000000e+00  1.9686367102758162e-04 -2.0970514964199742e-06 0.0000000000000000e+00  2.5492876313030745e-04 -2.2672899943258572e-06 0.0000000000000000e+00  3.3453281682597889e-04 -2.1608386202055317e-06 0.0000000000000000e+00  4.4741362888557016e-04 -1.3486423204348770e-06 0.0000000000000000e+00  6.1450364749990577e-04 1.2487591883557337e-06 0.0000000000000000e+00  8.7596750037231288e-04 8.6910167973500628e-06 0.0000000000000000e+00  1.3170318763620842e-03 3.1536846571821933e-05 0.0000000000000000e+00  0.0000000000000000e+00 0.0000000000000000e+00 0.0000000000000000e+00  4.7835622970135070e-06 -7.2854885985022574e-08 0.0000000000000000e+00  9.7910081040738017e-06 -1.4820855622208596e-07 0.0000000000000000e+00  1.5261608060479411e-05 -2.2855209639715352e-07 0.0000000000000000e+00  2.1468329118732906e-05 -3.1633374192233343e-07 0.0000000000000000e+00  2.8740519041946951e-05 -4.1381752279836301e-07 0.0000000000000000e+00  3.7495286101094014e-05 -5.2272795179432024e-07 0.0000000000000000e+00  4.8283907107065743e-05 -6.4344660049302231e-07 0.0000000000000000e+00  6.1864375233394990e-05 -7.7326451448939583e-07 0.0000000000000000e+00  7.9320808867328822e-05 -9.0261641533849203e-07 0.0000000000000000e+00  1.0227075935560933e-04 -1.0069346068385127e-06 0.0000000000000000e+00  1.3324713517826267e-04 -1.0289044822899857e-06 0.0000000000000000e+00  1.7645149453548913e-04 -8.3985354472340419e-07 0.0000000000000000e+00  2.3936004931083280e-04 -1.5828243924307174e-07 0.0000000000000000e+00  3.3644608244755644e-04 1.6011997720809190e-06 0.0000000000000000e+00  4.9845085989407164e-04 5.4620386850934659e-06 0.0000000000000000e+00  7.9507266379335196e-04 1.1889974876058661e-05 0.0000000000000000e+00  0.0000000000000000e+00 0.0000000000000000e+00 0.0000000000000000e+00  0.0000000000000000e+00 0.0000000000000000e+00 0.0000000000000000e+00  0.0000000000000000e+00 0.0000000000000000e+00 0.0000000000000000e+00  0.0000000000000000e+00 0.0000000000000000e+00 0.0000000000000000e+00  0.0000000000000000e+00 0.0000000000000000e+00 0.0000000000000000e+00  0.0000000000000000e+00 0.0000000000000000e+00 0.0000000000000000e+00  0.0000000000000000e+00 0.0000000000000000e+00 0.0000000000000000e+00  0.0000000000000000e+00 0.0000000000000000e+00 0.0000000000000000e+00  0.0000000000000000e+00 0.0000000000000000e+00 0.0000000000