<?xml version="1.0"?>
<VTKFile type="UnstructuredGrid"  version="0.1"  >
<UnstructuredGrid>
<Piece  NumberOfPoints="289" NumberOfCells="512">
<Points>
<DataArray  type="Float64"  NumberOfComponents="3"  format="ascii">0 0 0  0.0625 0 0  0.125 0 0  0.1875 0 0  0.25 0 0  0.3125 0 0  0.375 0 0  0.4375 0 0  0.5 0 0  0.5625 0 0  0.625 0 0  0.6875 0 0  0.75 0 0  0.8125 0 0  0.875 0 0  0.9375 0 0  1 0 0  0 0.0625 0  0.06255713987299458 0.06249698749956107 0  0.1251162237193426 0.06249389239964444 0  0.1876792445813408 0.06249063234206921 0  0.2502482841445515 0.06248712582708082 0  0.3128255573815741 0.06248329272341209 0  0.3754134597799284 0.06247905442754043 0  0.438014624676529 0.06247433248722343 0  0.5006320106627976 0.06246904276717481 0  0.5632690699279554 0.06246307827023973 0  0.6259301280694172 0.06245626401691368 0  0.6886213234222761 0.062448241103794 0  0.7513530914180847 0.06243815742743252 0  0.8141471934476875 0.06242377422498964 0  0.8770581361171489 0.06239861118856269 0  0.9402438422087321 0.06234188389555856 0  1.004220699749049 0.06218017411198829 0  0 0.125 0  0.06261236939798248 0.1249940569924313 0  0.1252285908594158 0.124987948184894 0  0.1878526160012386 0.1249815081346904 0  0.2504885774056477 0.1249745729507972 0  0.3131408783898372 0.1249669816166646 0  0.3758142844006935 0.1249585773494247 0  0.4385140248044586 0.1249492075446524 0  0.5012459284553218 0.1249387186488567 0  0.5640166494789998 0.1249269379057042 0  0.6268341124063644 0.1249136255256261 0  0.6897084596338862 0.1248983663343185 0  0.752654080396216 0.1248803532788038 0  0.8156937082884296 0.124858046430599 0  0.8788651629324344 0.124829084916818 0  0.9422236731908844 0.124793272280568 0  1.005782074045213 0.1247743685707513 0  0 0.1875 0  0.06266377974484626 0.1874912917560924 0  0.125333237542816 0.1874823336691571 0  0.1880142029288445 0.1874728760533046 0  0.2507127833779175 0.1874626709414338 0  0.3134354995040915 0.1874514745166167 0  0.3761894160367739 0.1874390510002083 0  0.4389822709225433 0.1874251774046475 0  0.5018226116840508 0.187409646956359 0  0.5647199614782302 0.1873922660690434 0  0.6276850578553765 0.1873728350926742 0  0.6907302215626494 0.1873510974849347 0  0.7538698476643063 0.1873266407972193 0  0.8171205892977028 0.1872987502372021 0  0.8804991767011503 0.1872662497554729 0  0.9440111341578021 0.1872270849434792 0  1.007616332854676 0.1871738888937694 0  0 0.25 0  0.06270954650555167 0.2499887758620166 0  0.1254264661275387 0.249977217111458 0  0.1881583374612522 0.2499649884059121 0  0.2509131213479602 0.2499517549385975 0  0.3136993448277526 0.2499371857050158 0  0.3765262733232489 0.2499209604163642 0  0.4394040635652463 0.249902781135711 0  0.5023438856846347 0.2498823892593609 0  0.5653579940675658 0.249859587505473 0  0.6284597030673078 0.2498342650619349 0  0.6916631567983018 0.2498064225050591 0  0.7549825983272327 0.249776192982968 0  0.8184303824570612 0.2497438577940504 0  0.8820119965275005 0.2497098443896349 0  0.9457149191917827 0.2496746235113557 0  1.009488353167383 0.2496384377816183 0  0 0.3125 0  0.06274797738642494 0.3124865940791397 0  0.1255048394923424 0.3124727689082384 0  0.1882797332938295 0.3124581024372666 0  0.2510823026241955 0.3124421694599163 0  0.3139229287019895 0.3124245444428436 0  0.3768129549382636 0.312404810320425 0  0.4397648808027864 0.3123825763191311 0  0.5027924972025547 0.312357508791332 0  0.5659109132158444 0.3123293801367274 0  0.629136380803477 0.3122981420741084 0  0.6924857401771336 0.3122640305340227 0  0.75597515141311 0.3122277094798665 0  0.8196175205091182 0.3121904580183908 0  0.8834177486951231 0.3121543978532025 0  0.9473651437018089 0.3121227702282475 0  1.011424649091986 0.312100472474171 0  0 0.375 0  0.06277756347038103 0.3749848310378379 0  0.1255652825256907 0.3749691604259249 0  0.1883736343991947 0.374952479988671 0  0.251213718854049 0.3749342710450581 0  0.3140975663286698 0.3749140043936438 0  0.3770384346692162 0.3748911478859417 0  0.4400510774818335 0.3748651864327192 0  0.5031519513400634 0.3748356616292086 0  0.5663593022242636 0.374802241456584 0  0.6296930265614159 0.3747648346264833 0  0.6931741297672895 0.3747237682325044 0  0.7568235001536814 0.3746800486963868 0  0.8206596025217853 0.3746357178285281 0  0.8846946935388827 0.374594284840841 0  0.9489295995232445 0.3745611373641985 0  1.013348515035231 0.3745436419292023 0  0 0.4375 0  0.06279703549618773 0.4374835691409259 0  0.1256051947274982 0.4374665602964509 0  0.1884359830919786 0.437448383326735 0  0.2513016614164692 0.4374284258998637 0  0.3142156324024578 0.437406047322855 0  0.3771928306723329 0.4373805800434001 0  0.4402501053287903 0.4373513446800861 0  0.5034065694724341 0.4373176880821506 0  0.5666838674921484 0.4372790594596175 0  0.6301062737884174 0.4372351474288811 0  0.693700481498248 0.4371861104046035 0  0.7574948668325452 0.4371329410727194 0  0.8215179409834474 0.4370780036057469 0  0.8857956861792246 0.4370257497366637 0  0.9503476359360719 0.4369835245834809 0  1.015181999597049 0.4369621980038044 0  0 0.5 0  0.06280542541989924 0.4999828847428839 0  0.1256225754448458 0.4999651270154855 0  0.1884636126278596 0.4999460648411397 0  0.2513415853238078 0.4999249982767042 0  0.3142708979860199 0.4999011734912873 0  0.3772678104891494 0.499873772371231 0  0.4403509687106805 0.4998419131714674 0  0.5035419597681593 0.499804672199271 0  0.5668658711307458 0.4997611439802703 0  0.6303518111120988 0.4997105692804129 0  0.6940333158612175 0.4996525781226987 0  0.7579485188204294 0.4995876180954433 0  0.8221398782693122 0.4995176594882599 0  0.8866531150819064 0.4994472622543571 0  0.951534755726728 0.4993849913507299 0  1.016827284869735 0.4993448647795414 0  0 0.5625 0  0.06280213126460481 0.5624828423573268 0  0.1256161583304432 0.5624649971621558 0  0.1884544608626335 0.5624457490268771 0  0.2513304166471151 0.5624243262578341 0  0.3142589513808261 0.5623998722533936 0  0.3772571503407362 0.5623714177692658 0  0.4403449532352848 0.5623378573927217 0  0.5035459539721963 0.5622979378202854 0  0.566888328243436 0.5622502735533048 0  0.6304059155151909 0.5621934203719863 0  0.6941394901355552 0.562126063180473 0  0.7581382632144313 0.5620474189227479 0  0.8224616215937953 0.5619580212484927 0  0.8871808876476782 0.561861125251605 0  0.9523801353644417 0.5617649567088516 0  1.018153412916419 0.5616856561474214 0  0 0.625 0  0.06278698037852845 0.6249834870926075 0  0.1255855452098634 0.6249662695000924 0  0.1884077901498715 0.6249476067273183 0  0.251266883603118 0.62492668394692 0  0.3141776780535246 0.6249025696217004 0  0.3771574182340112 0.6248741672159601 0  0.440226589168997 0.6248401601915761 0  0.5034099590801454 0.6247989519295969 0  0.5667378929602039 0.6247486080637582 0  0.6302480518205488 0.6246868219463593 0  0.6939876691060495 0.6246109528625089 0  0.758016736580426 0.6245182476313197 0  0.8224126354752938 0.6244064786203292 0  0.8872768182579807 0.6242754499378346 0  0.9527432309989111 0.6241300994405459 0  1.018984231423597 0.623985795117238 0  0 0.6875 0  0.06276028339246223 0.6874848360934572 0  0.1255313231895916 0.6874689865008203 0  0.1883243872672026 0.6874517238585577 0  0.251151832458342 0.6874322326794594 0  0.3140277442197156 0.6874095550197896 0  0.3769687032534936 0.6873825226217636 0  0.4399947422718579 0.6873496691981279 0  0.5031305793816626 0.6873091154473223 0  0.5664072545589158 0.6872584194967972 0  0.6298643713056933 0.687194389942555 0  0.6935533042623327 0.6871128760469606 0  0.757542086419145 0.6870086026308303 0  0.8219234501130338 0.6868752640386436 0  0.8868288485836998 0.6867064689533743 0  0.9524522670192065 0.6864989538806939 0  1.019082155613901 0.6862602999825528 0  0 0.75 0  0.0627228691712151 0.7499868703561914 0  0.1254551441979415 0.7499731161895277 0  0.1882067084964485 0.7499580693600733 0  0.2509884744041113 0.7499409682356745 0  0.3138130038304447 0.7499208967143953 0  0.3766952736192657 0.7498967033688866 0  0.4396536627163689 0.7498668889504759 0  0.5027112698273025 0.7498294449887671 0  0.5658977222833259 0.7497816180455124 0  0.6292517312305812 0.7497195631047251 0  0.6928248502776915 0.7496378379784687 0  0.756687408950967 0.7495286918553469 0  0.820939040825015 0.7493811723707884 0  0.8857302607345215 0.7491804472016699 0  0.9513108278746591 0.7489093123370121 0  1.018126678900904 0.7485599297211771 0  0 0.8125 0  0.06267609063054297 0.8124895287064763 0  0.1253597448123605 0.8124785382528406 0  0.1880589316697631 0.8124664692376738 0  0.2507825024495838 0.8124526751300697 0  0.3135407349230273 0.8124363630743187 0  0.3763460210909064 0.8124165120978052 0  0.4392137786609908 0.8123917537295777 0  0.5021637017624239 0.8123601910156779 0  0.5652215198418822 0.8123191163787601 0  0.6284215169367539 0.8122645619795406 0  0.6918102124920026 0.8121905699718082 0  0.7554519774287588 0.8120879913837723 0  0.8194386993863163 0.8119425012500667 0  0.8839113417462416 0.811731423310679 0  0.9491260418677607 0.811419591401437 0  1.015691723472641 0.8109612508411485 0  0 0.875 0  0.06262179299294496 0.8749927057862195 0  0.1252488874156467 0.874985038607032 0  0.187886881158559 0.8749765943958768 0  0.2505420215182816 0.8749669012675558 0  0.3132216136751644 0.8749553721094282 0  0.3759345472311333 0.8749412372183876 0  0.438692010536112 0.8749234428136052 0  0.5015084950310237 0.8749004916265782 0  0.5644032382474282 0.8748701841895247 0  0.6274023086880193 0.8748291868040577 0  0.6905415643872069 0.8747722898046455 0  0.7538706145166673 0.874691095149681 0  0.8174575357546172 0.8745716097014052 0  0.8813944973107779 0.8743896712845509 0  0.9458204604307762 0.87410246994855 0  1.01116041278807 0.8736390769460177 0  0 0.9375 0  0.06256224005908691 0.9374962554482318 0  0.1251272119316379 0.9374923157351398 0  0.1876978044926449 0.9374879686916321 0  0.2502772522996531 0.9374829648998685 0  0.3128693561993168 0.9374769911911495 0  0.3754787722751327 0.9374696323387118 0  0.4381114116043073 0.9374603122168534
[...]
<PointData  Vectors="f_54"> 
<DataArray  type="Float64"  Name="f_54"  NumberOfComponents="3" format="ascii">0.0000000000000000e+00 0.0000000000000000e+00 0.0000000000000000e+00  0.0000000000000000e+00 0.0000000000000000e+00 0.0000000000000000e+00  0.0000000000000000e+00 0.0000000000000000e+00 0.0000000000000000e+00  0.0000000000000000e+00 0.0000000000000000e+00 0.0000000000000000e+00  0.0000000000000000e+00 0.0000000000000000e+00 0.0000000000000000e+00  0.0000000000000000e+00 0.0000000000000000e+00 0.0000000000000000e+00  0.0000000000000000e+00 0.0000000000000000e+00 0.0000000000000000e+00  0.0000000000000000e+00 0.0000000000000000e+00 0.0000000000000000e+00  0.0000000000000000e+00 0.0000000000000000e+00 0.0000000000000000e+00  0.0000000000000000e+00 0.0000000000000000e+00 0.0000000000000000e+00  0.0000000000000000e+00 0.0000000000000000e+00 0.0000000000000000e+00  0.0000000000000000e+00 0.0000000000000000e+00 0.0000000000000000e+00  0.0000000000000000e+00 0.0000000000000000e+00 0.0000000000000000e+00  0.0000000000000000e+00 0.0000000000000000e+00 0.0000000000000000e+00  0.0000000000000000e+00 0.0000000000000000e+00 0.0000000000000000e+00  0.0000000000000000e+00 0.0000000000000000e+00 0.0000000000000000e+00  0.0000000000000000e+00 0.0000000000000000e+00 0.0000000000000000e+00  0.0000000000000000e+00 0.0000000000000000e+00 0.0000000000000000e+00  -2.3773652792606348e-06 3.5573286478581856e-08 0.0000000000000000e+00  -4.8192859108109109e-06 7.3736091411764558e-08 0.0000000000000000e+00  -7.3896593029372899e-06 1.1729518369640458e-07 0.0000000000000000e+00  -1.0150146914137041e-05 1.6949010476633043e-07 0.0000000000000000e+00  -1.3158094008040471e-05 2.3422392759761183e-07 0.0000000000000000e+00  -1.6463193131044050e-05 3.1630109760299619e-07 0.0000000000000000e+00  -2.0102329619903199e-05 4.2165828467528759e-07 0.0000000000000000e+00  -2.4091895131897065e-05 5.5756171204726919e-07 0.0000000000000000e+00  -2.8416568101958651e-05 7.3274128269690284e-07 0.0000000000000000e+00  -3.3012902869136742e-05 9.5747775381750794e-07 0.0000000000000000e+00  -3.7744337767352143e-05 1.2438897177156500e-06 0.0000000000000000e+00  -4.2359281029882124e-05 1.6075568815487885e-06 0.0000000000000000e+00  -4.6408895894168578e-05 2.0749305816280255e-06 0.0000000000000000e+00  -4.9052518599551212e-05 2.7137557851507090e-06 0.0000000000000000e+00  -4.8507347965885504e-05 3.7564596157007170e-06 0.0000000000000000e+00  -4.0205847822869810e-05 6.1352257981916809e-06 0.0000000000000000e+00  0.0000000000000000e+00 0.0000000000000000e+00 0.0000000000000000e+00  -4.6943444329271059e-06 6.8622334987150075e-08 0.0000000000000000e+00  -9.5192603857403740e-06 1.4222852849787642e-07 0.0000000000000000e+00  -1.4604390483358661e-05 2.2623305670453895e-07 0.0000000000000000e+00  -2.0075759121224140e-05 3.2691404139068315e-07 0.0000000000000000e+00  -2.6052094918756591e-05 4.5188399884899927e-07 0.0000000000000000e+00  -3.2638705197486060e-05 6.1058759551955754e-07 0.0000000000000000e+00  -3.9917811852150587e-05 8.1480040678267518e-07 0.0000000000000000e+00  -4.7934012908488398e-05 1.0790662257845433e-06 0.0000000000000000e+00  -5.6673167738644254e-05 1.4209631866887605e-06 0.0000000000000000e+00  -6.6032343488155095e-05 1.8610423077492641e-06 0.0000000000000000e+00  -7.5777031370175774e-05 2.4222576162079162e-06 0.0000000000000000e+00  -8.5478506507065061e-05 3.1286682251673856e-06 0.0000000000000000e+00  -9.4416714025637605e-05 4.0025458718928052e-06 0.0000000000000000e+00  -1.0142019027532265e-04 5.0537595053883135e-06 0.0000000000000000e+00  -1.0460673657991961e-04 6.2226943307420679e-06 0.0000000000000000e+00  -1.0111882595846394e-04 7.0553383295523549e-06 0.0000000000000000e+00  0.0000000000000000e+00 0.0000000000000000e+00 0.0000000000000000e+00  -6.8846351873541961e-06 9.6752218174649632e-08 0.0000000000000000e+00  -1.3967857014650154e-05 2.0047760286668233e-07 0.0000000000000000e+00  -2.1447769614952774e-05 3.1877794913992838e-07 0.0000000000000000e+00  -2.9519082962569696e-05 4.6052925830993027e-07 0.0000000000000000e+00  -3.8368772278005620e-05 6.3660082616994530e-07 0.0000000000000000e+00  -4.8168245594310470e-05 8.6064762029164595e-07 0.0000000000000000e+00  -5.9060442262725452e-05 1.1499510325582185e-06 0.0000000000000000e+00  -7.1139982561241175e-05 1.5262201009948889e-06 0.0000000000000000e+00  -8.4424190226671590e-05 2.0161597082040513e-06 0.0000000000000000e+00  -9.8812584257817367e-05 2.6514441586435329e-06 0.0000000000000000e+00  -1.1403240144814978e-04 3.4674722937393293e-06 0.0000000000000000e+00  -1.2956821577159925e-04 4.4998545310011564e-06 0.0000000000000000e+00  -1.4457621262258256e-04 5.7768440560444930e-06 0.0000000000000000e+00  -1.5779407334869940e-04 7.3049628257654786e-06 0.0000000000000000e+00  -1.6749696481054851e-04 9.0483184026717029e-06 0.0000000000000000e+00  -1.7167929655359851e-04 1.0950087958073744e-05 0.0000000000000000e+00  0.0000000000000000e+00 0.0000000000000000e+00 0.0000000000000000e+00  -8.8800006315029995e-06 1.1797610360425255e-07 0.0000000000000000e+00  -1.8028368546470449e-05 2.4431319450995099e-07 0.0000000000000000e+00  -2.7714433583592657e-05 3.8816560458240233e-07 0.0000000000000000e+00  -3.8206613128491540e-05 5.6031846391288247e-07 0.0000000000000000e+00  -4.9768754001700799e-05 7.7415174341308717e-07 0.0000000000000000e+00  -6.2652170940133395e-05 1.0467619855359774e-06 0.0000000000000000e+00  -7.7081334088019269e-05 1.4002466656306837e-06 0.0000000000000000e+00  -9.3230731771644948e-05 1.8630804153287468e-06 0.0000000000000000e+00  -1.1119011110024420e-04 2.4713651153202860e-06 0.0000000000000000e+00  -1.3091536664980050e-04 3.2694689813594069e-06 0.0000000000000000e+00  -1.5216336726029807e-04 4.3091174965123701e-06 0.0000000000000000e+00  -1.7441207594631199e-04 5.6452910798867168e-06 0.0000000000000000e+00  -1.9677462419321679e-04 7.3263126873523314e-06 0.0000000000000000e+00  -2.1793192605678809e-04 9.3745595113005487e-06 0.0000000000000000e+00  -2.3614008704746448e-04 1.1754264601803490e-05 0.0000000000000000e+00  -2.4941712469786189e-04 1.4322285216350123e-05 0.0000000000000000e+00  0.0000000000000000e+00 0.0000000000000000e+00 0.0000000000000000e+00  -1.0610559133692940e-05 1.3091055378648716e-07 0.0000000000000000e+00  -2.1559718964303397e-05 2.7080286143784892e-07 0.0000000000000000e+00  -3.3189684386341981e-05 4.2955775319388959e-07 0.0000000000000000e+00  -4.5846968789904203e-05 6.1893607520235428e-07 0.0000000000000000e+00  -5.9881119783193840e-05 8.5375442184440029e-07 0.0000000000000000e+00  -7.5638690434536620e-05 1.1533426266056831e-06 0.0000000000000000e+00  -9.3449952055858608e-05 1.5433593537520686e-06 0.0000000000000000e+00  -1.1360513099983683e-04 2.0579848925638057e-06 0.0000000000000000e+00  -1.3631628801313007e-04 2.7423667590158603e-06 0.0000000000000000e+00  -1.6166074025420808e-04 3.6548851039287587e-06 0.0000000000000000e+00  -1.8950294353217920e-04 4.8682116969304127e-06 0.0000000000000000e+00  -2.1939541217417123e-04 6.4671134419570009e-06 0.0000000000000000e+00  -2.5046773609411739e-04 8.5394139485050994e-06 0.0000000000000000e+00  -2.8132864681901156e-04 1.1154678377903887e-05 0.0000000000000000e+00  -3.1003000220870992e-04 1.4323877979840233e-05 0.0000000000000000e+00  -3.3416412928505604e-04 1.7934061628330661e-05 0.0000000000000000e+00  0.0000000000000000e+00 0.0000000000000000e+00 0.0000000000000000e+00  -1.2006146915816703e-05 1.3493906745188527e-07 0.0000000000000000e+00  -2.4418971413912697e-05 2.7860462419897583e-07 0.0000000000000000e+00  -3.7652663973742915e-05 4.4063742360732911e-07 0.0000000000000000e+00  -5.2133902739235798e-05 6.3262910897458151e-07 0.0000000000000000e+00  -6.8304930673162805e-05 8.6942453921644176e-07 0.0000000000000000e+00  -8.6621996977932024e-05 1.1708519616562369e-06 0.0000000000000000e+00  -1.0754629920378435e-04 1.5640718129912712e-06 0.0000000000000000e+00  -1.3152336537242018e-04 2.0867428270736600e-06 0.0000000000000000e+00  -1.5894538540109213e-04 2.7911421005320147e-06 0.0000000000000000e+00  -1.9008968144542445e-04 3.7491386986296345e-06 0.0000000000000000e+00  -2.2502614181969346e-04 5.0573128587325858e-06 0.0000000000000000e+00  -2.6348870884673585e-04 6.8402215010279421e-06 0.0000000000000000e+00  -3.0471360982094252e-04 9.2474516054241853e-06 0.0000000000000000e+00  -3.4726303732228036e-04 1.2436511597315881e-05 0.0000000000000000e+00  -3.8887788250330365e-04 1.6529681792108766e-05 0.0000000000000000e+00  -4.2642773030933899e-04 2.1532403624331017e-05 0.0000000000000000e+00  0.0000000000000000e+00 0.0000000000000000e+00 0.0000000000000000e+00  -1.2998957603470097e-05 1.3031858371099230e-07 0.0000000000000000e+00  -2.6466528447424061e-05 2.6821198805636089e-07 0.0000000000000000e+00  -4.0883901177676327e-05 4.2206306444551980e-07 0.0000000000000000e+00  -5.6755717555902976e-05 6.0202254826826546e-07 0.0000000000000000e+00  -7.4619566216333258e-05 8.2128361807439718e-07 0.0000000000000000e+00  -9.5051817292468967e-05 1.0979094612731108e-06 0.0000000000000000e+00  -1.1866687478200744e-04 1.4575429554111465e-06 0.0000000000000000e+00  -1.4610512357785178e-04 1.9374534677031076e-06 0.0000000000000000e+00  -1.7800227053502038e-04 2.5925023507833877e-06 0.0000000000000000e+00  -2.1492947200018393e-04 3.5036375722582939e-06 0.0000000000000000e+00  -2.5729020633489977e-04 4.7892085769050729e-06 0.0000000000000000e+00  -3.0515811993591795e-04 6.6181841135142437e-06 0.0000000000000000e+00  -3.5804400625274188e-04 9.2212762685447100e-06 0.0000000000000000e+00  -4.1459606166822395e-04 1.2889671180063150e-05 0.0000000000000000e+00  -4.7227165610202288e-04 1.7940766336761062e-05 0.0000000000000000e+00  -5.2706685826159816e-04 2.4618619964951409e-05 0.0000000000000000e+00  0.0000000000000000e+00 0.0000000000000000e+00 0.0000000000000000e+00  -1.3527525758562051e-05 1.1819762496622933e-07 0.0000000000000000e+00  -2.7574218735808079e-05 2.4202187798312724e-07 0.0000000000000000e+00  -4.2677679488150646e-05 3.7766109875694853e-07 0.0000000000000000e+00  -5.9411998911886243e-05 5.3258008903378028e-07 0.0000000000000000e+00  -7.8405529809955258e-05 7.1654291109348719e-07 0.0000000000000000e+00  -1.0035713258216991e-04 9.4322659220556667e-07 0.0000000000000000e+00  -1.2604852844674564e-04 1.2328691745934608e-06 0.0000000000000000e+00  -1.5634809732794602e-04 1.6166743182701422e-06 0.0000000000000000e+00  -1.9219763386679571e-04 2.1441153092074844e-06 0.0000000000000000e+00  -2.3456760964098001e-04 2.8948348364075782e-06 0.0000000000000000e+00  -2.8435809026065075e-04 3.9973509122925540e-06 0.0000000000000000e+00  -3.4221276334133377e-04 5.6566234883494119e-06 0.0000000000000000e+00  -4.0820748879954013e-04 8.1900342721259302e-06 0.0000000000000000e+00  -4.8138464504575695e-04 1.2062945785622956e-05 0.0000000000000000e+00  -5.5915099135905410e-04 1.7895317067460266e-05 0.0000000000000000e+00  -6.3665530706341774e-04 2.6376694198237207e-05 0.0000000000000000e+00  0.0000000000000000e+00 0.0000000000000000e+00 0.0000000000000000e+00  -1.3541927186069197e-05 1.0051525420498109e-07 0.0000000000000000e+00  -2.7636079869146684e-05 2.0415211213095399e-07 0.0000000000000000e+00  -4.2859121685845486e-05 3.1421550492425118e-07 0.0000000000000000e+00  -5.9837930255171271e-05 4.3448823799490397e-07 0.0000000000000000e+00  -7.9276837426153776e-05 5.6973889823154312e-07 0.0000000000000000e+00  -1.0198679679438974e-04 7.2669811514400662e-07 0.0000000000000000e+00  -1.2891563713623389e-04 9.1596161879999308e-07 0.0000000000000000e+00  -1.6117626882313215e-04 1.1556856691818156e-06 0.0000000000000000e+00  -2.0006518522380719e-04 1.4786792659177238e-06 0.0000000000000000e+00  -2.4705515819642220e-04 1.9457723045503380e-06 0.0000000000000000e+00  -3.0373137603036132e-04 2.6703498747306446e-06 0.0000000000000000e+00  -3.7161754254712390e-04 3.8615503361427291e-06 0.0000000000000000e+00  -4.5181008957056470e-04 5.8952490420710895e-06 0.0000000000000000e+00  -5.4432140691889415e-04 9.4168089735934876e-06 0.0000000000000000e+00  -6.4707480588054023e-04 1.5453147367381616e-05 0.0000000000000000e+00  -7.5467704447856052e-04 2.5442686231291262e-05 0.0000000000000000e+00  0.0000000000000000e+00 0.0000000000000000e+00 0.0000000000000000e+00  -1.3009813972522182e-05 7.9761969860766849e-08 0.0000000000000000e+00  -2.6581118067125055e-05 1.5995597310745832e-07 0.0000000000000000e+00  -4.1305059909277590e-05 2.4073392545375789e-07 0.0000000000000000e+00  -5.7835332988354431e-05 3.2170994856785360e-07 0.0000000000000000e+00  -7.6924805885357169e-05 4.0172059327598346e-07 0.0000000000000000e+00  -9.9468669337854352e-05 4.7872555148765265e-07 0.0000000000000000e+00  -1.2655596670154928e-04 5.5014352733109233e-07 0.0000000000000000e+00  -1.5953008220284695e-04 6.1432679474366442e-07 0.0000000000000000e+00  -2.0005511916516475e-04 6.7475882420727681e-07 0.0000000000000000e+00  -2.5017627927640388e-04 7.5040842078904909e-07 0.0000000000000000e+00  -3.1234302107262864e-04 8.9941416863124194e-07 0.0000000000000000e+00  -3.8932522293765861e-04 1.2703608610494237e-06 0.0000000000000000e+00  -4.8388497844096650e-04 2.2071065526102860e-06 0.0000000000000000e+00  -5.9797440098157848e-04 4.4459182318146236e-06 0.0000000000000000e+00  -7.3118309322622171e-04 9.4317307873449887e-06 0.0000000000000000e+00  -8.7839656961393733e-04 1.9647988367708908e-05 0.0000000000000000e+00  0.0000000000000000e+00 0.0000000000000000e+00 0.0000000000000000e+00  -1.1922605070892731e-05 5.8609932365530879e-08 0.0000000000000000e+00  -2.4386675823510012e-05 1.1523620454047898e-07 0.0000000000000000e+00  -3.7966650594348816e-05 1.6715498991355619e-07 0.0000000000000000e+00  -5.3307868590179731e-05 2.1006365360629065e-07 0.0000000000000000e+00  -7.1170640641237160e-05 2.3699084605171507e-07 0.0000000000000000e+00  -9.2485833353845044e-05 2.3684420899848028e-07 0.0000000000000000e+00  -1.1842751979331539e-04 1.9251704036678373e-07 0.0000000000000000e+00  -1.5050929515917795e-04 7.8657621959322878e-08 0.0000000000000000e+00  -1.9071078601711847e-04 -1.4022171596091491e-07 0.0000000000000000e+00  -2.4163668197245514e-04 -5.0901285526118691e-07 0.0000000000000000e+00  -3.0669463172093954e-04 -1.0721372457949963e-06 0.0000000000000000e+00  -3.9023273180100441e-04 -1.8372848960551281e-06 0.0000000000000000e+00  -4.9746544065887722e-04 -2.6696794804476532e-06 0.0000000000000000e+00  -6.3378178711096151e-04 -3.0170219727355979e-06 0.0000000000000000e+00  -8.0266184945967836e-04 -1.2683247401277012e-06 0.0000000000000000e+00  -1.0012898923906432e-03 6.4772911062691976e-06 0.0000000000000000e+00  0.0000000000000000e+00 0.0000000000000000e+00 0.0000000000000000e+00  -1.0300866951787121e-05 3.9458366468468988e-08 0.0000000000000000e+00  -2.1090370600807424e-05 7.5247587479713507e-08 0.0000000000000000e+00  -3.2890437841207306e-05 1.0261697831814903e-07 0.0000000000000000e+00  -4.6295651390663295e-05 1.1443652855088743e-07 0.0000000000000000e+00  -6.2020613344733014e-05 9.9380841807186506e-08 0.0000000000000000e+00  -8.0962887712070615e-05 3.9210449052459893e-08 0.0000000000000000e+00  -1.0429086363123539e-04 -9.5428280194993651e-08 0.0000000000000000e+00  -1.3357032159328776e-04 -3.5153689417575562e-07 0.0000000000000000e+00  -1.7094985888488142e-04 -8.0379689257131069e-07 0.0000000000000000e+00  -2.1943291150854828e-04 -1.5693260686546932e-06 0.0000000000000000e+00  -2.8326789814859236e-04 -2.8270314642353159e-06 0.0000000000000000e+00  -3.6846867065136257e-04 -4.8344875129724426e-06 0.0000000000000000e+00  -4.8337260020904510e-04 -7.9083663717219970e-06 0.0000000000000000e+00  -6.3877755879848479e-04 -1.2239522238255561e-05 0.0000000000000000e+00  -8.4618949127067996e-04 -1.7102831489021414e-05 0.0000000000000000e+00  -1.1111005778334045e-03 -1.8212041435946889e-05 0.0000000000000000e+00  0.0000000000000000e+00 0.0000000000000000e+00 0.0000000000000000e+00  -8.1977348408047351e-06 2.3980995689901648e-08 0.0000000000000000e+00  -1.6798081789010125e-05 4.3676476372833814e-08 0.0000000000000000e+00  -2.6233501823011101e-05 5.3605423041280305e-08 0.0000000000000000e+00  -3.7002334768437698e-05 4.5611007199389057e-08 0.0000000000000000e+00  -4.9713364818936375e-05 6.7039508544301900e-09 0.0000000000000000e+00  -6.5147447831928487e-05 -8.4352412701416402e-08 0.0000000000000000e+00  -8.4347883238797554e-05 -2.6270510976174863e-07 0.0000000000000000e+00  -1.0875879692152304e-04 -5.8707514104543494e-07 0.0000000000000000e+00  -1.4044434047849432e-04 -1.1566097067589510e-06 0.0000000000000000e+00  -1.8244545945790059e-04 -2.1408146564239109e-06 0.0000000000000000e+00  -2.3937185955973578e-04 -3.8334833051143203e-06 0.0000000000000000e+00  -3.1838868095709726e-04 -6.7502696224929051e-06 0.0000000000000000e+00  -4.3081254346078910e-04 -1.1800698414114743e-05 0.0000000000000000e+00  -5.9437461904055043e-04 -2.0551527615016994e-05 0.0000000000000000e+00  -8.3475285685676373e-04 -3.5335908773155964e-05 0.0000000000000000e+00  -1.1764492583557001e-03 -5.6653259374897321e-05 0.0000000000000000e+00  0.0000000000000000e+00 0.0000000000000000e+00 0.0000000000000000e+00  -5.6992570147058520e-06 1.2789199271844178e-08 0.0000000000000000e+00  -1.1685431445848334e-05 2.1858144482043574e-08 0.0000000000000000e+00  -1.8267978125473242e-05 2.2463620331115985e-08 0.0000000000000000e+00  -2.5806484339918039e-05 7.5485168705945764e-09 0.0000000000000000e+00  -3.4745484267718293e-05 -3.4185366817343909e-08 0.0000000000000000e+00  -4.5663965767855824e-05 -1.2142882815322999e-07 0.0000000000000000e+00  -5.9350524040695785e-05 -2.8569717918632105e-07 0.0000000000000000e+00  -7.6923513411824036e-05 -5.8104841126045955e-07 0.0000000000000000e+00  -1.0003221248238356e-04 -1.1020685691157386e-06 0.0000000000000000e+00  -1.3120927688003311e-04 -2.0183764746176713e-06 0.0000000000000000e+00  -1.7451804014181863e-04 -3.6436372024138986e-06 0.0000000000000000e+00  -2.3680104245423262e-04 -6.5809419261949817e-06 0.0000000000000000e+00  -3.3020848281447435e-04 -1.2051388131792280e-05 0.0000000000000000e+00  -4.7754650502380042e-04 -2.2719095927298945e-05 0.0000000000000000e+00  -7.2398421492533155e-04 -4.5143470245959073e-05 0.0000000000000000e+00  -1.1642871256615582e-03 -9.9491257058515438e-05 0.0000000000000000e+00  0.0000000000000000e+00 0.0000000000000000e+00 0.0000000000000000e+00  -2.9208858324485202e-06 5.3187842468220650e-09 0.0000000000000000e+00  -5.9908784760465470e-06 8.4909370860929362e-09 0.0000000000000000e+00  -9.3711707406971127e-06 6.7820217739609493e-09 0.0000000000000000e+00  -1.3249959305423689e-05 -3.8793622817569080e-09 0.0000000000000000e+00  -1.7861473709735274e-05 -3.0034017573277151e-08 0.0000000000000000e+00  -2.3513460158175910e-05 -8.2573738284139304e-08 0.0000000000000000e+00  -3.0629720657839272e-05 -1.8004412823751331e-07 0.0000000000000000e+00  -3.9819810011197134e-05 -3.5467765041645825e-07 0.0000000000000000e+00  -5.1999524753190263e-05 -6.6381886514856644e-07 0.0000000000000000e+00  -6.8611347011217447e-05 -1.2123639314794378e-06 0.0000000000000000e+00  -9.2054391528876103e-05 -2.1984865640136692e-06 0.0000000000000000e+00  -1.2658717439436589e-04 -4.0100128303594459e-06 0.0000000000000000e+00  -1.8038865559656797e-04 -7.4316874418998776e-06 0.0000000000000000e+00  -2.7069214435068256e-04 -1.4079806019519068e-05 0.0000000000000000e+00  -4.3740265402362409e-04 -2.7140275411205524e-05 0.0000000000000000e+00  -7.7613912923059044e-04 -5.1077611909709845e-05 0.0000000000000000e+00  0.0000000000000000e+00 0.0000000000000000e+00 0.0000000000000000e+00  0.0000000000000000e+00 0.0000000000000000e+00 0.0000000000000000e+00  0.0000000000000000e+00 0.0000000000000000e+00 0.0000000000000000e+00  0.0000000000000000e+00 0.0000000000000000e+00 0.0000000000000000e+00  0.0000000000000000e+00 0.0000000000000000e+00 0.0000000000000000e+00  0.0000000000000000e+00 0.0000000000000000e+00 0.0000000000000000e+00  0.0000000000000000e+00 0.0000000000000000e+00 0.0000000000000000e+00  0.0000000000000000e+00 0.0000000000000000e+00 0.0000000000000000e+00 