<?xml version="1.0"?>
<VTKFile type="UnstructuredGrid"  version="0.1"  >
<UnstructuredGrid>
<Piece  NumberOfPoints="289" NumberOfCells="512">
<Points>
<DataArray  type="Float64"  NumberOfComponents="3"  format="ascii">0 0 0  0.0625 0 0  0.125 0 0  0.1875 0 0  0.25 0 0  0.3125 0 0  0.375 0 0  0.4375 0 0  0.5 0 0  0.5625 0 0  0.625 0 0  0.6875 0 0  0.75 0 0  0.8125 0 0  0.875 0 0  0.9375 0 0  1 0 0  0 0.0625 0  0.06244922739681746 0.06249382074432164 0  0.1248970550761041 0.06248755002362841 0  0.1873420880016987 0.0624811095900033 0  0.2497829658352094 0.06247445049640309 0  0.3122183968412912 0.06246757189036684 0  0.3746472124550828 0.06246054432679054 0  0.4370684492665747 0.06245353797869725 0  0.4994814632866839 0.06244685448767304 0  0.561886075459919 0.06244095839380683 0  0.6242827309646716 0.06243650026315916 0  0.6866726073607807 0.06243432177517147 0  0.7490574525536862 0.06243544919591589 0  0.8114383584268845 0.06244119181466782 0  0.8738102444629126 0.06245403138983498 0  0.936137519122854 0.06248293059586502 0  0.9982398967038365 0.06257428540639955 0  0 0.125 0  0.0623998727166542 0.124987733903614 0  0.1247969389492605 0.1249752710454787 0  0.1871883983087366 0.1249624393966079 0  0.2495715116231604 0.1249491221796608 0  0.3119436662621146 0.1249352942054121 0  0.3743024859404789 0.1249210680697787 0  0.4366460021961771 0.1249067517769357 0  0.4989729049457829 0.1248929164754972 0  0.5612828869488379 0.1248804673863406 0  0.6235770884328029 0.1248707009994567 0  0.6858586267204783 0.1248653148327888 0  0.7481331456923788 0.1248663071018874 0  0.8104092157673285 0.124875636354725 0  0.8726983573436877 0.1248942349186258 0  0.9350161549582973 0.1249183382934129 0  0.9974049585056248 0.1249202616859951 0  0 0.1875 0  0.06235336040422785 0.1874818453476029 0  0.1247024901383465 0.1874633627575838 0  0.1870431564838219 0.1874442570502538 0  0.2493711910669053 0.1874243072630565 0  0.3116825749774291 0.1874034176418099 0  0.373973593382152 0.1873816851770836 0  0.436241089697456 0.1873594880435097 0  0.498482853595865 0.1873375964365703 0  0.5606981798443696 0.1873173007875044 0  0.6228886340261485 0.1873005392140454 0  0.6850590537374497 0.18728998144211 0  0.7472187975751799 0.1872889813332866 0  0.8093832390447211 0.1873012246219304 0  0.8715755850882502 0.1873297271783809 0  0.9338297767296961 0.1873745752141036 0  0.9961976278341086 0.1874297412217398 0  0 0.25 0  0.06231113297879539 0.2499762867740024 0  0.1246165950608172 0.2499520800939504 0  0.1869106892980401 0.2499269218595722 0  0.2491877474843359 0.249900436019499 0  0.3114422132889731 0.2498723888925791 0  0.3736688179031618 0.2498427738002792 0  0.4358628920677046 0.2498119290932094 0  0.4980208675240609 0.2497806977068381 0  0.5601410283791608 0.2497506321127962 0  0.6222245732712337 0.2497242374745505 0  0.6842770329225895 0.2497052223652373 0  0.746310038839789 0.2496986825321807 0  0.8083433379622561 0.2497110706015538 0  0.8704067950108544 0.2497497095219521 0  0.9325420012916282 0.2498215818966799 0  0.9948030576526784 0.2499315645196086 0  0 0.3125 0  0.0622746446580085 0.3124712241351831 0  0.1245421824546852 0.3124417520767261 0  0.1867954352014108 0.3124109182245774 0  0.2490271657222362 0.3123781313425116 0  0.3112301272824805 0.312342935627062 0  0.3733972225623102 0.3123051035817189 0  0.4355218297923172 0.3122647759630542 0  0.4975983700563597 0.3122226671117174 0  0.5596232050039308 0.3121803555458411 0  0.6215959591326637 0.312140676292995 0  0.6835213375980345 0.3121082163890452 0  0.745411430418387 0.3120898771810526 0  0.8072883243767375 0.3120953924234049 0  0.8691865860104201 0.3121375743022398 0  0.9311549618645394 0.3122319402170403 0  0.9932568246617778 0.3123953739560409 0  0 0.375 0  0.0622453363744147 0.3749668604643343 0  0.124482179421272 0.3749327894545798 0  0.186701894598446 0.374896872463555 0  0.2488956397452823 0.3748582423892802 0  0.3110543407189142 0.3748161291786688 0  0.3731687825236372 0.3747699460435412 0  0.4352298858171354 0.3747194337301409 0  0.4972292664427465 0.3746648930921558 0  0.5591602071833416 0.3746075471953342 0  0.6210191958196422 0.3745500849691668 0  0.6828081782009877 0.3744974417992922 0  0.7445375972062999 0.3744578514344691 0  0.8062300831777154 0.3744441252143003 0  0.8679243011011158 0.3744749295901616 0  0.9296780379428309 0.3745755005193704 0  0.9915694037774881 0.3747767947831893 0  0 0.4375 0  0.06222458749077809 0.4374634311182942 0  0.1244394183735522 0.4374256767527926 0  0.1866345004967119 0.4373855454128522 0  0.2487994236627875 0.4373418450522461 0  0.3109232163762836 0.4372934062402174 0  0.3729943063391319 0.4372391407705945 0  0.4350006618926792 0.4371781610437532 0  0.4969302352722759 0.4371100006090508 0  0.5587718883892946 0.4370349992202188 0  0.6205170522721966 0.4369549478870758 0  0.6821624290519182 0.4368741272038482 0  0.7437140326941353 0.4368008977183434 0  0.8051926734288039 0.4367499622153453 0  0.8666404788483594 0.4367452036212268 0  0.9281271520171215 0.4368224370988392 0  0.9897536758599792 0.4370304137753702 0  0 0.5 0  0.06221364174303766 0.4999611898939327 0  0.1244164883821544 0.4999209450177136 0  0.1865973957365267 0.4998777935073537 0  0.2487445400497735 0.4998301959419322 0  0.3108451118156842 0.4997765263375821 0  0.3728850763845344 0.4997150785384562 0  0.4348490742997956 0.4996441217698502 0  0.4967205950781399 0.4995620486217222 0  0.5584826562043822 0.499467692850662 0  0.62011936505431 0.4993609517239578 0  0.6816189298432446 0.4992439373758599 0  0.7429788581952784 0.4991230026686391 0  0.8042140557571343 0.4990120928476954 0  0.8653679204507632 0.498937789303986 0  0.9265247919411869 0.4989457067125167 0  0.9878193457706512 0.4991059491385246 0  0 0.5625 0  0.06221350843733912 0.5624603855419495 0  0.124415531349086 0.5624191235980264 0  0.1865941130320001 0.5623744938446443 0  0.248736331301021 0.5623246293861683 0  0.3108277952101622 0.5622674430398349 0  0.3728521414913466 0.56220055866562 0  0.4347905776206252 0.5621212615355563 0  0.4966215896508864 0.5620265003104612 0  0.5583210665786386 0.5619130108078458 0  0.6198633333258895 0.5617777065379794 0  0.6812239813550619 0.5616186252196462 0  0.742385947396362 0.5614369821594812 0  0.8033508261298908 0.5612412960802209 0  0.8641571630170144 0.5610549997274391 0  0.9249046853846942 0.5609287065015769 0  0.985775862099858 0.5609554068309859 0  0 0.625 0  0.06222484481429259 0.6249612299617081 0  0.1244379935690481 0.6249206730045713 0  0.1866271697853806 0.6248764346650684 0  0.2487788605370364 0.6248263952938496 0  0.3108776093130491 0.6247680771580314 0  0.3729052091159036 0.6246984878092111 0  0.4348397895067083 0.6246139350611738 0  0.4966548491801296 0.6245098179208954 0  0.5583184246809434 0.6243804225775417 0  0.6197928948663297 0.6242188161844667 0  0.6810365574363957 0.6240170883785935 0  0.7420093020435349 0.6237675646955092 0  0.8026865654013244 0.6234664529001001 0  0.8630875619157438 0.6231230075855 0  0.9233219132962179 0.6227793172280227 0  0.9836444315152267 0.6225436279092227 0  0 0.6875 0  0.06224783154559538 0.6874638616270247 0  0.1244843564275776 0.6874259059286524 0  0.1866976118718226 0.6873841815423096 0  0.2488742017761293 0.6873364500288336 0  0.3109984154972217 0.6872800018400582 0  0.3730511312694856 0.6872114175770477 0  0.4350084143470055 0.6871262458989035 0  0.4968397294770055 0.6870185604101198 0  0.5585057629727228 0.68688034946633 0  0.6199561116366376 0.6867006975755595 0  0.6811278286844923 0.6864647806944238 0  0.7419476345860119 0.6861529750863696 0  0.8023446086240877 0.6857413613671646 0  0.8622874384072488 0.6852079939748345 0  0.9218673691326759 0.6845574116117159 0  0.9814322189558559 0.6838850283108476 0  0 0.75 0  0.06228205970832611 0.7499683100616387 0  0.1245538847706753 0.749934908824858 0  0.1868045679926512 0.7498979397628663 0  0.2490217055825712 0.7498552307590844 0  0.3111904230909467 0.7498040813095311 0  0.3732920828244581 0.7497409715147515 0  0.435302486761287 0.7496611433199317 0  0.4971893134201913 0.7495579758670117 0  0.5589084462558486 0.7494220263785489 0  0.6203988478939528 0.7492395182774371 0  0.6815760045165401 0.7489899039567405 0  0.7423256313802939 0.7486419133001107 0  0.8025049168579862 0.7481474964104963 0  0.8619745962620372 0.7474351507236919 0  0.9207215916269619 0.7464186076108643 0  0.9791382452841831 0.7451182072513797 0  0 0.8125 0  0.06232645260478093 0.812474468677566 0  0.1246444442895885 0.8124474802967773 0  0.1869449032239982 0.8124174416260193 0  0.2492173796914358 0.8123824607347456 0  0.3114491089464583 0.8123401392293393 0  0.3736237061120724 0.8122872796458309 0  0.435719236703372 0.8122194506929706 0  0.4977052382901767 0.8121303156552752 0  0.5595379769016439 0.8120105577460118 0  0.6211527421600709 0.8118460883003155 0  0.6824513152717105 0.8116148860087514 0  0.743282336553776 0.8112809708081284 0  0.8034147830841187 0.81078179304995 0  0.8625221967762204 0.8099995423003766 0  0.9202819536412709 0.8086935591432136 0  0.9771413935265093 0.8063568472107668 0  0 0.875 0  0.06237924699206548 0.8749820831866221 0  0.1247524442479608 0.8749631028113093 0  0.1871130759864003 0.8749418894530041 0  0.2494535655347959 0.8749170401753934 0  0.3117645311161977 0.874886753275529 0  0.374033713921589 0.8748485923917967 0  0.4362443238033475 0.8747991326339704 0  0.498372339800953 0.8747334132405699 0  0.5603818790865611 0.8746440735625459 0  0.622216859843291 0.8745199647481351 0  0.6837852764457222 0.8743438543189871 0  0.7449282839795474 0.8740883471095422 0  0.8053576549770022 0.873707286304711 0  0.8645291081539227 0.8731119983290038 0  0.9214011551396443 0.8720879809676558 0  0.9740955278326533 0.8699562618154956 0  0 0.9375 0  0.06243805309627338 0.9374907606195382 0  0.1248729523036899 0.9374809596566397 0  0.1873012919703422 0.937469977598925 0  0.2497190903682251 0.9374570667786096 0  0.3121213787190667 0.9374412599686821 0  0.3745015982138725 0.9374212394464732 0  0.4368506467430752
[...]
<PointData  Vectors="f_54"> 
<DataArray  type="Float64"  Name="f_54"  NumberOfComponents="3" format="ascii">0.0000000000000000e+00 0.0000000000000000e+00 0.0000000000000000e+00  0.0000000000000000e+00 0.0000000000000000e+00 0.0000000000000000e+00  0.0000000000000000e+00 0.0000000000000000e+00 0.0000000000000000e+00  0.0000000000000000e+00 0.0000000000000000e+00 0.0000000000000000e+00  0.0000000000000000e+00 0.0000000000000000e+00 0.0000000000000000e+00  0.0000000000000000e+00 0.0000000000000000e+00 0.0000000000000000e+00  0.0000000000000000e+00 0.0000000000000000e+00 0.0000000000000000e+00  0.0000000000000000e+00 0.0000000000000000e+00 0.0000000000000000e+00  0.0000000000000000e+00 0.0000000000000000e+00 0.0000000000000000e+00  0.0000000000000000e+00 0.0000000000000000e+00 0.0000000000000000e+00  0.0000000000000000e+00 0.0000000000000000e+00 0.0000000000000000e+00  0.0000000000000000e+00 0.0000000000000000e+00 0.0000000000000000e+00  0.0000000000000000e+00 0.0000000000000000e+00 0.0000000000000000e+00  0.0000000000000000e+00 0.0000000000000000e+00 0.0000000000000000e+00  0.0000000000000000e+00 0.0000000000000000e+00 0.0000000000000000e+00  0.0000000000000000e+00 0.0000000000000000e+00 0.0000000000000000e+00  0.0000000000000000e+00 0.0000000000000000e+00 0.0000000000000000e+00  0.0000000000000000e+00 0.0000000000000000e+00 0.0000000000000000e+00  2.4444899258382770e-06 3.4821500702377195e-08 0.0000000000000000e+00  4.9483694938618527e-06 7.0443896947851823e-08 0.0000000000000000e+00  7.5695172260573371e-06 1.0760515996832240e-07 0.0000000000000000e+00  1.0361540483078599e-05 1.4688571421139944e-07 0.0000000000000000e+00  1.3370530942119643e-05 1.8857628766108340e-07 0.0000000000000000e+00  1.6630426365368414e-05 2.3247254687195669e-07 0.0000000000000000e+00  2.0156447165032106e-05 2.7755630497137192e-07 0.0000000000000000e+00  2.3936009562650113e-05 3.2150625160081744e-07 0.0000000000000000e+00  2.7916355646062254e-05 3.5995134784506360e-07 0.0000000000000000e+00  3.1987645669973085e-05 3.8531698196988096e-07 0.0000000000000000e+00  3.5958698533934414e-05 3.8495542083654031e-07 0.0000000000000000e+00  3.9517728600756254e-05 3.3780092480609451e-07 0.0000000000000000e+00  4.2155311701372841e-05 2.0738182426433298e-07 0.0000000000000000e+00  4.2977734076150654e-05 -7.5780348017227630e-08 0.0000000000000000e+00  4.0170537747716564e-05 -6.6721918672178586e-07 0.0000000000000000e+00  2.9279489978601555e-05 -1.9916834538312806e-06 0.0000000000000000e+00  0.0000000000000000e+00 0.0000000000000000e+00 0.0000000000000000e+00  4.8250969841244544e-06 6.8778109881784228e-08 0.0000000000000000e+00  9.7704971347042468e-06 1.3922131380419076e-07 0.0000000000000000e+00  1.4953875613762646e-05 2.1288871002218660e-07 0.0000000000000000e+00  2.0485260008191245e-05 2.9106858964120975e-07 0.0000000000000000e+00  2.6461054221294344e-05 3.7454525625690041e-07 0.0000000000000000e+00  3.2955354620061701e-05 4.6323150167699017e-07 0.0000000000000000e+00  4.0007541798732525e-05 5.5559373303801987e-07 0.0000000000000000e+00  4.7605070858195521e-05 6.4777016079871452e-07 0.0000000000000000e+00  5.5660296792469764e-05 7.3224349138649241e-07 0.0000000000000000e+00  6.3979899385428442e-05 7.9586561926424567e-07 0.0000000000000000e+00  7.2224533157269451e-05 8.1690973004990485e-07 0.0000000000000000e+00  7.9853572566499444e-05 7.6057695837003569e-07 0.0000000000000000e+00  8.6043104363161074e-05 5.7196090351897607e-07 0.0000000000000000e+00  8.9553130625256029e-05 1.6543547207587482e-07 0.0000000000000000e+00  8.8517301748108508e-05 -5.8521716932647376e-07 0.0000000000000000e+00  8.0262290726425205e-05 -1.8097575811156403e-06 0.0000000000000000e+00  0.0000000000000000e+00 0.0000000000000000e+00 0.0000000000000000e+00  7.0805365468066443e-06 1.0100023895088094e-07 0.0000000000000000e+00  1.4345299393680711e-05 2.0464120912608554e-07 0.0000000000000000e+00  2.1975537702130988e-05 3.1345042738640399e-07 0.0000000000000000e+00  3.0143214698086775e-05 4.2965143115024939e-07 0.0000000000000000e+00  3.9003269497871203e-05 5.5488513677112942e-07 0.0000000000000000e+00  4.8681959276156709e-05 6.8975549985788300e-07 0.0000000000000000e+00  5.9259795941866198e-05 8.3310269998417516e-07 0.0000000000000000e+00  7.0747568613665490e-05 9.8087520245283974e-07 0.0000000000000000e+00  8.3054081307138087e-05 1.1244362179725859e-06 0.0000000000000000e+00  9.5944627356854781e-05 1.2481064875663814e-06 0.0000000000000000e+00  1.0898995231341879e-04 1.3257220803980279e-06 0.0000000000000000e+00  1.2150669853589556e-04 1.3159772807705918e-06 0.0000000000000000e+00  1.3249300137951664e-04 1.1563051358366180e-06 0.0000000000000000e+00  1.4057137651703517e-04 7.5480711708785420e-07 0.0000000000000000e+00  1.4398121333528724e-04 -2.2421520784528179e-08 0.0000000000000000e+00  1.4075720520945756e-04 -1.3879276659450727e-06 0.0000000000000000e+00  0.0000000000000000e+00 0.0000000000000000e+00 0.0000000000000000e+00  9.1465797731790086e-06 1.3050756559120332e-07 0.0000000000000000e+00  1.8544944738587010e-05 2.6475382308375280e-07 0.0000000000000000e+00  2.8444651760460168e-05 4.0640275916579345e-07 0.0000000000000000e+00  3.9086830017414288e-05 5.5888440915628292e-07 0.0000000000000000e+00  5.0696080241077919e-05 7.2514333032493381e-07 0.0000000000000000e+00  6.3467372960483956e-05 9.0719565513800188e-07 0.0000000000000000e+00  7.7545938846807579e-05 1.1053820967245694e-06 0.0000000000000000e+00  9.2998070852022552e-05 1.3171639817747975e-06 0.0000000000000000e+00  1.0977101282101335e-04 1.5352699108745453e-06 0.0000000000000000e+00  1.2764103080021341e-04 1.7449866533024236e-06 0.0000000000000000e+00  1.4615086736520657e-04 1.9204517201985046e-06 0.0000000000000000e+00  1.6454186173367369e-04 2.0200430218436340e-06 0.0000000000000000e+00  1.8169341606660526e-04 1.9815343847284901e-06 0.0000000000000000e+00  1.9609563638873825e-04 1.7188817680447821e-06 0.0000000000000000e+00  2.0590354931745893e-04 1.1251408804980055e-06 0.0000000000000000e+00  2.0915181139350173e-04 9.4402377690399302e-08 0.0000000000000000e+00  0.0000000000000000e+00 0.0000000000000000e+00 0.0000000000000000e+00  1.0955441020131811e-05 1.5619822636751214e-07 0.0000000000000000e+00  2.2233259730083288e-05 3.1731858133605352e-07 0.0000000000000000e+00  3.4155717091228107e-05 4.8829431847786315e-07 0.0000000000000000e+00  4.7040635028389286e-05 6.7400403899833321e-07 0.0000000000000000e+00  6.1194746181544149e-05 8.7912792582399974e-07 0.0000000000000000e+00  7.6901182636860755e-05 1.1078290646857625e-06 0.0000000000000000e+00  9.4398481421096537e-05 1.3631405154606178e-06 0.0000000000000000e+00  1.1384815111668665e-04 1.6458808449315484e-06 0.0000000000000000e+00  1.3528786713428101e-04 1.9528528051810196e-06 0.0000000000000000e+00  1.5856825361386520e-04 2.2740312313300575e-06 0.0000000000000000e+00  1.8327378513599728e-04 2.5884949019873671e-06 0.0000000000000000e+00  2.0863375238063534e-04 2.8591670590668569e-06 0.0000000000000000e+00  2.3343879541255435e-04 3.0272858482210262e-06 0.0000000000000000e+00  2.5599303305350805e-04 3.0093295755306462e-06 0.0000000000000000e+00  2.7414990224453647e-04 2.7022997034222229e-06 0.0000000000000000e+00  2.8549408129878814e-04 2.0080717910504261e-06 0.0000000000000000e+00  0.0000000000000000e+00 0.0000000000000000e+00 0.0000000000000000e+00  1.2436387902987269e-05 1.7688586461927971e-07 0.0000000000000000e+00  2.5266650094266452e-05 3.5987604535795588e-07 0.0000000000000000e+00  3.8888180538964384e-05 5.5521066504126346e-07 0.0000000000000000e+00  5.3701483485470660e-05 7.6934866180766932e-07 0.0000000000000000e+00  7.0107170254954677e-05 1.0090090906383640e-06 0.0000000000000000e+00  8.8496663383258551e-05 1.2810947756405825e-06 0.0000000000000000e+00  1.0923332497049119e-04 1.5923897082638717e-06 0.0000000000000000e+00  1.3261985342972378e-04 1.9488393232605981e-06 0.0000000000000000e+00  1.5884707568627275e-04 2.3540973312324968e-06 0.0000000000000000e+00  1.8791928297486502e-04 2.8068621437849964e-06 0.0000000000000000e+00  2.1955308616987252e-04 3.2963943957022047e-06 0.0000000000000000e+00  2.5305206938407821e-04 3.7956986610725772e-06 0.0000000000000000e+00  2.8717032290965345e-04 4.2525823341834091e-06 0.0000000000000000e+00  3.1999541283952819e-04 4.5807920872254717e-06 0.0000000000000000e+00  3.4890296011345299e-04 4.6569878920143608e-06 0.0000000000000000e+00  3.7065080046584507e-04 4.3327194428385313e-06 0.0000000000000000e+00  0.0000000000000000e+00 0.0000000000000000e+00 0.0000000000000000e+00  1.3517874836408981e-05 1.9138676986473697e-07 0.0000000000000000e+00  2.7498181522276126e-05 3.8993030459236030e-07 0.0000000000000000e+00  4.2412031157670411e-05 6.0306708501596501e-07 0.0000000000000000e+00  5.8744842631105996e-05 8.3878010447930583e-07 0.0000000000000000e+00  7.6999465616002662e-05 1.1058829089816095e-06 0.0000000000000000e+00  9.7693350021806611e-05 1.4142909633882213e-06 0.0000000000000000e+00  1.2134595917185540e-04 1.7752160075477257e-06 0.0000000000000000e+00  1.4845095441028564e-04 2.2011225240101195e-06 0.0000000000000000e+00  1.7942566058000211e-04 2.7050961812152812e-06 0.0000000000000000e+00  2.1452842626127272e-04 3.2989409908650935e-06 0.0000000000000000e+00  2.5373390740655427e-04 3.9888235007693151e-06 0.0000000000000000e+00  2.9655941669237326e-04 4.7667497280031895e-06 0.0000000000000000e+00  3.4184616030975839e-04 5.5961431813664700e-06 0.0000000000000000e+00  3.8752171970253199e-04 6.3916039351902600e-06 0.0000000000000000e+00  4.3040454773821005e-04 6.9984761790658645e-06 0.0000000000000000e+00  4.6614399896886821e-04 7.1874917931406274e-06 0.0000000000000000e+00  0.0000000000000000e+00 0.0000000000000000e+00 0.0000000000000000e+00  1.4131385511995547e-05 1.9864890935772344e-07 0.0000000000000000e+00  2.8785259961610564e-05 4.0522669217944584e-07 0.0000000000000000e+00  4.4499226311552393e-05 6.2807504302012324e-07 0.0000000000000000e+00  6.1839585820614663e-05 8.7639860610887551e-07 0.0000000000000000e+00  8.1413101747098283e-05 1.1608072121200454e-06 0.0000000000000000e+00  1.0387435233568488e-04 1.4939935851746145e-06 0.0000000000000000e+00  1.2992483554098361e-04 1.8915768545457905e-06 0.0000000000000000e+00  1.6029742643779588e-04 2.3730729244047117e-06 0.0000000000000000e+00  1.9571604123270743e-04 2.9627527912717449e-06 0.0000000000000000e+00  2.3681544006178226e-04 3.6896726126412452e-06 0.0000000000000000e+00  2.8400083647390768e-04 4.5851814915767172e-06 0.0000000000000000e+00  3.3722415658114064e-04 5.6745443169891853e-06 0.0000000000000000e+00  3.9565986873326152e-04 6.9572772525630528e-06 0.0000000000000000e+00  4.5728953042962708e-04 8.3704360578626592e-06 0.0000000000000000e+00  5.1846149238073038e-04 9.7358117870845251e-06 0.0000000000000000e+00  5.7356635707174898e-04 1.0711729169704905e-05 0.0000000000000000e+00  0.0000000000000000e+00 0.0000000000000000e+00 0.0000000000000000e+00  1.4216985284832222e-05 1.9790292793715132e-07 0.0000000000000000e+00  2.9001005061674559e-05 4.0408440675651302e-07 0.0000000000000000e+00  4.4941336486002665e-05 6.2732216967721858e-07 0.0000000000000000e+00  6.2672317258251177e-05 8.7747826845869334e-07 0.0000000000000000e+00  8.2895836413870088e-05 1.1662474570228985e-06 0.0000000000000000e+00  1.0640255136879344e-04 1.5082020350947619e-06 0.0000000000000000e+00  1.3408890793585891e-04 1.9223086769813244e-06 0.0000000000000000e+00  1.6696385265894931e-04 2.4341276059514101e-06 0.0000000000000000e+00  2.0613369748775944e-04 3.0788409074914688e-06 0.0000000000000000e+00  2.5274494915067619e-04 3.9048649830367216e-06 0.0000000000000000e+00  3.0785247895819798e-04 4.9765616038393339e-06 0.0000000000000000e+00  3.7216570013564812e-04 6.3715182508596307e-06 0.0000000000000000e+00  4.4561605878322164e-04 8.1619227578651442e-06 0.0000000000000000e+00  5.2670626386413383e-04 1.0361702538976581e-05 0.0000000000000000e+00  6.1168619186155308e-04 1.2821791878612208e-05 0.0000000000000000e+00  6.9379103657091321e-04 1.5096756704291697e-05 0.0000000000000000e+00  0.0000000000000000e+00 0.0000000000000000e+00 0.0000000000000000e+00  1.3730309325769455e-05 1.8880412180599845e-07 0.0000000000000000e+00  2.8048862716431154e-05 3.8571762342449373e-07 0.0000000000000000e+00  4.3573000729405283e-05 5.9935676276590413e-07 0.0000000000000000e+00  6.0981309783586957e-05 8.3946703926556372e-07 0.0000000000000000e+00  8.1047795853681566e-05 1.1177425399098618e-06 0.0000000000000000e+00  1.0467962811079362e-04 1.4490495533457966e-06 0.0000000000000000e+00  1.3295784293930747e-04 1.8533832413141584e-06 0.0000000000000000e+00  1.6717742457723165e-04 2.3591075542413058e-06 0.0000000000000000e+00  2.0887709345913740e-04 3.0083273771739070e-06 0.0000000000000000e+00  2.5983747644423531e-04 3.8654546925816381e-06 0.0000000000000000e+00  3.2200562075389880e-04 5.0294974890073713e-06 0.0000000000000000e+00  3.9727070333604725e-04 6.6473763910360265e-06 0.0000000000000000e+00  4.8697220671060335e-04 8.9151315670253613e-06 0.0000000000000000e+00  5.9099067477627533e-04 1.2029132299662714e-05 0.0000000000000000e+00  7.0633120722748358e-04 1.6012605956297599e-05 0.0000000000000000e+00  8.2540155840084826e-04 2.0349788449626427e-05 0.0000000000000000e+00  0.0000000000000000e+00 0.0000000000000000e+00 0.0000000000000000e+00  1.2650345624753677e-05 1.7152792742530983e-07 0.0000000000000000e+00  2.5879230142964142e-05 3.5046011768683512e-07 0.0000000000000000e+00  4.0299545954283580e-05 5.4462353708654377e-07 0.0000000000000000e+00  5.6598396289020631e-05 7.6279935468819110e-07 0.0000000000000000e+00  7.5581916581469666e-05 1.0154103883204002e-06 0.0000000000000000e+00  9.8229741532890780e-05 1.3155771963520168e-06 0.0000000000000000e+00  1.2576237616026504e-04 1.6809302267151777e-06 0.0000000000000000e+00  1.5972345298860939e-04 2.1369745761507364e-06 0.0000000000000000e+00  2.0207459121262438e-04 2.7236157922396923e-06 0.0000000000000000e+00  2.5528947848458080e-04 3.5079135664758925e-06 0.0000000000000000e+00  3.2240848153968713e-04 4.6082244658826273e-06 0.0000000000000000e+00  4.0696292702853464e-04 6.2360072373943413e-06 0.0000000000000000e+00  5.1258239107015004e-04 8.7540148864771264e-06 0.0000000000000000e+00  6.4195447519057062e-04 1.2708357601124981e-05 0.0000000000000000e+00  7.9470743331968186e-04 1.8666216910672560e-05 0.0000000000000000e+00  9.6419381223693994e-04 2.6621691996885461e-05 0.0000000000000000e+00  0.0000000000000000e+00 0.0000000000000000e+00 0.0000000000000000e+00  1.0986953486937981e-05 1.4678528128813024e-07 0.0000000000000000e+00  2.2505932131986627e-05 2.9981103825486590e-07 0.0000000000000000e+00  3.5125478838697175e-05 4.6558394091099581e-07 0.0000000000000000e+00  4.9494529852136407e-05 6.5120377372681106e-07 0.0000000000000000e+00  6.6394085155096748e-05 8.6471585936437874e-07 0.0000000000000000e+00  8.6804503477319085e-05 1.1155906078655335e-06 0.0000000000000000e+00  1.1199654479467221e-04 1.4155480196041933e-06 0.0000000000000000e+00  1.4365647995117549e-04 1.7803363812088003e-06 0.0000000000000000e+00  1.8405690324034508e-04 2.2341212852339115e-06 0.0000000000000000e+00  2.3628169500320041e-04 2.8207953003371107e-06 0.0000000000000000e+00  3.0449632902609296e-04 3.6327640268713503e-06 0.0000000000000000e+00  3.9420057382552528e-04 4.8806863584396444e-06 0.0000000000000000e+00  5.1226023642426607e-04 7.0471728651183908e-06 0.0000000000000000e+00  6.6619538000237566e-04 1.1161368001769943e-05 0.0000000000000000e+00  8.6160733882500562e-04 1.8965369514680626e-05 0.0000000000000000e+00  1.0967461426691935e-03 3.0677481432261351e-05 0.0000000000000000e+00  0.0000000000000000e+00 0.0000000000000000e+00 0.0000000000000000e+00  8.7866857175369162e-06 1.1574324257230357e-07 0.0000000000000000e+00  1.8019484818775507e-05 2.3625805039888986e-07 0.0000000000000000e+00  2.8178781827658197e-05 3.6640818623287561e-07 0.0000000000000000e+00  3.9821486137681309e-05 5.1123148082050803e-07 0.0000000000000000e+00  5.3632737915605482e-05 6.7586912399129449e-07 0.0000000000000000e+00  7.0496955732407573e-05 8.6522937455095727e-07 0.0000000000000000e+00  9.1600576756874428e-05 1.0831633601700583e-06 0.0000000000000000e+00  1.1858547486537199e-04 1.3308682441418736e-06 0.0000000000000000e+00  1.5378219555727026e-04 1.6044768955313643e-06 0.0000000000000000e+00  2.0056594184606012e-04 1.8934507765340059e-06 0.0000000000000000e+00  2.6389145852789289e-04 2.1882971767819103e-06 0.0000000000000000e+00  3.5105567947345956e-04 2.5304660776109511e-06 0.0000000000000000e+00  4.7263998167858707e-04 3.2151717354673468e-06 0.0000000000000000e+00  6.4317780364769558e-04 5.4932966629180460e-06 0.0000000000000000e+00  8.7960336521307675e-04 1.3854264730425771e-05 0.0000000000000000e+00  1.1881546946987751e-03 4.4077409440542585e-05 0.0000000000000000e+00  0.0000000000000000e+00 0.0000000000000000e+00 0.0000000000000000e+00  6.1353115398469965e-06 7.9869792579902380e-08 0.0000000000000000e+00  1.2593558714118754e-05 1.6291263331723683e-07 0.0000000000000000e+00  1.9724625024853952e-05 2.5227252008572318e-07 0.0000000000000000e+00  2.7939189161687827e-05 3.5097210306425648e-07 0.0000000000000000e+00  3.7751422839634954e-05 4.6154872582694263e-07 0.0000000000000000e+00  4.9840101851795461e-05 5.8511312947939460e-07 0.0000000000000000e+00  6.5141530347445707e-05 7.1913088126973195e-07 0.0000000000000000e+00  8.4997191556890277e-05 8.5239226106737837e-07 0.0000000000000000e+00  1.1139661016492958e-04 9.5382859295828335e-07 0.0000000000000000e+00  1.4738834858480981e-04 9.4812120713840903e-07 0.0000000000000000e+00  1.9779133031310939e-04 6.6445552763003315e-07 0.0000000000000000e+00  2.7044380516107365e-04 -2.6212094780487862e-07 0.0000000000000000e+00  3.7840289615054826e-04 -2.5409486716297260e-06 0.0000000000000000e+00  5.4377055220775636e-04 -7.2862459948820649e-06 0.0000000000000000e+00  8.0414531325359096e-04 -1.5208963153665560e-05 0.0000000000000000e+00  1.2239256826217266e-03 -2.1943284773737336e-05 0.0000000000000000e+00  0.0000000000000000e+00 0.0000000000000000e+00 0.0000000000000000e+00  3.1556459563191474e-06 4.0757920416819415e-08 0.0000000000000000e+00  6.4813455225419680e-06 8.3087530313583176e-08 0.0000000000000000e+00  1.0162122148605772e-05 1.2850724869017338e-07 0.0000000000000000e+00  1.4416994097666004e-05 1.7836985755354128e-07 0.0000000000000000e+00  1.9523489007386155e-05 2.3353003489194824e-07 0.0000000000000000e+00  2.5853715821690843e-05 2.9350734674792394e-07 0.0000000000000000e+00  3.3931123101357508e-05 3.5444004009293738e-07 0.0000000000000000e+00  4.4524566839023191e-05 4.0405573017737135e-07 0.0000000000000000e+00  5.8811334182875447e-05 4.0898130459020908e-07 0.0000000000000000e+00  7.8671177291693878e-05 2.8147130259576057e-07 0.0000000000000000e+00  1.0723363942733702e-04 -2.1164962849451122e-07 0.0000000000000000e+00  1.4990623558490496e-04 -1.7077961508296757e-06 0.0000000000000000e+00  2.1620239052611126e-04 -5.9964305604259278e-06 0.0000000000000000e+00  3.2216144770173930e-04 -1.8092943803804280e-05 0.0000000000000000e+00  4.8876031497307711e-04 -5.0872924367502074e-05 0.0000000000000000e+00  7.1475565576227345e-04 -1.2733498297858140e-04 0.0000000000000000e+00  0.0000000000000000e+00 0.0000000000000000e+00 0.0000000000000000e+00  0.0000000000000000e+00 0.0000000000000000e+00 0.0000000000000000e+00  0.0000000000000000e+00 0.0000000000000000e+00 0.0000000000000000e+00  0.0000000000000000e+00 0.0000000000000000e+00 0.0000000000000000e+00  0.0000000000000000e+00 0.0000000000000000e+00 0.0000000000000000e+00  0.0000000000000000e+00 0.0000000000000000e+00 0.0000000000000000e+00  0.0000000000000000e+00 0.0000000000000000e+00 0.0000000000000000e+00  0.0000000000000000e+00 0.0000000000000000e+00 0.0000000000000000e+00  0.0000000000000000e+00 0.0000000000000000e+00 0.0000000000000000e+00  0.0000000000000000e+00 0.0000000000000000e+00 0.0000000000000000e+00  0.0000000000000000e+00 0.0000000000000000e+00 0.0000000000000000e+00  0.0000000000000000e+00 0.0000000000000000e+00 0.0000000000000000