<?xml version="1.0"?>
<VTKFile type="UnstructuredGrid"  version="0.1"  >
<UnstructuredGrid>
<Piece  NumberOfPoints="289" NumberOfCells="512">
<Points>
<DataArray  type="Float64"  NumberOfComponents="3"  format="ascii">0 0 0  0.0625 0 0  0.125 0 0  0.1875 0 0  0.25 0 0  0.3125 0 0  0.375 0 0  0.4375 0 0  0.5 0 0  0.5625 0 0  0.625 0 0  0.6875 0 0  0.75 0 0  0.8125 0 0  0.875 0 0  0.9375 0 0  1 0 0  0 0.0625 0  0.0624669601737628 0.06249402516015014 0  0.1249329769459361 0.0624879631007868 0  0.1873971046057446 0.0624817393767932 0  0.2498584095236476 0.06247530776186824 0  0.3123159857536528 0.06246866815998237 0  0.3747689825579874 0.06246188856352345 0  0.4372166474880819 0.06245513116522819 0  0.4996583868083401 0.06244868095782125 0  0.5620938393607187 0.06244297208827852 0  0.6245229437199219 0.0624386028038358 0  0.6869459303631211 0.06243632634419587 0  0.7493630132369571 0.06243701636175421 0  0.8117729719774157 0.06244169895786956 0  0.8741673781671808 0.06245225117520327 0  0.9365059802795267 0.06247606039269443 0  0.9986028651686868 0.06255451445908139 0  0 0.125 0  0.06243485361826663 0.1249881381587403 0  0.1248678207855733 0.1249760884977563 0  0.1872970095799832 0.1249636871719057 0  0.2497205496317411 0.1249508237070995 0  0.3121366239456007 0.124937475774737 0  0.3745435280229836 0.1249237529684392 0  0.4369397672230019 0.1249099506692636 0  0.4993242035834096 0.1248966120090186 0  0.5616962613698496 0.1248845900184448 0  0.6240561931154485 0.1248750915041261 0  0.6864053868893735 0.1248696664245205 0  0.7487466412256033 0.124870075980564 0  0.8110842089485745 0.1248779047743863 0  0.8734232768628614 0.1248935219053869 0  0.9357699632705567 0.1249124919721382 0  0.9981507881447156 0.1249074856352549 0  0 0.1875 0  0.06240463835396703 0.1874824401375046 0  0.124806444452744 0.1874645667725731 0  0.1872025726262609 0.1874460983159236 0  0.2495901958222821 0.1874268252261923 0  0.3119665480787407 0.1874066591163563 0  0.3743290113316599 0.1873856972967393 0  0.4366752670343934 0.1873643064997776 0  0.4990035371739665 0.1873432264561689 0  0.5613129430914805 0.1873236872228207 0  0.6236040125349541 0.1873075207724234 0  0.6858793629756392 0.1872972225190195 0  0.74814457894936 0.1872958733290965 0  0.810409289257533 0.1873067472750783 0  0.8726885283413212 0.1873322573026875 0  0.9350051512474374 0.1873715976647107 0  0.997396700152519 0.187417126261769 0  0 0.25 0  0.06237727631516082 0.2499770572737899 0  0.1247507750168751 0.249953641927535 0  0.1871166881588891 0.2499293160545253 0  0.2494712006828773 0.2499037219920245 0  0.3118105307202577 0.2498766408924745 0  0.3741310301049749 0.2498480744101751 0  0.4364293756406544 0.2498183578982298 0  0.4987028899282241 0.2497883123248419 0  0.5609500388702534 0.2497594376183944 0  0.6231711577978328 0.2497341390164179 0  0.6853694522103417 0.2497159549309537 0  0.7475522891985076 0.2497097123757269 0  0.8097327250602848 0.2497214666436107 0  0.871931109060501 0.2497579929140693 0  0.9341765633738516 0.2498255840837531 0  0.9965082542540596 0.2499283991475245 0  0 0.3125 0  0.0623537252968723 0.3124721490986035 0  0.1247027423595523 0.3124436299489083 0  0.1870422830042158 0.3124138047616305 0  0.2493675141460141 0.3123821093602087 0  0.3116735559904718 0.3123481131337432 0  0.3739555719843168 0.3123116097030619 0  0.4362089706612644 0.3122727528550519 0  0.4984297730099883 0.3122322550271353 0  0.5606152130368013 0.3121916668315562 0  0.6227646474707657 0.3121537524990343 0  0.6848808397763636 0.3121229614772075 0  0.7469716313407342 0.3121059605870666 0  0.8090518937829291 0.3121121216019074 0  0.8711454791622671 0.3121537528085114 0  0.9332867842337093 0.3122457632091983 0  0.9955218841465584 0.3124044850298381 0  0 0.375 0  0.06233492008183479 0.3749679115171121 0  0.1246642455072117 0.3749349268199764 0  0.1869822770024779 0.3749001672846798 0  0.2492831544669032 0.3748628025958287 0  0.3115608272660571 0.3748221003830055 0  0.3738090999028242 0.3747775116715001 0  0.4360218013558636 0.3747288129834744 0  0.4981931477278408 0.3746763342433256 0  0.5603183933463746 0.3746213119529105 0  0.6223948880282458 0.3745664170844417 0  0.6844236606364694 0.3745165099839384 0  0.7464115995295069 0.3744796544466564 0  0.8083741576796986 0.3744683494091211 0  0.8703382579193338 0.3745007633125633 0  0.932344800078422 0.3746014430409969 0  0.9944501070632252 0.3748005432136512 0  0 0.4375 0  0.06232173998500114 0.4374645725632338 0  0.124637090089206 0.4374280016416534 0  0.1869394961323236 0.4373891392628485 0  0.2492221084410026 0.4373468398253637 0  0.3114776751289466 0.4372999847315524 0  0.3736985020529079 0.4372475423030444 0  0.4358765322160759 0.4371886879124069 0  0.4980036297384955 0.437123023773583 0  0.5600721992572893 0.4370509597543886 0  0.6220763278014344 0.4369743469100471 0  0.6840136867171525 0.4368974906475809 0  0.7458884332106633 0.4368286934306831 0  0.807715221270679 0.4367824389858866 0  0.8695240572174989 0.4367821257024595 0  0.9313650612971579 0.4368627247178467 0  0.9933114275926038 0.437071790253344 0  0 0.5 0  0.06231496147725132 0.4999623792976536 0  0.1246228931519496 0.499923371054209 0  0.1869165296823141 0.4998815530127934 0  0.2491881441197124 0.4998354402997436 0  0.311429336008281 0.4997834694714154 0  0.3736308602551615 0.4997240086554918 0  0.4357825458757864 0.4996554176731196 0  0.4978733978909904 0.4995762011127955 0  0.5598920491700835 0.4994853302854925 0  0.6218278421541482 0.4993828646162454 0  0.6836729723989586 0.4992710873355209 0  0.7454262752055255 0.4991564823570735 0  0.8070992404116271 0.4990529748823912 0  0.8687243771408719 0.4989867748119788 0  0.9303646613768198 0.4990025019434613 0  0.9921204848480732 0.4991684365092031 0  0 0.5625 0  0.0623151967768942 0.5624615752575418 0  0.1246229560710913 0.562421553068164 0  0.1869155297535602 0.5623782661357812 0  0.2491845278083287 0.5623299070484395 0  0.3114205806936932 0.5622744589477011 0  0.3736129957211543 0.5622096328869125 0  0.4357494383306685 0.5621328268120036 0  0.4978157194200603 0.5620411398102237 0  0.559795869216308 0.5619315124197405 0  0.6216728632809734 0.5618011361787754 0  0.6834306826551012 0.5616484125137218 0  0.7450588538931994 0.5614749852273472 0  0.806561080899034 0.561289752340556 0  0.8679694300646495 0.5611161691634943 0  0.9293632447268989 0.5610039314446423 0  0.990885560799859 0.5610434951562953 0  0 0.625 0  0.06232282233609699 0.6249623695617158 0  0.1246381127141791 0.6249230019628517 0  0.1869379615898423 0.6248800556549566 0  0.2492136510420268 0.6248314708918513 0  0.3114551874884006 0.6247748418105499 0  0.3736507618459562 0.6247072671017824 0  0.4357861294940502 0.6246251764485136 0  0.4978439424405951 0.6245241400969359 0  0.5598031679684321 0.6243986952264898 0  0.6216389647970042 0.6242422872798414 0  0.6833238944284317 0.6240475778295269 0  0.7448323226181127 0.6238077248066959 0  0.8061514435190531 0.6235200153707637 0  0.867303949488705 0.6231947123313247 0  0.9283858349397309 0.6228737945484795 0  0.9896102410638381 0.6226621902002831 0  0 0.6875 0  0.06233790480831009 0.6874649010014775 0  0.1246685681252205 0.6874280308387042 0  0.186984327250965 0.6873874870983347 0  0.249276594692496 0.6873410865366532 0  0.3115352837104237 0.6872861854742848 0  0.373748084803187 0.6872194477080877 0  0.4358995270595399 0.6871365335380276 0  0.4979697615117838 0.6870316767687401 0  0.5599330551682312 0.6868971126795665 0  0.6217561805994815 0.6867223327266863 0  0.6833974646948611 0.6864932165070936 0  0.7448087543003463 0.6861913727645147 0  0.8059459608290307 0.6857949523050697 0  0.8668001866400843 0.6852850265731144 0  0.9274678218868454 0.6846689709913674 0  0.9882645910024146 0.6840411206699738 0  0 0.75 0  0.06236013581448189 0.7499692027320186 0  0.124713751845859 0.7499367337378668 0  0.1870539020242784 0.7499007780306337 0  0.2493726869067364 0.7498592093973867 0  0.3116606272192832 0.749809380284027 0  0.3739058227322387 0.7497478344438666 0  0.4360927651569942 0.7496698941866478 0  0.4982006142450555 0.7495690477542029 0  0.5602006777765196 0.7494360179606926 0  0.6220528201562898 0.7492573188305629 0  0.6837007982957063 0.7490129886819871 0  0.745067868554146 0.748673045947126 0  0.8060587350866056 0.7481923195819303 0  0.8665879345039047 0.747505318379593 0  0.9266874692904705 0.7465355480155126 0  0.9867536213653113 0.7453021862054876 0  0 0.8125 0  0.06238878958472154 0.8124751747741374 0  0.1247722172738664 0.8124489232806424 0  0.1871445390223416 0.8124196840596464 0  0.2494991446580224 0.8123855989571963 0  0.3118279642327776 0.8123443056990044 0  0.3741206325619473 0.812292644452341 0  0.4363632361226017 0.8122262200403975 0  0.498536342175729 0.8121387238860797 0  0.5606117861520902 0.8120208499230841 0  0.6225473094870866 0.8118585009360577 0  0.6842775725896127 0.811629685511134 0  0.7456996541834138 0.8112988073563234 0  0.8066530962225212 0.8108052974641707 0  0.8669095339098206 0.8100391985214098 0  0.9262642075739292 0.8087874162281186 0  0.9852208446111238 0.8066375446617188 0  0 0.875 0  0.06242271784649275 0.8749825716169779 0  0.1248416205251273 0.8749641004810649 0  0.1872526053644162 0.8749434381908837 0  0.2496509122837925 0.8749192029865698 0  0.3120306605911715 0.8748896130777037 0  0.3743841766009353 0.8748522463946224 0  0.4367009432275303 0.8748036757148664 0  0.4989658553909488 0.8747388954066069 0  0.5611561542622699 0.8746503983642455 0  0.6232357353239036 0.8745266566758764 0  0.6851440074917553 0.8743495477771528 0  0.7467730672532965 0.8740897385828293 0  0.8079195569166531 0.8736972988336601 0  0.8681835970439945 0.8730779131627961 0  0.9267731313614744 0.8720158904704661 0  0.982255387318906 0.8698712772180606 0  0 0.9375 0  0.06246039268634522 0.9374910102418058 0  0.1249188050717243 0.9374814693301117 0  0.1873731037695744 0.9374707680925757 0  0.249820803745331 0.9374581687466632 0  0.3122588176118914 0.9374427119928752 0  0.3746830866198024 0.9374230819369732 0  0.437087992
[...]
<PointData  Vectors="f_54"> 
<DataArray  type="Float64"  Name="f_54"  NumberOfComponents="3" format="ascii">0.0000000000000000e+00 0.0000000000000000e+00 0.0000000000000000e+00  0.0000000000000000e+00 0.0000000000000000e+00 0.0000000000000000e+00  0.0000000000000000e+00 0.0000000000000000e+00 0.0000000000000000e+00  0.0000000000000000e+00 0.0000000000000000e+00 0.0000000000000000e+00  0.0000000000000000e+00 0.0000000000000000e+00 0.0000000000000000e+00  0.0000000000000000e+00 0.0000000000000000e+00 0.0000000000000000e+00  0.0000000000000000e+00 0.0000000000000000e+00 0.0000000000000000e+00  0.0000000000000000e+00 0.0000000000000000e+00 0.0000000000000000e+00  0.0000000000000000e+00 0.0000000000000000e+00 0.0000000000000000e+00  0.0000000000000000e+00 0.0000000000000000e+00 0.0000000000000000e+00  0.0000000000000000e+00 0.0000000000000000e+00 0.0000000000000000e+00  0.0000000000000000e+00 0.0000000000000000e+00 0.0000000000000000e+00  0.0000000000000000e+00 0.0000000000000000e+00 0.0000000000000000e+00  0.0000000000000000e+00 0.0000000000000000e+00 0.0000000000000000e+00  0.0000000000000000e+00 0.0000000000000000e+00 0.0000000000000000e+00  0.0000000000000000e+00 0.0000000000000000e+00 0.0000000000000000e+00  0.0000000000000000e+00 0.0000000000000000e+00 0.0000000000000000e+00  0.0000000000000000e+00 0.0000000000000000e+00 0.0000000000000000e+00  3.5773410386818874e-06 2.7586134006962547e-08 0.0000000000000000e+00  7.2519607588729364e-06 5.5540929617169932e-08 0.0000000000000000e+00  1.1120542581395466e-05 8.4139652077387464e-08 0.0000000000000000e+00  1.5276916812632090e-05 1.1343967589636433e-07 0.0000000000000000e+00  1.9809434908368578e-05 1.4311386130770141e-07 0.0000000000000000e+00  2.4796854935485966e-05 1.7220354730749628e-07 0.0000000000000000e+00  3.0302252137863802e-05 1.9874262150462604e-07 0.0000000000000000e+00  3.6364576942562341e-05 2.1917487555834461e-07 0.0000000000000000e+00  4.2987790521916042e-05 2.2742403404583327e-07 0.0000000000000000e+00  5.0128271191205185e-05 2.1332140173198513e-07 0.0000000000000000e+00  5.7683126464341071e-05 1.5966383388708744e-07 0.0000000000000000e+00  6.5487587806889878e-05 3.5816143917928318e-08 0.0000000000000000e+00  7.3347836716649865e-05 -2.1897011255576562e-07 0.0000000000000000e+00  8.1202312260681409e-05 -7.4749761535225302e-07 0.0000000000000000e+00  8.9768174784246821e-05 -1.9613319394474194e-06 0.0000000000000000e+00  1.0309530127504014e-04 -5.2747753879004397e-06 0.0000000000000000e+00  0.0000000000000000e+00 0.0000000000000000e+00 0.0000000000000000e+00  7.0528960187593875e-06 5.4769102241503696e-08 0.0000000000000000e+00  1.4301138286494773e-05 1.1037169083639075e-07 0.0000000000000000e+00  2.1939283195913010e-05 1.6747621568868127e-07 0.0000000000000000e+00  3.0157125377017493e-05 2.2636341593215526e-07 0.0000000000000000e+00  3.9134952456473217e-05 2.8662774133210508e-07 0.0000000000000000e+00  4.9035828430325215e-05 3.4673430938341036e-07 0.0000000000000000e+00  5.9993862430140269e-05 4.0334918423888269e-07 0.0000000000000000e+00  7.2097528621821810e-05 4.5032210140656795e-07 0.0000000000000000e+00  8.5367462424883105e-05 4.7713345356179721e-07 0.0000000000000000e+00  9.9728955507069047e-05 4.6649397952724622e-07 0.0000000000000000e+00  1.1498083330778177e-04 3.9056339609244683e-07 0.0000000000000000e+00  1.3076455436281890e-04 2.0495902028360333e-07 0.0000000000000000e+00  1.4653842532733578e-04 -1.5989594343135497e-07 0.0000000000000000e+00  1.6154836335361512e-04 -8.0410526286804062e-07 0.0000000000000000e+00  1.7467846833586358e-04 -1.8102717091412438e-06 0.0000000000000000e+00  1.8341486492105837e-04 -2.8372065624369995e-06 0.0000000000000000e+00  0.0000000000000000e+00 0.0000000000000000e+00 0.0000000000000000e+00  1.0328046172260361e-05 8.1079824199290129e-08 0.0000000000000000e+00  2.0951037812315514e-05 1.6362996504590188e-07 0.0000000000000000e+00  3.2163741553826283e-05 2.4892313499587429e-07 0.0000000000000000e+00  4.4256149977165620e-05 3.3776055823666745e-07 0.0000000000000000e+00  5.7507646380540370e-05 4.3010154347995291e-07 0.0000000000000000e+00  7.2176755019849235e-05 5.2450849495679806e-07 0.0000000000000000e+00  8.8484775722782642e-05 6.1730755733992374e-07 0.0000000000000000e+00  1.0659158662684077e-04 7.0133009939844058e-07 0.0000000000000000e+00  1.2656212532104506e-04 7.6405530943704730e-07 0.0000000000000000e+00  1.4832265956350052e-04 7.8492247251531365e-07 0.0000000000000000e+00  1.7160689962148750e-04 7.3153760409565092e-07 0.0000000000000000e+00  1.9589257403025931e-04 5.5451005510374501e-07 0.0000000000000000e+00  2.2032649686542935e-04 1.8078751678169545e-07 0.0000000000000000e+00  2.4362239448405234e-04 -4.9498958525642625e-07 0.0000000000000000e+00  2.6387599458978640e-04 -1.6302459108948602e-06 0.0000000000000000e+00  2.7820208505945798e-04 -3.5542068637198952e-06 0.0000000000000000e+00  0.0000000000000000e+00 0.0000000000000000e+00 0.0000000000000000e+00  1.3302750806344102e-05 1.0587774583481424e-07 0.0000000000000000e+00  2.7001380483959844e-05 2.1407054649732209e-07 0.0000000000000000e+00  4.1493372934338979e-05 3.2671316286177728e-07 0.0000000000000000e+00  5.7174207147346421e-05 4.4549514915273083e-07 0.0000000000000000e+00  7.4432003840314143e-05 5.7129389923879070e-07 0.0000000000000000e+00  9.3636463974693920e-05 7.0360872702439458e-07 0.0000000000000000e+00  1.1511965580474645e-04 8.3968881725867822e-07 0.0000000000000000e+00  1.3914593920190651e-04 9.7321642065821523e-07 0.0000000000000000e+00  1.6586827914127572e-04 1.0923800792995561e-06 0.0000000000000000e+00  1.9526862470167151e-04 1.1771755152908721e-06 0.0000000000000000e+00  2.2708110994538634e-04 1.1958536173696257e-06 0.0000000000000000e+00  2.6069848808224223e-04 1.1006768359410371e-06 0.0000000000000000e+00  2.9506371845477774e-04 8.2363299815908782e-07 0.0000000000000000e+00  3.2854882448674815e-04 2.7346701230454613e-07 0.0000000000000000e+00  3.5882443760290985e-04 -6.6355997123247618e-07 0.0000000000000000e+00  3.8274744515724008e-04 -2.1078222782035709e-06 0.0000000000000000e+00  0.0000000000000000e+00 0.0000000000000000e+00 0.0000000000000000e+00  1.5875784223309121e-05 1.2831493012851645e-07 0.0000000000000000e+00  3.2248152688276634e-05 2.5998224256188821e-07 0.0000000000000000e+00  4.9618543443665440e-05 3.9824405934914497e-07 0.0000000000000000e+00  6.8492677066988962e-05 5.4604123194932785e-07 0.0000000000000000e+00  8.9377788244298739e-05 7.0573095376879645e-07 0.0000000000000000e+00  1.1277320449232891e-04 8.7861752085667151e-07 0.0000000000000000e+00  1.3915105559162490e-04 1.0641871754532358e-06 0.0000000000000000e+00  1.6892320913525793e-04 1.2588997304214048e-06 0.0000000000000000e+00  2.0239000103886709e-04 1.4543561477390975e-06 0.0000000000000000e+00  2.3966636499680801e-04 1.6346670260294238e-06 0.0000000000000000e+00  2.8058219091953748e-04 1.7729687231217362e-06 0.0000000000000000e+00  3.2455703218598690e-04 1.8274135238911152e-06 0.0000000000000000e+00  3.7045576736270073e-04 1.7378173720136243e-06 0.0000000000000000e+00  4.1644329589870502e-04 1.4257932516871690e-06 0.0000000000000000e+00  4.5987727421119908e-04 8.0430712927208699e-07 0.0000000000000000e+00  4.9732074911794876e-04 -1.9019059960990484e-07 0.0000000000000000e+00  0.0000000000000000e+00 0.0000000000000000e+00 0.0000000000000000e+00  1.7946327301054359e-05 1.4735152285744959e-07 0.0000000000000000e+00  3.6486449237141616e-05 2.9921543178860969e-07 0.0000000000000000e+00  5.6223886351003281e-05 4.6011065697204469e-07 0.0000000000000000e+00  7.7776701772270580e-05 6.3450607488588077e-07 0.0000000000000000e+00  1.0177987415840468e-04 8.2670082905334815e-07 0.0000000000000000e+00  1.2888072174197421e-04 1.0405603886194569e-06 0.0000000000000000e+00  1.5972347418726239e-04 1.2790052164653428e-06 0.0000000000000000e+00  1.9491777083521477e-04 1.5430914429472426e-06 0.0000000000000000e+00  2.3498445976444352e-04 1.8304477260205446e-06 0.0000000000000000e+00  2.8027108242962694e-04 2.1327637889792820e-06 0.0000000000000000e+00  3.3082986805904152e-04 2.4320439053980340e-06 0.0000000000000000e+00  3.8625469178308106e-04 2.6956326572432495e-06 0.0000000000000000e+00  4.4548284732560001e-04 2.8709335741240674e-06 0.0000000000000000e+00  5.0658554543659741e-04 2.8826561195372646e-06 0.0000000000000000e+00  5.6659932848285722e-04 2.6380559820321004e-06 0.0000000000000000e+00  6.2148595157981751e-04 2.0455105984858012e-06 0.0000000000000000e+00  0.0000000000000000e+00 0.0000000000000000e+00 0.0000000000000000e+00  1.9417250956830682e-05 1.6182602696124790e-07 0.0000000000000000e+00  3.9516851692768834e-05 3.2932809881948509e-07 0.0000000000000000e+00  6.0997318993727950e-05 5.0833705289019416e-07 0.0000000000000000e+00  8.4585928556997844e-05 7.0496187490034425e-07 0.0000000000000000e+00  1.1104904713497450e-04 9.2569717457999427e-07 0.0000000000000000e+00  1.4119626337037716e-04 1.1774661324951910e-06 0.0000000000000000e+00  1.7587403920175015e-04 1.4675215451899745e-06 0.0000000000000000e+00  2.1594247308033928e-04 1.8030489134895870e-06 0.0000000000000000e+00  2.6222601206564742e-04 2.1901750049619488e-06 0.0000000000000000e+00  3.1542594875782223e-04 2.6318637632924344e-06 0.0000000000000000e+00  3.7598043077545945e-04 3.1239080779350984e-06 0.0000000000000000e+00  4.4385901122152730e-04 3.6480934307420745e-06 0.0000000000000000e+00  5.1828788797204667e-04 4.1621899744874115e-06 0.0000000000000000e+00  5.9742449361043382e-04 4.5888713391588743e-06 0.0000000000000000e+00  6.7803813971425747e-04 4.8112223274203782e-06 0.0000000000000000e+00  7.5529496033092242e-04 4.6901837127881495e-06 0.0000000000000000e+00  0.0000000000000000e+00 0.0000000000000000e+00 0.0000000000000000e+00  2.0200274634896720e-05 1.7057481179038268e-07 0.0000000000000000e+00  4.1155798086874014e-05 3.4783995386667322e-07 0.0000000000000000e+00  6.3645637858687383e-05 5.3879568437981004e-07 0.0000000000000000e+00  8.8495079648894453e-05 7.5107384053861911e-07 0.0000000000000000e+00  1.1659663409531588e-04 9.9330731063614517e-07 0.0000000000000000e+00  1.4892706619578524e-04 1.2755543336627046e-06 0.0000000000000000e+00  1.8655646729312127e-04 1.6097636226946583e-06 0.0000000000000000e+00  2.3064244151159042e-04 2.0101904125768542e-06 0.0000000000000000e+00  2.8239804607558373e-04 2.4934882429516121e-06 0.0000000000000000e+00  3.4301605573538974e-04 3.0778018583133126e-06 0.0000000000000000e+00  4.1352507220872135e-04 3.7794398940438012e-06 0.0000000000000000e+00  4.9454766785761147e-04 4.6045924740892980e-06 0.0000000000000000e+00  5.8593382681742341e-04 5.5326621314635180e-06 0.0000000000000000e+00  6.8626651057891860e-04 6.4893850747767486e-06 0.0000000000000000e+00  7.9229268413885873e-04 7.3171091057104168e-06 0.0000000000000000e+00  8.9840918219380363e-04 7.7704891957381344e-06 0.0000000000000000e+00  0.0000000000000000e+00 0.0000000000000000e+00 0.0000000000000000e+00  2.0222939631692502e-05 1.7258552674413616e-07 0.0000000000000000e+00  4.1249926253610877e-05 3.5256403262793204e-07 0.0000000000000000e+00  6.3916943480264105e-05 5.4776897516563240e-07 0.0000000000000000e+00  8.9125268332050140e-05 7.6697338836317400e-07 0.0000000000000000e+00  1.1787518077841025e-04 1.0205056000983702e-06 0.0000000000000000e+00  1.5129972223980735e-04 1.3210642283351032e-06 0.0000000000000000e+00  1.9069595120622173e-04 1.6848296984250395e-06 0.0000000000000000e+00  2.3754776726323277e-04 2.1329566121465374e-06 0.0000000000000000e+00  2.9352848058622006e-04 2.6934070270044716e-06 0.0000000000000000e+00  3.6046165491193460e-04 3.4026461226813974e-06 0.0000000000000000e+00  4.4020437182180959e-04 4.3055403229112898e-06 0.0000000000000000e+00  5.3439896450980704e-04 5.4491698714725486e-06 0.0000000000000000e+00  6.4402473107866526e-04 6.8616844957528590e-06 0.0000000000000000e+00  7.6869182198431943e-04 8.5029356229089377e-06 0.0000000000000000e+00  9.0569898714812651e-04 1.0181270082616544e-05 0.0000000000000000e+00  1.0490692030244828e-03 1.1480869282987422e-05 0.0000000000000000e+00  0.0000000000000000e+00 0.0000000000000000e+00 0.0000000000000000e+00  1.9436993728296537e-05 1.6715934732569508e-07 0.0000000000000000e+00  3.9693673063886391e-05 3.4196345893379085e-07 0.0000000000000000e+00  6.1629081650412318e-05 5.3257146416205310e-07 0.0000000000000000e+00  8.6185592449514458e-05 7.4826719622337001e-07 0.0000000000000000e+00  1.1443585795246596e-04 1.0002362157843192e-06 0.0000000000000000e+00  1.4763561011249860e-04 1.3026673550848243e-06 0.0000000000000000e+00  1.8728271613771715e-04 1.6744141871407169e-06 0.0000000000000000e+00  2.3518008259548211e-04 2.1415827399210926e-06 0.0000000000000000e+00  2.9349394513638710e-04 2.7415504967213038e-06 0.0000000000000000e+00  3.6478700853874229e-04 3.5288748861357052e-06 0.0000000000000000e+00  4.5198366730797823e-04 4.5826550024517017e-06 0.0000000000000000e+00  5.5818763530879193e-04 6.0113549226057178e-06 0.0000000000000000e+00  6.8622113781750696e-04 7.9409533235308534e-06 0.0000000000000000e+00  8.3771150721722329e-04 1.0450526701130660e-05 0.0000000000000000e+00  1.0115980828593080e-03 1.3394068434827323e-05 0.0000000000000000e+00  1.2022315185636317e-03 1.6086707927209480e-05 0.0000000000000000e+00  0.0000000000000000e+00 0.0000000000000000e+00 0.0000000000000000e+00  1.7827355205276610e-05 1.5404954663761265e-07 0.0000000000000000e+00  3.6448496909592311e-05 3.1546203253754580e-07 0.0000000000000000e+00  5.6701784543820390e-05 4.9211012824372814e-07 0.0000000000000000e+00  7.9522342951929335e-05 6.9299443165553573e-07 0.0000000000000000e+00  1.0600039440389649e-04 9.2902835476990082e-07 0.0000000000000000e+00  1.3745232536523290e-04 1.2141811271968879e-06 0.0000000000000000e+00  1.7550941323781437e-04 1.5673045353144922e-06 0.0000000000000000e+00  2.2222850831296462e-04 2.0152760297281038e-06 0.0000000000000000e+00  2.8022555994948218e-04 2.5986802448060083e-06 0.0000000000000000e+00  3.5282267757409880e-04 3.3822503538948111e-06 0.0000000000000000e+00  4.4417435506969856e-04 4.4734889060925127e-06 0.0000000000000000e+00  5.5928411746772886e-04 6.0523475036009840e-06 0.0000000000000000e+00  7.0371867052214582e-04 8.4044538164304536e-06 0.0000000000000000e+00  8.8266284325378504e-04 1.1905172490686272e-05 0.0000000000000000e+00  1.0988240883447427e-03 1.6776887838502417e-05 0.0000000000000000e+00  1.3490521711120216e-03 2.2405109670358064e-05 0.0000000000000000e+00  0.0000000000000000e+00 0.0000000000000000e+00 0.0000000000000000e+00  1.5420369552076509e-05 1.3354292833689070e-07 0.0000000000000000e+00  3.1561063855492493e-05 2.7363064823224105e-07 0.0000000000000000e+00  4.9188359228328538e-05 4.2723514708702287e-07 0.0000000000000000e+00  6.9170169630305343e-05 6.0227017892376054e-07 0.0000000000000000e+00  9.2540781826048731e-05 8.0820256629166895e-07 0.0000000000000000e+00  1.2058471135782870e-04 1.0568984943553537e-06 0.0000000000000000e+00  1.5494992176120199e-04 1.3639568258937830e-06 0.0000000000000000e+00  1.9780398514472391e-04 1.7511300638704908e-06 0.0000000000000000e+00  2.5204996448819581e-04 2.2513290479428162e-06 0.0000000000000000e+00  3.2161857876866518e-04 2.9199338152255811e-06 0.0000000000000000e+00  4.1184012040442023e-04 3.8613071142559792e-06 0.0000000000000000e+00  5.2984961804595782e-04 5.2898232631257776e-06 0.0000000000000000e+00  6.8483732193723261e-04 7.6583043942192982e-06 0.0000000000000000e+00  8.8761786926864290e-04 1.1864251740999259e-05 0.0000000000000000e+00  1.1483428382200011e-03 1.9224836293356964e-05 0.0000000000000000e+00  1.4712937623692333e-03 2.8753593309257089e-05 0.0000000000000000e+00  0.0000000000000000e+00 0.0000000000000000e+00 0.0000000000000000e+00  1.2289706668710801e-05 1.0646086504864642e-07 0.0000000000000000e+00  2.5176835583052776e-05 2.1819034745122153e-07 0.0000000000000000e+00  3.9300951872414399e-05 3.4075268139960835e-07 0.0000000000000000e+00  5.5396144409415601e-05 4.8034419787325180e-07 0.0000000000000000e+00  7.4353988058473782e-05 6.4410638980911403e-07 0.0000000000000000e+00  9.7309146998009291e-05 8.4040963805932709e-07 0.0000000000000000e+00  1.2576211265061276e-04 1.0790609312181910e-06 0.0000000000000000e+00  1.6176158348367691e-04 1.3714293936906505e-06 0.0000000000000000e+00  2.0818174716717982e-04 1.7308550872294274e-06 0.0000000000000000e+00  2.6914849657892379e-04 2.1754320013806726e-06 0.0000000000000000e+00  3.5069130704655412e-04 2.7418895861098569e-06 0.0000000000000000e+00  4.6170736502695452e-04 3.5424026233908393e-06 0.0000000000000000e+00  6.1525353864121959e-04 4.9710208511773084e-06 0.0000000000000000e+00  8.2979233453642600e-04 8.3949178616481752e-06 0.0000000000000000e+00  1.1284036305948589e-03 1.8349240619473467e-05 0.0000000000000000e+00  1.5251858858344801e-03 4.9557714445648191e-05 0.0000000000000000e+00  0.0000000000000000e+00 0.0000000000000000e+00 0.0000000000000000e+00  8.5581368275368632e-06 7.4079535039397441e-08 0.0000000000000000e+00  1.7545096399717848e-05 1.5182493708514389e-07 0.0000000000000000e+00  2.7422276684929609e-05 2.3706395505582996e-07 0.0000000000000000e+00  3.8724872858168770e-05 3.3394399534004887e-07 0.0000000000000000e+00  5.2112759416114993e-05 4.4696790147774638e-07 0.0000000000000000e+00  6.8442261976940446e-05 5.8075116028754332e-07 0.0000000000000000e+00  8.8873854449587095e-05 7.3908529990391542e-07 0.0000000000000000e+00  1.1504146112447263e-04 9.2233285352222472e-07 0.0000000000000000e+00  1.4932892828746608e-04 1.1209242646649713e-06 0.0000000000000000e+00  1.9533671658827399e-04 1.3000929856684275e-06 0.0000000000000000e+00  2.5869284496104512e-04 1.3663900869551207e-06 0.0000000000000000e+00  3.4849564809088818e-04 1.1033059207208100e-06 0.0000000000000000e+00  4.7992366384026406e-04 8.9092324880971015e-08 0.0000000000000000e+00  6.7901674814452415e-04 -2.1969104075008911e-06 0.0000000000000000e+00  9.9173104520550301e-04 -4.9348772982550412e-06 0.0000000000000000e+00  1.5046757391361358e-03 1.9493553286744547e-06 0.0000000000000000e+00  0.0000000000000000e+00 0.0000000000000000e+00 0.0000000000000000e+00  4.3937457582233305e-06 3.7997821067412434e-08 0.0000000000000000e+00  9.0119987364508400e-06 7.7869987639564536e-08 0.0000000000000000e+00  1.4097146983792524e-05 1.2155420971952023e-07 0.0000000000000000e+00  1.9932338183359641e-05 1.7109643656911864e-07 0.0000000000000000e+00  2.6870237892571617e-05 2.2857980470744743e-07 0.0000000000000000e+00  3.5374599223647682e-05 2.9576865525746869e-07 0.0000000000000000e+00  4.6084562643742918e-05 3.7300474551148087e-07 0.0000000000000000e+00  5.9919614148675471e-05 4.5611789717407901e-07 0.0000000000000000e+00  7.8259270838192691e-05 5.2791611353885532e-07 0.0000000000000000e+00  1.0326483650174329e-04 5.3430011647477225e-07 0.0000000000000000e+00  1.3847954029441332e-04 3.1486090345691244e-07 0.0000000000000000e+00  1.8997878999216965e-04 -6.0657709755265160e-07 0.0000000000000000e+00  2.6854123441631277e-04 -3.6710404481357742e-06 0.0000000000000000e+00  3.9312849073493383e-04 -1.3268539987640576e-05 0.0000000000000000e+00  5.9211555710989396e-04 -4.2016236555578693e-05 0.0000000000000000e+00  8.7787701882802854e-04 -1.1734316707038744e-04 0.0000000000000000e+00  0.0000000000000000e+00 0.0000000000000000e+00 0.0000000000000000e+00  0.0000000000000000e+00 0.0000000000000000e+00 0.0000000000000000e+00  0.0000000000000000e+00 0.0000000000000000e+00 0.0000000000000000e+00  0.0000000000000000e+00 0.0000000000000000e+00 0.0000000000000000e+00  0.0000000000000000e+00 0.0000000000000000e+00 0.0000000000000000e+00  0.0000000000000000e+00 0.0000000000000000e+00 0.0000000000000000e+00  0.0000000000000000e+00 0.0000000000000000e+00 0.0000000000000000e+00  0.0000000000000000e+00 0.0000000000000000e+00 0.0000000000000000e+00  0.0000000000000000e+00 0.0000000000000000e+00 0.0000000000000000e+00  0.0000000000000000e+00 0.0000000000000000e+00 0.0000000000000000e+00  0.0000000000000000e+00 0.0000000000000000e+00 0.0000000000000000e+00  0.0000000000000000e+00 0.0000000000000000e+00 0.0000000000000