<?xml version="1.0"?>
<VTKFile type="UnstructuredGrid"  version="0.1"  >
<UnstructuredGrid>
<Piece  NumberOfPoints="289" NumberOfCells="512">
<Points>
<DataArray  type="Float64"  NumberOfComponents="3"  format="ascii">0 0 0  0.0625 0 0  0.125 0 0  0.1875 0 0  0.25 0 0  0.3125 0 0  0.375 0 0  0.4375 0 0  0.5 0 0  0.5625 0 0  0.625 0 0  0.6875 0 0  0.75 0 0  0.8125 0 0  0.875 0 0  0.9375 0 0  1 0 0  0 0.0625 0  0.06248529324597741 0.06249220099902231 0  0.1249705928171087 0.0624842841235773 0  0.1874559705725133 0.06247614677538931 0  0.2499416523527681 0.06246772057051016 0  0.3124281215753617 0.06245899253995032 0  0.3749162588341105 0.06245003029110976 0  0.4374075378162423 0.06244101020547891 0  0.4999043108849874 0.06243224447691326 0  0.5624102483040159 0.06242419653942087 0  0.6249310725878418 0.06241746262209967 0  0.687475938828159 0.06241267428311915 0  0.7500604119531895 0.06241022914698217 0  0.8127138078735843 0.06240964788024042 0  0.875499418725447 0.06240809609986694 0  0.9385749775443992 0.06239723234288596 0  1.002383261874467 0.0623620199114726 0  0 0.125 0  0.06247054551826899 0.1249845188523785 0  0.1249410350025198 0.1249687854702841 0  0.1874115364151296 0.1249525764534064 0  0.2498824101886259 0.1249357335672348 0  0.3123545078395871 0.1249182054334222 0  0.3748294406690164 0.1249000988129179 0  0.4373099552664077 0.1248817392931393 0  0.4998004703936668 0.1248637360409034 0  0.5623078660132939 0.1248470354918727 0  0.6248426918395626 0.1248329314387989 0  0.6874211251819123 0.1248229703515573 0  0.7500683274122644 0.1248186500514102 0  0.8128243231188216 0.1248207758924487 0  0.8757533790565663 0.1248284163385527 0  0.9389519601622425 0.1248379306947961 0  1.002513825175918 0.1248432526750015 0  0 0.1875 0  0.06245583668449532 0.1874770889152201 0  0.1249114215365678 0.1874537602982971 0  0.1873666685600111 0.1874296353150569 0  0.2498218859156759 0.1874044240038281 0  0.312278047606053 0.1873779851817665 0  0.3747371636692512 0.1873504041691819 0  0.4372027957707719 0.1873220916050797 0  0.4996807786322338 0.1872939017157295 0  0.5621802266406789 0.1872672583360849 0  0.6247149279998246 0.1872442583714079 0  0.6873052402424534 0.1872276909226106 0  0.7499805239817375 0.1872208611391183 0  0.8127816990881397 0.1872270315035574 0  0.8757618105355844 0.1872481352428048 0  0.938977696431305 0.1872818543450562 0  1.002457906840271 0.1873138155855405 0  0 0.25 0  0.06244138229804128 0.2499700773963268 0  0.1248821365167295 0.2499395304148855 0  0.1873218173075194 0.2499077771723862 0  0.2497604198621733 0.2498743360075202 0  0.3121986921867758 0.2498388983438394 0  0.3746385684640712 0.2498014298425365 0  0.4370837780584771 0.2497623095360951 0  0.4995406926943381 0.2497225144403683 0  0.5620194743946129 0.2496838504554827 0  0.6245355610001032 0.2496492151824299 0  0.6871114310662257 0.2496228486953907 0  0.74977832487892 0.2496104764399695 0  0.8125769539518105 0.249619164665361 0  0.8755548848853306 0.2496565856712436 0  0.9387561928645292 0.2497292764841365 0  1.002198111363109 0.2498399091884612 0  0 0.3125 0  0.06242757465344036 0.3124636918706473 0  0.1248539441418637 0.3124265066629408 0  0.1872780715058974 0.3123876049404187 0  0.2496993367228553 0.3123462405688615 0  0.3121178486837528 0.312301836877321 0  0.3745348955524256 0.3122541019682235 0  0.4369535982668564 0.312203201517584 0  0.4993798413728541 0.3121500105458525 0  0.5618235521224934 0.3120964664983987 0  0.6243003594434522 0.3120460400647696 0  0.6868335435206022 0.3120043190674196 0  0.7494559089957037 0.3119796505682277 0  0.8122106944869933 0.3119836893291426 0  0.8751499037020658 0.3120315521389888 0  0.9383281028283192 0.3121411536452637 0  1.001791847312409 0.3123315300554193 0  0 0.375 0  0.06241499735033727 0.3749581854546948 0  0.1248280247648029 0.3749151999502902 0  0.1872372304978991 0.3748698944202172 0  0.2496410761030342 0.3748211823672326 0  0.3120385996152671 0.3747681045382458 0  0.374429826788515 0.3747099406633242 0  0.4368164096528547 0.3746463956525106 0  0.4992025939250934 0.3745778984577581 0  0.5615966332197466 0.3745060648582191 0  0.6240127574123117 0.3744343869981542 0  0.6864737234309274 0.3743692121673302 0  0.7490137647584536 0.3743210373692026 0  0.8116813513064615 0.3743060301394266 0  0.8745406319905915 0.3743474264416065 0  0.9376701824066674 0.3744760074323144 0  1.001158688961054 0.3747282570052662 0  0 0.4375 0  0.06240440810914514 0.4374538519834529 0  0.1248059448270499 0.4374062139395084 0  0.1872017707818846 0.4373555900192156 0  0.249589172891557 0.4373004891464921 0  0.3119657236206835 0.43723945896619 0  0.3743295831151319 0.4371711674628262 0  0.4366800383168934 0.4370945660282499 0  0.4990184191729803 0.4370091873530472 0  0.5613495918104154 0.4369156607745263 0  0.6236842907877521 0.4368165671468743 0  0.6860425821884539 0.4367177979594437 0  0.7484586681650605 0.4366306014227653 0  0.8109869192152868 0.4365744171867047 0  0.8737083140061486 0.4365802705737956 0  0.9367354314827853 0.4366937134198454 0  1.000213359765791 0.4369750419702345 0  0 0.5 0  0.06239668688803599 0.4999510098965056 0  0.124789553640841 0.4999002139401968 0  0.187174694220239 0.4998457618613203 0  0.2495480658881692 0.4997857246810791 0  0.3119054866827498 0.4997180769157303 0  0.3742427444431839 0.4996407154060957 0  0.4365559164529365 0.4995515481568251 0  0.4988420733418044 0.4994487131315237 0  0.5611006615916092 0.4993310325952293 0  0.6233360386389855 0.4991988834582436 0  0.6855618639017254 0.4990557770439039 0  0.7478082457628021 0.4989110835988124 0  0.8101324539441207 0.4987844303978812 0  0.8726330894413198 0.4987120906786157 0  0.9354651730490867 0.4987545896078008 0  0.9988499539477665 0.4990020812747721 0  0 0.5625 0  0.06239274941936306 0.5624499737751573 0  0.1247808055065932 0.5623978688822181 0  0.1871592507809896 0.5623415167758145 0  0.2495227153969231 0.5622785690986584 0  0.3118651617603402 0.5622064102762478 0  0.3741797119896147 0.5621220815471526 0  0.4364585975737377 0.5620222385747317 0  0.4986934051808095 0.561903191742786 0  0.5608759730143171 0.5617611316537512 0  0.6230006177617841 0.5615927460751453 0  0.6850689113369297 0.5613966292800768 0  0.7470989863999862 0.5611762257847405 0  0.809142048570151 0.5609455590516919 0  0.8713083198744265 0.5607394395733032 0  0.9338005090319077 0.5606291233322374 0  0.9969423216988507 0.5607398760205239 0  0 0.625 0  0.0623934308021422 0.6249510146895029 0  0.1247815145090162 0.6248997678776247 0  0.1871585409546316 0.6248438629792438 0  0.2495180223932497 0.624780620399543 0  0.3118522370191978 0.6247069124031566 0  0.3741517055608818 0.6246189717726911 0  0.4364046216960227 0.6245121726402105 0  0.4985963425669748 0.6243807977284271 0  0.5607092457524531 0.6242178464664228 0  0.6227236980659668 0.6240150362458963 0  0.6846217811122657 0.6237633803996163 0  0.7463970932378184 0.6234552567400815 0  0.808076559423154 0.6230900222879664 0  0.8697626332423687 0.6226873212758024 0  0.9317011473998627 0.6223143010302351 0  0.9943589037020152 0.6221274399355207 0  0 0.6875 0  0.0623993501052709 0.6874543135109532 0  0.1247930628524543 0.6874063195032489 0  0.1871750250205106 0.6873535398007501 0  0.2495380728784616 0.6872931293327049 0  0.3118733092859651 0.6872216413586104 0  0.374169215951671 0.6871347239958796 0  0.4364104806541884 0.687026713887705 0  0.498576485893273 0.686890085141708 0  0.5606395303111108 0.6867147101097368 0  0.6225632479151625 0.6864869159786562 0  0.6843027570028747 0.6861884512313688 0  0.7458106883525562 0.6857959406991349 0  0.8070590082719308 0.6852829112052695 0  0.8680970080020691 0.6846309628164461 0  0.9291754295812075 0.6838678747877429 0  0.990939707200972 0.6831593437986333 0  0 0.75 0  0.06241077448362942 0.7499599144943921 0  0.1248161010298715 0.7499176492772098 0  0.187209998524778 0.7498708376809293 0  0.2495852854206295 0.7498167043677214 0  0.3119327445343048 0.7497517885096239 0  0.374239952299079 0.749671563828969 0  0.43648956912988 0.7495698906333194 0  0.4986568030277101 0.749438199102068 0  0.5607056773576981 0.7492642426999765 0  0.622583777551555 0.7490301607202979 0  0.6842157463262279 0.7487094372718712 0  0.7454982714842869 0.7482621978500095 0  0.8063074715788919 0.7476286476105874 0  0.8665531062846827 0.7467241999508663 0  0.9263686232173982 0.7454620205726054 0  0.9865230695334446 0.7439436044567966 0  0 0.8125 0  0.06242750817244584 0.8124676887123199 0  0.1248502954195308 0.8124335165501247 0  0.1872631294377397 0.812395445784956 0  0.2496596105561316 0.8123510478298713 0  0.31203131897294 0.8122972286845921 0  0.3743665554616574 0.812229838537158 0  0.4366483763489326 0.8121430859082793 0  0.4988514142422544 0.8120286241651278 0  0.5609366084603384 0.8118740794282715 0  0.622842363630119 0.8116605913971808 0  0.6844698278656665 0.8113585089577711 0  0.7456596141792121 0.8109193648106277 0  0.8061611807366051 0.8102597236333533 0  0.8656214943896949 0.8092264344152882 0  0.923745600580353 0.8075219340150327 0  0.9814748502642406 0.804593320833347 0  0 0.875 0  0.06244883470331554 0.874977317173814 0  0.124894188451773 0.8749532733462856 0  0.1873321779966091 0.8749263691449081 0  0.2497579931159208 0.8748947972727504 0  0.3121651967846105 0.87485622144098 0  0.3745446548758055 0.8748074559992196 0  0.4368827898497757 0.8747439765510782 0  0.4991585862184946 0.8746591462751265 0  0.5613382235637612 0.8745429614962364 0  0.6233650406122164 0.8743799696099199 0  0.6851400007874421 0.8741457001483843 0  0.7464823849681742 0.8738001398728934 0  0.807049349074924 0.8732740524957331 0  0.8661740939699435 0.8724331158652664 0  0.922569502425545 0.8709598672186548 0  0.9739524271108939 0.8678988012932267 0  0 0.9375 0  0.06247353622757203 0.93748830089947 0  0.1249452289980671 0.9374758824187598 0  0.1874130148375203 0.9374619491842902 0  0.249874320671724 0.9374455360805606 0  0.3123256724500875 0.9374253850245022 0  0.3747620852968236 0.9373997649502572 0  0.4371760436281141 0.937366
[...]
<PointData  Vectors="f_54"> 
<DataArray  type="Float64"  Name="f_54"  NumberOfComponents="3" format="ascii">0.0000000000000000e+00 0.0000000000000000e+00 0.0000000000000000e+00  0.0000000000000000e+00 0.0000000000000000e+00 0.0000000000000000e+00  0.0000000000000000e+00 0.0000000000000000e+00 0.0000000000000000e+00  0.0000000000000000e+00 0.0000000000000000e+00 0.0000000000000000e+00  0.0000000000000000e+00 0.0000000000000000e+00 0.0000000000000000e+00  0.0000000000000000e+00 0.0000000000000000e+00 0.0000000000000000e+00  0.0000000000000000e+00 0.0000000000000000e+00 0.0000000000000000e+00  0.0000000000000000e+00 0.0000000000000000e+00 0.0000000000000000e+00  0.0000000000000000e+00 0.0000000000000000e+00 0.0000000000000000e+00  0.0000000000000000e+00 0.0000000000000000e+00 0.0000000000000000e+00  0.0000000000000000e+00 0.0000000000000000e+00 0.0000000000000000e+00  0.0000000000000000e+00 0.0000000000000000e+00 0.0000000000000000e+00  0.0000000000000000e+00 0.0000000000000000e+00 0.0000000000000000e+00  0.0000000000000000e+00 0.0000000000000000e+00 0.0000000000000000e+00  0.0000000000000000e+00 0.0000000000000000e+00 0.0000000000000000e+00  0.0000000000000000e+00 0.0000000000000000e+00 0.0000000000000000e+00  0.0000000000000000e+00 0.0000000000000000e+00 0.0000000000000000e+00  0.0000000000000000e+00 0.0000000000000000e+00 0.0000000000000000e+00  -3.9250019361240327e-06 -8.8458383208802803e-08 0.0000000000000000e+00  -7.9681605275695431e-06 -1.7727932901995150e-07 0.0000000000000000e+00  -1.2249240246630889e-05 -2.6645572106611813e-07 0.0000000000000000e+00  -1.6889175424339264e-05 -3.5513990153041944e-07 0.0000000000000000e+00  -2.2010089205976618e-05 -4.4107248509559728e-07 0.0000000000000000e+00  -2.7734697725506263e-05 -5.1981577948508184e-07 0.0000000000000000e+00  -3.4185209086673626e-05 -5.8369987207292443e-07 0.0000000000000000e+00  -4.1482419346134945e-05 -6.2034773165132550e-07 0.0000000000000000e+00  -4.9747154586061992e-05 -6.1053236144329797e-07 0.0000000000000000e+00  -5.9109869562168547e-05 -5.2476847366784284e-07 0.0000000000000000e+00  -6.9744136562715267e-05 -3.1687930611664865e-07 0.0000000000000000e+00  -8.1969103438969508e-05 9.1273158576240091e-08 0.0000000000000000e+00  -9.6561120467215982e-05 8.5462564137319169e-07 0.0000000000000000e+00  -1.1575160986988645e-04 2.3584022677282667e-06 0.0000000000000000e+00  -1.4669398285183720e-04 5.8042618929789167e-06 0.0000000000000000e+00  -2.1491148645300895e-04 1.5699652341764418e-05 0.0000000000000000e+00  0.0000000000000000e+00 0.0000000000000000e+00 0.0000000000000000e+00  -7.7289780726485622e-06 -1.7648983238011944e-07 0.0000000000000000e+00  -1.5693444166551060e-05 -3.5409526791428859e-07 0.0000000000000000e+00  -2.4132265076514634e-05 -5.3325124195281073e-07 0.0000000000000000e+00  -3.3287160683287193e-05 -7.1283580655596061e-07 0.0000000000000000e+00  -4.3402912671067081e-05 -8.8910222492194783e-07 0.0000000000000000e+00  -5.4726137175292797e-05 -1.0542386401853071e-06 0.0000000000000000e+00  -6.7502509321647091e-05 -1.1943926964809378e-06 0.0000000000000000e+00  -8.1973019363058448e-05 -1.2869609030908869e-06 0.0000000000000000e+00  -9.8371393961448205e-05 -1.2968750143525991e-06 0.0000000000000000e+00  -1.1692815198434846e-04 -1.1714748330042585e-06 0.0000000000000000e+00  -1.3789365722692486e-04 -8.3327123330979253e-07 0.0000000000000000e+00  -1.6160565391680414e-04 -1.6965221138064656e-07 0.0000000000000000e+00  -1.8864499191711983e-04 9.7922735785589663e-07 0.0000000000000000e+00  -2.2010461433727457e-04 2.8120389383355025e-06 0.0000000000000000e+00  -2.5763042143773016e-04 5.3781098276114498e-06 0.0000000000000000e+00  -3.0026635035267085e-04 7.2500921679242751e-06 0.0000000000000000e+00  0.0000000000000000e+00 0.0000000000000000e+00 0.0000000000000000e+00  -1.1293681587336787e-05 -2.6331904776996241e-07 0.0000000000000000e+00  -2.2938416417938763e-05 -5.2922775505988686e-07 0.0000000000000000e+00  -3.5290750477940130e-05 -7.9943527245604928e-07 0.0000000000000000e+00  -4.8712831341145830e-05 -1.0736132051104723e-06 0.0000000000000000e+00  -6.3573241191335400e-05 -1.3479695763728993e-06 0.0000000000000000e+00  -8.0245323241830792e-05 -1.6132973694598916e-06 0.0000000000000000e+00  -9.9102281918322929e-05 -1.8522751962212148e-06 0.0000000000000000e+00  -1.2050867947262972e-04 -2.0357782397347244e-06 0.0000000000000000e+00  -1.4480869980271124e-04 -2.1179748067104999e-06 0.0000000000000000e+00  -1.7231279321327118e-04 -2.0301036267881337e-06 0.0000000000000000e+00  -2.0328551140611677e-04 -1.6732230303896672e-06 0.0000000000000000e+00  -2.3793532196860888e-04 -9.1138693147437921e-07 0.0000000000000000e+00  -2.7638971093660146e-04 4.3007246978513929e-07 0.0000000000000000e+00  -3.1856706889698503e-04 2.5492119516514453e-06 0.0000000000000000e+00  -3.6363840372833186e-04 5.6214498405663385e-06 0.0000000000000000e+00  -4.0839216985943938e-04 9.8512484481301883e-06 0.0000000000000000e+00  0.0000000000000000e+00 0.0000000000000000e+00 0.0000000000000000e+00  -1.4502799067993261e-05 -3.4745086533254034e-07 0.0000000000000000e+00  -2.9468949910837455e-05 -6.9990307342001049e-07 0.0000000000000000e+00  -4.5369965124278780e-05 -1.0614321599148267e-06 0.0000000000000000e+00  -6.2687402157872316e-05 -1.4339260468416670e-06 0.0000000000000000e+00  -8.1915180942344689e-05 -1.8154954833375257e-06 0.0000000000000000e+00  -1.0355824972437478e-04 -2.1982326514228519e-06 0.0000000000000000e+00  -1.2812605864957031e-04 -2.5650251906468923e-06 0.0000000000000000e+00  -1.5611912333847385e-04 -2.8851005474210487e-06 0.0000000000000000e+00  -1.8800680435760445e-04 -3.1080060361828245e-06 0.0000000000000000e+00  -2.2419407045350283e-04 -3.1559315151366931e-06 0.0000000000000000e+00  -2.6497350101134434e-04 -2.9148686137731651e-06 0.0000000000000000e+00  -3.1045327296640206e-04 -2.2264441431313355e-06 0.0000000000000000e+00  -3.6043564959502522e-04 -8.8480695688579213e-07 0.0000000000000000e+00  -4.1418244259731050e-04 1.3536261792696259e-06 0.0000000000000000e+00  -4.6994426451550046e-04 4.7394313875028745e-06 0.0000000000000000e+00  -5.2414409275667163e-04 9.4792073902231760e-06 0.0000000000000000e+00  0.0000000000000000e+00 0.0000000000000000e+00 0.0000000000000000e+00  -1.7243554557533474e-05 -4.2645512657223642e-07 0.0000000000000000e+00  -3.5057134428100304e-05 -8.6131822303322492e-07 0.0000000000000000e+00  -5.4022356806122915e-05 -1.3122108965746990e-06 0.0000000000000000e+00  -7.4737634285183254e-05 -1.7848194918491615e-06 0.0000000000000000e+00  -9.7823343869771662e-05 -2.2813884290661314e-06 0.0000000000000000e+00  -1.2392242377631487e-04 -2.7984785791286930e-06 0.0000000000000000e+00  -1.5369403824586398e-04 -3.3236126800908287e-06 0.0000000000000000e+00  -1.8779724949146971e-04 -3.8303319073160934e-06 0.0000000000000000e+00  -2.2686077850467900e-04 -4.2711193136064304e-06 0.0000000000000000e+00  -2.7143385145920416e-04 -4.5677110653298703e-06 0.0000000000000000e+00  -3.2191151659388033e-04 -4.5987311466440854e-06 0.0000000000000000e+00  -3.7842495135561227e-04 -4.1857208602392871e-06 0.0000000000000000e+00  -4.4068230224277922e-04 -3.0809592470486670e-06 0.0000000000000000e+00  -5.0774062365748298e-04 -9.6419867464513679e-07 0.0000000000000000e+00  -5.7770199984874548e-04 2.5399543343745342e-06 0.0000000000000000e+00  -6.4741986853654595e-04 7.8057075674794839e-06 0.0000000000000000e+00  0.0000000000000000e+00 0.0000000000000000e+00 0.0000000000000000e+00  -1.9409147920248272e-05 -4.9691157040251556e-07 0.0000000000000000e+00  -3.9485879937325965e-05 -1.0064979530608171e-06 0.0000000000000000e+00  -6.0913707907075208e-05 -1.5409826235388641e-06 0.0000000000000000e+00  -8.4402423835907230e-05 -2.1113444473528134e-06 0.0000000000000000e+00  -1.1069794188376525e-04 -2.7261840119598852e-06 0.0000000000000000e+00  -1.4058721290776641e-04 -3.3898541553488867e-06 0.0000000000000000e+00  -1.7489520820281989e-04 -4.0994016648092512e-06 0.0000000000000000e+00  -2.1446974234046398e-04 -4.8396591167666664e-06 0.0000000000000000e+00  -2.6014840337264277e-04 -5.5755515943318395e-06 0.0000000000000000e+00  -3.1270028235066922e-04 -6.2403948724359150e-06 0.0000000000000000e+00  -3.7273403058959666e-04 -6.7188419280288681e-06 0.0000000000000000e+00  -4.4056405145092659e-04 -6.8236330877757581e-06 0.0000000000000000e+00  -5.1603045049315548e-04 -6.2672857853920167e-06 0.0000000000000000e+00  -5.9828009122215458e-04 -4.6344817008003169e-06 0.0000000000000000e+00  -6.8554468735129747e-04 -1.3684581146923586e-06 0.0000000000000000e+00  -7.7501135454552048e-04 4.2092574510687024e-06 0.0000000000000000e+00  0.0000000000000000e+00 0.0000000000000000e+00 0.0000000000000000e+00  -2.0902285311957668e-05 -5.5454722421312137e-07 0.0000000000000000e+00  -4.2555804798561793e-05 -1.1265560058225225e-06 0.0000000000000000e+00  -6.5732954988722365e-05 -1.7335500698380492e-06 0.0000000000000000e+00  -9.1244670668254936e-05 -2.3929159550611252e-06 0.0000000000000000e+00  -1.1995702468892966e-04 -3.1214504138830290e-06 0.0000000000000000e+00  -1.5280345518923214e-04 -3.9343068726866076e-06 0.0000000000000000e+00  -1.9078931444887755e-04 -4.8428771366181671e-06 0.0000000000000000e+00  -2.3498363342205027e-04 -5.8508219362697875e-06 0.0000000000000000e+00  -2.8649065337463112e-04 -6.9469285434713173e-06 0.0000000000000000e+00  -3.4639110873063917e-04 -8.0926497730060625e-06 0.0000000000000000e+00  -4.1564144834618024e-04 -9.2010856702495289e-06 0.0000000000000000e+00  -4.9492040197881898e-04 -1.0103197517452309e-05 0.0000000000000000e+00  -5.8442054006896187e-04 -1.0497546542396496e-05 0.0000000000000000e+00  -6.8360281521748798e-04 -9.8849290220416118e-06 0.0000000000000000e+00  -7.9096602968492633e-04 -7.5034565879121880e-06 0.0000000000000000e+00  -9.0391744886815593e-04 -2.3042235811199807e-06 0.0000000000000000e+00  0.0000000000000000e+00 0.0000000000000000e+00 0.0000000000000000e+00  -2.1639959145529890e-05 -5.9457910920890248e-07 0.0000000000000000e+00  -4.4094817845895961e-05 -1.2113956054332728e-06 0.0000000000000000e+00  -6.8206534346461193e-05 -1.8733875800882809e-06 0.0000000000000000e+00  -9.4870084019880725e-05 -2.6047766487359387e-06 0.0000000000000000e+00  -1.2505883022499684e-04 -3.4315679663336450e-06 0.0000000000000000e+00  -1.5984731199679520e-04 -4.3817623948469447e-06 0.0000000000000000e+00  -2.0042840438085099e-04 -5.4849380194503951e-06 0.0000000000000000e+00  -2.4811942593372198e-04 -6.7704911420556408e-06 0.0000000000000000e+00  -3.0434829247923313e-04 -8.2630996062689391e-06 0.0000000000000000e+00  -3.7060632520685173e-04 -9.9725882193272442e-06 0.0000000000000000e+00  -4.4834978297021607e-04 -1.1872932007791257e-05 0.0000000000000000e+00  -5.3883059868111978e-04 -1.3861389035746243e-05 0.0000000000000000e+00  -6.4284471206763137e-04 -1.5684724471210491e-05 0.0000000000000000e+00  -7.6041394068937008e-04 -1.6820197589369848e-05 0.0000000000000000e+00  -8.9046953388508346e-04 -1.6317063307845416e-05 0.0000000000000000e+00  -1.0306499904962759e-03 -1.2653875305937471e-05 0.0000000000000000e+00  0.0000000000000000e+00 0.0000000000000000e+00 0.0000000000000000e+00  -2.1559444435465123e-05 -6.1224612011071901e-07 0.0000000000000000e+00  -4.3970422148781380e-05 -1.2508263711950588e-06 0.0000000000000000e+00  -6.8117545742896985e-05 -1.9434467109566273e-06 0.0000000000000000e+00  -9.4953827748979694e-05 -2.7206312868751718e-06 0.0000000000000000e+00  -1.2553627418679700e-04 -3.6173270667480332e-06 0.0000000000000000e+00  -1.6106215127113715e-04 -4.6747047088888239e-06 0.0000000000000000e+00  -2.0290401257620308e-04 -5.9421111009355372e-06 0.0000000000000000e+00  -2.5263882928670432e-04 -7.4788814887167316e-06 0.0000000000000000e+00  -3.1206191645526891e-04 -9.3550786484682035e-06 0.0000000000000000e+00  -3.8316909787096393e-04 -1.1648665410974043e-05 0.0000000000000000e+00  -4.6808066406715831e-04 -1.4433049840145381e-05 0.0000000000000000e+00  -5.6887063192894035e-04 -1.7741491361265551e-05 0.0000000000000000e+00  -6.8726369720857887e-04 -2.1481544234571671e-05 0.0000000000000000e+00  -8.2419212970081493e-04 -2.5256414032300222e-05 0.0000000000000000e+00  -9.7930053993808969e-04 -2.8054708546438301e-05 0.0000000000000000e+00  -1.1506560189379678e-03 -2.7861623441706527e-05 0.0000000000000000e+00  0.0000000000000000e+00 0.0000000000000000e+00 0.0000000000000000e+00  -2.0625199015128297e-05 -6.0347583385431174e-07 0.0000000000000000e+00  -4.2104189399783579e-05 -1.2359927951690171e-06 0.0000000000000000e+00  -6.5329117184336058e-05 -1.9285457980230327e-06 0.0000000000000000e+00  -9.1274649423283996e-05 -2.7163163576276485e-06 0.0000000000000000e+00  -1.2104403709108640e-04 -3.6413235068602188e-06 0.0000000000000000e+00  -1.5592055568110978e-04 -4.7558315997780923e-06 0.0000000000000000e+00  -1.9742472695490369e-04 -6.1269132853337254e-06 0.0000000000000000e+00  -2.4737528393172116e-04 -7.8426564820376106e-06 0.0000000000000000e+00  -3.0794672922998301e-04 -1.0020442728803873e-05 0.0000000000000000e+00  -3.8170650714480428e-04 -1.2816995990421270e-05 0.0000000000000000e+00  -4.7159768111428263e-04 -1.6436962075536394e-05 0.0000000000000000e+00  -5.8080730433302560e-04 -2.1127523989765636e-05 0.0000000000000000e+00  -7.1243308883379920e-04 -2.7121711743214635e-05 0.0000000000000000e+00  -8.6886441252686391e-04 -3.4438384805993403e-05 0.0000000000000000e+00  -1.0509176605274361e-03 -4.2371842958316232e-05 0.0000000000000000e+00  -1.2570937507834746e-03 -4.8546639566836380e-05 0.0000000000000000e+00  0.0000000000000000e+00 0.0000000000000000e+00 0.0000000000000000e+00  -1.8836007106292673e-05 -5.6559075285958857e-07 0.0000000000000000e+00  -3.8487107790246109e-05 -1.1609140210522385e-06 0.0000000000000000e+00  -5.9810122941187739e-05 -1.8180235836863670e-06 0.0000000000000000e+00  -8.3754335392199322e-05 -2.5740581468216445e-06 0.0000000000000000e+00  -1.1141633472252051e-04 -3.4746160121856885e-06 0.0000000000000000e+00  -1.4410588203581266e-04 -4.5783376131316804e-06 0.0000000000000000e+00  -1.8342680066483412e-04 -5.9635213663100746e-06 0.0000000000000000e+00  -2.3137600382447233e-04 -7.7381528804698323e-06 0.0000000000000000e+00  -2.9046018981406375e-04 -1.0055702638388832e-05 0.0000000000000000e+00  -3.6381993415388980e-04 -1.3140547158741980e-05 0.0000000000000000e+00  -4.5532830148108642e-04 -1.7328276349900084e-05 0.0000000000000000e+00  -5.6958551579008854e-04 -2.3123492642457981e-05 0.0000000000000000e+00  -7.1165386293154211e-04 -3.1254813361644796e-05 0.0000000000000000e+00  -8.8628987930546715e-04 -4.2610991010442396e-05 0.0000000000000000e+00  -1.0965101231800356e-03 -5.7661338561218708e-05 0.0000000000000000e+00  -1.3420593378138043e-03 -7.4873384552176574e-05 0.0000000000000000e+00  0.0000000000000000e+00 0.0000000000000000e+00 0.0000000000000000e+00  -1.6231336856932990e-05 -4.9792702585663292e-07 0.0000000000000000e+00  -3.3193676233385978e-05 -1.0238547292069685e-06 0.0000000000000000e+00  -5.1659937434752702e-05 -1.6081664154012096e-06 0.0000000000000000e+00  -7.2497981616242779e-05 -2.2865248358781758e-06 0.0000000000000000e+00  -9.6730000308583932e-05 -3.1034223529149997e-06 0.0000000000000000e+00  -1.2560826968702418e-04 -4.1170695144022679e-06 0.0000000000000000e+00  -1.6071568083650105e-04 -5.4065945964402017e-06 0.0000000000000000e+00  -2.0410168746848583e-04 -7.0833484564473156e-06 0.0000000000000000e+00  -2.5846560049219691e-04 -9.3099376046748998e-06 0.0000000000000000e+00  -3.2739571810534517e-04 -1.2334741302039323e-05 0.0000000000000000e+00  -4.1565476462850521e-04 -1.6558742800558478e-05 0.0000000000000000e+00  -5.2944678174346004e-04 -2.2669317174098606e-05 0.0000000000000000e+00  -6.7646255077363131e-04 -3.1899489881553313e-05 0.0000000000000000e+00  -8.6521332284837161e-04 -4.6439648749905929e-05 0.0000000000000000e+00  -1.1027975503509887e-03 -6.9489471604415091e-05 0.0000000000000000e+00  -1.3925764046386305e-03 -1.0016448658231900e-04 0.0000000000000000e+00  0.0000000000000000e+00 0.0000000000000000e+00 0.0000000000000000e+00  -1.2895579639730442e-05 -4.0223376940098416e-07 0.0000000000000000e+00  -2.6391875518375540e-05 -8.2822440959387967e-07 0.0000000000000000e+00  -4.1127432532191949e-05 -1.3038418996267647e-06 0.0000000000000000e+00  -5.7827873879449530e-05 -1.8596556270372259e-06 0.0000000000000000e+00  -7.7362904162586011e-05 -2.5340434418431596e-06 0.0000000000000000e+00  -1.0082276434823801e-04 -3.3773601487289319e-06 0.0000000000000000e+00  -1.2962630963735393e-04 -4.4578124248292538e-06 0.0000000000000000e+00  -1.6567919324477778e-04 -5.8701611669886502e-06 0.0000000000000000e+00  -2.1161002587242187e-04 -7.7496348794282060e-06 0.0000000000000000e+00  -2.7112422991794279e-04 -1.0297248544073562e-05 0.0000000000000000e+00  -3.4952335810988953e-04 -1.3834816797647818e-05 0.0000000000000000e+00  -4.5441662691592978e-04 -1.8946167375815117e-05 0.0000000000000000e+00  -5.9651926605797253e-04 -2.6877781476429470e-05 0.0000000000000000e+00  -7.8993902206918396e-04 -4.0716717255395405e-05 0.0000000000000000e+00  -1.0495710210346285e-03 -6.8931599560978022e-05 0.0000000000000000e+00  -1.3729102376104513e-03 -1.3762770107099569e-04 0.0000000000000000e+00  0.0000000000000000e+00 0.0000000000000000e+00 0.0000000000000000e+00  -8.9587313176361618e-06 -2.8275488843260388e-07 0.0000000000000000e+00  -1.8345777135743091e-05 -5.8277310606060819e-07 0.0000000000000000e+00  -2.8618421161641182e-05 -9.1888033518592429e-07 0.0000000000000000e+00  -4.0301393892831674e-05 -1.3133695806663561e-06 0.0000000000000000e+00  -5.4032661914214303e-05 -1.7942028629427162e-06 0.0000000000000000e+00  -7.0627336264977329e-05 -2.3977523678807604e-06 0.0000000000000000e+00  -9.1172660176421506e-05 -3.1720996779282101e-06 0.0000000000000000e+00  -1.1717608407607201e-04 -4.1804494607387856e-06 0.0000000000000000e+00  -1.5080503438862593e-04 -5.5029569456965970e-06 0.0000000000000000e+00  -1.9528717007351030e-04 -7.2323791064381649e-06 0.0000000000000000e+00  -2.5559319297597605e-04 -9.4540679313553071e-06 0.0000000000000000e+00  -3.3961129777476440e-04 -1.2200503793901185e-05 0.0000000000000000e+00  -4.6014153669300640e-04 -1.5419333624672789e-05 0.0000000000000000e+00  -6.3814381935065403e-04 -1.9285833863180107e-05 0.0000000000000000e+00  -9.0770602089260913e-04 -2.6371448046557343e-05 0.0000000000000000e+00  -1.3246131000499736e-03 -5.0722441068713623e-05 0.0000000000000000e+00  0.0000000000000000e+00 0.0000000000000000e+00 0.0000000000000000e+00  -4.5923117147215111e-06 -1.4596391757738510e-07 0.0000000000000000e+00  -9.4079198048114504e-06 -3.0101455830272797e-07 0.0000000000000000e+00  -1.4685947221657243e-05 -4.7506454020372691e-07 0.0000000000000000e+00  -2.0702622192390531e-05 -6.7985146568462789e-07 0.0000000000000000e+00  -2.7797110745682995e-05 -9.3004274638770619e-07 0.0000000000000000e+00  -3.6408577077856137e-05 -1.2444727388790183e-06 0.0000000000000000e+00  -4.7133227744380135e-05 -1.6471945196884487e-06 0.0000000000000000e+00  -6.0817273006517645e-05 -2.1670683900080526e-06 0.0000000000000000e+00  -7.8716259608360128e-05 -2.8315688014101828e-06 0.0000000000000000e+00  -1.0278101550628936e-04 -3.6408387827946764e-06 0.0000000000000000e+00  -1.3619036086196310e-04 -4.4770671780266587e-06 0.0000000000000000e+00  -1.8435614406619926e-04 -4.8051502222218272e-06 0.0000000000000000e+00  -2.5670513407949927e-04 -2.7180813900647789e-06 0.0000000000000000e+00  -3.6886967669945024e-04 7.8713581842395058e-06 0.0000000000000000e+00  -5.3968302764850632e-04 4.3475192971193718e-05 0.0000000000000000e+00  -7.5982288103777274e-04 1.3182945999157676e-04 0.0000000000000000e+00  0.0000000000000000e+00 0.0000000000000000e+00 0.0000000000000000e+00  0.0000000000000000e+00 0.0000000000000000e+00 0.0000000000000000e+00  0.0000000000000000e+00 0.0000000000000000e+00 0.0000000000000000e+00  0.0000000000000000e+00 0.0000000000000000e+00 0.0000000000000000e+00  0.0000000000000000e+00 0.0000000000000000e+00 0.0000000000000000e+00  0.0000000000000000e+00 0.0000000000000000e+0