<?xml version="1.0"?>
<VTKFile type="UnstructuredGrid"  version="0.1"  >
<UnstructuredGrid>
<Piece  NumberOfPoints="289" NumberOfCells="512">
<Points>
<DataArray  type="Float64"  NumberOfComponents="3"  format="ascii">0 0 0  0.0625 0 0  0.125 0 0  0.1875 0 0  0.25 0 0  0.3125 0 0  0.375 0 0  0.4375 0 0  0.5 0 0  0.5625 0 0  0.625 0 0  0.6875 0 0  0.75 0 0  0.8125 0 0  0.875 0 0  0.9375 0 0  1 0 0  0 0.0625 0  0.06245545747707245 0.06249674941360762 0  0.1249098467203554 0.06249345569492914 0  0.1873621337026159 0.0624900836345296 0  0.2498113706194111 0.06248661515842197 0  0.3122567616874417 0.06248306025770346 0  0.3746977578744007 0.0624794704765571 0  0.4371341928990926 0.0624759551453714 0  0.4995664760825717 0.06247269956900396 0  0.5619958647297775 0.06246998266104686 0  0.6244248569264575 0.06246818893208236 0  0.6868577959682586 0.0624678071443512 0  0.7493019205614467 0.06246941079628057 0  0.8117695031670322 0.06247365080265802 0  0.8742828635726023 0.06248149197125832 0  0.9368869769516469 0.0624960348191391 0  0.9996790553416228 0.06253461694319608 0  0 0.125 0  0.06241199951056255 0.1249935422978106 0  0.1248218279855504 0.1249869902305114 0  0.1872273754488745 0.1249802642951409 0  0.2496266885399991 0.124973317350915 0  0.3120180937204037 0.1249661557716227 0  0.374400377897142 0.1249588661948532 0  0.4367730507789755 0.124951648721993 0  0.4991367182202056 0.1249448557423184 0  0.5614936043283268 0.1249390323042694 0  0.6238482778458428 0.1249349482565311 0  0.6862086785607709 0.1249336032545056 0  0.7485876267594638 0.1249361720936983 0  0.8110051528773242 0.1249438349781544 0  0.8734920960755065 0.1249573616227003 0  0.9360947289253178 0.1249758217606378 0  0.9988762785218852 0.1249899632868578 0  0 0.1875 0  0.06237073794411862 0.1874904300215748 0  0.1247381364279532 0.1874806992638125 0  0.1870989282541846 0.1874706667298142 0  0.2494500393027801 0.1874602350289001 0  0.3117887502138352 0.1874493801130674 0  0.3741129418338268 0.1874381904269242 0  0.4364214598392288 0.1874269179155237 0  0.4987146388097752 0.1874160416528987 0  0.5609950299352572 0.1874063410705244 0  0.623268377408438 0.1873989682657545 0  0.6855448808944115 0.1873954952008584 0  0.747840745660053 0.1873978877553664 0  0.8101798884097812 0.1874083159298092 0  0.8725952268119354 0.1874286238334008 0  0.9351277833113272 0.1874591073732812 0  0.9978195918327586 0.187496271256239 0  0 0.25 0  0.0623328508945962 0.2499874791230479 0  0.1246611138594894 0.2499747108342112 0  0.1869802612882717 0.2499614692805087 0  0.2492859446451497 0.2499475771027303 0  0.3115741657929538 0.2499329407210397 0  0.373841554943359 0.249917599478678 0  0.4360858019907057 0.2499017937907475 0  0.4983062938328635 0.2498860568312076 0  0.5605050105036583 0.2498713316809271 0  0.6226877181591013 0.2498591091731519 0  0.6848654486229718 0.2498515675383069 0  0.7470561367893022 0.2498516684295921 0  0.8092860307690827 0.2498631191059634 0  0.8715899948542977 0.2498900460681859 0  0.9340090563862926 0.2499361754497282 0  0.9965829285271928 0.2500034731491217 0  0 0.3125 0  0.06229959464559725 0.312484776350675 0  0.1245932829542894 0.3124691965852233 0  0.1868751778307945 0.3124529236593208 0  0.249139493104908 0.3124356650404198 0  0.3113806865175962 0.3124172086340898 0  0.3735937265625739 0.312397476864881 0  0.4357745427379651 0.3123766076208422 0  0.4979207301605104 0.31235507245266 0  0.5600325844350765 0.3123338431130299 0  0.6221145277230802 0.3123146150130362 0  0.6841769273914364 0.3123000861505799 0  0.7462381650353256 0.3122942652069359 0  0.8083265390215548 0.3123027329877082 0  0.8704811687101156 0.3123327016850402 0  0.9327506818510318 0.3123926292957085 0  0.9951887283558257 0.3124911448195388 0  0 0.375 0  0.06227229113002933 0.3749824305103049 0  0.1245373285234115 0.3749643765957874 0  0.1867878039062071 0.3749453652746533 0  0.2490163587047174 0.3749249530701311 0  0.3112156525938293 0.3749027555956814 0  0.3733785631219848 0.3748784980172329 0  0.435498589453914 0.3748520987022657 0  0.4975705569291844 0.3748238034052635 0  0.5595917420245495 0.374794393585855 0  0.6215635458240113 0.3747654983419484 0  0.6834938104934062 0.3747400403187918 0  0.74539975083604 0.3747228309370468 0  0.8073112035786626 0.3747212782279007 0  0.8692734556886208 0.3747460494591586 0  0.9313484181920457 0.3748113123991569 0  0.9936127420838482 0.3749338831694173 0  0 0.4375 0  0.06225228536851073 0.437480569977846 0  0.1244960160973822 0.4374605153003442 0  0.1867224767941941 0.4374392097085846 0  0.2489226762051125 0.4374160294337587 0  0.3110872895847726 0.4373903677956211 0  0.3732067220450593 0.4373616699651056 0  0.4352713759227401 0.437329502412846 0  0.49727224728535 0.4372936803127896 0  0.5592020320404932 0.4372544895929329 0  0.6210569828876389 0.4372130591739902 0  0.6828397987288475 0.4371719610507226 0  0.7445637882105817 0.4371361301846531 0  0.8062583194884934 0.4371141705268969 0  0.8679750039850427 0.4371199772335391 0  0.9297930887062784 0.4371742463623146 0  0.9918214033035346 0.4373047869626071 0  0 0.5 0  0.06224086970257577 0.4999793349876198 0  0.1244720400440975 0.4999579063521343 0  0.1866835180894567 0.4999349311302252 0  0.2488647456722063 0.4999095909825245 0  0.3110043637800473 0.4998810227947506 0  0.3730900612728091 0.499848323535604 0  0.4351085893706849 0.4998105828649204 0  0.4970460854738437 0.4997669682806419 0  0.5588889478758361 0.4997169076014255 0  0.6206256453477611 0.49966044764557 0  0.6822500246023412 0.4995989220197178 0  0.7437668357457915 0.4995361350399759 0  0.8052001550895405 0.4994803360779418 0  0.8666047685535165 0.4994472137853523 0  0.9280788412265002 0.4994637169355866 0  0.9897732047822947 0.4995712868419951 0  0 0.5625 0  0.06223917543319333 0.5624788644225119 0  0.1244678006342778 0.5624568454733762 0  0.1866748854744694 0.562433020038823 0  0.2488485481251671 0.5624063850019291 0  0.310975559829505 0.5623758167285728 0  0.3730409029570252 0.5623400329377503 0  0.4350273996761962 0.5622975645282667 0  0.496915542472106 0.5622467554031142 0  0.558683794324748 0.5621858299716813 0  0.6203098655726637 0.5621131119189536 0  0.6817738609996992 0.5620275641831501 0  0.7430647307216421 0.5619299798047677 0  0.8041919848030359 0.5618254126104649 0  0.8652044908677818 0.5617277334307281 0  0.9262157775277029 0.5616671149488256 0  0.9874283517544693 0.5616995527480105 0  0 0.625 0  0.06224803793333362 0.6249792778522291 0  0.1244851204883715 0.6249575924862455 0  0.1866997137049087 0.6249339211875817 0  0.2488790739294439 0.6249071170259378 0  0.3110085566940348 0.6248758348664132 0  0.3730708326575539 0.6248384431773151 0  0.4350450116172139 0.6247929181028917 0  0.4969057380943585 0.6247367205990894 0  0.5586224648588147 0.6246666703677265 0  0.6201594161017421 0.6245788654445846 0  0.6814773621450432 0.6244687866931482 0  0.7425394437265117 0.6243319484551417 0  0.80332503519943 0.6241659657007208 0  0.8638574970107388 0.6239759265618614 0  0.924250777124367 0.6237863576626104 0  0.9847685407913441 0.6236623345427208 0  0 0.6875 0  0.06226784841074951 0.6874806548774515 0  0.1245249260673174 0.6874603266473914 0  0.1867597803712434 0.6874379577274812 0  0.2489595019759565 0.687412331842623 0  0.3111088245270467 0.6873819715033624 0  0.3731890032670726 0.6873450038390416 0  0.4351763840108719 0.6872989773614635 0  0.4970405874348863 0.6872406055163157 0  0.5587423125251706 0.6871654048036379 0  0.6202310173563678 0.6870671915537221 0  0.6814434169031243 0.6869374268385851 0  0.7423053782286166 0.6867645433514301 0  0.8027433570682514 0.6865339457736354 0  0.8627180927039054 0.6862312021719884 0  0.9223009793790365 0.6858559279044905 0  0.9818051013985054 0.6854615824963837 0  0 0.75 0  0.06229841336799721 0.7499830151341349 0  0.1245869378244397 0.7499651024727797 0  0.1868549646266992 0.7499452535321585 0  0.2490903219831747 0.7499222856941429 0  0.3112782493568037 0.749894724234847 0  0.3734000320246351 0.7498606401753843 0  0.4354311020520691 0.7498174151889575 0  0.4973383374841009 0.7497613869192989 0  0.5590762128613515 0.7496872949668588 0  0.6205814458528441 0.749587385359637 0  0.6817661013120748 0.7494499156094651 0  0.742510524377186 0.7492566158491041 0  0.802662117190269 0.7489785318184817 0  0.8620591732858741 0.7485706484504977 0  0.9206302585735767 0.7479736259640686 0  0.9786511558633246 0.7471760801210595 0  0 0.8125 0  0.06233884940313322 0.8124863031265113 0  0.1246694290607564 0.8124718153546033 0  0.1869828007639318 0.8124556703066729 0  0.2492685568522283 0.8124368374480408 0  0.3115138102281202 0.8124140078577745 0  0.3737017815529351 0.8123854333797083 0  0.4358097088037332 0.8123486875304116 0  0.4978056323900012 0.8123002953310039 0  0.5596433165144841 0.8122351372033569 0  0.621254094563502 0.8121454408141536 0  0.6825337595706522 0.8120189547468561 0  0.7433220959129648 0.8118353196186169 0  0.8033742430266887 0.8115580638419416 0  0.8623357308691907 0.8111153274749785 0  0.9197955539858743 0.81035148040021 0  0.9757929130397438 0.8089100269590183 0  0 0.875 0  0.0623875432364297 0.8749903819108009 0  0.1247691212796985 0.8749801862244646 0  0.1871382501576484 0.8749687768575984 0  0.2494872954219982 0.874955390003499 0  0.3118066544013904 0.8749390441706005 0  0.374083571084566 0.8749184126586651 0  0.4363003038065087 0.8748916342148988 0  0.498431147742339 0.8748560244893211 0  0.560437383650992 0.8748076300488987 0  0.6222583526460678 0.8747405320607814 0  0.6837950477578383 0.8746457341437602 0  0.7448787999140608 0.8745092358582922 0  0.8052096586584018 0.8743078888053062 0  0.8642335080933479 0.87399703315967 0  0.9209054189608321 0.8734634730882882 0  0.9733252806256208 0.87232240489907 0  0 0.9375 0  0.0624422014805093 0.9374950383064238 0  0.1248812745832756 0.9374897715964536 0  0.1873138069183547 0.9374838629398031 0  0.2497357529212641 0.9374769055950787 0  0.3121419745742632 0.9374683736832872 0  0.3745255614477862 0.9374575525013822 0  0.4368767510858647 0.937
[...]
<PointData  Vectors="f_54"> 
<DataArray  type="Float64"  Name="f_54"  NumberOfComponents="3" format="ascii">0.0000000000000000e+00 0.0000000000000000e+00 0.0000000000000000e+00  0.0000000000000000e+00 0.0000000000000000e+00 0.0000000000000000e+00  0.0000000000000000e+00 0.0000000000000000e+00 0.0000000000000000e+00  0.0000000000000000e+00 0.0000000000000000e+00 0.0000000000000000e+00  0.0000000000000000e+00 0.0000000000000000e+00 0.0000000000000000e+00  0.0000000000000000e+00 0.0000000000000000e+00 0.0000000000000000e+00  0.0000000000000000e+00 0.0000000000000000e+00 0.0000000000000000e+00  0.0000000000000000e+00 0.0000000000000000e+00 0.0000000000000000e+00  0.0000000000000000e+00 0.0000000000000000e+00 0.0000000000000000e+00  0.0000000000000000e+00 0.0000000000000000e+00 0.0000000000000000e+00  0.0000000000000000e+00 0.0000000000000000e+00 0.0000000000000000e+00  0.0000000000000000e+00 0.0000000000000000e+00 0.0000000000000000e+00  0.0000000000000000e+00 0.0000000000000000e+00 0.0000000000000000e+00  0.0000000000000000e+00 0.0000000000000000e+00 0.0000000000000000e+00  0.0000000000000000e+00 0.0000000000000000e+00 0.0000000000000000e+00  0.0000000000000000e+00 0.0000000000000000e+00 0.0000000000000000e+00  0.0000000000000000e+00 0.0000000000000000e+00 0.0000000000000000e+00  0.0000000000000000e+00 0.0000000000000000e+00 0.0000000000000000e+00  -2.9221335444187054e-06 -5.7088442144135629e-08 0.0000000000000000e+00  -5.9366870704187199e-06 -1.1534626772676578e-07 0.0000000000000000e+00  -9.1374930499812079e-06 -1.7581998758200783e-07 0.0000000000000000e+00  -1.2620631150910763e-05 -2.3926773961172698e-07 0.0000000000000000e+00  -1.6485285683520496e-05 -3.0592674548014871e-07 0.0000000000000000e+00  -2.0834388779117143e-05 -3.7515862653769760e-07 0.0000000000000000e+00  -2.5775281136365632e-05 -4.4490142479346176e-07 0.0000000000000000e+00  -3.1421192368283700e-05 -5.1081786860136995e-07 0.0000000000000000e+00  -3.7895744864831872e-05 -5.6494292734370199e-07 0.0000000000000000e+00  -4.5346257318681048e-05 -5.9340255330877416e-07 0.0000000000000000e+00  -5.3981319600830078e-05 -5.7205257194970382e-07 0.0000000000000000e+00  -6.4176650617766656e-05 -4.5636564116178172e-07 0.0000000000000000e+00  -7.6785044165507695e-05 -1.5236742083812094e-07 0.0000000000000000e+00  -9.4108324392152382e-05 5.8306515176219559e-07 0.0000000000000000e+00  -1.2321506561859449e-04 2.5291877682673884e-06 0.0000000000000000e+00  -1.8832336436735029e-04 8.6398682697231197e-06 0.0000000000000000e+00  0.0000000000000000e+00 0.0000000000000000e+00 0.0000000000000000e+00  -5.7473028921846819e-06 -1.1291940173892552e-07 0.0000000000000000e+00  -1.1677767141884637e-05 -2.2829815780091538e-07 0.0000000000000000e+00  -1.7977438192466349e-05 -3.4838331708649944e-07 0.0000000000000000e+00  -2.4837001738643124e-05 -4.7491880067693333e-07 0.0000000000000000e+00  -3.2453476455406517e-05 -6.0873287583434675e-07 0.0000000000000000e+00  -4.1031263132507137e-05 -7.4910442661697850e-07 0.0000000000000000e+00  -5.0782687114493113e-05 -8.9278530492955471e-07 0.0000000000000000e+00  -6.1928819092312931e-05 -1.0325063125745542e-06 0.0000000000000000e+00  -7.4702824429051683e-05 -1.1547176593645331e-06 0.0000000000000000e+00  -8.9361294096121629e-05 -1.2361934266819121e-06 0.0000000000000000e+00  -1.0621579496403123e-04 -1.2389624642688213e-06 0.0000000000000000e+00  -1.2571026479993538e-04 -1.1030665031910697e-06 0.0000000000000000e+00  -1.4859033835184485e-04 -7.3892185054664403e-07 0.0000000000000000e+00  -1.7620390403346421e-04 -3.8174365801391697e-08 0.0000000000000000e+00  -2.1066658947294637e-04 9.7447405107733447e-07 0.0000000000000000e+00  -2.5234835623291681e-04 1.1400820828037207e-06 0.0000000000000000e+00  0.0000000000000000e+00 0.0000000000000000e+00 0.0000000000000000e+00  -8.3845137737247000e-06 -1.6619835153930764e-07 0.0000000000000000e+00  -1.7039986649333297e-05 -3.3635983861030738e-07 0.0000000000000000e+00  -2.6241913450335372e-05 -5.1420598201530597e-07 0.0000000000000000e+00  -3.6273260306233013e-05 -7.0287244773882870e-07 0.0000000000000000e+00  -4.7427103309917653e-05 -9.0440845191065870e-07 0.0000000000000000e+00  -6.0007944223431563e-05 -1.1189901774565798e-06 0.0000000000000000e+00  -7.4331385984729873e-05 -1.3436919557078664e-06 0.0000000000000000e+00  -9.0722148980026791e-05 -1.5706082020397245e-06 0.0000000000000000e+00  -1.0951104150614158e-04 -1.7840676146866769e-06 0.0000000000000000e+00  -1.3103255423749238e-04 -1.9566635373668055e-06 0.0000000000000000e+00  -1.5562580884819342e-04 -2.0439426265414034e-06 0.0000000000000000e+00  -1.8363999068267487e-04 -1.9781268991148052e-06 0.0000000000000000e+00  -2.1543044128773077e-04 -1.6627987605884740e-06 0.0000000000000000e+00  -2.5126832985534190e-04 -9.7308740361346254e-07 0.0000000000000000e+00  -2.9088870155239744e-04 2.4299222845712347e-07 0.0000000000000000e+00  -3.3202678263606443e-04 2.3079253216850750e-06 0.0000000000000000e+00  0.0000000000000000e+00 0.0000000000000000e+00 0.0000000000000000e+00  -1.0745741358297630e-05 -2.1541712764372944e-07 0.0000000000000000e+00  -2.1845786407096359e-05 -4.3654680397709991e-07 0.0000000000000000e+00  -3.3660958002291462e-05 -6.6890739231959642e-07 0.0000000000000000e+00  -4.6563199507955222e-05 -9.1751787358010400e-07 0.0000000000000000e+00  -6.0939556857095741e-05 -1.1864268521780829e-06 0.0000000000000000e+00  -7.7194073182316157e-05 -1.4779314500504832e-06 0.0000000000000000e+00  -9.5746657005878807e-05 -1.7913081658338448e-06 0.0000000000000000e+00  -1.1702780651873098e-04 -2.1208149850681668e-06 0.0000000000000000e+00  -1.4146781348735180e-04 -2.4526613819148509e-06 0.0000000000000000e+00  -1.6947845778980542e-04 -2.7606221275203516e-06 0.0000000000000000e+00  -2.0142330572885017e-04 -3.0000868918681735e-06 0.0000000000000000e+00  -2.3756693169503081e-04 -3.1007566602988395e-06 0.0000000000000000e+00  -2.7797755937506374e-04 -2.9590613212880691e-06 0.0000000000000000e+00  -3.2232102722246683e-04 -2.4322081872876502e-06 0.0000000000000000e+00  -3.6942230395393158e-04 -1.3340072892846833e-06 0.0000000000000000e+00  -4.1645036306002617e-04 5.7068168383511788e-07 0.0000000000000000e+00  0.0000000000000000e+00 0.0000000000000000e+00 0.0000000000000000e+00  -1.2747465119632425e-05 -2.5882181878760614e-07 0.0000000000000000e+00  -2.5926197094921569e-05 -5.2530455913709725e-07 0.0000000000000000e+00  -3.9976447542944766e-05 -8.0704269364469386e-07 0.0000000000000000e+00  -5.5354442884610725e-05 -1.1113972715684091e-06 0.0000000000000000e+00  -7.2538462532570596e-05 -1.4451836508939541e-06 0.0000000000000000e+00  -9.2032236383351819e-05 -1.8140740790676712e-06 0.0000000000000000e+00  -1.1436415385211332e-04 -2.2215300144452874e-06 0.0000000000000000e+00  -1.4008019155283097e-04 -2.6669896885206639e-06 0.0000000000000000e+00  -1.6972761578222238e-04 -3.1429200045842970e-06 0.0000000000000000e+00  -2.0382519371645703e-04 -3.6302212786964681e-06 0.0000000000000000e+00  -2.4281338801527573e-04 -4.0914189202582268e-06 0.0000000000000000e+00  -2.8697393835191656e-04 -4.4612433153745083e-06 0.0000000000000000e+00  -3.3630136419873113e-04 -4.6348629124497444e-06 0.0000000000000000e+00  -3.9030074638896956e-04 -4.4556548124866462e-06 0.0000000000000000e+00  -4.4769065744713297e-04 -3.7082847412659702e-06 0.0000000000000000e+00  -5.0605910733761482e-04 -2.1356248225963057e-06 0.0000000000000000e+00  0.0000000000000000e+00 0.0000000000000000e+00 0.0000000000000000e+00  -1.4312614152083455e-05 -2.9445931733652853e-07 0.0000000000000000e+00  -2.9124563438966589e-05 -5.9859771415159607e-07 0.0000000000000000e+00  -4.4947209069933432e-05 -9.2222412088038294e-07 0.0000000000000000e+00  -6.2314205405066735e-05 -1.2753377493570866e-06 0.0000000000000000e+00  -8.1790727289404022e-05 -1.6680975651160187e-06 0.0000000000000000e+00  -1.0397984339379522e-04 -2.1105916642566764e-06 0.0000000000000000e+00  -1.2952416326905225e-04 -2.6122429879392621e-06 0.0000000000000000e+00  -1.5909999580457723e-04 -3.1805698554280474e-06 0.0000000000000000e+00  -1.9340004108385302e-04 -3.8188269467018599e-06 0.0000000000000000e+00  -2.3309908017004694e-04 -4.5217625774544100e-06 0.0000000000000000e+00  -2.7879531974766219e-04 -5.2683517732577510e-06 0.0000000000000000e+00  -3.3091840464417904e-04 -6.0100160759597841e-06 0.0000000000000000e+00  -3.8959495507506488e-04 -6.6528694654626299e-06 0.0000000000000000e+00  -4.5446751161015513e-04 -7.0336598558459816e-06 0.0000000000000000e+00  -5.2448186086626752e-04 -6.8921758934389464e-06 0.0000000000000000e+00  -5.9770683794613190e-04 -5.8464981911458825e-06 0.0000000000000000e+00  0.0000000000000000e+00 0.0000000000000000e+00 0.0000000000000000e+00  -1.5373086005171267e-05 -3.2030674086354879e-07 0.0000000000000000e+00  -3.1301481570132699e-05 -6.5218028003509746e-07 0.0000000000000000e+00  -4.8356115678940096e-05 -1.0075539373340113e-06 0.0000000000000000e+00  -6.7137982375920863e-05 -1.3990748308320638e-06 0.0000000000000000e+00  -8.8291706393937077e-05 -1.8404475734090166e-06 0.0000000000000000e+00  -1.1251669919743064e-04 -2.3467291535226817e-06 0.0000000000000000e+00  -1.4057396575559438e-04 -2.9344821136282522e-06 0.0000000000000000e+00  -1.7328549063141426e-04 -3.6215710535014898e-06 0.0000000000000000e+00  -2.1152158883058197e-04 -4.4261405892919846e-06 0.0000000000000000e+00  -2.5616973376490950e-04 -5.3638464889532131e-06 0.0000000000000000e+00  -3.0807656039806721e-04 -6.4416092615416470e-06 0.0000000000000000e+00  -3.6795400313150372e-04 -7.6449701116305281e-06 0.0000000000000000e+00  -4.3624293779772369e-04 -8.9148349515481100e-06 0.0000000000000000e+00  -5.1293658704067299e-04 -1.0109167493975457e-05 0.0000000000000000e+00  -5.9738472389047541e-04 -1.0948760973127755e-05 0.0000000000000000e+00  -6.8812671942194048e-04 -1.0957478671817129e-05 0.0000000000000000e+00  0.0000000000000000e+00 0.0000000000000000e+00 0.0000000000000000e+00  -1.5872937280050085e-05 -3.3447227043760700e-07 0.0000000000000000e+00  -3.2341209669981736e-05 -6.8202554917421861e-07 0.0000000000000000e+00  -5.0019725024519218e-05 -1.0563413871295114e-06 0.0000000000000000e+00  -6.9562284670827420e-05 -1.4723451002858956e-06 0.0000000000000000e+00  -9.1680565365019967e-05 -1.9469543035134245e-06 0.0000000000000000e+00  -1.1716188888844188e-04 -2.4999838084323988e-06 0.0000000000000000e+00  -1.4688415302807717e-04 -3.1552473785001950e-06 0.0000000000000000e+00  -1.8182497977425324e-04 -3.9418290393944049e-06 0.0000000000000000e+00  -2.2306020843952144e-04 -4.8952893014468188e-06 0.0000000000000000e+00  -2.7174431369868241e-04 -6.0580469348922506e-06 0.0000000000000000e+00  -3.2906251189432297e-04 -7.4770124293442882e-06 0.0000000000000000e+00  -3.9614239197717494e-04 -9.1942806281122419e-06 0.0000000000000000e+00  -4.7391445017934115e-04 -1.1222992601445992e-05 0.0000000000000000e+00  -5.6292015926254853e-04 -1.3496254456476669e-05 0.0000000000000000e+00  -6.6308681447617218e-04 -1.5776860627338285e-05 0.0000000000000000e+00  -7.7351324678527134e-04 -1.7529734630176733e-05 0.0000000000000000e+00  0.0000000000000000e+00 0.0000000000000000e+00 0.0000000000000000e+00  -1.5772216429315869e-05 -3.3543896396217897e-07 0.0000000000000000e+00  -3.2159546413026420e-05 -6.8485720273191828e-07 0.0000000000000000e+00  -4.9800597825399723e-05 -1.0630146948461467e-06 0.0000000000000000e+00  -6.9381899350118620e-05 -1.4863346959699516e-06 0.0000000000000000e+00  -9.1662953533209467e-05 -1.9739949107316027e-06 0.0000000000000000e+00  -1.1750207815879861e-04 -2.5493892773807113e-06 0.0000000000000000e+00  -1.4788220530064208e-04 -3.2421835388099730e-06 0.0000000000000000e+00  -1.8393443977370198e-04 -4.0912569260890849e-06 0.0000000000000000e+00  -2.2695489991823904e-04 -5.1488272732490174e-06 0.0000000000000000e+00  -2.7840684280651612e-04 -6.4857905847925471e-06 0.0000000000000000e+00  -3.3989521107009245e-04 -8.1972466507250497e-06 0.0000000000000000e+00  -4.1309529002984307e-04 -1.0404207647119984e-05 0.0000000000000000e+00  -4.9961407342117496e-04 -1.3240676051631975e-05 0.0000000000000000e+00  -6.0076940427392198e-04 -1.6802871565337028e-05 0.0000000000000000e+00  -7.1730054626235494e-04 -2.1023269509740969e-05 0.0000000000000000e+00  -8.4908544586814153e-04 -2.5440571178335688e-05 0.0000000000000000e+00  0.0000000000000000e+00 0.0000000000000000e+00 0.0000000000000000e+00  -1.5051228351378556e-05 -3.2230765508044896e-07 0.0000000000000000e+00  -3.0712788343006503e-05 -6.5868730074954743e-07 0.0000000000000000e+00  -4.7621804479316297e-05 -1.0240714981191170e-06 0.0000000000000000e+00  -6.6471221468275516e-05 -1.4352526618408358e-06 0.0000000000000000e+00  -8.8040800210218269e-05 -1.9121478417714595e-06 0.0000000000000000e+00  -1.1323161267224212e-04 -2.4795764429785977e-06 0.0000000000000000e+00  -1.4310457522063273e-04 -3.1699448014120363e-06 0.0000000000000000e+00  -1.7892245971694556e-04 -4.0275004080880277e-06 0.0000000000000000e+00  -2.2219254197649845e-04 -5.1152314036019908e-06 0.0000000000000000e+00  -2.7470271757568858e-04 -6.5259797934786682e-06 0.0000000000000000e+00  -3.3853643432629526e-04 -8.3994709507190764e-06 0.0000000000000000e+00  -4.1604045349961363e-04 -1.0945182783751531e-05 0.0000000000000000e+00  -5.0970604642038800e-04 -1.4463013341860703e-05 0.0000000000000000e+00  -6.2191826846702525e-04 -1.9330402590054182e-05 0.0000000000000000e+00  -7.5455523956776337e-04 -2.5875071492491234e-05 0.0000000000000000e+00  -9.0851269363857561e-04 -3.3996475242291583e-05 0.0000000000000000e+00  0.0000000000000000e+00 0.0000000000000000e+00 0.0000000000000000e+00  -1.3714807888197411e-05 -2.9498634297878711e-07 0.0000000000000000e+00  -2.8006918081282210e-05 -6.0324291327034668e-07 0.0000000000000000e+00  -4.3482357699217720e-05 -9.3885586683893671e-07 0.0000000000000000e+00  -6.0808041615242541e-05 -1.3176789644478530e-06 0.0000000000000000e+00  -8.0747435002448672e-05 -1.7585213602178869e-06 0.0000000000000000e+00  -1.0420280041792877e-04 -2.2848236505967590e-06 0.0000000000000000e+00  -1.3226650190000796e-04 -2.9272630965244479e-06 0.0000000000000000e+00  -1.6628355350846319e-04 -3.7281551873338054e-06 0.0000000000000000e+00  -2.0792618959735378e-04 -4.7493816157952518e-06 0.0000000000000000e+00  -2.5927724712258225e-04 -6.0872221935563984e-06 0.0000000000000000e+00  -3.2290998148016566e-04 -7.9002585032460448e-06 0.0000000000000000e+00  -4.0193374116142877e-04 -1.0459998898809396e-05 0.0000000000000000e+00  -4.9994452094159303e-04 -1.4233590075231870e-05 0.0000000000000000e+00  -6.2078333257958320e-04 -1.9985623976654264e-05 0.0000000000000000e+00  -7.6801023508359892e-04 -2.8789327363087394e-05 0.0000000000000000e+00  -9.4419362301989356e-04 -4.1644482107019782e-05 0.0000000000000000e+00  0.0000000000000000e+00 0.0000000000000000e+00 0.0000000000000000e+00  -1.1795968822070947e-05 -2.5427806839938721e-07 0.0000000000000000e+00  -2.4105703331876355e-05 -5.2016765607761765e-07 0.0000000000000000e+00  -3.7471475406948089e-05 -8.0994013604866519e-07 0.0000000000000000e+00  -5.2496838073124320e-05 -1.1372758314151690e-06 0.0000000000000000e+00  -6.9884256139847353e-05 -1.5181224955900064e-06 0.0000000000000000e+00  -9.0482113258772890e-05 -1.9717996405100230e-06 0.0000000000000000e+00  -1.1534578684374823e-04 -2.5225975072899620e-06 0.0000000000000000e+00  -1.4581868386055415e-04 -3.2024690508079538e-06 0.0000000000000000e+00  -1.8363998903946893e-04 -4.0563357695494644e-06 0.0000000000000000e+00  -2.3108483795513792e-04 -5.1538865002189771e-06 0.0000000000000000e+00  -2.9113582864388835e-04 -6.6174800542880518e-06 0.0000000000000000e+00  -3.6766382923285269e-04 -8.6885775957496786e-06 0.0000000000000000e+00  -4.6554571232119681e-04 -1.1879475852207631e-05 0.0000000000000000e+00  -5.9054938773238721e-04 -1.7284348069463242e-05 0.0000000000000000e+00  -7.4870072552028722e-04 -2.7038676045049071e-05 0.0000000000000000e+00  -9.4518011142474172e-04 -4.3819122926424270e-05 0.0000000000000000e+00  0.0000000000000000e+00 0.0000000000000000e+00 0.0000000000000000e+00  -9.3581362904779074e-06 -2.0184177703055229e-07 0.0000000000000000e+00  -1.9136001046774651e-05 -4.1293163582014757e-07 0.0000000000000000e+00  -2.9778818450642683e-05 -6.4296202341990379e-07 0.0000000000000000e+00  -4.1787245747618264e-05 -9.0253289450291505e-07 0.0000000000000000e+00  -5.5752837995662131e-05 -1.2035466315725867e-06 0.0000000000000000e+00  -7.2404392381254082e-05 -1.5594612405469121e-06 0.0000000000000000e+00  -9.2671666210323705e-05 -1.9852180554824039e-06 0.0000000000000000e+00  -1.1777603419015992e-04 -2.4965470527042615e-06 0.0000000000000000e+00  -1.4936210373464031e-04 -3.1083858939538613e-06 0.0000000000000000e+00  -1.8968983356414947e-04 -3.8330661300865756e-06 0.0000000000000000e+00  -2.4191072965631819e-04 -4.6834202069541637e-06 0.0000000000000000e+00  -3.1044452996687030e-04 -5.7029338121821980e-06 0.0000000000000000e+00  -4.0142500244302762e-04 -7.1017864825442257e-06 0.0000000000000000e+00  -5.2301536453092329e-04 -9.7559752063417231e-06 0.0000000000000000e+00  -6.8488592641433412e-04 -1.6907102023719533e-05 0.0000000000000000e+00  -8.9429126594245379e-04 -4.0378550913029028e-05 0.0000000000000000e+00  0.0000000000000000e+00 0.0000000000000000e+00 0.0000000000000000e+00  -6.4951310304272934e-06 -1.4003865026326221e-07 0.0000000000000000e+00  -1.3288408343583294e-05 -2.8647270756448184e-07 0.0000000000000000e+00  -2.0697403516662804e-05 -4.4593709063270567e-07 0.0000000000000000e+00  -2.9082289129706248e-05 -6.2550937567397830e-07 0.0000000000000000e+00  -3.8874023636666315e-05 -8.3271925098582198e-07 0.0000000000000000e+00  -5.0612557344926534e-05 -1.0751110766255720e-06 0.0000000000000000e+00  -6.5001841775850667e-05 -1.3587479824986915e-06 0.0000000000000000e+00  -8.2992732197371236e-05 -1.6842714452458416e-06 0.0000000000000000e+00  -1.0591248558072754e-04 -2.0374187312335605e-06 0.0000000000000000e+00  -1.3567285783195869e-04 -2.3672442039547128e-06 0.0000000000000000e+00  -1.7511142823800843e-04 -2.5380846881519550e-06 0.0000000000000000e+00  -2.2855699721572990e-04 -2.2297654777572058e-06 0.0000000000000000e+00  -3.0276094631614172e-04 -7.5302279639233362e-07 0.0000000000000000e+00  -4.0838729321476802e-04 3.2098080770738563e-06 0.0000000000000000e+00  -5.6222133540462195e-04 1.1686287674671558e-05 0.0000000000000000e+00  -7.9003415297956435e-04 2.6246744585618174e-05 0.0000000000000000e+00  0.0000000000000000e+00 0.0000000000000000e+00 0.0000000000000000e+00  -3.3282272059302985e-06 -7.1716091064510034e-08 0.0000000000000000e+00  -6.8116612877432276e-06 -1.4669417259369605e-07 0.0000000000000000e+00  -1.0616115244861161e-05 -2.2828996172809095e-07 0.0000000000000000e+00  -1.4930796531311271e-05 -3.2000504146058769e-07 0.0000000000000000e+00  -1.9984163314175392e-05 -4.2537035287235792e-07 0.0000000000000000e+00  -2.6065993743527894e-05 -5.4742292089289181e-07 0.0000000000000000e+00  -3.3560245214561212e-05 -6.8717462031412821e-07 0.0000000000000000e+00  -4.2996705688607444e-05 -8.3956161828200329e-07 0.0000000000000000e+00  -5.5136073429745095e-05 -9.8295333492089027e-07 0.0000000000000000e+00  -7.1115995256660979e-05 -1.0516765416980241e-06 0.0000000000000000e+00  -9.2709768052545808e-05 -8.6222471522073759e-07 0.0000000000000000e+00  -1.2278754811316227e-04 9.0124543638810072e-08 0.0000000000000000e+00  -1.6608655174315943e-04 3.1972358893913700e-06 0.0000000000000000e+00  -2.3012551609161318e-04 1.2250755410380705e-05 0.0000000000000000e+00  -3.2428203735460932e-04 3.6801145589782243e-05 0.0000000000000000e+00  -4.4840549338550349e-04 9.4949463770426076e-05 0.0000000000000000e+00  0.0000000000000000e+00 0.0000000000000000e+00 0.0000000000000000e+00  0.0000000000000000e+00 0.0000000000000000e+00 0.0000000000000000e+00  0.0000000000000000e+00 0.0000000000000000e+00 0.0000000000000000e+00  0.0000000000000000e+00 0.0000000000000000e+00 0.0000000000000000e+00  0.0000000000000000e+00 0.0000000000000000e+00 0.0000000000000000e+00  0.0000000000000000e+00 0.0000000000000