<?xml version="1.0"?>
<VTKFile type="UnstructuredGrid"  version="0.1"  >
<UnstructuredGrid>
<Piece  NumberOfPoints="289" NumberOfCells="512">
<Points>
<DataArray  type="Float64"  NumberOfComponents="3"  format="ascii">0 0 0  0.0625 0 0  0.125 0 0  0.1875 0 0  0.25 0 0  0.3125 0 0  0.375 0 0  0.4375 0 0  0.5 0 0  0.5625 0 0  0.625 0 0  0.6875 0 0  0.75 0 0  0.8125 0 0  0.875 0 0  0.9375 0 0  1 0 0  0 0.0625 0  0.06257009190830876 0.06249494291437085 0  0.1251425238667925 0.06248975784823833 0  0.1877196932229103 0.0624843190261223 0  0.2503040911847385 0.06247850631452914 0  0.3128983480387923 0.06247220894220731 0  0.3755052782806225 0.06246532969445455 0  0.4381279327280819 0.06245778824156068 0  0.5007696780767651 0.06244951981540766 0  0.5634343576339048 0.06244045998802962 0  0.6261266724895306 0.06243049346779308 0  0.6888531548270688 0.0624193118470221 0  0.751624781902432 0.06240603045611055 0  0.8144643963100291 0.06238810974902326 0  0.8774291794282134 0.06235805252918108 0  0.9406836537940486 0.0622923355608653 0  1.004756022076515 0.06211223778653305 0  0 0.125 0  0.06263788644332689 0.1249900130728818 0  0.1252804185806596 0.1249797672223767 0  0.1879323595132304 0.1249690074522298 0  0.250598667948371 0.1249574891526564 0  0.313284591796087 0.1249449856209126 0  0.3759957587508403 0.1249312975698607 0  0.4387382718853165 0.1249162632444483 0  0.5015188345150727 0.1248997645509849 0  0.564344965315532 0.124881718102371 0  0.6272254449685557 0.1248620275701168 0  0.6901713036256296 0.1248404517318554 0  0.753197975424316 0.1248163137565431 0  0.8163296577518819 0.1247879946354106 0  0.8796063478313586 0.124752556433262 0  0.9430855280406901 0.1247084023870047 0  1.006777125392396 0.1246769401787414 0  0 0.1875 0  0.06270107531478447 0.1874853417134318 0  0.1254090165492062 0.1874702885210856 0  0.1881308701038991 0.187454450130506 0  0.2508739899416014 0.1874374493495932 0  0.313646183056334 0.1874189331417534 0  0.3764558444271491 0.1873985886480861 0  0.4393120822967471 0.1873761644534883 0  0.5022248426719187 0.1873514950270331 0  0.5652050578694655 0.1873245216299233 0  0.628264868565061 0.1872952948752095 0  0.6914179862185941 0.1872639322491192 0  0.7546801876589259 0.1872304921087 0  0.818069448161054 0.1871947256321965 0  0.8816033755346819 0.1871556646130434 0  0.9452864514436559 0.1871105826466718 0  1.00907210290424 0.1870487524747753 0  0 0.25 0  0.06275744008027738 0.2499810650070955 0  0.1255238245489597 0.2499615931512195 0  0.1883083449306751 0.2499410510479149 0  0.2511206261498928 0.2499189173412391 0  0.3139709309474669 0.2498946958552793 0  0.3768703449825139 0.249867937721507 0  0.439830932419845 0.2498382757262025 0  0.5028658478781471 0.2498054737100339 0  0.5659893821318663 0.2497694924300799 0  0.6292168948415153 0.2497305702548894 0  0.6925645147657844 0.2496893120430465 0  0.7560482805604399 0.2496467727541315 0  0.8196818678946692 0.2496045124653129 0  0.883470931480508 0.2495645722778693 0  0.9474005065678305 0.2495292432616918 0  1.011412369622096 0.2495006854294834 0  0 0.3125 0  0.06280490654430124 0.3124773250053078 0  0.1256206309036292 0.3124539662462116 0  0.1884583088553437 0.3124292395703795 0  0.2513296528456838 0.3124024658590667 0  0.3142472275419254 0.3123729830292369 0  0.3772247018410141 0.3123401709451398 0  0.440277058307749 0.3123034959698338 0  0.5034207275930535 0.3122625839930328 0  0.5666735910170834 0.3122173332803008 0  0.6300547475682816 0.3121680810033921 0  0.6935838486542999 0.3121158387999297 0  0.7572796264630679 0.3120626107041454 0  0.8211569475683977 0.3120117962905443 0  0.8852214111460077 0.3119686584134513 0  0.9494608150420254 0.3119408275542444 0  1.013835713318494 0.3119390250084768 0  0 0.375 0  0.06284160585870659 0.3749742686289991 0  0.1256956263655664 0.3749477055808062 0  0.1885748686611064 0.3749194714194005 0  0.2514928778770031 0.3748887169099807 0  0.3144642996373579 0.3748545886806323 0  0.3775052248336378 0.3748162501724298 0  0.4406334956142121 0.3747729276140848 0  0.5038689337622431 0.3747239955562819 0  0.5672334228458561 0.3746691233906462 0  0.6307507257852594 0.3746085133335468 0  0.6944458388981766 0.3745432703155508 0  0.7583435653218733 0.3744759501965982 0  0.8224658622767362 0.3744113219237942 0  0.8868275214126738 0.3743573251834846 0  0.9514302802520392 0.3743260617180037 0  1.016257177629441 0.3743343265270962 0  0 0.4375 0  0.06286594437170838 0.4374720437524964 0  0.1257455439387184 0.4374431145195969 0  0.1886529220416735 0.4374122203980262 0  0.2516031142848164 0.437378336135203 0  0.3146125332298719 0.4373403958436263 0  0.3776994343999743 0.4372973003095712 0  0.4408843695528709 0.4372479500352344 0  0.5041905966298519 0.4371913222840267 0  0.5676443893980844 0.4371266216399587 0  0.6312751490760634 0.4370535503429089 0  0.6951151604409601 0.4369727673234302 0  0.7591987557678802 0.4368866296231563 0  0.8235605694894255 0.4368003212856181 0  0.8882325497565209 0.4367234328557531 0  0.9532395758853199 0.4366718856982889 0  1.018594013770983 0.4366697358929489 0  0 0.5 0  0.06287668262732571 0.4999707915970221 0  0.1257678196259089 0.4999404870733946 0  0.1886884049435837 0.4999079569894582 0  0.2516545194598223 0.4998720072438946 0  0.3146839067684888 0.4998313520616389 0  0.377796582591968 0.4997845966611236 0  0.4410154800314869 0.499730239432739 0  0.5043671228302029 0.49966671172476 0  0.5678823038206994 0.4995924876408271 0  0.6315967246228316 0.4995063202964024 0  0.6955515236875205 0.4994076995648244 0  0.7597935768012961 0.4992976830326013 0  0.824375375823857 0.4991803197142449 0  0.8893541217219771 0.4990649210788644 0  0.9547893077116442 0.498969301189963 0  1.020737455836164 0.4989235366732483 0  0 0.5625 0  0.06287302094116747 0.562470635167322 0  0.1257607697183573 0.5624400841873025 0  0.1886785728510083 0.5624071115395808 0  0.2516429987690716 0.5623703813042342 0  0.3146725411971232 0.5623284053188308 0  0.3777883785619966 0.5622794916039242 0  0.4410152354016054 0.5622216981122896 0  0.5043823729204073 0.562152804017055 0  0.5679247400381198 0.5620703247348678 0  0.631684328841516 0.5619716238023577 0  0.6957118072968532 0.5618542257151045 0  0.760068547668273 0.5617165273712428 0  0.8248291808771034 0.5615592648832926 0  0.8900845733050609 0.5613883141458883 0  0.9559441171941157 0.5612195332481845 0  1.02253377973507 0.5610857970277544 0  0 0.625 0  0.06285468515678698 0.6249716643249174 0  0.1257237718995288 0.6249421022345433 0  0.1886222971516052 0.624910022835096 0  0.2515666491883936 0.6248740003953447 0  0.3145753377553594 0.6248323963567037 0  0.3776698864117407 0.624783268790937 0  0.4408759008255974 0.6247242662453899 0  0.50422438206415 0.6246525060016764 0  0.5677533828285444 0.6245644449207506 0  0.6315101641972376 0.6244557709502969 0  0.6955541364790854 0.6243213903215057 0  0.7599611167749931 0.6241556941843305 0  0.8248298323607461 0.6239535334460495 0  0.890291871536435 0.6237128414168153 0  0.9565251134654963 0.6234406728592015 0  1.023764859408888 0.6231646564080496 0  0 0.6875 0  0.06282200232626377 0.6874739191598033 0  0.1256574288659611 0.6874466370758592 0  0.1885203426255908 0.6874168771243944 0  0.2514261937985958 0.6873832020775357 0  0.3143926356262641 0.6873439142144318 0  0.3774405038638134 0.6872969293019598 0  0.4405950402183642 0.6872396114603206 0  0.5038874694408703 0.6871685523804744 0  0.5673570921382213 0.6870792749777291 0  0.631054161106919 0.6869658416591199 0  0.6950440472428591 0.6868203615872037 0  0.7594137625620989 0.6866324532480148 0  0.8242831693352912 0.6863889340609928 0  0.8898255277991942 0.6860746977494494 0  0.956303891832966 0.6856777039131934 0  1.02412134154819 0.6852043697892659 0  0 0.75 0  0.06277595315337819 0.7499773743493151 0  0.1255636864804938 0.7499536494310018 0  0.188375579797545 0.7499276471261073 0  0.2512253370647138 0.7498980191001672 0  0.3141287874110062 0.7498631354918077 0  0.3771048764102523 0.7498209369463992 0  0.4401769477315243 0.7497687282000116 0  0.5033744551276161 0.7497028807772163 0  0.5667353107499227 0.749618395444829 0  0.6303092000908883 0.7495082484713277 0  0.6941624786740351 0.7493624049158476 0  0.7583860430949603 0.7491663257973065 0  0.8231098676060943 0.7488987577487849 0  0.8885344832482304 0.748528827437008 0  0.9550050429803537 0.7480145037265817 0  1.023160736823097 0.7473178703245964 0  0 0.8125 0  0.06271818712280079 0.8124819278468528 0  0.125445875868072 0.8124629389467041 0  0.1881930799715993 0.8124420439806409 0  0.2509709588771911 0.812418095507897 0  0.3137925283433478 0.8123896808444097 0  0.3766735633532467 0.8123549746357746 0  0.4396338005387907 0.8123115250260655 0  0.5026985924338974 0.8122559322609985 0  0.5659012327613682 0.8121833528456727 0  0.6292862731134827 0.8120867177704008 0  0.6929143355088041 0.8119554729818705 0  0.7568694340046977 0.8117734966245788 0  0.8212718374298441 0.8115155327579578 0  0.8863085474819633 0.8111408039868442 0  0.9523335373539806 0.8105809253518544 0  1.020249454659704 0.8097135728250912 0  0 0.875 0  0.06265098817661327 0.8749873971978026 0  0.1253086522433498 0.8749741344511798 0  0.1879800444743442 0.8749594958728393 0  0.2506730673150485 0.8749426429076058 0  0.3133970121556309 0.8749225291891916 0  0.3761632598063731 0.8748977806355973 0  0.4389862383217232 0.8748665171811819 0  0.5018847775040647 0.8748260779520142 0  0.5648840586342824 0.8747725866377091 0  0.6280184170614429 0.8747002510546688 0  0.6913352470652285 0.8746002175863736 0  0.7548999979082783 0.8744586713271589 0  0.818801515926602 0.8742536278278348 0  0.8831575795037635 0.8739494735775726 0  0.9481454283454307 0.8734895590717954 0  1.014358783241964 0.8728156233631242 0  0 0.9375 0  0.06257718399194218 0.9374935258424019 0  0.1251578136725293 0.9374867059475031 0  0.1877455350828764 0.9374791640358249 0  0.2503444496445701 0.9374704565960488 0  0.3129594077085637 0.937460025508044 0  0.3755963974656356 0.937447130365104 0  0.4382630891343416 0.937430746302
[...]
<PointData  Vectors="f_54"> 
<DataArray  type="Float64"  Name="f_54"  NumberOfComponents="3" format="ascii">0.0000000000000000e+00 0.0000000000000000e+00 0.0000000000000000e+00  0.0000000000000000e+00 0.0000000000000000e+00 0.0000000000000000e+00  0.0000000000000000e+00 0.0000000000000000e+00 0.0000000000000000e+00  0.0000000000000000e+00 0.0000000000000000e+00 0.0000000000000000e+00  0.0000000000000000e+00 0.0000000000000000e+00 0.0000000000000000e+00  0.0000000000000000e+00 0.0000000000000000e+00 0.0000000000000000e+00  0.0000000000000000e+00 0.0000000000000000e+00 0.0000000000000000e+00  0.0000000000000000e+00 0.0000000000000000e+00 0.0000000000000000e+00  0.0000000000000000e+00 0.0000000000000000e+00 0.0000000000000000e+00  0.0000000000000000e+00 0.0000000000000000e+00 0.0000000000000000e+00  0.0000000000000000e+00 0.0000000000000000e+00 0.0000000000000000e+00  0.0000000000000000e+00 0.0000000000000000e+00 0.0000000000000000e+00  0.0000000000000000e+00 0.0000000000000000e+00 0.0000000000000000e+00  0.0000000000000000e+00 0.0000000000000000e+00 0.0000000000000000e+00  0.0000000000000000e+00 0.0000000000000000e+00 0.0000000000000000e+00  0.0000000000000000e+00 0.0000000000000000e+00 0.0000000000000000e+00  0.0000000000000000e+00 0.0000000000000000e+00 0.0000000000000000e+00  0.0000000000000000e+00 0.0000000000000000e+00 0.0000000000000000e+00  -7.8709360684315803e-07 4.0599564619025481e-09 0.0000000000000000e+00  -1.5869381406692491e-06 8.7612169837876301e-09 0.0000000000000000e+00  -2.4106324334401463e-06 1.4792893905952421e-08 0.0000000000000000e+00  -3.2653608301373867e-06 2.2929724190505590e-08 0.0000000000000000e+00  -4.1515746851953416e-06 3.4049206706097103e-08 0.0000000000000000e+00  -5.0589962512668783e-06 4.9102573748240212e-08 0.0000000000000000e+00  -5.9607625751311902e-06 6.8993725423000787e-08 0.0000000000000000e+00  -6.8045935727313427e-06 9.4280261196979591e-08 0.0000000000000000e+00  -7.4988790021591551e-06 1.2453070137196432e-07 0.0000000000000000e+00  -7.8891063475767259e-06 1.5698939464673687e-07 0.0000000000000000e+00  -7.7133376933061479e-06 1.8371058595156332e-07 0.0000000000000000e+00  -6.5057460408280640e-06 1.8479720897169346e-07 0.0000000000000000e+00  -3.3548702308031254e-06 1.1006633577989492e-07 0.0000000000000000e+00  3.7899636861702184e-06 -1.7862269419505858e-07 0.0000000000000000e+00  2.0366893767131212e-05 -1.1142051287584196e-06 0.0000000000000000e+00  6.3541738153026733e-05 -4.2725406815471569e-06 0.0000000000000000e+00  0.0000000000000000e+00 0.0000000000000000e+00 0.0000000000000000e+00  -1.5630775420483751e-06 7.4883981467768123e-09 0.0000000000000000e+00  -3.1536021618264677e-06 1.6217512702903383e-08 0.0000000000000000e+00  -4.7960247266025289e-06 2.7532839115570146e-08 0.0000000000000000e+00  -6.5076364131675508e-06 4.2975050064596746e-08 0.0000000000000000e+00  -8.2933614451776701e-06 6.4339775017543981e-08 0.0000000000000000e+00  -1.0138354786670310e-05 9.3665754777564500e-08 0.0000000000000000e+00  -1.1997229650318848e-05 1.3307676681645881e-07 0.0000000000000000e+00  -1.3778173936886029e-05 1.8434229434912454e-07 0.0000000000000000e+00  -1.5319109465065769e-05 2.4792092305431771e-07 0.0000000000000000e+00  -1.6350756498232548e-05 3.2108534385384121e-07 0.0000000000000000e+00  -1.6436600202269870e-05 3.9447753067822469e-07 0.0000000000000000e+00  -1.4869872513969399e-05 4.4619935188624881e-07 0.0000000000000000e+00  -1.0491531701760260e-05 4.3322711282309895e-07 0.0000000000000000e+00  -1.3916231837603195e-06 2.8732001219704940e-07 0.0000000000000000e+00  1.5358238866140007e-05 -3.1064405209682456e-08 0.0000000000000000e+00  4.2352617753337901e-05 -1.0817148210744831e-07 0.0000000000000000e+00  0.0000000000000000e+00 0.0000000000000000e+00 0.0000000000000000e+00  -2.3130871896719372e-06 9.6868809531063397e-09 0.0000000000000000e+00  -4.6717517919667501e-06 2.1115662047577430e-08 0.0000000000000000e+00  -7.1178253866460662e-06 3.6202538160014789e-08 0.0000000000000000e+00  -9.6840349257839878e-06 5.7203334586083292e-08 0.0000000000000000e+00  -1.2387234016666751e-05 8.6856895337594812e-08 0.0000000000000000e+00  -1.5218686017897021e-05 1.2846647589758658e-07 0.0000000000000000e+00  -1.8129958894600040e-05 1.8584013975953696e-07 0.0000000000000000e+00  -2.1012558810051798e-05 2.6294444452752664e-07 0.0000000000000000e+00  -2.3668840367801762e-05 3.6302556187972639e-07 0.0000000000000000e+00  -2.5771024128358289e-05 4.8682468471798601e-07 0.0000000000000000e+00  -2.6804734426535039e-05 6.2941982147614154e-07 0.0000000000000000e+00  -2.5995349036986956e-05 7.7539179573828187e-07 0.0000000000000000e+00  -2.2227446983980674e-05 8.9310358466135364e-07 0.0000000000000000e+00  -1.4015421155078540e-05 9.3222363361546337e-07 0.0000000000000000e+00  2.6820918252319826e-07 8.3294026042299728e-07 0.0000000000000000e+00  2.1404495501029317e-05 5.2229951597834201e-07 0.0000000000000000e+00  0.0000000000000000e+00 0.0000000000000000e+00 0.0000000000000000e+00  -3.0188447389808452e-06 1.0156591417578450e-08 0.0000000000000000e+00  -6.1057068651091483e-06 2.2388488077228399e-08 0.0000000000000000e+00  -9.3249252418828987e-06 3.9022406825144187e-08 0.0000000000000000e+00  -1.2731579869526911e-05 6.2895830286344836e-08 0.0000000000000000e+00  -1.6364267917879872e-05 9.7624902206642440e-08 0.0000000000000000e+00  -2.0234440470728359e-05 1.4786104289219751e-07 0.0000000000000000e+00  -2.4310701885671667e-05 2.1947898262639380e-07 0.0000000000000000e+00  -2.8496189313615995e-05 3.1957226206437513e-07 0.0000000000000000e+00  -3.2597046142723743e-05 4.5602527338772985e-07 0.0000000000000000e+00  -3.6280538097349879e-05 6.3627999006064861e-07 0.0000000000000000e+00  -3.9023642456091624e-05 8.6474812696131309e-07 0.0000000000000000e+00  -4.0059558042144541e-05 1.1382339661706411e-06 0.0000000000000000e+00  -3.8346094829875745e-05 1.4389047703502217e-06 0.0000000000000000e+00  -3.2615755689999724e-05 1.7247109971238114e-06 0.0000000000000000e+00  -2.1627069113319863e-05 1.9158776439801815e-06 0.0000000000000000e+00  -4.7671136336136181e-06 1.8669241702323126e-06 0.0000000000000000e+00  0.0000000000000000e+00 0.0000000000000000e+00 0.0000000000000000e+00  -3.6578240873343025e-06 8.5673990786021194e-09 0.0000000000000000e+00  -7.4104408083630638e-06 1.9297780278530610e-08 0.0000000000000000e+00  -1.1349989559805369e-05 3.4675612012202655e-08 0.0000000000000000e+00  -1.5561311973075783e-05 5.7863113540523242e-08 0.0000000000000000e+00  -2.0115566070085713e-05 9.3115296075979185e-08 0.0000000000000000e+00  -2.5060156489047778e-05 1.4627397558652729e-07 0.0000000000000000e+00  -3.0403205733141823e-05 2.2533454275581849e-07 0.0000000000000000e+00  -3.6090465988514338e-05 3.4102389782684293e-07 0.0000000000000000e+00  -4.1972505604289858e-05 5.0721636602550221e-07 0.0000000000000000e+00  -4.7760740769971551e-05 7.4080843834924637e-07 0.0000000000000000e+00  -5.2973492878738734e-05 1.0603249514809059e-06 0.0000000000000000e+00  -5.6879580842284069e-05 1.4819938892056981e-06 0.0000000000000000e+00  -5.8459399047380037e-05 2.0112871019354969e-06 0.0000000000000000e+00  -5.6422466809639761e-05 2.6270388254566267e-06 0.0000000000000000e+00  -4.9335267003685777e-05 3.2546603869863644e-06 0.0000000000000000e+00  -3.5879399805198035e-05 3.7276591632559176e-06 0.0000000000000000e+00  0.0000000000000000e+00 0.0000000000000000e+00 0.0000000000000000e+00  -4.2032657992728532e-06 4.8347302238559451e-09 0.0000000000000000e+00  -8.5314558650862261e-06 1.1602746712457443e-08 0.0000000000000000e+00  -1.3108871046346236e-05 2.2598873849032655e-08 0.0000000000000000e+00  -1.8056731054667070e-05 4.0907175988919075e-08 0.0000000000000000e+00  -2.3489049796852695e-05 7.0948709519832457e-08 0.0000000000000000e+00  -2.9504891014447863e-05 1.1922623579361994e-07 0.0000000000000000e+00  -3.6175016631487635e-05 1.9534294259402506e-07 0.0000000000000000e+00  -4.3520319503814515e-05 3.1335418362314379e-07 0.0000000000000000e+00  -5.1478865383850155e-05 4.9343231868411763e-07 0.0000000000000000e+00  -5.9858272480127778e-05 7.6360673980555922e-07 0.0000000000000000e+00  -6.8271369920116007e-05 1.1608415982764750e-06 0.0000000000000000e+00  -7.6056959796304695e-05 1.7297071810807538e-06 0.0000000000000000e+00  -8.2195525653449352e-05 2.5151168841488081e-06 0.0000000000000000e+00  -8.5241445089350947e-05 3.5429507424085346e-06 0.0000000000000000e+00  -8.3301336588211954e-05 4.7795979271594206e-06 0.0000000000000000e+00  -7.4072564344122261e-05 6.0610080197742081e-06 0.0000000000000000e+00  0.0000000000000000e+00 0.0000000000000000e+00 0.0000000000000000e+00  -4.6251860265763213e-06 -8.1033965847044467e-10 0.0000000000000000e+00  -9.4067436751478058e-06 -2.7657876529452378e-10 0.0000000000000000e+00  -1.4503385725489352e-05 3.2902653723176826e-09 0.0000000000000000e+00  -2.0077122940570319e-05 1.2361563883832451e-08 0.0000000000000000e+00  -2.6292883161933882e-05 3.0803910742050764e-08 0.0000000000000000e+00  -3.3315054160797499e-05 6.4807111033258403e-08 0.0000000000000000e+00  -4.1298842238909295e-05 1.2431286208499204e-07 0.0000000000000000e+00  -5.0373239228039329e-05 2.2518932810588761e-07 0.0000000000000000e+00  -6.0610890785612066e-05 3.9242964615385836e-07 0.0000000000000000e+00  -7.1978384729193444e-05 6.6456202697372415e-07 0.0000000000000000e+00  -8.4258950067225702e-05 1.0990187543485535e-06 0.0000000000000000e+00  -9.6939551352043314e-05 1.7769604812193231e-06 0.0000000000000000e+00  -1.0905820643709970e-04 2.8032182919715990e-06 0.0000000000000000e+00  -1.1901792032339077e-04 4.2917150520642770e-06 0.0000000000000000e+00  -1.2439152473161643e-04 6.3190700805146683e-06 0.0000000000000000e+00  -1.2175975422725359e-04 8.8230249208122316e-06 0.0000000000000000e+00  0.0000000000000000e+00 0.0000000000000000e+00 0.0000000000000000e+00  -4.8924261103707328e-06 -7.7806167088064317e-09 0.0000000000000000e+00  -9.9709503210391901e-06 -1.5151355098890695e-08 0.0000000000000000e+00  -1.5427691534418809e-05 -2.1453001216445976e-08 0.0000000000000000e+00  -2.1466193352550683e-05 -2.5425951557738555e-08 0.0000000000000000e+00  -2.8306179805209472e-05 -2.4659447268353302e-08 0.0000000000000000e+00  -3.6186489021417729e-05 -1.4653418209605206e-08 0.0000000000000000e+00  -4.5364298121162368e-05 1.2798435290816432e-08 0.0000000000000000e+00  -5.6107184764426025e-05 7.2371291530350943e-08 0.0000000000000000e+00  -6.8671975602043359e-05 1.8983025731874295e-07 0.0000000000000000e+00  -8.3260305841269112e-05 4.0949011449612307e-07 0.0000000000000000e+00  -9.9935191477136024e-05 8.0556834362934961e-07 0.0000000000000000e+00  -1.1847655271914107e-04 1.4977306550084964e-06 0.0000000000000000e+00  -1.3815004736548924e-04 2.6680297951480409e-06 0.0000000000000000e+00  -1.5737126649353582e-04 4.5681302905122829e-06 0.0000000000000000e+00  -1.7327978340482653e-04 7.4886153123985894e-06 0.0000000000000000e+00  -1.8130176703398052e-04 1.1636680209695029e-05 0.0000000000000000e+00  0.0000000000000000e+00 0.0000000000000000e+00 0.0000000000000000e+00  -4.9756693930264866e-06 -1.5148364631469026e-08 0.0000000000000000e+00  -1.0161636295265976e-05 -3.1072542131790163e-08 0.0000000000000000e+00  -1.5778211169330286e-05 -4.8480216176925817e-08 0.0000000000000000e+00  -2.2066167418568519e-05 -6.7861212690562777e-08 0.0000000000000000e+00  -2.9297660362249709e-05 -8.9171523490729772e-08 0.0000000000000000e+00  -3.7787463904195788e-05 -1.1116111749176643e-07 0.0000000000000000e+00  -4.7903500190635159e-05 -1.3000492000242832e-07 0.0000000000000000e+00  -6.0073925573063897e-05 -1.3660349718117738e-07 0.0000000000000000e+00  -7.4784684668871939e-05 -1.1140151181436541e-07 0.0000000000000000e+00  -9.2555221039410771e-05 -1.4714021797958112e-08 0.0000000000000000e+00  -1.1386928111120554e-04 2.3069323082212465e-07 0.0000000000000000e+00  -1.3902121960785447e-04 7.6928234841578932e-07 0.0000000000000000e+00  -1.6781817176148115e-04 1.8586492221548231e-06 0.0000000000000000e+00  -1.9906843363294829e-04 3.9276602681958272e-06 0.0000000000000000e+00  -2.2982317207721734e-04 7.6149351880777855e-06 0.0000000000000000e+00  -2.5447836033063321e-04 1.3694041415496449e-05 0.0000000000000000e+00  0.0000000000000000e+00 0.0000000000000000e+00 0.0000000000000000e+00  -4.8511970296138612e-06 -2.1738806043810044e-08 0.0000000000000000e+00  -9.9272101897679175e-06 -4.5510901334373960e-08 0.0000000000000000e+00  -1.5466581623505418e-05 -7.3529143465718698e-08 0.0000000000000000e+00  -2.1736963373345941e-05 -1.0833844352221853e-07 0.0000000000000000e+00  -2.9052461198845938e-05 -1.5290955401246643e-07 0.0000000000000000e+00  -3.7794270646236966e-05 -2.1055631136386504e-07 0.0000000000000000e+00  -4.8435294013169686e-05 -2.8441025508663730e-07 0.0000000000000000e+00  -6.1568283888553308e-05 -3.7585481742387056e-07 0.0000000000000000e+00  -7.7934079365097396e-05 -4.8061957713210683e-07 0.0000000000000000e+00  -9.8439535053339956e-05 -5.7978845257267133e-07 0.0000000000000000e+00  -1.2413976220913619e-04 -6.2011883442353450e-07 0.0000000000000000e+00  -1.5612984169875298e-04 -4.7288220221730077e-07 0.0000000000000000e+00  -1.9524048127644874e-04 1.4727724617801294e-07 0.0000000000000000e+00  -2.4136623855596491e-04 1.8268839740582142e-06 0.0000000000000000e+00  -2.9223496142025048e-04 5.6597293576631674e-06 0.0000000000000000e+00  -3.4164255212253705e-04 1.3369861415581388e-05 0.0000000000000000e+00  0.0000000000000000e+00 0.0000000000000000e+00 0.0000000000000000e+00  -4.5049670320966243e-06 -2.6308176754587476e-08 0.0000000000000000e+00  -9.2357098849480901e-06 -5.5732263386556125e-08 0.0000000000000000e+00  -1.4434436006766213e-05 -9.1832160668200333e-08 0.0000000000000000e+00  -2.0379039421079024e-05 -1.3910956135038527e-07 0.0000000000000000e+00  -2.7405934432041878e-05 -2.0361762925393965e-07 0.0000000000000000e+00  -3.5939548175831695e-05 -2.9371743850018946e-07 0.0000000000000000e+00  -4.6531639851571086e-05 -4.2095385576203359e-07 0.0000000000000000e+00  -5.9914037653154103e-05 -6.0082529292238032e-07 0.0000000000000000e+00  -7.7067771337734962e-05 -8.5266695198624533e-07 0.0000000000000000e+00  -9.9307535680877805e-05 -1.1963976399598631e-06 0.0000000000000000e+00  -1.2836693043005343e-04 -1.6401245304893170e-06 0.0000000000000000e+00  -1.6643305337185922e-04 -2.1433246936365419e-06 0.0000000000000000e+00  -2.1599049036336186e-04 -2.5186112812703476e-06 0.0000000000000000e+00  -2.7915302130541840e-04 -2.1900264873457904e-06 0.0000000000000000e+00  -3.5589541259329233e-04 3.3783950778875070e-07 0.0000000000000000e+00  -4.4058860597594570e-04 8.3840172039045299e-06 0.0000000000000000e+00  0.0000000000000000e+00 0.0000000000000000e+00 0.0000000000000000e+00  -3.9364086107814732e-06 -2.7787419269938727e-08 0.0000000000000000e+00  -8.0831582377763319e-06 -5.9334901984249942e-08 0.0000000000000000e+00  -1.2667986717583722e-05 -9.9054556626124002e-08 0.0000000000000000e+00  -1.7957061092929995e-05 -1.5279980505947211e-07 0.0000000000000000e+00  -2.4280891750248288e-05 -2.2895140448180098e-07 0.0000000000000000e+00  -3.2069771934063465e-05 -3.4003030510545433e-07 0.0000000000000000e+00  -4.1904569271819995e-05 -5.0516922945623442e-07 0.0000000000000000e+00  -5.4591517402201717e-05 -7.5390803686383345e-07 0.0000000000000000e+00  -7.1273618712227726e-05 -1.1318609625390079e-06 0.0000000000000000e+00  -9.3595599117577653e-05 -1.7084989678636327e-06 0.0000000000000000e+00  -1.2393974941393943e-04 -2.5853778149135098e-06 0.0000000000000000e+00  -1.6573040460595811e-04 -3.8954561809177357e-06 0.0000000000000000e+00  -2.2371401594680545e-04 -5.7567825156086981e-06 0.0000000000000000e+00  -3.0381662321138744e-04 -8.0515712831583539e-06 0.0000000000000000e+00  -4.1136487307178327e-04 -9.6129125326519952e-06 0.0000000000000000e+00  -5.4542258666944615e-04 -5.7659574856445211e-06 0.0000000000000000e+00  0.0000000000000000e+00 0.0000000000000000e+00 0.0000000000000000e+00  -3.1611863973600432e-06 -2.5542503712610797e-08 0.0000000000000000e+00  -6.4998618680865468e-06 -5.4843632476509859e-08 0.0000000000000000e+00  -1.0209601899124426e-05 -9.2391094112586289e-08 0.0000000000000000e+00  -1.4519957650605618e-05 -1.4432024929070667e-07 0.0000000000000000e+00  -1.9721685551823608e-05 -2.1975181627894014e-07 0.0000000000000000e+00  -2.6202717263514907e-05 -3.3293248898568009e-07 0.0000000000000000e+00  -3.4502441500556054e-05 -5.0683350743466444e-07 0.0000000000000000e+00  -4.5396984447287886e-05 -7.7938767110358574e-07 0.0000000000000000e+00  -6.0037400981546125e-05 -1.2145380691736806e-06 0.0000000000000000e+00  -8.0179121505644609e-05 -1.9221236860046980e-06 0.0000000000000000e+00  -1.0856896340913003e-04 -3.0939239413725404e-06 0.0000000000000000e+00  -1.4959675603234233e-04 -5.0681342840735979e-06 0.0000000000000000e+00  -2.1034412221233111e-04 -8.4365443513100811e-06 0.0000000000000000e+00  -3.0198768256518567e-04 -1.4169899816156704e-05 0.0000000000000000e+00  -4.4017669158272178e-04 -2.3392945091444221e-05 0.0000000000000000e+00  -6.3536879845589405e-04 -3.3698021977331740e-05 0.0000000000000000e+00  0.0000000000000000e+00 0.0000000000000000e+00 0.0000000000000000e+00  -2.2121860368072329e-06 -1.9579319153439633e-08 0.0000000000000000e+00  -4.5529434685371042e-06 -4.2194603177912280e-08 0.0000000000000000e+00  -7.1632232686061906e-06 -7.1511561458566228e-08 0.0000000000000000e+00  -1.0211896802364684e-05 -1.1263786761367432e-07 0.0000000000000000e+00  -1.3915872894335565e-05 -1.7334488422767785e-07 0.0000000000000000e+00  -1.8569607090675133e-05 -2.6610291056167348e-07 0.0000000000000000e+00  -2.4591232324554792e-05 -4.1166719941586389e-07 0.0000000000000000e+00  -3.2598322808770283e-05 -6.4565631138572275e-07 0.0000000000000000e+00  -4.3537961791570330e-05 -1.0310679424584665e-06 0.0000000000000000e+00  -5.8920151626931536e-05 -1.6830158391499977e-06 0.0000000000000000e+00  -8.1256550787437776e-05 -2.8197683618948225e-06 0.0000000000000000e+00  -1.1492550661444175e-04 -4.8736163870361375e-06 0.0000000000000000e+00  -1.6795642361073116e-04 -8.7482668750810195e-06 0.0000000000000000e+00  -2.5583723666086362e-04 -1.6476468906077574e-05 0.0000000000000000e+00  -4.0971487592057781e-04 -3.3187399493124317e-05 0.0000000000000000e+00  -6.9413224750632552e-04 -7.5087166604725290e-05 0.0000000000000000e+00  0.0000000000000000e+00 0.0000000000000000e+00 0.0000000000000000e+00  -1.1381735515071547e-06 -1.0619252179161749e-08 0.0000000000000000e+00  -2.3437870758856514e-06 -2.2932015964822799e-08 0.0000000000000000e+00  -3.6909852360296548e-06 -3.8995492889205908e-08 0.0000000000000000e+00  -5.2691054609110017e-06 -6.1705303860705577e-08 0.0000000000000000e+00  -7.1937852887611121e-06 -9.5521152816470034e-08 0.0000000000000000e+00  -9.6235074193272564e-06 -1.4769929687469283e-07 0.0000000000000000e+00  -1.2785964344749027e-05 -2.3051159820331093e-07 0.0000000000000000e+00  -1.7022431981186401e-05 -3.6541743532710963e-07 0.0000000000000000e+00  -2.2866463111484048e-05 -5.9122564700627463e-07 0.0000000000000000e+00  -3.1191557214895000e-05 -9.8072995853403143e-07 0.0000000000000000e+00  -4.3506866245511072e-05 -1.6761072202154471e-06 0.0000000000000000e+00  -6.2595983360941402e-05 -2.9675765331768385e-06 0.0000000000000000e+00  -9.4020399606126669e-05 -5.4746592905943865e-06 0.0000000000000000e+00  -1.4997283213515135e-04 -1.0566125777157209e-05 0.0000000000000000e+00  -2.5957158651606618e-04 -2.1218511932906862e-05 0.0000000000000000e+00  -4.9114720863594071e-04 -4.2453974523108147e-05 0.0000000000000000e+00  0.0000000000000000e+00 0.0000000000000000e+00 0.0000000000000000e+00  0.0000000000000000e+00 0.0000000000000000e+00 0.0000000000000000e+00  0.0000000000000000e+00 0.0000000000000000e+00 0.0000000000000000e+00  0.0000000000000000e+00 0.0000000000000000e+00 0.0000000000000000e+00  0.0000000000000000e+00 0.0000000000000000e+00 0.0000000000000000e+00  0.0000000000000000e+00 0.0000000000000000e+00 0.0000000000000000e+00  0.0000000000000000e+00 0.0000000000000000e+00 0.0000000000000000e+00  0.00000000000000