<?xml version="1.0"?>
<VTKFile type="UnstructuredGrid"  version="0.1"  >
<UnstructuredGrid>
<Piece  NumberOfPoints="289" NumberOfCells="512">
<Points>
<DataArray  type="Float64"  NumberOfComponents="3"  format="ascii">0 0 0  0.0625 0 0  0.125 0 0  0.1875 0 0  0.25 0 0  0.3125 0 0  0.375 0 0  0.4375 0 0  0.5 0 0  0.5625 0 0  0.625 0 0  0.6875 0 0  0.75 0 0  0.8125 0 0  0.875 0 0  0.9375 0 0  1 0 0  0 0.0625 0  0.06257111723283044 0.06249311925980408 0  0.1251445828309566 0.06248608027056534 0  0.1877228028704725 0.0624787302282338 0  0.2503082705106214 0.06247092957854043 0  0.3129036067884097 0.06246256064787972 0  0.3755115996889478 0.06245353794210524 0  0.4381352475916401 0.06244381880320915 0  0.5007778257760328 0.06243341010344797 0  0.5634430258248126 0.06242236015058637 0  0.6261352973585361 0.06241071044611315 0  0.6888607363184805 0.06239834696627973 0  0.7516294833802998 0.06238459686961664 0  0.8144625045129658 0.06236713390861844 0  0.8774118533266115 0.06233881893308349 0  0.9406248077931597 0.0622778788193106 0  1.004558522062237 0.06211754407960825 0  0 0.125 0  0.06263991451409885 0.1249863960270351 0  0.1252844956658264 0.1249724689579065 0  0.1879385291030835 0.1249579056654391 0  0.2506069851122778 0.1249424177285395 0  0.3132951054723814 0.1249257584711391 0  0.3760084853334308 0.1249077446624295 0  0.4387531574146464 0.1248882818611962 0  0.5015357017725112 0.1248673882519337 0  0.5643634402033425 0.1248452034455569 0  0.6272448518654112 0.1248219526693825 0  0.6901905067180385 0.1247978084198427 0  0.7532151085371069 0.12477255134817 0  0.8163415981357607 0.1247449250151593 0  0.8796076304982016 0.1247118996732456 0  0.9430666551193296 0.1246701790514997 0  1.006728500354681 0.1246323483364669 0  0 0.1875 0  0.06270407050233509 0.1874799957892817 0  0.1254150469305903 0.1874594918495616 0  0.1881400190488899 0.1874380009978584 0  0.2508863718494614 0.1874150682841272 0  0.313661924002181 0.1873902954153061 0  0.3764750544778821 0.1873633747303831 0  0.4393348184145727 0.1873341342400829 0  0.5022510621146774 0.1873025920982619 0  0.5652345641430141 0.1872690123300317 0  0.6282972555730854 0.1872339415271973 0  0.6914525909680057 0.1871981864775396 0  0.7547160660576964 0.1871626657230887 0  0.8181053916695306 0.1871280374322369 0  0.8816380185773123 0.1870939349149515 0  0.9453187900411566 0.1870570765390558 0  1.00910395060559 0.1870033823606015 0  0 0.25 0  0.06276134888189384 0.2499740956666562 0  0.1255317084387688 0.2499475001211432 0  0.1883203417283039 0.2499195340194107 0  0.2511369340204351 0.2498895509287404 0  0.3139917914547703 0.2498569662291157 0  0.3768960201121417 0.2498213017898511 0  0.4398616765832872 0.2497822523556712 0  0.5029018787817728 0.2497397790955331 0  0.5660308597142589 0.2496942334783588 0  0.6292639260439465 0.2496465089892167 0  0.6926172135778034 0.2495982071958244 0  0.7561069247956128 0.2495517859790038 0  0.8197471997693991 0.2495106270803908 0  0.8835446452152474 0.2494789049671647 0  0.9474859892284829 0.2494610630716665 0  1.01151589789174 0.249461118134933 0  0 0.3125 0  0.0628096509341222 0.31246888745006 0  0.1256302189762173 0.3124368777920124 0  0.1884729459667694 0.3124030804224081 0  0.2513496423132875 0.3123666281196015 0  0.3142729589586666 0.3123267047586077 0  0.3772566364896554 0.3122825947945234 0  0.440315714470794 0.3122337657340144 0  0.5034666727828996 0.3121799981400828 0  0.5667274554859641 0.3121215813932455 0  0.6301172845429096 0.312059596355717 0  0.6936560806092043 0.3119963056871494 0  0.7573631287007606 0.3119356635085846 0  0.8212543210631034 0.3118839292066939 0  0.8853369814693546 0.311850318288279 0  0.9496016046756988 0.3118475851128467 0  1.014012945011273 0.3118926411256009 0  0 0.375 0  0.06284707605654045 0.3749645771431867 0  0.1257067041938245 0.3749280422935596 0  0.1885918365020378 0.3748892787466779 0  0.2515161594079234 0.3748471705225609 0  0.314494455162196 0.3748006202839556 0  0.3775429468962867 0.3747485925620691 0  0.4406796088847855 0.3746901981634134 0  0.5039244085187241 0.3746248432762385 0  0.5672994206982004 0.3745524776541136 0  0.6308287106963714 0.3744739902304803 0  0.6945378054515451 0.3743918151342802 0  0.7584524548256283 0.3743108176765254 0  0.8225962448377224 0.3742395068601088 0  0.8869866062754748 0.3741915259057238 0  0.9516292845709068 0.3741871394567158 0  1.016513082157463 0.3742539576034052 0  0 0.4375 0  0.06287199245985349 0.4374613795200427 0  0.1257578182998757 0.4374214347772882 0  0.188671786344016 0.4373788193492631 0  0.2516291194041325 0.4373321504924954 0  0.3146464205859214 0.437280006516355 0  0.3777421423433616 0.4372209481683086 0  0.4409370472974689 0.4371535821081316 0  0.5042546366994038 0.4370766960734856 0  0.5677215018970626 0.4369895136170923 0  0.6313675224090567 0.4368921437047532 0  0.6952257858316417 0.436786337713471 0  0.7593320352022948 0.4366767068748811 0  0.8237233654091513 0.4365725698872945 0  0.888435836966746 0.4364905230676757 0  0.9535007668171728 0.4364575270023061 0  1.018939788054381 0.4365136837306389 0  0 0.5 0  0.06288311851937912 0.4999595065124884 0  0.1257809096221893 0.499917497255439 0  0.1887085916978105 0.4998724115473028 0  0.2516824778629193 0.4998226025949672 0  0.3147205558901349 0.4997663033755887 0  0.3778431027824036 0.499701608549128 0  0.4410733392280832 0.4996264883673508 0  0.5044381235251584 0.499538864021781 0  0.5679686784307536 0.4994367975167457 0  0.6317013396984218 0.499318889491609 0  0.6956783129333751 0.4991850441634598 0  0.7599484179240084 0.4990378584045956 0  0.8245677475364075 0.4988850090943081 0  0.8895999615692733 0.4987430666425849 0  0.9551153741421818 0.4986429013949386 0  1.021186937785535 0.4986357948437412 0  0 0.5625 0  0.0628796121593836 0.5624591490792775 0  0.1257742055696404 0.5624166353498439 0  0.1886993648994273 0.5623707255934851 0  0.2516719311891759 0.562319543344326 0  0.3147106918776272 0.5622609950552899 0  0.3778371468341802 0.5621926971783874 0  0.441076378580437 0.562111912399975 0  0.5044580609370317 0.5620155149473551 0  0.5680176564941833 0.561900028102422 0  0.6317978924253417 0.561761822697831 0  0.695850686073463 0.5615976536985077 0  0.7602398281115382 0.5614058772991463 0  0.8250448595269391 0.5611889761862331 0  0.8903663891595585 0.5609584153034377 0  0.956331783828208 0.5607430427350465 0  1.023096644542555 0.5606011202547326 0  0 0.625 0  0.06286116165902347 0.6249604535643905 0  0.1257370039076969 0.6249191683362616 0  0.1886428461175704 0.6248743110014844 0  0.2515953806210678 0.6248238496746505 0  0.3146134521927622 0.6247654382146902 0  0.377718958316011 0.6246962809845251 0  0.44093792414625 0.6246129731832639 0  0.504301825158751 0.6245113167594342 0  0.5678492717655794 0.6243861252310221 0  0.6316282642088794 0.6242310642725487 0  0.6956994366888425 0.6240386564997188 0  0.7601411421953692 0.6238007736083229 0  0.8250579569560456 0.6235103898732813 0  0.8905948513126155 0.6231663253273642 0  0.9569579565073849 0.6227842036517938 0  1.024434800423448 0.6224167098878914 0  0 0.6875 0  0.06282806718314927 0.6874634952254116 0  0.1256698482971299 0.6874252719135 0  0.1885396990273343 0.6873834993994438 0  0.2514533910612038 0.6873361066350608 0  0.3144289405961648 0.6872806314023296 0  0.3774875979090508 0.6872140284915502 0  0.440655075524514 0.6871324160831328 0  0.5039631218310472 0.6870307334822839 0  0.5674516057639407 0.6869022771522788 0  0.63117141320891 0.6867380810235825 0  0.6951887925218806 0.6865261299062306 0  0.759592630687417 0.6862505040605203 0  0.8245081057015879 0.6858909565791096 0  0.8901238821370407 0.6854247871491069 0  0.9567433071456393 0.684836962786283 0  1.024858768401087 0.6841515632804047 0  0 0.75 0  0.06278129917727784 0.7499682532078993 0  0.1255746588669577 0.7499349228510016 0  0.1883927427450843 0.7498983071575087 0  0.2512495735622697 0.7498564474292793 0  0.3141613506545413 0.7498069587343565 0  0.3771474554766278 0.7497468032213295 0  0.4402317397866115 0.7496719715340934 0  0.5034442251515284 0.7495770203717327 0  0.566823400985773 0.7494543858222948 0  0.630419432855744 0.7492933457207717 0  0.6942989290624051 0.7490784290257475 0  0.7585529552609375 0.7487869569607446 0  0.8233132872610305 0.7483852970984728 0  0.8887916698673074 0.7478237729741545 0  0.955379991398306 0.7470340424456211 0  1.023854505034131 0.7459613301342768 0  0 0.8125 0  0.06272251861141981 0.8124745922327258 0  0.1254547854749293 0.8124478571728488 0  0.1882070656495374 0.8124183583124371 0  0.2509908076650992 0.8123844195008441 0  0.3138193739696126 0.8123439616116477 0  0.3767089638539419 0.8122942765708707 0  0.439679830338626 0.8122316980373148 0  0.5027579272351559 0.8121511042532962 0  0.5659771662682521 0.8120451474605864 0  0.629382518078455 0.8119030311411664 0  0.6930342974304649 0.8117085187899641 0  0.7570144388077127 0.8114365773032193 0  0.8214380552503406 0.8110474346324008 0  0.8864860394150637 0.8104753555082259 0  0.9525325804568565 0.8096055589397614 0  1.020692043713734 0.8082144932652989 0  0 0.875 0  0.06265404584612237 0.8749822561395035 0  0.1253149542480876 0.8749635535791492 0  0.1879899694967745 0.8749428492974813 0  0.2506872203522378 0.8749189140806374 0  0.3134162790149304 0.8748902027361894 0  0.3761888853870035 0.8748546707575032 0  0.439019929546709 0.8748095013094928 0  0.5019288192182805 0.8747506844385924 0  0.5649413896274823 0.8746723531486511 0  0.6280924922655223 0.8745657182582188 0  0.6914291763347218 0.8744173369600599 0  0.7550135775793551 0.8742062535476723 0  0.8189227262222241 0.8738991281963863 0  0.8832414954029393 0.8734415475640775 0  0.9480736982451391 0.8727443772120009 0  1.013933130913378 0.8717063038404959 0  0 0.9375 0  0.06257877011401888 0.937490876908078 0  0.1251610881940382 0.9374812506248467 0  0.1877507066451777 0.9374705719125156 0  0.2503518551130407 0.9374581894745486 0  0.3129695482765524 0.937443277839222 0  0.375609993734653 0.9374247342169298 0  0.4382811607581765 0.93740102297414
[...]
<PointData  Vectors="f_54"> 
<DataArray  type="Float64"  Name="f_54"  NumberOfComponents="3" format="ascii">0.0000000000000000e+00 0.0000000000000000e+00 0.0000000000000000e+00  0.0000000000000000e+00 0.0000000000000000e+00 0.0000000000000000e+00  0.0000000000000000e+00 0.0000000000000000e+00 0.0000000000000000e+00  0.0000000000000000e+00 0.0000000000000000e+00 0.0000000000000000e+00  0.0000000000000000e+00 0.0000000000000000e+00 0.0000000000000000e+00  0.0000000000000000e+00 0.0000000000000000e+00 0.0000000000000000e+00  0.0000000000000000e+00 0.0000000000000000e+00 0.0000000000000000e+00  0.0000000000000000e+00 0.0000000000000000e+00 0.0000000000000000e+00  0.0000000000000000e+00 0.0000000000000000e+00 0.0000000000000000e+00  0.0000000000000000e+00 0.0000000000000000e+00 0.0000000000000000e+00  0.0000000000000000e+00 0.0000000000000000e+00 0.0000000000000000e+00  0.0000000000000000e+00 0.0000000000000000e+00 0.0000000000000000e+00  0.0000000000000000e+00 0.0000000000000000e+00 0.0000000000000000e+00  0.0000000000000000e+00 0.0000000000000000e+00 0.0000000000000000e+00  0.0000000000000000e+00 0.0000000000000000e+00 0.0000000000000000e+00  0.0000000000000000e+00 0.0000000000000000e+00 0.0000000000000000e+00  0.0000000000000000e+00 0.0000000000000000e+00 0.0000000000000000e+00  0.0000000000000000e+00 0.0000000000000000e+00 0.0000000000000000e+00  9.3482438473123536e-07 -3.0147359517619059e-08 0.0000000000000000e+00  1.9115122283376673e-06 -6.2071191253654027e-08 0.0000000000000000e+00  2.9746211547625657e-06 -9.7721547478036680e-08 0.0000000000000000e+00  4.1738902356241678e-06 -1.3940441391909532e-07 0.0000000000000000e+00  5.5674770725285523e-06 -1.9002240383124548e-07 0.0000000000000000e+00  7.2261142597726578e-06 -2.5340513784746830e-07 0.0000000000000000e+00  9.2388684083308345e-06 -3.3479292017045077e-07 0.0000000000000000e+00  1.1721809391009097e-05 -4.4159198133414376e-07 0.0000000000000000e+00  1.4832388043235622e-05 -5.8465422522977564e-07 0.0000000000000000e+00  1.8796118962714185e-05 -7.8070338492378513e-07 0.0000000000000000e+00  2.3962558098705202e-05 -1.0576444490036601e-06 0.0000000000000000e+00  3.0938222038071680e-05 -1.4681637043576635e-06 0.0000000000000000e+00  4.0941772454787045e-05 -2.1300441906890121e-06 0.0000000000000000e+00  5.6863096617314600e-05 -3.3609885084850868e-06 0.0000000000000000e+00  8.6769131546907951e-05 -6.1769210507394632e-06 0.0000000000000000e+00  1.5699763469437003e-04 -1.4347172712092862e-05 0.0000000000000000e+00  0.0000000000000000e+00 0.0000000000000000e+00 0.0000000000000000e+00  1.8297719875060956e-06 -5.8583267923843203e-08 0.0000000000000000e+00  3.7411872723470703e-06 -1.2056887867765392e-07 0.0000000000000000e+00  5.8210782136620229e-06 -1.8968561957141887e-07 0.0000000000000000e+00  8.1662710310167582e-06 -2.7033162975154644e-07 0.0000000000000000e+00  1.0889758777968004e-05 -3.6802325144017970e-07 0.0000000000000000e+00  1.4128487425146493e-05 -4.9000284697161775e-07 0.0000000000000000e+00  1.8053810812484368e-05 -6.4610578139785651e-07 0.0000000000000000e+00  2.2886432720112655e-05 -8.5004874496870279e-07 0.0000000000000000e+00  2.8919259583851314e-05 -1.1214207974236418e-06 0.0000000000000000e+00  3.6555029566123250e-05 -1.4888888566869561e-06 0.0000000000000000e+00  4.6372903757133193e-05 -1.9955322583556269e-06 0.0000000000000000e+00  5.9252708330917888e-05 -2.7075938550766056e-06 0.0000000000000000e+00  7.6607263928613035e-05 -3.7259951545583201e-06 0.0000000000000000e+00  1.0076273872049097e-04 -5.1810889091771262e-06 0.0000000000000000e+00  1.3518676875435431e-04 -7.0735042912112607e-06 0.0000000000000000e+00  1.8181275803738652e-04 -8.1692176236606482e-06 0.0000000000000000e+00  0.0000000000000000e+00 0.0000000000000000e+00 0.0000000000000000e+00  2.6448948096551825e-06 -8.3677677150621843e-08 0.0000000000000000e+00  5.4068357659977189e-06 -1.7208619287093233e-07 0.0000000000000000e+00  8.4101279787129246e-06 -2.7039454458806612e-07 0.0000000000000000e+00  1.1793097751176352e-05 -3.8467047365974881e-07 0.0000000000000000e+00  1.5716620534579840e-05 -5.2247657781315346e-07 0.0000000000000000e+00  2.0374630560927635e-05 -6.9366526541463991e-07 0.0000000000000000e+00  2.6007675465888219e-05 -9.1148273403436775e-07 0.0000000000000000e+00  3.2921037114498763e-05 -1.1941339664458236e-06 0.0000000000000000e+00  4.1509663009965104e-05 -1.5670097927809603e-06 0.0000000000000000e+00  5.2293129290892265e-05 -2.0657982133863935e-06 0.0000000000000000e+00  6.5964450588846231e-05 -2.7405529999292192e-06 0.0000000000000000e+00  8.3453459830243505e-05 -3.6599918726466684e-06 0.0000000000000000e+00  1.0598595412014426e-04 -4.9125032750384944e-06 0.0000000000000000e+00  1.3504319482770603e-04 -6.5933248481117240e-06 0.0000000000000000e+00  1.7189614482747103e-04 -8.7633847463184049e-06 0.0000000000000000e+00  2.1597917262346702e-04 -1.1477128463666095e-05 0.0000000000000000e+00  0.0000000000000000e+00 0.0000000000000000e+00 0.0000000000000000e+00  3.3447012303344988e-06 -1.0410105658496935e-07 0.0000000000000000e+00  6.8355385983369443e-06 -2.1385566600259180e-07 0.0000000000000000e+00  1.0627396866750206e-05 -3.3541270633810229e-07 0.0000000000000000e+00  1.4892159645509697e-05 -4.7593875785861396e-07 0.0000000000000000e+00  1.9828904120332052e-05 -6.4428622967934947e-07 0.0000000000000000e+00  2.5676213281976250e-05 -8.5187423808964879e-07 0.0000000000000000e+00  3.2727509467456341e-05 -1.1138914672389729e-06 0.0000000000000000e+00  4.1350378134733888e-05 -1.4509573896146883e-06 0.0000000000000000e+00  5.2010661973787138e-05 -1.8913901195160877e-06 0.0000000000000000e+00  6.5301099792073954e-05 -2.4741737265388630e-06 0.0000000000000000e+00  8.1970980840204036e-05 -3.2524667085857738e-06 0.0000000000000000e+00  1.0294403107888515e-04 -4.2967867260644444e-06 0.0000000000000000e+00  1.2928858241090713e-04 -5.6955193395563980e-06 0.0000000000000000e+00  1.6205416517696403e-04 -7.5485601229537854e-06 0.0000000000000000e+00  2.0181102169466482e-04 -9.9520143367382808e-06 0.0000000000000000e+00  2.4772218842288881e-04 -1.2986870685459943e-05 0.0000000000000000e+00  0.0000000000000000e+00 0.0000000000000000e+00 0.0000000000000000e+00  3.9000989800439460e-06 -1.1893218469124256e-07 0.0000000000000000e+00  7.9676659694746778e-06 -2.4397751048788998e-07 0.0000000000000000e+00  1.2379741127993509e-05 -3.8174170815750210e-07 0.0000000000000000e+00  1.7332154404647464e-05 -5.3984611526184784e-07 0.0000000000000000e+00  2.3050697291279639e-05 -7.2758820691325761e-07 0.0000000000000000e+00  2.9804471186276534e-05 -9.5680717582970368e-07 0.0000000000000000e+00  3.7922218539769533e-05 -1.2430615089311420e-06 0.0000000000000000e+00  4.7812306492329992e-05 -1.6072560940364767e-06 0.0000000000000000e+00  5.9986444119006380e-05 -2.0778818757066585e-06 0.0000000000000000e+00  7.5085557871534169e-05 -2.6940220663912989e-06 0.0000000000000000e+00  9.3902325019954523e-05 -3.5091724259760153e-06 0.0000000000000000e+00  1.1738665738553527e-04 -4.5956185091424724e-06 0.0000000000000000e+00  1.4660567400580078e-04 -6.0485354653307570e-06 0.0000000000000000e+00  1.8261004289818011e-04 -7.9882942354190498e-06 0.0000000000000000e+00  2.2615440006183420e-04 -1.0559100354003860e-05 0.0000000000000000e+00  2.7730297731247769e-04 -1.3919447496177746e-05 0.0000000000000000e+00  0.0000000000000000e+00 0.0000000000000000e+00 0.0000000000000000e+00  4.2898339789602755e-06 -1.2771431217671820e-07 0.0000000000000000e+00  8.7598318591211054e-06 -2.6153722908101209e-07 0.0000000000000000e+00  1.3599853725112165e-05 -4.0800996979679193e-07 0.0000000000000000e+00  1.9019086209424255e-05 -5.7457048371167808e-07 0.0000000000000000e+00  2.5257508950729508e-05 -7.7012897906484570e-07 0.0000000000000000e+00  3.2599609238190459e-05 -1.0058182902689328e-06 0.0000000000000000e+00  4.1391227757005432e-05 -1.2960194157831613e-06 0.0000000000000000e+00  5.2060360434925558e-05 -1.6598078645190213e-06 0.0000000000000000e+00  6.5142331008029506e-05 -2.1230353223824632e-06 0.0000000000000000e+00  8.1308542411651118e-05 -2.7213619190601291e-06 0.0000000000000000e+00  1.0139528112672418e-04 -3.5046953554194582e-06 0.0000000000000000e+00  1.2642390746928442e-04 -4.5436791494054051e-06 0.0000000000000000e+00  1.5759613531835079e-04 -5.9390950292022639e-06 0.0000000000000000e+00  1.9624170594525304e-04 -7.8352455462349227e-06 0.0000000000000000e+00  2.4370419617155060e-04 -1.0438350172046437e-05 0.0000000000000000e+00  3.0120079580162057e-04 -1.4040647215913675e-05 0.0000000000000000e+00  0.0000000000000000e+00 0.0000000000000000e+00 0.0000000000000000e+00  4.5013511163092347e-06 -1.3045485506689143e-07 0.0000000000000000e+00  9.1866546590976142e-06 -2.6660291058365476e-07 0.0000000000000000e+00  1.4248991228392638e-05 -4.1446323483232215e-07 0.0000000000000000e+00  1.9900017782403208e-05 -5.8073519303914084e-07 0.0000000000000000e+00  2.6381009088392067e-05 -7.7322114081901224e-07 0.0000000000000000e+00  3.3976195549776853e-05 -1.0013672116186468e-06 0.0000000000000000e+00  4.3029496625981696e-05 -1.2770004680698360e-06 0.0000000000000000e+00  5.3965999254013670e-05 -1.6153948893001008e-06 0.0000000000000000e+00  6.7319729649793097e-05 -2.0369047479296101e-06 0.0000000000000000e+00  8.3769208561031147e-05 -2.5696115098267284e-06 0.0000000000000000e+00  1.0418157397765615e-04 -3.2538281828131309e-06 0.0000000000000000e+00  1.2966413674227718e-04 -4.1500268655039088e-06 0.0000000000000000e+00  1.6161871381375510e-04 -5.3529251997144059e-06 0.0000000000000000e+00  2.0178993058490654e-04 -7.0159413447077283e-06 0.0000000000000000e+00  2.5229834825706043e-04 -9.3908504999990002e-06 0.0000000000000000e+00  3.1566027247577935e-04 -1.2883488415339155e-05 0.0000000000000000e+00  0.0000000000000000e+00 0.0000000000000000e+00 0.0000000000000000e+00  4.5310416482558097e-06 -1.2757112448754862e-07 0.0000000000000000e+00  9.2412646656016026e-06 -2.6010731234833479e-07 0.0000000000000000e+00  1.4317772096353449e-05 -4.0276367633022446e-07 0.0000000000000000e+00  1.9964226497589050e-05 -5.6109613259108115e-07 0.0000000000000000e+00  2.6410681316142497e-05 -7.4128396176500432e-07 0.0000000000000000e+00  3.3925589869265457e-05 -9.5038737380230725e-07 0.0000000000000000e+00  4.2831296678639233e-05 -1.1966710646147619e-06 0.0000000000000000e+00  5.3524974978942800e-05 -1.4900635909802987e-06 0.0000000000000000e+00  6.6508007234521868e-05 -1.8429193870035401e-06 0.0000000000000000e+00  8.2428321367250456e-05 -2.2714847266641209e-06 0.0000000000000000e+00  1.0214217499554219e-04 -2.7990124536475592e-06 0.0000000000000000e+00  1.2680386328701890e-04 -3.4626599906785503e-06 0.0000000000000000e+00  1.5799231092575243e-04 -4.3286982403472404e-06 0.0000000000000000e+00  1.9787928319576012e-04 -5.5247529459462263e-06 0.0000000000000000e+00  2.4943079280316175e-04 -7.3034316340993947e-06 0.0000000000000000e+00  3.1661138691964927e-04 -1.0154915125427090e-05 0.0000000000000000e+00  0.0000000000000000e+00 0.0000000000000000e+00 0.0000000000000000e+00  4.3838685444142075e-06 -1.1979173772369570e-07 0.0000000000000000e+00  8.9345331487913771e-06 -2.4363437069854314e-07 0.0000000000000000e+00  1.3824986188748923e-05 -3.7562699473883088e-07 0.0000000000000000e+00  1.9241634099279931e-05 -5.1997436391408573e-07 0.0000000000000000e+00  2.5392116818615077e-05 -6.8099554304820491e-07 0.0000000000000000e+00  3.2514839305575636e-05 -8.6307002596743714e-07 0.0000000000000000e+00  4.0891503807864681e-05 -1.0704818967710028e-06 0.0000000000000000e+00  5.0864913857248785e-05 -1.3071126551833257e-06 0.0000000000000000e+00  6.2866134121206807e-05 -1.5759453391118876e-06 0.0000000000000000e+00  7.7458308951671730e-05 -1.8784426529460064e-06 0.0000000000000000e+00  9.5409795836371176e-05 -2.2142421139713843e-06 0.0000000000000000e+00  1.1781715904809051e-04 -2.5827841653583099e-06 0.0000000000000000e+00  1.4630742228858405e-04 -2.9916907421080693e-06 0.0000000000000000e+00  1.8335145073041786e-04 -3.4844780783240936e-06 0.0000000000000000e+00  2.3269867194981785e-04 -4.2161030816176715e-06 0.0000000000000000e+00  2.9987712032813948e-04 -5.6280874643846891e-06 0.0000000000000000e+00  0.0000000000000000e+00 0.0000000000000000e+00 0.0000000000000000e+00  4.0723951678707720e-06 -1.0803005946461497e-07 0.0000000000000000e+00  8.2930491642441175e-06 -2.1914445009606382e-07 0.0000000000000000e+00  1.2814378510791105e-05 -3.3635221879314547e-07 0.0000000000000000e+00  1.7798269696275198e-05 -4.6250979763853090e-07 0.0000000000000000e+00  2.3421217954665016e-05 -6.0014431842797866e-07 0.0000000000000000e+00  2.9880254714525729e-05 -7.5112786808861370e-07 0.0000000000000000e+00  3.7400520674313480e-05 -9.1609050637164807e-07 0.0000000000000000e+00  4.6246330292406887e-05 -1.0933805112689291e-06 0.0000000000000000e+00  5.6739692930327057e-05 -1.2772424577698435e-06 0.0000000000000000e+00  6.9294656105853422e-05 -1.4546646075252575e-06 0.0000000000000000e+00  8.4484578223794420e-05 -1.6000796427621522e-06 0.0000000000000000e+00  1.0317561358750992e-04 -1.6671088997528584e-06 0.0000000000000000e+00  1.2678586785430201e-04 -1.5782450790758037e-06 0.0000000000000000e+00  1.5776019102232554e-04 -1.2217314762694127e-06 0.0000000000000000e+00  2.0034940673189746e-04 -4.9405380290107194e-07 0.0000000000000000e+00  2.6165825802493433e-04 4.9411585948870201e-07 0.0000000000000000e+00  0.0000000000000000e+00 0.0000000000000000e+00 0.0000000000000000e+00  3.6153006979334636e-06 -9.3251103932906268e-08 0.0000000000000000e+00  7.3559849693479734e-06 -1.8868491215366035e-07 0.0000000000000000e+00  1.1349532742470256e-05 -2.8832375845661053e-07 0.0000000000000000e+00  1.5728703348530231e-05 -3.9386050635365875e-07 0.0000000000000000e+00  2.0633683334805553e-05 -5.0636411006957991e-07 0.0000000000000000e+00  2.6213710738947793e-05 -6.2579111519847228e-07 0.0000000000000000e+00  3.2628119383149247e-05 -7.5015079363872494e-07 0.0000000000000000e+00  4.0047220909542020e-05 -8.7404242189515199e-07 0.0000000000000000e+00  4.8654876825520738e-05 -9.8601223979467995e-07 0.0000000000000000e+00  5.8658492785075488e-05 -1.0635983820622045e-06 0.0000000000000000e+00  7.0321977469057551e-05 -1.0636968775183203e-06 0.0000000000000000e+00  8.4060609375796410e-05 -9.0336469170415610e-07 0.0000000000000000e+00  1.0068842556140213e-04 -4.2175114195354785e-07 0.0000000000000000e+00  1.2200718379918128e-04 6.9033714002934294e-07 0.0000000000000000e+00  1.5204885111550303e-04 2.9915146615559922e-06 0.0000000000000000e+00  1.9919578997262748e-04 7.3015203540395126e-06 0.0000000000000000e+00  0.0000000000000000e+00 0.0000000000000000e+00 0.0000000000000000e+00  3.0355491090954553e-06 -7.6354775972612400e-08 0.0000000000000000e+00  6.1711781440480232e-06 -1.5413726856553414e-07 0.0000000000000000e+00  9.5073151522027868e-06 -2.3457836678052043e-07 0.0000000000000000e+00  1.3145941094179274e-05 -3.1850685629004191e-07 0.0000000000000000e+00  1.7190010498546029e-05 -4.0602430813915146e-07 0.0000000000000000e+00  2.1740964316523153e-05 -4.9599994393318064e-07 0.0000000000000000e+00  2.6893069158104934e-05 -5.8525358993026974e-07 0.0000000000000000e+00  3.2722748195642001e-05 -6.6718319819010413e-07 0.0000000000000000e+00  3.9270546315759695e-05 -7.2933565330143647e-07 0.0000000000000000e+00  4.6513807878758018e-05 -7.4877935566165047e-07 0.0000000000000000e+00  5.4332797360767630e-05 -6.8245170989832628e-07 0.0000000000000000e+00  6.2492328474079205e-05 -4.4504983820277061e-07 0.0000000000000000e+00  7.0726062285326568e-05 1.4569924382305304e-07 0.0000000000000000e+00  7.9203815591055081e-05 1.5106995587946292e-06 0.0000000000000000e+00  9.0137065847264593e-05 4.6702046965416292e-06 0.0000000000000000e+00  1.1170461894041457e-04 1.1984760456595829e-05 0.0000000000000000e+00  0.0000000000000000e+00 0.0000000000000000e+00 0.0000000000000000e+00  2.3584674010232910e-06 -5.8094433176093974e-08 0.0000000000000000e+00  4.7909756062206878e-06 -1.1704423923272769e-07 0.0000000000000000e+00  7.3707779970437936e-06 -1.7751825384202527e-07 0.0000000000000000e+00  1.0170110250830198e-05 -2.3980919167961816e-07 0.0000000000000000e+00  1.3257797932184177e-05 -3.0355479386101551e-07 0.0000000000000000e+00  1.6694013941670616e-05 -3.6734002257439346e-07 0.0000000000000000e+00  2.0519896419763551e-05 -4.2812129373514882e-07 0.0000000000000000e+00  2.4737986710874150e-05 -4.8039387154295245e-07 0.0000000000000000e+00  2.9276258839376167e-05 -5.1498031538156717e-07 0.0000000000000000e+00  3.3922922485349364e-05 -5.1717383336031252e-07 0.0000000000000000e+00  3.8210424489919034e-05 -4.6338087394417074e-07 0.0000000000000000e+00  4.1218333446896699e-05 -3.1288903070901075e-07 0.0000000000000000e+00  4.1281702550806749e-05 1.9433871101503895e-08 0.0000000000000000e+00  3.5764464987433640e-05 7.7100933965873520e-07 0.0000000000000000e+00  2.1983804534632867e-05 2.7994845822192941e-06 0.0000000000000000e+00  4.8270106384617223e-06 9.8200597975389780e-06 0.0000000000000000e+00  0.0000000000000000e+00 0.0000000000000000e+00 0.0000000000000000e+00  1.6100447410877884e-06 -3.9040670034733293e-08 0.0000000000000000e+00  3.2685403293097669e-06 -7.8538881907638755e-08 0.0000000000000000e+00  5.0227883488353516e-06 -1.1881128797773470e-07 0.0000000000000000e+00  6.9180816598597134e-06 -1.5989513614663298e-07 0.0000000000000000e+00  8.9948821210480419e-06 -2.0135903176652797e-07 0.0000000000000000e+00  1.1283140703758918e-05 -2.4206406386075071e-07 0.0000000000000000e+00  1.3791239603310397e-05 -2.7989032941918075e-07 0.0000000000000000e+00  1.6484724789985645e-05 -3.1152139000058788e-07 0.0000000000000000e+00  1.9245158127721051e-05 -3.3259489153669272e-07 0.0000000000000000e+00  2.1788955590016362e-05 -3.3910893759342872e-07 0.0000000000000000e+00  2.3502763330564162e-05 -3.3251813755467734e-07 0.0000000000000000e+00  2.3099129428798645e-05 -3.3500008490357939e-07 0.0000000000000000e+00  1.7879514054338592e-05 -4.3158497130581789e-07 0.0000000000000000e+00  2.1681930372937878e-06 -8.7846692508004823e-07 0.0000000000000000e+00  -3.5697178632025093e-05 -2.3423113086716585e-06 0.0000000000000000e+00  -1.1680904188582394e-04 -6.1614093061304393e-06 0.0000000000000000e+00  0.0000000000000000e+00 0.0000000000000000e+00 0.0000000000000000e+00  8.1574430259010187e-07 -1.9588860890156853e-08 0.0000000000000000e+00  1.6553053656252089e-06 -3.9370440796062603e-08 0.0000000000000000e+00  2.5417063590194255e-06 -5.9462882246646429e-08 0.0000000000000000e+00  3.4964936488004145e-06 -7.9838566099860504e-08 0.0000000000000000e+00  4.5378879504503699e-06 -1.0023289003763311e-07 0.0000000000000000e+00  5.6771568382991263e-06 -1.2004403536967406e-07 0.0000000000000000e+00  6.9115671721980363e-06 -1.3825877921001138e-07 0.0000000000000000e+00  8.2106415378159426e-06 -1.5352546753250258e-07 0.0000000000000000e+00  9.4887945159662132e-06 -1.6473740056302409e-07 0.0000000000000000e+00  1.0548792046141149e-05 -1.7318038890343761e-07 0.0000000000000000e+00  1.0958575258770206e-05 -1.8933008507879384e-07 0.0000000000000000e+00  9.7639944374577011e-06 -2.5363309323824064e-07 0.0000000000000000e+00  4.7632988317572749e-06 -5.0076258396820561e-07 0.0000000000000000e+00  -9.4684718338404564e-06 -1.3634230303037526e-06 0.0000000000000000e+00  -4.7015799501056880e-05 -4.2075593683850995e-06 0.0000000000000000e+00  -1.4116864509178153e-04 -1.2795777906338375e-05 0.0000000000000000e+00  0.0000000000000000e+00 0.0000000000000000e+00 0.0000000000000000e+00  0.0000000000000000e+00 0.0000000000000000e+00 0.0000000000000000e+00  0.0000000000000000e+00 0.0000000000000000e+00 0.0000000000000000e+00  0.0000000000000000e+00 0.0000000000000000e+00 0.0000000000000000e+00  0.0000000000000000e+00 0.0000000000000000e+00 0.0000000000000000e+00  0.0000000000000000e+00 0.0000000000000000e+00 0.0000000000000000e+00  0.0000000000000000e+00 0.0000000000000000e+00 0.0000000000000000e+00  0.0000000000000000e+00 0.0000000000000000e+00 0.0000000000000000e+00  0.0000000000000000e+00 0.0000000000000000e+00 0.00000000000