<?xml version="1.0"?>
<VTKFile type="UnstructuredGrid"  version="0.1"  >
<UnstructuredGrid>
<Piece  NumberOfPoints="289" NumberOfCells="512">
<Points>
<DataArray  type="Float64"  NumberOfComponents="3"  format="ascii">0 0 0  0.0625 0 0  0.125 0 0  0.1875 0 0  0.25 0 0  0.3125 0 0  0.375 0 0  0.4375 0 0  0.5 0 0  0.5625 0 0  0.625 0 0  0.6875 0 0  0.75 0 0  0.8125 0 0  0.875 0 0  0.9375 0 0  1 0 0  0 0.0625 0  0.06251284476369456 0.06249619103005453 0  0.1250260089202486 0.06249232118847207 0  0.1875398036781798 0.06248833695423175 0  0.2500545183493667 0.06248420080566919 0  0.312570402956016 0.06247990130319188 0  0.375087642456224 0.06247546527529161 0  0.4376063187613354 0.06247097188333722 0  0.5001263552921426 0.06246656700043257 0  0.5626474354534797 0.0624624738889784 0  0.6251688772172985 0.06245899205828485 0  0.6876894183380722 0.06245647034406115 0  0.7502067755252912 0.06245523611774313 0  0.8127165063880007 0.06245548312077239 0  0.8752083242688743 0.06245729546510924 0  0.9376516911741493 0.06246208742325207 0  0.999930675435554 0.06248456394413827 0  0 0.125 0  0.06252534584161552 0.124992443897349 0  0.1250513419097296 0.1249847585152825 0  0.1875786258221342 0.1249768283926838 0  0.2501077998410787 0.1249685683851877 0  0.3126394021056697 0.1249599433479733 0  0.3751738638040108 0.1249509926906909 0  0.4377114467935475 0.1249418600194643 0  0.5002521555513254 0.1249328258719931 0  0.5627956161738517 0.1249243372840159 0  0.6253409117137347 0.1249170201963941 0  0.6878863516666102 0.1249116474138138 0  0.7504291166928447 0.12490901245536 0  0.8129646142947091 0.1249096183339068 0  0.875485161866886 0.1249129744133768 0  0.9379778608771001 0.1249156930185216 0  1.00042956168477 0.1249032863762529 0  0 0.1875 0  0.06253717669479476 0.1874888271900517 0  0.1250753515815454 0.1874774425006218 0  0.1876155112527494 0.1874656524824797 0  0.250158605526287 0.187453304701101 0  0.3127055150311681 0.1874403157366439 0  0.3752570013129982 0.1874267078823808 0  0.4378136334500725 0.1874126563715853 0  0.5003756858803192 0.1873985468374691 0  0.5629430041177398 0.1873850381661804 0  0.6255148385993601 0.1873731170515512 0  0.6880896510717888 0.1873641143430177 0  0.7506648985252611 0.1873596242780856 0  0.8132367915621249 0.1873612137226068 0  0.8758000444214544 0.1873696952763534 0  0.9383480050846233 0.1873834863857148 0  1.00087548503925 0.1873953903460261 0  0 0.25 0  0.0625479955681726 0.2499854236643622 0  0.1250973543862089 0.2499705338955785 0  0.1876494355275446 0.2499550373229366 0  0.250205574089949 0.2499386862889097 0  0.3127670537120675 0.2499213124827123 0  0.3753350597962041 0.2499028739833646 0  0.4379106069710944 0.2498835204565524 0  0.5004944355051494 0.2498636804145792 0  0.563086874418405 0.2498441716180348 0  0.6256876745952927 0.2498263289511817 0  0.6882958227289767 0.2498121304286211 0  0.7509093531185971 0.2498042772043275 0  0.8135251746025448 0.2498061434849587 0  0.8761389390545596 0.2498214620483058 0  0.9387450986643473 0.2498536137245661 0  1.001337710807117 0.2499047772296126 0  0 0.3125 0  0.06255744295436801 0.3124823350093755 0  0.1251166243835816 0.3124642343554662 0  0.1876792927722694 0.3124452799071833 0  0.2502472006281757 0.3124250952860321 0  0.312822090975354 0.3124033804560272 0  0.3754056641927399 0.312379964448767 0  0.4379995180354327 0.3123548847970773 0  0.5006050542394409 0.3123285038825038 0  0.5632233471130866 0.3123016732614778 0  0.6258549732638267 0.3122759553912777 0  0.6884998062424117 0.3122539048071057 0  0.7511567830322892 0.3122393925031006 0  0.8138236517524738 0.312237921852987 0  0.8764967387698107 0.3122568318345748 0  0.9391709431534039 0.3123052433004304 0  1.001840750544138 0.3123936682611881 0  0 0.375 0  0.06256514600297258 0.3749796835662244 0  0.1251324014991561 0.3749587910813207 0  0.1877039066711058 0.3749367563434954 0  0.2502818487355701 0.3749130398815405 0  0.3128684716860399 0.3748871575690362 0  0.3754660679983047 0.3748587306006259 0  0.4380769447254003 0.374827569240264 0  0.5007033559140147 0.3747938077321601 0  0.5633473936064205 0.3747581140832796 0  0.6260108308836655 0.3747220050179327 0  0.6886949113542903 0.374688299974002 0  0.7514000778887268 0.3746617406155406 0  0.8141256299996005 0.3746497678854562 0  0.8768693139998438 0.3746633602429283 0  0.9396269500568307 0.3747176605851275 0  1.002392477368159 0.3748318257791051 0  0 0.4375 0  0.06257073120805999 0.4374776097945652 0  0.1251439169354132 0.4374544927610907 0  0.1877220685846068 0.4374299186691646 0  0.2503078009663004 0.4374031566516814 0  0.3129038742654268 0.4373734890453136 0  0.3755132224810795 0.4373402464241825 0  0.4381389615658763 0.437302878694679 0  0.50078436941787 0.4372610856629643 0  0.5634528297429324 0.4372150433989662 0  0.6261477330511186 0.4371657807969704 0  0.6888723296364002 0.4371157826719166 0  0.751629526479537 0.4370699137047118 0  0.81442160190107 0.437036747786653 0  0.8772497651649366 0.4370302948697098 0  0.9401134135685746 0.4370718459784389 0  1.003008873380478 0.437191111089292 0  0 0.5 0  0.06257384591071243 0.4999762644819037 0  0.1251504369485479 0.4999516544142019 0  0.1877326049806408 0.4999252736080293 0  0.2503233513921171 0.4998961863687027 0  0.312925928880329 0.4998634071720699 0  0.3755439179192137 0.49982590618897 0  0.4381812939131027 0.4997826449151375 0  0.5008424806021939 0.4997326672489285 0  0.5635323874437751 0.4996752902574477 0  0.6262564362045265 0.4996104698981138 0  0.6890205966467738 0.4995394648971228 0  0.7518314667090437 0.4994659876630747 0  0.8146964169437341 0.4993980970325588 0  0.8776236861491643 0.4993510814843634 0  0.9406219210149842 0.4993513095598973 0  1.003697947428949 0.4994401310491872 0  0 0.5625 0  0.06257418805335963 0.5624757952805588 0  0.1251513241157856 0.5624505898764168 0  0.1877344735756379 0.5624233401532388 0  0.2503269410731788 0.5623929164177127 0  0.3129323967314355 0.5623580606477478 0  0.3755550091359359 0.5623173486418666 0  0.4381995860781493 0.5622691656457106 0  0.5008717254388556 0.562211715357422 0  0.5635779860438718 0.5621431032013114 0  0.626326110436511 0.5620615746271109 0  0.6891253815183408 0.5619660630101465 0  0.7519872811592694 0.5618573321847703 0  0.8149267020012024 0.5617402073564226 0  0.877963843862359 0.5616276455573427 0  0.941126070999548 0.5615474528452108 0  1.004446665085175 0.5615515066687825 0  0 0.625 0  0.0625715421602818 0.6249763281752253 0  0.1251461123139841 0.6249515727969597 0  0.1877268832951353 0.6249245862712548 0  0.2503173317162821 0.6248940877713933 0  0.3129214082754258 0.6248585856780667 0  0.3755437301086 0.6248162877691178 0  0.438189802930943 0.6247649979419274 0  0.5008662841041643 0.6247020044280628 0  0.5635813110027844 0.6246239795816159 0  0.6263449600118567 0.6245269466007708 0  0.6891700093575152 0.6244064485920091 0  0.7520734205207402 0.6242582329725961 0  0.8150793790851378 0.6240801436445345 0  0.8782251352995833 0.6238766518473142 0  0.9415700358110995 0.6236685366924282 0  1.005202760818631 0.6235102213016698 0  0 0.6875 0  0.0625658177737978 0.6874779458296755 0  0.1251345880136698 0.6874547899897249 0  0.1877094274222592 0.6874293501927984 0  0.2502938045317873 0.6874002727164938 0  0.3128917467485001 0.6873659233472134 0  0.37550808635486 0.6873242473600888 0  0.4381487609084755 0.6872725835223755 0  0.5008211877043358 0.6872074140109281 0  0.5635347462495356 0.6871240313822127 0  0.6263014519013411 0.6870161128545359 0  0.6891370602358394 0.6868752331722985 0  0.7520632893524521 0.6866904842527538 0  0.815112966279658 0.6864487877451309 0  0.8783421222705685 0.686137696669336 0  0.9418552125457842 0.6857556417844506 0  1.005843033146578 0.6853398556377792 0  0 0.75 0  0.06255708483240741 0.7499806661552829 0  0.1251168667082127 0.7499602942089063 0  0.1876822128924884 0.749937757805207 0  0.2502563613878395 0.7499117401389679 0  0.3128431486990267 0.7498806057454693 0  0.3754472923584872 0.7498422258511485 0  0.4380747517517042 0.7497937289726305 0  0.5007331945848938 0.7497311341211356 0  0.5634326034742644 0.7496488012762915 0  0.6261860848520098 0.7495385990553977 0  0.6890110659034091 0.7493886406548903 0  0.7519315636055958 0.7491813910161436 0  0.8149839985710087 0.7488910103082883 0  0.8782346464407224 0.7484805513297312 0  0.9418306251778339 0.7479039272234117 0  1.006113519309451 0.7471393597879809 0  0 0.8125 0  0.06254559921927361 0.8124844254501348 0  0.1250934503171804 0.8124679659262762 0  0.1876459630740329 0.8124496528529257 0  0.2502058957788691 0.8124283353897889 0  0.3127765781591038 0.81240255293094 0  0.3753621993311619 0.8123703547368145 0  0.4379681918996036 0.8123290309898804 0  0.500601748040804 0.8122746972409844 0  0.5632725009798951 0.8122016345347168 0  0.6259933852630797 0.8121012150818404 0  0.6887816534378284 0.8119601048331415 0  0.751660108581112 0.8117571523178931 0  0.8146597048964144 0.8114577660416459 0  0.8778313985079668 0.8110032901341918 0  0.9413091841629947 0.810290861594804 0  1.005622442072882 0.8091440377670175 0  0 0.875 0  0.06253181152858603 0.8749890705870317 0  0.1250652504594095 0.8749774942983233 0  0.1876020684410523 0.874964558667807 0  0.2501442942743365 0.8749494072419129 0  0.3126944180279128 0.8749309362583766 0  0.3752556383152713 0.8749076449309019 0  0.4378322073633894 0.8748774062987958 0  0.5004299174430575 0.8748371032349513 0  0.5630567702676577 0.8747820336212493 0  0.6257238202174178 0.8747049135573433 0  0.6884459698919039 0.8745941617009477 0  0.7512418288919841 0.874430836161457 0  0.8141300479008557 0.8741828070456641 0  0.87711686725336 0.8737923239553196 0  0.9401773809083188 0.8731446451312863 0  1.003379285478257 0.8719714300137891 0  0 0.9375 0  0.06251635352095601 0.9374943636353849 0  0.1250335647962939 0.9374883853120262 0  0.1875525613800574 0.9374816869332201 0  0.2500744277643019 0.9374738107458561 0  0.3126005131497414 0.9374641613165806 0  0.3751325814068003 0.9374519202853724 0  0.4376730296988435 0.9374359139962432
[...]
<PointData  Vectors="f_54"> 
<DataArray  type="Float64"  Name="f_54"  NumberOfComponents="3" format="ascii">0.0000000000000000e+00 0.0000000000000000e+00 0.0000000000000000e+00  0.0000000000000000e+00 0.0000000000000000e+00 0.0000000000000000e+00  0.0000000000000000e+00 0.0000000000000000e+00 0.0000000000000000e+00  0.0000000000000000e+00 0.0000000000000000e+00 0.0000000000000000e+00  0.0000000000000000e+00 0.0000000000000000e+00 0.0000000000000000e+00  0.0000000000000000e+00 0.0000000000000000e+00 0.0000000000000000e+00  0.0000000000000000e+00 0.0000000000000000e+00 0.0000000000000000e+00  0.0000000000000000e+00 0.0000000000000000e+00 0.0000000000000000e+00  0.0000000000000000e+00 0.0000000000000000e+00 0.0000000000000000e+00  0.0000000000000000e+00 0.0000000000000000e+00 0.0000000000000000e+00  0.0000000000000000e+00 0.0000000000000000e+00 0.0000000000000000e+00  0.0000000000000000e+00 0.0000000000000000e+00 0.0000000000000000e+00  0.0000000000000000e+00 0.0000000000000000e+00 0.0000000000000000e+00  0.0000000000000000e+00 0.0000000000000000e+00 0.0000000000000000e+00  0.0000000000000000e+00 0.0000000000000000e+00 0.0000000000000000e+00  0.0000000000000000e+00 0.0000000000000000e+00 0.0000000000000000e+00  0.0000000000000000e+00 0.0000000000000000e+00 0.0000000000000000e+00  0.0000000000000000e+00 0.0000000000000000e+00 0.0000000000000000e+00  4.1544425399573469e-06 -5.4827172340433540e-08 0.0000000000000000e+00  8.4381708057353964e-06 -1.1238886967957111e-07 0.0000000000000000e+00  1.2982139724951399e-05 -1.7559549611252238e-07 0.0000000000000000e+00  1.7919362089636841e-05 -2.4770647489884416e-07 0.0000000000000000e+00  2.3385225767125173e-05 -3.3253145023582821e-07 0.0000000000000000e+00  2.9516972089455125e-05 -4.3466816455124086e-07 0.0000000000000000e+00  3.6452229424236088e-05 -5.5980490645441510e-07 0.0000000000000000e+00  4.4326917479045654e-05 -7.1515126614830857e-07 0.0000000000000000e+00  5.3273967098951217e-05 -9.1016349195988961e-07 0.0000000000000000e+00  6.3427295724908958e-05 -1.1580311250840717e-06 0.0000000000000000e+00  7.4943744195414132e-05 -1.4793181523380891e-06 0.0000000000000000e+00  8.8080126341336980e-05 -1.9122274713970004e-06 0.0000000000000000e+00  1.0344103439893775e-04 -2.5450379729214040e-06 0.0000000000000000e+00  1.2278638720459117e-04 -3.6293629050613154e-06 0.0000000000000000e+00  1.5180857051808944e-04 -6.0110136246844323e-06 0.0000000000000000e+00  2.1026628198456306e-04 -1.2873687425796496e-05 0.0000000000000000e+00  0.0000000000000000e+00 0.0000000000000000e+00 0.0000000000000000e+00  8.1808407566847547e-06 -1.0693672259127272e-07 0.0000000000000000e+00  1.6619316279618633e-05 -2.1917774820444055e-07 0.0000000000000000e+00  2.5576657111125926e-05 -3.4236877003821993e-07 0.0000000000000000e+00  3.5318828115671864e-05 -4.8283373905803049e-07 0.0000000000000000e+00  4.6117423883447222e-05 -6.4796272190100542e-07 0.0000000000000000e+00  5.8248735549983323e-05 -8.4666089001489877e-07 0.0000000000000000e+00  7.1990495625541036e-05 -1.0898911109371266e-06 0.0000000000000000e+00  8.7616219772434866e-05 -1.3913709979248180e-06 0.0000000000000000e+00  1.0538816690232881e-04 -1.7685593097041338e-06 0.0000000000000000e+00  1.2555253251831863e-04 -2.2442385426437996e-06 0.0000000000000000e+00  1.4834610953156377e-04 -2.8493258487847516e-06 0.0000000000000000e+00  1.7403455430854979e-04 -3.6278031591507206e-06 0.0000000000000000e+00  2.0301748803405886e-04 -4.6425539280956427e-06 0.0000000000000000e+00  2.3601976321584731e-04 -5.9619941634600930e-06 0.0000000000000000e+00  2.7409094981521438e-04 -7.4917690984898844e-06 0.0000000000000000e+00  3.1611363388998128e-04 -7.8817253712447672e-06 0.0000000000000000e+00  0.0000000000000000e+00 0.0000000000000000e+00 0.0000000000000000e+00  1.1950402715152733e-05 -1.5375397087638646e-07 0.0000000000000000e+00  2.4284396393741249e-05 -3.1505766623758673e-07 0.0000000000000000e+00  3.7391607190758598e-05 -4.9194763535539184e-07 0.0000000000000000e+00  5.1670327952097091e-05 -6.9343103110743503e-07 0.0000000000000000e+00  6.7529615019042242e-05 -9.3003841433073428e-07 0.0000000000000000e+00  8.5388447007261843e-05 -1.2144525974857582e-06 0.0000000000000000e+00  1.0567076342032261e-04 -1.5622319874747738e-06 0.0000000000000000e+00  1.2879520882299700e-04 -1.9926405703986135e-06 0.0000000000000000e+00  1.5515867789860966e-04 -2.5295893373202687e-06 0.0000000000000000e+00  1.8511339683474946e-04 -3.2026800616592570e-06 0.0000000000000000e+00  2.1893792484554812e-04 -4.0482798117121916e-06 0.0000000000000000e+00  2.5680066911918596e-04 -5.1102752327236185e-06 0.0000000000000000e+00  2.9870057430144212e-04 -6.4392971753562146e-06 0.0000000000000000e+00  3.4431313935882944e-04 -8.0886882082217877e-06 0.0000000000000000e+00  3.9250240895728154e-04 -1.0122959732027192e-05 0.0000000000000000e+00  4.3999029713434764e-04 -1.2836764018060379e-05 0.0000000000000000e+00  0.0000000000000000e+00 0.0000000000000000e+00 0.0000000000000000e+00  1.5336852611821785e-05 -1.9303097681800907e-07 0.0000000000000000e+00  3.1178780799907652e-05 -3.9539112914063946e-07 0.0000000000000000e+00  4.8040097210779256e-05 -6.1701303281979610e-07 0.0000000000000000e+00  6.6449617543036009e-05 -8.6904100942831572e-07 0.0000000000000000e+00  8.6955055792883670e-05 -1.1645267639775000e-06 0.0000000000000000e+00  1.1012347493872564e-04 -1.5192209420812656e-06 0.0000000000000000e+00  1.3653580549577134e-04 -1.9524666392473376e-06 0.0000000000000000e+00  1.6677289465725917e-04 -2.4881589655845322e-06 0.0000000000000000e+00  2.0138986625459126e-04 -3.1556506909365870e-06 0.0000000000000000e+00  2.4087459239455295e-04 -3.9903241109914209e-06 0.0000000000000000e+00  2.8558412739544155e-04 -5.0332621058236513e-06 0.0000000000000000e+00  3.3564800639401571e-04 -6.3289889085397708e-06 0.0000000000000000e+00  3.9081458785840271e-04 -7.9197243464188999e-06 0.0000000000000000e+00  4.5018859113326947e-04 -9.8348680307914472e-06 0.0000000000000000e+00  5.1176674190129298e-04 -1.2077794236575287e-05 0.0000000000000000e+00  5.7169319586713313e-04 -1.4609505997189149e-05 0.0000000000000000e+00  0.0000000000000000e+00 0.0000000000000000e+00 0.0000000000000000e+00  1.8218557783035486e-05 -2.2298852451491221e-07 0.0000000000000000e+00  3.7056204178769201e-05 -4.5650418450049771e-07 0.0000000000000000e+00  5.7145421619287906e-05 -7.1175549829675804e-07 0.0000000000000000e+00  7.9141470833110313e-05 -1.0013353517213492e-06 0.0000000000000000e+00  1.0373066862013160e-04 -1.3400350266249075e-06 0.0000000000000000e+00  1.3163414585255141e-04 -1.7457939338631158e-06 0.0000000000000000e+00  1.6360440997279337e-04 -2.2408010328747616e-06 0.0000000000000000e+00  2.0041093772939122e-04 -2.8527058432628279e-06 0.0000000000000000e+00  2.4280954250758204e-04 -3.6157689643034447e-06 0.0000000000000000e+00  2.9148830937557693e-04 -4.5715255937935388e-06 0.0000000000000000e+00  3.4698031563715599e-04 -5.7680674995568994e-06 0.0000000000000000e+00  4.0952996186633729e-04 -7.2562854308876069e-06 0.0000000000000000e+00  4.7889588056179602e-04 -9.0803470747318674e-06 0.0000000000000000e+00  5.5407289010132844e-04 -1.1258433893993652e-05 0.0000000000000000e+00  6.3293530244340273e-04 -1.3747808733298202e-05 0.0000000000000000e+00  7.1189540129331405e-04 -1.6379856597856297e-05 0.0000000000000000e+00  0.0000000000000000e+00 0.0000000000000000e+00 0.0000000000000000e+00  2.0481566033133426e-05 -2.4243157380079058e-07 0.0000000000000000e+00  4.1684611152126623e-05 -4.9592677965685132e-07 0.0000000000000000e+00  6.4349180180718141e-05 -7.7225774151310389e-07 0.0000000000000000e+00  8.9249049731461014e-05 -1.0846592076815792e-06 0.0000000000000000e+00  1.1720582710389808e-04 -1.4487228869037884e-06 0.0000000000000000e+00  1.4909873212588310e-04 -1.8834911511314598e-06 0.0000000000000000e+00  1.8586702531054699e-04 -2.4128108676854281e-06 0.0000000000000000e+00  2.2850045258376378e-04 -3.0669689666108114e-06 0.0000000000000000e+00  2.7801087739608127e-04 -3.8845174902899050e-06 0.0000000000000000e+00  3.3537548734764098e-04 -4.9139248301862991e-06 0.0000000000000000e+00  4.0143893018848787e-04 -6.2141218842871862e-06 0.0000000000000000e+00  4.7675954004756357e-04 -7.8519496117054690e-06 0.0000000000000000e+00  5.6138617375422963e-04 -9.8927794595870875e-06 0.0000000000000000e+00  6.5456297326763405e-04 -1.2378309971708848e-05 0.0000000000000000e+00  7.5439032399654971e-04 -1.5284132053050343e-05 0.0000000000000000e+00  8.5753394647986958e-04 -1.8455102231062366e-05 0.0000000000000000e+00  0.0000000000000000e+00 0.0000000000000000e+00 0.0000000000000000e+00  2.2023776229593198e-05 -2.5082872114878239e-07 0.0000000000000000e+00  4.4854418553932576e-05 -5.1256416965180425e-07 0.0000000000000000e+00  6.9323394323815815e-05 -7.9678381837898806e-07 0.0000000000000000e+00  9.6309282879725438e-05 -1.1164775883682432e-06 0.0000000000000000e+00  1.2675970535913975e-04 -1.4869551989780950e-06 0.0000000000000000e+00  1.6171022397977876e-04 -1.9270252640720364e-06 0.0000000000000000e+00  2.0229734023510321e-04 -2.4605832131913022e-06 0.0000000000000000e+00  2.4976072137159659e-04 -3.1187685745853263e-06 0.0000000000000000e+00  3.0542684895544379e-04 -3.9428351173631764e-06 0.0000000000000000e+00  3.7066233770931012e-04 -4.9877317330696663e-06 0.0000000000000000e+00  4.4678060869098100e-04 -6.3259217223654300e-06 0.0000000000000000e+00  5.3488192618778225e-04 -8.0497850509937342e-06 0.0000000000000000e+00  6.3560760844213018e-04 -1.0268399075692728e-05 0.0000000000000000e+00  7.4880079880488670e-04 -1.3089785703323911e-05 0.0000000000000000e+00  8.7309543702274780e-04 -1.6572713968649860e-05 0.0000000000000000e+00  1.0054992865664392e-03 -2.0625301222862608e-05 0.0000000000000000e+00  0.0000000000000000e+00 0.0000000000000000e+00 0.0000000000000000e+00  2.2760312866120553e-05 -2.4834324783859045e-07 0.0000000000000000e+00  4.6389424048868162e-05 -5.0677369382009892e-07 0.0000000000000000e+00  7.1787204095005459e-05 -7.8593562916364034e-07 0.0000000000000000e+00  9.9915534959474811e-05 -1.0976747478070920e-06 0.0000000000000000e+00  1.3182972834481984e-04 -1.4558517373374635e-06 0.0000000000000000e+00  1.6870948962450065e-04 -1.8774724310086709e-06 0.0000000000000000e+00  2.1188746491727825e-04 -2.3843537971233932e-06 0.0000000000000000e+00  2.6287121685919984e-04 -3.0056670735211817e-06 0.0000000000000000e+00  3.2335089718154105e-04 -3.7818684491516798e-06 0.0000000000000000e+00  3.9517942534612579e-04 -4.7707062779748830e-06 0.0000000000000000e+00  4.8030445557648553e-04 -6.0560159816670803e-06 0.0000000000000000e+00  5.8062279829075645e-04 -7.7593765729313084e-06 0.0000000000000000e+00  6.9772202620919000e-04 -1.0052153367443517e-05 0.0000000000000000e+00  8.3247925699591197e-04 -1.3158426659762975e-05 0.0000000000000000e+00  9.8451584387529694e-04 -1.7324012007749767e-05 0.0000000000000000e+00  1.1515613171318769e-03 -2.2701575880470425e-05 0.0000000000000000e+00  0.0000000000000000e+00 0.0000000000000000e+00 0.0000000000000000e+00  2.2629937290567398e-05 -2.3580122239427162e-07 0.0000000000000000e+00  4.6160097831677470e-05 -4.8031313454148400e-07 0.0000000000000000e+00  7.1527950695132029e-05 -7.4261383444515911e-07 0.0000000000000000e+00  9.9747743959990515e-05 -1.0325993335611461e-06 0.0000000000000000e+00  1.3195217690974517e-04 -1.3615638498357973e-06 0.0000000000000000e+00  1.6943749149128250e-04 -1.7430651599789158e-06 0.0000000000000000e+00  2.1371187127677265e-04 -2.1943334837567980e-06 0.0000000000000000e+00  2.6654513216474760e-04 -2.7387014611494448e-06 0.0000000000000000e+00  3.3001400533817283e-04 -3.4099283326157947e-06 0.0000000000000000e+00  4.0653061715012522e-04 -4.2599664180940560e-06 0.0000000000000000e+00  4.9883049428401033e-04 -5.3727509627047528e-06 0.0000000000000000e+00  6.0987945623348829e-04 -6.8877956036709566e-06 0.0000000000000000e+00  7.4263805956722691e-04 -9.0374897756060277e-06 0.0000000000000000e+00  8.9960892866566844e-04 -1.2196647016066876e-05 0.0000000000000000e+00  1.0821155980024150e-03 -1.6920973524152332e-05 0.0000000000000000e+00  1.2893661782427846e-03 -2.3895454725499690e-05 0.0000000000000000e+00  0.0000000000000000e+00 0.0000000000000000e+00 0.0000000000000000e+00  2.1602022165504415e-05 -2.1458472968360533e-07 0.0000000000000000e+00  4.4098341050432934e-05 -4.3612862001351446e-07 0.0000000000000000e+00  6.8425371477752160e-05 -6.7171183050294306e-07 0.0000000000000000e+00  9.5608599004727367e-05 -9.2870842414708225e-07 0.0000000000000000e+00  1.2681378234047385e-04 -1.2149937090301266e-06 0.0000000000000000e+00  1.6340641423188881e-04 -1.5392903965711394e-06 0.0000000000000000e+00  2.0702218602675578e-04 -1.9118507712949010e-06 0.0000000000000000e+00  2.5965041193493169e-04 -2.3459165552279309e-06 0.0000000000000000e+00  3.2372987153925909e-04 -2.8609225015945394e-06 0.0000000000000000e+00  4.0225031237505800e-04 -3.4895149628770633e-06 0.0000000000000000e+00  4.9883929701352938e-04 -4.2927201385506803e-06 0.0000000000000000e+00  6.1778762589926423e-04 -5.3919696542333225e-06 0.0000000000000000e+00  7.6392163894997049e-04 -7.0340710169036918e-06 0.0000000000000000e+00  9.4217164192762532e-04 -9.7133227322530906e-06 0.0000000000000000e+00  1.1566571709529323e-03 -1.4365506958470770e-05 0.0000000000000000e+00  1.4092529878018175e-03 -2.2551248514536167e-05 0.0000000000000000e+00  0.0000000000000000e+00 0.0000000000000000e+00 0.0000000000000000e+00  1.9683283065837579e-05 -1.8644903698965750e-07 0.0000000000000000e+00  4.0212059939609429e-05 -3.7797091939484831e-07 0.0000000000000000e+00  6.2476359150407388e-05 -5.7949910147588920e-07 0.0000000000000000e+00  8.7462316392629947e-05 -7.9568577412237447e-07 0.0000000000000000e+00  1.1631017429111613e-04 -1.0306533111981848e-06 0.0000000000000000e+00  1.5038553595551321e-04 -1.2876283748179577e-06 0.0000000000000000e+00  1.9137020091648956e-04 -1.5684648801470275e-06 0.0000000000000000e+00  2.4138029021268954e-04 -1.8731882790477638e-06 0.0000000000000000e+00  3.0312014356215873e-04 -2.2000554127184880e-06 0.0000000000000000e+00  3.8007855324920697e-04 -2.5476068146355211e-06 0.0000000000000000e+00  4.7676414941203859e-04 -2.9227940317295777e-06 0.0000000000000000e+00  5.9894783112589918e-04 -3.3660722197753371e-06 0.0000000000000000e+00  7.5381041131485234e-04 -4.0216843955383710e-06 0.0000000000000000e+00  9.4975303261319774e-04 -5.3225351054662163e-06 0.0000000000000000e+00  1.1954179989788396e-03 -8.4378212945277687e-06 0.0000000000000000e+00  1.4973913271835468e-03 -1.6168628148667228e-05 0.0000000000000000e+00  0.0000000000000000e+00 0.0000000000000000e+00 0.0000000000000000e+00  1.6923170521274764e-05 -1.5328192185253335e-07 0.0000000000000000e+00  3.4597226591887968e-05 -3.0987231046258764e-07 0.0000000000000000e+00  5.3816464616469844e-05 -4.7272623984958647e-07 0.0000000000000000e+00  7.5470364803408097e-05 -6.4402876082777261e-07 0.0000000000000000e+00  1.0060342554389413e-04 -8.2452513197776592e-07 0.0000000000000000e+00  1.3049209950961676e-04 -1.0124402862585874e-06 0.0000000000000000e+00  1.6674864227931064e-04 -1.2017184427704960e-06 0.0000000000000000e+00  2.1146602633478049e-04 -1.3791782223422558e-06 0.0000000000000000e+00  2.6742430202248221e-04 -1.5200066902779208e-06 0.0000000000000000e+00  3.3838652535270278e-04 -1.5809162881951502e-06 0.0000000000000000e+00  4.2951840349058219e-04 -1.4907906614596584e-06 0.0000000000000000e+00  5.4795797847543301e-04 -1.1419806542115087e-06 0.0000000000000000e+00  7.0350320778045188e-04 -4.0064550139074748e-07 0.0000000000000000e+00  9.0918140238485266e-04 7.8207985903124121e-07 0.0000000000000000e+00  1.1809326095577036e-03 1.8244867354611640e-06 0.0000000000000000e+00  1.5349208924064443e-03 -6.9841470188884951e-07 0.0000000000000000e+00  0.0000000000000000e+00 0.0000000000000000e+00 0.0000000000000000e+00  1.3416671280516906e-05 -1.1684697226273853e-07 0.0000000000000000e+00  2.7444679783336071e-05 -2.3557326467364162e-07 0.0000000000000000e+00  4.2733391140628091e-05 -3.5759762667857481e-07 0.0000000000000000e+00  6.0016570395515118e-05 -4.8331213181693253e-07 0.0000000000000000e+00  8.0167210034103181e-05 -6.1117172978042419e-07 0.0000000000000000e+00  1.0427061905200560e-04 -7.3616967137639585e-07 0.0000000000000000e+00  1.3372759533832664e-04 -8.4720219047899397e-07 0.0000000000000000e+00  1.7040652506544727e-04 -9.2242207958692532e-07 0.0000000000000000e+00  2.1687540861574627e-04 -9.2087859589605245e-07 0.0000000000000000e+00  2.7676563030777038e-04 -7.6707641332499979e-07 0.0000000000000000e+00  3.5535382414783259e-04 -3.2143708661671168e-07 0.0000000000000000e+00  4.6050013822042867e-04 6.7874748453000836e-07 0.0000000000000000e+00  6.0413545360306548e-04 2.7425244411098301e-06 0.0000000000000000e+00  8.0443036893101537e-04 6.8831065650097970e-06 0.0000000000000000e+00  1.0879801897658754e-03 1.5057338831197019e-05 0.0000000000000000e+00  1.4858721164150710e-03 2.9658768964307814e-05 0.0000000000000000e+00  0.0000000000000000e+00 0.0000000000000000e+00 0.0000000000000000e+00  9.3033527910556298e-06 -7.8570605783486728e-08 0.0000000000000000e+00  1.9039008055736293e-05 -1.5803595883441285e-07 0.0000000000000000e+00  2.9667604166293053e-05 -2.3886607292149113e-07 0.0000000000000000e+00  4.1713210161074441e-05 -3.2057290516351110e-07 0.0000000000000000e+00  5.5805538751752674e-05 -4.0084755658285186e-07 0.0000000000000000e+00  7.2737718772593085e-05 -4.7408660592143812e-07 0.0000000000000000e+00  9.3550556011233986e-05 -5.2877821699306544e-07 0.0000000000000000e+00  1.1966188397794684e-04 -5.4274780066150422e-07 0.0000000000000000e+00  1.5307430127517739e-04 -4.7429263132125832e-07 0.0000000000000000e+00  1.9672362860354074e-04 -2.4512698699682903e-07 0.0000000000000000e+00  2.5508997725481555e-04 2.9395078136768375e-07 0.0000000000000000e+00  3.3532056099350936e-04 1.4374769796692177e-06 0.0000000000000000e+00  4.4939858986620611e-04 3.8079153562711588e-06 0.0000000000000000e+00  6.1858438890618876e-04 8.8958475951376314e-06 0.0000000000000000e+00  8.8337923036322871e-04 2.1070885567378065e-05 0.0000000000000000e+00  1.3315943452143636e-03 5.7271277888308516e-05 0.0000000000000000e+00  0.0000000000000000e+00 0.0000000000000000e+00 0.0000000000000000e+00  4.7618864925541432e-06 -3.9433073080224462e-08 0.0000000000000000e+00  9.7476616212177750e-06 -7.9189562713630296e-08 0.0000000000000000e+00  1.5196344069033962e-05 -1.1933956599833391e-07 0.0000000000000000e+00  2.1380994996825741e-05 -1.5937842017112639e-07 0.0000000000000000e+00  2.8631700725573422e-05 -1.9770496395830293e-07 0.0000000000000000e+00  3.7367521204618564e-05 -2.3072335335542387e-07 0.0000000000000000e+00  4.8144000827615522e-05 -2.5123887629160154e-07 0.0000000000000000e+00  6.1727892055256757e-05 -2.4553629456360711e-07 0.0000000000000000e+00  7.9220935317026104e-05 -1.8800954345998213e-07 0.0000000000000000e+00  1.0227605605488040e-04 -3.1362962696614959e-08 0.0000000000000000e+00  1.3349716462428957e-04 3.1041137277157379e-07 0.0000000000000000e+00  1.7722515853503364e-04 9.8653850804197507e-07 0.0000000000000000e+00  2.4117769922028733e-04 2.2167503478394631e-06 0.0000000000000000e+00  3.3999276073788497e-04 4.1118621778267337e-06 0.0000000000000000e+00  5.0234105224823472e-04 5.4187882192563412e-06 0.0000000000000000e+00  7.7693190567219481e-04 -2.4580622865234083e-06 0.0000000000000000e+00  0.0000000000000000e+00 0.0000000000000000e+00 0.0000000000000000e+00  0.0000000000000000e+00 0.0000000000000000e+00 0.0000000000000000e+00  0.0000000000000000e+00 0.0000000000000000e+00 0.0000000000000000e+00  0.0000000000000000e+00 0.0000000000000000e+00 0.0000000000000000e+00  0.0000000000000000e+00 0.0000000000000000e+00 0.0000000000000000e+00  0.0000000000000000e+00 0.0000000000000000e+00 0.0000000000000000e+00  0.0000000000000000e+00 0.0000000000000000e+00 0.0000000000000000e+00  0.0000000000000000e+00 0.0000000000000000e+00 0.0000000000000000e+00  0.0000000000000000e+00 0.0000000000000000e+00 0.0000000000000000e+00  