<?xml version="1.0"?>
<VTKFile type="UnstructuredGrid"  version="0.1"  >
<UnstructuredGrid>
<Piece  NumberOfPoints="289" NumberOfCells="512">
<Points>
<DataArray  type="Float64"  NumberOfComponents="3"  format="ascii">0 0 0  0.0625 0 0  0.125 0 0  0.1875 0 0  0.25 0 0  0.3125 0 0  0.375 0 0  0.4375 0 0  0.5 0 0  0.5625 0 0  0.625 0 0  0.6875 0 0  0.75 0 0  0.8125 0 0  0.875 0 0  0.9375 0 0  1 0 0  0 0.0625 0  0.06255518288174058 0.06249876393892176 0  0.1251121186481794 0.06249747852423696 0  0.1876725833442411 0.06249609222296045 0  0.250238393687698 0.06249454908226348 0  0.3128114206465868 0.06249278612280097 0  0.3753935961878722 0.06249073010575349 0  0.4379869150112348 0.0624882930713314 0  0.5005934413987785 0.06248536529615192 0  0.5632153523763009 0.06248180234020339 0  0.6258551028061579 0.06247739729943873 0  0.6885159463466487 0.06247181251050712 0  0.7512034818009421 0.06246438922758433 0  0.8139302852175383 0.06245355395972952 0  0.8767305116863514 0.06243476858562553 0  0.9397094681944215 0.06239278760049408 0  1.003227820148503 0.06226982981005982 0  0 0.125 0  0.06260865879985572 0.1249975759842434 0  0.1252208080264781 0.1249950551912212 0  0.1878399878445444 0.1249923365980535 0  0.250469826631036 0.124989310595483 0  0.313114070337407 0.1249858540310816 0  0.3757765951006171 0.1249818242810579 0  0.4384614016869878 0.1249770515874029 0  0.5011725994367793 0.1249713281644172 0  0.5639144091334848 0.1249643909691937 0  0.626691262986237 0.1249558916809801 0  0.6895081832394011 0.1249453415127702 0  0.7523718191412053 0.1249320140576383 0  0.8152927939619328 0.1249148265832349 0  0.8782897253962011 0.1248925486710559 0  0.9413899524433812 0.1248666857030931 0  1.004585632611111 0.1248603495196151 0  0 0.1875 0  0.06265868934659 0.1874964835724615 0  0.125322566108315 0.1874928269047678 0  0.1879969004756072 0.1874888836649206 0  0.2506871118079674 0.1874844952342779 0  0.3133988194128152 0.1874794837916998 0  0.3761378633298546 0.1874736443939361 0  0.4389102847420489 0.187466735530759 0  0.5017222583992174 0.1874584673956073 0  0.5645799772520982 0.1874484867605392 0  0.6274895040693156 0.1874363571265494 0  0.6904566194814833 0.1874215340838459 0  0.7534866669635735 0.18740334343452 0  0.8165841502002539 0.1873809958137986 0  0.8797508384541379 0.1873537191167982 0  0.9429781874564069 0.1873209179811313 0  1.006225315801133 0.1872795796065002 0  0 0.25 0  0.06270357728748714 0.2499955301580369 0  0.125413966460664 0.2499908823959033 0  0.1881381049499399 0.2499858711318793 0  0.2508831612778379 0.249980295343973 0  0.3136566186947867 0.249973930039732 0  0.3764663154240696 0.2499665168108829 0  0.4393204194895852 0.2499577532995745 0  0.5022273098357061 0.2499472816815396 0  0.5651953270412587 0.2499346769640778 0  0.6282323426003035 0.2499194375528137 0  0.6913450621408957 0.2499009843031117 0  0.7545378872599213 0.2498786819430802 0  0.8178109265860216 0.249851908537218 0  0.881156237862175 0.2498202010340115 0  0.9445506548657616 0.2497834421647224 0  1.007943904447035 0.2497419531335972 0  0 0.3125 0  0.06274169860110757 0.312494753397438 0  0.1254917189174642 0.3124892985382035 0  0.1882585634861532 0.3124834182418229 0  0.2510510757089083 0.3124768773022011 0  0.3138785744955577 0.3124694125776521 0  0.376750936997428 0.3124607221379005 0  0.4396785970595031 0.3124504534721838 0  0.5026724121550861 0.3124381913286972 0  0.5657433301329321 0.3124234469739989 0  0.6289017560284785 0.3124056531118705 0  0.6921564730392334 0.3123841732555885 0  0.7555129033270879 0.3123583419130734 0  0.8189704062973697 0.3123275625061362 0  0.8825182722924922 0.3122915020573243 0  0.9461303851287196 0.3122504458535088 0  1.009760095195142 0.3122060230061481 0  0 0.375 0  0.06277154462404186 0.3749941835971412 0  0.1255527510145896 0.3749881372144033 0  0.1883535306648894 0.3749816210357277 0  0.2511842770884958 0.3749743752675236 0  0.3140560749059669 0.3749661090440901 0  0.3769808586335275 0.3749564881051429 0  0.4399714832028743 0.3749451211052986 0  0.5030416462517961 0.3749315449464148 0  0.5662055703624299 0.3749152107069039 0  0.6294773102065425 0.3748954741513162 0  0.6928694971031163 0.374871599283001 0  0.7563912850185764 0.3748427908634848 0  0.8200452593888881 0.3748082824060983 0  0.8838232183316012 0.3747675170136343 0  0.9477012463431019 0.3747204570291222 0  1.011635648621243 0.3746679872111066 0  0 0.4375 0  0.06279177715517782 0.4374938424524483 0  0.1255943170669142 0.4374874427507396 0  0.1884187129608448 0.4374805484178346 0  0.2512767099204267 0.4374728858502833 0  0.3141810133592807 0.4374641483452119 0  0.3771455633391748 0.4374539823852726 0  0.440185738840163 0.437441971575005 0  0.5033184289974133 0.4374276177847157 0  0.5665618672080143 0.4374103196363346 0  0.6299350660967876 0.4373893499918833 0  0.6934566190784878 0.4373638375871269 0  0.7571425649690989 0.4373327651089572 0  0.8210029950047916 0.4372950093362957 0  0.8850372180422708 0.4372494710337462 0  0.9492277367014228 0.4371953734285158 0  1.013534096949779 0.4371328448440032 0  0 0.5 0  0.06280129764605653 0.4999937421181035 0  0.1256141384041457 0.4999872399792835 0  0.1884504827357662 0.4999802390414096 0  0.2513231301908612 0.4999724635432979 0  0.3142461479035848 0.4999636042144621 0  0.377235298266533 0.4999533037030993 0  0.4403084424092031 0.4999411384813845 0  0.5034858675850946 0.499926595516428 0  0.5667904389277529 0.4999090414227482 0  0.6302474009133069 0.4998876814133101 0  0.6938835447216873 0.499861506051174 0  0.757725319377203 0.4998292280017093 0  0.8217953339810294 0.4997892242515189 0  0.8861066771784712 0.4997395323113862 0  0.9506547584012844 0.4996780176599204 0  1.015407167832098 0.4996029465136735 0  0 0.5625 0  0.06279932861667846 0.5624938846879782 0  0.1256105720432328 0.5624875330937481 0  0.1884461454515404 0.5624806992896122 0  0.2513194867144225 0.5624731173233758 0  0.3142456139368294 0.5624644894746951 0  0.377241732357502 0.5624544719875543 0  0.4403278924068594 0.5624426565340283 0  0.5035276777069241 0.562428544499173 0  0.5668688562225576 0.5624115091453196 0  0.6303838424752878 0.5623907374028529 0  0.6941096688094516 0.562365138311668 0  0.7580869210650717 0.5623332004234473 0  0.8223567495205646 0.562292782241588 0  0.886954692289264 0.5622408470586485 0  0.9518999282543431 0.5621732477186435 0  1.017179349307453 0.5620848770025929 0  0 0.625 0  0.06278550145449022 0.624994262186891 0  0.1255827965000917 0.6249883055494458 0  0.1884042444756721 0.6249819028551281 0  0.2512633775296525 0.6249748093819981 0  0.3141755767404614 0.6249667527705315 0  0.3771588596686181 0.6249574207190509 0  0.4402348189762576 0.624946444775938 0  0.5034297451312729 0.6249333769385559 0  0.5667759405376491 0.624917652639815 0  0.6303131631933636 0.6248985274910503 0  0.6940899779076467 0.6248749633012043 0  0.7581644596421158 0.6248454180403397 0  0.8226030676651982 0.6248074637984233 0  0.887475498302437 0.6247571331507611 0  0.9528421330742886 0.6246879609371951 0  1.018730570013876 0.6245901366746111 0  0 0.6875 0  0.06275994039033185 0.6874948571592919 0  0.1255309937502589 0.6874895212386694 0  0.1883248708474104 0.6874837924507822 0  0.2511545367142863 0.6874774571372966 0  0.3140349689898204 0.6874702801573876 0  0.3769840905663769 0.687461996205735 0  0.4400239621510917 0.6874522990760586 0  0.5031823427170962 0.6874408267257658 0  0.566494745904377 0.6874271371979668 0  0.6300071172002197 0.6874106637351491 0  0.6937791745225154 0.6873906214219032 0  0.7578881603892883 0.6873658004143942 0  0.8224319589112231 0.6873340977917526 0  0.8875287029332162 0.687291471473561 0  0.9533064768542583 0.6872297155034606 0  1.019871965628568 0.6871321455392757 0  0 0.75 0  0.06272332866335907 0.7499956438594805 0  0.1254564975192299 0.7499911269991261 0  0.1882099287386169 0.7499862838935051 0  0.2509952779121113 0.749980939260061 0  0.313826210102082 0.749974903440533 0  0.3767193970713521 0.7499679682501346 0  0.4396958641845889 0.7499599037298059 0  0.5027828748424986 0.749950456382417 0  0.5660166295793381 0.7499393492048197 0  0.6294461803630091 0.7499262817455939 0  0.6931391001901654 0.749910919808169 0  0.757189504365088 0.7498928340637104 0  0.8217286405816465 0.7498712478694969 0  0.8869363917497796 0.7498441549919337 0  0.9530459172322389 0.7498055669267801 0  1.020318203376257 0.7497379953748651 0  0 0.8125 0  0.06267694095166028 0.8124965899190267 0  0.1253618728803744 0.8124930562063797 0  0.1880632957284452 0.812489272207343 0  0.2507907968225684 0.8124851053566348 0  0.3135557572220385 0.8124804152585271 0  0.3763722912084199 0.8124750535868205 0  0.4392585702426481 0.8124688676845052 0  0.5022387731557204 0.8124617115661995 0  0.5653460625753449 0.812453471639615 0  0.6286272645152461 0.8124441215692271 0  0.6921504093213861 0.8124338341905244 0  0.7560171009585379 0.8124232006797133 0  0.820382898398189 0.8124136238675546 0  0.8854900335145297 0.8124078295164882 0  0.9517139871337683 0.812409379066044 0  1.019595258142439 0.8124143661795349 0  0 0.875 0  0.06262262738615056 0.874997658236899 0  0.1252508937077763 0.8749952328719209 0  0.1878908164346759 0.874992638688031 0  0.2505492265107901 0.8749897875043479 0  0.3132343092240438 0.8749865879737844 0  0.3759563417888093 0.8749829476550439 0  0.4387287652573404 0.8749787798115563 0  0.5015698239807461 0.8749740200655218 0  0.5645051882445253 0.8749686639592988 0  0.627572335122529 0.8749628501691503 0  0.6908282002316298 0.8749570476932007 0  0.7543631998886241 0.8749524943937893 0  0.8183283361105347 0.8749522949382067 0  0.8829910261061025 0.874964437603116 0  0.9488610854553498 0.8750110553283985 0  1.017031960305435 0.8751597934734596 0  0 0.9375 0  0.06256273978789559 0.9374988087750161 0  0.1251283953390101 0.9374975754902241 0  0.187700084163005 0.9374962574300065 0  0.2502813588272148 0.9374948107671988 0  0.3128765002369693 0.9374931908668049 0  0.3754909235315642 0.9374913541245349 0  0.4381317788744796 0.9374892630171076
[...]
<PointData  Vectors="f_54"> 
<DataArray  type="Float64"  Name="f_54"  NumberOfComponents="3" format="ascii">0.0000000000000000e+00 0.0000000000000000e+00 0.0000000000000000e+00  0.0000000000000000e+00 0.0000000000000000e+00 0.0000000000000000e+00  0.0000000000000000e+00 0.0000000000000000e+00 0.0000000000000000e+00  0.0000000000000000e+00 0.0000000000000000e+00 0.0000000000000000e+00  0.0000000000000000e+00 0.0000000000000000e+00 0.0000000000000000e+00  0.0000000000000000e+00 0.0000000000000000e+00 0.0000000000000000e+00  0.0000000000000000e+00 0.0000000000000000e+00 0.0000000000000000e+00  0.0000000000000000e+00 0.0000000000000000e+00 0.0000000000000000e+00  0.0000000000000000e+00 0.0000000000000000e+00 0.0000000000000000e+00  0.0000000000000000e+00 0.0000000000000000e+00 0.0000000000000000e+00  0.0000000000000000e+00 0.0000000000000000e+00 0.0000000000000000e+00  0.0000000000000000e+00 0.0000000000000000e+00 0.0000000000000000e+00  0.0000000000000000e+00 0.0000000000000000e+00 0.0000000000000000e+00  0.0000000000000000e+00 0.0000000000000000e+00 0.0000000000000000e+00  0.0000000000000000e+00 0.0000000000000000e+00 0.0000000000000000e+00  0.0000000000000000e+00 0.0000000000000000e+00 0.0000000000000000e+00  0.0000000000000000e+00 0.0000000000000000e+00 0.0000000000000000e+00  0.0000000000000000e+00 0.0000000000000000e+00 0.0000000000000000e+00  -9.3869274855174621e-07 2.1855770856111271e-08 0.0000000000000000e+00  -1.8967365985367419e-06 4.4609005820928428e-08 0.0000000000000000e+00  -2.8921399346451685e-06 6.9174991230969476e-08 0.0000000000000000e+00  -3.9398403680426327e-06 9.6493400447837884e-08 0.0000000000000000e+00  -5.0494518312483382e-06 1.2751651993183314e-07 0.0000000000000000e+00  -6.2220617283531477e-06 1.6316023569347886e-07 0.0000000000000000e+00  -7.4455859920245558e-06 2.0418964144158665e-07 0.0000000000000000e+00  -8.6879342620336571e-06 2.5099279124923760e-07 0.0000000000000000e+00  -9.8866480981817463e-06 3.0316225781194239e-07 0.0000000000000000e+00  -1.0932168728382660e-05 3.5872967743114192e-07 0.0000000000000000e+00  -1.1637712468209733e-05 4.1269527359561625e-07 0.0000000000000000e+00  -1.1676306707879998e-05 4.5383503670913369e-07 0.0000000000000000e+00  -1.0425978191896242e-05 4.5638289064418811e-07 0.0000000000000000e+00  -6.5287431903351227e-06 3.5392843496713590e-07 0.0000000000000000e+00  3.5333133181923277e-06 -5.5396262417335012e-08 0.0000000000000000e+00  3.0650762816532488e-05 -1.4987491761943092e-06 0.0000000000000000e+00  0.0000000000000000e+00 0.0000000000000000e+00 0.0000000000000000e+00  -1.8596660277820114e-06 4.2852826667548754e-08 0.0000000000000000e+00  -3.7595923441177271e-06 8.7490440749669123e-08 0.0000000000000000e+00  -5.7376246092044379e-06 1.3574231385964746e-07 0.0000000000000000e+00  -7.8260386551118476e-06 1.8950786279781438e-07 0.0000000000000000e+00  -1.0047379792282676e-05 2.5075070751499801e-07 0.0000000000000000e+00  -1.2408498133436764e-05 3.2142856675140343e-07 0.0000000000000000e+00  -1.4891907424886039e-05 4.0330929534414659e-07 0.0000000000000000e+00  -1.7443273318265788e-05 4.9759405868872498e-07 0.0000000000000000e+00  -1.9953221731115063e-05 6.0422489176696086e-07 0.0000000000000000e+00  -2.2230365632764471e-05 7.2069203756248669e-07 0.0000000000000000e+00  -2.3959618558226187e-05 8.4008037175723428e-07 0.0000000000000000e+00  -2.4633915538611828e-05 9.4807235120904037e-07 0.0000000000000000e+00  -2.3437371125655543e-05 1.0191340734819708e-06 0.0000000000000000e+00  -1.9055710893690451e-05 1.0159438625476402e-06 0.0000000000000000e+00  -9.4994706279566989e-06 9.1856410059028348e-07 0.0000000000000000e+00  7.1070271794630732e-06 9.3222413577761292e-07 0.0000000000000000e+00  0.0000000000000000e+00 0.0000000000000000e+00 0.0000000000000000e+00  -2.7419407724349011e-06 6.2103145148006785e-08 0.0000000000000000e+00  -5.5477407206519398e-06 1.2684277627880905e-07 0.0000000000000000e+00  -8.4782957049598631e-06 1.9694169628865215e-07 0.0000000000000000e+00  -1.1587543031925219e-05 2.7527361537155136e-07 0.0000000000000000e+00  -1.4917061834425531e-05 3.6489466503550150e-07 0.0000000000000000e+00  -1.8488173325705032e-05 4.6900196477268856e-07 0.0000000000000000e+00  -2.2290408447623741e-05 5.9075828726921101e-07 0.0000000000000000e+00  -2.6264972748920464e-05 7.3288424308290962e-07 0.0000000000000000e+00  -3.0281578837431725e-05 8.9686884541294614e-07 0.0000000000000000e+00  -3.4106820590402549e-05 1.0815960297018950e-06 0.0000000000000000e+00  -3.7362467171338993e-05 1.2811708378136345e-06 0.0000000000000000e+00  -3.9473997423974665e-05 1.4818852979105313e-06 0.0000000000000000e+00  -3.9618290821250958e-05 1.6589349181071841e-06 0.0000000000000000e+00  -3.6710525887894462e-05 1.7753288959442658e-06 0.0000000000000000e+00  -2.9564396697962420e-05 1.7878143052850950e-06 0.0000000000000000e+00  -1.7550737072327099e-05 1.6496721682734433e-06 0.0000000000000000e+00  0.0000000000000000e+00 0.0000000000000000e+00 0.0000000000000000e+00  -3.5618600640864936e-06 7.8755144268190218e-08 0.0000000000000000e+00  -7.2144696204886682e-06 1.6092226261926162e-07 0.0000000000000000e+00  -1.1045799877864761e-05 2.5005678745635175e-07 0.0000000000000000e+00  -1.5137034382006874e-05 3.4998476274361576e-07 0.0000000000000000e+00  -1.9556858605413222e-05 4.6490885428137267e-07 0.0000000000000000e+00  -2.4352719272247933e-05 5.9945752238032998e-07 0.0000000000000000e+00  -2.9537693458897586e-05 7.5861731744907554e-07 0.0000000000000000e+00  -3.5071424371625626e-05 9.4744200718662946e-07 0.0000000000000000e+00  -4.0833598881021665e-05 1.1703636591879988e-06 0.0000000000000000e+00  -4.6589046932771862e-05 1.4298426520818242e-06 0.0000000000000000e+00  -5.1945582200613313e-05 1.7240103775006081e-06 0.0000000000000000e+00  -5.6311004779639998e-05 2.0429495197129626e-06 0.0000000000000000e+00  -5.8867946285089591e-05 2.3634401070651720e-06 0.0000000000000000e+00  -5.8610501364134802e-05 2.6423751971728752e-06 0.0000000000000000e+00  -5.4527917140822165e-05 2.8087001789219868e-06 0.0000000000000000e+00  -4.6046953088002372e-05 2.7492782553457166e-06 0.0000000000000000e+00  0.0000000000000000e+00 0.0000000000000000e+00 0.0000000000000000e+00  -4.2925109302901143e-06 9.2034337428696458e-08 0.0000000000000000e+00  -8.7058091058413968e-06 1.8812336555422220e-07 0.0000000000000000e+00  -1.3358973613366262e-05 2.9253205984178927e-07 0.0000000000000000e+00  -1.8366360324309144e-05 4.0994330750438102e-07 0.0000000000000000e+00  -2.3832721604995617e-05 5.4567167748906156e-07 0.0000000000000000e+00  -2.9844955732446682e-05 7.0586517500216488e-07 0.0000000000000000e+00  -3.6458855382813391e-05 8.9765356761568370e-07 0.0000000000000000e+00  -4.3678919409630939e-05 1.1291508618257583e-06 0.0000000000000000e+00  -5.1429208167267520e-05 1.4091288085342242e-06 0.0000000000000000e+00  -5.9513817024621472e-05 1.7460280406609811e-06 0.0000000000000000e+00  -6.7567697555721490e-05 2.1457462043774726e-06 0.0000000000000000e+00  -7.5003760363848002e-05 2.6073410510881066e-06 0.0000000000000000e+00  -8.0972396310528431e-05 3.1154662626626541e-06 0.0000000000000000e+00  -8.4365551541976515e-05 3.6281771566284434e-06 0.0000000000000000e+00  -8.3913032100916957e-05 4.0591230900296922e-06 0.0000000000000000e+00  -7.8406745519239097e-05 4.2557477486539024e-06 0.0000000000000000e+00  0.0000000000000000e+00 0.0000000000000000e+00 0.0000000000000000e+00  -4.9038914184941088e-06 1.0129972158032826e-07 0.0000000000000000e+00  -9.9607097837164338e-06 2.0709729637267399e-07 0.0000000000000000e+00  -1.5323700445359865e-05 3.2216462591715956e-07 0.0000000000000000e+00  -2.1145526784198160e-05 4.5183934847082365e-07 0.0000000000000000e+00  -2.7575538939123133e-05 6.0236306804014916e-07 0.0000000000000000e+00  -3.4753626890186772e-05 7.8128025027079842e-07 0.0000000000000000e+00  -4.2798733246232313e-05 9.9789935755429233e-07 0.0000000000000000e+00  -5.1789454055761111e-05 1.2637772684568593e-06 0.0000000000000000e+00  -6.1733509752806209e-05 1.5930937427285923e-06 0.0000000000000000e+00  -7.2522582757768211e-05 2.0025839935920531e-06 0.0000000000000000e+00  -8.3869848811833205e-05 2.5103147196338276e-06 0.0000000000000000e+00  -9.5230783307468186e-05 3.1319227750631575e-06 0.0000000000000000e+00  -1.0571520646481710e-04 3.8719295236937519e-06 0.0000000000000000e+00  -1.1401097046273491e-04 4.7065803851595804e-06 0.0000000000000000e+00  -1.1835419013018579e-04 5.5542023506757675e-06 0.0000000000000000e+00  -1.1658642487369668e-04 6.2314889530203064e-06 0.0000000000000000e+00  0.0000000000000000e+00 0.0000000000000000e+00 0.0000000000000000e+00  -5.3639722093172106e-06 1.0611010483059708e-07 0.0000000000000000e+00  -1.0913092237862226e-05 2.1689741163831942e-07 0.0000000000000000e+00  -1.6835767649077223e-05 3.3735570435511849e-07 0.0000000000000000e+00  -2.3326004935345335e-05 4.7315210690320112e-07 0.0000000000000000e+00  -3.0584255565906623e-05 6.3107590212670493e-07 0.0000000000000000e+00  -3.8815295727684826e-05 8.1963762302061430e-07 0.0000000000000000e+00  -4.8221042735813997e-05 1.0498892270860144e-06 0.0000000000000000e+00  -5.8985072209754010e-05 1.3365347268207042e-06 0.0000000000000000e+00  -7.1244016132734821e-05 1.6993527349852518e-06 0.0000000000000000e+00  -8.5039082998579347e-05 2.1647815478676007e-06 0.0000000000000000e+00  -1.0023912328969823e-04 2.7670687967014814e-06 0.0000000000000000e+00  -1.1642623844483232e-04 3.5473898883827876e-06 0.0000000000000000e+00  -1.3273846889646587e-04 4.5474211945815333e-06 0.0000000000000000e+00  -1.4767561227454413e-04 5.7907871556622093e-06 0.0000000000000000e+00  -1.5889794003564649e-04 7.2423183946320421e-06 0.0000000000000000e+00  -1.6308431936671097e-04 8.7346506369689960e-06 0.0000000000000000e+00  0.0000000000000000e+00 0.0000000000000000e+00 0.0000000000000000e+00  -5.6407205863176644e-06 1.0628771145472310e-07 0.0000000000000000e+00  -1.1495937241483321e-05 2.1712464332716109e-07 0.0000000000000000e+00  -1.7787063465699057e-05 3.3737841843561650e-07 0.0000000000000000e+00  -2.4748969381450109e-05 4.7261105698367647e-07 0.0000000000000000e+00  -3.2635781765650657e-05 6.2958272891138140e-07 0.0000000000000000e+00  -4.1724906594380496e-05 8.1698661060456775e-07 0.0000000000000000e+00  -5.2317379080943232e-05 1.0465696875504100e-06 0.0000000000000000e+00  -6.4731053528334462e-05 1.3348667382019684e-06 0.0000000000000000e+00  -7.9280503740790685e-05 1.7058505976077373e-06 0.0000000000000000e+00  -9.6233386112153736e-05 2.1948129631256203e-06 0.0000000000000000e+00  -1.1572719374884174e-04 2.8535400853231006e-06 0.0000000000000000e+00  -1.3762351002481659e-04 3.7558652463106051e-06 0.0000000000000000e+00  -1.6127230365410098e-04 5.0000119809577878e-06 0.0000000000000000e+00  -1.8516485814402102e-04 6.6982865561270742e-06 0.0000000000000000e+00  -2.0648605020850622e-04 8.9343773728224182e-06 0.0000000000000000e+00  -2.2065306642073219e-04 1.1655889830698547e-05 0.0000000000000000e+00  0.0000000000000000e+00 0.0000000000000000e+00 0.0000000000000000e+00  -5.7050406455129093e-06 1.0196105799618037e-07 0.0000000000000000e+00  -1.1647369066239448e-05 2.0803282656442432e-07 0.0000000000000000e+00  -1.8075169857310829e-05 3.2259154900737193e-07 0.0000000000000000e+00  -2.5258821816766475e-05 4.5060558077902874e-07 0.0000000000000000e+00  -3.3502683349122119e-05 5.9809583669373139e-07 0.0000000000000000e+00  -4.3157201610114705e-05 7.7285991907307112e-07 0.0000000000000000e+00  -5.4630318729571982e-05 9.8568176118379594e-07 0.0000000000000000e+00  -6.8395449140938957e-05 1.2524144487415178e-06 0.0000000000000000e+00  -8.4989987681974844e-05 1.5975957932935368e-06 0.0000000000000000e+00  -1.0499215508631629e-04 2.0606509739670786e-06 0.0000000000000000e+00  -1.2895329437940113e-04 2.7061601024752921e-06 0.0000000000000000e+00  -1.5724598007947185e-04 3.6396449270779832e-06 0.0000000000000000e+00  -1.8976675506657227e-04 5.0283532595574230e-06 0.0000000000000000e+00  -2.2541670716024216e-04 7.1188999074424277e-06 0.0000000000000000e+00  -2.6130528179047082e-04 1.0223659999868424e-05 0.0000000000000000e+00  -2.9174224923098356e-04 1.4610221914525005e-05 0.0000000000000000e+00  0.0000000000000000e+00 0.0000000000000000e+00 0.0000000000000000e+00  -5.5344267475225029e-06 9.3567807357733138e-08 0.0000000000000000e+00  -1.1318365248001670e-05 1.9054850325911155e-07 0.0000000000000000e+00  -1.7615926814529884e-05 2.9451263911375165e-07 0.0000000000000000e+00  -2.4721756653084951e-05 4.0938986151376552e-07 0.0000000000000000e+00  -3.2979076506202304e-05 5.3976363854549422e-07 0.0000000000000000e+00  -4.2801000514350788e-05 6.9137304905940838e-07 0.0000000000000000e+00  -5.4695825493256343e-05 8.7204398264589180e-07 0.0000000000000000e+00  -6.9295913912304497e-05 1.0935021910726989e-06 0.0000000000000000e+00  -8.7386966682515089e-05 1.3749815116890441e-06 0.0000000000000000e+00  -1.0992787728693073e-04 1.7504295342572649e-06 0.0000000000000000e+00  -1.3803708411765382e-04 2.2827112535940232e-06 0.0000000000000000e+00  -1.7289295656372988e-04 3.0906829974126659e-06 0.0000000000000000e+00  -2.1544561572674464e-04 4.3974350487989855e-06 0.0000000000000000e+00  -2.6576671173833295e-04 6.6051727872899025e-06 0.0000000000000000e+00  -3.2181394876175054e-04 1.0376690579886839e-05 0.0000000000000000e+00  -3.7750513706737528e-04 1.6613657668648654e-05 0.0000000000000000e+00  0.0000000000000000e+00 0.0000000000000000e+00 0.0000000000000000e+00  -5.1169321176513900e-06 8.1803723675468591e-08 0.0000000000000000e+00  -1.0481302881135149e-05 1.6616928987640265e-07 0.0000000000000000e+00  -1.6357830675904960e-05 2.5567278022870280e-07 0.0000000000000000e+00  -2.3048045976560704e-05 3.5292473635605945e-07 0.0000000000000000e+00  -3.0913664070346293e-05 4.6059410433422658e-07 0.0000000000000000e+00  -4.0406568673359669e-05 5.8147652561115728e-07 0.0000000000000000e+00  -5.2108583926288395e-05 7.1871887969735119e-07 0.0000000000000000e+00  -6.6784722405541762e-05 8.7650276561230547e-07 0.0000000000000000e+00  -8.5453244202440479e-05 1.0619616331032550e-06 0.0000000000000000e+00  -1.0947251359008628e-04 1.2902478705497845e-06 0.0000000000000000e+00  -1.4063285230339154e-04 1.5973487842995412e-06 0.0000000000000000e+00  -1.8120856111997297e-04 2.0712577164801295e-06 0.0000000000000000e+00  -2.3384442258324488e-04 2.9243257259322412e-06 0.0000000000000000e+00  -3.0098022524332400e-04 4.6493007082494446e-06 0.0000000000000000e+00  -3.8323959461528448e-04 8.3118776093029265e-06 0.0000000000000000e+00  -4.7602004542616978e-04 1.5942789301966093e-05 0.0000000000000000e+00  0.0000000000000000e+00 0.0000000000000000e+00 0.0000000000000000e+00  -4.4548530659877258e-06 6.7517270796107310e-08 0.0000000000000000e+00  -9.1380839633318363e-06 1.3673382309920350e-07 0.0000000000000000e+00  -1.4296253999608013e-05 2.0922270348950958e-07 0.0000000000000000e+00  -2.0215201483385018e-05 2.8626299097343807e-07 0.0000000000000000e+00  -2.7246343049388568e-05 3.6856060288382126e-07 0.0000000000000000e+00  -3.5842411641371502e-05 4.5578095045272876e-07 0.0000000000000000e+00  -4.6608427060547954e-05 5.4578749792919196e-07 0.0000000000000000e+00  -6.0376569517333351e-05 6.3347906678129253e-07 0.0000000000000000e+00  -7.8317821789932154e-05 7.0924693415179786e-07 0.0000000000000000e+00  -1.0210836845479705e-04 7.5767894792791373e-07 0.0000000000000000e+00  -1.3417157066284119e-04 7.5931630919603143e-07 0.0000000000000000e+00  -1.7800375716876192e-04 7.0532545150312343e-07 0.0000000000000000e+00  -2.3852037196243556e-04 6.5636735219614003e-07 0.0000000000000000e+00  -3.2210348197889773e-04 9.3695406579067806e-07 0.0000000000000000e+00  -4.3532345442712499e-04 2.6974126668250116e-06 0.0000000000000000e+00  -5.8000773044336953e-04 9.2418134060245749e-06 0.0000000000000000e+00  0.0000000000000000e+00 0.0000000000000000e+00 0.0000000000000000e+00  -3.5673842901218181e-06 5.1568812655519138e-08 0.0000000000000000e+00  -7.3262083949226891e-06 1.0410190517884853e-07 0.0000000000000000e+00  -1.1484671388735501e-05 1.5834644271726263e-07 0.0000000000000000e+00  -1.6287549653678538e-05 2.1453653622617725e-07 0.0000000000000000e+00  -2.2041679528840794e-05 2.7189322334612178e-07 0.0000000000000000e+00  -2.9152053067648306e-05 3.2773188909498268e-07 0.0000000000000000e+00  -3.8176000264111644e-05 3.7583470873702251e-07 0.0000000000000000e+00  -4.9907994878584837e-05 4.0345965825710607e-07 0.0000000000000000e+00  -6.5516842166714350e-05 3.8583339575616128e-07 0.0000000000000000e+00  -8.6773762249669990e-05 2.7608052819873545e-07 0.0000000000000000e+00  -1.1643962211535247e-04 -1.2682160117268890e-08 0.0000000000000000e+00  -1.5892765184411783e-04 -6.3651864271407062e-07 0.0000000000000000e+00  -2.2141047819863399e-04 -1.8550815518082474e-06 0.0000000000000000e+00  -3.1545980988361506e-04 -4.0028283189015790e-06 0.0000000000000000e+00  -4.5836279047523196e-04 -7.0078606965657596e-06 0.0000000000000000e+00  -6.6863008826897733e-04 -7.6030358523953796e-06 0.0000000000000000e+00  0.0000000000000000e+00 0.0000000000000000e+00 0.0000000000000000e+00  -2.4914940454150733e-06 3.4692181582151278e-08 0.0000000000000000e+00  -5.1210795606929834e-06 6.9831254947207729e-08 0.0000000000000000e+00  -8.0397274895996133e-06 1.0564098902726358e-07 0.0000000000000000e+00  -1.1426720054723263e-05 1.4181290706766627e-07 0.0000000000000000e+00  -1.5509917887727075e-05 1.7697513363651647e-07 0.0000000000000000e+00  -2.0595288558285975e-05 2.0771235036946129e-07 0.0000000000000000e+00  -2.7112785958670282e-05 2.2669090923859556e-07 0.0000000000000000e+00  -3.5691296959695218e-05 2.1897563971519283e-07 0.0000000000000000e+00  -4.7286715436669923e-05 1.5459234170633329e-07 0.0000000000000000e+00  -6.3411008449730614e-05 -2.6972069906206239e-08 0.0000000000000000e+00  -8.6562491383608908e-05 -4.5026305976061075e-07 0.0000000000000000e+00  -1.2107829175960139e-04 -1.3792338615829738e-06 0.0000000000000000e+00  -1.7491955554293609e-04 -3.3943931576768612e-06 0.0000000000000000e+00  -2.6359565945285114e-04 -7.8263984695428986e-06 0.0000000000000000e+00  -4.1886239884231463e-04 -1.7836099553097333e-05 0.0000000000000000e+00  -7.0436642308029822e-04 -4.0831272415099826e-05 0.0000000000000000e+00  0.0000000000000000e+00 0.0000000000000000e+00 0.0000000000000000e+00  -1.2804691086364180e-06 1.7404593187737245e-08 0.0000000000000000e+00  -2.6332196439794151e-06 3.4962231580996922e-08 0.0000000000000000e+00  -4.1375090959109232e-06 5.2686232163908645e-08 0.0000000000000000e+00  -5.8879895629209368e-06 7.0254882323232152e-08 0.0000000000000000e+00  -8.0058914020145976e-06 8.6672517009671878e-08 0.0000000000000000e+00  -1.0655565668076957e-05 9.9633543279291552e-08 0.0000000000000000e+00  -1.4070666727531856e-05 1.0427734115474550e-07 0.0000000000000000e+00  -1.8597922868293156e-05 9.0666050430725924e-08 0.0000000000000000e+00  -2.4774216149571512e-05 3.8482065526901369e-08 0.0000000000000000e+00  -3.3470185141772257e-05 -9.4622807811486919e-08 0.0000000000000000e+00  -4.6176025617136931e-05 -4.0003113087830915e-07 0.0000000000000000e+00  -6.5618243260522438e-05 -1.0849458639377572e-06 0.0000000000000000e+00  -9.7233177915384081e-05 -2.6512946644510946e-06 0.0000000000000000e+00  -1.5317644821879380e-04 -6.4258056599301005e-06 0.0000000000000000e+00  -2.6523462141932538e-04 -1.6354952744341614e-05 0.0000000000000000e+00  -5.3674797738278057e-04 -4.6341224652785960e-05 0.0000000000000000e+00  0.0000000000000000e+00 0.0000000000000000e+00 0.0000000000000000e+00  0.0000000000000000e+00 0.0000000000000000e+00 0.0000000000000000e+00  0.0000000000000000e+00 0.0000000000000000e+00 0.0000000000000000e+00  0.0000000000000000e+00 0.0000000000000000e+00 0.0000000000000000e+00  0.0000000000000000e+00 0.0000000000000000e+00 0.0000000000000000e+00  0.0000000000000000e+00 0.0000000000000000e+00 0.0000000000000000e+00  0.0000000000000000e+00 0.0000000000000000e+00 0.0000000000000000e+00  0.0000000000000000e+00 0.0000000000000000e+00 0.0000000000000000e+00  0.0000000000000000e+00 0.00000000