<?xml version="1.0"?>
<VTKFile type="UnstructuredGrid"  version="0.1"  >
<UnstructuredGrid>
<Piece  NumberOfPoints="289" NumberOfCells="512">
<Points>
<DataArray  type="Float64"  NumberOfComponents="3"  format="ascii">0 0 0  0.0625 0 0  0.125 0 0  0.1875 0 0  0.25 0 0  0.3125 0 0  0.375 0 0  0.4375 0 0  0.5 0 0  0.5625 0 0  0.625 0 0  0.6875 0 0  0.75 0 0  0.8125 0 0  0.875 0 0  0.9375 0 0  1 0 0  0 0.0625 0  0.062559631325589 0.0624950330535248 0  0.125121353754995 0.06248994868898806 0  0.1876873238897973 0.06248463270874564 0  0.2502598147710301 0.06247897855515633 0  0.3128412787522568 0.06247289200309646 0  0.3754344188384372 0.06246629619466573 0  0.438042280009669 0.06245913544646516 0  0.5006683876534292 0.06245137359922429 0  0.5633169983941425 0.06244297686467946 0  0.6259936261910632 0.06243385766545868 0  0.6887062716404172 0.06242372170509552 0  0.751468554621886 0.06241166238928195 0  0.8143083676745444 0.06239503117084169 0  0.8772937678155996 0.06236599813934014 0  0.9406168352965187 0.0623000413574765 0  1.004889834119495 0.06211505419626016 0  0 0.125 0  0.06261719372793874 0.1249901829826913 0  0.1252385227339827 0.1249801272488827 0  0.187868253715639 0.1249696000534985 0  0.2505108888061023 0.1249583831071935 0  0.3131712912687588 0.1249462821718708 0  0.375854824448033 0.1249331385157766 0  0.4385675200393013 0.124918840472109 0  0.5013163110014176 0.124903329745475 0  0.5641094067573164 0.1248865900072518 0  0.6269569799745844 0.1248685919241645 0  0.6898725264826473 0.124849145572743 0  0.7528756275421985 0.1248275811017511 0  0.8159973445203468 0.1248021963643784 0  0.8792889618881696 0.1247698256100238 0  0.9428255655100487 0.1247285265753856 0  1.006636308633066 0.1246999038929361 0  0 0.1875 0  0.0626706423925304 0.1874855713879539 0  0.1253473586472518 0.1874707757871906 0  0.1880364184315091 0.1874552538701096 0  0.2507444458945309 0.1874386655791439 0  0.3134786054937834 0.1874207045371099 0  0.3762467997901253 0.1874011175415991 0  0.4390578906294398 0.1873797290515603 0  0.5019219658444104 0.1873564677287619 0  0.564850692828891 0.1873313866598839 0  0.6278578285694257 0.1873046596174005 0  0.6909599751057222 0.1872765224394906 0  0.7541775855869951 0.1872471158258331 0  0.8175356852426626 0.1872161873763023 0  0.8810617030491732 0.1871826167324019 0  0.9447719278433975 0.1871433338724457 0  1.008629007168984 0.1870871049153932 0  0 0.25 0  0.06271804214863154 0.2499813267560055 0  0.1254439320065226 0.2499621493396422 0  0.1881857748437324 0.2499419709874225 0  0.2509521492154444 0.2499203150855303 0  0.313752351437539 0.2498967430759521 0  0.3765966476965768 0.2498708820048102 0  0.439496536241441 0.2498424648118403 0  0.5024650206053184 0.2498113855179841 0  0.5655168877107931 0.2497777690880361 0  0.6286689582300734 0.2497420511161333 0  0.6919401915067909 0.2497050550893067 0  0.7553512841552312 0.2496680451277534 0  0.8189227854510442 0.2496327190900324 0  0.8826694418758209 0.2496010771558342 0  0.9465865578756506 0.2495750174463924 0  1.010624334904682 0.2495556554355284 0  0 0.3125 0  0.06275762428370228 0.3124775864014959 0  0.1255246460280777 0.3124545226710796 0  0.188310778826136 0.3124301628202958 0  0.251126328877695 0.3124038754788987 0  0.313982499903397 0.3123750619706577 0  0.3768917038561818 0.3123431888081857 0  0.4398678731705805 0.3123078416867924 0  0.5029267603336152 0.3122688097689531 0  0.5660861884431799 0.3122262106306341 0  0.6293661671194033 0.3121806668367102 0  0.6927886815137873 0.3121335430291892 0  0.7563767479364807 0.3120872444012391 0  0.8201519593407126 0.3120455580084608 0  0.8841293064070482 0.3120139839979703 0  0.9483082312525632 0.3119999888822186 0  1.012661841884318 0.3120133392559502 0  0 0.375 0  0.06278784335295334 0.3749744963369196 0  0.1255863502260047 0.3749481911133676 0  0.188406554798026 0.3749202796500568 0  0.2512602030629095 0.3748899575510356 0  0.3141601222497385 0.3748564333246187 0  0.3771206012832825 0.3748189588143033 0  0.4401577779856149 0.3747768882998554 0  0.5032900171007926 0.3747297819500224 0  0.5665382400440356 0.3746775757480528 0  0.6299261218388278 0.3746208474393211 0  0.69347998608442 0.3745612138812601 0  0.7572280875605009 0.3745018923613821 0  0.8211987873612742 0.3744484314691568 0  0.885417033541635 0.37440953818163 0  0.9498989922826112 0.3743977568048439 0  1.014646387794799 0.3744294162735569 0  0 0.4375 0  0.06280743483065591 0.4374722079643115 0  0.1256264563223979 0.4374434649443694 0  0.1884690703057893 0.4374128050786304 0  0.2513481092907901 0.4373792382439467 0  0.3142776693296897 0.4373417497077186 0  0.377273571835904 0.4372993177948014 0  0.4403538538082592 0.4372509627763063 0  0.5035392833248404 0.4371958481110185 0  0.5668538847138873 0.4371334671606196 0  0.630325434241672 0.4370639652300535 0  0.6939858436210342 0.4369886668209275 0  0.7578712737203762 0.4369108935775248 0  0.8220217105803087 0.4368371470276529 0  0.8864796242569589 0.4367786426354515 0  0.9512873365058786 0.4367529409434103 0  1.016483001671867 0.4367849895564053 0  0 0.5 0  0.0628154736119453 0.4999708705936057 0  0.1256430573810627 0.4999406549156649 0  0.1884953197208411 0.499908235965526 0  0.2513857575198347 0.4998724382790841 0  0.3143292979888486 0.4998320064407176 0  0.3773428462423598 0.499785597042708 0  0.4404458957936913 0.4997317968032557 0  0.50366122257751 0.4996691896470545 0  0.5670156904178877 0.4995965125878482 0  0.6305412093342689 0.4995129677727986 0  0.6942759072235546 0.4994187994609585 0  0.7582655863805499 0.499316298748051 0  0.8225654866060168 0.4992114459994719 0  0.8872421361252731 0.4991163714211815 0  0.9523744249718331 0.4990525361167859 0  1.018051869088658 0.4990537276535405 0  0 0.5625 0  0.06281143147213179 0.5624706193060328 0  0.1256350467926971 0.5624400475435876 0  0.1884835131650997 0.5624070445853563 0  0.2513705025059063 0.5623702712701518 0  0.3143112469266688 0.5623282399818443 0  0.3773231631294431 0.5622792685651503 0  0.4404265785872785 0.5622214456888556 0  0.5036456076972229 0.5621526256679711 0  0.5670092580608493 0.5620704897106219 0  0.6305529111445394 0.5619727460331926 0  0.6943204393136011 0.561857605629037 0  0.7583674026393165 0.5617247806366908 0  0.8227659436311271 0.561577418573873 0  0.887611840113676 0.5614255600195525 0  0.9530328505522382 0.5612916245876017 0  1.019193853278223 0.5612173483270042 0  0 0.625 0  0.06279522916958595 0.624971558612588 0  0.1256022282598901 0.6249418707517851 0  0.1884332566867891 0.6249096229590803 0  0.2513016150455065 0.6248733620615876 0  0.3142222324532055 0.6248314149679376 0  0.3772123428413956 0.6247817969106397 0  0.4402922956099314 0.6247221071174346 0  0.5034865702622082 0.6246494168023874 0  0.566825117413748 0.6245601686115707 0  0.6303452646625117 0.6244501394147951 0  0.6940946738710463 0.6243145914123323 0  0.7581363255624447 0.6241488948981758 0  0.8225573152598219 0.6239502323112431 0  0.887484052180573 0.6237215858922746 0  0.953105424477664 0.6234799087738335 0  1.019697855450214 0.6232694940787512 0  0 0.6875 0  0.06276727668431266 0.6874737435935101 0  0.1255454029838326 0.6874462531876235 0  0.1883457007332967 0.6874162140850036 0  0.2511805163272356 0.6873821396647244 0  0.3140638085942062 0.6873422639282478 0  0.3770118378877968 0.6872944056491284 0  0.4400440070074584 0.6872357907438307 0  0.5031839292734468 0.6871628172744377 0  0.5664608549861623 0.6870707482450694 0  0.6299117244859815 0.6869533289831619 0  0.6935844624429387 0.6868023706772235 0  0.757543987908645 0.6866074816972052 0  0.8218843938814749 0.6863565345363568 0  0.8867545459515386 0.6860385688503108 0  0.9524083510581217 0.6856534995704133 0  1.019282376204457 0.6852362526449923 0  0 0.75 0  0.06272849383719589 0.7499771614822552 0  0.1254664174307251 0.7499531834870267 0  0.188223628912577 0.7499268403033998 0  0.2510109312639 0.7498967197589406 0  0.3138406225798807 0.7498610997482167 0  0.3767271498689906 0.7498177822836738 0  0.4396879141263293 0.7497638595452135 0  0.5027442893393745 0.7496953740261586 0  0.5659229491021998 0.7496068160634667 0  0.6292576800592724 0.7494903755714044 0  0.6927921390248215 0.7493348347456408 0  0.756584943137701 0.7491239849012227 0  0.8207215117138148 0.7488346177406544 0  0.8853461209213052 0.7484351181595421 0  0.9507495879061039 0.7478902603225437 0  1.017563214221904 0.7471977933626377 0  0 0.8125 0  0.06268030375075956 0.8124817175831103 0  0.1253681554190599 0.8124624780577633 0  0.1880714595900903 0.8124412437474695 0  0.2507989179299425 0.8124168009179678 0  0.3135605002539231 0.8123876383797466 0  0.3763680114798822 0.8123517775969107 0  0.4392357947328537 0.8123065217148243 0  0.5021816117266865 0.8122480707926442 0  0.5652277293153192 0.8121709152222107 0  0.6284022027304158 0.8120668565153776 0  0.6917402953634143 0.8119233901915093 0  0.7552861453906147 0.8117209719873587 0  0.8190965943931811 0.8114282977415769 0  0.8832595154892235 0.8109941681904407 0  0.9479896871587551 0.8103351297985463 0  1.01408933567712 0.8093337239189319 0  0 0.875 0  0.06262459348009899 0.8749872295486312 0  0.1252544621051659 0.8749737665482432 0  0.1878951391385939 0.8749588557318555 0  0.2505527404556941 0.8749416037904345 0  0.3132343144422342 0.8749208815390749 0  0.3759482698523919 0.8748951833346379 0  0.4387049137752735 0.8748624131957321 0  0.50151712575361 0.8748195461651701 0  0.5644011537925739 0.8747620751872293 0  0.6273773712300262 0.874683082255298 0  0.6904703834976702 0.8745716331783983 0  0.753706634899298 0.8744099014722715 0  0.8171047256607052 0.8741677264031015 0  0.8806492937547581 0.8737914225724696 0  0.9442531334082866 0.8731786112226742 0  1.007951819217 0.8721212408707981 0  0 0.9375 0  0.06256363948799945 0.9374934330752217 0  0.1251299942530608 0.9374865022374592 0  0.1877019162632093 0.9374788091590014 0  0.2502825681280959 0.9374698794395414 0  0.3128756129421285 0.9374591077966217 0  0.3754854511223529 0.9374456780718181 0  0.4381175257143479 0.9374284394484942
[...]
<PointData  Vectors="f_54"> 
<DataArray  type="Float64"  Name="f_54"  NumberOfComponents="3" format="ascii">0.0000000000000000e+00 0.0000000000000000e+00 0.0000000000000000e+00  0.0000000000000000e+00 0.0000000000000000e+00 0.0000000000000000e+00  0.0000000000000000e+00 0.0000000000000000e+00 0.0000000000000000e+00  0.0000000000000000e+00 0.0000000000000000e+00 0.0000000000000000e+00  0.0000000000000000e+00 0.0000000000000000e+00 0.0000000000000000e+00  0.0000000000000000e+00 0.0000000000000000e+00 0.0000000000000000e+00  0.0000000000000000e+00 0.0000000000000000e+00 0.0000000000000000e+00  0.0000000000000000e+00 0.0000000000000000e+00 0.0000000000000000e+00  0.0000000000000000e+00 0.0000000000000000e+00 0.0000000000000000e+00  0.0000000000000000e+00 0.0000000000000000e+00 0.0000000000000000e+00  0.0000000000000000e+00 0.0000000000000000e+00 0.0000000000000000e+00  0.0000000000000000e+00 0.0000000000000000e+00 0.0000000000000000e+00  0.0000000000000000e+00 0.0000000000000000e+00 0.0000000000000000e+00  0.0000000000000000e+00 0.0000000000000000e+00 0.0000000000000000e+00  0.0000000000000000e+00 0.0000000000000000e+00 0.0000000000000000e+00  0.0000000000000000e+00 0.0000000000000000e+00 0.0000000000000000e+00  0.0000000000000000e+00 0.0000000000000000e+00 0.0000000000000000e+00  0.0000000000000000e+00 0.0000000000000000e+00 0.0000000000000000e+00  -2.3866020947414638e-06 1.9199840197398602e-08 0.0000000000000000e+00  -4.8376606602210285e-06 4.0834750694986213e-08 0.0000000000000000e+00  -7.4170882753560050e-06 6.7605543498856123e-08 0.0000000000000000e+00  -1.0186503271326775e-05 1.0274992602677807e-07 0.0000000000000000e+00  -1.3203130981981573e-05 1.5033876248360353e-07 0.0000000000000000e+00  -1.6516456772323299e-05 2.1559416587365777e-07 0.0000000000000000e+00  -2.0163078553487865e-05 3.0521745619820175e-07 0.0000000000000000e+00  -2.4159059655818415e-05 4.2769893446875327e-07 0.0000000000000000e+00  -2.8488800944289603e-05 5.9357305617931773e-07 0.0000000000000000e+00  -3.3088793618746396e-05 8.1562389108724368e-07 0.0000000000000000e+00  -3.7822862846116677e-05 1.1092822841265467e-06 0.0000000000000000e+00  -4.2440479157158843e-05 1.4943992972593326e-06 0.0000000000000000e+00  -4.6494389302927601e-05 2.0031266055671887e-06 0.0000000000000000e+00  -4.9144067145981906e-05 2.7123066424425921e-06 0.0000000000000000e+00  -4.8595590896265150e-05 3.8752090253965459e-06 0.0000000000000000e+00  -4.0207707144686059e-05 6.4967257825875560e-06 0.0000000000000000e+00  0.0000000000000000e+00 0.0000000000000000e+00 0.0000000000000000e+00  -4.7129746397171197e-06 3.6002303356287781e-08 0.0000000000000000e+00  -9.5563889282329571e-06 7.6629368109260238e-08 0.0000000000000000e+00  -1.4659969688008058e-05 1.2702842809533680e-07 0.0000000000000000e+00  -2.0149713543428492e-05 1.9340964543455034e-07 0.0000000000000000e+00  -2.6144171666548200e-05 2.8364526855986206e-07 0.0000000000000000e+00  -3.2748298574352253e-05 4.0792844594148300e-07 0.0000000000000000e+00  -4.0043790922747925e-05 5.7947209099991043e-07 0.0000000000000000e+00  -4.8074607690893030e-05 8.1518471612336789e-07 0.0000000000000000e+00  -5.6826007216235931e-05 1.1362003715084006e-06 0.0000000000000000e+00  -6.6194777685394255e-05 1.5680737957696808e-06 0.0000000000000000e+00  -7.5946879128010631e-05 2.1404016923498878e-06 0.0000000000000000e+00  -8.5655267290506452e-05 2.8855617506415355e-06 0.0000000000000000e+00  -9.4602874453172904e-05 3.8355589361064884e-06 0.0000000000000000e+00  -1.0162118194441238e-04 5.0104288524180078e-06 0.0000000000000000e+00  -1.0482618415555605e-04 6.3572425853296564e-06 0.0000000000000000e+00  -1.0134780418439588e-04 7.4049647630726826e-06 0.0000000000000000e+00  0.0000000000000000e+00 0.0000000000000000e+00 0.0000000000000000e+00  -6.9127029735127772e-06 4.8219263994413058e-08 0.0000000000000000e+00  -1.4023927527073822e-05 1.0275327795096796e-07 0.0000000000000000e+00  -2.1532004081438194e-05 1.7066920159980507e-07 0.0000000000000000e+00  -2.9631707210714003e-05 2.6058170401096279e-07 0.0000000000000000e+00  -3.8509853868739888e-05 3.8355517877505776e-07 0.0000000000000000e+00  -4.8337417822890268e-05 5.5413446067886925e-07 0.0000000000000000e+00  -5.9256602880388952e-05 7.9149414297317616e-07 0.0000000000000000e+00  -7.1361030443621226e-05 1.1206252488849531e-06 0.0000000000000000e+00  -8.4666916605481883e-05 1.5733539674186363e-06 0.0000000000000000e+00  -9.9072899599694179e-05 2.1887832524661399e-06 0.0000000000000000e+00  -1.1430612298824417e-04 3.0124215182020356e-06 0.0000000000000000e+00  -1.2985258259474118e-04 4.0927235571115140e-06 0.0000000000000000e+00  -1.4487198687872544e-04 5.4728188838217223e-06 0.0000000000000000e+00  -1.5810741664920195e-04 7.1738032358117903e-06 0.0000000000000000e+00  -1.6783982138751178e-04 9.1683584902559498e-06 0.0000000000000000e+00  -1.7207002973460638e-04 1.1391228821566424e-05 0.0000000000000000e+00  0.0000000000000000e+00 0.0000000000000000e+00 0.0000000000000000e+00  -8.9173653516751638e-06 5.4166176615439263e-08 0.0000000000000000e+00  -1.8103229066442639e-05 1.1560726912333593e-07 0.0000000000000000e+00  -2.7827380610041436e-05 1.9252893215818558e-07 0.0000000000000000e+00  -3.8358493300199986e-05 2.9507948040026186e-07 0.0000000000000000e+00  -4.9960376478158174e-05 4.3653548035474145e-07 0.0000000000000000e+00  -6.2883917080254619e-05 6.3472723282949051e-07 0.0000000000000000e+00  -7.7352679503713971e-05 9.1373894979079967e-07 0.0000000000000000e+00  -9.3539726192803631e-05 1.3058381033041525e-06 0.0000000000000000e+00  -1.1153292559691849e-04 1.8534239273321064e-06 0.0000000000000000e+00  -1.3128611282154409e-04 2.6104753288823044e-06 0.0000000000000000e+00  -1.5255450294213578e-04 3.6424367190357905e-06 0.0000000000000000e+00  -1.7481578058669599e-04 5.0226045016775638e-06 0.0000000000000000e+00  -1.9718545709570878e-04 6.8218179605354167e-06 0.0000000000000000e+00  -2.1835086935319855e-04 9.0868744238400791e-06 0.0000000000000000e+00  -2.3658036498202037e-04 1.1802635831643009e-05 0.0000000000000000e+00  -2.4991535647082039e-04 1.4832167949912971e-05 0.0000000000000000e+00  0.0000000000000000e+00 0.0000000000000000e+00 0.0000000000000000e+00  -1.0656811148856023e-05 5.2890356114515208e-08 0.0000000000000000e+00  -2.1652701797380252e-05 1.1310444768333182e-07 0.0000000000000000e+00  -3.3330677459053388e-05 1.8899085421166477e-07 0.0000000000000000e+00  -4.6037823992367238e-05 2.9107733991669407e-07 0.0000000000000000e+00  -6.0123913623123079e-05 4.3347919436723545e-07 0.0000000000000000e+00  -7.5935221033344118e-05 6.3569949379818717e-07 0.0000000000000000e+00  -9.3801048731485812e-05 9.2494875878047117e-07 0.0000000000000000e+00  -1.1400976730704880e-04 1.3390612440434600e-06 0.0000000000000000e+00  -1.3677054892627919e-04 1.9299385721064073e-06 0.0000000000000000e+00  -1.6215681296617474e-04 2.7671124391153422e-06 0.0000000000000000e+00  -1.9002849989549830e-04 3.9403350058230120e-06 0.0000000000000000e+00  -2.1993403015776010e-04 5.5588823462174100e-06 0.0000000000000000e+00  -2.5100132174009620e-04 7.7433496159654542e-06 0.0000000000000000e+00  -2.8184305925263193e-04 1.0603333849964934e-05 0.0000000000000000e+00  -3.1052506641397954e-04 1.4192688049907425e-05 0.0000000000000000e+00  -3.3466817133671450e-04 1.8435706056133802e-05 0.0000000000000000e+00  0.0000000000000000e+00 0.0000000000000000e+00 0.0000000000000000e+00  -1.2060516409455413e-05 4.4349408949995969e-08 0.0000000000000000e+00  -2.4528697821896319e-05 9.5060026887307333e-08 0.0000000000000000e+00  -3.7819994869698313e-05 1.5949051985759787e-07 0.0000000000000000e+00  -5.2362126969947371e-05 2.4717094442794380e-07 0.0000000000000000e+00  -6.8598017862214904e-05 3.7130825920825252e-07 0.0000000000000000e+00  -8.6984020250641786e-05 5.5085099931548453e-07 0.0000000000000000e+00  -1.0798054265074769e-04 8.1337949903046881e-07 0.0000000000000000e+00  -1.3203100539218275e-04 1.1991237151889966e-06 0.0000000000000000e+00  -1.5952365755535645e-04 1.7663779794434599e-06 0.0000000000000000e+00  -1.9072954934482229e-04 2.5983586684904282e-06 0.0000000000000000e+00  -2.2570975452002737e-04 3.8108989380305152e-06 0.0000000000000000e+00  -2.6418748887691831e-04 5.5588931467640650e-06 0.0000000000000000e+00  -3.0538877153290936e-04 8.0365620408785873e-06 0.0000000000000000e+00  -3.4787161514821625e-04 1.1462081559243229e-05 0.0000000000000000e+00  -3.8938810001162930e-04 1.6031810659978401e-05 0.0000000000000000e+00  -4.2684492497637984e-04 2.1827461372313953e-05 0.0000000000000000e+00  0.0000000000000000e+00 0.0000000000000000e+00 0.0000000000000000e+00  -1.3060223645854625e-05 2.9507539111475482e-08 0.0000000000000000e+00  -2.6590705572032930e-05 6.3422199244125938e-08 0.0000000000000000e+00  -4.1074470865903058e-05 1.0696637268688208e-07 0.0000000000000000e+00  -5.7017842252487535e-05 1.6719724642436624e-07 0.0000000000000000e+00  -7.4959794329316337e-05 2.5440249277208878e-07 0.0000000000000000e+00  -9.5477529729482170e-05 3.8418274302030416e-07 0.0000000000000000e+00  -1.1918529022681970e-04 5.8064515534540013e-07 0.0000000000000000e+00  -1.4672160131854186e-04 8.8131349031907874e-07 0.0000000000000000e+00  -1.7871757732484660e-04 1.3445672340992593e-06 0.0000000000000000e+00  -2.1573567711714682e-04 2.0605529511193634e-06 0.0000000000000000e+00  -2.5816509160620708e-04 3.1662794459715120e-06 0.0000000000000000e+00  -3.0605875568310523e-04 4.8643577662152030e-06 0.0000000000000000e+00  -3.5890196830583586e-04 7.4413160199783832e-06 0.0000000000000000e+00  -4.1532011762874545e-04 1.1273751246185598e-05 0.0000000000000000e+00  -4.7276776192051862e-04 1.6797473839328677e-05 0.0000000000000000e+00  -5.2728447196259481e-04 2.4399171813745294e-05 0.0000000000000000e+00  0.0000000000000000e+00 0.0000000000000000e+00 0.0000000000000000e+00  -1.3593937770600231e-05 1.0312505234686339e-08 0.0000000000000000e+00  -2.7709451944094743e-05 2.2260780074658936e-08 0.0000000000000000e+00  -4.2886648030876684e-05 3.7943592920055520e-08 0.0000000000000000e+00  -5.9702103057089032e-05 6.0577764879771954e-08 0.0000000000000000e+00  -7.8786544354177119e-05 9.5501630946942070e-08 0.0000000000000000e+00  -1.0084085118711307e-04 1.5187356837305252e-07 0.0000000000000000e+00  -1.2664790004985948e-04 2.4560596299737510e-07 0.0000000000000000e+00  -1.5707541628227946e-04 4.0443377611309077e-07 0.0000000000000000e+00  -1.9306110150015457e-04 6.7657700749224307e-07 0.0000000000000000e+00  -2.3556531141600553e-04 1.1452398066115871e-06 0.0000000000000000e+00  -2.8546831035353637e-04 1.9520434101892122e-06 0.0000000000000000e+00  -3.4338010978394128e-04 3.3327219327279683e-06 0.0000000000000000e+00  -4.0932672945494616e-04 5.6659945662297260e-06 0.0000000000000000e+00  -4.8229053963688571e-04 9.5268993484874378e-06 0.0000000000000000e+00  -5.5963416364569936e-04 1.5711654521016920e-05 0.0000000000000000e+00  -6.3653400270852233e-04 2.5157819708813904e-05 0.0000000000000000e+00  0.0000000000000000e+00 0.0000000000000000e+00 0.0000000000000000e+00  -1.3611157438706124e-05 -1.0480276567382792e-08 0.0000000000000000e+00  -2.7777739761759071e-05 -2.2567844414900564e-08 0.0000000000000000e+00  -4.3079618239471402e-05 -3.7909994562577993e-08 0.0000000000000000e+00  -6.0147077633632574e-05 -5.8110083700174030e-08 0.0000000000000000e+00  -7.9688074617163156e-05 -8.4430323853661936e-08 0.0000000000000000e+00  -1.0251727487712420e-04 -1.1699277647241589e-07 0.0000000000000000e+00  -1.2958587531031844e-04 -1.5295386998393566e-07 0.0000000000000000e+00  -1.6200879922192678e-04 -1.8263571586979626e-07 0.0000000000000000e+00  -2.0108112663331691e-04 -1.8168444300851776e-07 0.0000000000000000e+00  -2.4826690960338380e-04 -9.5701485114155335e-08 0.0000000000000000e+00  -3.0512864868585855e-04 1.8888994308540797e-07 0.0000000000000000e+00  -3.7314325231622362e-04 8.9777372880363775e-07 0.0000000000000000e+00  -4.5332403413494673e-04 2.4588040782953725e-06 0.0000000000000000e+00  -5.4555812749540629e-04 5.6383654343312905e-06 0.0000000000000000e+00  -6.4762743822378822e-04 1.1702154834783399e-05 0.0000000000000000e+00  -7.5408740598246029e-04 2.2490343398960793e-05 0.0000000000000000e+00  0.0000000000000000e+00 0.0000000000000000e+00 0.0000000000000000e+00  -1.3078965904224055e-05 -2.9652216475538163e-08 0.0000000000000000e+00  -2.6723318306031531e-05 -6.4128008515663076e-08 0.0000000000000000e+00  -4.1528050680404805e-05 -1.0887786393711952e-07 0.0000000000000000e+00  -5.8151187499695755e-05 -1.7060706634613074e-07 0.0000000000000000e+00  -7.7350614203682485e-05 -2.5794175929654260e-07 0.0000000000000000e+00  -1.0002733996347029e-04 -3.8202930041525794e-07 0.0000000000000000e+00  -1.2727690616399793e-04 -5.5678264764577946e-07 0.0000000000000000e+00  -1.6044917695376803e-04 -7.9801925203044002e-07 0.0000000000000000e+00  -2.0121274648769255e-04 -1.1197287501600938e-06 0.0000000000000000e+00  -2.5161072798626555e-04 -1.5235078694179654e-06 0.0000000000000000e+00  -3.1407432386954432e-04 -1.9725984067581211e-06 0.0000000000000000e+00  -3.9132079041797338e-04 -2.3328126080788367e-06 0.0000000000000000e+00  -4.8599477267460335e-04 -2.2463735271863472e-06 0.0000000000000000e+00  -5.9982645576653120e-04 -8.8374370981676587e-07 0.0000000000000000e+00  -7.3206407602300391e-04 3.4751408200762819e-06 0.0000000000000000e+00  -8.7725943517031300e-04 1.3911225745356049e-05 0.0000000000000000e+00  0.0000000000000000e+00 0.0000000000000000e+00 0.0000000000000000e+00  -1.1988304674100423e-05 -4.4016022887078927e-08 0.0000000000000000e+00  -2.4522428077971213e-05 -9.5460256133640211e-08 0.0000000000000000e+00  -3.8181092229022168e-05 -1.6294435323298540e-07 0.0000000000000000e+00  -5.3614710325492570e-05 -2.5760675241047440e-07 0.0000000000000000e+00  -7.1589892835682918e-05 -3.9482260899571494e-07 0.0000000000000000e+00  -9.3045519398808903e-05 -5.9647373047740113e-07 0.0000000000000000e+00  -1.1916585004165214e-04 -8.9396087835645010e-07 0.0000000000000000e+00  -1.5147700570600892e-04 -1.3319867486788119e-06 0.0000000000000000e+00  -1.9197262604372025e-04 -1.9725752332531881e-06 0.0000000000000000e+00  -2.4326929270375786e-04 -2.8970963617132411e-06 0.0000000000000000e+00  -3.0877417004543302e-04 -4.1993407311596956e-06 0.0000000000000000e+00  -3.9279759615942588e-04 -5.9500598854667728e-06 0.0000000000000000e+00  -5.0042493567813227e-04 -8.0809048483648474e-06 0.0000000000000000e+00  -6.3672186790638633e-04 -1.0058029079275262e-05 0.0000000000000000e+00  -8.0450584966872140e-04 -1.0066951672403988e-05 0.0000000000000000e+00  -9.9997422450735112e-04 -3.3718955389343599e-06 0.0000000000000000e+00  0.0000000000000000e+00 0.0000000000000000e+00 0.0000000000000000e+00  -1.0359458962578783e-05 -5.0994489607815478e-08 0.0000000000000000e+00  -2.1211975418383282e-05 -1.1085382652611861e-07 0.0000000000000000e+00  -3.3083844722766103e-05 -1.9001114502693217e-07 0.0000000000000000e+00  -4.6575050980921369e-05 -3.0234253658706443e-07 0.0000000000000000e+00  -6.2407294204660336e-05 -4.6771909792148901e-07 0.0000000000000000e+00  -8.1487838531026747e-05 -7.1575659462483109e-07 0.0000000000000000e+00  -1.0499860164240759e-04 -1.0915371698072435e-06 0.0000000000000000e+00  -1.3452426260850603e-04 -1.6644722340195370e-06 0.0000000000000000e+00  -1.7223920980347405e-04 -2.5420052947748682e-06 0.0000000000000000e+00  -2.2117970299939129e-04 -3.8903057212959395e-06 0.0000000000000000e+00  -2.8562854329294016e-04 -5.9634167830391219e-06 0.0000000000000000e+00  -3.7161284837402289e-04 -9.1361811770257275e-06 0.0000000000000000e+00  -4.8739332610065708e-04 -1.3908016532633882e-05 0.0000000000000000e+00  -6.4341982075617006e-04 -2.0730371984013741e-05 0.0000000000000000e+00  -8.5015448572961809e-04 -2.9073676811409229e-05 0.0000000000000000e+00  -1.1109404437953032e-03 -3.3776691783235252e-05 0.0000000000000000e+00  0.0000000000000000e+00 0.0000000000000000e+00 0.0000000000000000e+00  -8.2455882159585631e-06 -4.9170689376421264e-08 0.0000000000000000e+00  -1.6897778185608943e-05 -1.0708964446452366e-07 0.0000000000000000e+00  -2.6393002333123826e-05 -1.8415962884519637e-07 0.0000000000000000e+00  -3.7234686007014347e-05 -2.9447640383857681e-07 0.0000000000000000e+00  -5.0038606088984967e-05 -4.5871328416795526e-07 0.0000000000000000e+00  -6.5595723457772474e-05 -7.0858969340064930e-07 0.0000000000000000e+00  -8.4964445173032194e-05 -1.0941468562913111e-06 0.0000000000000000e+00  -1.0961198513583462e-04 -1.6959839919407834e-06 0.0000000000000000e+00  -1.4163812451835391e-04 -2.6463750088811829e-06 0.0000000000000000e+00  -1.8413834639211649e-04 -4.1666017004155966e-06 0.0000000000000000e+00  -2.4180231989145810e-04 -6.6345767776141945e-06 0.0000000000000000e+00  -3.2189804829371499e-04 -1.0710185079814615e-05 0.0000000000000000e+00  -4.3582184948341983e-04 -1.7570421166197725e-05 0.0000000000000000e+00  -6.0116011797692586e-04 -2.9331190252395639e-05 0.0000000000000000e+00  -8.4247229859178252e-04 -4.9539716593222648e-05 0.0000000000000000e+00  -1.1779011909637627e-03 -8.0604511675781948e-05 0.0000000000000000e+00  0.0000000000000000e+00 0.0000000000000000e+00 0.0000000000000000e+00  -5.7331548255357224e-06 -3.8669440622750860e-08 0.0000000000000000e+00  -1.1756259641519983e-05 -8.4331700124044257e-08 0.0000000000000000e+00  -1.8381810615647258e-05 -1.4535925854985933e-07 0.0000000000000000e+00  -2.5973393594967155e-05 -2.3323576111914418e-07 0.0000000000000000e+00  -3.4981229699304996e-05 -3.6506380330288955e-07 0.0000000000000000e+00  -4.5992870913956495e-05 -5.6756869884251618e-07 0.0000000000000000e+00  -5.9810383945675300e-05 -8.8384834740941915e-07 0.0000000000000000e+00  -7.7574081205360686e-05 -1.3851976924159906e-06 0.0000000000000000e+00  -1.0097011963871280e-04 -2.1925370871290897e-06 0.0000000000000000e+00  -1.3259454863196840e-04 -3.5166496982285257e-06 0.0000000000000000e+00  -1.7662085109112780e-04 -5.7369864372470144e-06 0.0000000000000000e+00  -2.4007971348336237e-04 -9.5649436675945381e-06 0.0000000000000000e+00  -3.3541652788581894e-04 -1.6412347220213974e-05 0.0000000000000000e+00  -4.8578592522895289e-04 -2.9348106258458718e-05 0.0000000000000000e+00  -7.3647156421405866e-04 -5.6202607361526207e-05 0.0000000000000000e+00  -1.1841963952412755e-03 -1.2363113295349790e-04 0.0000000000000000e+00  0.0000000000000000e+00 0.0000000000000000e+00 0.0000000000000000e+00  -2.9384394476914276e-06 -2.1243364949635859e-08 0.0000000000000000e+00  -6.0276220795504976e-06 -4.6362657916074387e-08 0.0000000000000000e+00  -9.4303904409411472e-06 -8.0015753774757304e-08 0.0000000000000000e+00  -1.3337146914766383e-05 -1.2863326444041064e-07 0.0000000000000000e+00  -1.7985326192745793e-05 -2.0187026161501851e-07 0.0000000000000000e+00  -2.3687629801544455e-05 -3.1495750038719580e-07 0.0000000000000000e+00  -3.0875912195659129e-05 -4.9272615500439300e-07 0.0000000000000000e+00  -4.0173406153559850e-05 -7.7676652391318900e-07 0.0000000000000000e+00  -5.2520147830022012e-05 -1.2385674212273326e-06 0.0000000000000000e+00  -6.9403372386650852e-05 -2.0042827438432626e-06 0.0000000000000000e+00  -9.3307780915156372e-05 -3.3022269743952829e-06 0.0000000000000000e+00  -1.2865765569634746e-04 -5.5532322601665955e-06 0.0000000000000000e+00  -1.8392998182932685e-04 -9.5282946151499227e-06 0.0000000000000000e+00  -2.7663875554450262e-04 -1.6520120843632502e-05 0.0000000000000000e+00  -4.4455510435463297e-04 -2.7829138978550941e-05 0.0000000000000000e+00  -7.5876967921232794e-04 -3.9566858340269670e-05 0.0000000000000000e+00  0.0000000000000000e+00 0.0000000000000000e+00 0.0000000000000000e+00  0.0000000000000000e+00 0.0000000000000000e+00 0.0000000000000000e+00  0.0000000000000000e+00 0.0000000000000000e+00 0.0000000000000000e+00  0.0000000000000000e+00 0.0000000000000000e+00 0.0000000000000000e+00  0.0000000000000000e+00 0.0000000000000000e+00 0.0000000000000000e+00  0.0000000000000000e+00 0.0000000000000000e+00 0.0000000000000000e+00  0.0000000000000000e+00 0.0000000000000000e+00 0.0000000000000000e+00  0.0000000000000000