<?xml version="1.0"?>
<VTKFile type="UnstructuredGrid"  version="0.1"  >
<UnstructuredGrid>
<Piece  NumberOfPoints="289" NumberOfCells="512">
<Points>
<DataArray  type="Float64"  NumberOfComponents="3"  format="ascii">0 0 0  0.0625 0 0  0.125 0 0  0.1875 0 0  0.25 0 0  0.3125 0 0  0.375 0 0  0.4375 0 0  0.5 0 0  0.5625 0 0  0.625 0 0  0.6875 0 0  0.75 0 0  0.8125 0 0  0.875 0 0  0.9375 0 0  1 0 0  0 0.0625 0  0.06248852540309741 0.06249720458756343 0  0.124976993716114 0.0624943699732363 0  0.1874653922803309 0.06249146301828561 0  0.249953807826139 0.06248846356349406 0  0.3124424939620122 0.06248537233437804 0  0.3749319625413277 0.06248222012481919 0  0.4374231121898489 0.06247907773884196 0  0.4999174156208582 0.06247606480266355 0  0.5624172070685614 0.06247335291310727 0  0.624926161437186 0.06247115340367067 0  0.6874501939389013 0.06246966915341037 0  0.7499994076848863 0.06246896409754626 0  0.8125929498104368 0.06246863280040587 0  0.8752726873065367 0.06246693044403709 0  0.9381456852463166 0.06245833951912295 0  1.001527101511589 0.0624276762590394 0  0 0.125 0  0.06247709285924977 0.1249944482576967 0  0.1249540263405928 0.1249888118864044 0  0.1874307242258791 0.1249830177646753 0  0.249907296970063 0.1249770176064609 0  0.312384169405908 0.1249708035937616 0  0.3748622539280778 0.1249644272517027 0  0.4373431924161428 0.1249580212042475 0  0.4998297008937191 0.1249518213204326 0  0.5623260727403318 0.1249461827752935 0  0.6248389429840975 0.1249415765617253 0  0.6873785170036251 0.124938541804424 0  0.7499606709078039 0.124937554939693 0  0.8126106526055518 0.1249387751624803 0  0.8753690986477648 0.1249417237812708 0  0.9382973839502684 0.1249455367710083 0  1.001453780538359 0.1249527466965462 0  0 0.1875 0  0.06246581083478871 0.1874917765364539 0  0.1249312742241857 0.1874834112372223 0  0.1873961525948 0.1874747778691204 0  0.2498604566881102 0.1874657843446102 0  0.3123246179233239 0.1874563953859762 0  0.3747897236074565 0.1874466614681832 0  0.4372578440161943 0.1874367549219759 0  0.4997324877728454 0.1874270120098293 0  0.562219231791339 0.187417975697217 0  0.6247265831940179 0.1874104265195141 0  0.6872671335719746 0.1874053770946723 0  0.7498590156969832 0.1874039886859554 0  0.8125273993475919 0.1874073447661075 0  0.8753047360399311 0.1874159677888584 0  0.938225464211436 0.1874287305324159 0  1.001305465027048 0.1874394763288765 0  0 0.25 0  0.06245487456749833 0.2499892467179764 0  0.1249090995714889 0.249978278426061 0  0.1873621446889189 0.2499668975541102 0  0.2498137525714731 0.2499549455376563 0  0.312264134055743 0.2499423307199669 0  0.3747142396411794 0.2499290665307802 0  0.4371661405695897 0.2499153232351971 0  0.4996235565421192 0.2499014954577542 0  0.5620925650178459 0.2498882847735133 0  0.6245825079310527 0.2498767904090345 0  0.6871070493675282 0.2498685893620729 0  0.7496851730160117 0.2498657672424658 0  0.812341519016048 0.2498708291579826 0  0.8751046540805241 0.2498863706042299 0  0.9380005968632201 0.2499143276800167 0  1.001038291537596 0.2499547408747814 0  0 0.3125 0  0.0624445921146687 0.3124869320542527 0  0.1248881080143902 0.3124735580548066 0  0.187329578737593 0.3124595879472128 0  0.2497682872665739 0.3124447688164599 0  0.3122039598762952 0.3124289145529266 0  0.3746370437498829 0.3124119500642621 0  0.4370691102439991 0.3123939766505924 0  0.4995034278849229 0.3123753660466067 0  0.5619457454618907 0.3123568904469932 0  0.624405299229813 0.3123398927781643 0  0.6868959821473026 0.3123264922860577 0  0.7494374428781616 0.3123197998924669 0  0.8120555665768865 0.3123240791179023 0  0.8747813398971948 0.3123447303372168 0  0.9376468276581267 0.3123879307263642 0  1.000677993828828 0.3124598752671762 0  0 0.375 0  0.0624353926489211 0.3749849236503301 0  0.1248691693409976 0.3749694337503148 0  0.1872997856600948 0.3749531271066903 0  0.2497258767266488 0.3749356268625911 0  0.3121464135311568 0.3749166084421245 0  0.3745609506137476 0.3748958433163042 0  0.4369700131086481 0.3748732707744717 0  0.4993756838593202 0.3748491116794541 0  0.5617824600560453 0.3748240425421278 0  0.6241984411140638 0.3747994515760151 0  0.6866368610361611 0.3747777965277209 0  0.7491178513528903 0.3747630679668641 0  0.8116700767507187 0.3747613147391234 0  0.874331543259578 0.3747810866839756 0  0.9371486424438189 0.3748334736378545 0  1.000172867225905 0.3749311701981858 0  0 0.4375 0  0.06242781349565313 0.437483329029888 0  0.1248533940065307 0.4374661262321018 0  0.1872745205665746 0.4374478597967631 0  0.2496890265738496 0.4374280031037693 0  0.3120948861541185 0.4374060496432327 0  0.3744903874482224 0.43738154634515 0  0.4368744492969294 0.4373541581528828 0  0.4992471646973783 0.437323783880103 0  0.5616106891495017 0.4372907539402671 0  0.6239706282249333 0.4372561543350848 0  0.6863380968044362 0.4372223353345086 0  0.7487325785421163 0.4371936668602925 0  0.8111855311087178 0.4371775683054617 0  0.8737442657248086 0.4371857132055085 0  0.9364749498115439 0.4372350092991327 0  0.9994628479192793 0.4373474479243337 0  0 0.5 0  0.06242246398531897 0.4999822664393382 0  0.1248420608868166 0.4999638824242179 0  0.1872558555825786 0.4999441828061601 0  0.2496607948093652 0.4999224764490647 0  0.3120536873959284 0.4998980419729647 0  0.374431250560444 0.499870138069387 0  0.4367902806110772 0.4998380413599051 0  0.499128049646991 0.4998011347926019 0  0.5614430994891035 0.4997590865504661 0  0.6237367076398665 0.4997121868060606 0  0.686015433914948 0.4996619500591977 0  0.7482952789424695 0.4996121401097545 0  0.8106079635072903 0.4995704049391045 0  0.8730093719083024 0.4995506302954534 0  0.935588837537948 0.4995757291340394 0  0.9984754973318172 0.4996795814962266 0  0 0.5625 0  0.06241996631807917 0.5624818543975719 0  0.1248364955738787 0.5624629542291502 0  0.1872459899310501 0.5624425126241092 0  0.2496445290361239 0.5624196783861656 0  0.3120277128721546 0.562393505418387 0  0.3743905267960481 0.5623629273725886 0  0.4367272735706196 0.5623267464790478 0  0.499031670883031 0.5622836559271773 0  0.5612973144087579 0.5622323354827404 0  0.6235188889038149 0.5621716987727792 0  0.6856948126338956 0.5621014419553272 0  0.7478324365752024 0.5620231658274192 0  0.8099573650931257 0.5619425232224117 0  0.8721283930954351 0.5618730060441317 0  0.9344576413564368 0.5618417805563549 0  0.9971297664122973 0.5618964923823309 0  0 0.625 0  0.06242087674703348 0.6249821968299869 0  0.1248379046150193 0.6249635673077403 0  0.1872469816648985 0.6249432349883616 0  0.2496434750180905 0.6249202194004629 0  0.3120219100721109 0.6248933755837104 0  0.3743756132989937 0.6248613244856542 0  0.4366963165942419 0.6248223742187817 0  0.4989737776188929 0.6247744385826023 0  0.5611955787214615 0.6247149750239769 0  0.6233475031519838 0.6246410015223528 0  0.6854153704443905 0.6245493377644039 0  0.7473901194261626 0.6244374073428822 0  0.8092793903337483 0.624305339046573 0  0.8711304798891453 0.6241608341945626 0  0.933068941860056 0.624029091663786 0  0.9953476274398885 0.6239688633049615 0  0 0.6875 0  0.06242559466020456 0.687483365284065 0  0.1248471802124578 0.6874658827596378 0  0.1872604202920624 0.6874466402304872 0  0.2496602744767443 0.6874245886065945 0  0.3120405449100033 0.6873984541484023 0  0.3743932916262334 0.6873666249942001 0  0.436708063256746 0.6873269993449841 0  0.4989709004780709 0.6872767801123569 0  0.5611631295265567 0.6872122009359686 0  0.6232601588722819 0.6871281799360889 0  0.6852310290717204 0.6870179472244962 0  0.7470407943155458 0.6868728608131259 0  0.8086607861036604 0.686683147103437 0  0.8700974681873291 0.6864417953574508 0  0.9314575854052566 0.6861575168551521 0  0.9930611481656799 0.685887716302229 0  0 0.75 0  0.06243427213244616 0.7499853809762876 0  0.1248647013590417 0.7499699575055062 0  0.1872870805659524 0.7499528538027445 0  0.2496964054699151 0.7499330400691582 0  0.3120863268863042 0.749909227660176 0  0.3744483922354742 0.7498797247177974 0  0.4367709499445174 0.7498422273357245 0  0.4990375367258251 0.7497935075938013 0  0.5612245082548878 0.7497289369225958 0  0.6232976626788858 0.7496417460144028 0  0.6852078410849892 0.7495218670439524 0  0.7468865981632568 0.7493541512505749 0  0.8082468498356751 0.7491158757644772 0  0.8692046677259069 0.7487746672148597 0  0.9297660126906153 0.7482946720926412 0  0.9902530390373065 0.7476903543238843 0  0 0.8125 0  0.06244674091099486 0.8124882003685843 0  0.1248901683942644 0.8124757115427859 0  0.1873266205510202 0.8124617763118607 0  0.2497516631687336 0.8124454891017311 0  0.3121595335101571 0.8124256910169477 0  0.3745423308128451 0.8124008197769435 0  0.4368887716144247 0.8123686831982974 0  0.4991822044825762 0.8123261039099274 0  0.5613973611446311 0.8122683436686232 0  0.623494953583992 0.8121881378230051 0  0.6854126760365384 0.8120740041995936 0  0.7470506612058475 0.8119071047430108 0  0.8082505412901827 0.8116549897211712 0  0.8687775933778265 0.8112582654268709 0  0.9283693064479389 0.8106019107566307 0  0.9871756985472342 0.8094681488355924 0  0 0.875 0  0.06246247550582135 0.8749917081493324 0  0.124922513594078 0.8749829109440155 0  0.1873774023948324 0.8749730495242973 0  0.2498238165094742 0.8749614475521271 0  0.3122573606333268 0.8749472261181567 0  0.3746718825375245 0.8749291795047806 0  0.4370583712132137 0.8749055837282996 0  0.4994031023688135 0.874873890651709 0  0.5616843808814235 0.8748302255785707 0  0.6238665742683515 0.8747685403012567 0  0.6858887164451813 0.8746791374370091 0  0.7476418531611445 0.8745459482040837 0  0.808922539241497 0.874340910870391 0  0.869336347463838 0.8740098724501686 0  0.9281070781778846 0.8734277500100539 0  0.9837968944171884 0.8722197753741751 0  0 0.9375 0  0.06248060787141171 0.9374957205612123 0  0.12495992492532 0.9374911735781626 0  0.1874365095679702 0.9374860620247815 0  0.2499085815159978 0.9374800239115533 0  0.3123737653216749 0.9374725846460943 0  0.3748286969898617 0.937463086811006 0  0.4372683779610118 0.93745
[...]
<PointData  Vectors="f_54"> 
<DataArray  type="Float64"  Name="f_54"  NumberOfComponents="3" format="ascii">0.0000000000000000e+00 0.0000000000000000e+00 0.0000000000000000e+00  0.0000000000000000e+00 0.0000000000000000e+00 0.0000000000000000e+00  0.0000000000000000e+00 0.0000000000000000e+00 0.0000000000000000e+00  0.0000000000000000e+00 0.0000000000000000e+00 0.0000000000000000e+00  0.0000000000000000e+00 0.0000000000000000e+00 0.0000000000000000e+00  0.0000000000000000e+00 0.0000000000000000e+00 0.0000000000000000e+00  0.0000000000000000e+00 0.0000000000000000e+00 0.0000000000000000e+00  0.0000000000000000e+00 0.0000000000000000e+00 0.0000000000000000e+00  0.0000000000000000e+00 0.0000000000000000e+00 0.0000000000000000e+00  0.0000000000000000e+00 0.0000000000000000e+00 0.0000000000000000e+00  0.0000000000000000e+00 0.0000000000000000e+00 0.0000000000000000e+00  0.0000000000000000e+00 0.0000000000000000e+00 0.0000000000000000e+00  0.0000000000000000e+00 0.0000000000000000e+00 0.0000000000000000e+00  0.0000000000000000e+00 0.0000000000000000e+00 0.0000000000000000e+00  0.0000000000000000e+00 0.0000000000000000e+00 0.0000000000000000e+00  0.0000000000000000e+00 0.0000000000000000e+00 0.0000000000000000e+00  0.0000000000000000e+00 0.0000000000000000e+00 0.0000000000000000e+00  0.0000000000000000e+00 0.0000000000000000e+00 0.0000000000000000e+00  -4.0876175107037478e-06 -3.7389765048596140e-08 0.0000000000000000e+00  -8.2982534838958091e-06 -7.4370494953281546e-08 0.0000000000000000e+00  -1.2755855838951926e-05 -1.1026163415380355e-07 0.0000000000000000e+00  -1.7585272086072987e-05 -1.4379070845389223e-07 0.0000000000000000e+00  -2.2911970944253435e-05 -1.7268706047856583e-07 0.0000000000000000e+00  -2.8860961697935555e-05 -1.9312908909292649e-07 0.0000000000000000e+00  -3.5554907455703515e-05 -1.9896753823224508e-07 0.0000000000000000e+00  -4.3111959123607787e-05 -1.8060382441633317e-07 0.0000000000000000e+00  -5.1645159094080620e-05 -1.2329164018693197e-07 0.0000000000000000e+00  -6.1268631754327166e-05 -4.3063873537947234e-09 0.0000000000000000e+00  -7.2124901051964530e-05 2.1261333354957154e-07 0.0000000000000000e+00  -8.4474573251126287e-05 5.9074097805783955e-07 0.0000000000000000e+00  -9.8976561984761321e-05 1.2601931444680475e-06 0.0000000000000000e+00  -1.1759413165824916e-04 2.5546773537557988e-06 0.0000000000000000e+00  -1.4674545371414765e-04 5.5351370434288455e-06 0.0000000000000000e+00  -2.0940823119572290e-04 1.4205443362744371e-05 0.0000000000000000e+00  0.0000000000000000e+00 0.0000000000000000e+00 0.0000000000000000e+00  -8.0503126267941193e-06 -7.5171481946366145e-08 0.0000000000000000e+00  -1.6345934111384587e-05 -1.4979999996157298e-07 0.0000000000000000e+00  -2.5134304406734351e-05 -2.2284232243886962e-07 0.0000000000000000e+00  -3.4665268498046971e-05 -2.9216172672778697e-07 0.0000000000000000e+00  -4.5190753642013351e-05 -3.5377343945112933e-07 0.0000000000000000e+00  -5.6962658117158346e-05 -4.0081720387344468e-07 0.0000000000000000e+00  -7.0228632571696175e-05 -4.2212471555521080e-07 0.0000000000000000e+00  -8.5226032892920755e-05 -4.0020513394581116e-07 0.0000000000000000e+00  -1.0217572140674129e-04 -3.0839303934722309e-07 0.0000000000000000e+00  -1.2128044540395042e-04 -1.0675176825618831e-07 0.0000000000000000e+00  -1.4273884714716012e-04 2.6394125815561713e-07 0.0000000000000000e+00  -1.6679811369144922e-04 8.9095369661633779e-07 0.0000000000000000e+00  -1.9388444738026648e-04 1.8995713968605459e-06 0.0000000000000000e+00  -2.2483138568903845e-04 3.4422501732919469e-06 0.0000000000000000e+00  -2.6088538474857825e-04 5.5161717798518416e-06 0.0000000000000000e+00  -3.0078065962210222e-04 6.7215579312139335e-06 0.0000000000000000e+00  0.0000000000000000e+00 0.0000000000000000e+00 0.0000000000000000e+00  -1.1765435423756648e-05 -1.1347564404196765e-07 0.0000000000000000e+00  -2.3896837911016609e-05 -2.2678108793112410e-07 0.0000000000000000e+00  -3.6764063849646594e-05 -3.3909725787701348e-07 0.0000000000000000e+00  -5.0742133215410169e-05 -4.4817885644682805e-07 0.0000000000000000e+00  -6.6211428239558459e-05 -5.4935678737539074e-07 0.0000000000000000e+00  -8.3554913562430667e-05 -6.3416855412295812e-07 0.0000000000000000e+00  -1.0315138462075646e-04 -6.8844580283602074e-07 0.0000000000000000e+00  -1.2536399032806654e-04 -6.8965851812910213e-07 0.0000000000000000e+00  -1.5052389662365047e-04 -6.0330365395624718e-07 0.0000000000000000e+00  -1.7891007462528697e-04 -3.7818273852658248e-07 0.0000000000000000e+00  -2.1072736980394229e-04 5.9317588100365665e-08 0.0000000000000000e+00  -2.4608343289979221e-04 8.1093456870394279e-07 0.0000000000000000e+00  -2.8494981916254736e-04 2.0086890988869248e-06 0.0000000000000000e+00  -3.2702910753212828e-04 3.8047840407504412e-06 0.0000000000000000e+00  -3.7125869540148993e-04 6.3449841032327111e-06 0.0000000000000000e+00  -4.1436624051564911e-04 9.8749226715413522e-06 0.0000000000000000e+00  0.0000000000000000e+00 0.0000000000000000e+00 0.0000000000000000e+00  -1.5112017225171341e-05 -1.5192590001349965e-07 0.0000000000000000e+00  -3.0707484118328077e-05 -3.0471215672094126e-07 0.0000000000000000e+00  -4.7276349478530607e-05 -4.5853083697399226e-07 0.0000000000000000e+00  -6.5318436046288988e-05 -6.1202551090056969e-07 0.0000000000000000e+00  -8.5345204023754898e-05 -7.6121262730924747e-07 0.0000000000000000e+00  -1.0787733150517871e-04 -8.9794025424663961e-07 0.0000000000000000e+00  -1.3343625141119719e-04 -1.0076945358521637e-06 0.0000000000000000e+00  -1.6252748893614787e-04 -1.0665095095233882e-06 0.0000000000000000e+00  -1.9561336429798514e-04 -1.0367382351064710e-06 0.0000000000000000e+00  -2.3307221977779687e-04 -8.6156021934109164e-07 0.0000000000000000e+00  -2.7514006117317189e-04 -4.5849303462069242e-07 0.0000000000000000e+00  -3.2182605484592781e-04 2.8687328049593579e-07 0.0000000000000000e+00  -3.7278012198575626e-04 1.5238882125462547e-06 0.0000000000000000e+00  -4.2705981186514334e-04 3.4313338888608292e-06 0.0000000000000000e+00  -4.8269579739041108e-04 6.1989826540471300e-06 0.0000000000000000e+00  -5.3597137686719066e-04 9.9979427785967622e-06 0.0000000000000000e+00  0.0000000000000000e+00 0.0000000000000000e+00 0.0000000000000000e+00  -1.7972356322514077e-05 -1.8948788985143480e-07 0.0000000000000000e+00  -3.6539960103005152e-05 -3.8156575174774887e-07 0.0000000000000000e+00  -5.6308279590831027e-05 -5.7822287473626676e-07 0.0000000000000000e+00  -7.7899963403887842e-05 -7.8008855382883565e-07 0.0000000000000000e+00  -1.0195975160898670e-04 -9.8540354638987473e-07 0.0000000000000000e+00  -1.2915429982657782e-04 -1.1885157161917443e-06 0.0000000000000000e+00  -1.6016421046058886e-04 -1.3776469639061994e-06 0.0000000000000000e+00  -1.9566470581561837e-04 -1.5316041077027454e-06 0.0000000000000000e+00  -2.3629033045376605e-04 -1.6150432284033580e-06 0.0000000000000000e+00  -2.8257783522618542e-04 -1.5719115247399811e-06 0.0000000000000000e+00  -3.3487987994611413e-04 -1.3169285662673656e-06 0.0000000000000000e+00  -3.9324014126156716e-04 -7.2569582703691973e-07 0.0000000000000000e+00  -4.5721782117808077e-04 3.7437957237240129e-07 0.0000000000000000e+00  -5.2564943623240198e-04 2.2073051911914886e-06 0.0000000000000000e+00  -5.9635435476283771e-04 5.0360643795896336e-06 0.0000000000000000e+00  -6.6588094527314956e-04 9.1131669287855432e-06 0.0000000000000000e+00  0.0000000000000000e+00 0.0000000000000000e+00 0.0000000000000000e+00  -2.0234560078850272e-05 -2.2442814825687538e-07 0.0000000000000000e+00  -4.1166722059196328e-05 -4.5378806753120884e-07 0.0000000000000000e+00  -6.3509290659272873e-05 -6.9262843989013197e-07 0.0000000000000000e+00  -8.8002564351671449e-05 -9.4458906919444369e-07 0.0000000000000000e+00  -1.1542444046690127e-04 -1.2116334730066144e-06 0.0000000000000000e+00  -1.4659519299455834e-04 -1.4928321856252877e-06 0.0000000000000000e+00  -1.8237358598958221e-04 -1.7824130549188069e-06 0.0000000000000000e+00  -2.2363954335913400e-04 -2.0666547637406142e-06 0.0000000000000000e+00  -2.7125677062799750e-04 -2.3190035706402982e-06 0.0000000000000000e+00  -3.2600671920411482e-04 -2.4925594446688874e-06 0.0000000000000000e+00  -3.8848368550978561e-04 -2.5088999040132331e-06 0.0000000000000000e+00  -4.5894101275470488e-04 -2.2423531771429861e-06 0.0000000000000000e+00  -5.3708319198979152e-04 -1.4998745892315859e-06 0.0000000000000000e+00  -6.2181378697225356e-04 4.2362961011829317e-10 0.0000000000000000e+00  -7.1098435058815433e-04 2.6435030546170915e-06 0.0000000000000000e+00  -8.0125644880493676e-04 6.9102357305316370e-06 0.0000000000000000e+00  0.0000000000000000e+00 0.0000000000000000e+00 0.0000000000000000e+00  -2.1796319970805900e-05 -2.5440141283586290e-07 0.0000000000000000e+00  -4.4377985844166744e-05 -5.1647004029574516e-07 0.0000000000000000e+00  -6.8551732916004066e-05 -7.9382095265761638e-07 0.0000000000000000e+00  -9.5165075531526794e-05 -1.0938657999496353e-06 0.0000000000000000e+00  -1.2512388948888312e-04 -1.4234976426709091e-06 0.0000000000000000e+00  -1.5940545828646208e-04 -1.7884420528524359e-06 0.0000000000000000e+00  -1.9906343106552618e-04 -2.1920075869034523e-06 0.0000000000000000e+00  -2.4521908634259288e-04 -2.6327687300203498e-06 0.0000000000000000e+00  -2.9903048810072270e-04 -3.1003650882404934e-06 0.0000000000000000e+00  -3.6162775007835755e-04 -3.5680249641252363e-06 0.0000000000000000e+00  -4.3399955408022844e-04 -3.9795689919033410e-06 0.0000000000000000e+00  -5.1681555867466090e-04 -4.2276522030600366e-06 0.0000000000000000e+00  -6.1017598359612948e-04 -4.1195698678395380e-06 0.0000000000000000e+00  -7.1330067800438272e-04 -3.3290875292155305e-06 0.0000000000000000e+00  -8.2421188897664906e-04 -1.3413581076329335e-06 0.0000000000000000e+00  -9.3952094998463458e-04 2.5824794423415432e-06 0.0000000000000000e+00  0.0000000000000000e+00 0.0000000000000000e+00 0.0000000000000000e+00  -2.2570072784166246e-05 -2.7666976643285941e-07 0.0000000000000000e+00  -4.5992111575737137e-05 -5.6380179218936527e-07 0.0000000000000000e+00  -7.1146512708906133e-05 -8.7221024531264525e-07 0.0000000000000000e+00  -9.8970017686005624e-05 -1.2133851248297615e-06 0.0000000000000000e+00  -1.3048290678233606e-04 -1.5997834642441611e-06 0.0000000000000000e+00  -1.6681380781430265e-04 -2.0450097243758163e-06 0.0000000000000000e+00  -2.0921903144139340e-04 -2.5637228188651900e-06 0.0000000000000000e+00  -2.5909075020999316e-04 -3.1709043588453634e-06 0.0000000000000000e+00  -3.1794436325804221e-04 -3.8796941336852277e-06 0.0000000000000000e+00  -3.8736981035287918e-04 -4.6961293286172231e-06 0.0000000000000000e+00  -4.6892486695589619e-04 -5.6074696531720765e-06 0.0000000000000000e+00  -5.6394283152506864e-04 -6.5579709230793198e-06 0.0000000000000000e+00  -6.7322857416113313e-04 -7.4021165006000601e-06 0.0000000000000000e+00  -7.9663757354594478e-04 -7.8227893256955343e-06 0.0000000000000000e+00  -9.3258746418548868e-04 -7.2086544870593938e-06 0.0000000000000000e+00  -1.0776376926684452e-03 -4.5161553988319204e-06 0.0000000000000000e+00  0.0000000000000000e+00 0.0000000000000000e+00 0.0000000000000000e+00  -2.2489482309131385e-05 -2.8843723945508703e-07 0.0000000000000000e+00  -4.5868944631866424e-05 -5.8978190974950035e-07 0.0000000000000000e+00  -7.1063982622855297e-05 -9.1770708775922136e-07 0.0000000000000000e+00  -9.9072872070642509e-05 -1.2874783813937388e-06 0.0000000000000000e+00  -1.3100480582190822e-04 -1.7169168568924328e-06 0.0000000000000000e+00  -1.6811944827243314e-04 -2.2275637047801408e-06 0.0000000000000000e+00  -2.1186617930045039e-04 -2.8460941921481061e-06 0.0000000000000000e+00  -2.6391862613850425e-04 -3.6059348917339228e-06 0.0000000000000000e+00  -3.2619516148900114e-04 -4.5487380932119778e-06 0.0000000000000000e+00  -4.0084784814817628e-04 -5.7245356544268470e-06 0.0000000000000000e+00  -4.9018981173426035e-04 -7.1873075024268429e-06 0.0000000000000000e+00  -5.9651470233288025e-04 -8.9779464196733293e-06 0.0000000000000000e+00  -7.2174744505673768e-04 -1.1077098539322014e-05 0.0000000000000000e+00  -8.6687150461388363e-04 -1.3295424087290298e-05 0.0000000000000000e+00  -1.0311458791190606e-03 -1.5058247413237293e-05 0.0000000000000000e+00  -1.2113089423163579e-03 -1.5076397081173531e-05 0.0000000000000000e+00  0.0000000000000000e+00 0.0000000000000000e+00 0.0000000000000000e+00  -2.1516864941421619e-05 -2.8725951957213523e-07 0.0000000000000000e+00  -4.3925426771118862e-05 -5.8910064162678966e-07 0.0000000000000000e+00  -6.8159248749067320e-05 -9.2121624243405961e-07 0.0000000000000000e+00  -9.5239293326942489e-05 -1.3016699152361394e-06 0.0000000000000000e+00  -1.2632323717673671e-04 -1.7524568740864956e-06 0.0000000000000000e+00  -1.6276123080993170e-04 -2.3015952613650985e-06 0.0000000000000000e+00  -2.0615919186212583e-04 -2.9860726974070964e-06 0.0000000000000000e+00  -2.5844860100503311e-04 -3.8561162268774249e-06 0.0000000000000000e+00  -3.2195701183725556e-04 -4.9813928706959604e-06 0.0000000000000000e+00  -3.9946369496003886e-04 -6.4596462492471840e-06 0.0000000000000000e+00  -4.9420625844096510e-04 -8.4271032436952220e-06 0.0000000000000000e+00  -6.0977215852347968e-04 -1.1065298958497608e-05 0.0000000000000000e+00  -7.4976235414653931e-04 -1.4584607195789557e-05 0.0000000000000000e+00  -9.1706916199978713e-04 -1.9128649598803050e-05 0.0000000000000000e+00  -1.1126382012519992e-03 -2.4476647735639587e-05 0.0000000000000000e+00  -1.3338552354617381e-03 -2.9381303141571675e-05 0.0000000000000000e+00  0.0000000000000000e+00 0.0000000000000000e+00 0.0000000000000000e+00  -1.9650806329599108e-05 -2.7146475389299217e-07 0.0000000000000000e+00  -4.0151978113352386e-05 -5.5806027743125265e-07 0.0000000000000000e+00  -6.2399702909402162e-05 -8.7623247035897777e-07 0.0000000000000000e+00  -8.7387571447120223e-05 -1.2452638838541757e-06 0.0000000000000000e+00  -1.1626487485264880e-04 -1.6892010120697878e-06 0.0000000000000000e+00  -1.5040722417087988e-04 -2.2395342993167720e-06 0.0000000000000000e+00  -1.9150450588346511e-04 -2.9391823882773917e-06 0.0000000000000000e+00  -2.4167103509638221e-04 -3.8487508965400734e-06 0.0000000000000000e+00  -3.0358049539510571e-04 -5.0568287600545792e-06 0.0000000000000000e+00  -3.8062052337871057e-04 -6.6974854758435438e-06 0.0000000000000000e+00  -4.7704166224101847e-04 -8.9801678439355618e-06 0.0000000000000000e+00  -5.9802982231813798e-04 -1.2238344747996120e-05 0.0000000000000000e+00  -7.4953999705369711e-04 -1.6995412818260244e-05 0.0000000000000000e+00  -9.3757528424111530e-04 -2.3999310028063821e-05 0.0000000000000000e+00  -1.1664388214975006e-03 -3.4006314207670840e-05 0.0000000000000000e+00  -1.4357418217993024e-03 -4.6743650974411694e-05 0.0000000000000000e+00  0.0000000000000000e+00 0.0000000000000000e+00 0.0000000000000000e+00  -1.6932833831155835e-05 -2.4050660528491874e-07 0.0000000000000000e+00  -3.4627283545655568e-05 -4.9535643180529866e-07 0.0000000000000000e+00  -5.3891026622927241e-05 -7.8022400092910323e-07 0.0000000000000000e+00  -7.5631088295557926e-05 -1.1136619066266813e-06 0.0000000000000000e+00  -1.0091636069840084e-04 -1.5190496216882114e-06 0.0000000000000000e+00  -1.3105768892720978e-04 -2.0272939093615080e-06 0.0000000000000000e+00  -1.6771497197240863e-04 -2.6808454564844393e-06 0.0000000000000000e+00  -2.1304393408261402e-04 -3.5401073991445369e-06 0.0000000000000000e+00  -2.6989860760214641e-04 -4.6944931268649591e-06 0.0000000000000000e+00  -3.4210656340903547e-04 -6.2831853851187160e-06 0.0000000000000000e+00  -4.3482482275300754e-04 -8.5371787782592828e-06 0.0000000000000000e+00  -5.5494486066286295e-04 -1.1868474959974507e-05 0.0000000000000000e+00  -7.1139665334628429e-04 -1.7058229334479065e-05 0.0000000000000000e+00  -9.1490144081862539e-04 -2.5614505447901916e-05 0.0000000000000000e+00  -1.1760843837846969e-03 -4.0193724823446326e-05 0.0000000000000000e+00  -1.5003897333243168e-03 -6.3289402641223704e-05 0.0000000000000000e+00  0.0000000000000000e+00 0.0000000000000000e+00 0.0000000000000000e+00  -1.3451721264120226e-05 -1.9517459476887611e-07 0.0000000000000000e+00  -2.7528401665192848e-05 -4.0254634664425844e-07 0.0000000000000000e+00  -4.2896460190386554e-05 -6.3547141894270751e-07 0.0000000000000000e+00  -6.0312776201956247e-05 -9.0979891464005329e-07 0.0000000000000000e+00  -8.0684042096823601e-05 -1.2454965269622496e-06 0.0000000000000000e+00  -1.0514632089984634e-04 -1.6687863970205140e-06 0.0000000000000000e+00  -1.3517763026379054e-04 -2.2150744911105430e-06 0.0000000000000000e+00  -1.7276339534948233e-04 -2.9331510390163834e-06 0.0000000000000000e+00  -2.2064583608909742e-04 -3.8917165046480167e-06 0.0000000000000000e+00  -2.8270508895518633e-04 -5.1912181167821405e-06 0.0000000000000000e+00  -3.6454095927935599e-04 -6.9906344880505266e-06 0.0000000000000000e+00  -4.7433717302264636e-04 -9.5814369113887466e-06 0.0000000000000000e+00  -6.2404154055960119e-04 -1.3615278779763303e-05 0.0000000000000000e+00  -8.3059397100478279e-04 -2.0829060878927303e-05 0.0000000000000000e+00  -1.1156539846682255e-03 -3.6375421848345220e-05 0.0000000000000000e+00  -1.4958888822069448e-03 -7.6779210803070872e-05 0.0000000000000000e+00  0.0000000000000000e+00 0.0000000000000000e+00 0.0000000000000000e+00  -9.3439446604901841e-06 -1.3761456782266653e-07 0.0000000000000000e+00  -1.9132858466177969e-05 -2.8409199310181191e-07 0.0000000000000000e+00  -2.9843326226453822e-05 -4.4913583289275492e-07 0.0000000000000000e+00  -4.2021512248862343e-05 -6.4423920416839727e-07 0.0000000000000000e+00  -5.6330320386508818e-05 -8.8377408880945744e-07 0.0000000000000000e+00  -7.3614858140135791e-05 -1.1862576325608724e-06 0.0000000000000000e+00  -9.4999197941509893e-05 -1.5756698023033491e-06 0.0000000000000000e+00  -1.2203645422629425e-04 -2.0822810283026861e-06 0.0000000000000000e+00  -1.5695097499580913e-04 -2.7413743522916384e-06 0.0000000000000000e+00  -2.0304293900502427e-04 -3.5856842448762952e-06 0.0000000000000000e+00  -2.6538508772446667e-04 -4.6219978544161227e-06 0.0000000000000000e+00  -3.5205303446389751e-04 -5.7742977865832213e-06 0.0000000000000000e+00  -4.7633803468014139e-04 -6.7797074589566680e-06 0.0000000000000000e+00  -6.6077944359373933e-04 -7.1276163555562121e-06 0.0000000000000000e+00  -9.4468745382256681e-04 -6.7067687606378777e-06 0.0000000000000000e+00  -1.3999964239487740e-03 -1.0193256249572992e-05 0.0000000000000000e+00  0.0000000000000000e+00 0.0000000000000000e+00 0.0000000000000000e+00  -4.7891192962664293e-06 -7.1157660026926269e-08 0.0000000000000000e+00  -9.8099411031860021e-06 -1.4697614354618870e-07 0.0000000000000000e+00  -1.5311364343812898e-05 -2.3255396733107709e-07 0.0000000000000000e+00  -2.1580345065951524e-05 -3.3391125870523520e-07 0.0000000000000000e+00  -2.8968258234553625e-05 -4.5850929765567263e-07 0.0000000000000000e+00  -3.7928357957797064e-05 -6.1575359454801529e-07 0.0000000000000000e+00  -4.9072793662216358e-05 -8.1720455693774149e-07 0.0000000000000000e+00  -6.3264332039503758e-05 -1.0755774825459887e-06 0.0000000000000000e+00  -8.1771338479247818e-05 -1.3996980164979680e-06 0.0000000000000000e+00  -1.0654205211744019e-04 -1.7767572900230882e-06 0.0000000000000000e+00  -1.4071100377794203e-04 -2.1150635943541751e-06 0.0000000000000000e+00  -1.8956296418042818e-04 -2.0627259310299425e-06 0.0000000000000000e+00  -2.6235789878014933e-04 -4.3413323424375227e-07 0.0000000000000000e+00  -3.7539742172881411e-04 6.5689718839380448e-06 0.0000000000000000e+00  -5.5441290287535977e-04 3.0335288419551022e-05 0.0000000000000000e+00  -8.2018948071000308e-04 9.8721314380899493e-05 0.0000000000000000e+00  0.0000000000000000e+00 0.0000000000000000e+00 0.0000000000000000e+00  0.0000000000000000e+00 0.0000000000000000e+00 0.0000000000000000e+00  0.0000000000000000e+00 0.0000000000000000e+00 0.0000000000000000e+00  0.0000000000000000e+00 0.0000000000000000e+00 0.0000000000000000e+00  0.0000000000000000e+00 0.0000000000000000e+00 0.0000000000000000e+00  0.0000000000000000e+00 0.0000000000000000e+00 0.00000000