<?xml version="1.0"?>
<VTKFile type="UnstructuredGrid"  version="0.1"  >
<UnstructuredGrid>
<Piece  NumberOfPoints="289" NumberOfCells="512">
<Points>
<DataArray  type="Float64"  NumberOfComponents="3"  format="ascii">0 0 0  0.0625 0 0  0.125 0 0  0.1875 0 0  0.25 0 0  0.3125 0 0  0.375 0 0  0.4375 0 0  0.5 0 0  0.5625 0 0  0.625 0 0  0.6875 0 0  0.75 0 0  0.8125 0 0  0.875 0 0  0.9375 0 0  1 0 0  0 0.0625 0  0.06250820949738742 0.06249011238224806 0  0.1250171854170321 0.06248006367883738 0  0.1875277792919126 0.06246970979334813 0  0.2500410278924008 0.06245894564648194 0  0.3125582728882057 0.06244772917213244 0  0.3750813181000405 0.06243610941303981 0  0.4376126484712566 0.06242425701940184 0  0.5001557536605229 0.06241249093750126 0  0.5627156435109395 0.06240128618722199 0  0.625299754629895 0.0623912299383369 0  0.6879197492234133 0.06238285582182809 0  0.7505955752045927 0.06237619920771421 0  0.8133658060251486 0.06236968467762608 0  0.8763168028526027 0.06235728263079048 0  0.9396719236401763 0.06232101636054094 0  1.00408353943788 0.06221557460659063 0  0 0.125 0  0.06251560008824161 0.12498038337397 0  0.1250326504697602 0.1249604255852773 0  0.187552765202266 0.1249398175695113 0  0.250077915555009 0.1249183247303805 0  0.3126106616237295 0.1248958344160226 0  0.3751544562646603 0.1248724138854543 0  0.4377140635428347 0.1248483776868717 0  0.5002961593423904 0.1248243564650312 0  0.5629102342155897 0.1248013460165774 0  0.6255700294304631 0.1247806916253076 0  0.688295969844041 0.1247639228567836 0  0.7511195083877991 0.1247522969128067 0  0.8140909450192551 0.1247458693985699 0  0.8772919303214932 0.1247421087816871 0  0.9408446314149865 0.1247354484956125 0  1.004851907447659 0.1247241983667884 0  0 0.1875 0  0.06252150486732296 0.1874709946957943 0  0.1250449798990515 0.1874414326028538 0  0.187572621270373 0.1874108000150758 0  0.2501071196392708 0.1873786850089393 0  0.3126519819053602 0.1873448461881344 0  0.3752119522618159 0.1873093018166951 0  0.4377935833163645 0.1872724425287033 0  0.5004060267651435 0.1872351644222356 0  0.5630621411802336 0.1871990064936178 0  0.6257800512151126 0.1871662529685633 0  0.6885853159307832 0.1871399225065257 0  0.7515137621064404 0.187123509115638 0  0.8146143916106358 0.1871202598520314 0  0.8779493108231414 0.1871316170334043 0  0.9415806446316468 0.1871537661361494 0  1.005523041781423 0.1871675668790422 0  0 0.25 0  0.06252542501992653 0.2499621634705559 0  0.1250531111102068 0.2499235067949568 0  0.1875855827536 0.2498832569672519 0  0.2501259435559838 0.2498407558212586 0  0.3126782564119421 0.2497955442362076 0  0.3752480427706653 0.2497474796580998 0  0.4378429559956112 0.2496968981784512 0  0.5004736929496379 0.2496448296403194 0  0.5631552085487491 0.2495932661375512 0  0.6259082678430856 0.2495454663190866 0  0.688761251864781 0.249506243770402 0  0.7517517889236707 0.2494821295542757 0  0.8149269195140844 0.2494812073743865 0  0.878338667453844 0.2495122844564695 0  0.9420290567972032 0.2495829246105765 0  1.005997804730716 0.2496963965474663 0  0 0.3125 0  0.06252708766023693 0.3124541542187572 0  0.125056458445769 0.3124071723413243 0  0.1875906650906795 0.3123579594103995 0  0.2501328577767454 0.3123055268520622 0  0.3126871840444215 0.3122490808952522 0  0.3752593228368737 0.3121881578864416 0  0.4378572147029192 0.3121228285590529 0  0.5004920576913462 0.312053997239969 0  0.5631796305596033 0.3119838233715741 0  0.6259419536531127 0.3119162864553126 0  0.6888091474276802 0.3118578918912483 0  0.7518210048130031 0.3118184580060913 0  0.8150271493507059 0.3118118124974231 0  0.8784837676100318 0.311856052162184 0  0.9422446292433644 0.3119728739424037 0  1.006347394170987 0.3121857893748174 0  0 0.375 0  0.06252647860245804 0.3749472834876971 0  0.1250549852575768 0.3748930680781858 0  0.1875877886037093 0.3748358771641911 0  0.2501276972783634 0.3747743036289172 0  0.3126784346657451 0.3747070848469192 0  0.3752451574704216 0.3746332346658446 0  0.4378351932941687 0.3745522657274698 0  0.500459091559075 0.3744645488470213 0  0.5631320929349801 0.3743718724495192 0  0.625876101075085 0.3742782798692737 0  0.688722140687089 0.3741912630689515 0  0.7517130378439835 0.3741233490502705 0  0.8149056065828649 0.3740939749162461 0  0.8783710778390176 0.374131230657974 0  0.9421924561823477 0.3742724998134379 0  1.006459227630811 0.3745622942450061 0  0 0.4375 0  0.06252384561715214 0.4374419138674945 0  0.1250492145353397 0.4373819384488203 0  0.1875778053885912 0.4373181736494477 0  0.2501117195250849 0.4372487193394977 0  0.3126537593986304 0.4371717137109146 0  0.3752078689445466 0.4370854298436714 0  0.4377798070101543 0.4369884719093501 0  0.5003781884966945 0.4368801365805678 0  0.5630160844761914 0.4367610412313229 0  0.6257134305642815 0.4366341689521022 0  0.6885005162252914 0.4365065324354031 0  0.7514227367560691 0.4363916793441251 0  0.8145464536609101 0.436313157969963 0  0.877965108218893 0.4363086484841793 0  0.9418037891718924 0.4364335048810541 0  1.006219972777399 0.436760980005426 0  0 0.5 0  0.06251966973087213 0.4999384345484691 0  0.1250401724585606 0.4998745960878634 0  0.1875624184326236 0.4998061546332664 0  0.2500875082146099 0.499730679416232 0  0.312616899636947 0.4996456150242238 0  0.3751526921861581 0.4995483027859859 0  0.4376981281010438 0.4994360887209784 0  0.5002584836336122 0.4993065922129678 0  0.5628426463331377 0.4991582658356098 0  0.6254658603143448 0.4989914686303966 0  0.688154364841993 0.4988104127261254 0  0.7509528687894184 0.4986265129932456 0  0.8139357247639177 0.4984637709056999 0  0.8772217133108953 0.4983665307671892 0  0.9409898011855992 0.4984085504859883 0  1.005489528252986 0.4986990414399854 0  0 0.5625 0  0.06251460441880952 0.562437227046426 0  0.1250292631275118 0.562371852048831 0  0.1875439864184169 0.5623011614793307 0  0.2500587058513615 0.562222218616935 0  0.3125732587228941 0.5621317555217473 0  0.3750874308003052 0.5620260799641292 0  0.437601141586458 0.5619010253762289 0  0.5001149530622793 0.5617520056749435 0  0.5626312710368087 0.5615743034347802 0  0.625156954738851 0.5613638485841204 0  0.687708635081186 0.5611189848127427 0  0.750322880911065 0.5608441373978617 0  0.8130741382769689 0.5605569046295271 0  0.8761028735217469 0.5603005745703887 0  0.9396517638914615 0.5601629840640264 0  1.004096306168645 0.5602968415820853 0  0 0.625 0  0.06250938591785146 0.6249386174032988 0  0.1250180791484743 0.624874415282925 0  0.1875252157274299 0.6248044082945151 0  0.2500295635966311 0.6247252625434677 0  0.3125292922154843 0.6246330931030025 0  0.3750217018331625 0.6245232307298033 0  0.4375029432307689 0.6243899572446926 0  0.4999678481235008 0.6242262299402046 0  0.5624102028874116 0.6240234674943346 0  0.624824272536414 0.6237715948990314 0  0.6872093699261143 0.623459837316665 0  0.7495811311980853 0.6230794163896584 0  0.8119960933663747 0.6226307154395132 0  0.8745988745347507 0.6221400027205394 0  0.9376973399001609 0.6216928969178261 0  1.00184665045551 0.6214830066262798 0  0 0.6875 0  0.06250472290770462 0.6874428198110989 0  0.1250081634868427 0.6873827710199328 0  0.1875087585494981 0.6873167763520387 0  0.250004320732028 0.6872413077093594 0  0.3124915985653791 0.6871520985323072 0  0.3749656696649377 0.6870437731664315 0  0.4374191017936419 0.6869093529539402 0  0.4998408469916863 0.6867395914055082 0  0.5622149706399958 0.6865220936260225 0  0.6245197499057551 0.6862402192016278 0  0.6867288633084924 0.6858719495844382 0  0.7488193482783714 0.6853895174917906 0  0.8107975905907631 0.6847625386495937 0  0.8727665607097026 0.6839731150845458 0  0.9350674756827957 0.6830654021339521 0  0.9984946973823673 0.6822598858188585 0  0 0.75 0  0.06250118016578311 0.7499498804532839 0  0.1250007528478698 0.7498970566578398 0  0.1874967638320814 0.749838596060303 0  0.2499864738594726 0.749771064060633 0  0.3124657679264582 0.7496901843834116 0  0.3749282768243427 0.7495903734003725 0  0.4373640270762726 0.7494640697654514 0  0.4997573530367733 0.7493007385413794 0  0.562083727633949 0.7490853601317249 0  0.6243052305985151 0.7487961060275556 0  0.6863650582444842 0.7484007544319146 0  0.7481843260316737 0.747851311972364 0  0.809673915555553 0.7470769727642556 0  0.8708018570234088 0.745980660409574 0  0.9318211168844738 0.7444729902271746 0  0.9937294467184574 0.7427185565559939 0  0 0.8125 0  0.06249907689058788 0.8124596331806669 0  0.1249965483334412 0.8124169608705908 0  0.1874904606050909 0.8123694616444956 0  0.2499780613564627 0.8123141336002853 0  0.3124551712391793 0.8122471567056153 0  0.3749152023132311 0.8121634121607221 0  0.4373475477259905 0.8120557603225351 0  0.4997348593079546 0.8119139140650508 0  0.5620483561155197 0.8117226245536212 0  0.6242396793367099 0.8114586624524107 0  0.6862269488256078 0.8110855858735071 0  0.7478723829836079 0.8105441694279023 0  0.8089536148342532 0.8097337267356058 0  0.8691612809530097 0.8084737507901922 0  0.9283076702291738 0.8064286183780958 0  0.9878058793299304 0.8030527250574191 0  0 0.875 0  0.06249842333923179 0.8749716790352863 0  0.1249955682764228 0.87494167346471 0  0.1874898773177848 0.8749081296997295 0  0.2499791476010992 0.8748688153120056 0  0.3124600082305066 0.8748208464646947 0  0.374927077245402 0.8747602915726578 0  0.4373715181410924 0.8746815630202273 0  0.4997784531316778 0.8745764493856859 0  0.5621221302923869 0.8744325332137631 0  0.6243565180854508 0.8742305380330599 0  0.6863962936800895 0.8739397330569169 0  0.7480773026977905 0.8735094867904559 0  0.8090737427952527 0.872851737696147 0  0.8687308708872628 0.871796427398331 0  0.9257690706901499 0.8699502638715552 0  0.9779657322215963 0.8661765162007192 0  0 0.9375 0  0.06249891600213627 0.9374853986205482 0  0.12499713236974 0.9374699073758532 0  0.187493796889793 0.9374525435927406 0  0.2499877030567521 0.9374321156722096 0  0.3124769994363903 0.9374070708846852 0  0.3749587135484069 0.9373752718160689 0  0.4374279180474357 0.9373336507121
[...]
<PointData  Vectors="f_54"> 
<DataArray  type="Float64"  Name="f_54"  NumberOfComponents="3" format="ascii">0.0000000000000000e+00 0.0000000000000000e+00 0.0000000000000000e+00  0.0000000000000000e+00 0.0000000000000000e+00 0.0000000000000000e+00  0.0000000000000000e+00 0.0000000000000000e+00 0.0000000000000000e+00  0.0000000000000000e+00 0.0000000000000000e+00 0.0000000000000000e+00  0.0000000000000000e+00 0.0000000000000000e+00 0.0000000000000000e+00  0.0000000000000000e+00 0.0000000000000000e+00 0.0000000000000000e+00  0.0000000000000000e+00 0.0000000000000000e+00 0.0000000000000000e+00  0.0000000000000000e+00 0.0000000000000000e+00 0.0000000000000000e+00  0.0000000000000000e+00 0.0000000000000000e+00 0.0000000000000000e+00  0.0000000000000000e+00 0.0000000000000000e+00 0.0000000000000000e+00  0.0000000000000000e+00 0.0000000000000000e+00 0.0000000000000000e+00  0.0000000000000000e+00 0.0000000000000000e+00 0.0000000000000000e+00  0.0000000000000000e+00 0.0000000000000000e+00 0.0000000000000000e+00  0.0000000000000000e+00 0.0000000000000000e+00 0.0000000000000000e+00  0.0000000000000000e+00 0.0000000000000000e+00 0.0000000000000000e+00  0.0000000000000000e+00 0.0000000000000000e+00 0.0000000000000000e+00  0.0000000000000000e+00 0.0000000000000000e+00 0.0000000000000000e+00  0.0000000000000000e+00 0.0000000000000000e+00 0.0000000000000000e+00  -4.1617679858855407e-06 -9.3248773953253487e-08 0.0000000000000000e+00  -8.4463742251690196e-06 -1.8585457460462372e-07 0.0000000000000000e+00  -1.2978287528085302e-05 -2.7665400352296756e-07 0.0000000000000000e+00  -1.7882417104625333e-05 -3.6331587237610911e-07 0.0000000000000000e+00  -2.3283622036235590e-05 -4.4158544679229643e-07 0.0000000000000000e+00  -2.9305386494362635e-05 -5.0431394658733928e-07 0.0000000000000000e+00  -3.6067649031552554e-05 -5.4018492920090562e-07 0.0000000000000000e+00  -4.3684287354231769e-05 -5.3201482328244148e-07 0.0000000000000000e+00  -5.2262016900012980e-05 -4.5439176795612294e-07 0.0000000000000000e+00  -6.1905639600321488e-05 -2.7003198898276654e-07 0.0000000000000000e+00  -7.2743195586572049e-05 7.7086344098701940e-08 0.0000000000000000e+00  -8.5010129428491322e-05 6.7837205560632693e-07 0.0000000000000000e+00  -9.9314790239138576e-05 1.7104790336796457e-06 0.0000000000000000e+00  -1.1750363969102423e-04 3.6069665411187528e-06 0.0000000000000000e+00  -1.4570336803146748e-04 7.7120959218132729e-06 0.0000000000000000e+00  -2.0639801454148978e-04 1.9079786604230531e-05 0.0000000000000000e+00  0.0000000000000000e+00 0.0000000000000000e+00 0.0000000000000000e+00  -8.2004729580237017e-06 -1.8713345634395737e-07 0.0000000000000000e+00  -1.6646528699171099e-05 -3.7353210012860653e-07 0.0000000000000000e+00  -2.5587235155091967e-05 -5.5748647499194770e-07 0.0000000000000000e+00  -3.5273260583144160e-05 -7.3508696125481873e-07 0.0000000000000000e+00  -4.5956185551271781e-05 -8.9878462219937958e-07 0.0000000000000000e+00  -5.7885974161943989e-05 -1.0355301982564512e-06 0.0000000000000000e+00  -7.1306291592867620e-05 -1.1243320762315198e-06 0.0000000000000000e+00  -8.6447954785350819e-05 -1.1330572567905502e-06 0.0000000000000000e+00  -1.0352216419353610e-04 -1.0142568453433870e-06 0.0000000000000000e+00  -1.2271807088941450e-04 -6.9967087499700157e-07 0.0000000000000000e+00  -1.4421514499570612e-04 -9.2755775611376541e-08 0.0000000000000000e+00  -1.6823173062811587e-04 9.4178836131888774e-07 0.0000000000000000e+00  -1.9514488448953843e-04 2.5904442243132007e-06 0.0000000000000000e+00  -2.2569167512805422e-04 5.0820426990049880e-06 0.0000000000000000e+00  -2.6090627190426910e-04 8.4873404764732228e-06 0.0000000000000000e+00  -2.9898021714638043e-04 1.1289249166886527e-05 0.0000000000000000e+00  0.0000000000000000e+00 0.0000000000000000e+00 0.0000000000000000e+00  -1.1992101297196899e-05 -2.8171175691383221e-07 0.0000000000000000e+00  -2.4351750863558556e-05 -5.6363057810601597e-07 0.0000000000000000e+00  -3.7452260646777890e-05 -8.4466546368960373e-07 0.0000000000000000e+00  -5.1671093595809312e-05 -1.1207626126630379e-06 0.0000000000000000e+00  -6.7389603572004335e-05 -1.3829266927708705e-06 0.0000000000000000e+00  -8.4989722586749830e-05 -1.6146192526290847e-06 0.0000000000000000e+00  -1.0484663291262932e-04 -1.7883052643924045e-06 0.0000000000000000e+00  -1.2731674727602647e-04 -1.8609350303869658e-06 0.0000000000000000e+00  -1.5272098972932201e-04 -1.7682280324183406e-06 0.0000000000000000e+00  -1.8132449883225208e-04 -1.4178482382261907e-06 0.0000000000000000e+00  -2.1331491796868326e-04 -6.8213047257471789e-07 0.0000000000000000e+00  -2.4877935079200755e-04 6.0747920827448883e-07 0.0000000000000000e+00  -2.8766337966531076e-04 2.6580400589544630e-06 0.0000000000000000e+00  -3.2962878321474788e-04 5.6888791245247614e-06 0.0000000000000000e+00  -3.7352903161238144e-04 9.8573849257199205e-06 0.0000000000000000e+00  -4.1590681174256641e-04 1.5244679834137986e-05 0.0000000000000000e+00  0.0000000000000000e+00 0.0000000000000000e+00 0.0000000000000000e+00  -1.5413665900610501e-05 -3.7600747441542687e-07 0.0000000000000000e+00  -3.1314664824982249e-05 -7.5454747186336266e-07 0.0000000000000000e+00  -4.8199020591411426e-05 -1.1367210611805928e-06 0.0000000000000000e+00  -6.6571575278918303e-05 -1.5203015038603497e-06 0.0000000000000000e+00  -8.6947257684444616e-05 -1.8974309881235614e-06 0.0000000000000000e+00  -1.0984804808838643e-04 -2.2514969194968741e-06 0.0000000000000000e+00  -1.3579381850401662e-04 -2.5528586917335563e-06 0.0000000000000000e+00  -1.6528502121155835e-04 -2.7531029973510661e-06 0.0000000000000000e+00  -1.9877505954343295e-04 -2.7776208549808878e-06 0.0000000000000000e+00  -2.3662995134679336e-04 -2.5166667027541428e-06 0.0000000000000000e+00  -2.7907177676390752e-04 -1.8159521297374709e-06 0.0000000000000000e+00  -3.2609785582836864e-04 -4.6971080165332428e-07 0.0000000000000000e+00  -3.7735365837716906e-04 1.7773667827153021e-06 0.0000000000000000e+00  -4.3190488058444948e-04 5.2080995619073499e-06 0.0000000000000000e+00  -4.8780741828946116e-04 1.0077918575828457e-05 0.0000000000000000e+00  -5.4141503718038427e-04 1.6526726787322925e-05 0.0000000000000000e+00  0.0000000000000000e+00 0.0000000000000000e+00 0.0000000000000000e+00  -1.8344759898297850e-05 -4.6766454779986197e-07 0.0000000000000000e+00  -3.7291992223565151e-05 -9.4172594755705293e-07 0.0000000000000000e+00  -5.7456653200923432e-05 -1.4272559817928474e-06 0.0000000000000000e+00  -7.9469985445007314e-05 -1.9261474669573366e-06 0.0000000000000000e+00  -1.0398396313894449e-04 -2.4347802712117088e-06 0.0000000000000000e+00  -1.3167044058083209e-04 -2.9406920829337356e-06 0.0000000000000000e+00  -1.6321230185960861e-04 -3.4177830536199925e-06 0.0000000000000000e+00  -1.9928315445431975e-04 -3.8195055642089494e-06 0.0000000000000000e+00  -2.4051126340702563e-04 -4.0694924282583449e-06 0.0000000000000000e+00  -2.8742251972512943e-04 -4.0493159700443011e-06 0.0000000000000000e+00  -3.4035616280472380e-04 -3.5838470068730440e-06 0.0000000000000000e+00  -3.9934529693748020e-04 -2.4264758673700566e-06 0.0000000000000000e+00  -4.6395150427266512e-04 -2.4979006007472363e-07 0.0000000000000000e+00  -5.3304164919411139e-04 3.3478998783594197e-06 0.0000000000000000e+00  -6.0451294267482413e-04 8.8055413880297652e-06 0.0000000000000000e+00  -6.7506959320162946e-04 1.6516979211797709e-05 0.0000000000000000e+00  0.0000000000000000e+00 0.0000000000000000e+00 0.0000000000000000e+00  -2.0670142667075070e-05 -5.5279739526058376e-07 0.0000000000000000e+00  -4.2049415387508499e-05 -1.1173017597311375e-06 0.0000000000000000e+00  -6.4864236500590671e-05 -1.7042731384218672e-06 0.0000000000000000e+00  -8.9868048562507410e-05 -2.3220432276216648e-06 0.0000000000000000e+00  -1.1785108429504849e-04 -2.9745279740530409e-06 0.0000000000000000e+00  -1.4964446649694217e-04 -3.6581483356096412e-06 0.0000000000000000e+00  -1.8611520848624578e-04 -4.3570321031559007e-06 0.0000000000000000e+00  -2.2814730603640533e-04 -5.0356302528959133e-06 0.0000000000000000e+00  -2.7660248259325321e-04 -5.6276079453875638e-06 0.0000000000000000e+00  -3.3225258015829971e-04 -6.0196802473007604e-06 0.0000000000000000e+00  -3.9567479138267103e-04 -6.0292649844079387e-06 0.0000000000000000e+00  -4.6710230120417244e-04 -5.3760792379932478e-06 0.0000000000000000e+00  -5.4622898144072670e-04 -3.6512260051724259e-06 0.0000000000000000e+00  -6.3198204501872400e-04 -2.9409778708427325e-07 0.0000000000000000e+00  -7.2230875694142811e-04 5.4029571178020292e-06 0.0000000000000000e+00  -8.1408196295301174e-04 1.4236239802072346e-05 0.0000000000000000e+00  0.0000000000000000e+00 0.0000000000000000e+00 0.0000000000000000e+00  -2.2283642317805240e-05 -6.2609029965640161e-07 0.0000000000000000e+00  -4.5369192213568967e-05 -1.2702651957976996e-06 0.0000000000000000e+00  -7.0081650506940830e-05 -1.9503128622770556e-06 0.0000000000000000e+00  -9.7287082926777375e-05 -2.6829724306658608e-06 0.0000000000000000e+00  -1.2791014899986780e-04 -3.4827359839082157e-06 0.0000000000000000e+00  -1.6294662359584444e-04 -4.3596268756564792e-06 0.0000000000000000e+00  -2.0346709871653040e-04 -5.3152275566052575e-06 0.0000000000000000e+00  -2.5060594790416894e-04 -6.3357918906656040e-06 0.0000000000000000e+00  -3.0552689370916258e-04 -7.3806031374064504e-06 0.0000000000000000e+00  -3.6935354200221720e-04 -8.3628055005654731e-06 0.0000000000000000e+00  -4.4305130018381013e-04 -9.1189157021496602e-06 0.0000000000000000e+00  -5.2724903515855850e-04 -9.3628606796157116e-06 0.0000000000000000e+00  -6.2199967011608201e-04 -8.6227299377953132e-06 0.0000000000000000e+00  -7.2650460404388164e-04 -6.1674911291748718e-06 0.0000000000000000e+00  -8.3886737036579172e-04 -9.5131094865878592e-07 0.0000000000000000e+00  -9.5597643056727008e-04 8.3670335818866439e-06 0.0000000000000000e+00  0.0000000000000000e+00 0.0000000000000000e+00 0.0000000000000000e+00  -2.3093540084148049e-05 -6.8118089062619882e-07 0.0000000000000000e+00  -4.7060957047945620e-05 -1.3872231565636794e-06 0.0000000000000000e+00  -7.2805765992276571e-05 -2.1435674652969140e-06 0.0000000000000000e+00  -1.0128925141113686e-04 -2.9765355380826397e-06 0.0000000000000000e+00  -1.3355813296102496e-04 -3.9133695286808367e-06 0.0000000000000000e+00  -1.7076931838418244e-04 -4.9815697574089426e-06 0.0000000000000000e+00  -2.1420820189533283e-04 -6.2068638328063558e-06 0.0000000000000000e+00  -2.6529410395913542e-04 -7.6085569930995311e-06 0.0000000000000000e+00  -3.2556220268761891e-04 -9.1899479214885986e-06 0.0000000000000000e+00  -3.9660572316966978e-04 -1.0919630353165078e-05 0.0000000000000000e+00  -4.7995640208387479e-04 -1.2696504929353642e-05 0.0000000000000000e+00  -5.7687918538559379e-04 -1.4287340321555481e-05 0.0000000000000000e+00  -6.8806745033598714e-04 -1.5222950920016565e-05 0.0000000000000000e+00  -8.1326136293432270e-04 -1.4645227757960244e-05 0.0000000000000000e+00  -9.5088008558631731e-04 -1.1128496412920596e-05 0.0000000000000000e+00  -1.0978108737355642e-03 -2.5658282556890627e-06 0.0000000000000000e+00  0.0000000000000000e+00 0.0000000000000000e+00 0.0000000000000000e+00  -2.3029385857801693e-05 -7.1133040504061771e-07 0.0000000000000000e+00  -4.6975714677455064e-05 -1.4537849413317765e-06 0.0000000000000000e+00  -7.2792259789276128e-05 -2.2600611401499103e-06 0.0000000000000000e+00  -1.0150790950167294e-04 -3.1659978014436049e-06 0.0000000000000000e+00  -1.3426671208832509e-04 -4.2121941279315766e-06 0.0000000000000000e+00  -1.7236834605102833e-04 -5.4455429109606809e-06 0.0000000000000000e+00  -2.1730730208416733e-04 -6.9203265932098878e-06 0.0000000000000000e+00  -2.7080522935467332e-04 -8.6979878543209592e-06 0.0000000000000000e+00  -3.3482512253021771e-04 -1.0843512029443377e-05 0.0000000000000000e+00  -4.1154680267195976e-04 -1.3413847041389933e-05 0.0000000000000000e+00  -5.0327024060722869e-04 -1.6428627648060593e-05 0.0000000000000000e+00  -6.1219976720778549e-04 -1.9803699594585215e-05 0.0000000000000000e+00  -7.4006041527504912e-04 -2.3212502138589546e-05 0.0000000000000000e+00  -8.8753858526272749e-04 -2.5826882185196065e-05 0.0000000000000000e+00  -1.0536717238291435e-03 -2.5914887850513164e-05 0.0000000000000000e+00  -1.2355365283400362e-03 -2.0418716716703185e-05 0.0000000000000000e+00  0.0000000000000000e+00 0.0000000000000000e+00 0.0000000000000000e+00  -2.2049877546672243e-05 -7.1033348428294926e-07 0.0000000000000000e+00  -4.5022381981010519e-05 -1.4564910445006937e-06 0.0000000000000000e+00  -6.9882342552200587e-05 -2.2768186929737495e-06 0.0000000000000000e+00  -9.7686673372286478e-05 -3.2150247846159736e-06 0.0000000000000000e+00  -1.2963614577195617e-04 -4.3234715564831458e-06 0.0000000000000000e+00  -1.6713366401422167e-04 -5.6672187581056489e-06 0.0000000000000000e+00  -2.1184962635438373e-04 -7.3290560649472985e-06 0.0000000000000000e+00  -2.6579202214173966e-04 -9.4155823138809446e-06 0.0000000000000000e+00  -3.3137258839267673e-04 -1.2063741539096670e-05 0.0000000000000000e+00  -4.1144783686604397e-04 -1.5445240611638502e-05 0.0000000000000000e+00  -5.0929132926169781e-04 -1.9760683056719514e-05 0.0000000000000000e+00  -6.2841885116032587e-04 -2.5200570510351366e-05 0.0000000000000000e+00  -7.7214947777438231e-04 -3.1815310141221522e-05 0.0000000000000000e+00  -9.4278981984027952e-04 -3.9168096227472566e-05 0.0000000000000000e+00  -1.1405107519858377e-03 -4.5579265273493037e-05 0.0000000000000000e+00  -1.3624646732640969e-03 -4.6938201828129259e-05 0.0000000000000000e+00  0.0000000000000000e+00 0.0000000000000000e+00 0.0000000000000000e+00  -2.0151039814169245e-05 -6.7355745995452254e-07 0.0000000000000000e+00  -4.1185379221420792e-05 -1.3850634107027743e-06 0.0000000000000000e+00  -6.4032277086786756e-05 -2.1756956747277804e-06 0.0000000000000000e+00  -8.9724770884008954e-05 -3.0937107433569048e-06 0.0000000000000000e+00  -1.1946175666918982e-04 -4.1991256746765133e-06 0.0000000000000000e+00  -1.5468327012308787e-04 -5.5699955266934753e-06 0.0000000000000000e+00  -1.9716393494785423e-04 -7.3112343889011891e-06 0.0000000000000000e+00  -2.4912861512853962e-04 -9.5673859765417996e-06 0.0000000000000000e+00  -3.1339007166767546e-04 -1.2541392643499437e-05 0.0000000000000000e+00  -3.9349623427287509e-04 -1.6521948949266944e-05 0.0000000000000000e+00  -4.9384549208281810e-04 -2.1920795356240074e-05 0.0000000000000000e+00  -6.1966720046709818e-04 -2.9311464796725127e-05 0.0000000000000000e+00  -7.7665581560618839e-04 -3.9418371557009540e-05 0.0000000000000000e+00  -9.6991622426857607e-04 -5.2857140352210030e-05 0.0000000000000000e+00  -1.2019936493506769e-03 -6.9047207197106753e-05 0.0000000000000000e+00  -1.4708739320048638e-03 -8.3862412101862649e-05 0.0000000000000000e+00  0.0000000000000000e+00 0.0000000000000000e+00 0.0000000000000000e+00  -1.7373515014007136e-05 -5.9894057910043463e-07 0.0000000000000000e+00  -3.5540815386922168e-05 -1.2346100118038199e-06 0.0000000000000000e+00  -5.5341854685232131e-05 -1.9472541055360844e-06 0.0000000000000000e+00  -7.7723470885082948e-05 -2.7849642609578396e-06 0.0000000000000000e+00  -1.0380685521957138e-04 -3.8090667529241589e-06 0.0000000000000000e+00  -1.3497452715694375e-04 -5.1016426833970869e-06 0.0000000000000000e+00  -1.7298711882492065e-04 -6.7766337148434447e-06 0.0000000000000000e+00  -2.2014331123120390e-04 -8.9970254544050145e-06 0.0000000000000000e+00  -2.7949840021474984e-04 -1.2002698403118630e-05 0.0000000000000000e+00  -3.5515352021136203e-04 -1.6157878652844305e-05 0.0000000000000000e+00  -4.5260567056033048e-04 -2.2035841057804302e-05 0.0000000000000000e+00  -5.7907695856762771e-04 -3.0573306901868218e-05 0.0000000000000000e+00  -7.4355183492860256e-04 -4.3335769785815018e-05 0.0000000000000000e+00  -9.5582489052092531e-04 -6.2830931767992196e-05 0.0000000000000000e+00  -1.2232308386151043e-03 -9.1902026941977663e-05 0.0000000000000000e+00  -1.5477464311579273e-03 -1.2527843020570612e-04 0.0000000000000000e+00  0.0000000000000000e+00 0.0000000000000000e+00 0.0000000000000000e+00  -1.3807434497499900e-05 -4.8774444802836405e-07 0.0000000000000000e+00  -2.8267956917623203e-05 -1.0073232403136661e-06 0.0000000000000000e+00  -4.4076272605720342e-05 -1.5938507626974878e-06 0.0000000000000000e+00  -6.2025183711417108e-05 -2.2898307944489861e-06 0.0000000000000000e+00  -8.3070393615158441e-05 -3.1503058213747418e-06 0.0000000000000000e+00  -1.0841835726679290e-04 -4.2501163595417444e-06 0.0000000000000000e+00  -1.3965194669599221e-04 -5.6946894216070324e-06 0.0000000000000000e+00  -1.7891677832802353e-04 -7.6367845221889280e-06 0.0000000000000000e+00  -2.2920343271776497e-04 -1.0303853674297828e-05 0.0000000000000000e+00  -2.9477729961591788e-04 -1.4046269650793956e-05 0.0000000000000000e+00  -3.8182142509624484e-04 -1.9432282822956206e-05 0.0000000000000000e+00  -4.9933701469666986e-04 -2.7461318710983359e-05 0.0000000000000000e+00  -6.6018196009488524e-04 -4.0100882691550839e-05 0.0000000000000000e+00  -8.8146272539052647e-04 -6.1727138064558593e-05 0.0000000000000000e+00  -1.1808419872300368e-03 -1.0305949221011317e-04 0.0000000000000000e+00  -1.5471389344803841e-03 -1.9216184044382878e-04 0.0000000000000000e+00  0.0000000000000000e+00 0.0000000000000000e+00 0.0000000000000000e+00  -9.5932258609767274e-06 -3.4487214656465836e-07 0.0000000000000000e+00  -1.9652260725762463e-05 -7.1323386138520583e-07 0.0000000000000000e+00  -3.0674706656946017e-05 -1.1311006946654067e-06 0.0000000000000000e+00  -4.3234038674886732e-05 -1.6302044122067696e-06 0.0000000000000000e+00  -5.8031557526451059e-05 -2.2519664089473991e-06 0.0000000000000000e+00  -7.5969635648199133e-05 -3.0530234179174429e-06 0.0000000000000000e+00  -9.8261798320116434e-05 -4.1131439710074708e-06 0.0000000000000000e+00  -1.2660643453704819e-04 -5.5465729777747650e-06 0.0000000000000000e+00  -1.6347196217081421e-04 -7.5178579485853268e-06 0.0000000000000000e+00  -2.1258039971578199e-04 -1.0262829631388395e-05 0.0000000000000000e+00  -2.7974722319092614e-04 -1.4115809830097656e-05 0.0000000000000000e+00  -3.7435476813244993e-04 -1.9557045433671757e-05 0.0000000000000000e+00  -5.1190594296194063e-04 -2.7386938181863755e-05 0.0000000000000000e+00  -7.1827895451426985e-04 -3.9608012158820863e-05 0.0000000000000000e+00  -1.0366173027716061e-03 -6.3590290770237335e-05 0.0000000000000000e+00  -1.5419915277072214e-03 -1.2855309891599231e-04 0.0000000000000000e+00  0.0000000000000000e+00 0.0000000000000000e+00 0.0000000000000000e+00  -4.9170038421096110e-06 -1.7863906627753830e-07 0.0000000000000000e+00  -1.0076724101372124e-05 -3.6975167225192424e-07 0.0000000000000000e+00  -1.5739181076222961e-05 -5.8718235717037731e-07 0.0000000000000000e+00  -2.2205998460471591e-05 -8.4788223240440179e-07 0.0000000000000000e+00  -2.9849583345646366e-05 -1.1740470859548441e-06 0.0000000000000000e+00  -3.9155363578013664e-05 -1.5960151802757743e-06 0.0000000000000000e+00  -5.0787431508276234e-05 -2.1561434822407030e-06 0.0000000000000000e+00  -6.5696666463040953e-05 -2.9133830427870779e-06 0.0000000000000000e+00  -8.5308364230815353e-05 -3.9461133727294707e-06 0.0000000000000000e+00  -1.1186417652704907e-04 -5.3426584488840091e-06 0.0000000000000000e+00  -1.4907225766069154e-04 -7.1396316224680085e-06 0.0000000000000000e+00  -2.0336987408796307e-04 -9.0654320728792134e-06 0.0000000000000000e+00  -2.8626423677870048e-04 -9.6031879392047306e-06 0.0000000000000000e+00  -4.1749065394489505e-04 -2.9376838762872710e-06 0.0000000000000000e+00  -6.2177199861507433e-04 2.8456731452614948e-05 0.0000000000000000e+00  -8.8747156913862927e-04 1.1531092744770488e-04 0.0000000000000000e+00  0.0000000000000000e+00 0.0000000000000000e+00 0.0000000000000000e+00  0.0000000000000000e+00 0.0000000000000000e+00 0.0000000000000000e+00  0.0000000000000000e+00 0.0000000000000000e+00 0.0000000000000000e+00  0.0000000000000000e+00 0.0000000000000000e+00 0.0000000000000000e+00  0.0000000000000000e+00 0.0000000000000000e+00 0.0000000000000000e+00  0.0000000000000000e+00 0.0000000000000000e+00 0.00