<?xml version="1.0"?>
<VTKFile type="UnstructuredGrid"  version="0.1"  >
<UnstructuredGrid>
<Piece  NumberOfPoints="289" NumberOfCells="512">
<Points>
<DataArray  type="Float64"  NumberOfComponents="3"  format="ascii">0 0 0  0.0625 0 0  0.125 0 0  0.1875 0 0  0.25 0 0  0.3125 0 0  0.375 0 0  0.4375 0 0  0.5 0 0  0.5625 0 0  0.625 0 0  0.6875 0 0  0.75 0 0  0.8125 0 0  0.875 0 0  0.9375 0 0  1 0 0  0 0.0625 0  0.06251957587422807 0.06249399567096182 0  0.1250397460936448 0.06248789069255892 0  0.1875611112554514 0.06248159508348713 0  0.2500842776531435 0.06247504262193306 0  0.3126098566512765 0.06246820586174163 0  0.3751384599975145 0.06246111429370001 0  0.4376706906114839 0.06245387521427576 0  0.5002071301160939 0.06244669465985533 0  0.5627483283871481 0.06243989158388823 0  0.6252948095245289 0.06243389092058379 0  0.6878471294703519 0.06242916835104319 0  0.7504060659455062 0.06242610023470703 0  0.8129730930132186 0.06242465656967248 0  0.8755511632011359 0.0624239607329347 0  0.9381433276327286 0.06242269501775383 0  1.000725306817657 0.0624305228542161 0  0 0.125 0  0.06253852251061212 0.1249880924943764 0  0.1250782334619035 0.1249759723977851 0  0.1876203372402553 0.1249634471405156 0  0.2501660576828656 0.1249503691439092 0  0.3127166426761548 0.1249366651716787 0  0.3752733631066678 0.1249223730637176 0  0.437837506537371 0.1249076861014322 0  0.5004103697827305 0.1248930017463565 0  0.5629932624838893 0.1248789646483684 0  0.625587549196218 0.1248664813060415 0  0.6881947843310241 0.1248566622401854 0  0.7508170283301862 0.1248506129441115 0  0.8134574180523242 0.1248489428512113 0  0.8761207340994049 0.1248507703613983 0  0.9388123809423377 0.1248515787549812 0  1.001533887231981 0.1248352918422108 0  0 0.1875 0  0.06255625230202524 0.1874824029505441 0  0.1251142794760191 0.1874644602189704 0  0.1876758859072937 0.187445852719095 0  0.2502429183637401 0.1874263221038718 0  0.312817281556695 0.1874057125482178 0  0.3754009475962378 0.1873840258422974 0  0.4379959600703922 0.1873614926307991 0  0.5006044375537763 0.1873386593979701 0  0.5632285885837729 0.1873164838485379 0  0.6258707606680792 0.1872964178246534 0  0.6885335543937771 0.1872804324220298 0  0.7512200152796403 0.1872708972305763 0  0.8139337918574198 0.1872701480657286 0  0.8766787481493261 0.1872794090359068 0  0.9394567834294931 0.1872962768918095 0  1.002263077700652 0.1873089223392864 0  0 0.25 0  0.06257218840533395 0.2499770606092413 0  0.1251467186256289 0.2499536143157501 0  0.1877259793241891 0.2499291829062775 0  0.2503124337925134 0.2499033555122501 0  0.3129086519128497 0.2498758387385128 0  0.3755173361163727 0.2498465274012883 0  0.4381413415895519 0.2498156033205413 0  0.5007836937522583 0.2497836685208859 0  0.5634476096118963 0.2497519151711247 0  0.6261365309640017 0.2497223247667053 0  0.6888541660232861 0.2496978689145933 0  0.7516044843113283 0.2496826471680049 0  0.814391462890214 0.249681836304222 0  0.8772180853091004 0.2497012419805351 0  0.9400837771143135 0.2497462186523826 0  1.002979840548828 0.24982029332604 0  0 0.3125 0  0.0625857725236381 0.3124722270727914 0  0.125174417887575 0.312443755544261 0  0.1877688763819015 0.3124139113235518 0  0.2503722039647726 0.3123820810393146 0  0.312987625905602 0.3123477633283732 0  0.3756185854890372 0.3123106479976174 0  0.4382687876336526 0.3122707364798968 0  0.5009422387135226 0.3122285198412183 0  0.5636432845130948 0.3121852324802207 0  0.6263766440099423 0.3121431980069446 0  0.6891474175793845 0.3121062735994728 0  0.7519609962402942 0.3120803719651314 0  0.8148226978398542 0.3120739849853615 0  0.8777368511048432 0.3120985479077477 0  0.9407052176274965 0.3121684159670121 0  1.003725886132437 0.3123003542033753 0  0 0.375 0  0.06259647738135306 0.3749680942721887 0  0.1251963018229765 0.3749352718930253 0  0.1878029108280001 0.3749006287840038 0  0.250419906132679 0.3748632980691758 0  0.3130511339985849 0.374822491864321 0  0.3757007633853156 0.3747775757913217 0  0.4383733627670571 0.3747281955344385 0  0.501073977959191 0.374674482828435 0  0.5638082145605995 0.374617378740424 0  0.6265823261625635 0.3745591234728938 0  0.6894032955298445 0.3745039690556171 0  0.7522788581594921 0.3744591613385646 0  0.8152173499268894 0.3744361840019409 0  0.8782272039511694 0.37445211553589 0  0.9413160427866551 0.3745306677040909 0  1.004489898530781 0.3747020108874153 0  0 0.4375 0  0.06260382496110233 0.4374648802765208 0  0.1252113895489283 0.4374286116313496 0  0.1878265479217839 0.4373900374271217 0  0.2504533722163519 0.4373479959311951 0  0.3130962634541941 0.4373013391261707 0  0.3757600653135725 0.4372489837585046 0  0.4384501843984397 0.4371900175947793 0  0.5011727247892332 0.437123897416415 0  0.5639346517698011 0.4370507960296447 0  0.6267440090981803 0.4369721850285841 0  0.6896102209250872 0.4368917764314712 0  0.7525444987716515 0.4368169770343542 0  0.8155603175846285 0.4367609951219032 0  0.8786737891360469 0.4367455895122513 0  0.9419035444002314 0.4368040144119583 0  1.005269520901917 0.4369828752317644 0  0 0.5 0  0.06260741090615661 0.4999628171052727 0  0.1252188445159995 0.4999242595465331 0  0.1878384615096531 0.4998829172506908 0  0.2504706957812652 0.4998373154003219 0  0.3131203978577754 0.4997858959896869 0  0.3757929878761399 0.4997270231056631 0  0.4384946260581793 0.499659033711231 0  0.5012324174531931 0.4995803730606135 0  0.5640146863603311 0.4994898837979003 0  0.6268513905155985 0.4993873675458739 0  0.6897547992344392 0.4992746156567583 0  0.7527406188442051 0.4991572135979763 0  0.8158297449685388 0.4990475314070153 0  0.8790505768661124 0.4989692954871712 0  0.9424410469018122 0.4989636642796292 0  1.006048070644352 0.4990952418371015 0  0 0.5625 0  0.06260693443889791 0.5624621299614083 0  0.1252180359574359 0.5624226944447378 0  0.1878376302773014 0.5623800604292356 0  0.2504703680016292 0.5623324591605324 0  0.313121399369017 0.5622779188084361 0  0.3757965657217822 0.5622142030406152 0  0.4385026195488728 0.5621387689736189 0  0.5012474985735471 0.5620487746559741 0  0.564040712367743 0.5619411990115779 0  0.6268939724364558 0.561813200426891 0  0.6898223378302241 0.5616629592644835 0  0.7528463768478991 0.5614914633068041 0  0.8159960880874673 0.5613060395903984 0  0.8793172032341872 0.5611268498457638 0  0.9428790104531716 0.5609975745522794 0  1.006778587430481 0.560999692771098 0  0 0.625 0  0.06260223175519775 0.624963008881038 0  0.1252086080673827 0.6249243294138016 0  0.1878234475684217 0.6248821741647345 0  0.2504514356359495 0.6248345485694153 0  0.31309782567017 0.6247791300160004 0  0.3757686634092138 0.624713127224794 0  0.438471047274325 0.6246331173530146 0  0.5012134522312209 0.6245348673589098 0  0.5640061862964935 0.6244131691083012 0  0.6268621574879657 0.6242617726759013 0  0.6897983867234321 0.6240736303562929 0  0.7528392438170595 0.6238419555047289 0  0.816023315798784 0.6235632373870553 0  0.8794167697335766 0.6232446011023878 0  0.9431348645700542 0.6229196042538112 0  1.007364151480531 0.6226755588301051 0  0 0.6875 0  0.06259330931446032 0.6874655758503442 0  0.1251905498179853 0.6874294408990694 0  0.1877958342225135 0.6873897607885787 0  0.2504136668375301 0.6873444368803617 0  0.3130491627940886 0.6872909380873246 0  0.3757082955099454 0.6872260846675567 0  0.4383981826090189 0.6871457603010142 0  0.5011274278534799 0.6870445233274983 0  0.5639065678782444 0.6869150856213614 0  0.6267487806131806 0.6867476398332462 0  0.6896713422325496 0.6865290784628741 0  0.7526992255892053 0.6862423708276369 0  0.8158744288395163 0.6858670771765423 0  0.8792789090373625 0.6853841329549915 0  0.943083291135142 0.6847938052226148 0  1.007623065798938 0.6841642695408787 0  0 0.75 0  0.06258037207041042 0.7499698525313782 0  0.1251642554815757 0.7499380975058647 0  0.187755339456804 0.7499029930007547 0  0.2503577045425948 0.7498625052909544 0  0.3129760471249344 0.7498141126889745 0  0.3756159372743104 0.7497545384412631 0  0.4382841157145666 0.7496793692114248 0  0.5009888282537813 0.7495824932465605 0  0.563740190341063 0.749455256167831 0  0.6265506045862897 0.7492851754319626 0  0.689435464744531 0.7490539709816556 0  0.7524152910457443 0.7487345796437332 0  0.8155237174194551 0.7482869089817151 0  0.8788359327330759 0.7476534081473787 0  0.942556868123514 0.7467636341858997 0  1.00721461197765 0.7456008771215825 0  0 0.8125 0  0.06256384086339976 0.8124757351956808 0  0.1251305641054263 0.8124501031000196 0  0.1877032118832458 0.812421609779008 0  0.2502851835296265 0.8123884833919824 0  0.3128804473304054 0.8123484803745123 0  0.375493791117826 0.8122986118326273 0  0.4381311165722336 0.8122347364040565 0  0.5007997612010151 0.8121509322483663 0  0.5635087790445772 0.812038500757199 0  0.6262689972329584 0.8118843434661183 0  0.6890924812445838 0.811668235970714 0  0.7519910135384973 0.8113580636894399 0  0.8149748857229396 0.8109010553783644 0  0.8780647611328516 0.8102067692875037 0  0.9413884901093033 0.8091137845448629 0  1.005722647713267 0.8073399433291415 0  0 0.875 0  0.06254435328662412 0.8749829835627239 0  0.1250907660086169 0.8749649694706614 0  0.1876414218028033 0.8749448610929488 0  0.2501987855461721 0.874921343105034 0  0.312765777081042 0.8748927252730961 0  0.375345986097839 0.8748567169581339 0  0.4379439380192829 0.8748100835444867 0  0.5005653999835622 0.8747481036710022 0  0.5632176444970325 0.8746636882138837 0  0.6259093708856909 0.8745459161047897 0  0.688649369502159 0.8743775378747012 0  0.7514413926976827 0.874130552752312 0  0.8142689204591381 0.8737577733171898 0  0.8770573466645636 0.8731743641231138 0  0.9396090630174937 0.8722090716666518 0  1.00170555872731 0.8704485582049586 0  0 0.9375 0  0.06252274361720458 0.937491228495883 0  0.1250465663066955 0.937481930253226 0  0.1875726171614588 0.9374715241503635 0  0.2501022053654977 0.9374593084236029 0  0.3126369035407419 0.9374443732932292 0  0.3751786823657619 0.9374254732712254 0  0.4377300895737247 0.93740083022098
[...]
<PointData  Vectors="f_54"> 
<DataArray  type="Float64"  Name="f_54"  NumberOfComponents="3" format="ascii">0.0000000000000000e+00 0.0000000000000000e+00 0.0000000000000000e+00  0.0000000000000000e+00 0.0000000000000000e+00 0.0000000000000000e+00  0.0000000000000000e+00 0.0000000000000000e+00 0.0000000000000000e+00  0.0000000000000000e+00 0.0000000000000000e+00 0.0000000000000000e+00  0.0000000000000000e+00 0.0000000000000000e+00 0.0000000000000000e+00  0.0000000000000000e+00 0.0000000000000000e+00 0.0000000000000000e+00  0.0000000000000000e+00 0.0000000000000000e+00 0.0000000000000000e+00  0.0000000000000000e+00 0.0000000000000000e+00 0.0000000000000000e+00  0.0000000000000000e+00 0.0000000000000000e+00 0.0000000000000000e+00  0.0000000000000000e+00 0.0000000000000000e+00 0.0000000000000000e+00  0.0000000000000000e+00 0.0000000000000000e+00 0.0000000000000000e+00  0.0000000000000000e+00 0.0000000000000000e+00 0.0000000000000000e+00  0.0000000000000000e+00 0.0000000000000000e+00 0.0000000000000000e+00  0.0000000000000000e+00 0.0000000000000000e+00 0.0000000000000000e+00  0.0000000000000000e+00 0.0000000000000000e+00 0.0000000000000000e+00  0.0000000000000000e+00 0.0000000000000000e+00 0.0000000000000000e+00  0.0000000000000000e+00 0.0000000000000000e+00 0.0000000000000000e+00  0.0000000000000000e+00 0.0000000000000000e+00 0.0000000000000000e+00  4.0878711054684778e-06 -3.9265345936804155e-08 0.0000000000000000e+00  8.3037902854787119e-06 -8.1356765906071620e-08 0.0000000000000000e+00  1.2777916237902831e-05 -1.2936170544992408e-07 0.0000000000000000e+00  1.7642840475500911e-05 -1.8689527706872477e-07 0.0000000000000000e+00  2.3034199541194654e-05 -2.5841325495207736e-07 0.0000000000000000e+00  2.9090575456028953e-05 -3.4958767448408656e-07 0.0000000000000000e+00  3.5952652513336485e-05 -4.6778009989908901e-07 0.0000000000000000e+00  4.3762061965184217e-05 -6.2268304410456727e-07 0.0000000000000000e+00  5.2661565142039187e-05 -8.2730776251216376e-07 0.0000000000000000e+00  6.2801440089615802e-05 -1.0998264420794979e-06 0.0000000000000000e+00  7.4365804075703315e-05 -1.4678215865191311e-06 0.0000000000000000e+00  8.7658867483709872e-05 -1.9800021108653521e-06 0.0000000000000000e+00  1.0337554087722287e-04 -2.7430754646074060e-06 0.0000000000000000e+00  1.2347504438004885e-04 -4.0502779026874355e-06 0.0000000000000000e+00  1.5417848756400630e-04 -6.8686438479817901e-06 0.0000000000000000e+00  2.1697912011277941e-04 -1.4812685247117926e-05 0.0000000000000000e+00  0.0000000000000000e+00 0.0000000000000000e+00 0.0000000000000000e+00  8.0495235667305743e-06 -7.5723433617078039e-08 0.0000000000000000e+00  1.6354175826301709e-05 -1.5685211440476282e-07 0.0000000000000000e+00  2.5173513125083010e-05 -2.4929494719850760e-07 0.0000000000000000e+00  3.4772534998181185e-05 -3.5998053941274589e-07 0.0000000000000000e+00  4.5423138370577646e-05 -4.9746196184330841e-07 0.0000000000000000e+00  5.7403981378589991e-05 -6.7263635619943813e-07 0.0000000000000000e+00  7.0998394749824544e-05 -8.9962611054084005e-07 0.0000000000000000e+00  8.6490449656389563e-05 -1.1968911874004167e-06 0.0000000000000000e+00  1.0416049823782458e-04 -1.5887085922063080e-06 0.0000000000000000e+00  1.2428429781226246e-04 -2.1073223293916902e-06 0.0000000000000000e+00  1.4714585247418621e-04 -2.7964050119876109e-06 0.0000000000000000e+00  1.7308577913558731e-04 -3.7167731742882737e-06 0.0000000000000000e+00  2.0262313433423831e-04 -4.9531433714972405e-06 0.0000000000000000e+00  2.3667120327485871e-04 -6.6005326443353124e-06 0.0000000000000000e+00  2.7654567850443287e-04 -8.5835548915244585e-06 0.0000000000000000e+00  3.2126497673599604e-04 -9.4676595596184395e-06 0.0000000000000000e+00  0.0000000000000000e+00 0.0000000000000000e+00 0.0000000000000000e+00  1.1757169943725814e-05 -1.0679059372533807e-07 0.0000000000000000e+00  2.3893990756220889e-05 -2.2108265852674250e-07 0.0000000000000000e+00  3.6797258791607983e-05 -3.5108499127121481e-07 0.0000000000000000e+00  5.0863373342761495e-05 -5.0644660610361120e-07 0.0000000000000000e+00  6.6501180979926702e-05 -6.9911597374739776e-07 0.0000000000000000e+00  8.4132202507893850e-05 -9.4436154855698269e-07 0.0000000000000000e+00  1.0418722675736679e-04 -1.2619964930721785e-06 0.0000000000000000e+00  1.2709831584333122e-04 -1.6778331588995543e-06 0.0000000000000000e+00  1.5328560184322995e-04 -2.2253598378257032e-06 0.0000000000000000e+00  1.8313895664485709e-04 -2.9475645031937639e-06 0.0000000000000000e+00  2.1699524517450634e-04 -3.8986559952737595e-06 0.0000000000000000e+00  2.5510968511263757e-04 -5.1449044682508837e-06 0.0000000000000000e+00  2.9760411470503701e-04 -6.7623423972476521e-06 0.0000000000000000e+00  3.4431217696666018e-04 -8.8269249684826090e-06 0.0000000000000000e+00  3.9425582234478725e-04 -1.1406650644591419e-05 0.0000000000000000e+00  4.4418636625736147e-04 -1.4746648922815684e-05 0.0000000000000000e+00  0.0000000000000000e+00 0.0000000000000000e+00 0.0000000000000000e+00  1.5085767330136900e-05 -1.3036975259919436e-07 0.0000000000000000e+00  3.0670982718879880e-05 -2.6965361908349456e-07 0.0000000000000000e+00  4.7265558968963450e-05 -4.2761923817461865e-07 0.0000000000000000e+00  6.5394919513500475e-05 -6.1578871107480880e-07 0.0000000000000000e+00  8.5605223413658902e-05 -8.4850363937268145e-07 0.0000000000000000e+00  1.0846501676787073e-04 -1.1442074973738807e-06 0.0000000000000000e+00  1.3456150992317256e-04 -1.5269938162996175e-06 0.0000000000000000e+00  1.6448917484920424e-04 -2.0284175442139724e-06 0.0000000000000000e+00  1.9882770685461810e-04 -2.6894521705852271e-06 0.0000000000000000e+00  2.3810538119324793e-04 -3.5622396059649949e-06 0.0000000000000000e+00  2.8274164211042070e-04 -4.7108294014793064e-06 0.0000000000000000e+00  3.3295702046468029e-04 -6.2093183796778041e-06 0.0000000000000000e+00  3.8862368941789300e-04 -8.1346906577181032e-06 0.0000000000000000e+00  4.4899752709705559e-04 -1.0551050609908745e-05 0.0000000000000000e+00  5.1222493679105644e-04 -1.3484670787561703e-05 0.0000000000000000e+00  5.7453530064887942e-04 -1.6888820102360911e-05 0.0000000000000000e+00  0.0000000000000000e+00 0.0000000000000000e+00 0.0000000000000000e+00  1.7915264111199176e-05 -1.4505119602802140e-07 0.0000000000000000e+00  3.6442029841917431e-05 -2.9959839388827991e-07 0.0000000000000000e+00  5.6206345193449464e-05 -4.7406036800544940e-07 0.0000000000000000e+00  7.7857929864399614e-05 -6.8077940638373097e-07 0.0000000000000000e+00  1.0207923894459379e-04 -9.3522669603241883e-07 0.0000000000000000e+00  1.2959039513435523e-04 -1.2575022207011881e-06 0.0000000000000000e+00  1.6114751468076225e-04 -1.6742151044586414e-06 0.0000000000000000e+00  1.9753090447609039e-04 -2.2207775091060460e-06 0.0000000000000000e+00  2.3951816556874321e-04 -2.9440045742720746e-06 0.0000000000000000e+00  2.8783526307026328e-04 -3.9045994480918764e-06 0.0000000000000000e+00  3.4307584103062500e-04 -5.1784860622305125e-06 0.0000000000000000e+00  4.0557504493482987e-04 -6.8548808125396943e-06 0.0000000000000000e+00  4.7521886469174596e-04 -9.0274026907646145e-06 0.0000000000000000e+00  5.5116720868545464e-04 -1.1772623101814303e-05 0.0000000000000000e+00  6.3148703683442106e-04 -1.5108375569822663e-05 0.0000000000000000e+00  7.1278857482683945e-04 -1.8918042320998574e-05 0.0000000000000000e+00  0.0000000000000000e+00 0.0000000000000000e+00 0.0000000000000000e+00  2.0133679844726079e-05 -1.5025896001028974e-07 0.0000000000000000e+00  4.0979083329924417e-05 -3.0969081665200177e-07 0.0000000000000000e+00  6.3267375782816962e-05 -4.8836335690231446e-07 0.0000000000000000e+00  8.7764040961189636e-05 -6.9824599809387649e-07 0.0000000000000000e+00  1.1528358713775266e-04 -9.5445907413622673e-07 0.0000000000000000e+00  1.4670030409153867e-04 -1.2769099854744252e-06 0.0000000000000000e+00  1.8295224119728741e-04 -1.6924797396352289e-06 0.0000000000000000e+00  2.2503405569623488e-04 -2.2379174115889004e-06 0.0000000000000000e+00  2.7397226713394906e-04 -2.9635180399766811e-06 0.0000000000000000e+00  3.3077374936241183e-04 -3.9373958923154390e-06 0.0000000000000000e+00  3.9633527620321014e-04 -5.2495280042214989e-06 0.0000000000000000e+00  4.7129958843449845e-04 -7.0134359447827199e-06 0.0000000000000000e+00  5.5584432386869608e-04 -9.3610669160130349e-06 0.0000000000000000e+00  6.4940004343693304e-04 -1.2423114232441890e-05 0.0000000000000000e+00  7.5032353399542688e-04 -1.6284058662471116e-05 0.0000000000000000e+00  8.5561588876923182e-04 -2.0904755217226885e-05 0.0000000000000000e+00  0.0000000000000000e+00 0.0000000000000000e+00 0.0000000000000000e+00  2.1641223662022288e-05 -1.4632349102293618e-07 0.0000000000000000e+00  4.4077327074580376e-05 -3.0061151415503003e-07 0.0000000000000000e+00  6.8128207106232143e-05 -4.7158114382569874e-07 0.0000000000000000e+00  9.4660978124677070e-05 -6.6959208388589798e-07 0.0000000000000000e+00  1.2461219916954597e-04 -9.0779779016182453e-07 0.0000000000000000e+00  1.5900737162211393e-04 -1.2037597415159671e-06 0.0000000000000000e+00  1.9897502996349205e-04 -1.5817914823266746e-06 0.0000000000000000e+00  2.4575084444263153e-04 -2.0763923902921555e-06 0.0000000000000000e+00  3.0066436839102045e-04 -2.7372139990301653e-06 0.0000000000000000e+00  3.6509734477898872e-04 -3.6359803413737217e-06 0.0000000000000000e+00  4.4039826292354464e-04 -4.8754221404960820e-06 0.0000000000000000e+00  5.2773467765940176e-04 -6.5990698032972805e-06 0.0000000000000000e+00  6.2786627811051360e-04 -8.9977362236719149e-06 0.0000000000000000e+00  7.4083397729663770e-04 -1.2302377969731446e-05 0.0000000000000000e+00  8.6558943447362824e-04 -1.6742929724790902e-05 0.0000000000000000e+00  9.9962979789282574e-04 -2.2440704850296549e-05 0.0000000000000000e+00  0.0000000000000000e+00 0.0000000000000000e+00 0.0000000000000000e+00  2.2355515466993236e-05 -1.3445986103231764e-07 0.0000000000000000e+00  4.5565769368633975e-05 -2.7492325948004194e-07 0.0000000000000000e+00  7.0516393025972567e-05 -4.2788305652694175e-07 0.0000000000000000e+00  9.8154526177328375e-05 -6.0095046193013992e-07 0.0000000000000000e+00  1.2952011394816595e-04 -8.0371840500789031e-07 0.0000000000000000e+00  1.6577692938975750e-04 -1.0490936837294969e-06 0.0000000000000000e+00  2.0824150319495759e-04 -1.3554497974162024e-06 0.0000000000000000e+00  2.5840605356875000e-04 -1.7501770316664652e-06 0.0000000000000000e+00  3.1794812070050848e-04 -2.2755506616230071e-06 0.0000000000000000e+00  3.8871450168780319e-04 -2.9982998896043361e-06 0.0000000000000000e+00  4.7266021225927311e-04 -4.0246963014495905e-06 0.0000000000000000e+00  5.7171581481396878e-04 -5.5228247477579378e-06 0.0000000000000000e+00  6.8755273072551766e-04 -7.7513539392929446e-06 0.0000000000000000e+00  8.2122495696524409e-04 -1.1086034196309838e-05 0.0000000000000000e+00  9.7269813670902813e-04 -1.6015633791013051e-05 0.0000000000000000e+00  1.1403285020755336e-03 -2.3044829472015062e-05 0.0000000000000000e+00  0.0000000000000000e+00 0.0000000000000000e+00 0.0000000000000000e+00  2.2217749646627449e-05 -1.1663312934190039e-07 0.0000000000000000e+00  4.5320016681290145e-05 -2.3681007485181926e-07 0.0000000000000000e+00  7.0227732975183821e-05 -3.6419546035011968e-07 0.0000000000000000e+00  9.7937447759920729e-05 -5.0280037968590195e-07 0.0000000000000000e+00  1.2956239770127949e-04 -6.5734554295519881e-07 0.0000000000000000e+00  1.6637700455652689e-04 -8.3396688956296365e-07 0.0000000000000000e+00  2.0986473792674730e-04 -1.0416149529289568e-06 0.0000000000000000e+00  2.6176744908451826e-04 -1.2948280012303933e-06 0.0000000000000000e+00  3.2413075664686810e-04 -1.6191730319829697e-06 0.0000000000000000e+00  3.9933372254064660e-04 -2.0617485667498078e-06 0.0000000000000000e+00  4.9008057700807169e-04 -2.7109681126293903e-06 0.0000000000000000e+00  5.9931707013881439e-04 -3.7324015553115047e-06 0.0000000000000000e+00  7.3001723101309040e-04 -5.4294877518160133e-06 0.0000000000000000e+00  8.8478105514428612e-04 -8.3339925141651840e-06 0.0000000000000000e+00  1.0652215542838214e-03 -1.3305975868390559e-05 0.0000000000000000e+00  1.2712419371345425e-03 -2.1551688816979689e-05 0.0000000000000000e+00  0.0000000000000000e+00 0.0000000000000000e+00 0.0000000000000000e+00  2.1199350753328625e-05 -9.5303089276186721e-08 0.0000000000000000e+00  4.3276359337928686e-05 -1.9155300864298813e-07 0.0000000000000000e+00  6.7149363102627125e-05 -2.8939051124880743e-07 0.0000000000000000e+00  9.3824002164475306e-05 -3.8887370954420715e-07 0.0000000000000000e+00  1.2444335015398742e-04 -4.8916427100078139e-07 0.0000000000000000e+00  1.6034611243277320e-04 -5.8826350436204804e-07 0.0000000000000000e+00  2.0313555305892999e-04 -6.8299556312446563e-07 0.0000000000000000e+00  2.5476101684916480e-04 -7.6974640919731719e-07 0.0000000000000000e+00  3.1761144044506197e-04 -8.4716291262787784e-07 0.0000000000000000e+00  3.9461417115162006e-04 -9.2354187067571331e-07 0.0000000000000000e+00  4.8931937274085684e-04 -1.0348998636691732e-06 0.0000000000000000e+00  6.0592546636230305e-04 -1.2863623204811098e-06 0.0000000000000000e+00  7.4916075280180268e-04 -1.9416819554165160e-06 0.0000000000000000e+00  9.2388957981593843e-04 -3.6021506789003901e-06 0.0000000000000000e+00  1.1343129554219904e-03 -7.5140437123785481e-06 0.0000000000000000e+00  1.3828356837729764e-03 -1.5929205963898862e-05 0.0000000000000000e+00  0.0000000000000000e+00 0.0000000000000000e+00 0.0000000000000000e+00  1.9308354976930986e-05 -7.3062635217132935e-08 0.0000000000000000e+00  3.9445600986085149e-05 -1.4476114411789696e-07 0.0000000000000000e+00  6.1283272619981280e-05 -2.1301923366285199e-07 0.0000000000000000e+00  8.5786802932796092e-05 -2.7426341665393307e-07 0.0000000000000000e+00  1.1407208410749267e-04 -3.2237487326038708e-07 0.0000000000000000e+00  1.4747490757292283e-04 -3.4726671094809725e-07 0.0000000000000000e+00  1.8763938879613263e-04 -3.3296073433530959e-07 0.0000000000000000e+00  2.3663274627307840e-04 -2.5513148694815500e-07 0.0000000000000000e+00  2.9709438411207317e-04 -7.8439616596280043e-08 0.0000000000000000e+00  3.7242499786552008e-04 2.4492230447060642e-07 0.0000000000000000e+00  4.6701130000004470e-04 7.7086281376715647e-07 0.0000000000000000e+00  5.8645310005251078e-04 1.5396783038783656e-06 0.0000000000000000e+00  7.3769234061889526e-04 2.4953015397800401e-06 0.0000000000000000e+00  9.2881536710918283e-04 3.2489230553704950e-06 0.0000000000000000e+00  1.1681349711067767e-03 2.4669239352911728e-06 0.0000000000000000e+00  1.4622198847633304e-03 -3.3652811367652015e-06 0.0000000000000000e+00  0.0000000000000000e+00 0.0000000000000000e+00 0.0000000000000000e+00  1.6594475304027105e-05 -5.2215632476705938e-08 0.0000000000000000e+00  3.3924418581789004e-05 -1.0144835667906724e-07 0.0000000000000000e+00  5.2766616358855396e-05 -1.4371553360977453e-07 0.0000000000000000e+00  7.3990655721387698e-05 -1.7286376385793582e-07 0.0000000000000000e+00  9.8617142152146561e-05 -1.7892390985257941e-07 0.0000000000000000e+00  1.2789252969394355e-04 -1.4566079026932615e-07 0.0000000000000000e+00  1.6339005589686230e-04 -4.6790242504777342e-08 0.0000000000000000e+00  2.0715041422995198e-04 1.5995405412512110e-07 0.0000000000000000e+00  2.6188161819530207e-04 5.4216419802952494e-07 0.0000000000000000e+00  3.3124440422592982e-04 1.2073394468925169e-06 0.0000000000000000e+00  4.2025380768620887e-04 2.3247725537862520e-06 0.0000000000000000e+00  5.3581639844425203e-04 4.1542019759634568e-06 0.0000000000000000e+00  6.8735933235242695e-04 7.0633454976043097e-06 0.0000000000000000e+00  8.8730247134193333e-04 1.1431147969796212e-05 0.0000000000000000e+00  1.1506301591844006e-03 1.6951363642355649e-05 0.0000000000000000e+00  1.4925624367967837e-03 1.9360696198290553e-05 0.0000000000000000e+00  0.0000000000000000e+00 0.0000000000000000e+00 0.0000000000000000e+00  1.3151660807820182e-05 -3.4372874393785583e-08 0.0000000000000000e+00  2.6901639124605821e-05 -6.5126632226226234e-08 0.0000000000000000e+00  4.1884299201138197e-05 -8.7561050850623383e-08 0.0000000000000000e+00  5.8816175490023237e-05 -9.4586389866954480e-08 0.0000000000000000e+00  7.8549254397974227e-05 -7.4831147630547255e-08 0.0000000000000000e+00  1.0214201830861348e-04 -9.6917350543898053e-09 0.0000000000000000e+00  1.3095974723733816e-04 1.3148879864518918e-07 0.0000000000000000e+00  1.6682238316966826e-04 3.9955363030442744e-07 0.0000000000000000e+00  2.1222996434295806e-04 8.7965889767119177e-07 0.0000000000000000e+00  2.7071538927118987e-04 1.7166686893391489e-06 0.0000000000000000e+00  3.4740611228772049e-04 3.1628932924790311e-06 0.0000000000000000e+00  4.4992130146152506e-04 5.6731117581878503e-06 0.0000000000000000e+00  5.8976737899181693e-04 1.0105735319965847e-05 0.0000000000000000e+00  7.8429227054951087e-04 1.8162239095421443e-05 0.0000000000000000e+00  1.0583279165777488e-03 3.3229625887180662e-05 0.0000000000000000e+00  1.4376632839553909e-03 5.9980075053747341e-05 0.0000000000000000e+00  0.0000000000000000e+00 0.0000000000000000e+00 0.0000000000000000e+00  9.1170401573386150e-06 -2.0163821862421657e-08 0.0000000000000000e+00  1.8656897130507841e-05 -3.7140362887387142e-08 0.0000000000000000e+00  2.9069170901201017e-05 -4.6829065543706987e-08 0.0000000000000000e+00  4.0865152349995740e-05 -4.3089660215370867e-08 0.0000000000000000e+00  5.4658815878399458e-05 -1.6085679111764005e-08 0.0000000000000000e+00  7.1222971151959513e-05 5.0359485053543474e-08 0.0000000000000000e+00  9.1571253279726586e-05 1.8319337037034407e-07 0.0000000000000000e+00  1.1708416549627323e-04 4.2780535500340047e-07 0.0000000000000000e+00  1.4971179977409026e-04 8.6169389965592023e-07 0.0000000000000000e+00  1.9231419877580456e-04 1.6196299707165111e-06 0.0000000000000000e+00  2.4925782011612916e-04 2.9422208006515467e-06 0.0000000000000000e+00  3.2750703133071531e-04 5.2774693317712511e-06 0.0000000000000000e+00  4.3871254267601107e-04 9.5255545335130818e-06 0.0000000000000000e+00  6.0342943749373216e-04 1.7771524247163878e-05 0.0000000000000000e+00  8.6058086058167201e-04 3.6111088965997120e-05 0.0000000000000000e+00  1.2962828567792890e-03 8.8813785682098596e-05 0.0000000000000000e+00  0.0000000000000000e+00 0.0000000000000000e+00 0.0000000000000000e+00  4.6655209611399880e-06 -9.1522870809326898e-09 0.0000000000000000e+00  9.5498974013808667e-06 -1.6453201918755124e-08 0.0000000000000000e+00  1.4886256891722964e-05 -1.9529529216129075e-08 0.0000000000000000e+00  2.0940804447896923e-05 -1.4836360964090995e-08 0.0000000000000000e+00  2.8035124809241133e-05 3.3058343530081996e-09 0.0000000000000000e+00  3.6577227404531978e-05 4.4262076166758613e-08 0.0000000000000000e+00  4.7107801484068717e-05 1.2369652532040575e-07 0.0000000000000000e+00  6.0373153529559874e-05 2.6808215881983683e-07 0.0000000000000000e+00  7.7446415271361369e-05 5.2253445666918210e-07 0.0000000000000000e+00  9.9939945919148843e-05 9.6413842568489936e-07 0.0000000000000000e+00  1.3039884047151670e-04 1.7225891596210202e-06 0.0000000000000000e+00  1.7307173562409038e-04 3.0013099618035357e-06 0.0000000000000000e+00  2.3548687917062706e-04 5.0392969546956681e-06 0.0000000000000000e+00  3.3162692679821241e-04 7.6903502192165398e-06 0.0000000000000000e+00  4.8673755219368189e-04 8.1675766178477806e-06 0.0000000000000000e+00  7.3092030661350252e-04 -7.2665722951647149e-06 0.0000000000000000e+00  0.0000000000000000e+00 0.0000000000000000e+00 0.0000000000000000e+00  0.0000000000000000e+00 0.0000000000000000e+00 0.0000000000000000e+00  0.0000000000000000e+00 0.0000000000000000e+00 0.0000000000000000e+00  0.0000000000000000e+00 0.0000000000000000e+00 0.0000000000000000e+00  0.0000000000000000e+00 0.0000000000000000e+00 0.0000000000000000e+00  0.0000000000000000e+00 0.0000000000000000e+00 0.0000000000000000e+00  0.0000000000000000e+00 0.0000000000000000e+00 0.0000000000000000e+00  0.0000000000000000e+00 0.0000000000000000e+00 0.0000000000000000e+00  0.0000000000000000e+00 0.0000000000000000e+00 0.0000000000000000e+00  0.0000000000000000e+00 0.0000