<?xml version="1.0"?>
<VTKFile type="UnstructuredGrid"  version="0.1"  >
<UnstructuredGrid>
<Piece  NumberOfPoints="289" NumberOfCells="512">
<Points>
<DataArray  type="Float64"  NumberOfComponents="3"  format="ascii">0 0 0  0.0625 0 0  0.125 0 0  0.1875 0 0  0.25 0 0  0.3125 0 0  0.375 0 0  0.4375 0 0  0.5 0 0  0.5625 0 0  0.625 0 0  0.6875 0 0  0.75 0 0  0.8125 0 0  0.875 0 0  0.9375 0 0  1 0 0  0 0.0625 0  0.06246883133172131 0.06248888273070501 0  0.1249369343132153 0.06247759468088636 0  0.18740359633014 0.06246598648135229 0  0.2498681715285359 0.06245395822609677 0  0.312330131409662 0.06244149082034431 0  0.3747891384345868 0.06242868428778028 0  0.4372451532522373 0.06241580288420818 0  0.4996985895488404 0.06240332324963031 0  0.5621505369763703 0.06239197523768834 0  0.6246030864371078 0.06238275412597187 0  0.6870598229928766 0.06237686761197453 0  0.7495266140681299 0.06237557081814789 0  0.8120128725376574 0.06237989904373419 0  0.8745328925892231 0.06239077969457459 0  0.9371007502227763 0.06241302394130738 0  0.9996662538631683 0.0624892261950476 0  0 0.125 0  0.06243836230475593 0.1249779347156663 0  0.1248752438994265 0.1249555040874496 0  0.1873091941479834 0.12493238291439 0  0.2497388905033763 0.1249083396147678 0  0.312163239134559 0.1248832972772142 0  0.3745815250079164 0.1248574105170966 0  0.4369936352695116 0.124831159692488 0  0.4994003877369385 0.1248054580675704 0  0.5618040099072422 0.1247817559561177 0  0.6242088385719671 0.1247621051564142 0  0.6866223547742489 0.1247491122334308 0  0.7490567363049833 0.1247456535729374 0  0.8115311416901206 0.1247541298678237 0  0.8740746451797179 0.1247747754189146 0  0.9367287788219576 0.1248010493639545 0  0.9995551421580749 0.1247986156476619 0  0 0.1875 0  0.06240937459850218 0.1874673525884621 0  0.1248164639814876 0.1874341009425392 0  0.1872190196578793 0.1873996940872839 0  0.2496149604255676 0.1873637074367917 0  0.3120025116683903 0.1873259292883061 0  0.3743804203977175 0.1872864749234981 0  0.43674828285907 0.1872459349002244 0  0.4991070319287571 0.1872055584228828 0  0.5614596448186325 0.1871674602172722 0  0.6238121461280849 0.1871348149403224 0  0.686174987698599 0.1871119588303261 0  0.7485648479743967 0.1871042404895622 0  0.811006694625789 0.1871173201485466 0  0.873535347164045 0.1871553128929225 0  0.9361946801611863 0.1872164509297417 0  0.9990329872026019 0.1872841965435176 0  0 0.25 0  0.06238270346084674 0.249957377137646 0  0.1247622479804281 0.2499138522023433 0  0.1871355039171469 0.2498685805616004 0  0.2494995094647964 0.2498208580682987 0  0.3118516264326565 0.2497702244438611 0  0.3741897948529201 0.2497166085123691 0  0.4365129353957536 0.2496605306655376 0  0.4988215606494277 0.2496033760076361 0  0.5611186663394094 0.249547743838109 0  0.6234109712789953 0.2494978595849116 0  0.6857105354856978 0.2494599946480688 0  0.7480366544876706 0.249442764406006 0  0.810417601755085 0.2494570492462434 0  0.8728911537809936 0.2495151086175778 0  0.9355020128506015 0.2496283716888774 0  0.9982941547095388 0.249804241259181 0  0 0.3125 0  0.06235924581365234 0.3124483076989114 0  0.1247143914534582 0.3123953513418035 0  0.1870613389626976 0.3123399161348835 0  0.2493961059225847 0.312280915199873 0  0.3117149657383465 0.3122174953213774 0  0.3740147038991187 0.3121491986801653 0  0.436293051597515 0.3120762075348293 0  0.4985493751352574 0.3119997043368327 0  0.5607857127723473 0.311922382832637 0  0.6230082449804408 0.31184914029326 0  0.6852292285627777 0.3117879554275966 0  0.7474692681893225 0.3117508910594491 0  0.8097594851803621 0.3117550298267253 0  0.8721427124112898 0.3118229473571533 0  0.934672720594211 0.3119821464602385 0  0.9974119577178089 0.3122630768243318 0  0 0.375 0  0.06233995011782742 0.3749405070658725 0  0.124674818243079 0.3748793317941594 0  0.1869994740721645 0.3748148177780093 0  0.2493087880832486 0.3747453901933212 0  0.3115977161381741 0.3746696426775742 0  0.3738615073405441 0.3745864896817966 0  0.4360961093509598 0.3744954230125329 0  0.4982988741879938 0.374396927349658 0  0.5604696982733649 0.3742931297809673 0  0.6226127481279732 0.3741887785138799 0  0.6847388950185841 0.3740926525785117 0  0.7468688531968753 0.3740194657501357 0  0.8090367296911307 0.3739921824532262 0  0.871293276444505 0.3740443215373691 0  0.9337078888938177 0.3742212229034408 0  0.9963689827229826 0.3745784769872238 0  0 0.4375 0  0.06232578397930032 0.4374343933459618 0  0.1246455195897446 0.4373666536297746 0  0.1869530354043584 0.4372946341847966 0  0.2492419812994845 0.4372161862239406 0  0.3115058115805371 0.4371292001013354 0  0.3737378823482458 0.4370317110529107 0  0.4359317473900975 0.4369221157656792 0  0.4980817850487746 0.4367995738686075 0  0.5601843549257925 0.4366647107502674 0  0.6222397606863562 0.4365207971041484 0  0.6842553541653698 0.4363756490265113 0  0.746250084157721 0.4362445347561844 0  0.8082605406659823 0.4361542889724402 0  0.8703479225960105 0.4361484107850354 0  0.9326043799539077 0.4362918685843701 0  0.9951563658797097 0.4366726427582901 0  0 0.5 0  0.06231767749089116 0.4999304158843701 0  0.1246284407986689 0.4998582565503338 0  0.1869251574565851 0.499780879373939 0  0.249200280750756 0.4996955214905718 0  0.3114456850734315 0.4995992670924836 0  0.3736525815915717 0.4994890621551062 0  0.4358115980764821 0.499361820926556 0  0.4979131776548049 0.4992147048799997 0  0.5599485688119038 0.4990457183255337 0  0.6219118583021408 0.4988548711838786 0  0.6838037342003856 0.4986463244230528 0  0.7456378805387598 0.4984321508981227 0  0.8074508469150425 0.498238513697235 0  0.8693153700855275 0.4981148272463312 0  0.9313547871765693 0.4981450017709445 0  0.993752821532507 0.498456194903665 0  0 0.5625 0  0.06231644318471549 0.5624290142267636 0  0.1246253156807015 0.5623550758293695 0  0.1869187225411498 0.5622751025788381 0  0.249188086253647 0.5621857515577191 0  0.311423796764375 0.5620832894007611 0  0.3736148752050475 0.561963474074492 0  0.435748712446471 0.5618214757259932 0  0.4978110294389607 0.5616518996822557 0  0.55978637489602 0.5614490463492972 0  0.6216597876215832 0.5612076846096387 0  0.6834207764571117 0.5609248873935273 0  0.7450715185213548 0.5606039669656321 0  0.8066418523332428 0.560262301089943 0  0.8682131104050724 0.5599455512470776 0  0.9299485223081163 0.5597498645559207 0  0.992117169861698 0.5598474730489101 0  0 0.625 0  0.06232267745877289 0.6249305622077358 0  0.1246374572180524 0.624857924377644 0  0.1869360169693621 0.6247786961483451 0  0.2492090907751836 0.624689085634587 0  0.3114459188624211 0.6245846636105911 0  0.3736336108934455 0.6244600875497713 0  0.4357564274283623 0.6243087799057746 0  0.4977950587025144 0.6241225741842201 0  0.5597261634760581 0.6238913931248313 0  0.6215228489795913 0.6236031508321342 0  0.6831576521699084 0.623244381071014 0  0.7446112405763762 0.6228028252577927 0  0.8058926147694593 0.6222748312029849 0  0.86707877174841 0.6216834452695186 0  0.9283776948949741 0.6211160503698295 0  0.9901956595146137 0.6207821381938534 0  0 0.6875 0  0.06233665344106695 0.6874353033069426 0  0.124665524149318 0.6873673531214101 0  0.186978331752845 0.6872926590077426 0  0.2492656526737875 0.6872072170619264 0  0.3115161936632891 0.687106181363619 0  0.3737158584570469 0.6869834387067028 0  0.4358465203172592 0.6868310374070037 0  0.4978844308187125 0.6866384079441445 0  0.5597983055543647 0.686391305733509 0  0.6215475036630362 0.6860704328832565 0  0.6830817791786928 0.6856498533429545 0  0.7443467421112322 0.6850959222671911 0  0.8053050467429319 0.6843695070979485 0  0.8659936476831331 0.6834406622772745 0  0.9266446584915314 0.6823411984768853 0  0.9878672448477304 0.6812886739395878 0  0 0.75 0  0.06235822088157249 0.7499432875186265 0  0.1247092965134448 0.7498835115058421 0  0.1870455610700002 0.7498173515833998 0  0.2493581260082507 0.7497409211545312 0  0.3116360520781408 0.7496493854205318 0  0.3738652063232212 0.7495364385643055 0  0.4360266087547421 0.7493935516153754 0  0.4980939870054983 0.7492088530859706 0  0.560030170839288 0.748965419983221 0  0.62178199685477 0.7486386134491912 0  0.683274009323724 0.7481918654366319 0  0.7444038693801395 0.7475700681623668 0  0.8050511375617816 0.7466900880398126 0  0.8651361756265338 0.7454328851273863 0  0.9248204035708691 0.7436732605944955 0  0.9848692024070214 0.7415581629362119 0  0 0.8125 0  0.06238673334061549 0.8124543227574998 0  0.1247675054334926 0.8124060370322712 0  0.1871358784309689 0.8123522932775977 0  0.2494842777068776 0.8122897045413646 0  0.3118031853465743 0.812213971632864 0  0.3740799680256045 0.8121193532798663 0  0.4362970648952135 0.811997876084833 0  0.4984290611229664 0.8118381106774089 0  0.5604378155121351 0.8116232116467221 0  0.6222642158681696 0.8113276592719965 0  0.6838143374161559 0.810911568358585 0  0.7449375812732221 0.8103100523995276 0  0.8053991696779189 0.809411676521907 0  0.8648790567894501 0.8080117505074871 0  0.9231762349849127 0.805711412401879 0  0.9816432376912628 0.8017653250254981 0  0 0.875 0  0.06242102430807818 0.8749679537964336 0  0.1248377677448537 0.8749340036390006 0  0.1872455868889312 0.8748960580250973 0  0.2496389646074995 0.8748516044434183 0  0.3120108711757341 0.8747974099628189 0  0.3743518038097191 0.8747290909871244 0  0.4366482338366187 0.8746404625487845 0  0.4988799430900512 0.8745225216073733 0  0.5610152034893039 0.8743618216294461 0  0.6230016005305375 0.8741378193842405 0  0.6847477524189164 0.8738184071510195 0  0.7460856594169137 0.8733518399694016 0  0.8066924631682159 0.8726496590672354 0  0.865933540161071 0.8715404880394106 0  0.9225857120114884 0.8696147139771674 0  0.9745325471277687 0.865646759415141 0  0 0.9375 0  0.06245944937971583 0.9374834779954876 0  0.1249166675213156 0.9374659509027696 0  0.1873692297593226 0.937446310989718 0  0.2498142425439294 0.9374232192589033 0  0.3122479962243 0.937394939406074 0  0.3746654348891782 0.9373590977564717 0  0.4370592794968448 0.9373123199367391
[...]
<PointData  Vectors="f_54"> 
<DataArray  type="Float64"  Name="f_54"  NumberOfComponents="3" format="ascii">0.0000000000000000e+00 0.0000000000000000e+00 0.0000000000000000e+00  0.0000000000000000e+00 0.0000000000000000e+00 0.0000000000000000e+00  0.0000000000000000e+00 0.0000000000000000e+00 0.0000000000000000e+00  0.0000000000000000e+00 0.0000000000000000e+00 0.0000000000000000e+00  0.0000000000000000e+00 0.0000000000000000e+00 0.0000000000000000e+00  0.0000000000000000e+00 0.0000000000000000e+00 0.0000000000000000e+00  0.0000000000000000e+00 0.0000000000000000e+00 0.0000000000000000e+00  0.0000000000000000e+00 0.0000000000000000e+00 0.0000000000000000e+00  0.0000000000000000e+00 0.0000000000000000e+00 0.0000000000000000e+00  0.0000000000000000e+00 0.0000000000000000e+00 0.0000000000000000e+00  0.0000000000000000e+00 0.0000000000000000e+00 0.0000000000000000e+00  0.0000000000000000e+00 0.0000000000000000e+00 0.0000000000000000e+00  0.0000000000000000e+00 0.0000000000000000e+00 0.0000000000000000e+00  0.0000000000000000e+00 0.0000000000000000e+00 0.0000000000000000e+00  0.0000000000000000e+00 0.0000000000000000e+00 0.0000000000000000e+00  0.0000000000000000e+00 0.0000000000000000e+00 0.0000000000000000e+00  0.0000000000000000e+00 0.0000000000000000e+00 0.0000000000000000e+00  0.0000000000000000e+00 0.0000000000000000e+00 0.0000000000000000e+00  3.4180244687408582e-06 7.1547710969579841e-08 0.0000000000000000e+00  6.9265024091088770e-06 1.4382504660396291e-07 0.0000000000000000e+00  1.0615565893209118e-05 2.1735362913566874e-07 0.0000000000000000e+00  1.4572041236282926e-05 2.9215724213589430e-07 0.0000000000000000e+00  1.8876647785322365e-05 3.6742563480759090e-07 0.0000000000000000e+00  2.3599746899582657e-05 4.4106720310865557e-07 0.0000000000000000e+00  2.8795173174669762e-05 5.0910321170137433e-07 0.0000000000000000e+00  3.4491771102198131e-05 5.6484036088229075e-07 0.0000000000000000e+00  4.0682496267933670e-05 5.9771460495752177e-07 0.0000000000000000e+00  4.7311480380784008e-05 5.9156426624599759e-07 0.0000000000000000e+00  5.4260758588497057e-05 5.2165909864396864e-07 0.0000000000000000e+00  6.1342024201225154e-05 3.4837851795994262e-07 0.0000000000000000e+00  6.8311117190305830e-05 3.8962710016392423e-10 0.0000000000000000e+00  7.4969992206456177e-05 -6.7886797697565602e-07 0.0000000000000000e+00  8.1614052142854997e-05 -2.1246442105716787e-06 0.0000000000000000e+00  9.0907011961457760e-05 -5.8125462243233987e-06 0.0000000000000000e+00  0.0000000000000000e+00 0.0000000000000000e+00 0.0000000000000000e+00  6.7409331451043091e-06 1.4226876117396195e-07 0.0000000000000000e+00  1.3663888115639801e-05 2.8622498166286924e-07 0.0000000000000000e+00  2.0950594250471047e-05 4.3317405535611864e-07 0.0000000000000000e+00  2.8777118221471386e-05 5.8349896458771101e-07 0.0000000000000000e+00  3.7308767081223942e-05 7.3603054668935160e-07 0.0000000000000000e+00  4.6692100776376142e-05 8.8720402740187547e-07 0.0000000000000000e+00  5.7043064025046071e-05 1.0299162663995162e-06 0.0000000000000000e+00  6.8430354774764410e-05 1.1519851018505358e-06 0.0000000000000000e+00  8.0853451460771443e-05 1.2340854972736473e-06 0.0000000000000000e+00  9.4215326712744632e-05 1.2469680555263422e-06 0.0000000000000000e+00  1.0829083310086262e-04 1.1475932851001853e-06 0.0000000000000000e+00  1.2269277984437198e-04 8.7350349913395971e-07 0.0000000000000000e+00  1.3683674825168602e-04 3.3486757548874412e-07 0.0000000000000000e+00  1.4989071976767950e-04 -5.9100177829603900e-07 0.0000000000000000e+00  1.6060009785550674e-04 -2.0174430496423129e-06 0.0000000000000000e+00  1.6633658102678588e-04 -3.6700381419931434e-06 0.0000000000000000e+00  0.0000000000000000e+00 0.0000000000000000e+00 0.0000000000000000e+00  9.8761069847344565e-06 2.1118256898793790e-07 0.0000000000000000e+00  2.0027912643834213e-05 4.2543468880681511e-07 0.0000000000000000e+00  3.0731549118011303e-05 6.4533389518973762e-07 0.0000000000000000e+00  4.2257008819731877e-05 8.7224945416993887e-07 0.0000000000000000e+00  5.4861758227087618e-05 1.1054977844773514e-06 0.0000000000000000e+00  6.8780049601305555e-05 1.3411916041803596e-06 0.0000000000000000e+00  8.4206330751225805e-05 1.5706633476427301e-06 0.0000000000000000e+00  1.0127118301384091e-04 1.7783415907837722e-06 0.0000000000000000e+00  1.2000847702221499e-04 1.9389758884325892e-06 0.0000000000000000e+00  1.4031301703745455e-04 2.0141564075681792e-06 0.0000000000000000e+00  1.6188875350009650e-04 1.9481861124019060e-06 0.0000000000000000e+00  1.8418795752940645e-04 1.6635959629752024e-06 0.0000000000000000e+00  2.0633912607409294e-04 1.0570851246388348e-06 0.0000000000000000e+00  2.2704951443163341e-04 -2.7575254740675428e-09 0.0000000000000000e+00  2.4443722148392112e-04 -1.6796521625383622e-06 0.0000000000000000e+00  2.5572893450924092e-04 -4.2437668287663051e-06 0.0000000000000000e+00  0.0000000000000000e+00 0.0000000000000000e+00 0.0000000000000000e+00  1.2729024392184458e-05 2.7688692999108659e-07 0.0000000000000000e+00  2.5829586713542289e-05 5.5877810954720928e-07 0.0000000000000000e+00  3.9675399953676727e-05 8.5016577176171731e-07 0.0000000000000000e+00  5.4636314149401883e-05 1.1542447954042766e-06 0.0000000000000000e+00  7.1072165868789434e-05 1.4719649303132867e-06 0.0000000000000000e+00  8.9321027440082237e-05 1.8006944215335697e-06 0.0000000000000000e+00  1.0967955264101203e-04 2.1323343088057573e-06 0.0000000000000000e+00  1.3237294992756362e-04 2.4507200339162481e-06 0.0000000000000000e+00  1.5751221846340921e-04 2.7281883889107377e-06 0.0000000000000000e+00  1.8503687751088554e-04 2.9213270582227027e-06 0.0000000000000000e+00  2.1464267176672086e-04 2.9662493358021800e-06 0.0000000000000000e+00  2.4569553357532871e-04 2.7743733003905074e-06 0.0000000000000000e+00  2.7713479090768592e-04 2.2307637818751393e-06 0.0000000000000000e+00  3.0736960802949122e-04 1.1986468413442990e-06 0.0000000000000000e+00  3.3417689278248465e-04 -4.6416328033767983e-07 0.0000000000000000e+00  3.5464046584086413e-04 -2.8619966034593247e-06 0.0000000000000000e+00  0.0000000000000000e+00 0.0000000000000000e+00 0.0000000000000000e+00  1.5203301456744993e-05 3.3743074840711658e-07 0.0000000000000000e+00  3.0874832583427782e-05 6.8238566014239502e-07 0.0000000000000000e+00  4.7488018618801626e-05 1.0419663317192564e-06 0.0000000000000000e+00  6.5518201248746555e-05 1.4221324018649659e-06 0.0000000000000000e+00  8.5438766877077714e-05 1.8267948205247544e-06 0.0000000000000000e+00  1.0771066033003697e-04 2.2564560150805233e-06 0.0000000000000000e+00  1.3276220789846594e-04 2.7061806287106196e-06 0.0000000000000000e+00  1.6095563294490968e-04 3.1626467061771796e-06 0.0000000000000000e+00  1.9253635979984399e-04 3.6000374603698711e-06 0.0000000000000000e+00  2.2756158901082176e-04 3.9746685629071980e-06 0.0000000000000000e+00  2.6580630124227038e-04 4.2186542545472928e-06 0.0000000000000000e+00  3.0664856083230792e-04 4.2338275620344817e-06 0.0000000000000000e+00  3.4894256048789441e-04 3.8888032676007294e-06 0.0000000000000000e+00  3.9089849984313643e-04 3.0245929817922202e-06 0.0000000000000000e+00  4.3000681829094203e-04 1.4771646992065271e-06 0.0000000000000000e+00  4.6308161218293879e-04 -8.7202303431807971e-07 0.0000000000000000e+00  0.0000000000000000e+00 0.0000000000000000e+00 0.0000000000000000e+00  1.7202078153598267e-05 3.9028300251402375e-07 0.0000000000000000e+00  3.4966905138703908e-05 7.9111003716462045e-07 0.0000000000000000e+00  5.3866885807851714e-05 1.2128111904566304e-06 0.0000000000000000e+00  7.4486125531277530e-05 1.6650047439004874e-06 0.0000000000000000e+00  9.7421346981770750e-05 2.1559073054044113e-06 0.0000000000000000e+00  1.2327574328568097e-04 2.6911666217825717e-06 0.0000000000000000e+00  1.5264193855103896e-04 3.2719391501712272e-06 0.0000000000000000e+00  1.8606906682775342e-04 3.8918315151719924e-06 0.0000000000000000e+00  2.2400787810659809e-04 4.5322229047439021e-06 0.0000000000000000e+00  2.6672731574166022e-04 5.1554651146659317e-06 0.0000000000000000e+00  3.1419726220920324e-04 5.6957155438050749e-06 0.0000000000000000e+00  3.6593680978433998e-04 6.0480881705065662e-06 0.0000000000000000e+00  4.2083756191051646e-04 6.0590046828595239e-06 0.0000000000000000e+00  4.7698857370536823e-04 5.5245483549149608e-06 0.0000000000000000e+00  5.3155233316547494e-04 4.2083116340945201e-06 0.0000000000000000e+00  5.8076315479702555e-04 1.8904835654758383e-06 0.0000000000000000e+00  0.0000000000000000e+00 0.0000000000000000e+00 0.0000000000000000e+00  1.8631090302583917e-05 4.3242000432530922e-07 0.0000000000000000e+00  3.7912319532617541e-05 8.7868840833742144e-07 0.0000000000000000e+00  5.8509372031726808e-05 1.3527618063587281e-06 0.0000000000000000e+00  8.1113493773105093e-05 1.8685890014233676e-06 0.0000000000000000e+00  1.0645002119481848e-04 2.4398355058497539e-06 0.0000000000000000e+00  1.3528036319037593e-04 3.0791843422946199e-06 0.0000000000000000e+00  1.6839308108778284e-04 3.7968982135104074e-06 0.0000000000000000e+00  2.0657768553372223e-04 4.5981310004688741e-06 0.0000000000000000e+00  2.5057229490837182e-04 5.4781824975825332e-06 0.0000000000000000e+00  3.0097392938881429e-04 6.4145202456145332e-06 0.0000000000000000e+00  3.5809935667980029e-04 7.3541126913841498e-06 0.0000000000000000e+00  4.2178785620474737e-04 8.1949670217805764e-06 0.0000000000000000e+00  4.9114930235999573e-04 8.7629960080066277e-06 0.0000000000000000e+00  5.6428530697593803e-04 8.7914986411440118e-06 0.0000000000000000e+00  6.3804390557535193e-04 7.9219431042296848e-06 0.0000000000000000e+00  7.0788702360801033e-04 5.7572436239402066e-06 0.0000000000000000e+00  0.0000000000000000e+00 0.0000000000000000e+00 0.0000000000000000e+00  1.9403627656355177e-05 4.6054278882204010e-07 0.0000000000000000e+00  3.9530775842123689e-05 9.3818104107479991e-07 0.0000000000000000e+00  6.1127556393429972e-05 1.4505262896260574e-06 0.0000000000000000e+00  8.4982987483941263e-05 2.0161092198629171e-06 0.0000000000000000e+00  1.1194795090879354e-04 2.6547090126225669e-06 0.0000000000000000e+00  1.4294956168523943e-04 3.3874310218599715e-06 0.0000000000000000e+00  1.7899665876411539e-04 4.2362566965516590e-06 0.0000000000000000e+00  2.2116913088092658e-04 5.2225189760830082e-06 0.0000000000000000e+00  2.7057944823451083e-04 6.3632518675778617e-06 0.0000000000000000e+00  3.2828919529284380e-04 7.6634849814600287e-06 0.0000000000000000e+00  3.9515782128871101e-04 9.1012167232974043e-06 0.0000000000000000e+00  4.7159897540330537e-04 1.0600336071205467e-05 0.0000000000000000e+00  5.5722968348404433e-04 1.1986916026860878e-05 0.0000000000000000e+00  6.5043101781520399e-04 1.2930989453295845e-05 0.0000000000000000e+00  7.4789891807187979e-04 1.2897411875094434e-05 0.0000000000000000e+00  8.4430288723670870e-04 1.1165831334562648e-05 0.0000000000000000e+00  0.0000000000000000e+00 0.0000000000000000e+00 0.0000000000000000e+00  1.9447352271445448e-05 4.7141988932837079e-07 0.0000000000000000e+00  3.9669138848771533e-05 9.6268466767537100e-07 0.0000000000000000e+00  6.1469961420119261e-05 1.4945943792675607e-06 0.0000000000000000e+00  8.5716649354165183e-05 2.0899008820424615e-06 0.0000000000000000e+00  1.1336989991991015e-04 2.7743722812215861e-06 0.0000000000000000e+00  1.4551514932608899e-04 3.5779127295218400e-06 0.0000000000000000e+00  1.8338954091523966e-04 4.5356290188578922e-06 0.0000000000000000e+00  2.2839816838706326e-04 5.6884921148708361e-06 0.0000000000000000e+00  2.8210651801352765e-04 7.0826665670501591e-06 0.0000000000000000e+00  3.4618622842866640e-04 8.7652892745581172e-06 0.0000000000000000e+00  4.2227773864020893e-04 1.0771789653048002e-05 0.0000000000000000e+00  5.1171911945932817e-04 1.3094921920632822e-05 0.0000000000000000e+00  6.1508696016392020e-04 1.5618917852414687e-05 0.0000000000000000e+00  7.3153099062640977e-04 1.8000408604745529e-05 0.0000000000000000e+00  8.5800301306763582e-04 1.9505855814395368e-05 0.0000000000000000e+00  9.8868541542482605e-04 1.8918691339869833e-05 0.0000000000000000e+00  0.0000000000000000e+00 0.0000000000000000e+00 0.0000000000000000e+00  1.8712621490061498e-05 4.6232661711598194e-07 0.0000000000000000e+00  3.8218867499757181e-05 9.4626837631073753e-07 0.0000000000000000e+00  5.9349597182249198e-05 1.4747873567444426e-06 0.0000000000000000e+00  8.3016607497610477e-05 2.0737524716346649e-06 0.0000000000000000e+00  1.1025783725168111e-04 2.7737389532787534e-06 0.0000000000000000e+00  1.4228758222455974e-04 3.6122816677959266e-06 0.0000000000000000e+00  1.8055134917437218e-04 4.6367796979475357e-06 0.0000000000000000e+00  2.2678152284171196e-04 5.9082157182875813e-06 0.0000000000000000e+00  2.8304289906170925e-04 7.5055830437453333e-06 0.0000000000000000e+00  3.5174352694319780e-04 9.5298793318206298e-06 0.0000000000000000e+00  4.3556254251648829e-04 1.2103331901368591e-05 0.0000000000000000e+00  5.3721054303313451e-04 1.5350918084963451e-05 0.0000000000000000e+00  6.5889730750887067e-04 1.9331387272136155e-05 0.0000000000000000e+00  8.0137794680518681e-04 2.3850645746914637e-05 0.0000000000000000e+00  9.6259811227461555e-04 2.8074361282502215e-05 0.0000000000000000e+00  1.1363695769688836e-03 2.9968635182928907e-05 0.0000000000000000e+00  0.0000000000000000e+00 0.0000000000000000e+00 0.0000000000000000e+00  1.7181532926604756e-05 4.3152271323063446e-07 0.0000000000000000e+00  3.5135384712956406e-05 8.8501341663014747e-07 0.0000000000000000e+00  5.4676248015955121e-05 1.3840437562350192e-06 0.0000000000000000e+00  7.6714241840539454e-05 1.9557513064423754e-06 0.0000000000000000e+00  1.0231220449260221e-04 2.6331859462526709e-06 0.0000000000000000e+00  1.3275517348677155e-04 3.4584738530307930e-06 0.0000000000000000e+00  1.6963624656621132e-04 4.4873488232872704e-06 0.0000000000000000e+00  2.1496152329834401e-04 5.7959438038022271e-06 0.0000000000000000e+00  2.7127163829235643e-04 7.4912701722663914e-06 0.0000000000000000e+00  3.4176375074446895e-04 9.7273729310451659e-06 0.0000000000000000e+00  4.3036679152699933e-04 1.2728564972766733e-05 0.0000000000000000e+00  5.4166003826708125e-04 1.6814538097051087e-05 0.0000000000000000e+00  6.8041652298483598e-04 2.2393250058651219e-05 0.0000000000000000e+00  8.5042034270911343e-04 2.9793826849887533e-05 0.0000000000000000e+00  1.0522693380275070e-03 3.8621028347667761e-05 0.0000000000000000e+00  1.2807500924027890e-03 4.6811087327889599e-05 0.0000000000000000e+00  0.0000000000000000e+00 0.0000000000000000e+00 0.0000000000000000e+00  1.4876434657150822e-05 3.7868389042367956e-07 0.0000000000000000e+00  3.0456813769286570e-05 7.7797260871924930e-07 0.0000000000000000e+00  4.7489056064679319e-05 1.2201255866336533e-06 0.0000000000000000e+00  6.6822595245017547e-05 1.7311442438733125e-06 0.0000000000000000e+00  8.9473052623841999e-05 2.3432914316973042e-06 0.0000000000000000e+00  1.1670610800723566e-04 3.0985806792430381e-06 0.0000000000000000e+00  1.5015052098433097e-04 4.0539703968958147e-06 0.0000000000000000e+00  1.9195288259509896e-04 5.2896533167680276e-06 0.0000000000000000e+00  2.4498798912113521e-04 6.9232858627964719e-06 0.0000000000000000e+00  3.1313377796034138e-04 9.1362000287080378e-06 0.0000000000000000e+00  4.0159559415757051e-04 1.2224153188707069e-05 0.0000000000000000e+00  5.1719082741894223e-04 1.6695483065627831e-05 0.0000000000000000e+00  6.6831929247539862e-04 2.3440379432868997e-05 0.0000000000000000e+00  8.6394752976700674e-04 3.3889744579982638e-05 0.0000000000000000e+00  1.1103823352951959e-03 4.9301681701991000e-05 0.0000000000000000e+00  1.4077961334392184e-03 6.3641373386940693e-05 0.0000000000000000e+00  0.0000000000000000e+00 0.0000000000000000e+00 0.0000000000000000e+00  1.1866233427503602e-05 3.0519218401197739e-07 0.0000000000000000e+00  2.4318502986275443e-05 6.2783111147249069e-07 0.0000000000000000e+00  3.7983461122508930e-05 9.8683753012965428e-07 0.0000000000000000e+00  5.3583179568248561e-05 1.4044902179715218e-06 0.0000000000000000e+00  7.1998983635506743e-05 1.9086608832322070e-06 0.0000000000000000e+00  9.4358771736609954e-05 2.5358468697659927e-06 0.0000000000000000e+00  1.2216280836867098e-04 3.3355394391997788e-06 0.0000000000000000e+00  1.5747102153905966e-04 4.3769455827576768e-06 0.0000000000000000e+00  2.0318695947041173e-04 5.7604050565356243e-06 0.0000000000000000e+00  2.6348922016116583e-04 7.6398383265713386e-06 0.0000000000000000e+00  3.4447273389817034e-04 1.0274988884236079e-05 0.0000000000000000e+00  4.5503761142212575e-04 1.4170312302343564e-05 0.0000000000000000e+00  6.0789518028221744e-04 2.0468611488813159e-05 0.0000000000000000e+00  8.1991172375696668e-04 3.2071091651734181e-05 0.0000000000000000e+00  1.1085401056752163e-03 5.6739974657094582e-05 0.0000000000000000e+00  1.4649690853140605e-03 1.1558109473574241e-04 0.0000000000000000e+00  0.0000000000000000e+00 0.0000000000000000e+00 0.0000000000000000e+00  8.2686608990969165e-06 2.1420743432663482e-07 0.0000000000000000e+00  1.6959202151943112e-05 4.4108267201041679e-07 0.0000000000000000e+00  2.6525102357573830e-05 6.9438585937857865e-07 0.0000000000000000e+00  3.7494964796665252e-05 9.9036512368230800e-07 0.0000000000000000e+00  5.0524732742165446e-05 1.3493419885537872e-06 0.0000000000000000e+00  6.6472112439915068e-05 1.7976969179668202e-06 0.0000000000000000e+00  8.6509428678220194e-05 2.3702785592956355e-06 0.0000000000000000e+00  1.1230281069156264e-04 3.1129393891982018e-06 0.0000000000000000e+00  1.4630727065133845e-04 4.0840624826161788e-06 0.0000000000000000e+00  1.9226720426371625e-04 5.3522749326268591e-06 0.0000000000000000e+00  2.5608368452456300e-04 6.9862958511353929e-06 0.0000000000000000e+00  3.4733048060926915e-04 9.0439980882964590e-06 0.0000000000000000e+00  4.8187533631144505e-04 1.1654765192374897e-05 0.0000000000000000e+00  6.8625958829827125e-04 1.5718758037845535e-05 0.0000000000000000e+00  1.0048322513787266e-03 2.6489021085899309e-05 0.0000000000000000e+00  1.5147271677377230e-03 6.7838609932843296e-05 0.0000000000000000e+00  0.0000000000000000e+00 0.0000000000000000e+00 0.0000000000000000e+00  4.2469233164652051e-06 1.1048940672964738e-07 0.0000000000000000e+00  8.7151405545064937e-06 2.2764640840194183e-07 0.0000000000000000e+00  1.3643374241883737e-05 3.5871649216261916e-07 0.0000000000000000e+00  1.9312078398150826e-05 5.1225606838207606e-07 0.0000000000000000e+00  2.6073206006611342e-05 6.9892189888890614e-07 0.0000000000000000e+00  3.4393833201720760e-05 9.3233750353854730e-07 0.0000000000000000e+00  4.4924662437024010e-05 1.2297455758997524e-06 0.0000000000000000e+00  5.8613683824213186e-05 1.6112911395665961e-06 0.0000000000000000e+00  7.6904171198393021e-05 2.0939632741883286e-06 0.0000000000000000e+00  1.0209538056798345e-04 2.6669954112925694e-06 0.0000000000000000e+00  1.3802428853645313e-04 3.2049568118457047e-06 0.0000000000000000e+00  1.9137024212556407e-04 3.1736573913033050e-06 0.0000000000000000e+00  2.7399547303760282e-04 6.6584996843639935e-07 0.0000000000000000e+00  4.0576858755676543e-04 -1.0497982514650652e-05 0.0000000000000000e+00  6.0963241527825041e-04 -4.7072943095725123e-05 0.0000000000000000e+00  8.6693865731604430e-04 -1.3450109232015660e-04 0.0000000000000000e+00  0.0000000000000000e+00 0.0000000000000000e+00 0.0000000000000000e+00  0.0000000000000000e+00 0.0000000000000000e+00 0.0000000000000000e+00  0.0000000000000000e+00 0.0000000000000000e+00 0.0000000000000000e+00  0.0000000000000000e+00 0.0000000000000000e+00 0.0000000000000000e+00  0.0000000000000000e+00 0.0000000000000000e+00 0.0000000000000000e+00  0.0000000000000000e+00 0.0000000000000000e+00 0.0000000000000000e+00  0.0000000000000000e+00 0.0000000000000000e+00 0.0000000000000000e+00  0.0000000000000000e+00 0.0000000000000000e+00 0.0000000000000000e+00  0.0000000000000000e+00 0.0000000000000000e+00 0.0000000000000000e+00  0.0000000000000000e+00 0.0000000000000000e+00 0.0000000000000000e+00  0.0000000000000000e+00 0.0000000000000000e+00 0.0000000000000000e+00  0.0000000000000000e+00 0.0000000000000000e+00 0.0000000000000000e+0