<?xml version="1.0"?>
<VTKFile type="UnstructuredGrid"  version="0.1"  >
<UnstructuredGrid>
<Piece  NumberOfPoints="289" NumberOfCells="512">
<Points>
<DataArray  type="Float64"  NumberOfComponents="3"  format="ascii">0 0 0  0.0625 0 0  0.125 0 0  0.1875 0 0  0.25 0 0  0.3125 0 0  0.375 0 0  0.4375 0 0  0.5 0 0  0.5625 0 0  0.625 0 0  0.6875 0 0  0.75 0 0  0.8125 0 0  0.875 0 0  0.9375 0 0  1 0 0  0 0.0625 0  0.06255276198117081 0.06249729604447905 0  0.1251070881291547 0.06249452360692075 0  0.1876645481582195 0.06249161572079279 0  0.2502267089232397 0.06248850901324024 0  0.3127951190450375 0.06248514629347383 0  0.3753712761594376 0.06248147987224115 0  0.4379565711423567 0.06247747528834886 0  0.5005522056803292 0.06247311414399745 0  0.5631590859593967 0.06246839256854869 0  0.6257777129403124 0.06246330681653639 0  0.688408138393953 0.06245780515461689 0  0.7510501973930057 0.06245165132451001 0  0.8137046690507235 0.06244404002035522 0  0.8763774770188524 0.06243244453950847 0  0.9390940551281843 0.06240886830226108 0  1.001948234437271 0.06234732814763614 0  0 0.125 0  0.06260398615710476 0.1249946605303501 0  0.1252111053714756 0.1249891823567192 0  0.1878245079737451 0.1249834294421179 0  0.2504473522455012 0.1249772722378132 0  0.3130827813177769 0.1249705927026715 0  0.3757338657619952 0.1249632911930387 0  0.4384034994462049 0.1249552951178936 0  0.5010942379775148 0.1249465679801536 0  0.5638080757190319 0.1249371147330808 0  0.6265461741194744 0.1249269740672837 0  0.6893085889577648 0.1249161787073936 0  0.7520941023478609 0.1249046514778583 0  0.8149003039494579 0.1248920059972033 0  0.8777237406123365 0.1248773549330047 0  0.9405574008444451 0.1248601064438182 0  1.003369387687352 0.1248471081335488 0  0 0.1875 0  0.06265210259397241 0.1874921637356654 0  0.1253089041243603 0.1874841155568644 0  0.1879751434616157 0.1874756466186646 0  0.2506556026762581 0.1874665559727213 0  0.3133550899867463 0.1874566575155872 0  0.3760783724405601 0.1874457904894903 0  0.438830037409271 0.1874338343704299 0  0.5016142605320046 0.1874207281341277 0  0.5644344589536472 0.1874064919735931 0  0.6272928139585416 0.1873912457672273 0  0.6901896534182608 0.1873752120743841 0  0.7531226706219791 0.1873586817006377 0  0.8160858432212994 0.1873419061423253 0  0.8790674887206584 0.1873248426161643 0  0.9420458228424395 0.1873064152255746 0  1.004979684851357 0.187281145979576 0  0 0.25 0  0.06269554628591958 0.2499898788891933 0  0.125397334810841 0.2499794691956923 0  0.188111685415648 0.2499684846089691 0  0.2508450304101076 0.2499566456448638 0  0.3136039237528945 0.2499436873423583 0  0.3763949870257289 0.2499293724845482 0  0.439224762050017 0.2499135126711088 0  0.5020994333459686 0.2498959997127147 0  0.5650243769177562 0.2498768495303696 0  0.6280034852763425 0.2498562595341644 0  0.6910382088816432 0.2498346775885129 0  0.7541262279507545 0.2498128750083548 0  0.8172595942401317 0.2497920052310014 0  0.8804220256736235 0.249773608357702 0  0.9435849042497109 0.2497594940676664 0  1.006702121068489 0.2497516225911057 0  0 0.3125 0  0.06273277593217605 0.3124878826549878 0  0.1254732789303823 0.3124753973735037 0  0.1882293691221049 0.3124621760451578 0  0.2510091294825441 0.3124478527876518 0  0.313820927403283 0.3124320703028184 0  0.3766734065062193 0.3124144934430099 0  0.4395753704812485 0.3123948339501683 0  0.5025355077317665 0.3123728917801215 0  0.5655618898094367 0.3123486202993409 0  0.6286611590425171 0.3123222247896824 0  0.6918373032466271 0.3122943055791888 0  0.755089902035168 0.3122660573734612 0  0.8184117350307171 0.3122395324961836 0  0.8817857286827271 0.3122179666334681 0  0.9451815955773591 0.3122061688545338 0  1.008553725322505 0.3122110885075143 0  0 0.375 0  0.06276230898031622 0.3749862543794726 0  0.1255337160118339 0.3749720612528979 0  0.188323526086299 0.3749569685363028 0  0.2511414211429774 0.3749405174556266 0  0.3139976043586762 0.3749222445940666 0  0.3769028787016367 0.3749016918024 0  0.4398686171222095 0.3748784291528922 0  0.502906561914645 0.3748520988886634 0  0.5660283644740026 0.3748224925281921 0  0.6292447451692348 0.3747896793268836 0  0.6925641219055179 0.3747542121636853 0  0.7559905405012195 0.3747174450974353 0  0.8195207768672259 0.3746819998883028 0  0.8831406483763159 0.3746524028630284 0  0.9468210073926773 0.3746358479018698 0  1.010514724191846 0.3746428490410845 0  0 0.4375 0  0.0627827763570865 0.4374850736388331 0  0.1255758322365358 0.4374696244652739 0  0.1883897438693122 0.4374531187272185 0  0.251235658008639 0.4374350026079984 0  0.3141255498437535 0.4374146964985555 0  0.3770724340435107 0.4373915960415811 0  0.4400904886937725 0.4373650853196224 0  0.503195025945991 0.4373345712574755 0  0.5664022055230645 0.437299554459323 0  0.6297283367604819 0.4372597616186629 0  0.6931885555813693 0.4372153798376484 0  0.7567946111032754 0.4371674542470085 0  0.8205514932962908 0.4371185332774805 0  0.8844527558151702 0.4370736537568888 0  0.9484747393106945 0.4370417061041169 0  1.012570504337681 0.4370370301542673 0  0 0.5 0  0.06279299791966841 0.4999844157701986 0  0.1255971738685095 0.4999682441695863 0  0.1884241016512231 0.4999508790242425 0  0.2512861452695238 0.4999316771412318 0  0.3141968562693083 0.4999099415747242 0  0.3771713611902229 0.4998849084144998 0  0.4402267116704209 0.4998557411255994 0  0.503382141039654 0.4998215401940405 0  0.5666591247545073 0.4997813826199142 0  0.6300810710551672 0.4997344180514598 0  0.6936723681642398 0.4996800701284331 0  0.7574563902956309 0.4996184288870318 0  0.8214519461105896 0.4995509786843272 0  0.8856676148164782 0.4994818809239017 0  0.9500935899906379 0.499420073739306 0  1.014691190730626 0.4993823106682962 0  0 0.5625 0  0.06279207614200039 0.5624843453876177 0  0.1255958414964981 0.5624680576179945 0  0.1884234783050229 0.5624504763388974 0  0.2512881808573285 0.5624308857072369 0  0.3142047053919807 0.5624084846319065 0  0.3771899656615406 0.5623823552759323 0  0.4402636730553816 0.5623514308035203 0  0.5034489960555223 0.5623144657800974 0  0.5667731681106051 0.5622700176840114 0  0.6302678912655848 0.5622164585495805 0  0.6939692453586089 0.562152058025201 0  0.7579165978899119 0.5620752261121619 0  0.8221497074590844 0.5619851005717076 0  0.8867028566951218 0.5618828474934848 0  0.9515945836440373 0.5617743237934334 0  1.01681178709476 0.5616749348318842 0  0 0.625 0  0.06277950103082361 0.6249849083493834 0  0.1255707115930921 0.6249691651005341 0  0.1883859144571412 0.6249520839523641 0  0.2512385944460883 0.624932906232166 0  0.3141441326496862 0.6249107582907264 0  0.3771206159374222 0.624884600752556 0  0.4401898013206111 0.6248531663038881 0  0.503378266936729 0.624814882492521 0  0.5667187556977805 0.6247677765195165 0  0.6302516540008376 0.6247093618506362 0  0.6940264109378732 0.6246365164836465 0  0.758102434725672 0.6245453942353636 0  0.8225485145282236 0.624431504827865 0  0.887438992907421 0.6242903643662698 0  0.9528436743683457 0.6241197840773546 0  1.018807118995054 0.6239261816057486 0  0 0.6875 0  0.06275525425006467 0.6874861231700773 0  0.1255216609350477 0.6874716113341763 0  0.1883109912417061 0.6874557897757352 0  0.2511363358700007 0.687437899755641 0  0.3140129062157991 0.6874170460603274 0  0.376959023141282 0.6873921303754998 0  0.4399973835369835 0.6873617627348358 0  0.5031567171703485 0.6873241399117155 0  0.5664739674712238 0.6872768740528412 0  0.6299971347866477 0.6872167455016662 0  0.6937888734865277 0.6871393381523719 0  0.7579307576121388 0.6870384926945875 0  0.8225276618227092 0.6869054984325293 0  0.8877105938501958 0.6867280408843218 0  0.9536337016680124 0.6864895567413045 0  1.02045502875941 0.6861718445247457 0  0 0.75 0  0.06271989591073028 0.7499879733184752 0  0.1254497589920105 0.7499753684168218 0  0.1882001691030194 0.7499615663178778 0  0.250983030277581 0.7499458609483755 0  0.31381240884928 0.7499274026160244 0  0.3767056156895579 0.7499051233887861 0  0.4396846717325936 0.7498776335450668 0  0.5027783576555177 0.7498430725886169 0  0.566025141030198 0.7497988883318056 0  0.6294774059189463 0.7497414987882505 0  0.6932075832993642 0.7496657530076651 0  0.7573169771938995 0.7495640200670527 0  0.8219482250355228 0.7494245302581714 0  0.887302169927478 0.7492281356512577 0  0.9536583285579087 0.748942005963676 0  1.021388167954701 0.7485110662154222 0  0 0.8125 0  0.06267461491329028 0.8124904020505406 0  0.1253573866306399 0.8124803240073157 0  0.1880570153073712 0.8124692488524941 0  0.2507833877099019 0.812456580125277 0  0.3135483540106668 0.8124415890111395 0  0.3763667675312188 0.8124233428199553 0  0.4392579552817818 0.8124006033987462 0  0.5022478835649364 0.8123716780294458 0  0.5653724481502986 0.812334195427585 0  0.628682602462887 0.8122847623678858 0  0.692252529434871 0.8122184238525796 0  0.7561929307943235 0.812127774436325 0  0.8206730997996995 0.8120013473913232 0  0.8859586110573008 0.81182010999446 0  0.952478305961709 0.8115475350774508 0  1.020943681161686 0.811092879880205 0  0 0.875 0  0.06262122475727157 0.8749933112693319 0  0.1252482402476427 0.8749862781085792 0  0.1878872460092769 0.8749785279545927 0  0.2505453411766462 0.8749696274392069 0  0.3132311286040675 0.8749590411890429 0  0.3759555456057439 0.8749460753101956 0  0.4387330778587392 0.8749297960904188 0  0.5015836179047661 0.8749089098512337 0  0.5645354239598986 0.8748815834787155 0  0.6276300028821844 0.874845178254134 0  0.6909304627064846 0.8747958690234967 0  0.7545363678320054 0.8747281519966145 0  0.8186114754737153 0.8746343985583499 0  0.8834395564800136 0.8745052628407476 0  0.9495541521197641 0.8743349202376934 0  1.018148726681738 0.874154915170001 0  0 0.9375 0  0.06256209259415411 0.9374965653489674 0  0.1251271920129186 0.9374929506303592 0  0.1876985249934588 0.9374889605218208 0  0.2502798045065502 0.9374843666358857 0  0.3128755617122273 0.9374788848651772 0  0.3754916104736519 0.9374721440046035 0  0.4381357406797628 0.93746364021
[...]
<PointData  Vectors="f_54"> 
<DataArray  type="Float64"  Name="f_54"  NumberOfComponents="3" format="ascii">0.0000000000000000e+00 0.0000000000000000e+00 0.0000000000000000e+00  0.0000000000000000e+00 0.0000000000000000e+00 0.0000000000000000e+00  0.0000000000000000e+00 0.0000000000000000e+00 0.0000000000000000e+00  0.0000000000000000e+00 0.0000000000000000e+00 0.0000000000000000e+00  0.0000000000000000e+00 0.0000000000000000e+00 0.0000000000000000e+00  0.0000000000000000e+00 0.0000000000000000e+00 0.0000000000000000e+00  0.0000000000000000e+00 0.0000000000000000e+00 0.0000000000000000e+00  0.0000000000000000e+00 0.0000000000000000e+00 0.0000000000000000e+00  0.0000000000000000e+00 0.0000000000000000e+00 0.0000000000000000e+00  0.0000000000000000e+00 0.0000000000000000e+00 0.0000000000000000e+00  0.0000000000000000e+00 0.0000000000000000e+00 0.0000000000000000e+00  0.0000000000000000e+00 0.0000000000000000e+00 0.0000000000000000e+00  0.0000000000000000e+00 0.0000000000000000e+00 0.0000000000000000e+00  0.0000000000000000e+00 0.0000000000000000e+00 0.0000000000000000e+00  0.0000000000000000e+00 0.0000000000000000e+00 0.0000000000000000e+00  0.0000000000000000e+00 0.0000000000000000e+00 0.0000000000000000e+00  0.0000000000000000e+00 0.0000000000000000e+00 0.0000000000000000e+00  0.0000000000000000e+00 0.0000000000000000e+00 0.0000000000000000e+00  2.5483679326442013e-06 -7.2178354143970944e-08 0.0000000000000000e+00  5.1870510873102478e-06 -1.4794752734220862e-07 0.0000000000000000e+00  8.0092094983823404e-06 -2.3113409829026013e-07 0.0000000000000000e+00  1.1113227674262368e-05 -3.2603605423866922e-07 0.0000000000000000e+00  1.4605527331712679e-05 -4.3769812429290969e-07 0.0000000000000000e+00  1.8603734695126007e-05 -5.7223964084715790e-07 0.0000000000000000e+00  2.3240663185629850e-05 -7.3726951560363811e-07 0.0000000000000000e+00  2.8670201112375802e-05 -9.4246204481773126e-07 0.0000000000000000e+00  3.5077754649545751e-05 -1.2004827834686312e-06 0.0000000000000000e+00  4.2701938559307824e-05 -1.5288050843307667e-06 0.0000000000000000e+00  5.1885316160516511e-05 -1.9540777440579606e-06 0.0000000000000000e+00  6.3204778461829666e-05 -2.5244959427229325e-06 0.0000000000000000e+00  7.7836688561615431e-05 -3.3493465821608067e-06 0.0000000000000000e+00  9.8671865172085467e-05 -4.7378388905013927e-06 0.0000000000000000e+00  1.3403081070867569e-04 -7.7262912019291865e-06 0.0000000000000000e+00  2.1119946178802578e-04 -1.6232345945159251e-05 0.0000000000000000e+00  0.0000000000000000e+00 0.0000000000000000e+00 0.0000000000000000e+00  5.0105972806115682e-06 -1.4088586598378125e-07 0.0000000000000000e+00  1.0199865720897567e-05 -2.8874856413115958e-07 0.0000000000000000e+00  1.5752146364688548e-05 -4.5102420047275695e-07 0.0000000000000000e+00  2.1862221343779058e-05 -6.3606878621753849e-07 0.0000000000000000e+00  2.8740822283743963e-05 -8.5369354084699784e-07 0.0000000000000000e+00  3.6620603742462442e-05 -1.1157937490142868e-06 0.0000000000000000e+00  4.5763141272563840e-05 -1.4371155121317733e-06 0.0000000000000000e+00  5.6468216869086724e-05 -1.8362324431034258e-06 0.0000000000000000e+00  6.9088245948592072e-05 -2.3368758079401685e-06 0.0000000000000000e+00  8.4054232796991704e-05 -2.9699278197636484e-06 0.0000000000000000e+00  1.0192722882681672e-04 -3.7766942156074349e-06 0.0000000000000000e+00  1.2350420183361075e-04 -4.8142169979808448e-06 0.0000000000000000e+00  1.5002885360381431e-04 -6.1605506120317840e-06 0.0000000000000000e+00  1.8354202838284566e-04 -7.8947728888404381e-06 0.0000000000000000e+00  2.2703184223491339e-04 -9.8882865085315831e-06 0.0000000000000000e+00  2.8145125258608605e-04 -1.0495906877112668e-05 0.0000000000000000e+00  0.0000000000000000e+00 0.0000000000000000e+00 0.0000000000000000e+00  7.2981248069662571e-06 -2.0273273733614777e-07 0.0000000000000000e+00  1.4858744399657223e-05 -4.1540679197004886e-07 0.0000000000000000e+00  2.2952774267495865e-05 -6.4861882506762914e-07 0.0000000000000000e+00  3.1866727720077716e-05 -9.1428306046606107e-07 0.0000000000000000e+00  4.1910750305833533e-05 -1.2263981941214483e-06 0.0000000000000000e+00  5.3426937516567796e-05 -1.6019405172626854e-06 0.0000000000000000e+00  6.6798193122323505e-05 -2.0619201315778920e-06 0.0000000000000000e+00  8.2458164218581905e-05 -2.6326261966328723e-06 0.0000000000000000e+00  1.0090332766583088e-04 -3.3470601251837907e-06 0.0000000000000000e+00  1.2270911150271378e-04 -4.2464802755195171e-06 0.0000000000000000e+00  1.4855235972734124e-04 -5.3817429691731877e-06 0.0000000000000000e+00  1.7923901920100814e-04 -6.8133529022902616e-06 0.0000000000000000e+00  2.1571539408425108e-04 -8.6069336058049968e-06 0.0000000000000000e+00  2.5896234849117543e-04 -1.0816913241895893e-05 0.0000000000000000e+00  3.0944073858518766e-04 -1.3462088012287390e-05 0.0000000000000000e+00  3.6537395620173324e-04 -1.6679557095334840e-05 0.0000000000000000e+00  0.0000000000000000e+00 0.0000000000000000e+00 0.0000000000000000e+00  9.3270090576499165e-06 -2.5475432349850111e-07 0.0000000000000000e+00  1.8993242861873837e-05 -5.2180117256203054e-07 0.0000000000000000e+00  2.9349016560480983e-05 -8.1424281511918999e-07 0.0000000000000000e+00  4.0765406602822003e-05 -1.1468204065807106e-06 0.0000000000000000e+00  5.3644766906574775e-05 -1.5368771789570169e-06 0.0000000000000000e+00  6.8431232471698246e-05 -2.0054866862123282e-06 0.0000000000000000e+00  8.5621001633664611e-05 -2.5787822195036926e-06 0.0000000000000000e+00  1.0577191639890221e-04 -3.2894819846526981e-06 0.0000000000000000e+00  1.2951128073419147e-04 -4.1785072507807938e-06 0.0000000000000000e+00  1.5753945570433692e-04 -5.2963784047437337e-06 0.0000000000000000e+00  1.9062315599409203e-04 -6.7036379542361501e-06 0.0000000000000000e+00  2.2956306788060696e-04 -8.4687315886871772e-06 0.0000000000000000e+00  2.7509791006165470e-04 -1.0660550226841167e-05 0.0000000000000000e+00  3.2765988979602332e-04 -1.3332211382321102e-05 0.0000000000000000e+00  3.8682669876378571e-04 -1.6496816546863453e-05 0.0000000000000000e+00  4.5032001165614581e-04 -2.0103579787483808e-05 0.0000000000000000e+00  0.0000000000000000e+00 0.0000000000000000e+00 0.0000000000000000e+00  1.1020512451981256e-05 -2.9460224330231341e-07 0.0000000000000000e+00  2.2447317054057932e-05 -6.0308162524691332e-07 0.0000000000000000e+00  3.4700398186213809e-05 -9.4022311022077955e-07 0.0000000000000000e+00  4.8225779247435120e-05 -1.3226673915162272e-06 0.0000000000000000e+00  6.3508681298599963e-05 -1.7700247061438887e-06 0.0000000000000000e+00  8.1086527898431907e-05 -2.3062102861522049e-06 0.0000000000000000e+00  1.0156123758479967e-04 -2.9610629860643043e-06 0.0000000000000000e+00  1.2560957883509834e-04 -3.7722653203782399e-06 0.0000000000000000e+00  1.5398912168948885e-04 -4.7874710784065849e-06 0.0000000000000000e+00  1.8753498214096095e-04 -6.0662987054921868e-06 0.0000000000000000e+00  2.2713816166247024e-04 -7.6813610925793770e-06 0.0000000000000000e+00  2.7368836126990154e-04 -9.7166560708572344e-06 0.0000000000000000e+00  3.2795152763062636e-04 -1.2260401065808798e-05 0.0000000000000000e+00  3.9033861737812128e-04 -1.5387962566393271e-05 0.0000000000000000e+00  4.6052969635164713e-04 -1.9128776474956496e-05 0.0000000000000000e+00  5.3701749692148973e-04 -2.3403580832401411e-05 0.0000000000000000e+00  0.0000000000000000e+00 0.0000000000000000e+00 0.0000000000000000e+00  1.2311681159621123e-05 -3.2069641253746312e-07 0.0000000000000000e+00  2.5084453762979938e-05 -6.5598746622325259e-07 0.0000000000000000e+00  3.8795620837787603e-05 -1.0214017051586503e-06 0.0000000000000000e+00  5.3953937908867518e-05 -1.4344015178408929e-06 0.0000000000000000e+00  7.1115719212485587e-05 -1.9155801250460516e-06 0.0000000000000000e+00  9.0901024380372696e-05 -2.4901517037418570e-06 0.0000000000000000e+00  1.1400931527820815e-04 -3.1898534872535141e-06 0.0000000000000000e+00  1.4123315751404669e-04 -4.0553709585173017e-06 0.0000000000000000e+00  1.7346711858213758e-04 -5.1393360211332376e-06 0.0000000000000000e+00  2.1170662116532497e-04 -6.5097642333598273e-06 0.0000000000000000e+00  2.5702772206405504e-04 -8.2533711151093824e-06 0.0000000000000000e+00  3.1053347578201837e-04 -1.0477364183485856e-05 0.0000000000000000e+00  3.7324704421562964e-04 -1.3306861915088836e-05 0.0000000000000000e+00  4.4593167288144116e-04 -1.6873019515213504e-05 0.0000000000000000e+00  5.2883747975725236e-04 -2.1284895699191217e-05 0.0000000000000000e+00  6.2143693814699699e-04 -2.6579675761611156e-05 0.0000000000000000e+00  0.0000000000000000e+00 0.0000000000000000e+00 0.0000000000000000e+00  1.3145950147801594e-05 -3.3232395596806485e-07 0.0000000000000000e+00  2.6792892725475453e-05 -6.7906119770305645e-07 0.0000000000000000e+00  4.1460382299427649e-05 -1.0554983939271738e-06 0.0000000000000000e+00  5.7704799485508295e-05 -1.4787587016407281e-06 0.0000000000000000e+00  7.6138685317532725e-05 -1.9689803917606955e-06 0.0000000000000000e+00  9.7450866768693681e-05 -2.5508529009119011e-06 0.0000000000000000e+00  1.2242707359443684e-04 -3.2557064458638732e-06 0.0000000000000000e+00  1.5197001334608167e-04 -4.1244152222282146e-06 0.0000000000000000e+00  1.8711660461623943e-04 -5.2114336759728377e-06 0.0000000000000000e+00  2.2904801031292205e-04 -6.5902865182405741e-06 0.0000000000000000e+00  2.7908505951744245e-04 -8.3606457408760823e-06 0.0000000000000000e+00  3.3865779206326390e-04 -1.0656477532129825e-05 0.0000000000000000e+00  4.0923456549270384e-04 -1.3653124042567878e-05 0.0000000000000000e+00  4.9219710953878981e-04 -1.7567816866157550e-05 0.0000000000000000e+00  5.8865920405727667e-04 -2.2642065324998948e-05 0.0000000000000000e+00  6.9925054750292202e-04 -2.9084769020756236e-05 0.0000000000000000e+00  0.0000000000000000e+00 0.0000000000000000e+00 0.0000000000000000e+00  1.3483759372740574e-05 -3.2966944413227008e-07 0.0000000000000000e+00  2.7490958098471626e-05 -6.7272434748363193e-07 0.0000000000000000e+00  4.2565600321364251e-05 -1.0432686187847738e-06 0.0000000000000000e+00  5.9293424639669513e-05 -1.4569433886090557e-06 0.0000000000000000e+00  7.8324506606031327e-05 -1.9319485442265241e-06 0.0000000000000000e+00  1.0039780385137833e-04 -2.4904399091846097e-06 0.0000000000000000e+00  1.2636799551676405e-04 -3.1605646764864833e-06 0.0000000000000000e+00  1.5723451549262010e-04 -3.9795534906006163e-06 0.0000000000000000e+00  1.9417182081031952e-04 -4.9985254737701597e-06 0.0000000000000000e+00  2.3855842351333111e-04 -6.2899864261120553e-06 0.0000000000000000e+00  2.9199976586769498e-04 -7.9593407290225751e-06 0.0000000000000000e+00  3.5633649539614914e-04 -1.0161812246625937e-05 0.0000000000000000e+00  4.3362551533853398e-04 -1.3125202156824933e-05 0.0000000000000000e+00  5.2607795053419878e-04 -1.7175195540595083e-05 0.0000000000000000e+00  6.3593872027121264e-04 -2.2750515525954889e-05 0.0000000000000000e+00  7.6529764136413060e-04 -3.0376656806100114e-05 0.0000000000000000e+00  0.0000000000000000e+00 0.0000000000000000e+00 0.0000000000000000e+00  1.3303080500856528e-05 -3.1376151518618961e-07 0.0000000000000000e+00  2.7132319513615531e-05 -6.3917967584816217e-07 0.0000000000000000e+00  4.2035833330770830e-05 -9.8838720730912150e-07 0.0000000000000000e+00  5.8607264707094992e-05 -1.3745565523336375e-06 0.0000000000000000e+00  7.7511250083924337e-05 -1.8126040058176634e-06 0.0000000000000000e+00  9.9512258367028474e-05 -2.3201978806132207e-06 0.0000000000000000e+00  1.2550806125791381e-04 -2.9193429371141601e-06 0.0000000000000000e+00  1.5656910740436468e-04 -3.6390437732719718e-06 0.0000000000000000e+00  1.9398488938301403e-04 -4.5199698927022771e-06 0.0000000000000000e+00  2.3931775194546438e-04 -5.6227770856932579e-06 0.0000000000000000e+00  2.9446301348942064e-04 -7.0429223364270872e-06 0.0000000000000000e+00  3.6171097740152566e-04 -8.9364552538281307e-06 0.0000000000000000e+00  4.4380037143930434e-04 -1.1562799452269591e-05 0.0000000000000000e+00  5.4394335450153595e-04 -1.5349660211966546e-05 0.0000000000000000e+00  6.6579126162961565e-04 -2.0976118704033724e-05 0.0000000000000000e+00  8.1330507636307846e-04 -2.9443580936421153e-05 0.0000000000000000e+00  0.0000000000000000e+00 0.0000000000000000e+00 0.0000000000000000e+00  1.2601646772190326e-05 -2.8632724090981174e-07 0.0000000000000000e+00  2.5710755795600586e-05 -5.8211425948304304e-07 0.0000000000000000e+00  3.9857226782633296e-05 -8.9699598593260275e-07 0.0000000000000000e+00  5.5618382075022589e-05 -1.2410046800768419e-06 0.0000000000000000e+00  7.3646315162652628e-05 -1.6248139618909197e-06 0.0000000000000000e+00  9.4700045519875370e-05 -2.0600986412347857e-06 0.0000000000000000e+00  1.1968475587139365e-04 -2.5601893582118491e-06 0.0000000000000000e+00  1.4970102120677488e-04 -3.1414309303389638e-06 0.0000000000000000e+00  1.8610773575155644e-04 -3.8261456148847989e-06 0.0000000000000000e+00  2.3060324673927323e-04 -4.6491300948532826e-06 0.0000000000000000e+00  2.8532949240909453e-04 -5.6716842226700293e-06 0.0000000000000000e+00  3.5300237288082896e-04 -7.0110931849490330e-06 0.0000000000000000e+00  4.3706527231760812e-04 -8.9001129105850543e-06 0.0000000000000000e+00  5.4184688961694512e-04 -1.1799496074365652e-05 0.0000000000000000e+00  6.7267637643629076e-04 -1.6588304558323901e-05 0.0000000000000000e+00  8.3588483503923856e-04 -2.4820216629183307e-05 0.0000000000000000e+00  0.0000000000000000e+00 0.0000000000000000e+00 0.0000000000000000e+00  1.1398585260875438e-05 -2.4955994827831691e-07 0.0000000000000000e+00  2.3263773952937424e-05 -5.0620755339761187e-07 0.0000000000000000e+00  3.6083892258015235e-05 -7.7689843472686657e-07 0.0000000000000000e+00  5.0393939585366966e-05 -1.0683092472814862e-06 0.0000000000000000e+00  6.6803231031440714e-05 -1.3865536769014928e-06 0.0000000000000000e+00  8.6028944148284182e-05 -1.7367264926160841e-06 0.0000000000000000e+00  1.0893874894383474e-04 -2.1222425562953828e-06 0.0000000000000000e+00  1.3660701948949646e-04 -2.5440379361146621e-06 0.0000000000000000e+00  1.7039113912907649e-04 -3.0000111159099072e-06 0.0000000000000000e+00  2.1203732905711848e-04 -3.4859427938545627e-06 0.0000000000000000e+00  2.6382924613435735e-04 -4.0013726238245008e-06 0.0000000000000000e+00  3.2879635517092068e-04 -4.5694761295768635e-06 0.0000000000000000e+00  4.1099885352374049e-04 -5.2930610901429142e-06 0.0000000000000000e+00  5.1589024632632736e-04 -6.4967160220341649e-06 0.0000000000000000e+00  6.5070226507669374e-04 -9.0536316562377483e-06 0.0000000000000000e+00  8.2466828788088046e-04 -1.5041031661960264e-05 0.0000000000000000e+00  0.0000000000000000e+00 0.0000000000000000e+00 0.0000000000000000e+00  9.7351040182213849e-06 -2.0582776342329243e-07 0.0000000000000000e+00  1.9874315848585753e-05 -4.1649725171846265e-07 0.0000000000000000e+00  3.0841373422815353e-05 -6.3647209145564236e-07 0.0000000000000000e+00  4.3102762853968215e-05 -8.6937995836634294e-07 0.0000000000000000e+00  5.7193588123183847e-05 -1.1172620480380954e-06 0.0000000000000000e+00  7.3749764064911860e-05 -1.3793414260549532e-06 0.0000000000000000e+00  9.3550230378512786e-05 -1.6499943710166058e-06 0.0000000000000000e+00  1.1757476270231635e-04 -1.9154533052124770e-06 0.0000000000000000e+00  1.4708611359348406e-04 -2.1485847662243304e-06 0.0000000000000000e+00  1.8375050855987956e-04 -2.3010163439596241e-06 0.0000000000000000e+00  2.2981931195778635e-04 -2.2925260327001414e-06 0.0000000000000000e+00  2.8840872042324638e-04 -2.0010558717849462e-06 0.0000000000000000e+00  3.6393406599540440e-04 -1.2698795941126255e-06 0.0000000000000000e+00  4.6277120795498088e-04 7.6675442291632384e-09 0.0000000000000000e+00  5.9417945761581700e-04 1.5382765241048418e-06 0.0000000000000000e+00  7.7128904009252379e-04 1.5676928839838874e-06 0.0000000000000000e+00  0.0000000000000000e+00 0.0000000000000000e+00 0.0000000000000000e+00  7.6739119623575651e-06 -1.5737344305638919e-07 0.0000000000000000e+00  1.5669823231308699e-05 -3.1771224403830875e-07 0.0000000000000000e+00  2.4325873408227929e-05 -4.8348224881901181e-07 0.0000000000000000e+00  3.4015716391540042e-05 -6.5602792034113977e-07 0.0000000000000000e+00  4.5170352097448829e-05 -8.3456603217369876e-07 0.0000000000000000e+00  5.8305787592791886e-05 -1.0144924192646846e-06 0.0000000000000000e+00  7.4060122078086036e-05 -1.1844534443384934e-06 0.0000000000000000e+00  9.3245706115784556e-05 -1.3212047972915092e-06 0.0000000000000000e+00  1.1692570515553875e-04 -1.3804700182064957e-06 0.0000000000000000e+00  1.4653116305750127e-04 -1.2804834643014834e-06 0.0000000000000000e+00  1.8404756937822901e-04 -8.7208512024958408e-07 0.0000000000000000e+00  2.3232558194873938e-04 1.1549918791366713e-07 0.0000000000000000e+00  2.9562315598393336e-04 2.1691987604637184e-06 0.0000000000000000e+00  3.8059199277950542e-04 6.1302100181518704e-06 0.0000000000000000e+00  4.9807530695109990e-04 1.3223355061731217e-05 0.0000000000000000e+00  6.6563756458922852e-04 2.3758734756393574e-05 0.0000000000000000e+00  0.0000000000000000e+00 0.0000000000000000e+00 0.0000000000000000e+00  5.2971579969479234e-06 -1.0607144690869472e-07 0.0000000000000000e+00  1.0818157587348385e-05 -2.1372345141584382e-07 0.0000000000000000e+00  1.6798275417001103e-05 -3.2407556913566349e-07 0.0000000000000000e+00  2.3498131256737207e-05 -4.3720318573533475e-07 0.0000000000000000e+00  3.1219412445720433e-05 -5.5119200492307344e-07 0.0000000000000000e+00  4.0325007130906913e-05 -6.6051802980330332e-07 0.0000000000000000e+00  5.1266339168210437e-05 -7.5316464565295178e-07 0.0000000000000000e+00  6.4622388787918491e-05 -8.0535234844330167e-07 0.0000000000000000e+00  8.1158005994049019e-05 -7.7163349599134058e-07 0.0000000000000000e+00  1.0191513429098902e-04 -5.6565371382098209e-07 0.0000000000000000e+00  1.2836285114016451e-04 -2.1248906379183047e-08 0.0000000000000000e+00  1.6265943553716574e-04 1.1902692925070507e-06 0.0000000000000000e+00  2.0814797489010069e-04 3.7476348881815520e-06 0.0000000000000000e+00  2.7041087381589660e-04 9.1429059000882066e-06 0.0000000000000000e+00  3.5999868706132341e-04 2.0976057177488263e-05 0.0000000000000000e+00  5.0238859107232768e-04 4.9364936385168823e-05 0.0000000000000000e+00  0.0000000000000000e+00 0.0000000000000000e+00 0.0000000000000000e+00  2.7028579346027432e-06 -5.3305143455296960e-08 0.0000000000000000e+00  5.5202683855132133e-06 -1.0726267167317154e-07 0.0000000000000000e+00  8.5726709720097242e-06 -1.6225064796339471e-07 0.0000000000000000e+00  1.1993605248989247e-05 -2.1802299699017670e-07 0.0000000000000000e+00  1.5937860898780039e-05 -2.7314118667144094e-07 0.0000000000000000e+00  2.0591943288428104e-05 -3.2399145964916036e-07 0.0000000000000000e+00  2.6188324136457499e-05 -3.6301199739970173e-07 0.0000000000000000e+00  3.3025836961292491e-05 -3.7539228344961615e-07 0.0000000000000000e+00  4.1500211307411177e-05 -3.3272337992050168e-07 0.0000000000000000e+00  5.2151842089616146e-05 -1.8030488825716740e-07 0.0000000000000000e+00  6.5744015806605780e-05 1.8941940393759024e-07 0.0000000000000000e+00  8.3397293039103509e-05 9.9558319248132929e-07 0.0000000000000000e+00  1.0683085908328458e-04 2.7073894217753165e-06 0.0000000000000000e+00  1.3880281965104286e-04 6.3962722622397929e-06 0.0000000000000000e+00  1.8381243266564717e-04 1.4707126802631163e-05 0.0000000000000000e+00  2.4797157575356558e-04 3.4676846737324209e-05 0.0000000000000000e+00  0.0000000000000000e+00 0.0000000000000000e+00 0.0000000000000000e+00  0.0000000000000000e+00 0.0000000000000000e+00 0.0000000000000000e+00  0.0000000000000000e+00 0.0000000000000000e+00 0.0000000000000000e+00  0.0000000000000000e+00 0.0000000000000000e+00 0.0000000000000000e+00  0.0000000000000000e+00 0.0000000000000000e+00 0.0000000000000000e+00  0.0000000000000000e+00 0.0000000000000000e+00 0.0000000000000000e+00  0.0000000000000000e+00 0.0000000000000000e+00 0.0000000000000000e+00  0.0000000000000000e+00 0.0000000000000000e+00 0.0000000000000000e+00  0.0000000000000000e+00 0.0000000000000000e+00 0.0000000000000000e+00  0