<?xml version="1.0"?>
<VTKFile type="UnstructuredGrid"  version="0.1"  >
<UnstructuredGrid>
<Piece  NumberOfPoints="289" NumberOfCells="512">
<Points>
<DataArray  type="Float64"  NumberOfComponents="3"  format="ascii">0 0 0  0.0625 0 0  0.125 0 0  0.1875 0 0  0.25 0 0  0.3125 0 0  0.375 0 0  0.4375 0 0  0.5 0 0  0.5625 0 0  0.625 0 0  0.6875 0 0  0.75 0 0  0.8125 0 0  0.875 0 0  0.9375 0 0  1 0 0  0 0.0625 0  0.0625017519211062 0.06249827433220895 0  0.1250035560076208 0.0624964707932003 0  0.1875054643523901 0.06249450631201693 0  0.2500075291696107 0.06249228667415415 0  0.3125098024485204 0.06248969883478492 0  0.3750123351242251 0.06248659991664506 0  0.4375151755899905 0.06248280003341528 0  0.5000183673670618 0.06247803327824709 0  0.5625219457197913 0.06247190478716715 0  0.6250259328808677 0.06246378598326601 0  0.6875303310971597 0.06245258802365972 0  0.7500351112308481 0.06243622116664277 0  0.8125401902580072 0.06241015897889984 0  0.8750453791606988 0.06236317852501125 0  0.9375502582066237 0.06226328855578869 0  1.000053952156208 0.06200646087048332 0  0 0.125 0  0.06250345182358448 0.1249966263006503 0  0.1250070078197123 0.1249931020155473 0  0.1875107721988653 0.1249892669056466 0  0.2500148497297238 0.1249849401684119 0  0.312519345216354 0.1249799066299603 0  0.3750243620182288 0.1249738975822464 0  0.4375299992640136 0.1249665620603718 0  0.5000363474132119 0.1249574208568235 0  0.5625434818395546 0.1249457884425954 0  0.6250514541052025 0.1249306332358092 0  0.6875602803902932 0.124910316358112 0  0.7500699255460274 0.1248820904015042 0  0.8125802773857731 0.1248411527516544 0  0.8750910908621512 0.1247790877893233 0  0.9376018174741161 0.1246828717406945 0  1.00011092995397 0.1245452026792212 0  0 0.1875 0  0.06250504789813512 0.1874951286195003 0  0.1250102515142359 0.1874900435460933 0  0.1875157670729226 0.1874845182462252 0  0.2500217524174533 0.1874782990785131 0  0.3125283666492223 0.1874710878204779 0  0.3750357683505233 0.1874625185355002 0  0.4375441118540843 0.1874521249858707 0  0.5000535410371623 0.1874392924716995 0  0.5625641802287673 0.1874231841290742 0  0.6250761221081841 0.1874026260549946 0  0.6875894131052862 0.1873759299482592 0  0.7501040383077654 0.1873406374573202 0  0.8126199124352032 0.1872932318170779 0  0.8751369012457568 0.1872291234040102 0  0.9376549776324086 0.1871440157118161 0  1.00017499794107 0.1870391519060871 0  0 0.25 0  0.06250648874119047 0.2499938443926934 0  0.1250131836775596 0.2499874247789003 0  0.1875202924949028 0.2499804625638221 0  0.2500280264715418 0.2499726486838892 0  0.312536600791003 0.2499636249235394 0  0.3750462330099522 0.2499529605953048 0  0.4375571389161588 0.2499401221958993 0  0.5000695249838168 0.2499244330248938 0  0.5625835767537083 0.2499050194969147 0  0.6250994428854053 0.2498807425012513 0  0.6876172155765425 0.2498501200020936 0  0.7501369098327377 0.2498112721915304 0  0.8126584469165703 0.2497619868050727 0  0.8751816495675816 0.2497001447972979 0  0.9377062422640259 0.2496249451094388 0  1.000231709529408 0.2495392206188969 0  0 0.3125 0  0.06250772394166267 0.3124928239295107 0  0.1250157024402862 0.3124853480809504 0  0.1875241931670527 0.3124772576456168 0  0.2500334605247194 0.3124682067665521 0  0.3125437773225962 0.3124578004823782 0  0.3750554242619081 0.3124455736001941 0  0.4375686861868226 0.3124309656017699 0  0.5000838438922599 0.3124132913126885 0  0.5626011602565807 0.3123917089029395 0  0.625120859785024 0.312365191388325 0  0.6876431015903334 0.3123325181475384 0  0.7501679476791987 0.3122923238701447 0  0.8126953311201828 0.3122432783754993 0  0.8752250311836982 0.3121845144717598 0  0.9377566627767184 0.312116417160574 0  1.000289696717543 0.3120416799676614 0  0 0.375 0  0.06250870511754889 0.3749921029980111 0  0.1250177094362274 0.3749838854331157 0  0.1875273176031015 0.3749750122662115 0  0.2500378454738785 0.3749651188507522 0  0.3125496240129143 0.3749537945382909 0  0.3750630008486342 0.3749405646345674 0  0.4375783381396098 0.3749248708239514 0  0.5000960049864395 0.3749060513286903 0  0.5626163622566127 0.3748833244641847 0  0.6251397376175809 0.3748557838649315 0  0.6876663892135013 0.3748224217208573 0  0.7501964583280057 0.3747822084775561 0  0.8127299149712547 0.3747342705033904 0  0.8752665052057492 0.3746782069221263 0  0.9378057128279508 0.3746145356568718 0  1.00034674472215 0.3745450927028617 0  0 0.4375 0  0.06250938751842354 0.4374917023815017 0  0.1250191129381085 0.4374830778510503 0  0.1875295226241101 0.437473786233936 0  0.2500409799893404 0.4374634604377906 0  0.3125538726144317 0.4374516921058569 0  0.3750686172266908 0.437438016534395 0  0.4375856609603742 0.4374218973484416 0  0.5001054765263394 0.4374027124994798 0  0.5626285479595458 0.4373797451332303 0  0.6251553427271553 0.4373521862782535 0  0.6876862657500665 0.4373191615001943 0  0.750221592416461 0.4372798000868821 0  0.8127613825461082 0.4372333695862734 0  0.8753053869034272 0.4371794913886515 0  0.9378529714324093 0.4371184181874759 0  1.000403095692981 0.4370512800900717 0  0 0.5 0  0.06250973226387291 0.4999916284296994 0  0.1250198323439475 0.4999829368244605 0  0.187530680068221 0.4999735934893649 0  0.2500426792911656 0.4999632431833451 0  0.3125562692482127 0.4999514948606605 0  0.3750719345454979 0.4999379090517428 0  0.4375902122021054 0.4999219852262863 0  0.5001116929321987 0.4999031500886001 0  0.5626370120610236 0.4998807488310002 0  0.6251668231785011 0.4998540431919863 0  0.68770174541743 0.4998222230524893 0  0.7502422747677421 0.4997844423993171 0  0.812788654594862 0.4997398951108366 0  0.8753407158264337 0.4996879482858421 0  0.9378977270259097 0.4996283436619742 0  1.000458331110966 0.4995614493548338 0  0 0.5625 0  0.06250970920786547 0.5624918742676535 0  0.1250198040383488 0.5624834470038826 0  0.1875306858710201 0.5624744068370698 0  0.2500427876505312 0.5624644225867313 0  0.3125565902939823 0.562453133074503 0  0.3750726392845074 0.5624401366217021 0  0.4375915603256812 0.5624249801482193 0  0.500114071369318 0.5624071477435953 0  0.5626409856318266 0.562386048472403 0  0.6251731959402125 0.5623610030935489 0  0.6877116248589764 0.5623312298001019 0  0.7502571190566407 0.562295831516349 0  0.8128102656949376 0.5622537951487495 0  0.8753711257429369 0.5622040319355922 0  0.9379389329350636 0.562145520357904 0  1.00051190319025 0.5620776422930088 0  0 0.625 0  0.06250930029446554 0.6249924213938615 0  0.1250189884047458 0.624984569568778 0  0.1875294713131319 0.6249761633995343 0  0.2500411946476499 0.624966905905636 0  0.3125546644268714 0.6249564762148588 0  0.3750704713933792 0.6249445212583724 0  0.4375893179873483 0.6249306467315593 0  0.5001120465372095 0.6249144061788422 0  0.5626396640827049 0.6248952856750478 0  0.625173353017902 0.62487267910096 0  0.6877144456432238 0.6248458454664144 0  0.7502643237503149 0.624813837039929 0  0.8128241857616785 0.6247753926498798 0  0.8753946240974316 0.6247288231177786 0  0.9379750280520427 0.6246720044823709 0  1.000563056258147 0.6246027379270155 0  0 0.6875 0  0.06250850310029306 0.6874932414963185 0  0.1250173774061261 0.6874862459622892 0  0.1875270156568611 0.6874787704200949 0  0.2500378544153689 0.6874705600749237 0  0.3125504004751117 0.6874613425997108 0  0.3750652628921846 0.687450822488461 0  0.4375831927215191 0.6874386750162162 0  0.5001051319926425 0.6874245383626711 0  0.5626322712149476 0.6874080001707583 0  0.6251661083205911 0.6873885699148832 0  0.6877084866169364 0.6873656189888389 0  0.7502615570861811 0.6873382550855843 0  0.8128275533673261 0.6873050820003981 0  0.8754081973411204 0.6872638132859606 0  0.9380035616768203 0.6872108551432391 0  1.000610593103475 0.6871413758316115 0  0 0.75 0  0.06250733406242839 0.749994298384463 0  0.1250150017110519 0.7499884018443956 0  0.1875233586155436 0.7499821113689799 0  0.2500328058566668 0.7499752200116733 0  0.3125438189672191 0.7499675095679358 0  0.3750569855912489 0.749958748042147 0  0.4375730564656202 0.7499486880438259 0  0.5000930159291173 0.7499370656752068 0  0.5626181792774611 0.7499235975937817 0  0.6251503225719136 0.7499079685645674 0  0.6876918388673183 0.7498897877026476 0  0.7502458750934236 0.7498684577322174 0  0.812816296744178 0.7498428319376425 0  0.875407093947399 0.749810437985016 0  0.938020498945933 0.7497661273280076 0  1.000653173694551 0.7497011674355024 0  0 0.8125 0  0.06250583071487026 0.8124955499481428 0  0.1250119359127627 0.812490951132537 0  0.1875186102435608 0.8124860523074733 0  0.2500261902473822 0.8124806976417861 0  0.3125350825194204 0.8124747255124902 0  0.3750458022950436 0.8124679689368701 0  0.4375590294814222 0.8124602588344202 0  0.5000756934082365 0.8124514319898797 0  0.5625971044908564 0.812441346313256 0  0.6251251610952002 0.8124299054181167 0  0.6876626701524315 0.8124170867945451 0  0.7502138120911175 0.8124029313713359 0  0.812784682052442 0.8123873178708939 0  0.8753834228970935 0.812368933726898 0  0.9380182238554329 0.8123419560588916 0  1.000689514242973 0.8122893715093386 0  0 0.875 0  0.06250405218064732 0.8749969500210429 0  0.1250083001458243 0.8749937998878609 0  0.1875129551971515 0.8749904481714241 0  0.2500182611431187 0.8749867913042684 0  0.312524517021739 0.8749827237332138 0  0.3750321095802305 0.8749781401141548 0  0.4375415630784173 0.8749729415550963 0  0.5000536200830178 0.8749670500466036 0  0.5625693791549414 0.8749604399027079 0  0.6250905402724849 0.8749532051649835 0  0.6876198594960291 0.8749457022375869 0  0.750162010890954 0.8749388374502083 0  0.8127251916518357 0.874934550015666 0  0.8753237110346849 0.8749360199395416 0  0.9379794859710364 0.8749434340931095 0  1.000704392943855 0.8749196484355705 0  0 0.9375 0  0.06250207728215865 0.9374984499887192 0  0.1250042565750954 0.9374968496719627 0  0.1875066483573329 0.9374951482493585 0  0.2500093809485325 0.9374932942037566 0  0.3125126132981325 0.9374912357717425 0  0.375016553778638 0.9374889228804358 0  0.4375214900671917 0.9374863
[...]
<PointData  Vectors="f_54"> 
<DataArray  type="Float64"  Name="f_54"  NumberOfComponents="3" format="ascii">0.0000000000000000e+00 0.0000000000000000e+00 0.0000000000000000e+00  0.0000000000000000e+00 0.0000000000000000e+00 0.0000000000000000e+00  0.0000000000000000e+00 0.0000000000000000e+00 0.0000000000000000e+00  0.0000000000000000e+00 0.0000000000000000e+00 0.0000000000000000e+00  0.0000000000000000e+00 0.0000000000000000e+00 0.0000000000000000e+00  0.0000000000000000e+00 0.0000000000000000e+00 0.0000000000000000e+00  0.0000000000000000e+00 0.0000000000000000e+00 0.0000000000000000e+00  0.0000000000000000e+00 0.0000000000000000e+00 0.0000000000000000e+00  0.0000000000000000e+00 0.0000000000000000e+00 0.0000000000000000e+00  0.0000000000000000e+00 0.0000000000000000e+00 0.0000000000000000e+00  0.0000000000000000e+00 0.0000000000000000e+00 0.0000000000000000e+00  0.0000000000000000e+00 0.0000000000000000e+00 0.0000000000000000e+00  0.0000000000000000e+00 0.0000000000000000e+00 0.0000000000000000e+00  0.0000000000000000e+00 0.0000000000000000e+00 0.0000000000000000e+00  0.0000000000000000e+00 0.0000000000000000e+00 0.0000000000000000e+00  0.0000000000000000e+00 0.0000000000000000e+00 0.0000000000000000e+00  0.0000000000000000e+00 0.0000000000000000e+00 0.0000000000000000e+00  0.0000000000000000e+00 0.0000000000000000e+00 0.0000000000000000e+00  -5.2611293669876130e-08 3.4052437860291173e-08 0.0000000000000000e+00  -1.0677428692495679e-07 6.9580590573776321e-08 0.0000000000000000e+00  -1.6404603100205664e-07 1.0815331998810126e-07 0.0000000000000000e+00  -2.2598425923887915e-07 1.5153545308530470e-07 0.0000000000000000e+00  -2.9413607526874377e-07 2.0182273900343501e-07 0.0000000000000000e+00  -3.7001238505742215e-07 2.6163502491644228e-07 0.0000000000000000e+00  -4.5504359513747101e-07 3.3441855929066900e-07 0.0000000000000000e+00  -5.5051301004443602e-07 4.2495820088585543e-07 0.0000000000000000e+00  -6.5746618517054638e-07 5.4031329605522315e-07 0.0000000000000000e+00  -7.7659691021352337e-07 6.9166333843102868e-07 0.0000000000000000e+00  -9.0811031822961325e-07 8.9825615467348439e-07 0.0000000000000000e+00  -1.0515448690743320e-06 1.1966402018482962e-06 0.0000000000000000e+00  -1.2054232453104222e-06 1.6644573034156447e-06 0.0000000000000000e+00  -1.3660453695524629e-06 2.4883909975810896e-06 0.0000000000000000e+00  -1.5220196122308497e-06 4.1792487426384796e-06 0.0000000000000000e+00  -1.6276344148346419e-06 8.3229392174499166e-06 0.0000000000000000e+00  0.0000000000000000e+00 0.0000000000000000e+00 0.0000000000000000e+00  -1.0367099690056441e-07 6.6629283900803262e-08 0.0000000000000000e+00  -2.1044318824001724e-07 1.3611898875053862e-07 0.0000000000000000e+00  -3.2343284580169638e-07 2.1150255325589723e-07 0.0000000000000000e+00  -4.4576712188086269e-07 2.9617515798917482e-07 0.0000000000000000e+00  -5.8056618855303306e-07 3.9413581940482567e-07 0.0000000000000000e+00  -7.3089655485019551e-07 5.1032298496322062e-07 0.0000000000000000e+00  -8.9968596037386217e-07 6.5111863573455136e-07 0.0000000000000000e+00  -1.0895917632672177e-06 8.2515948924764285e-07 0.0000000000000000e+00  -1.3028186714390472e-06 1.0447238548010935e-06 0.0000000000000000e+00  -1.5408896198778225e-06 1.3282332620285177e-06 0.0000000000000000e+00  -1.8043889721355789e-06 1.7049761970102361e-06 0.0000000000000000e+00  -2.0927332882027440e-06 2.2243282818495224e-06 0.0000000000000000e+00  -2.4041495183690457e-06 2.9738866285147731e-06 0.0000000000000000e+00  -2.7366137094584530e-06 4.1132239378061574e-06 0.0000000000000000e+00  -3.0934277284564069e-06 5.9213934985556660e-06 0.0000000000000000e+00  -3.5123961305749318e-06 8.7634548440825426e-06 0.0000000000000000e+00  0.0000000000000000e+00 0.0000000000000000e+00 0.0000000000000000e+00  -1.5162712936104473e-07 9.6344355671953880e-08 0.0000000000000000e+00  -3.0789544510785471e-07 1.9676447609057769e-07 0.0000000000000000e+00  -4.7347964577788632e-07 3.0556667053110400e-07 0.0000000000000000e+00  -6.5309450060432688e-07 4.2753486761754016e-07 0.0000000000000000e+00  -8.5148025948518130e-07 5.6823645667933484e-07 0.0000000000000000e+00  -1.0733444096050784e-06 7.3442544774381266e-07 0.0000000000000000e+00  -1.3232437378185274e-06 9.3461005274078776e-07 0.0000000000000000e+00  -1.6053916469576746e-06 1.1798948627579455e-06 0.0000000000000000e+00  -1.9233800732743558e-06 1.4852807020235404e-06 0.0000000000000000e+00  -2.2798153986863664e-06 1.8717175617074030e-06 0.0000000000000000e+00  -2.6758853705203787e-06 2.3693363110623518e-06 0.0000000000000000e+00  -3.1108972104418530e-06 3.0222569615852298e-06 0.0000000000000000e+00  -3.5818298084351940e-06 3.8944038419716690e-06 0.0000000000000000e+00  -4.0827554605249350e-06 5.0709945202459325e-06 0.0000000000000000e+00  -4.6025780531042601e-06 6.6328087270508781e-06 0.0000000000000000e+00  -5.1107967222150049e-06 8.5279915372055770e-06 0.0000000000000000e+00  0.0000000000000000e+00 0.0000000000000000e+00 0.0000000000000000e+00  -1.9493793740331347e-07 1.2198141437357782e-07 0.0000000000000000e+00  -3.9603084303968039e-07 2.4902800410937685e-07 0.0000000000000000e+00  -6.0949851876961834e-07 3.8646794166248426e-07 0.0000000000000000e+00  -8.4165825483304145e-07 5.4016855025642195e-07 0.0000000000000000e+00  -1.0989289003215856e-06 7.1686312314864489e-07 0.0000000000000000e+00  -1.3877770373166644e-06 9.2455467985239862e-07 0.0000000000000000e+00  -1.7145811307553279e-06 1.1730370722406480e-06 0.0000000000000000e+00  -2.0853881817669843e-06 1.4745854413728678e-06 0.0000000000000000e+00  -2.5055400296102998e-06 1.8448743660866681e-06 0.0000000000000000e+00  -2.9791566640531536e-06 2.3041576707850978e-06 0.0000000000000000e+00  -3.5084858566712282e-06 2.8786124088168476e-06 0.0000000000000000e+00  -4.0931649189622041e-06 3.6013068071953025e-06 0.0000000000000000e+00  -4.7294913484517639e-06 4.5110234910396219e-06 0.0000000000000000e+00  -5.4098816620421190e-06 5.6443327490465440e-06 0.0000000000000000e+00  -6.1230599455814565e-06 7.0117667321881281e-06 0.0000000000000000e+00  -6.8582380313656347e-06 8.5509242609864199e-06 0.0000000000000000e+00  0.0000000000000000e+00 0.0000000000000000e+00 0.0000000000000000e+00  -2.3208885223545094e-07 1.4255086078329053e-07 0.0000000000000000e+00  -4.7178970772578009e-07 2.9089817000926640e-07 0.0000000000000000e+00  -7.2682723734735443e-07 4.5111163418917948e-07 0.0000000000000000e+00  -1.0051174864485995e-06 6.2981563190811677e-07 0.0000000000000000e+00  -1.3148119807475349e-06 8.3450626855366424e-07 0.0000000000000000e+00  -1.6642723735642626e-06 1.0739154194099988e-06 0.0000000000000000e+00  -2.0619420090029955e-06 1.3584335048440791e-06 0.0000000000000000e+00  -2.5160745132445428e-06 1.7005900812417282e-06 0.0000000000000000e+00  -3.0342767306705803e-06 2.1155565436346476e-06 0.0000000000000000e+00  -3.6228296262555346e-06 2.6215504133056671e-06 0.0000000000000000e+00  -4.2857743795625925e-06 3.2398313006799260e-06 0.0000000000000000e+00  -5.0238011959601587e-06 3.9935944956162480e-06 0.0000000000000000e+00  -5.8330611730538101e-06 4.9043991630995201e-06 0.0000000000000000e+00  -6.7041272286885217e-06 5.9839598053252916e-06 0.0000000000000000e+00  -7.6213858832011205e-06 7.2193997601040832e-06 0.0000000000000000e+00  -8.5626462244021644e-06 8.5555128573243764e-06 0.0000000000000000e+00  0.0000000000000000e+00 0.0000000000000000e+00 0.0000000000000000e+00  -2.6162315784235860e-07 1.5732193991902866e-07 0.0000000000000000e+00  -5.3221049274547434e-07 3.2090272413393126e-07 0.0000000000000000e+00  -8.2090552663820172e-07 4.9726848489496687e-07 0.0000000000000000e+00  -1.1371792632866039e-06 6.9348406794495580e-07 0.0000000000000000e+00  -1.4909415051214204e-06 9.1744497567693400e-07 0.0000000000000000e+00  -1.8925775217195894e-06 1.1781900249966567e-06 0.0000000000000000e+00  -2.3528667610679413e-06 1.4862267812444045e-06 0.0000000000000000e+00  -2.8827258067299181e-06 1.8538380277261028e-06 0.0000000000000000e+00  -3.4927039639671305e-06 2.2952894610307592e-06 0.0000000000000000e+00  -4.1921541298586079e-06 2.8267679261035372e-06 0.0000000000000000e+00  -4.9880176575412188e-06 3.4657221595088480e-06 0.0000000000000000e+00  -5.8832205605064773e-06 4.2290423406167793e-06 0.0000000000000000e+00  -6.8748031297095244e-06 5.1292603431636493e-06 0.0000000000000000e+00  -7.9521063417057534e-06 6.1679582345803937e-06 0.0000000000000000e+00  -9.0955863272603812e-06 7.3265653405224435e-06 0.0000000000000000e+00  -1.0277074411361150e-05 8.5577619511796525e-06 0.0000000000000000e+00  0.0000000000000000e+00 0.0000000000000000e+00 0.0000000000000000e+00  -2.8219009407906167e-07 1.6583336893488012e-07 0.0000000000000000e+00  -5.7452367488827072e-07 3.3812396744794909e-07 0.0000000000000000e+00  -8.8740900249159337e-07 5.2358033657120247e-07 0.0000000000000000e+00  -1.2317610514445183e-06 7.2941629798450469e-07 0.0000000000000000e+00  -1.6192114991754982e-06 9.6361468622845483e-07 0.0000000000000000e+00  -2.0622506459930726e-06 1.2351966068523127e-06 0.0000000000000000e+00  -2.5742509144104752e-06 1.5544812928280175e-06 0.0000000000000000e+00  -3.1692955307096069e-06 1.9332982092064198e-06 0.0000000000000000e+00  -3.8617037526385102e-06 2.3850701856235043e-06 0.0000000000000000e+00  -4.6651126491707755e-06 2.9246130033488147e-06 0.0000000000000000e+00  -5.5909633495775285e-06 3.5673833495104419e-06 0.0000000000000000e+00  -6.6462834464513208e-06 4.3277604408235523e-06 0.0000000000000000e+00  -7.8308135727233756e-06 5.2158288534283925e-06 0.0000000000000000e+00  -9.1338524570966487e-06 6.2322246293651420e-06 0.0000000000000000e+00  -1.0531680526581145e-05 7.3612656482700325e-06 0.0000000000000000e+00  -1.1986854058792617e-05 8.5641409378890446e-06 0.0000000000000000e+00  0.0000000000000000e+00 0.0000000000000000e+00 0.0000000000000000e+00  -2.9261269759680408e-07 1.6788827608181981e-07 0.0000000000000000e+00  -5.9628769616655638e-07 3.4218260105166575e-07 0.0000000000000000e+00  -9.2245231702014572e-07 5.2951889463678932e-07 0.0000000000000000e+00  -1.2832558845978974e-06 7.3699666367751483e-07 0.0000000000000000e+00  -1.6919103459159209e-06 9.7241738673388223e-07 0.0000000000000000e+00  -2.1629877178252584e-06 1.2445253338295375e-06 0.0000000000000000e+00  -2.7126246115787193e-06 1.5632401947935479e-06 0.0000000000000000e+00  -3.3585450052712312e-06 1.9398559481492871e-06 0.0000000000000000e+00  -4.1197547323886963e-06 2.3871537162675104e-06 0.0000000000000000e+00  -5.0156858771262744e-06 2.9193301471684722e-06 0.0000000000000000e+00  -6.0644926547144697e-06 3.5515661247277719e-06 0.0000000000000000e+00  -7.2801728287716905e-06 4.2989413648545039e-06 0.0000000000000000e+00  -8.6683193739148917e-06 5.1742366235021295e-06 0.0000000000000000e+00  -1.0220768026309592e-05 6.1839977483505068e-06 0.0000000000000000e+00  -1.1910340924757905e-05 7.3222306231835137e-06 0.0000000000000000e+00  -1.3688098128718257e-05 8.5617181939219055e-06 0.0000000000000000e+00  0.0000000000000000e+00 0.0000000000000000e+00 0.0000000000000000e+00  -2.9197512965125670e-07 1.6353951643237857e-07 0.0000000000000000e+00  -5.9556785627682724e-07 3.3320406609281488e-07 0.0000000000000000e+00  -9.2286669356847544e-07 5.1532388046293218e-07 0.0000000000000000e+00  -1.2869151252898592e-06 7.1664620569408987e-07 0.0000000000000000e+00  -1.7022083206001272e-06 9.4455091013726851e-07 0.0000000000000000e+00  -2.1851957898208966e-06 1.2072735251963728e-06 0.0000000000000000e+00  -2.7547556030283344e-06 1.5141362139926422e-06 0.0000000000000000e+00  -3.4325574945535531e-06 1.8757855743716716e-06 0.0000000000000000e+00  -4.2431479856690383e-06 2.3044334111342933e-06 0.0000000000000000e+00  -5.2134553133678682e-06 2.8140885212648008e-06 0.0000000000000000e+00  -6.3712206085231677e-06 3.4207395497953706e-06 0.0000000000000000e+00  -7.7416541636359047e-06 4.1423593720777449e-06 0.0000000000000000e+00  -9.3415486573615552e-06 4.9983512091977651e-06 0.0000000000000000e+00  -1.1170532749333042e-05 6.0074621041419096e-06 0.0000000000000000e+00  -1.3200726288421727e-05 7.1820554627577275e-06 0.0000000000000000e+00  -1.5369077283250076e-05 8.5152236904892687e-06 0.0000000000000000e+00  0.0000000000000000e+00 0.0000000000000000e+00 0.0000000000000000e+00  -2.7972528339187870e-07 1.5306969371546025e-07 0.0000000000000000e+00  -5.7115110392573671e-07 3.1177661770649188e-07 0.0000000000000000e+00  -8.8654528754126598e-07 4.8193577742925647e-07 0.0000000000000000e+00  -1.2393492815985902e-06 6.6972699588656441e-07 0.0000000000000000e+00  -1.6448393574875948e-06 8.8188607122384080e-07 0.0000000000000000e+00  -2.1208688016002996e-06 1.1259095884700765e-06 0.0000000000000000e+00  -2.6886943538741930e-06 1.4102853463613433e-06 0.0000000000000000e+00  -3.3738461989613170e-06 1.7447729232888305e-06 0.0000000000000000e+00  -4.2069053975668576e-06 2.1407841446424325e-06 0.0000000000000000e+00  -5.2238621493243203e-06 2.6119577558345205e-06 0.0000000000000000e+00  -6.4653826738773619e-06 3.1750850457934308e-06 0.0000000000000000e+00  -7.9737683193124092e-06 3.8515822839392671e-06 0.0000000000000000e+00  -9.7857483569085994e-06 4.6695531230983291e-06 0.0000000000000000e+00  -1.1919081961123598e-05 5.6656579767796420e-06 0.0000000000000000e+00  -1.4352849666626713e-05 6.8834824634624349e-06 0.0000000000000000e+00  -1.7007905644056681e-05 8.3596206362531149e-06 0.0000000000000000e+00  0.0000000000000000e+00 0.0000000000000000e+00 0.0000000000000000e+00  -2.5578314508391386e-07 1.3696789160068158e-07 0.0000000000000000e+00  -5.2277839094307606e-07 2.7890454133921790e-07 0.0000000000000000e+00  -8.1283152994178088e-07 4.3092627804298259e-07 0.0000000000000000e+00  -1.1391214155975590e-06 5.9845480281268144e-07 0.0000000000000000e+00  -1.5169639688989033e-06 7.8737764412646697e-07 0.0000000000000000e+00  -1.9647906351496744e-06 1.0042228450927254e-06 0.0000000000000000e+00  -2.5053676275275679e-06 1.2563643938852556e-06 0.0000000000000000e+00  -3.1673086118028519e-06 1.5522958457251676e-06 0.0000000000000000e+00  -3.9868704057844525e-06 1.9020561757833961e-06 0.0000000000000000e+00  -5.0098356393541268e-06 2.3179904240220157e-06 0.0000000000000000e+00  -6.2928300832594641e-06 2.8162216676525086e-06 0.0000000000000000e+00  -7.9024415164712512e-06 3.4195470106601412e-06 0.0000000000000000e+00  -9.9087162705175096e-06 4.1628964287682163e-06 0.0000000000000000e+00  -1.2367231720428619e-05 5.1024603284684515e-06 0.0000000000000000e+00  -1.5283558969704540e-05 6.3269264066834792e-06 0.0000000000000000e+00  -1.8564223400458364e-05 7.9582315706657809e-06 0.0000000000000000e+00  0.0000000000000000e+00 0.0000000000000000e+00 0.0000000000000000e+00  -2.2063934855898429e-07 1.1590338721676156e-07 0.0000000000000000e+00  -4.5136266498173942e-07 2.3595578823651044e-07 0.0000000000000000e+00  -7.0290144736702449e-07 3.6442146332956945e-07 0.0000000000000000e+00  -9.8736875602894525e-07 5.0580401313120174e-07 0.0000000000000000e+00  -1.3191427234436130e-06 6.6496866099076641e-07 0.0000000000000000e+00  -1.7160150117397462e-06 8.4727039719194762e-07 0.0000000000000000e+00  -2.2007502105050737e-06 1.0586970937925451e-06 0.0000000000000000e+00  -2.8032514552173856e-06 1.3060523295968413e-06 0.0000000000000000e+00  -3.5635698063758836e-06 1.5972443417814624e-06 0.0000000000000000e+00  -4.5359620179121105e-06 1.9418564960352482e-06 0.0000000000000000e+00  -5.7938883061847526e-06 2.3524533516232560e-06 0.0000000000000000e+00  -7.4347100126531527e-06 2.8477613336102473e-06 0.0000000000000000e+00  -9.5796867825053243e-06 3.4604159328041478e-06 0.0000000000000000e+00  -1.2357703525568670e-05 4.2548980147662069e-06 0.0000000000000000e+00  -1.5849801267046074e-05 5.3642046452684587e-06 0.0000000000000000e+00  -1.9971615372840567e-05 7.0444657524246103e-06 0.0000000000000000e+00  0.0000000000000000e+00 0.0000000000000000e+00 0.0000000000000000e+00  -1.7542312186028174e-07 9.0696156093693322e-08 0.0000000000000000e+00  -3.5914770024576407e-07 1.8460242356690478e-07 0.0000000000000000e+00  -5.6006508520630591e-07 2.8501153057982415e-07 0.0000000000000000e+00  -7.8834003152600003e-07 3.9538718896888188e-07 0.0000000000000000e+00  -1.0562657990254538e-06 5.1944486223751847e-07 0.0000000000000000e+00  -1.3794368291494106e-06 6.6122437551464645e-07 0.0000000000000000e+00  -1.7784532653516980e-06 8.2514616199715334e-07 0.0000000000000000e+00  -2.2815021687674766e-06 1.0160371982464484e-06 0.0000000000000000e+00  -2.9283757938065663e-06 1.2391082770139246e-06 0.0000000000000000e+00  -3.7768114350589163e-06 1.4998814664386592e-06 0.0000000000000000e+00  -4.9124049685286290e-06 1.8041937259520477e-06 0.0000000000000000e+00  -6.4632763505519762e-06 2.1589744926435843e-06 0.0000000000000000e+00  -8.6181192926992399e-06 2.5766622316859156e-06 0.0000000000000000e+00  -1.1634494405558256e-05 3.0933972579131405e-06 0.0000000000000000e+00  -1.5786303825194381e-05 3.8318753154430338e-06 0.0000000000000000e+00  -2.1123901651292685e-05 5.1790067313714678e-06 0.0000000000000000e+00  0.0000000000000000e+00 0.0000000000000000e+00 0.0000000000000000e+00  -1.2191676801228346e-07 6.2284738112093833e-08 0.0000000000000000e+00  -2.4975614659810656e-07 1.2675455804918589e-07 0.0000000000000000e+00  -3.8989381755089099e-07 1.9564652715639998e-07 0.0000000000000000e+00  -5.4969232829467802e-07 2.7130420855704647e-07 0.0000000000000000e+00  -7.3818916121774014e-07 3.5622141341239735e-07 0.0000000000000000e+00  -9.6707977673198463e-07 4.5306761442534151e-07 0.0000000000000000e+00  -1.2522230739526251e-06 5.6467148896407023e-07 0.0000000000000000e+00  -1.6160789014214761e-06 6.9390871076143495e-07 0.0000000000000000e+00  -2.0918522290690549e-06 8.4336950618805886e-07 0.0000000000000000e+00  -2.7308642915049093e-06 1.0145190356898297e-06 0.0000000000000000e+00  -3.6162012830875255e-06 1.2057056632184088e-06 0.0000000000000000e+00  -4.8886971230951253e-06 1.4076829683498508e-06 0.0000000000000000e+00  -6.7961194465757220e-06 1.5945820797195041e-06 0.0000000000000000e+00  -9.7770299098937042e-06 1.7114820055896487e-06 0.0000000000000000e+00  -1.4537500085823324e-05 1.6934494959110943e-06 0.0000000000000000e+00  -2.1680190377149611e-05 1.7611171255550394e-06 0.0000000000000000e+00  0.0000000000000000e+00 0.0000000000000000e+00 0.0000000000000000e+00  -6.2497647660018354e-08 3.1693263126744186e-08 0.0000000000000000e+00  -1.2808116946466419e-07 6.4492026197518813e-08 0.0000000000000000e+00  -2.0008334012863571e-07 9.9526486579630168e-08 0.0000000000000000e+00  -2.8237781312196917e-07 1.3797682368385900e-07 0.0000000000000000e+00  -3.7976540653725381e-07 1.8109051573563896e-07 0.0000000000000000e+00  -4.9854071951726807e-07 2.3018422239690577e-07 0.0000000000000000e+00  -6.4739012190218759e-07 2.8660871333751736e-07 0.0000000000000000e+00  -8.3891335967475512e-07 3.5162333415772414e-07 0.0000000000000000e+00  -1.0923782471354843e-06 4.2604134788383805e-07 0.0000000000000000e+00  -1.4390826811518386e-06 5.0926924963208614e-07 0.0000000000000000e+00  -1.9337010186950692e-06 5.9665668777857262e-07 0.0000000000000000e+00  -2.6807336394856440e-06 6.7183814469731622e-07 0.0000000000000000e+00  -3.9032549448062691e-06 6.8316681769291762e-07 0.0000000000000000e+00  -6.1435804790350273e-06 4.6574769165717934e-07 0.0000000000000000e+00  -1.0921352537682326e-05 -5.3734749263464202e-07 0.0000000000000000e+00  -2.3153097051398714e-05 -4.3578666924700627e-06 0.0000000000000000e+00  0.0000000000000000e+00 0.0000000000000000e+00 0.0000000000000000e+00  0.0000000000000000e+00 0.0000000000000000e+00 0.0000000000000000e+00  0.0000000000000000e+00 0.0000000000000000e+00 0.0000000000000000e+00  0.0000000000000000e+00 0.0000000000000000e+00 0.0000000000000000e+00  0.0000000000000000e+00 0.0000000000000000e+00 0.0000000000000000e+00  0.0000000000000000e+00 0.0000000000000000e+00 0.0000000000000000e+00  0.0000000000000000e+00 0.0000000000000000e+00 0.0000000000000000e+00  0.0000000000000000e+00 0.0000000000000000e+00 0.0000000000000000e+00  0.0000000000000000e+00 0.0000000000000000e+00 0.00