<?xml version="1.0"?>
<VTKFile type="UnstructuredGrid"  version="0.1"  >
<UnstructuredGrid>
<Piece  NumberOfPoints="289" NumberOfCells="512">
<Points>
<DataArray  type="Float64"  NumberOfComponents="3"  format="ascii">0 0 0  0.0625 0 0  0.125 0 0  0.1875 0 0  0.25 0 0  0.3125 0 0  0.375 0 0  0.4375 0 0  0.5 0 0  0.5625 0 0  0.625 0 0  0.6875 0 0  0.75 0 0  0.8125 0 0  0.875 0 0  0.9375 0 0  1 0 0  0 0.0625 0  0.0624991462831499 0.06250116749658415 0  0.1249982677040109 0.06250238320379073 0  0.1874973391094373 0.06250369813097226 0  0.2499963353943405 0.06250516924555144 0  0.3124952317058348 0.06250686361488189 0  0.374994003887022 0.06250886439908843 0  0.4374926292363514 0.0625112803394363 0  0.4999910876466477 0.06251426201598838 0  0.5624893631636171 0.06251803186677021 0  0.6249874459678828 0.06252294406003366 0  0.6874853347453832 0.06252961448628314 0  0.7499830393466185 0.06253923138518498 0  0.8124805831891422 0.06255438072988771 0  0.874978001582869 0.06258149641529827 0  0.9374753135783178 0.06263895002115075 0  0.9999723700551731 0.06278635987332568 0  0 0.125 0  0.06249831760081995 0.125002286523212 0  0.1249965854639964 0.1250046666575644 0  0.1874947532274484 0.12500723919193 0  0.2499927704659078 0.1250101138606688 0  0.3124905870214968 0.1250134187217865 0  0.3749881538187924 0.1250173104810372 0  0.437485424326448 0.1250219901666834 0  0.4999823568087295 0.1250277286034752 0  0.5624789174633332 0.1250349102708103 0  0.6249750844689616 0.1250441126186092 0  0.6874708529293907 0.125056255246807 0  0.7499662410126351 0.1250728865433353 0  0.8124612996565261 0.1250967232369009 0  0.8749561385597238 0.1251325266162516 0  0.9374510308150372 0.1251875904983548 0  0.9999469033297855 0.1252654095596782 0  0 0.1875 0  0.06249753908662298 0.1875033116539786 0  0.1249950036290685 0.1875067571528601 0  0.1874923180368324 0.1875104772058928 0  0.249989406227355 0.1875146268793896 0  0.3124861919225394 0.1875193848184204 0  0.3749825996788628 0.1875249654841204 0  0.4374785569190016 0.1875316365474193 0  0.4999739972191594 0.1875397449697116 0  0.5624688650365417 0.1875497576038864 0  0.6249631218916007 0.1875623255704546 0  0.6874567536684353 0.187578385279023 0  0.7499497779109965 0.187599306811668 0  0.812442247613439 0.1876270687278461 0  0.8749342381655735 0.1876643027778203 0  0.9374257566580312 0.1877136527671105 0  0.9999162694898759 0.1877753568728236 0  0 0.25 0  0.06249683573170796 0.2500042026369056 0  0.124993572424072 0.2500085725133902 0  0.1874901094309781 0.2500132846623251 0  0.2499863447130793 0.2500185302056374 0  0.3124821748484611 0.2500245260637098 0  0.3749774960176323 0.2500315269554719 0  0.4374722063648723 0.2500398409702212 0  0.4999662101602153 0.2500498504160978 0  0.5624594241389195 0.2500620399283818 0  0.6249517862093303 0.2500770331382784 0  0.6874432663042875 0.2500956351657351 0  0.7499338784233218 0.2501188646491282 0  0.8124236920151424 0.2501479224720299 0  0.8749128415575302 0.2501839636073351 0  0.9374015478491656 0.2502274134459223 0  0.9998902708346007 0.2502765524669772 0  0 0.3125 0  0.06249623211647864 0.3125049260702518 0  0.1249923414885017 0.3125100450107902 0  0.1874882030146666 0.312515557775921 0  0.2499836886878545 0.3125216817813302 0  0.3124786669690799 0.3125286601529696 0  0.3749730033344935 0.3125367722022062 0  0.437466562558016 0.3125463454663993 0  0.4999592133961605 0.3125577693476812 0  0.5624508363845487 0.3125715094646788 0  0.6249413353400887 0.3125881194679707 0  0.6874306527506467 0.3126082415913066 0  0.7499187883876134 0.3126325758037148 0  0.8124058191991638 0.3126617770523029 0  0.8748919171968742 0.3126962134931154 0  0.9373773604535534 0.3127355138788097 0  0.9998625166993939 0.3127779389933453 0  0 0.375 0  0.06249575191831341 0.3750054563291104 0  0.1249913589561414 0.3750111230980767 0  0.1874866728945531 0.3750172187068053 0  0.2499815403862685 0.3750239775653403 0  0.3124758012437941 0.3750316584643408 0  0.3749692879962617 0.3750405531813397 0  0.4374618274440685 0.3750509949561329 0  0.4999532451831674 0.3750633658151912 0  0.5624433742987617 0.3750781004551753 0  0.6249320695131427 0.3750956820367815 0  0.6874192277825615 0.3751166211560984 0  0.7499048153351662 0.3751414030359046 0  0.8123888990810324 0.3751703808987327 0  0.874871677137625 0.3752035924744614 0  0.9373534995314444 0.3752405016178414 0  0.9998348682471347 0.3752797573196111 0  0 0.4375 0  0.06249541713338101 0.437505775861578 0  0.1249906699388184 0.4375117717799087 0  0.187485589523441 0.4375182154685881 0  0.2499799989139635 0.4375253499125075 0  0.3124737097355096 0.4375334408978133 0  0.3749665200605004 0.4375427841121216 0  0.4374582142822194 0.4375537110746281 0  0.4999485663064513 0.4375665924459052 0  0.5624373478917526 0.4375818361246829 0  0.6249243444759466 0.4375998758308694 0  0.687409380976182 0.4376211436069067 0  0.7498923592047402 0.4376460173225085 0  0.8123733057498445 0.437674733446573 0  0.8748524235759682 0.4377072596645721 0  0.9373301327790315 0.4377431369518072 0  0.9998070803622802 0.4377813289900817 0  0 0.5 0  0.06249524697332178 0.5000058750767929 0  0.124990314316713 0.5000119721560459 0  0.1874850164029399 0.5000185205910879 0  0.2499791559558771 0.5000257643635626 0  0.312472518583056 0.5000339690934099 0  0.3749648680742398 0.5000434283697694 0  0.4374559433211881 0.5000544685853675 0  0.4999454583766484 0.500067450831147 0  0.562433108141529 0.5000827675290255 0  0.6249185834137732 0.5001008304201119 0  0.6874016002370124 0.5001220455942411 0  0.7498819487234735 0.5001467711519325 0  0.8123595638508069 0.5001752548582226 0  0.8748346122484159 0.5002075530868437 0  0.9373075728313971 0.5002434347599281 0  0.9997792706197004 0.5002822606584367 0  0 0.5625 0  0.06249525643903214 0.5625057520582744 0  0.1249903238158854 0.5625117206752084 0  0.187485005550948 0.5625181295311469 0  0.2499790895329146 0.5625252165465903 0  0.3124723400702188 0.5625332407831199 0  0.3749644897972972 0.5625424888184993 0  0.4374552321454075 0.5625532799266618 0  0.4999442158156151 0.5625659688819123 0  0.562431044126314 0.5625809445205546 0  0.6249152843916024 0.562598621466997 0  0.6873964956492734 0.5626194221189471 0  0.7498742862849849 0.5626437470972278 0  0.8123484134357369 0.5626719363947791 0  0.8748189266553213 0.5627042307420665 0  0.9372863288028721 0.5627407468205412 0  0.9997516739279769 0.5627814604336403 0  0 0.625 0  0.06249545463875666 0.6250054122765459 0  0.1249907184842515 0.6250110284846206 0  0.1874855918326654 0.6250170595000287 0  0.2499798557825648 0.6250237302328406 0  0.3124732614492398 0.6250312867489692 0  0.3749655178824582 0.6250400033543316 0  0.4374562786760074 0.6250501892978053 0  0.4999451280245333 0.6250621943509165 0  0.5624315686373664 0.6250764118920533 0  0.6249150172016644 0.6250932772702021 0  0.6873948189911322 0.625113258499401 0  0.7498703023442433 0.6251368371208138 0  0.8123409039022872 0.6251644829921071 0  0.8748063956892123 0.6251966438664042 0  0.9372672061734559 0.6252337971649069 0  0.9997247066944654 0.625276587637004 0  0 0.6875 0  0.06249584300563689 0.687504868377995 0  0.1249915028639734 0.6875099210361202 0  0.1874867865562375 0.6875153489593381 0  0.2499814791669285 0.6875213568761521 0  0.3124753307033675 0.6875281707082674 0  0.3749680400492876 0.6875360457025261 0  0.4374592349837594 0.687545275394542 0  0.4999484474609038 0.6875562013336355 0  0.5624350844801387 0.6875692229125486 0  0.6249183981588154 0.6875848053027475 0  0.6873974666303643 0.6876034809451493 0  0.749871214520116 0.6876258367982284 0  0.8123385326474217 0.6876524811956191 0  0.8747985956373602 0.6876840127760991 0  0.9372514712608279 0.6877211229401207 0  0.9996988956232987 0.6877651695854097 0  0 0.75 0  0.06249641367025056 0.7500041400226661 0  0.1249926623846257 0.7500084378779325 0  0.1874885711369925 0.7500130576339465 0  0.2499839421599831 0.7500181763364417 0  0.3124785403876852 0.7500239915631425 0  0.3749720745231866 0.7500307304478235 0  0.4374641712943554 0.750038660969864 0  0.4999543396760194 0.7500481064790588 0  0.5624419212036484 0.7500594642747654 0  0.6249260232131769 0.7500732276693544 0  0.6874054375570641 0.7500900060360879 0  0.7498785677070038 0.7501105243189984 0  0.8123434440333926 0.7501355584123369 0  0.8747980365367177 0.7501657488310703 0  0.9372412765555008 0.7502014090335578 0  0.9996751490329541 0.7502435469423722 0  0 0.8125 0  0.06249714833149243 0.8125032536553219 0  0.124994160717743 0.8125066323658018 0  0.1874908920690813 0.8125102665538103 0  0.2499871762744856 0.8125142979737455 0  0.3124828120957005 0.8125188867625207 0  0.3749775437678128 0.8125242205519716 0  0.4374710327253934 0.8125305271070913 0  0.4999628146759789 0.8125380928297605 0  0.5624522326098383 0.8125472906741888 0  0.6249383308660852 0.8125586219032344 0  0.6874196892148717 0.8125727733678141 0  0.7498941776136784 0.812590673046953 0  0.8123586583645791 0.812613450937576 0  0.8748088788541114 0.8126419761046025 0  0.9372405280063848 0.8126751322933604 0  0.9996541082203231 0.8127063604012238 0  0 0.875 0  0.06249801800456609 0.8750022420408122 0  0.1249959389501684 0.8750045709028001 0  0.1874936587562172 0.8750070774031081 0  0.2499910570327652 0.8750098608971274 0  0.3124879857134787 0.8750130348898016 0  0.3749842527616738 0.8750167347615114 0  0.4374795971350087 0.8750211294023521 0  0.4999736481127355 0.8750264401385056 0  0.5624658558890538 0.8750329735679802 0  0.624955367587122 0.8750411814358943 0  0.6874407964090981 0.8750517728468153 0  0.7499197786046173 0.875065920197998 0  0.8123881228806834 0.875085578563781 0  0.8748383130596352 0.875113587983927 0  0.9372579081471516 0.8751508735534015 0  0.9996347975249902 0.8751744640202846 0  0 0.9375 0  0.06249898396256823 0.9375011433939283 0  0.1249979173372557 0.9375023313018481 0  0.1874967457104851 0.9375036103845782 0  0.2499954057273304 0.9375050319272463 0  0.3124938187077358 0.9375066549922155 0  0.3749918812506711 0.9375085509496209 0  0.43748945
[...]
<PointData  Vectors="f_54"> 
<DataArray  type="Float64"  Name="f_54"  NumberOfComponents="3" format="ascii">0.0000000000000000e+00 0.0000000000000000e+00 0.0000000000000000e+00  0.0000000000000000e+00 0.0000000000000000e+00 0.0000000000000000e+00  0.0000000000000000e+00 0.0000000000000000e+00 0.0000000000000000e+00  0.0000000000000000e+00 0.0000000000000000e+00 0.0000000000000000e+00  0.0000000000000000e+00 0.0000000000000000e+00 0.0000000000000000e+00  0.0000000000000000e+00 0.0000000000000000e+00 0.0000000000000000e+00  0.0000000000000000e+00 0.0000000000000000e+00 0.0000000000000000e+00  0.0000000000000000e+00 0.0000000000000000e+00 0.0000000000000000e+00  0.0000000000000000e+00 0.0000000000000000e+00 0.0000000000000000e+00  0.0000000000000000e+00 0.0000000000000000e+00 0.0000000000000000e+00  0.0000000000000000e+00 0.0000000000000000e+00 0.0000000000000000e+00  0.0000000000000000e+00 0.0000000000000000e+00 0.0000000000000000e+00  0.0000000000000000e+00 0.0000000000000000e+00 0.0000000000000000e+00  0.0000000000000000e+00 0.0000000000000000e+00 0.0000000000000000e+00  0.0000000000000000e+00 0.0000000000000000e+00 0.0000000000000000e+00  0.0000000000000000e+00 0.0000000000000000e+00 0.0000000000000000e+00  0.0000000000000000e+00 0.0000000000000000e+00 0.0000000000000000e+00  0.0000000000000000e+00 0.0000000000000000e+00 0.0000000000000000e+00  1.0999045109761430e-07 -9.7445169114722699e-08 0.0000000000000000e+00  2.2323387882573960e-07 -1.9914959535144564e-07 0.0000000000000000e+00  3.4298585562279773e-07 -3.0963843401314944e-07 0.0000000000000000e+00  4.7250487667028876e-07 -4.3401411418418514e-07 0.0000000000000000e+00  6.1502894834032737e-07 -5.7835458239273512e-07 0.0000000000000000e+00  7.7372236419122904e-07 -7.5028479982435137e-07 0.0000000000000000e+00  9.5158289783429667e-07 -9.5987247799887283e-07 0.0000000000000000e+00  1.1513008675334740e-06 -1.2211473340389752e-06 0.0000000000000000e+00  1.3750637468516014e-06 -1.5548816555332443e-06 0.0000000000000000e+00  1.6243016124444041e-06 -1.9940958819192077e-06 0.0000000000000000e+00  1.8993623481659911e-06 -2.5959324944927050e-06 0.0000000000000000e+00  2.1990645804024814e-06 -3.4698090416491600e-06 0.0000000000000000e+00  2.5199081605442193e-06 -4.8514435373344032e-06 0.0000000000000000e+00  2.8540948590089802e-06 -7.3196065282119600e-06 0.0000000000000000e+00  3.1831909209781659e-06 -1.2500368596751754e-05 0.0000000000000000e+00  3.4555071510219466e-06 -2.5576443555917717e-05 0.0000000000000000e+00  0.0000000000000000e+00 0.0000000000000000e+00 0.0000000000000000e+00  2.1672894714924819e-07 -1.9063189532202766e-07 0.0000000000000000e+00  4.3995693678474318e-07 -3.8951243122490337e-07 0.0000000000000000e+00  6.7619845692639675e-07 -6.0538355571168335e-07 0.0000000000000000e+00  9.3199354125829370e-07 -8.4805118639015242e-07 0.0000000000000000e+00  1.2138710436095743e-06 -1.1290987048253354e-06 0.0000000000000000e+00  1.5282519917456692e-06 -1.4628787299423576e-06 0.0000000000000000e+00  1.8812726006639394e-06 -1.8680048712769132e-06 0.0000000000000000e+00  2.2785089028421559e-06 -2.3697515557664914e-06 0.0000000000000000e+00  2.7245910291812965e-06 -3.0041494081847682e-06 0.0000000000000000e+00  3.2227058963010337e-06 -3.8253477991496350e-06 0.0000000000000000e+00  3.7740011902550116e-06 -4.9194354841389052e-06 0.0000000000000000e+00  4.3769152543317642e-06 -6.4310923264439635e-06 0.0000000000000000e+00  5.0264565883304544e-06 -8.6144972547288082e-06 0.0000000000000000e+00  5.7134538814317584e-06 -1.1920331282568634e-05 0.0000000000000000e+00  6.4239926303757383e-06 -1.7073782852781041e-05 0.0000000000000000e+00  7.1409169668695602e-06 -2.4667399305427752e-05 0.0000000000000000e+00  0.0000000000000000e+00 0.0000000000000000e+00 0.0000000000000000e+00  3.1697293443277752e-07 -2.7557365741379741e-07 0.0000000000000000e+00  6.4366776731490911e-07 -5.6288510364956522e-07 0.0000000000000000e+00  9.8985499508261700e-07 -8.7432835093174108e-07 0.0000000000000000e+00  1.3653925931148695e-06 -1.2236985858352694e-06 0.0000000000000000e+00  1.7801966133066492e-06 -1.6270917869776225e-06 0.0000000000000000e+00  2.2441215942002428e-06 -2.1040948203718362e-06 0.0000000000000000e+00  2.7667175670003303e-06 -2.6794646495665421e-06 0.0000000000000000e+00  3.3568324699503440e-06 -3.3856203183664041e-06 0.0000000000000000e+00  4.0220378086579978e-06 -4.2664794980957398e-06 0.0000000000000000e+00  4.7678765328323341e-06 -5.3834822908810355e-06 0.0000000000000000e+00  5.5969727096977569e-06 -6.8249736117398206e-06 0.0000000000000000e+00  6.5081173985356469e-06 -8.7198977480788935e-06 0.0000000000000000e+00  7.4956009819913893e-06 -1.1253681725399990e-05 0.0000000000000000e+00  8.5494827338317059e-06 -1.4670551143631115e-05 0.0000000000000000e+00  9.6589157767909624e-06 -1.9202396048873472e-05 0.0000000000000000e+00  1.0826071059090701e-05 -2.4769721578128774e-05 0.0000000000000000e+00  0.0000000000000000e+00 0.0000000000000000e+00 0.0000000000000000e+00  4.0750207496189339e-07 -3.4878306633302734e-07 0.0000000000000000e+00  8.2789006388377067e-07 -7.1212803935009872e-07 0.0000000000000000e+00  1.2741613200607747e-06 -1.1053438220863412e-06 0.0000000000000000e+00  1.7595208719463228e-06 -1.5453145101705560e-06 0.0000000000000000e+00  2.2973913269180489e-06 -2.0514575017318035e-06 0.0000000000000000e+00  2.9013036323470820e-06 -2.6469130423723367e-06 0.0000000000000000e+00  3.5846194207875891e-06 -3.3600868324589321e-06 0.0000000000000000e+00  4.3600336583214792e-06 -4.2267016554828548e-06 0.0000000000000000e+00  5.2388131938842351e-06 -5.2925310832966580e-06 0.0000000000000000e+00  6.2297509841479319e-06 -6.6169108257751638e-06 0.0000000000000000e+00  7.3378680471930290e-06 -8.2767253910664296e-06 0.0000000000000000e+00  8.5629859807803456e-06 -1.0369265182640520e-05 0.0000000000000000e+00  9.8984206212476480e-06 -1.3008850869993495e-05 0.0000000000000000e+00  1.1330145494996535e-05 -1.6304409772576018e-05 0.0000000000000000e+00  1.2836436208872683e-05 -2.0293786118774294e-05 0.0000000000000000e+00  1.4385043680026334e-05 -2.4816442717304857e-05 0.0000000000000000e+00  0.0000000000000000e+00 0.0000000000000000e+00 0.0000000000000000e+00  4.8515352305925366e-07 -4.0743640690971771e-07 0.0000000000000000e+00  9.8623413382034847e-07 -8.3150251697720499e-07 0.0000000000000000e+00  1.5193807391611416e-06 -1.2896021924400410e-06 0.0000000000000000e+00  2.1011352420977733e-06 -1.8007495844988639e-06 0.0000000000000000e+00  2.7485358507685006e-06 -2.3864929021576386e-06 0.0000000000000000e+00  3.4790675535543541e-06 -3.0719815883367817e-06 0.0000000000000000e+00  4.3104012589335162e-06 -3.8872160821095048e-06 0.0000000000000000e+00  5.2598413763160290e-06 -4.8684856306394047e-06 0.0000000000000000e+00  6.3433979274830552e-06 -6.0599030702764823e-06 0.0000000000000000e+00  7.5744156394423150e-06 -7.5147056567015063e-06 0.0000000000000000e+00  8.9617458395447024e-06 -9.2954515188976354e-06 0.0000000000000000e+00  1.0507554836864227e-05 -1.1471146917813938e-05 0.0000000000000000e+00  1.2205027942916731e-05 -1.4107440858649070e-05 0.0000000000000000e+00  1.4036409105608984e-05 -1.7243705233559963e-05 0.0000000000000000e+00  1.5971905291629235e-05 -2.0851126158216599e-05 0.0000000000000000e+00  1.7970097035367144e-05 -2.4778139237395162e-05 0.0000000000000000e+00  0.0000000000000000e+00 0.0000000000000000e+00 0.0000000000000000e+00  5.4688572932081448e-07 -4.4946490918926149e-07 0.0000000000000000e+00  1.1125168448461925e-06 -9.1684472781285061e-07 0.0000000000000000e+00  1.7159932428945231e-06 -1.4208094977426942e-06 0.0000000000000000e+00  2.3771001185095838e-06 -1.9815789254129852e-06 0.0000000000000000e+00  3.1165406269098433e-06 -2.6217638340444480e-06 0.0000000000000000e+00  3.9560146709809988e-06 -3.3672716512370300e-06 0.0000000000000000e+00  4.9180552423060047e-06 -4.2482576970532909e-06 0.0000000000000000e+00  6.0255051404707231e-06 -5.3000401174695813e-06 0.0000000000000000e+00  7.3004906041395648e-06 -6.5637666964553294e-06 0.0000000000000000e+00  8.7627398791537055e-06 -8.0863762022047627e-06 0.0000000000000000e+00  1.0427131505341375e-05 -9.9189714836658757e-06 0.0000000000000000e+00  1.2300478536214666e-05 -1.2112085101213249e-05 0.0000000000000000e+00  1.4377799902170124e-05 -1.4705633990863637e-05 0.0000000000000000e+00  1.6638700853995836e-05 -1.7711383585229247e-05 0.0000000000000000e+00  1.9044887750308157e-05 -2.1088473162425452e-05 0.0000000000000000e+00  2.1540049116948397e-05 -2.4721337253091901e-05 0.0000000000000000e+00  0.0000000000000000e+00 0.0000000000000000e+00 0.0000000000000000e+00  5.8987846720726926e-07 -4.7358121286555024e-07 0.0000000000000000e+00  1.2009569022143391e-06 -9.6560110444409567e-07 0.0000000000000000e+00  1.8549741710269802e-06 -1.4952065791429185e-06 0.0000000000000000e+00  2.5747258106462835e-06 -2.0829807329378004e-06 0.0000000000000000e+00  3.3845009476937624e-06 -2.7516905434263824e-06 0.0000000000000000e+00  4.3103780715793943e-06 -3.5270488038146733e-06 0.0000000000000000e+00  5.3802759411474911e-06 -4.4384490116717011e-06 0.0000000000000000e+00  6.6236032075823986e-06 -5.5195692125390782e-06 0.0000000000000000e+00  8.0702859292750237e-06 -6.8086285005108116e-06 0.0000000000000000e+00  9.7488911803259143e-06 -8.3478926283896691e-06 0.0000000000000000e+00  1.1683545448912755e-05 -1.0181745098010115e-05 0.0000000000000000e+00  1.3889442291669445e-05 -1.2352298285874907e-05 0.0000000000000000e+00  1.6367055885090292e-05 -1.4891291715578378e-05 0.0000000000000000e+00  1.9095831645132991e-05 -1.7807387952720022e-05 0.0000000000000000e+00  2.2029074715594604e-05 -2.1069783809845480e-05 0.0000000000000000e+00  2.5092572071383869e-05 -2.4592956541980238e-05 0.0000000000000000e+00  0.0000000000000000e+00 0.0000000000000000e+00 0.0000000000000000e+00  6.1167387582420107e-07 -4.7925857480389417e-07 0.0000000000000000e+00  1.2464573378043283e-06 -9.7676806328019341e-07 0.0000000000000000e+00  1.9282160507785609e-06 -1.5114264849130051e-06 0.0000000000000000e+00  2.6823186518824446e-06 -2.1034319368366198e-06 0.0000000000000000e+00  3.5363442384974528e-06 -2.7749446798990144e-06 0.0000000000000000e+00  4.5206989504620814e-06 -3.5507467313775950e-06 0.0000000000000000e+00  5.6690380569933488e-06 -4.4588643174564828e-06 0.0000000000000000e+00  7.0183096229363201e-06 -5.5310770191695337e-06 0.0000000000000000e+00  8.6081181168626513e-06 -6.8031679173041644e-06 0.0000000000000000e+00  1.0478954720493482e-05 -8.3146581158715901e-06 0.0000000000000000e+00  1.2668691274808151e-05 -1.0107603225505464e-05 0.0000000000000000e+00  1.5206693458782879e-05 -1.2223805702043917e-05 0.0000000000000000e+00  1.8105202163489308e-05 -1.4699548589732980e-05 0.0000000000000000e+00  2.1348608646108437e-05 -1.7556803719188610e-05 0.0000000000000000e+00  2.4883177476553905e-05 -2.0790098682637358e-05 0.0000000000000000e+00  2.8612181325053093e-05 -2.4349386290631755e-05 0.0000000000000000e+00  0.0000000000000000e+00 0.0000000000000000e+00 0.0000000000000000e+00  6.1035811161778845e-07 -4.6668142606895741e-07 0.0000000000000000e+00  1.2449773085088637e-06 -9.5077897426376440e-07 0.0000000000000000e+00  1.9291046703624345e-06 -1.4702876395112160e-06 0.0000000000000000e+00  2.6899740634455060e-06 -2.0443577412690052e-06 0.0000000000000000e+00  3.5578376666768527e-06 -2.6938823038196077e-06 0.0000000000000000e+00  4.5670070520377898e-06 -3.4420888809354763e-06 0.0000000000000000e+00  5.7568305844927983e-06 -4.3151257045817063e-06 0.0000000000000000e+00  7.1724331208463689e-06 -5.3426219201181113e-06 0.0000000000000000e+00  8.8648694436273624e-06 -6.5581883837994713e-06 0.0000000000000000e+00  1.0890064829347617e-05 -7.9998044690704868e-06 0.0000000000000000e+00  1.3305529021711375e-05 -9.7099878389496014e-06 0.0000000000000000e+00  1.6163424851377658e-05 -1.1735505002967185e-05 0.0000000000000000e+00  1.9498488744511586e-05 -1.4125989608480666e-05 0.0000000000000000e+00  2.3310331728438371e-05 -1.6929877366814993e-05 0.0000000000000000e+00  2.7543029648898192e-05 -2.0184177141006052e-05 0.0000000000000000e+00  3.2071133363355175e-05 -2.3892155140486504e-05 0.0000000000000000e+00  0.0000000000000000e+00 0.0000000000000000e+00 0.0000000000000000e+00  5.8477508292569671e-07 -4.3668135334366768e-07 0.0000000000000000e+00  1.1939790491725851e-06 -8.8936850989932201e-07 0.0000000000000000e+00  1.8532366551337628e-06 -1.3745725538791037e-06 0.0000000000000000e+00  2.5906149943694650e-06 -1.9098079473773138e-06 0.0000000000000000e+00  3.4379978037202369e-06 -2.5141077078253412e-06 0.0000000000000000e+00  4.4326243627410808e-06 -3.2085574950512994e-06 0.0000000000000000e+00  5.6187964372424954e-06 -4.0168656250604406e-06 0.0000000000000000e+00  7.0496629766761203e-06 -4.9660079411879095e-06 0.0000000000000000e+00  8.7887906201255844e-06 -6.0870340803823738e-06 0.0000000000000000e+00  1.0910829070884813e-05 -7.4162103711333610e-06 0.0000000000000000e+00  1.3499864437376205e-05 -8.9968066927458431e-06 0.0000000000000000e+00  1.6642945442813012e-05 -1.0881940937587514e-05 0.0000000000000000e+00  2.0415011507329178e-05 -1.3138675923089220e-05 0.0000000000000000e+00  2.4851306029689782e-05 -1.5852162603397455e-05 0.0000000000000000e+00  2.9907700282857652e-05 -1.9124235104284729e-05 0.0000000000000000e+00  3.5423472525444238e-05 -2.3051192462463477e-05 0.0000000000000000e+00  0.0000000000000000e+00 0.0000000000000000e+00 0.0000000000000000e+00  5.3475271958989117e-07 -3.9066605360922852e-07 0.0000000000000000e+00  1.0929125150095282e-06 -7.9542832401870257e-07 0.0000000000000000e+00  1.6992282553609852e-06 -1.2288087811499401e-06 0.0000000000000000e+00  2.3812253473142966e-06 -1.7061701359540789e-06 0.0000000000000000e+00  3.1708795311277876e-06 -2.2441503241747635e-06 0.0000000000000000e+00  4.1066501955722545e-06 -2.8611217158406884e-06 0.0000000000000000e+00  5.2360073348238607e-06 -3.5777059240324362e-06 0.0000000000000000e+00  6.6185536183202824e-06 -4.4174166527937310e-06 0.0000000000000000e+00  8.3297037559332535e-06 -5.4075961905740517e-06 0.0000000000000000e+00  1.0464482982573926e-05 -6.5810074105280020e-06 0.0000000000000000e+00  1.3140036604688327e-05 -7.9788252141662742e-06 0.0000000000000000e+00  1.6493385643501470e-05 -9.6564226800933359e-06 0.0000000000000000e+00  2.0667276584216637e-05 -1.1694157364134168e-05 0.0000000000000000e+00  2.5772274906536967e-05 -1.4215323207716313e-05 0.0000000000000000e+00  3.1813276138618504e-05 -1.7408842849617709e-05 0.0000000000000000e+00  3.8591964666830320e-05 -2.1536592885013462e-05 0.0000000000000000e+00  0.0000000000000000e+00 0.0000000000000000e+00 0.0000000000000000e+00  4.6130957622095960e-07 -3.3054343687678203e-07 0.0000000000000000e+00  9.4367184252859143e-07 -6.7285545847670436e-07 0.0000000000000000e+00  1.4695147604361608e-06 -1.0390451260520257e-06 0.0000000000000000e+00  2.0641474726094767e-06 -1.4418881775709575e-06 0.0000000000000000e+00  2.7576034524771979e-06 -1.8951672162914231e-06 0.0000000000000000e+00  3.5870340733174069e-06 -2.4140250028267380e-06 0.0000000000000000e+00  4.5999541714892800e-06 -3.0153513810728598e-06 0.0000000000000000e+00  5.8587396321331782e-06 -3.7182581569241027e-06 0.0000000000000000e+00  7.4468547182113179e-06 -4.5447834898747875e-06 0.0000000000000000e+00  9.4771938608683060e-06 -5.5211884959288826e-06 0.0000000000000000e+00  1.2102216390231463e-05 -6.6807576666664845e-06 0.0000000000000000e+00  1.5523088754117279e-05 -8.0703223654804813e-06 0.0000000000000000e+00  1.9988306434537375e-05 -9.7655768092154278e-06 0.0000000000000000e+00  2.5757278200153802e-05 -1.1905277783410781e-05 0.0000000000000000e+00  3.2981488572554872e-05 -1.4758160986286608e-05 0.0000000000000000e+00  4.1459701494003528e-05 -1.8816330857722151e-05 0.0000000000000000e+00  0.0000000000000000e+00 0.0000000000000000e+00 0.0000000000000000e+00  3.6679839008255047e-07 -2.5864063255415935e-07 0.0000000000000000e+00  7.5093040221837551e-07 -5.2638993911443583e-07 0.0000000000000000e+00  1.1709852777635726e-06 -8.1260857212916726e-07 0.0000000000000000e+00  1.6482117608905637e-06 -1.1271443506098829e-06 0.0000000000000000e+00  2.2083061528908360e-06 -1.4805701637503809e-06 0.0000000000000000e+00  2.8838643699698149e-06 -1.8844106063242169e-06 0.0000000000000000e+00  3.7179458794988534e-06 -2.3513463619679971e-06 0.0000000000000000e+00  4.7694689751823938e-06 -2.8953789606086501e-06 0.0000000000000000e+00  6.1216017528751218e-06 -3.5319392762872634e-06 0.0000000000000000e+00  7.8949708352749825e-06 -4.2779750204267809e-06 0.0000000000000000e+00  1.0268213480824194e-05 -5.1523369130148139e-06 0.0000000000000000e+00  1.3508050066507819e-05 -6.1779641990783872e-06 0.0000000000000000e+00  1.8005215030638848e-05 -7.3916386824095557e-06 0.0000000000000000e+00  2.4286873871111003e-05 -8.8806380770975554e-06 0.0000000000000000e+00  3.2895786157734726e-05 -1.0900217606285641e-05 0.0000000000000000e+00  4.3876467417285884e-05 -1.4161741265805480e-05 0.0000000000000000e+00  0.0000000000000000e+00 0.0000000000000000e+00 0.0000000000000000e+00  2.5493852679735010e-07 -1.7761828910310838e-07 0.0000000000000000e+00  5.2224606904754363e-07 -3.6144079174970515e-07 0.0000000000000000e+00  8.1525762840311768e-07 -5.5783603721799615e-07 0.0000000000000000e+00  1.1493722997378808e-06 -7.7348525422140262e-07 0.0000000000000000e+00  1.5434953964822152e-06 -1.0155238658864544e-06 0.0000000000000000e+00  2.0221007135332149e-06 -1.2916522162060553e-06 0.0000000000000000e+00  2.6183927135830783e-06 -1.6101743750667464e-06 0.0000000000000000e+00  3.3794340633160714e-06 -1.9798686344886879e-06 0.0000000000000000e+00  4.3748766529737972e-06 -2.4094632412727877e-06 0.0000000000000000e+00  5.7125102117349313e-06 -2.9061913338085387e-06 0.0000000000000000e+00  7.5670578155776374e-06 -3.4722525676043891e-06 0.0000000000000000e+00  1.0234866052190707e-05 -4.0968661922003503e-06 0.0000000000000000e+00  1.4236612044761656e-05 -4.7410784179883106e-06 0.0000000000000000e+00  2.0488364659858287e-05 -5.3229633028089340e-06 0.0000000000000000e+00  3.0436818134097342e-05 -5.7968258119595366e-06 0.0000000000000000e+00  4.5149221799429881e-05 -6.9397893318081655e-06 0.0000000000000000e+00  0.0000000000000000e+00 0.0000000000000000e+00 0.0000000000000000e+00  1.3069683362394940e-07 -9.0382742295391464e-08 0.0000000000000000e+00  2.6783979496917244e-07 -1.8390644333793814e-07 0.0000000000000000e+00  4.1840208046103227e-07 -2.8379252220799473e-07 0.0000000000000000e+00  5.9048962355924021e-07 -3.9341335726552506e-07 0.0000000000000000e+00  7.9415233191523354e-07 -5.1635506567426945e-07 0.0000000000000000e+00  1.0425761197498838e-06 -6.5645323515407642e-07 0.0000000000000000e+00  1.3539766886340618e-06 -8.1776212700796621e-07 0.0000000000000000e+00  1.7548187196989516e-06 -1.0043566006831111e-06 0.0000000000000000e+00  2.2856675823093579e-06 -1.2196995424205010e-06 0.0000000000000000e+00  3.0126369796590325e-06 -1.4648330532476200e-06 0.0000000000000000e+00  4.0517549739385878e-06 -1.7332199899186722e-06 0.0000000000000000e+00  5.6261083755122650e-06 -1.9954601543449693e-06 0.0000000000000000e+00  8.2150660162236411e-06 -2.1512964095997210e-06 0.0000000000000000e+00  1.2989808528082695e-05 -1.8684355273877869e-06 0.0000000000000000e+00  2.3224773057765819e-05 -3.7266169000309717e-09 0.0000000000000000e+00  4.9275155983799267e-05 7.5940964145268746e-06 0.0000000000000000e+00  0.0000000000000000e+00 0.0000000000000000e+00 0.0000000000000000e+00  0.0000000000000000e+00 0.0000000000000000e+00 0.0000000000000000e+00  0.0000000000000000e+00 0.0000000000000000e+00 0.0000000000000000e+00  0.0000000000000000e+00 0.0000000000000000e+00 0.0000000000000000e+00  0.0000000000000000e+00 0.0000000000000000e+00 0.0000000000000000e+00  0.0000000000000000e+00 0.0000000000000000e+00 0.0000000000000000e+00  0.0000000000000000e+00 0.0000000000000000e+00 0.0000000000000000e+00  0.0000000000000000e+00 0.0000000000000000e+00 0.0000000000000000e+00  0.0000000000000000e+00 0.0000000000000000e+00 0.00000