<?xml version="1.0"?>
<VTKFile type="UnstructuredGrid"  version="0.1"  >
<UnstructuredGrid>
<Piece  NumberOfPoints="289" NumberOfCells="512">
<Points>
<DataArray  type="Float64"  NumberOfComponents="3"  format="ascii">0 0 0  0.0625 0 0  0.125 0 0  0.1875 0 0  0.25 0 0  0.3125 0 0  0.375 0 0  0.4375 0 0  0.5 0 0  0.5625 0 0  0.625 0 0  0.6875 0 0  0.75 0 0  0.8125 0 0  0.875 0 0  0.9375 0 0  1 0 0  0 0.0625 0  0.06249810396525014 0.06250180728711736 0  0.1249961520316159 0.06250369239236933 0  0.1874940880991693 0.06250573791356343 0  0.2499918560454348 0.06250803674801517 0  0.3124894001345757 0.06251069920871047 0  0.3749866659435354 0.062513863252637 0  0.4374836019726873 0.06251771054618799 0  0.4999801620852904 0.0625224937735836 0  0.5624763088759515 0.06252858671070564 0  0.6249720180243844 0.06253658350880438 0  0.6874672837521756 0.06254751303459073 0  0.7499621260414299 0.06256334756597173 0  0.8124566025507092 0.0625883421522206 0  0.8749508364847118 0.06263296421249549 0  0.9374451019966966 0.06272669632581498 0  0.9999401308497858 0.06296381888567849 0  0 0.125 0  0.06249626388657182 0.1250035366140791 0  0.1249924160601104 0.125007224034281 0  0.1874883442494621 0.1250112219282639 0  0.249983935795884 0.1250157089323754 0  0.3124790782982572 0.1250208953837441 0  0.3749736612993922 0.1250270410393998 0  0.4374675793661619 0.1250344817796983 0  0.4999607368739338 0.1250436726640497 0  0.5624530546975323 0.1250552615598131 0  0.6249444788202307 0.1250702217112103 0  0.6874349906272956 0.1250901007826683 0  0.7499246185041466 0.1251175010628096 0  0.8124134507741706 0.1251569953751089 0  0.8749016522447479 0.1252166839246755 0  0.9373894941897224 0.1253095322181726 0  0.9998774333117142 0.1254456286514505 0  0 0.1875 0  0.06249453567667473 0.1875051150093583 0  0.124988904172146 0.187510444881552 0  0.1874829370791082 0.1875162162586283 0  0.2499764645543521 0.1875226807425203 0  0.3124693158448862 0.1875301309169345 0  0.3749613213841771 0.1875389215493134 0  0.437452317035986 0.1875494995479894 0  0.4999421510296927 0.1875624485193277 0  0.5624306939760494 0.1875785575482518 0  0.6249178519869204 0.1875989294748732 0  0.6874035822160015 0.1876251499539427 0  0.7498879088136148 0.1876595349133255 0  0.8123709343970411 0.187705419535541 0  0.8748528336531851 0.187767210545098 0  0.9373337839321972 0.1878491503273489 0  0.9998136533638485 0.1879501586372029 0  0 0.25 0  0.06249297487428217 0.2500064784244728 0  0.1249857280448511 0.2500132239076127 0  0.187478035454114 0.2500205169094022 0  0.2499696695465424 0.2500286659352368 0  0.3124603991231596 0.2500380245578026 0  0.3749499912734561 0.2500490125185115 0  0.4374382162448242 0.2500621430830229 0  0.4999248561494659 0.2500780594650534 0  0.5624097182965357 0.2500975834815999 0  0.6248926535277335 0.2501217782811924 0  0.6873735790414304 0.2501520199531075 0  0.7498525036395688 0.2501900496122588 0  0.8123295511941042 0.2502379149973614 0  0.8748049768648343 0.2502975722102052 0  0.9372791792451195 0.2503697103265826 0  0.9997527808607065 0.2504514370993111 0  0 0.3125 0  0.06249163603449758 0.3125075746631898 0  0.1249829978850462 0.3125154550951907 0  0.1874738072967901 0.3125239609574016 0  0.2499637791465396 0.3125334405978589 0  0.312452619861337 0.3125442874242247 0  0.3749400283297201 0.312556958724147 0  0.4374257005033277 0.3125719975992649 0  0.4999093390980172 0.312590058091428 0  0.5623906698792123 0.3126119318866814 0  0.6248694657468877 0.3126385707505029 0  0.6873455789247346 0.3126710892710432 0  0.7498189796964055 0.3127107129469383 0  0.8122897972563172 0.3127586025179871 0  0.8747583550576545 0.3128154431008874 0  0.9372251910974961 0.3128806895647388 0  0.9996910479365413 0.3129515730573629 0  0 0.375 0  0.06249057162686537 0.3750083650073037 0  0.1249808203597558 0.3750170605233766 0  0.1874704168433265 0.3750264306384411 0  0.2499590199678 0.375036847132542 0  0.312446272880083 0.3750487243782138 0  0.3749318016809244 0.3750625352092003 0  0.437415218356586 0.3750788273519967 0  0.4998961300003578 0.3750982388735891 0  0.5623741568502473 0.3751215088045657 0  0.6248489618339331 0.3751494747726835 0  0.687320293685278 0.3751830419983933 0  0.7497880435738672 0.3752230967737556 0  0.8122523108553013 0.3752703253374658 0  0.8747134669015223 0.37532489903989 0  0.9371721985158529 0.3753860342276126 0  0.9996295080930768 0.3754515910967317 0  0 0.4375 0  0.06248983030764915 0.4375088247029734 0  0.1249792952243649 0.4375179910105095 0  0.1874680198350419 0.4375278533404118 0  0.2499556110319009 0.4375387919654976 0  0.3124416499902249 0.4375512263068739 0  0.3749256871074419 0.4375656282509707 0  0.4374072412171727 0.4375825346244933 0  0.4998858058163109 0.4376025568110456 0  0.5623608661787841 0.4376263834820709 0  0.6248319323098322 0.437654769135556 0  0.6872985930485719 0.4376884963375425 0  0.7497605949450817 0.4377282938576784 0  0.8122179438419177 0.4377746893593823 0  0.8746710154902297 0.4378277820253312 0  0.9371206447273346 0.4378869516802097 0  0.9995681486083382 0.4379505871859216 0  0 0.5 0  0.06248945448310252 0.5000089426368941 0  0.1249785104416755 0.5000182251186251 0  0.187466756229418 0.5000281991358169 0  0.2499537542640664 0.5000392401248963 0  0.312439028815643 0.5000517591921417 0  0.3749220553806277 0.50006621474193 0  0.4374022534486168 0.5000831230107793 0  0.4998789858739198 0.5001030658858256 0  0.5623515701279765 0.5001266930690745 0  0.6248193093707153 0.5001547136688667 0  0.6872815539145185 0.5001878695718088 0  0.7497378043825025 0.5002268796747321 0  0.8121878626892722 0.5002723410718317 0  0.8746320197534891 0.500324572443976 0  0.9370712349245021 0.5003833890967427 0  0.9995072200489372 0.500447811474226 0  0 0.5625 0  0.06248947717092942 0.5625087205498766 0  0.1249785357554842 0.5625177673194884 0  0.1874667402383741 0.5625274773365586 0  0.2499536207727281 0.562538209241374 0  0.3124386553532703 0.5625503541509124 0  0.3749212518240445 0.5625643463935639 0  0.4374007309942036 0.5625806737221618 0  0.4998763138926499 0.5625998862759624 0  0.5623471192409067 0.5626226031084636 0  0.6248121820893447 0.5626495145035968 0  0.6872705113510617 0.5626813774374254 0  0.7497212110875753 0.5627189998479285 0  0.8121636918917936 0.5627632050613526 0  0.8745979805752012 0.5628147563769156 0  0.9370250768255944 0.5628741959628435 0  0.9994471956084615 0.5629415103653295 0  0 0.625 0  0.0624899183081929 0.6250081720487751 0  0.1249794149651365 0.6250166458861317 0  0.1874680479164364 0.6250257330146587 0  0.2499553328735343 0.6250357643783372 0  0.3124407195494545 0.6250471003230305 0  0.3749235650314924 0.6250601408261632 0  0.4374031042249427 0.6250753361151021 0  0.4998784189280108 0.6250931979551496 0  0.5623484106055486 0.6251143123221228 0  0.6248117888885701 0.6251393550940023 0  0.6872671003521561 0.6251691139429436 0  0.749712841579222 0.6252045212635552 0  0.8121477226695205 0.6252467017158861 0  0.874571150118053 0.6252970235993599 0  0.9369839219064469 0.6253570890304972 0  0.9993888801132284 0.6254284489256025 0  0 0.6875 0  0.06249078084497719 0.6875073215490588 0  0.1249811575521662 0.6875149107607329 0  0.1874707031748472 0.6875230438093691 0  0.2499589427400199 0.6875320139453004 0  0.3124453243027717 0.6875421404647599 0  0.3749291837540651 0.6875537783102484 0  0.4374097010416033 0.6875673288083773 0  0.4998858460156432 0.6875832525644594 0  0.5623563145090165 0.6876020866414781 0  0.6248194621976066 0.6876244704385165 0  0.6872732606765781 0.6876511891478174 0  0.7497153361815339 0.6876832516576494 0  0.8121432162479597 0.6877220316984516 0  0.8745549927982645 0.6877695103997993 0  0.9369506104710181 0.6878286309112366 0  0.9993335762326503 0.687903589720583 0  0 0.75 0  0.06249204718168905 0.7500062031653102 0  0.1249837308016456 0.7500126313853087 0  0.1874746639697311 0.7500195168544639 0  0.2499644099628718 0.7500271061214887 0  0.3124524503595795 0.7500356677813981 0  0.3749381436254763 0.7500455009335008 0  0.4374206689063657 0.7500569450123358 0  0.4998989480522883 0.7500703921528664 0  0.562371537493511 0.7500863044506656 0  0.6248364830970112 0.7501052411304445 0  0.6872911432298319 0.7501279066521102 0  0.7497320279820752 0.7501552446266033 0  0.8121548204817219 0.7501886338727315 0  0.8745550109699399 0.7502303100246458 0  0.9369299825851244 0.7502842566449888 0  0.999283322650239 0.7503579358960034 0  0 0.8125 0  0.06249367669991543 0.8125048594998867 0  0.1249870540319055 0.8125098943390259 0  0.1874798113562624 0.8125152854264491 0  0.2499715820488583 0.8125212248777333 0  0.3124619226056082 0.8125279220746562 0  0.3749502702477776 0.8125356103664381 0  0.4374358812643588 0.8125445548228261 0  0.4999177376000201 0.8125550616970351 0  0.5623944014223559 0.812567490738726 0  0.6248637858168621 0.8125822726038751 0  0.6873227970571324 0.8125999366996678 0  0.7497668087448064 0.8126211646543318 0  0.8121890274450742 0.8126469173327608 0  0.8745802575385425 0.8126787891728404 0  0.9369310048029247 0.8127200554080775 0  0.9992406656265851 0.8127785970006329 0  0 0.875 0  0.062495605215549 0.8750033402696481 0  0.1249909968034083 0.8750068006197198 0  0.1874859447844144 0.8750105049507613 0  0.2499801835068617 0.8750145848446867 0  0.3124733867471508 0.8750191837119486 0  0.3749651320917244 0.875024461316955 0  0.4374548463094023 0.8750305987829357 0  0.4999417167525729 0.8750378039957876 0  0.5624245404436863 0.8750463167026835 0  0.6249014551422312 0.8750564108068677 0  0.6873694405809854 0.8750683867653173 0  0.7498233683044796 0.8750825367704003 0  0.8122542054722044 0.8750990492364135 0  0.8746459737884386 0.8751178312148701 0  0.9369731093404364 0.8751385289624599 0  0.9992152472050698 0.8751631433890095 0  0 0.9375 0  0.06249774704920643 0.9375017007423665 0  0.1249953827729567 0.9375034624992368 0  0.1874927869295596 0.9375053482278203 0  0.2499898197117096 0.9375074247871891 0  0.3124863077517148 0.9375097650318858 0  0.3749820235576263 0.9375124500500215 0  0.437476652
[...]
<PointData  Vectors="f_54"> 
<DataArray  type="Float64"  Name="f_54"  NumberOfComponents="3" format="ascii">0.0000000000000000e+00 0.0000000000000000e+00 0.0000000000000000e+00  0.0000000000000000e+00 0.0000000000000000e+00 0.0000000000000000e+00  0.0000000000000000e+00 0.0000000000000000e+00 0.0000000000000000e+00  0.0000000000000000e+00 0.0000000000000000e+00 0.0000000000000000e+00  0.0000000000000000e+00 0.0000000000000000e+00 0.0000000000000000e+00  0.0000000000000000e+00 0.0000000000000000e+00 0.0000000000000000e+00  0.0000000000000000e+00 0.0000000000000000e+00 0.0000000000000000e+00  0.0000000000000000e+00 0.0000000000000000e+00 0.0000000000000000e+00  0.0000000000000000e+00 0.0000000000000000e+00 0.0000000000000000e+00  0.0000000000000000e+00 0.0000000000000000e+00 0.0000000000000000e+00  0.0000000000000000e+00 0.0000000000000000e+00 0.0000000000000000e+00  0.0000000000000000e+00 0.0000000000000000e+00 0.0000000000000000e+00  0.0000000000000000e+00 0.0000000000000000e+00 0.0000000000000000e+00  0.0000000000000000e+00 0.0000000000000000e+00 0.0000000000000000e+00  0.0000000000000000e+00 0.0000000000000000e+00 0.0000000000000000e+00  0.0000000000000000e+00 0.0000000000000000e+00 0.0000000000000000e+00  0.0000000000000000e+00 0.0000000000000000e+00 0.0000000000000000e+00  0.0000000000000000e+00 0.0000000000000000e+00 0.0000000000000000e+00  -1.3854170173693128e-08 3.2125897518501851e-08 0.0000000000000000e+00  -2.8120108691813353e-08 6.5644231377905503e-08 0.0000000000000000e+00  -4.3209900079241000e-08 1.0203353872683122e-07 0.0000000000000000e+00  -5.9536470759291222e-08 1.4296090366343265e-07 0.0000000000000000e+00  -7.7510747911937516e-08 1.9041278463260797e-07 0.0000000000000000e+00  -9.7534778693678289e-08 2.4688374293853751e-07 0.0000000000000000e+00  -1.1998912069625985e-07 3.1567363497221750e-07 0.0000000000000000e+00  -1.4521236107518548e-07 4.0139381252775842e-07 0.0000000000000000e+00  -1.7346955648558703e-07 5.1089811708929496e-07 0.0000000000000000e+00  -2.0490374051367509e-07 6.5514027947517657e-07 0.0000000000000000e+00  -2.3945864873653996e-07 8.5323111516939139e-07 0.0000000000000000e+00  -2.7675161442294707e-07 1.1422523523132618e-06 0.0000000000000000e+00  -3.1589017074272803e-07 1.6037886024266094e-06 0.0000000000000000e+00  -3.5547837581571781e-07 2.4442915265320159e-06 0.0000000000000000e+00  -3.9587240094862198e-07 4.2658098853916622e-06 0.0000000000000000e+00  -4.5655297867549506e-07 9.0638505628028794e-06 0.0000000000000000e+00  0.0000000000000000e+00 0.0000000000000000e+00 0.0000000000000000e+00  -2.7296513176031651e-08 6.2859170579960615e-08 0.0000000000000000e+00  -5.5415372446771594e-08 1.2841498360886461e-07 0.0000000000000000e+00  -8.5180906627890373e-08 1.9952350431252703e-07 0.0000000000000000e+00  -1.1742170034725929e-07 2.7938757383043571e-07 0.0000000000000000e+00  -1.5296637096566710e-07 3.7179065915264177e-07 0.0000000000000000e+00  -1.9263150235899349e-07 4.8142358564868807e-07 0.0000000000000000e+00  -2.3719858781121599e-07 6.1437808349577697e-07 0.0000000000000000e+00  -2.8737632042714777e-07 7.7894281641896585e-07 0.0000000000000000e+00  -3.4374341974483556e-07 9.8696245683079025e-07 0.0000000000000000e+00  -4.0666369428764251e-07 1.2562757927864199e-06 0.0000000000000000e+00  -4.7615297202991267e-07 1.6152633396033455e-06 0.0000000000000000e+00  -5.5163226530776421e-07 2.1114761597793322e-06 0.0000000000000000e+00  -6.3131567985339185e-07 2.8274045496617099e-06 0.0000000000000000e+00  -7.1014674875302431e-07 3.9035386092632135e-06 0.0000000000000000e+00  -7.7117639137455600e-07 5.5342985479846330e-06 0.0000000000000000e+00  -7.4498539276404639e-07 7.6786517332225232e-06 0.0000000000000000e+00  0.0000000000000000e+00 0.0000000000000000e+00 0.0000000000000000e+00  -3.9917137488861426e-08 9.0897075009769166e-08 0.0000000000000000e+00  -8.1063668614861128e-08 1.8563193827003367e-07 0.0000000000000000e+00  -1.2467526669884031e-07 2.8825376848087121e-07 0.0000000000000000e+00  -1.7200029687783267e-07 4.0326680692418118e-07 0.0000000000000000e+00  -2.2429703185787298e-07 5.3592406456979819e-07 0.0000000000000000e+00  -2.8281955974174630e-07 6.9261796548989135e-07 0.0000000000000000e+00  -3.4878796993658898e-07 8.8143429137805836e-07 0.0000000000000000e+00  -4.2333828629147548e-07 1.1129769215141702e-06 0.0000000000000000e+00  -5.0744809880727469e-07 1.4016378554615754e-06 0.0000000000000000e+00  -6.0183578517183239e-07 1.7675829943406614e-06 0.0000000000000000e+00  -7.0683780013330102e-07 2.2398124538013324e-06 0.0000000000000000e+00  -8.2229503895716750e-07 2.8605319423559969e-06 0.0000000000000000e+00  -9.4760392206109625e-07 3.6899845236441877e-06 0.0000000000000000e+00  -1.0827167249414305e-06 4.8066949295220948e-06 0.0000000000000000e+00  -1.2341459998694847e-06 6.2876032795390792e-06 0.0000000000000000e+00  -1.4473457767179647e-06 8.1525231309506040e-06 0.0000000000000000e+00  0.0000000000000000e+00 0.0000000000000000e+00 0.0000000000000000e+00  -5.1309483816909608e-08 1.1509935847337236e-07 0.0000000000000000e+00  -1.0424710023903178e-07 2.3496166491878766e-07 0.0000000000000000e+00  -1.6045532016145455e-07 3.6458942709242315e-07 0.0000000000000000e+00  -2.2160497753824020e-07 5.0949407152804229e-07 0.0000000000000000e+00  -2.8939800207187751e-07 6.7600678533823795e-07 0.0000000000000000e+00  -3.6555573013352460e-07 8.7166656268385850e-07 0.0000000000000000e+00  -4.5178689830592201e-07 1.1057268195186118e-06 0.0000000000000000e+00  -5.4972933219646897e-07 1.3898339627700317e-06 0.0000000000000000e+00  -6.6086060339156895e-07 1.7389372119956296e-06 0.0000000000000000e+00  -7.8637710738404290e-07 2.1724621884400048e-06 0.0000000000000000e+00  -9.2705092969017967e-07 2.7156459711514917e-06 0.0000000000000000e+00  -1.0830937996377547e-06 3.4005015988222830e-06 0.0000000000000000e+00  -1.2540852373220456e-06 4.2647696396448037e-06 0.0000000000000000e+00  -1.4389718040234619e-06 5.3449053423289405e-06 0.0000000000000000e+00  -1.6352884316437155e-06 6.6560040742700634e-06 0.0000000000000000e+00  -1.8301048816862490e-06 8.1519517518403846e-06 0.0000000000000000e+00  0.0000000000000000e+00 0.0000000000000000e+00 0.0000000000000000e+00  -6.1075033841905734e-08 1.3454106245013247e-07 0.0000000000000000e+00  -1.2416034980844834e-07 2.7452581486865888e-07 0.0000000000000000e+00  -1.9129328522547574e-07 4.2564487791203632e-07 0.0000000000000000e+00  -2.6456431524239941e-07 5.9410552115214562e-07 0.0000000000000000e+00  -3.4613062943170331e-07 7.8692836290653077e-07 0.0000000000000000e+00  -4.3821275796684809e-07 1.0122913437464313e-06 0.0000000000000000e+00  -5.4306639541660119e-07 1.2799354681961463e-06 0.0000000000000000e+00  -6.6292063507689443e-07 1.6016376996171720e-06 0.0000000000000000e+00  -7.9987429575547514e-07 1.9917278538997782e-06 0.0000000000000000e+00  -9.5574561549086893e-07 2.4675522793974119e-06 0.0000000000000000e+00  -1.1318795042038706e-06 3.0496165175639775e-06 0.0000000000000000e+00  -1.3289319405311578e-06 3.7607887178659507e-06 0.0000000000000000e+00  -1.5466679211980542e-06 4.6233314318776282e-06 0.0000000000000000e+00  -1.7838088343392825e-06 5.6517425711913718e-06 0.0000000000000000e+00  -2.0379737393053655e-06 6.8391800352332841e-06 0.0000000000000000e+00  -2.3066581328271120e-06 8.1375803329705253e-06 0.0000000000000000e+00  0.0000000000000000e+00 0.0000000000000000e+00 0.0000000000000000e+00  -6.8831553407900465e-08 1.4854094965696170e-07 0.0000000000000000e+00  -1.4002630419463068e-07 3.0295499952181615e-07 0.0000000000000000e+00  -2.1599239653675708e-07 4.6935484841609288e-07 0.0000000000000000e+00  -2.9922627241059556e-07 6.5434642261238722e-07 0.0000000000000000e+00  -3.9234366716102016e-07 8.6529513680831977e-07 0.0000000000000000e+00  -4.9809241971975796e-07 1.1106112195748204e-06 0.0000000000000000e+00  -6.1933694886861210e-07 1.4000491099324273e-06 0.0000000000000000e+00  -7.5900141093090476e-07 1.7449977746593770e-06 0.0000000000000000e+00  -9.1995650730147318e-07 2.1587019644812707e-06 0.0000000000000000e+00  -1.1048356954773672e-06 2.6562842641242102e-06 0.0000000000000000e+00  -1.3157732843984943e-06 3.2543149865536413e-06 0.0000000000000000e+00  -1.5540727248375526e-06 3.9694900031321110e-06 0.0000000000000000e+00  -1.8198379694854154e-06 4.8157670726985952e-06 0.0000000000000000e+00  -2.1116233425302757e-06 5.7992898729019328e-06 0.0000000000000000e+00  -2.4261484682339306e-06 6.9111929466298220e-06 0.0000000000000000e+00  -2.7579702874264752e-06 8.1211902733816189e-06 0.0000000000000000e+00  0.0000000000000000e+00 0.0000000000000000e+00 0.0000000000000000e+00  -7.4225738093482111e-08 1.5666852146412476e-07 0.0000000000000000e+00  -1.5112082622598190e-07 3.1939663539404913e-07 0.0000000000000000e+00  -2.3342252011168391e-07 4.9446809416891359e-07 0.0000000000000000e+00  -3.2400212829233826e-07 6.8862074939219166e-07 0.0000000000000000e+00  -4.2592102581026839e-07 9.0927886307096263e-07 0.0000000000000000e+00  -5.4246981333854347e-07 1.1647847228014663e-06 0.0000000000000000e+00  -6.7717846506957769e-07 1.4646148050598170e-06 0.0000000000000000e+00  -8.3377949919939783e-07 1.8195475250105011e-06 0.0000000000000000e+00  -1.0160995913349939e-06 2.2417192057576487e-06 0.0000000000000000e+00  -1.2278498977900962e-06 2.7444580388926679e-06 0.0000000000000000e+00  -1.4722866883429338e-06 3.3417223987835134e-06 0.0000000000000000e+00  -1.7517304658739658e-06 4.0469046900167687e-06 0.0000000000000000e+00  -2.0669747697758112e-06 4.8707454432271984e-06 0.0000000000000000e+00  -2.4166911331380901e-06 5.8182470472937677e-06 0.0000000000000000e+00  -2.7970249740244020e-06 6.8849475325032129e-06 0.0000000000000000e+00  -3.2016080845994309e-06 8.0537455119291766e-06 0.0000000000000000e+00  0.0000000000000000e+00 0.0000000000000000e+00 0.0000000000000000e+00  -7.6950783616700633e-08 1.5873578773378540e-07 0.0000000000000000e+00  -1.5680795898453071e-07 3.2349170037254168e-07 0.0000000000000000e+00  -2.4257277986406546e-07 5.0049369421553580e-07 0.0000000000000000e+00  -3.3743529126041679e-07 6.9637877795879567e-07 0.0000000000000000e+00  -4.4486323765091281e-07 9.1839785071416471e-07 0.0000000000000000e+00  -5.6867974272627331e-07 1.1746083222842270e-06 0.0000000000000000e+00  -7.1311712911568287e-07 1.4740399913102994e-06 0.0000000000000000e+00  -8.8282473979683756e-07 1.8268036574118201e-06 0.0000000000000000e+00  -1.0827951704731184e-06 2.2440922635824777e-06 0.0000000000000000e+00  -1.3181571806692228e-06 2.7380009496171569e-06 0.0000000000000000e+00  -1.5937706842949996e-06 3.3210736124756749e-06 0.0000000000000000e+00  -1.9135652947423048e-06 4.0054894814960973e-06 0.0000000000000000e+00  -2.2796195641531317e-06 4.8018667755519029e-06 0.0000000000000000e+00  -2.6911254398395426e-06 5.7178048403016669e-06 0.0000000000000000e+00  -3.1436388420895855e-06 6.7564300596490459e-06 0.0000000000000000e+00  -3.6292712267683361e-06 7.9149204980953588e-06 0.0000000000000000e+00  0.0000000000000000e+00 0.0000000000000000e+00 0.0000000000000000e+00  -7.6768815955857631e-08 1.5478053849517621e-07 0.0000000000000000e+00  -1.5658577370076168e-07 3.1533581709379226e-07 0.0000000000000000e+00  -2.4262243246774998e-07 4.8762815420583489e-07 0.0000000000000000e+00  -3.3829853119017729e-07 6.7799042714990991e-07 0.0000000000000000e+00  -4.4741036785793422e-07 8.9330697010233404e-07 0.0000000000000000e+00  -5.7425964396451894e-07 1.1411836883908986e-06 0.0000000000000000e+00  -7.2377312783944257e-07 1.4300941679221626e-06 0.0000000000000000e+00  -9.0159078017822578e-07 1.7694794167218159e-06 0.0000000000000000e+00  -1.1140784301116785e-06 2.1697680066677243e-06 0.0000000000000000e+00  -1.3681879719070568e-06 2.6422750696937574e-06 0.0000000000000000e+00  -1.6710452667678973e-06 3.1989443415416583e-06 0.0000000000000000e+00  -2.0291107889154833e-06 3.8519413154720053e-06 0.0000000000000000e+00  -2.4467842284591549e-06 4.6132255967114766e-06 0.0000000000000000e+00  -2.9245266649752207e-06 5.4944552170823758e-06 0.0000000000000000e+00  -3.4571101798873865e-06 6.5078263860217734e-06 0.0000000000000000e+00  -4.0334740022890601e-06 7.6683486127361196e-06 0.0000000000000000e+00  0.0000000000000000e+00 0.0000000000000000e+00 0.0000000000000000e+00  -7.3537186454466573e-08 1.4504654338725269e-07 0.0000000000000000e+00  -1.5014124593637659e-07 2.9543642704797982e-07 0.0000000000000000e+00  -2.3302865565510654e-07 4.5668307960343049e-07 0.0000000000000000e+00  -3.2572030898855525e-07 6.3463389625204319e-07 0.0000000000000000e+00  -4.3221203812003564e-07 8.3563594529811318e-07 0.0000000000000000e+00  -5.5716427682657895e-07 1.0666967587740454e-06 0.0000000000000000e+00  -7.0610995496042282e-07 1.3356330204822875e-06 0.0000000000000000e+00  -8.8566690853584349e-07 1.6511947121398424e-06 0.0000000000000000e+00  -1.1037141488589661e-06 2.0231459594106925e-06 0.0000000000000000e+00  -1.3694393213975968e-06 2.4622791157554647e-06 0.0000000000000000e+00  -1.6930746108248779e-06 2.9803447476121925e-06 0.0000000000000000e+00  -2.0850082018854335e-06 3.5899237792846633e-06 0.0000000000000000e+00  -2.5538401174550513e-06 4.3044156860095640e-06 0.0000000000000000e+00  -3.1030512067925101e-06 5.1386998358903629e-06 0.0000000000000000e+00  -3.7267713176160162e-06 6.1117649499347198e-06 0.0000000000000000e+00  -4.4073183401414581e-06 7.2531303632011909e-06 0.0000000000000000e+00  0.0000000000000000e+00 0.0000000000000000e+00 0.0000000000000000e+00  -6.7236332663472127e-08 1.2996387319263652e-07 0.0000000000000000e+00  -1.3740981640645782e-07 2.6467250690190489e-07 0.0000000000000000e+00  -2.1362561019153720e-07 4.0902293678139134e-07 0.0000000000000000e+00  -2.9933504360876829e-07 5.6821090478566867e-07 0.0000000000000000e+00  -3.9854358833153813e-07 7.4788481284968451e-07 0.0000000000000000e+00  -5.1606224395226775e-07 9.5430432664488529e-07 0.0000000000000000e+00  -6.5781740002055038e-07 1.1945040462072857e-06 0.0000000000000000e+00  -8.3122825679449857e-07 1.4764608243871450e-06 0.0000000000000000e+00  -1.0456395141874509e-06 1.8092588832269093e-06 0.0000000000000000e+00  -1.3127391190549871e-06 2.2032365712249340e-06 0.0000000000000000e+00  -1.6467554489969131e-06 2.6700783982009436e-06 0.0000000000000000e+00  -2.0639510526840019e-06 3.2227924697337050e-06 0.0000000000000000e+00  -2.5804606981317111e-06 3.8755566155417568e-06 0.0000000000000000e+00  -3.2070200333911802e-06 4.6438387892818980e-06 0.0000000000000000e+00  -3.9395787376712285e-06 5.5469871362101120e-06 0.0000000000000000e+00  -4.7490980153617484e-06 6.6205869444844341e-06 0.0000000000000000e+00  0.0000000000000000e+00 0.0000000000000000e+00 0.0000000000000000e+00  -5.7995346395566314e-08 1.1013024472703447e-07 0.0000000000000000e+00  -1.1863181566916511e-07 2.2425815664701735e-07 0.0000000000000000e+00  -1.8472305321968042e-07 3.4651345354999403e-07 0.0000000000000000e+00  -2.5944261218748121e-07 4.8128578564421181e-07 0.0000000000000000e+00  -3.4655390696976889e-07 6.3336563494471332e-07 0.0000000000000000e+00  -4.5070823382604584e-07 8.0810024691085284e-07 0.0000000000000000e+00  -5.7784750733347143e-07 1.0115736353155631e-06 0.0000000000000000e+00  -7.3575902281731301e-07 1.2508228829815241e-06 0.0000000000000000e+00  -9.3483494666370067e-07 1.5341037287969721e-06 0.0000000000000000e+00  -1.1890664254489347e-06 1.8712065715123262e-06 0.0000000000000000e+00  -1.5171858455750916e-06 2.2737708409836609e-06 0.0000000000000000e+00  -1.9434964467561964e-06 2.7553846920867009e-06 0.0000000000000000e+00  -2.4969471607758082e-06 3.3308821166032286e-06 0.0000000000000000e+00  -3.2049258692579945e-06 4.0137204679514137e-06 0.0000000000000000e+00  -4.0754150573971668e-06 4.8112163076633621e-06 0.0000000000000000e+00  -5.0635480612464091e-06 5.7291238950756814e-06 0.0000000000000000e+00  0.0000000000000000e+00 0.0000000000000000e+00 0.0000000000000000e+00  -4.6109936676372570e-08 8.6292470685446497e-08 0.0000000000000000e+00  -9.4394395373451541e-08 1.7570747283563238e-07 0.0000000000000000e+00  -1.4718577870051244e-07 2.7147476399031265e-07 0.0000000000000000e+00  -2.0714961503504705e-07 3.7703649238320742e-07 0.0000000000000000e+00  -2.7750882995826493e-07 4.9616858603067337e-07 0.0000000000000000e+00  -3.6235168625187693e-07 6.3312487563750595e-07 0.0000000000000000e+00  -4.6708000391871717e-07 7.9282109389335699e-07 0.0000000000000000e+00  -5.9908849307767280e-07 9.8108704657152429e-07 0.0000000000000000e+00  -7.6882120032375292e-07 1.2050314821173388e-06 0.0000000000000000e+00  -9.9142892224359337e-07 1.4735795898059355e-06 0.0000000000000000e+00  -1.2893189997879485e-06 1.7982236222713334e-06 0.0000000000000000e+00  -1.6957669885972595e-06 2.1938347616890230e-06 0.0000000000000000e+00  -2.2587611111196323e-06 2.6785299727524742e-06 0.0000000000000000e+00  -3.0402157289700420e-06 3.2685202443806887e-06 0.0000000000000000e+00  -4.0936213723318269e-06 3.9544599718113209e-06 0.0000000000000000e+00  -5.3827195657704627e-06 4.6240019246475557e-06 0.0000000000000000e+00  0.0000000000000000e+00 0.0000000000000000e+00 0.0000000000000000e+00  -3.2046758279083352e-08 5.9326027015951824e-08 0.0000000000000000e+00  -6.5645398365659734e-08 1.2079584398575985e-07 0.0000000000000000e+00  -1.0246953908692846e-07 1.8662969081929041e-07 0.0000000000000000e+00  -1.4445206192030599e-07 2.5920028647139874e-07 0.0000000000000000e+00  -1.9396694100218710e-07 3.4112412183791500e-07 0.0000000000000000e+00  -2.5409036558362144e-07 4.3537650033357844e-07 0.0000000000000000e+00  -3.2900340686780787e-07 5.4545104562146139e-07 0.0000000000000000e+00  -4.2464959654584312e-07 6.7560294930872418e-07 0.0000000000000000e+00  -5.4986402215451729e-07 8.3125287945007143e-07 0.0000000000000000e+00  -7.1840229091890234e-07 1.0197053805531184e-06 0.0000000000000000e+00  -9.5272949071974267e-07 1.2514889424759445e-06 0.0000000000000000e+00  -1.2912506043369908e-06 1.5428933214846743e-06 0.0000000000000000e+00  -1.8018130632904697e-06 1.9205037618508260e-06 0.0000000000000000e+00  -2.6032955128315712e-06 2.4270481581818031e-06 0.0000000000000000e+00  -3.8760034260181961e-06 3.1141531319982475e-06 0.0000000000000000e+00  -5.6942427272301576e-06 3.9216228151076682e-06 0.0000000000000000e+00  0.0000000000000000e+00 0.0000000000000000e+00 0.0000000000000000e+00  -1.6428874869601317e-08 3.0210570890424645e-08 0.0000000000000000e+00  -3.3666636606165863e-08 6.1512399160775661e-08 0.0000000000000000e+00  -5.2588708206961431e-08 9.5036732192676914e-08 0.0000000000000000e+00  -7.4213093368244977e-08 1.3199500560435293e-07 0.0000000000000000e+00  -9.9803063948967553e-08 1.7372842124157184e-07 0.0000000000000000e+00  -1.3101902000084373e-07 2.2177301691323788e-07 0.0000000000000000e+00  -1.7016187119387665e-07 2.7795512885446412e-07 0.0000000000000000e+00  -2.2059152896129052e-07 3.4454830755018019e-07 0.0000000000000000e+00  -2.8749879551630271e-07 4.2456156977756122e-07 0.0000000000000000e+00  -3.7944261484308537e-07 5.2233005291019283e-07 0.0000000000000000e+00  -5.1169079927593410e-07 6.4486715879118239e-07 0.0000000000000000e+00  -7.1423307739897126e-07 8.0533096030245102e-07 0.0000000000000000e+00  -1.0531704052311644e-06 1.0329569884697705e-06 0.0000000000000000e+00  -1.6943030190788675e-06 1.4045712315340437e-06 0.0000000000000000e+00  -3.1115524461894835e-06 2.1533921942255685e-06 0.0000000000000000e+00  -6.8212174153434610e-06 4.0667528092452143e-06 0.0000000000000000e+00  0.0000000000000000e+00 0.0000000000000000e+00 0.0000000000000000e+00  0.0000000000000000e+00 0.0000000000000000e+00 0.0000000000000000e+00  0.0000000000000000e+00 0.0000000000000000e+00 0.0000000000000000e+00  0.0000000000000000e+00 0.0000000000000000e+00 0.0000000000000000e+00  0.0000000000000000e+00 0.0000000000000000e+00 0.0000000000000000e+00  0.0000000000000000e+00 0.0000000000000000e+00 0.0000000000000000e+00  0.0000000000000000e+00 0.0000000000000000e+00 0.0000000000000000e+00  0.0000000000000000e+00 0.0000000000000000e+00 0.0000000000000000e+00  0.0000000000000000e+00 0.0000000000000000e+00 0.0000