<?xml version="1.0"?>
<VTKFile type="UnstructuredGrid"  version="0.1"  >
<UnstructuredGrid>
<Piece  NumberOfPoints="289" NumberOfCells="512">
<Points>
<DataArray  type="Float64"  NumberOfComponents="3"  format="ascii">0 0 0  0.0625 0 0  0.125 0 0  0.1875 0 0  0.25 0 0  0.3125 0 0  0.375 0 0  0.4375 0 0  0.5 0 0  0.5625 0 0  0.625 0 0  0.6875 0 0  0.75 0 0  0.8125 0 0  0.875 0 0  0.9375 0 0  1 0 0  0 0.0625 0  0.06249880396355914 0.06250098855752449 0  0.1249975729839273 0.06250201775591023 0  0.187496271835678 0.06250313056065607 0  0.249994865344706 0.06250437486288542 0  0.3124933186695079 0.06250580688976623 0  0.3749915979081094 0.06250749612524488 0  0.4374896711258701 0.06250953308689967 0  0.4999875098685562 0.06251204263319761 0  0.5624850911597012 0.06251520847897067 0  0.6249823998661823 0.06251932183722776 0  0.6874794311536758 0.06252488594332758 0  0.7499761926647749 0.06253286153417777 0  0.8124727068245419 0.06254530297670095 0  0.8749690198368644 0.06256718763544677 0  0.9374652618389933 0.06261224395357004 0  0.9999620382157495 0.06272331084220228 0  0 0.125 0  0.06249764303222619 0.1250019362252941 0  0.1249952161810081 0.1250039514028913 0  0.1874926489230742 0.1250061287907188 0  0.2499898706194685 0.1250085607055593 0  0.3124868109733762 0.1250113546022751 0  0.3749834011519764 0.1250146415535321 0  0.4374795757841933 0.1250185891028937 0  0.4999752760001896 0.1250234221559573 0  0.5624704535652991 0.1250294590118931 0  0.624965075934532 0.1250371767458532 0  0.6874591316273372 0.1250473349417064 0  0.7499526344334712 0.1250612166331805 0  0.8124456224408035 0.1250810976813596 0  0.874938137734295 0.1251110967914414 0  0.9374301228127297 0.1251582395294377 0  0.9999209102858029 0.1252306636050464 0  0 0.1875 0  0.06249655238401493 0.1875028046630948 0  0.1249930000732415 0.1875057223054652 0  0.1874892372216339 0.1875088716276114 0  0.2499851572621978 0.1875123832394467 0  0.3124806533216539 0.1875164072692923 0  0.3749756196508073 0.1875211234173193 0  0.4374699544367407 0.1875267552028697 0  0.4999635643342907 0.1875335913149294 0  0.5624563709418567 0.1875420189307243 0  0.6249483191971932 0.1875525768677916 0  0.6874393872371825 0.1875660399212877 0  0.7499295966918833 0.1875835452041898 0  0.8124190221596606 0.1876067471527276 0  0.8749078017484806 0.1876378706853451 0  0.937396174757341 0.1876791175877497 0  0.9998847200550824 0.1877297720847851 0  0 0.25 0  0.06249556700019283 0.2500035598236611 0  0.124990994969634 0.2500072609701376 0  0.1874861429789375 0.2500112512826324 0  0.2499808681163628 0.2500156920039797 0  0.3124750255087182 0.2500207658128162 0  0.374968469701363 0.2500266866924496 0  0.4374610579603299 0.2500337126538091 0  0.4999526560923608 0.2500421626761286 0  0.5624431473212173 0.2500524394674751 0  0.6249324445310315 0.2500650591361223 0  0.687420505707483 0.2500806856498103 0  0.7499073516519142 0.2501001568321464 0  0.8123930841612678 0.250124457554954 0  0.8748779020829194 0.2501545237243137 0  0.9373621094382388 0.2501906416404642 0  0.9998460748932769 0.2502312136530173 0  0 0.3125 0  0.06249472129512273 0.312504173355838 0  0.1249892703712111 0.3125085099002829 0  0.1874834720487625 0.3125131796250727 0  0.2499771470508426 0.3125183663206508 0  0.3124701111361529 0.3125242752819157 0  0.374962175874209 0.3125311419650078 0  0.4374531518563225 0.3125392418184336 0  0.4999428552890762 0.3125489012179347 0  0.5624311189936607 0.3125605086140481 0  0.6249178087064883 0.3125745229590081 0  0.6874028450582728 0.3125914718248942 0  0.749886230490497 0.3126119220003994 0  0.8123680785238424 0.3126363882274173 0  0.874848640393202 0.3126651240104359 0  0.9373283221309934 0.3126977405748331 0  0.9998076900155153 0.3127327251660517 0  0 0.375 0  0.0624940484314904 0.3750046234005975 0  0.124987893691922 0.3750094250877888 0  0.1874813282151329 0.375014590100088 0  0.2499741372280748 0.3750203170224709 0  0.3124660963615917 0.3750268250477877 0  0.3749569710366931 0.3750343611937781 0  0.437446518653791 0.375043207312115 0  0.4999344949605112 0.3750536859184646 0  0.5624206663102271 0.3750661626981807 0  0.6249048296734012 0.3750810413758894 0  0.6873868418994632 0.3750987429203091 0  0.7498666583400874 0.3751196554632528 0  0.8123443779312562 0.3751440351238549 0  0.8748202868180346 0.3751718376007513 0  0.9372948859937749 0.3752024836624641 0  0.9997688809231368 0.375234637722403 0  0 0.4375 0  0.06249357923257205 0.4375048948798998 0  0.1249869281401008 0.4375099764099222 0  0.1874798101834396 0.4375154377935543 0  0.2499719774856263 0.4375214853029232 0  0.312463166181107 0.437528344752792 0  0.3749530933962181 0.4375362676378513 0  0.437441457058542 0.4375455362906495 0  0.4999279403525948 0.4375564667617711 0  0.5624122234071508 0.4375694070267504 0  0.6248940055454046 0.437584726401315 0  0.6873730417076509 0.4376027895984163 0  0.7498491955761724 0.4376239060009122 0  0.8123225081072851 0.4376482429156674 0  0.8747932722094584 0.4376756946270975 0  0.9372620925266575 0.4377057138168299 0  0.9997298992748337 0.4377371442552784 0  0 0.5 0  0.06249334063541648 0.500004979459526 0  0.1249864296209362 0.5000101473715985 0  0.1874790069587816 0.5000156985278641 0  0.2499707963216281 0.5000218403684318 0  0.3124614973855542 0.5000287991349421 0  0.3749507792185886 0.5000368255673692 0  0.4374382759120076 0.5000461995086475 0  0.499923586567033 0.5000572322369395 0  0.562406283114994 0.5000702645132186 0  0.624885931225477 0.5000856571547897 0  0.687362131348666 0.5001037694503421 0  0.7498345875245062 0.5001249191230885 0  0.8123032083482168 0.500149316253461 0  0.8747682333237942 0.5001769630578673 0  0.9372303555585501 0.5002075116596754 0  0.9996907837622784 0.5002400724855814 0  0 0.5625 0  0.06249335368805824 0.5625048753701443 0  0.1249864426327629 0.5625099346200437 0  0.1874789914799664 0.5625153677868793 0  0.2499707031202504 0.5625213772806623 0  0.3124612473999526 0.562528184015459 0  0.3749502497429812 0.5625360332978342 0  0.4374372805127736 0.5625452000564415 0  0.4999218470851319 0.5625559926410805 0  0.5624033925903658 0.5625687539100187 0  0.6248813084752392 0.562583857664308 0  0.6873549725372421 0.5626016977335235 0  0.7498238289301344 0.5626226662116164 0  0.8122875280592027 0.5626471160715598 0  0.874746133241443 0.5626752993434778 0  0.9372003630821272 0.5627072583913952 0  0.9996517662975593 0.5627426155523195 0  0 0.625 0  0.06249363118625218 0.6250045872152649 0  0.1249869953161638 0.6250093475168487 0  0.1874798126534672 0.6250144599651136 0  0.2499717765935138 0.62502011576329 0  0.3124625385439675 0.6250265245507732 0  0.374951690963259 0.6250339208949428 0  0.4374387485061583 0.6250425709139714 0  0.4999231282637078 0.6250527788225672 0  0.5624041323348268 0.6250648930005053 0  0.624880940458247 0.6250793109779225 0  0.6873526285841209 0.6250964826562222 0  0.7498182420976001 0.6251169114606149 0  0.8122769674992176 0.625141154155051 0  0.874728449950854 0.6251698193597977 0  0.9371732583144805 0.6252035465379995 0  0.999613344372714 0.6252428503961381 0  0 0.6875 0  0.06249417516941896 0.6875041258112219 0  0.1249880940788701 0.6875084078561841 0  0.1874814863603176 0.6875130080630967 0  0.2499740510255898 0.6875181000885411 0  0.312465438009751 0.6875238757446978 0  0.3749552256889107 0.6875305521570199 0  0.4374428928467898 0.6875383799836227 0  0.4999277838900269 0.6875476531044414 0  0.5624090675974304 0.6875587202731249 0  0.6248856940548517 0.6875719993180002 0  0.6873563651742309 0.687587994729197 0  0.7498195573599261 0.6876073207512086 0  0.81227367729417 0.6876307377094223 0  0.8747174880446045 0.6876592277702971 0  0.9371509495803265 0.6876941747321373 0  0.9995763614467537 0.6877376867159094 0  0 0.75 0  0.06249497463618837 0.7500035080220188 0  0.1249897185367664 0.7500071496318929 0  0.1874839865741629 0.7500110636169991 0  0.2499775018178671 0.7500153996116876 0  0.3124699352038417 0.7500203243793752 0  0.3749608790665021 0.750026029298598 0  0.4374498111481325 0.7500327397652247 0  0.499936044550892 0.7500407275282903 0  0.562418658104617 0.7500503273390675 0  0.6248964023742666 0.7500619595282362 0  0.6873675838224195 0.7500761597917353 0  0.7498299561994524 0.7500936162276038 0  0.8122807230328949 0.7501152149735252 0  0.8747169267158298 0.7501421257297078 0  0.9371367750187097 0.7501761370180348 0  0.9995424417324364 0.7502211585093479 0  0 0.8125 0  0.06249600396177006 0.812502756492229 0  0.1249918178112021 0.8125056186240839 0  0.1874872383320262 0.8125086964214797 0  0.2499820329566536 0.8125121091637955 0  0.3124759200631748 0.812515991011413 0  0.3749685419094996 0.8125204981002053 0  0.4374594252322134 0.8125258181012177 0  0.4999479214950457 0.8125321838192788 0  0.5624331137344918 0.8125398932332742 0  0.6249136693208944 0.8125493392116367 0  0.6873876091173794 0.812561051553474 0  0.7498519644707701 0.8125757466994389 0  0.8123023514140554 0.8125943507587228 0  0.8747327685870522 0.8126178804485622 0  0.9371368581778591 0.8126469982115386 0  0.9995139798609008 0.8126822233108247 0  0 0.875 0  0.06249722254686071 0.8750018991573031 0  0.1249943093807304 0.8750038715227004 0  0.1874911147250502 0.875005993512191 0  0.2499874700418021 0.8750083483693758 0  0.3124831681687108 0.8750110304837628 0  0.374977940620887 0.8750141510851235 0  0.4374714227863029 0.8750178463744358 0  0.4999630975177544 0.8750222899715342 0  0.5624521991496927 0.875027713119278 0  0.6249375426141573 0.8750344389654824 0  0.6874172065067672 0.875042941843303 0  0.7498879274909384 0.8750539450875188 0  0.8123439429422199 0.8750685396275558 0  0.8747749612851672 0.8750880472931155 0  0.9371639747803412 0.8751118071597844 0  0.9994940618730388 0.8751224533257672 0  0 0.9375 0  0.06249857613856317 0.9375009684276653 0  0.1249970815448091 0.9375019743414857 0  0.1874954400027234 0.9375030569302862 0  0.249993562819345 0.9375042590279641 0  0.3124913399195749 0.9375056294803895 0  0.374988626766691 0.9375072263654651 0  0.4374852236167008 0.937
[...]
<PointData  Vectors="f_54"> 
<DataArray  type="Float64"  Name="f_54"  NumberOfComponents="3" format="ascii">0.0000000000000000e+00 0.0000000000000000e+00 0.0000000000000000e+00  0.0000000000000000e+00 0.0000000000000000e+00 0.0000000000000000e+00  0.0000000000000000e+00 0.0000000000000000e+00 0.0000000000000000e+00  0.0000000000000000e+00 0.0000000000000000e+00 0.0000000000000000e+00  0.0000000000000000e+00 0.0000000000000000e+00 0.0000000000000000e+00  0.0000000000000000e+00 0.0000000000000000e+00 0.0000000000000000e+00  0.0000000000000000e+00 0.0000000000000000e+00 0.0000000000000000e+00  0.0000000000000000e+00 0.0000000000000000e+00 0.0000000000000000e+00  0.0000000000000000e+00 0.0000000000000000e+00 0.0000000000000000e+00  0.0000000000000000e+00 0.0000000000000000e+00 0.0000000000000000e+00  0.0000000000000000e+00 0.0000000000000000e+00 0.0000000000000000e+00  0.0000000000000000e+00 0.0000000000000000e+00 0.0000000000000000e+00  0.0000000000000000e+00 0.0000000000000000e+00 0.0000000000000000e+00  0.0000000000000000e+00 0.0000000000000000e+00 0.0000000000000000e+00  0.0000000000000000e+00 0.0000000000000000e+00 0.0000000000000000e+00  0.0000000000000000e+00 0.0000000000000000e+00 0.0000000000000000e+00  0.0000000000000000e+00 0.0000000000000000e+00 0.0000000000000000e+00  0.0000000000000000e+00 0.0000000000000000e+00 0.0000000000000000e+00  -9.2306961487824259e-08 1.0046422587026092e-07 0.0000000000000000e+00  -1.8734450138130681e-07 2.0531283941433872e-07 0.0000000000000000e+00  -2.8784594591452420e-07 3.1920476596879915e-07 0.0000000000000000e+00  -3.9654724975330914e-07 4.4739416649213992e-07 0.0000000000000000e+00  -5.1616733825696198e-07 5.9614181966518490e-07 0.0000000000000000e+00  -6.4936313180414721e-07 7.7330626275241325e-07 0.0000000000000000e+00  -7.9865060197813324e-07 9.8927135139641602e-07 0.0000000000000000e+00  -9.6628363136568761e-07 1.2585210017069743e-06 0.0000000000000000e+00  -1.1540829409797156e-06 1.6025247509376224e-06 0.0000000000000000e+00  -1.3632057181704608e-06 2.0554632300952453e-06 0.0000000000000000e+00  -1.5938354616490912e-06 2.6766235014850385e-06 0.0000000000000000e+00  -1.8447308906230581e-06 3.5799728698581411e-06 0.0000000000000000e+00  -2.1124582310401044e-06 5.0126235115306064e-06 0.0000000000000000e+00  -2.3898976031399782e-06 7.5872220747672418e-06 0.0000000000000000e+00  -2.6636045923159763e-06 1.3046873276711168e-05 0.0000000000000000e+00  -2.9134735183999486e-06 2.7028366924943855e-05 0.0000000000000000e+00  0.0000000000000000e+00 0.0000000000000000e+00 0.0000000000000000e+00  -1.8188265122214034e-07 1.9654321186705666e-07 0.0000000000000000e+00  -3.6922045454459679e-07 4.0157691331032677e-07 0.0000000000000000e+00  -5.6748262615326303e-07 6.2410061863539256e-07 0.0000000000000000e+00  -7.8216026233958933e-07 8.7421027062926683e-07 0.0000000000000000e+00  -1.0187356737819277e-06 1.1638348482869457e-06 0.0000000000000000e+00  -1.2826011018403921e-06 1.5077616724282288e-06 0.0000000000000000e+00  -1.5789091215801752e-06 1.9251801975966660e-06 0.0000000000000000e+00  -1.9123382395145134e-06 2.4421667573560182e-06 0.0000000000000000e+00  -2.2867604025865890e-06 3.0959242154526156e-06 0.0000000000000000e+00  -2.7048013072946359e-06 3.9423971912219212e-06 0.0000000000000000e+00  -3.1672824356405277e-06 5.0705378089920322e-06 0.0000000000000000e+00  -3.6724973140490451e-06 6.6296841949748937e-06 0.0000000000000000e+00  -4.2150922739903288e-06 8.8811993581373119e-06 0.0000000000000000e+00  -4.7835136626684977e-06 1.2283122190718402e-05 0.0000000000000000e+00  -5.3512692687568407e-06 1.7542930248523583e-05 0.0000000000000000e+00  -5.8390963415180613e-06 2.5050439904493433e-05 0.0000000000000000e+00  0.0000000000000000e+00 0.0000000000000000e+00 0.0000000000000000e+00  -2.6600500751233453e-07 2.8413335491040587e-07 0.0000000000000000e+00  -5.4016994693475408e-07 5.8034793205452245e-07 0.0000000000000000e+00  -8.3069706991143826e-07 9.0140137129100247e-07 0.0000000000000000e+00  -1.1458628345984063e-06 1.2614937788903837e-06 0.0000000000000000e+00  -1.4939937560596676e-06 1.6771955740545521e-06 0.0000000000000000e+00  -1.8833665452288536e-06 2.1686768620012737e-06 0.0000000000000000e+00  -2.3220044450503136e-06 2.7614444559726597e-06 0.0000000000000000e+00  -2.8173430450695163e-06 3.4889216779989470e-06 0.0000000000000000e+00  -3.3757458518229960e-06 4.3964194440449611e-06 0.0000000000000000e+00  -4.0018670248558874e-06 5.5473620349242931e-06 0.0000000000000000e+00  -4.6978943461509667e-06 7.0329513701674938e-06 0.0000000000000000e+00  -5.4627849960984877e-06 8.9861804025403997e-06 0.0000000000000000e+00  -6.2918386070592241e-06 1.1597852998677686e-05 0.0000000000000000e+00  -7.1778560008885892e-06 1.5118423255404815e-05 0.0000000000000000e+00  -8.1192756500527573e-06 1.9787495286793839e-05 0.0000000000000000e+00  -9.1610449362622232e-06 2.5563472625467025e-05 0.0000000000000000e+00  0.0000000000000000e+00 0.0000000000000000e+00 0.0000000000000000e+00  -3.4197104759165624e-07 3.5964544592030676e-07 0.0000000000000000e+00  -6.9475697585666720e-07 7.3427843001672393e-07 0.0000000000000000e+00  -1.0692679566153223e-06 1.1396552433330534e-06 0.0000000000000000e+00  -1.4765895249090746e-06 1.5931512969174328e-06 0.0000000000000000e+00  -1.9279918245926084e-06 2.1147476386512337e-06 0.0000000000000000e+00  -2.4348393078120356e-06 2.7282580019816216e-06 0.0000000000000000e+00  -3.0083598351860935e-06 3.4629235041792991e-06 0.0000000000000000e+00  -3.6592306476614636e-06 4.3555383148058806e-06 0.0000000000000000e+00  -4.3969449653874919e-06 5.4532876864293978e-06 0.0000000000000000e+00  -5.2289446738958057e-06 6.8173988609158457e-06 0.0000000000000000e+00  -6.1595524549782155e-06 8.5272916515708849e-06 0.0000000000000000e+00  -7.1888233058712977e-06 1.0683571346646736e-05 0.0000000000000000e+00  -8.3115604444059857e-06 1.3404637482914889e-05 0.0000000000000000e+00  -9.5167843420159694e-06 1.6803951702228473e-05 0.0000000000000000e+00  -1.0786957697822401e-05 2.0923902444092635e-05 0.0000000000000000e+00  -1.2088079654100795e-05 2.5607403088223906e-05 0.0000000000000000e+00  0.0000000000000000e+00 0.0000000000000000e+00 0.0000000000000000e+00  -4.0712664693316479e-07 4.2017350582990313e-07 0.0000000000000000e+00  -8.2761947919492119e-07 8.5746365460893593e-07 0.0000000000000000e+00  -1.2750241422675262e-06 1.3297820380403480e-06 0.0000000000000000e+00  -1.7632255639584747e-06 1.8566918553011238e-06 0.0000000000000000e+00  -2.3065273851615834e-06 2.4603563424754087e-06 0.0000000000000000e+00  -2.9196123242534545e-06 3.1666361681262937e-06 0.0000000000000000e+00  -3.6173266894017530e-06 4.0063782077405691e-06 0.0000000000000000e+00  -4.4142229726380012e-06 5.0169053594681295e-06 0.0000000000000000e+00  -5.3237923691059489e-06 6.2436207647340728e-06 0.0000000000000000e+00  -6.3573345324951386e-06 7.7413973812510595e-06 0.0000000000000000e+00  -7.5224593893778101e-06 9.5748745596373103e-06 0.0000000000000000e+00  -8.8213094177099418e-06 1.1815664681527178e-05 0.0000000000000000e+00  -1.0248728287958871e-05 1.4532526428393282e-05 0.0000000000000000e+00  -1.1790733745017581e-05 1.7768150564242074e-05 0.0000000000000000e+00  -1.3423714322546816e-05 2.1496231816287990e-05 0.0000000000000000e+00  -1.5115600277847186e-05 2.5563430485303277e-05 0.0000000000000000e+00  0.0000000000000000e+00 0.0000000000000000e+00 0.0000000000000000e+00  -4.5892020537921065e-07 4.6358757050444551e-07 0.0000000000000000e+00  -9.3357032142156138e-07 9.4561826376910800e-07 0.0000000000000000e+00  -1.4399790315876027e-06 1.4653085387648720e-06 0.0000000000000000e+00  -1.9947507678869216e-06 2.0434599760857363e-06 0.0000000000000000e+00  -2.6152618519860395e-06 2.7033192758243220e-06 0.0000000000000000e+00  -3.3197283611267763e-06 3.4715034339830768e-06 0.0000000000000000e+00  -4.1270722374861027e-06 4.3789727794242046e-06 0.0000000000000000e+00  -5.0564888751663507e-06 5.4619715148581835e-06 0.0000000000000000e+00  -6.1265985711473701e-06 6.7627274605957273e-06 0.0000000000000000e+00  -7.3540589094867419e-06 8.3294598325401559e-06 0.0000000000000000e+00  -8.7515480933070883e-06 1.0214821955155985e-05 0.0000000000000000e+00  -1.0325131692714002e-05 1.2471271774900607e-05 0.0000000000000000e+00  -1.2071224298744752e-05 1.5141173911804853e-05 0.0000000000000000e+00  -1.3973642565812087e-05 1.8239435064982619e-05 0.0000000000000000e+00  -1.6001517074498939e-05 2.1729153711770815e-05 0.0000000000000000e+00  -1.8108808960204806e-05 2.5499680118853963e-05 0.0000000000000000e+00  0.0000000000000000e+00 0.0000000000000000e+00 0.0000000000000000e+00  -4.9498657215213095e-07 4.8855927769537832e-07 0.0000000000000000e+00  -1.0077611963439326e-06 9.9610901293679574e-07 0.0000000000000000e+00  -1.5565646691824722e-06 1.5423631026937037e-06 0.0000000000000000e+00  -2.1605242918060019e-06 2.1485005583101834e-06 0.0000000000000000e+00  -2.8400207032734347e-06 2.8379250984198359e-06 0.0000000000000000e+00  -3.6169367756989967e-06 3.6370353140255330e-06 0.0000000000000000e+00  -4.5147022008849314e-06 4.5759622579100815e-06 0.0000000000000000e+00  -5.5580038910270362e-06 5.6891691046796146e-06 0.0000000000000000e+00  -6.7719795958649116e-06 7.0156980889869046e-06 0.0000000000000000e+00  -8.1806632334849605e-06 8.5986709608578725e-06 0.0000000000000000e+00  -9.8044374045653278e-06 1.0483387848018926e-05 0.0000000000000000e+00  -1.1656332577515625e-05 1.2713062599701773e-05 0.0000000000000000e+00  -1.3737283416532346e-05 1.5321056630486953e-05 0.0000000000000000e+00  -1.6030991190849732e-05 1.8318881227464799e-05 0.0000000000000000e+00  -1.8499801675296649e-05 2.1681008047063607e-05 0.0000000000000000e+00  -2.1083623294688694e-05 2.5331174978541705e-05 0.0000000000000000e+00  0.0000000000000000e+00 0.0000000000000000e+00 0.0000000000000000e+00  -5.1326519147844144e-07 4.9453869858748614e-07 0.0000000000000000e+00  -1.0459192533389897e-06 1.0078885761801450e-06 0.0000000000000000e+00  -1.6179850956445980e-06 1.5595210150473182e-06 0.0000000000000000e+00  -2.2507455047549230e-06 2.1702319289371032e-06 0.0000000000000000e+00  -2.9673359672323971e-06 2.8628106590582498e-06 0.0000000000000000e+00  -3.7932610017719554e-06 3.6626981873117534e-06 0.0000000000000000e+00  -4.7567472077969034e-06 4.5985946019411490e-06 0.0000000000000000e+00  -5.8887792817922112e-06 5.7029328105166887e-06 0.0000000000000000e+00  -7.2225676107453857e-06 7.0120669645108966e-06 0.0000000000000000e+00  -8.7920714215831335e-06 8.5659219629149517e-06 0.0000000000000000e+00  -1.0629081138660540e-05 1.0406712725027314e-05 0.0000000000000000e+00  -1.2758339040062227e-05 1.2576185612231673e-05 0.0000000000000000e+00  -1.5190439655836904e-05 1.5110716564637053e-05 0.0000000000000000e+00  -1.7913089309447234e-05 1.8033637731898135e-05 0.0000000000000000e+00  -2.0882922899525107e-05 2.1344507657628802e-05 0.0000000000000000e+00  -2.4022026257472387e-05 2.5005706542185674e-05 0.0000000000000000e+00  0.0000000000000000e+00 0.0000000000000000e+00 0.0000000000000000e+00  -5.1215213294319442e-07 4.8170220010539199e-07 0.0000000000000000e+00  -1.0446582009650959e-06 9.8137590717705762e-07 0.0000000000000000e+00  -1.6186981880477943e-06 1.5175843969822182e-06 0.0000000000000000e+00  -2.2571169086194613e-06 2.1100706578484395e-06 0.0000000000000000e+00  -2.9852876702100519e-06 2.7803502152013978e-06 0.0000000000000000e+00  -3.8319828548641690e-06 3.5522973691637797e-06 0.0000000000000000e+00  -4.8301892737698541e-06 4.4527055050776684e-06 0.0000000000000000e+00  -6.0177213963981971e-06 5.5117865086156118e-06 0.0000000000000000e+00  -7.4373392832658779e-06 6.7635547525961038e-06 0.0000000000000000e+00  -9.1358463336126599e-06 8.2460179930126266e-06 0.0000000000000000e+00  -1.1161322709648263e-05 1.0001066515948976e-05 0.0000000000000000e+00  -1.3557325788323225e-05 1.2073888493937990e-05 0.0000000000000000e+00  -1.6352853964812298e-05 1.4511562214294763e-05 0.0000000000000000e+00  -1.9547802974433413e-05 1.7359989645770858e-05 0.0000000000000000e+00  -2.3096571071658607e-05 2.0657235701103677e-05 0.0000000000000000e+00  -2.6897709252736901e-05 2.4419624548178119e-05 0.0000000000000000e+00  0.0000000000000000e+00 0.0000000000000000e+00 0.0000000000000000e+00  -4.9067894245757469e-07 4.5088664439348930e-07 0.0000000000000000e+00  -1.0018522073256978e-06 9.1831604515617152e-07 0.0000000000000000e+00  -1.5550156341317989e-06 1.4193512739247400e-06 0.0000000000000000e+00  -2.1737116532758480e-06 1.9720886245187810e-06 0.0000000000000000e+00  -2.8846799386996712e-06 2.5961823143182034e-06 0.0000000000000000e+00  -3.7191443755026262e-06 3.3133779770541952e-06 0.0000000000000000e+00  -4.7142376870921721e-06 4.1480607056488724e-06 0.0000000000000000e+00  -5.9144852520959207e-06 5.1278347238660405e-06 0.0000000000000000e+00  -7.3730986753724744e-06 6.2841808628394123e-06 0.0000000000000000e+00  -9.1524929124826196e-06 7.6532982277736660e-06 0.0000000000000000e+00  -1.1322840136171043e-05 9.2773366263119586e-06 0.0000000000000000e+00  -1.3956554044272034e-05 1.1206337060980027e-05 0.0000000000000000e+00  -1.7115587434076088e-05 1.3501154870107478e-05 0.0000000000000000e+00  -2.0828427824739256e-05 1.6236934358479177e-05 0.0000000000000000e+00  -2.5057593560228282e-05 1.9504160107369333e-05 0.0000000000000000e+00  -2.9670664502817008e-05 2.3397934641132941e-05 0.0000000000000000e+00  0.0000000000000000e+00 0.0000000000000000e+00 0.0000000000000000e+00  -4.4870206927857344e-07 4.0351846543990581e-07 0.0000000000000000e+00  -9.1704152915671205e-07 8.2163566846775700e-07 0.0000000000000000e+00  -1.4257795374769219e-06 1.2693950405903984e-06 0.0000000000000000e+00  -1.9980045827077927e-06 1.7627205080368152e-06 0.0000000000000000e+00  -2.6605346090386639e-06 2.3188701727417579e-06 0.0000000000000000e+00  -3.4456189580940330e-06 2.9569111541703168e-06 0.0000000000000000e+00  -4.3930507367152257e-06 3.6982381261095892e-06 0.0000000000000000e+00  -5.5527708135998699e-06 4.5671869344051845e-06 0.0000000000000000e+00  -6.9879237049192739e-06 5.5918591537080435e-06 0.0000000000000000e+00  -8.7779818893519662e-06 6.8054081905451237e-06 0.0000000000000000e+00  -1.1020728037038131e-05 8.2482983813744735e-06 0.0000000000000000e+00  -1.3830142202022377e-05 9.9724972306416996e-06 0.0000000000000000e+00  -1.7324149585697113e-05 1.2049161735472260e-05 0.0000000000000000e+00  -2.1592354155239666e-05 1.4581628444630482e-05 0.0000000000000000e+00  -2.6634395657643478e-05 1.7723526872849771e-05 0.0000000000000000e+00  -3.2280584001232596e-05 2.1693281462852856e-05 0.0000000000000000e+00  0.0000000000000000e+00 0.0000000000000000e+00 0.0000000000000000e+00  -3.8707602165042020e-07 3.4154017644108307e-07 0.0000000000000000e+00  -7.9181502171187640e-07 6.9529692433808875e-07 0.0000000000000000e+00  -1.2330321189730159e-06 1.0738501817644826e-06 0.0000000000000000e+00  -1.7319586341499568e-06 1.4904968185747871e-06 0.0000000000000000e+00  -2.3137873678465008e-06 1.9596225861773372e-06 0.0000000000000000e+00  -3.0096787303945732e-06 2.4970955762677834e-06 0.0000000000000000e+00  -3.8594794819814974e-06 3.1207035995648076e-06 0.0000000000000000e+00  -4.9154866034817784e-06 3.8506855373848356e-06 0.0000000000000000e+00  -6.2476493175111744e-06 4.7104719102516315e-06 0.0000000000000000e+00  -7.9505124820344807e-06 5.7279033945328643e-06 0.0000000000000000e+00  -1.0151583442905117e-05 6.9375558085537987e-06 0.0000000000000000e+00  -1.3018672210079925e-05 8.3856226725121033e-06 0.0000000000000000e+00  -1.6757970010150977e-05 1.0140555089890671e-05 0.0000000000000000e+00  -2.1581886699264854e-05 1.2315746861978595e-05 0.0000000000000000e+00  -2.7606637993757108e-05 1.5113439125683442e-05 0.0000000000000000e+00  -3.4644920291677197e-05 1.8892408954587135e-05 0.0000000000000000e+00  0.0000000000000000e+00 0.0000000000000000e+00 0.0000000000000000e+00  -3.0777395970401061e-07 2.6733345585713915e-07 0.0000000000000000e+00  -6.3009159203022203e-07 5.4414493370001180e-07 0.0000000000000000e+00  -9.8254890346705371e-07 8.4018880032597380e-07 0.0000000000000000e+00  -1.3829734448103731e-06 1.1657618743971717e-06 0.0000000000000000e+00  -1.8529248497997015e-06 1.5319826240423518e-06 0.0000000000000000e+00  -2.4197530383650130e-06 1.9510805799367128e-06 0.0000000000000000e+00  -3.1195903144423367e-06 2.4367021200773099e-06 0.0000000000000000e+00  -4.0018814853819452e-06 3.0042436989977344e-06 0.0000000000000000e+00  -5.1364283572874295e-06 3.6712386649962274e-06 0.0000000000000000e+00  -6.6244709150113590e-06 4.4578778344897671e-06 0.0000000000000000e+00  -8.6158939344511020e-06 5.3879459642312993e-06 0.0000000000000000e+00  -1.1334269882756368e-05 6.4911896563329529e-06 0.0000000000000000e+00  -1.5106273025595088e-05 7.8106186358232103e-06 0.0000000000000000e+00  -2.0369630963751751e-05 9.4257207368684485e-06 0.0000000000000000e+00  -2.7564582968251810e-05 1.1519604264363796e-05 0.0000000000000000e+00  -3.6687858554279458e-05 1.4519728716206527e-05 0.0000000000000000e+00  0.0000000000000000e+00 0.0000000000000000e+00 0.0000000000000000e+00  -2.1391536121539564e-07 1.8363745402215380e-07 0.0000000000000000e+00  -4.3820961316178068e-07 3.7374434054309596e-07 0.0000000000000000e+00  -6.8407157849155542e-07 5.7697549809022383e-07 0.0000000000000000e+00  -9.6442294982814978e-07 8.0034742130699847e-07 0.0000000000000000e+00  -1.2951296439457002e-06 1.0514203428560489e-06 0.0000000000000000e+00  -1.6967352444568175e-06 1.3384771489216950e-06 0.0000000000000000e+00  -2.1971213053818846e-06 1.6706860166051005e-06 0.0000000000000000e+00  -2.8358256206286842e-06 2.0582085428989666e-06 0.0000000000000000e+00  -3.6714040805982590e-06 2.5121510733388074e-06 0.0000000000000000e+00  -4.7945572935160817e-06 3.0441019468057865e-06 0.0000000000000000e+00  -6.3524657314741852e-06 3.6646565356162921e-06 0.0000000000000000e+00  -8.5950220124417892e-06 4.3797513914064745e-06 0.0000000000000000e+00  -1.1961507356760855e-05 5.1836167761851789e-06 0.0000000000000000e+00  -1.7223788623925621e-05 6.0545537576969831e-06 0.0000000000000000e+00  -2.5591523089420299e-05 7.0162578115161781e-06 0.0000000000000000e+00  -3.7887359571252491e-05 8.6651648416563712e-06 0.0000000000000000e+00  0.0000000000000000e+00 0.0000000000000000e+00 0.0000000000000000e+00  -1.0966660240056295e-07 9.3462373325637750e-08 0.0000000000000000e+00  -2.2474251502454972e-07 1.9020480048922917e-07 0.0000000000000000e+00  -3.5107911645998576e-07 2.9360017819648024e-07 0.0000000000000000e+00  -4.9547914418304425e-07 4.0720150361177017e-07 0.0000000000000000e+00  -6.6637859965487205e-07 5.3483028409161244e-07 0.0000000000000000e+00  -8.7484978773687964e-07 6.8065774672796122e-07 0.0000000000000000e+00  -1.1361970539095082e-06 8.4926202947177286e-07 0.0000000000000000e+00  -1.4726742087819344e-06 1.0456125756490233e-06 0.0000000000000000e+00  -1.9184354196341587e-06 1.2748415233342451e-06 0.0000000000000000e+00  -2.5292479333860213e-06 1.5413921362159248e-06 0.0000000000000000e+00  -3.4032342422703719e-06 1.8463020502335745e-06 0.0000000000000000e+00  -4.7296951132201822e-06 2.1786635011247676e-06 0.0000000000000000e+00  -6.9170554453657627e-06 2.4878754314368791e-06 0.0000000000000000e+00  -1.0967341703432062e-05 2.5885031289765915e-06 0.0000000000000000e+00  -1.9691252562130550e-05 1.8141294789543089e-06 0.0000000000000000e+00  -4.1986049628242611e-05 -2.3067903350370952e-06 0.0000000000000000e+00  0.0000000000000000e+00 0.0000000000000000e+00 0.0000000000000000e+00  0.0000000000000000e+00 0.0000000000000000e+00 0.0000000000000000e+00  0.0000000000000000e+00 0.0000000000000000e+00 0.0000000000000000e+00  0.0000000000000000e+00 0.0000000000000000e+00 0.0000000000000000e+00  0.0000000000000000e+00 0.0000000000000000e+00 0.0000000000000000e+00  0.0000000000000000e+00 0.0000000000000000e+00 0.0000000000000000e+00  0.0000000000000000e+00 0.0000000000000000e+00 0.0000000000000000e+00  0.0000000000000000e+00 0.0000000000000000e+00 0.0000000000000000e+00  0.0000000000000000e+00 0.0000000000000000e+00 0.000