<?xml version="1.0"?>
<VTKFile type="UnstructuredGrid"  version="0.1"  >
<UnstructuredGrid>
<Piece  NumberOfPoints="289" NumberOfCells="512">
<Points>
<DataArray  type="Float64"  NumberOfComponents="3"  format="ascii">0 0 0  0.0625 0 0  0.125 0 0  0.1875 0 0  0.25 0 0  0.3125 0 0  0.375 0 0  0.4375 0 0  0.5 0 0  0.5625 0 0  0.625 0 0  0.6875 0 0  0.75 0 0  0.8125 0 0  0.875 0 0  0.9375 0 0  1 0 0  0 0.0625 0  0.06250172597275758 0.06249852340901185 0  0.125003503173324 0.06249698082887312 0  0.1875053827989992 0.06249530194195788 0  0.2500074161292816 0.06249340715290208 0  0.3125096541703469 0.06249120119255327 0  0.3750121468280914 0.06248856396217262 0  0.4375149414473846 0.06248533623007321 0  0.5000180805622662 0.0624812954535665 0  0.5625215987086071 0.06247611164716323 0  0.6250255181087512 0.06246926012814289 0  0.6875298427661138 0.06245983334055583 0  0.7500345494008701 0.0624460941177134 0  0.8125395696952002 0.06242429824134089 0  0.875044744640239 0.06238523465862568 0  0.9375496853882607 0.06230292180161669 0  1.00005332972606 0.06209391502334784 0  0 0.125 0  0.06250340080636074 0.1249971126341131 0  0.1250069039350118 0.1249940975881202 0  0.1875106118199389 0.1249908191447157 0  0.2500146273696494 0.1249871244650003 0  0.3125190534190262 0.1249828321031276 0  0.3750239912397388 0.1249777160695206 0  0.4375295377779811 0.1249714819294813 0  0.5000357813106894 0.1249637284874679 0  0.5625427952748059 0.1249538826202352 0  0.6250506301240452 0.1249410824263262 0  0.6875593031398554 0.1249239582276061 0  0.7500687859687706 0.1249002105888037 0  0.8125789888295198 0.1248658049604978 0  0.8750897380552227 0.124813600338137 0  0.9376007389295762 0.12473216385349 0  1.000111508715203 0.1246125709177437 0  0 0.1875 0  0.06250497354549986 0.1874958293648721 0  0.1250101000965469 0.1874914773645578 0  0.187515533252252 0.1874867519372285 0  0.2500214280944928 0.1874814384427703 0  0.3125279407761546 0.1874752851350171 0  0.3750352267033709 0.1874679839466027 0  0.4375434367866719 0.1874591434237092 0  0.5000527112593157 0.1874482486870452 0  0.5625631706868851 0.1874346000340642 0  0.6250749040990928 0.1874172169389436 0  0.687587954787504 0.1873946891434683 0  0.7501023055264203 0.187364960366239 0  0.8126178678223798 0.1873250801269738 0  0.8751344884909297 0.1872711790605631 0  0.9376520190416976 0.1871996320447306 0  1.000170623250257 0.1871118735629664 0  0 0.25 0  0.06250639360673818 0.2499947272832776 0  0.1250129899122278 0.2499892301814127 0  0.1875199931826988 0.2499832721417493 0  0.2500276110831219 0.2499765912092037 0  0.3125360549051864 0.2499688844955611 0  0.3750455379506553 0.2499597888408477 0  0.4375562713052074 0.2499488556985425 0  0.5000684562074025 0.2499355177501811 0  0.5625822723276001 0.249919044524288 0  0.6250978616603701 0.2498984856048294 0  0.6876153085908261 0.2498726064813102 0  0.7501346182422395 0.2498398430428471 0  0.8126556975666979 0.2497983566684976 0  0.8751783459647399 0.2497463943262913 0  0.9377022575587112 0.2496833348517428 0  1.000226982989737 0.2496116825115246 0  0 0.3125 0  0.06250761134334823 0.3124938494058856 0  0.1250154730700749 0.3124874435434072 0  0.1875238387205373 0.3124805145764187 0  0.2500329683140453 0.3124727687256318 0  0.3125431299033065 0.3124638712460972 0  0.3750545989287225 0.3124534289277917 0  0.4375676543188227 0.3124409694212559 0  0.5000825701085954 0.3124259172324759 0  0.5625996013037678 0.3124075677948914 0  0.625118962997553 0.3123850649092716 0  0.6876408026184508 0.3123573955506134 0  0.7501651669332796 0.3123234336370021 0  0.8126919680842715 0.312282094727109 0  0.8752209557176301 0.3122327003310195 0  0.9377517030005453 0.3121756445642013 0  1.000283614069641 0.3121132617640428 0  0 0.375 0  0.06250857905625004 0.3749932266135615 0  0.1250174525973157 0.3749861796140531 0  0.1875269205410045 0.3749785732291208 0  0.2500372937065068 0.3749700968393371 0  0.3125488975605826 0.3749604012922134 0  0.3750620736020027 0.3749490839361679 0  0.4375771770260939 0.374935672540934 0  0.5000945688785464 0.3749196092712635 0  0.5626146005172636 0.3749002379483367 0  0.6251375880938501 0.3748768017952797 0  0.687663775363714 0.3748484657680319 0  0.7501932850246922 0.374814387925548 0  0.8127260625027731 0.3747738754220817 0  0.8752618215103064 0.3747266603444536 0  0.9378000059759427 0.3746732867136803 0  1.000339783788777 0.3746154600759176 0  0 0.4375 0  0.06250925256873564 0.4374928772505172 0  0.1250188379383499 0.4374854746751823 0  0.1875290972883714 0.4374775012240227 0  0.2500403884918991 0.4374686430861989 0  0.3125530930535823 0.4374585516197658 0  0.3750676208883332 0.4374468307496033 0  0.4375844113508474 0.4374330243155444 0  0.5001039281210422 0.4374166047979356 0  0.5626266445707607 0.4373969665969892 0  0.6251530153174896 0.4373734300419614 0  0.6876834293940608 0.4373452669070658 0  0.7502181419488375 0.437311763976094 0  0.8127571863034085 0.4372723452658219 0  0.8753002780811412 0.4372267679201581 0  0.9378467373389885 0.4371753770749079 0  1.000395466827755 0.4371193400156055 0  0 0.5 0  0.06250959343704379 0.4999928075309263 0  0.1250195493840219 0.4999853402218201 0  0.1875302421960394 0.4999773132512303 0  0.2500420698619119 0.4999684216506127 0  0.3125554651537141 0.4999583298439575 0  0.3750709053960958 0.4999466609249559 0  0.4375889192666172 0.4999329860053857 0  0.5001100878038925 0.4999168145220748 0  0.5626350349942812 0.4998975873767436 0  0.6251644009872946 0.4998746764725164 0  0.6876987887080842 0.4998473969430075 0  0.750238674036049 0.4998150423917671 0  0.812784274275088 0.499776958386674 0  0.8753353846938684 0.4997326729749559 0  0.937891222571032 0.4996820985552182 0  1.000450355254342 0.4996257937442764 0  0 0.5625 0  0.06250957178834274 0.5624930124715185 0  0.1250195238798928 0.5624857650461196 0  0.1875302520864568 0.5624779892645309 0  0.2500421833615115 0.562469399424557 0  0.3125557919820955 0.5624596836924785 0  0.375071615904266 0.5624484949228573 0  0.4375902721694458 0.5624354411186537 0  0.5001124686834961 0.5624200754482974 0  0.5626390069988133 0.5624018856927627 0  0.625170766449076 0.5623802830343633 0  0.6877086540432175 0.5623545907094514 0  0.7502534983513907 0.5623240356951167 0  0.8128058644746508 0.562287754674105 0  0.8753657833566877 0.5622448447043001 0  0.9379324411065861 0.5621945232711827 0  1.000503969602344 0.5621364976216192 0  0 0.625 0  0.06250916965239325 0.6249934771316984 0  0.1250187219909047 0.6249867178485641 0  0.1875290585484797 0.6249794787008064 0  0.2500406190574206 0.6249715021045393 0  0.3125539029478115 0.6249625091012492 0  0.3750694934185862 0.6249521917848749 0  0.4375880841410764 0.624940204954486 0  0.5001105072009218 0.6249261559681258 0  0.5626377577594452 0.6249095905881465 0  0.6251710047424772 0.6248899705028874 0  0.6877115658139757 0.6248666352209724 0  0.7502608078564859 0.624838738897359 0  0.8128199150589666 0.6248051581674683 0  0.8753894651333385 0.6247643979795672 0  0.9379688225920095 0.6247146096224551 0  1.000555579113705 0.6246539926381292 0  0 0.6875 0  0.06250838448288447 0.6874941780306618 0  0.1250171354401523 0.6874881501401904 0  0.1875266405114739 0.6874817049531345 0  0.2500373307017874 0.6874746202069506 0  0.3125497065207441 0.6874666573422774 0  0.3750643697156003 0.6874575559750389 0  0.4375820626790923 0.6874470277621282 0  0.5001037170980863 0.68743474829859 0  0.5626305112298593 0.6874203436735983 0  0.6251639289538935 0.6874033640191629 0  0.6877057986800631 0.6873832280436357 0  0.7502582583556197 0.68735910877102 0  0.8128235360302822 0.6873297158547753 0  0.8754033637624369 0.6872929415666815 0  0.9379978448822928 0.6872454640213711 0  1.000603955498738 0.6871827905314326 0  0 0.75 0  0.06250723236843558 0.7499950846739849 0  0.1250147941998917 0.7499899993509416 0  0.1875230366580946 0.74998457012746 0  0.2500323558681147 0.7499786154332286 0  0.3125432216748083 0.7499719425844673 0  0.3750562149597311 0.7499643447839673 0  0.4375720781978359 0.7499555985563806 0  0.5000917854496874 0.7499454610563232 0  0.5626166391548809 0.7499336649967858 0  0.625148399562405 0.7499199042236382 0  0.6876894414894097 0.7499037906229973 0  0.7502428945672263 0.7498847332125448 0  0.8128126184212238 0.7498616271644551 0  0.8754026334673773 0.7498321445129416 0  0.9380152812068676 0.7497914356448617 0  1.000647453159019 0.749730912674196 0  0 0.8125 0  0.06250575025949145 0.8124961611347848 0  0.1250117716879757 0.8124921920781424 0  0.1875183552691013 0.8124879601235064 0  0.2500258334700784 0.8124833277988646 0  0.3125346081305476 0.8124781512412973 0  0.375045188681397 0.8124722797297419 0  0.4375582476570412 0.8124655572447707 0  0.5000747046773304 0.8124578274331831 0  0.5625958569592224 0.8124489438803713 0  0.6251235845347269 0.8124387870328948 0  0.6876606689472207 0.8124272826505148 0  0.7502112577782484 0.8124143864661668 0  0.8127814141790888 0.8123998876021593 0  0.875379288442295 0.812382531696756 0  0.9380132223840161 0.8123571365426024 0  1.000684003256974 0.8123081564567805 0  0 0.875 0  0.06250399646367098 0.874997367603421 0  0.1250081863856218 0.8749946473100477 0  0.1875127784686864 0.8749917498243854 0  0.2500180136067871 0.8749885833558467 0  0.3125241873781548 0.8749850532713334 0  0.375031682194928 0.8749810632836652 0  0.437541016583374 0.8749765197474775 0  0.5000529250783964 0.8749713423660386 0  0.5625684942557055 0.8749654884606742 0  0.6250894049589492 0.8749590063914277 0  0.6876183806910654 0.8749521510245271 0  0.7501600378906397 0.8749456219254875 0  0.8127224751606899 0.8749409815752431 0  0.8753198779746622 0.8749409394807942 0  0.937974310430481 0.874946413751655 0  1.000699950780136 0.8749308829841725 0  0 0.9375 0  0.06250204877893897 0.9374986617812955 0  0.1250041983673407 0.9374972793317817 0  0.187506557893024 0.9374958078273321 0  0.2500092541501758 0.9374942014622137 0  0.3125124442548446 0.937492413583043 0  0.3750163342356338 0.9374903979509089 0  0.4375212085688513 0.93748811
[...]
<PointData  Vectors="f_54"> 
<DataArray  type="Float64"  Name="f_54"  NumberOfComponents="3" format="ascii">0.0000000000000000e+00 0.0000000000000000e+00 0.0000000000000000e+00  0.0000000000000000e+00 0.0000000000000000e+00 0.0000000000000000e+00  0.0000000000000000e+00 0.0000000000000000e+00 0.0000000000000000e+00  0.0000000000000000e+00 0.0000000000000000e+00 0.0000000000000000e+00  0.0000000000000000e+00 0.0000000000000000e+00 0.0000000000000000e+00  0.0000000000000000e+00 0.0000000000000000e+00 0.0000000000000000e+00  0.0000000000000000e+00 0.0000000000000000e+00 0.0000000000000000e+00  0.0000000000000000e+00 0.0000000000000000e+00 0.0000000000000000e+00  0.0000000000000000e+00 0.0000000000000000e+00 0.0000000000000000e+00  0.0000000000000000e+00 0.0000000000000000e+00 0.0000000000000000e+00  0.0000000000000000e+00 0.0000000000000000e+00 0.0000000000000000e+00  0.0000000000000000e+00 0.0000000000000000e+00 0.0000000000000000e+00  0.0000000000000000e+00 0.0000000000000000e+00 0.0000000000000000e+00  0.0000000000000000e+00 0.0000000000000000e+00 0.0000000000000000e+00  0.0000000000000000e+00 0.0000000000000000e+00 0.0000000000000000e+00  0.0000000000000000e+00 0.0000000000000000e+00 0.0000000000000000e+00  0.0000000000000000e+00 0.0000000000000000e+00 0.0000000000000000e+00  0.0000000000000000e+00 0.0000000000000000e+00 0.0000000000000000e+00  4.9806594827975156e-08 -6.4244458433755524e-08 0.0000000000000000e+00  1.0108909122850434e-07 -1.3131386175009218e-07 0.0000000000000000e+00  1.5532899536272170e-07 -2.0421768830739777e-07 0.0000000000000000e+00  2.1401020684002841e-07 -2.8635556126226768e-07 0.0000000000000000e+00  2.7860894852161372e-07 -3.8178732605895065e-07 0.0000000000000000e+00  3.5056959436092874e-07 -4.9562086142160021e-07 0.0000000000000000e+00  4.3126110589621866e-07 -6.3461990292046521e-07 0.0000000000000000e+00  5.2190821655863886e-07 -8.0823472814745703e-07 0.0000000000000000e+00  6.2348998382477517e-07 -1.0304896159581228e-06 0.0000000000000000e+00  7.3659337069739362e-07 -1.3237304802577893e-06 0.0000000000000000e+00  8.6119415525088828e-07 -1.7267599801489218e-06 0.0000000000000000e+00  9.9629507903961905e-07 -2.3143469849562847e-06 0.0000000000000000e+00  1.1392541588586462e-06 -3.2493966250810667e-06 0.0000000000000000e+00  1.2845172230049192e-06 -4.9391231750639304e-06 0.0000000000000000e+00  1.4220490758858344e-06 -8.5564488512167831e-06 0.0000000000000000e+00  1.5426801612687148e-06 -1.7962299935862166e-05 0.0000000000000000e+00  0.0000000000000000e+00 0.0000000000000000e+00 0.0000000000000000e+00  9.8137744841101850e-08 -1.2566465460185955e-07 0.0000000000000000e+00  1.9922428921161030e-07 -2.5679821236114128e-07 0.0000000000000000e+00  3.0622387546065508e-07 -3.9921174619336774e-07 0.0000000000000000e+00  4.2211473296053994e-07 -5.5943534739469871e-07 0.0000000000000000e+00  5.4987386869272037e-07 -7.4520222749308647e-07 0.0000000000000000e+00  6.9243399372084441e-07 -9.6612235688243971e-07 0.0000000000000000e+00  8.5260219787111412e-07 -1.2346957941091275e-06 0.0000000000000000e+00  1.0329295646834851e-06 -1.5679411918607503e-06 0.0000000000000000e+00  1.2355203384178146e-06 -1.9901696130144400e-06 0.0000000000000000e+00  1.4617662185790133e-06 -2.5379582308950288e-06 0.0000000000000000e+00  1.7119770214508427e-06 -3.2694506005907722e-06 0.0000000000000000e+00  1.9848211028851115e-06 -4.2821515645289792e-06 0.0000000000000000e+00  2.2762609432192871e-06 -5.7462215887975130e-06 0.0000000000000000e+00  2.5767156073706902e-06 -7.9574363774114331e-06 0.0000000000000000e+00  2.8608381374409166e-06 -1.1358550137229263e-05 0.0000000000000000e+00  3.0430791131139057e-06 -1.6093990734517395e-05 0.0000000000000000e+00  0.0000000000000000e+00 0.0000000000000000e+00 0.0000000000000000e+00  1.4351853553872030e-07 -1.8161425617950222e-07 0.0000000000000000e+00  2.9144790000246649e-07 -3.7100520445060602e-07 0.0000000000000000e+00  4.4823252615487345e-07 -5.7640394249776495e-07 0.0000000000000000e+00  6.1836051576304540e-07 -8.0698785802508537e-07 0.0000000000000000e+00  8.0635307024792002e-07 -1.0734912299980507e-06 0.0000000000000000e+00  1.0167128674931836e-06 -1.3890148314917158e-06 0.0000000000000000e+00  1.2538156933329856e-06 -1.7701697891093206e-06 0.0000000000000000e+00  1.5217296924710059e-06 -2.2387747478686781e-06 0.0000000000000000e+00  1.8239492261344585e-06 -2.8244634721975305e-06 0.0000000000000000e+00  2.1630379856533685e-06 -3.5687623889705125e-06 0.0000000000000000e+00  2.5401947401546646e-06 -4.5313985535670162e-06 0.0000000000000000e+00  2.9548078676160648e-06 -5.7994004406855603e-06 0.0000000000000000e+00  3.4042588514598831e-06 -7.4973976417371336e-06 0.0000000000000000e+00  3.8850980603448682e-06 -9.7885728728448260e-06 0.0000000000000000e+00  4.4009044649960444e-06 -1.2829855624766973e-05 0.0000000000000000e+00  5.0032835254521338e-06 -1.6612968772729185e-05 0.0000000000000000e+00  0.0000000000000000e+00 0.0000000000000000e+00 0.0000000000000000e+00  1.8448550975312822e-07 -2.2978404898372686e-07 0.0000000000000000e+00  3.7481625398002345e-07 -4.6920571289343750e-07 0.0000000000000000e+00  5.7690135055789006e-07 -7.2841797906895873e-07 0.0000000000000000e+00  7.9674966141716433e-07 -1.0186358572281996e-06 0.0000000000000000e+00  1.0404785095509095e-06 -1.3527864086602173e-06 0.0000000000000000e+00  1.3142691506529681e-06 -1.7463193121484348e-06 0.0000000000000000e+00  1.6242468905460374e-06 -2.2182626135531678e-06 0.0000000000000000e+00  1.9762627833702845e-06 -2.7926321022679808e-06 0.0000000000000000e+00  2.3755571847708375e-06 -3.5003143474766545e-06 0.0000000000000000e+00  2.8262977658371411e-06 -4.3814894820450825e-06 0.0000000000000000e+00  3.3310134801016699e-06 -5.4883869359265291e-06 0.0000000000000000e+00  3.8900025231612691e-06 -6.8872862623123879e-06 0.0000000000000000e+00  4.5008822923492564e-06 -8.6563524554485309e-06 0.0000000000000000e+00  5.1584800992311262e-06 -1.0870918437242975e-05 0.0000000000000000e+00  5.8543654966158798e-06 -1.3560808010128682e-05 0.0000000000000000e+00  6.5674868429083612e-06 -1.6627233417137380e-05 0.0000000000000000e+00  0.0000000000000000e+00 0.0000000000000000e+00 0.0000000000000000e+00  2.1960362779707710e-07 -2.6831282934892553e-07 0.0000000000000000e+00  4.4642963282765532e-07 -5.4761675193464987e-07 0.0000000000000000e+00  6.8780985861940913e-07 -8.4943336357359533e-07 0.0000000000000000e+00  9.5126552613248092e-07 -1.1863661768128510e-06 0.0000000000000000e+00  1.2445548991359275e-06 -1.5727257347331461e-06 0.0000000000000000e+00  1.5756579070080874e-06 -2.0252566908961868e-06 0.0000000000000000e+00  1.9526677000392469e-06 -2.5639972770321128e-06 0.0000000000000000e+00  2.3835543183234451e-06 -3.2132812035805258e-06 0.0000000000000000e+00  2.8757650188606604e-06 -4.0028303820932129e-06 0.0000000000000000e+00  3.4356352832791460e-06 -4.9687297199710168e-06 0.0000000000000000e+00  4.0676125955209057e-06 -6.1537169149422015e-06 0.0000000000000000e+00  4.7733499448171094e-06 -7.6054877656518959e-06 0.0000000000000000e+00  5.5508049837288670e-06 -9.3704382519725777e-06 0.0000000000000000e+00  6.3935479410422238e-06 -1.1478658963020885e-05 0.0000000000000000e+00  7.2905034589531759e-06 -1.3915865674811241e-05 0.0000000000000000e+00  8.2271754589815565e-06 -1.6584380933008887e-05 0.0000000000000000e+00  0.0000000000000000e+00 0.0000000000000000e+00 0.0000000000000000e+00  2.4749601435481025e-07 -2.9584797487824357e-07 0.0000000000000000e+00  5.0348847868421771e-07 -6.0351715627774507e-07 0.0000000000000000e+00  7.7664617435981790e-07 -9.3534049491162080e-07 0.0000000000000000e+00  1.0759553418317906e-06 -1.3046857750942910e-06 0.0000000000000000e+00  1.4108308602280289e-06 -1.7265211375727067e-06 0.0000000000000000e+00  1.7911599923045414e-06 -2.2180283930037970e-06 0.0000000000000000e+00  2.2272400819687186e-06 -2.7992563094580016e-06 0.0000000000000000e+00  2.7295594517127088e-06 -3.4937667317889087e-06 0.0000000000000000e+00  3.3083601942992095e-06 -4.3291455661539348e-06 0.0000000000000000e+00  3.9729197626380572e-06 -5.3370957643687028e-06 0.0000000000000000e+00  4.7305074460687308e-06 -6.5525581205042373e-06 0.0000000000000000e+00  5.5850279578535462e-06 -8.0108942694138062e-06 0.0000000000000000e+00  6.5354685292802307e-06 -9.7417111196455082e-06 0.0000000000000000e+00  7.5744026989098965e-06 -1.1757877499119314e-05 0.0000000000000000e+00  8.6868983847455947e-06 -1.4039964601208557e-05 0.0000000000000000e+00  9.8500124343933796e-06 -1.6522116809742555e-05 0.0000000000000000e+00  0.0000000000000000e+00 0.0000000000000000e+00 0.0000000000000000e+00  2.6688975795417493e-07 -3.1156117765774432e-07 0.0000000000000000e+00  5.4338302960387034e-07 -6.3526726908652986e-07 0.0000000000000000e+00  8.3933562034939801e-07 -9.8373544519609336e-07 0.0000000000000000e+00  1.1650879598589189e-06 -1.3705330919747529e-06 0.0000000000000000e+00  1.5316681224293022e-06 -1.8106737622597958e-06 0.0000000000000000e+00  1.9509332545917075e-06 -2.3211246368833585e-06 0.0000000000000000e+00  2.4356040538777822e-06 -2.9213008365640760e-06 0.0000000000000000e+00  2.9991240058592230e-06 -3.6334836608780564e-06 0.0000000000000000e+00  3.6552474631257116e-06 -4.4830323033850740e-06 0.0000000000000000e+00  4.4172354491382696e-06 -5.4981481139572136e-06 0.0000000000000000e+00  5.2965325438149507e-06 -6.7087896861615149e-06 0.0000000000000000e+00  6.3008447530909789e-06 -8.1441504779158388e-06 0.0000000000000000e+00  7.4316831558759849e-06 -9.8280106948429670e-06 0.0000000000000000e+00  8.6817190532247862e-06 -1.1771545275403146e-05 0.0000000000000000e+00  1.0032678613612115e-05 -1.3964283064718431e-05 0.0000000000000000e+00  1.1454785791165122e-05 -1.6366134564693500e-05 0.0000000000000000e+00  0.0000000000000000e+00 0.0000000000000000e+00 0.0000000000000000e+00  2.7667971940886275e-07 -3.1513116873943456e-07 0.0000000000000000e+00  5.6382125927460421e-07 -6.4226155243686121e-07 0.0000000000000000e+00  8.7223215890150475e-07 -9.9381301770690004e-07 0.0000000000000000e+00  1.2134044056591793e-06 -1.3830574290343821e-06 0.0000000000000000e+00  1.5998382183972270e-06 -1.8245473686318111e-06 0.0000000000000000e+00  2.0453264662559939e-06 -2.3345424769076464e-06 0.0000000000000000e+00  2.5651541099491715e-06 -2.9314077341610992e-06 0.0000000000000000e+00  3.1761314971092043e-06 -3.6359341486351248e-06 0.0000000000000000e+00  3.8963285622127954e-06 -4.4714916931929521e-06 0.0000000000000000e+00  4.7443111911663209e-06 -5.4638655483414105e-06 0.0000000000000000e+00  5.7376185288303305e-06 -6.6405519098285070e-06 0.0000000000000000e+00  6.8902108926527505e-06 -8.0292159088662121e-06 0.0000000000000000e+00  8.2087659280688732e-06 -9.6549870723379429e-06 0.0000000000000000e+00  9.6881598374187212e-06 -1.1536365426409373e-05 0.0000000000000000e+00  1.1307341884829114e-05 -1.3679792225622578e-05 0.0000000000000000e+00  1.3027823846129618e-05 -1.6073221038562457e-05 0.0000000000000000e+00  0.0000000000000000e+00 0.0000000000000000e+00 0.0000000000000000e+00  2.7601003339596139e-07 -3.0670633373073862e-07 0.0000000000000000e+00  5.6299575514927537e-07 -6.2484361566911035e-07 0.0000000000000000e+00  8.7237707893056731e-07 -9.6621225642127221e-07 0.0000000000000000e+00  1.2164742150220721e-06 -1.3433586957564281e-06 0.0000000000000000e+00  1.6089755699898850e-06 -1.7699492623779831e-06 0.0000000000000000e+00  2.0654107317005177e-06 -2.2611391408075163e-06 0.0000000000000000e+00  2.6035959345480653e-06 -2.8339241761909099e-06 0.0000000000000000e+00  3.2439741552190924e-06 -3.5074540586545776e-06 0.0000000000000000e+00  4.0096938500953008e-06 -4.3032750444230926e-06 0.0000000000000000e+00  4.9261467155051132e-06 -5.2454610814203271e-06 0.0000000000000000e+00  6.0195155126798126e-06 -6.3605863466256202e-06 0.0000000000000000e+00  7.3137147281431384e-06 -7.6774861951867392e-06 0.0000000000000000e+00  8.8251038531985537e-06 -9.2267218906077136e-06 0.0000000000000000e+00  1.0554889091705057e-05 -1.1039532423284743e-05 0.0000000000000000e+00  1.2480758513448494e-05 -1.3145687490109441e-05 0.0000000000000000e+00  1.4552142715594995e-05 -1.5568971991374673e-05 0.0000000000000000e+00  0.0000000000000000e+00 0.0000000000000000e+00 0.0000000000000000e+00  2.6436945163984742e-07 -2.8685748234397361e-07 0.0000000000000000e+00  5.3978312350673786e-07 -5.8420564363623968e-07 0.0000000000000000e+00  8.3781910330631040e-07 -9.0285068994799602e-07 0.0000000000000000e+00  1.1711584587048157e-06 -1.2542405961040494e-06 0.0000000000000000e+00  1.5542053906262730e-06 -1.6507875385420198e-06 0.0000000000000000e+00  2.0037813712404858e-06 -2.1061918370250029e-06 0.0000000000000000e+00  2.5398943902902975e-06 -2.6357687861830776e-06 0.0000000000000000e+00  3.1865416233332124e-06 -3.2567861278439617e-06 0.0000000000000000e+00  3.9724119306240415e-06 -3.9888374321390804e-06 0.0000000000000000e+00  4.9311733932571302e-06 -4.8543144891221224e-06 0.0000000000000000e+00  6.1007082773640871e-06 -5.8791085132330290e-06 0.0000000000000000e+00  7.5201664612920322e-06 -7.0937574128379492e-06 0.0000000000000000e+00  9.2231809199605768e-06 -8.5352956769500112e-06 0.0000000000000000e+00  1.1225647308302710e-05 -1.0249839067281722e-05 0.0000000000000000e+00  1.3508731399610517e-05 -1.2294993985094743e-05 0.0000000000000000e+00  1.6004665105314839e-05 -1.4738856602510653e-05 0.0000000000000000e+00  0.0000000000000000e+00 0.0000000000000000e+00 0.0000000000000000e+00  2.4169185030349606e-07 -2.5652693413301321e-07 0.0000000000000000e+00  4.9395932075342668e-07 -5.2228410843902227e-07 0.0000000000000000e+00  7.6797373605012636e-07 -8.0676321126388222e-07 0.0000000000000000e+00  1.0761575182976785e-06 -1.1199921559394249e-06 0.0000000000000000e+00  1.4329373048425213e-06 -1.4728061314802550e-06 0.0000000000000000e+00  1.8556581370564350e-06 -1.8771252426632034e-06 0.0000000000000000e+00  2.3657181247430776e-06 -2.3462487142899063e-06 0.0000000000000000e+00  2.9899670796338740e-06 -2.8951914336231168e-06 0.0000000000000000e+00  3.7623470953302406e-06 -3.5411248182432076e-06 0.0000000000000000e+00  4.7255665743800529e-06 -4.3040603679905194e-06 0.0000000000000000e+00  5.9321499533770353e-06 -5.2080616533291831e-06 0.0000000000000000e+00  7.4432588742156411e-06 -6.2835204848075259e-06 0.0000000000000000e+00  9.3220072386699108e-06 -7.5713592560697553e-06 0.0000000000000000e+00  1.1615956150290389e-05 -9.1301595612029792e-06 0.0000000000000000e+00  1.4323937719780729e-05 -1.1046364479887370e-05 0.0000000000000000e+00  1.7354280736901906e-05 -1.3444933260923393e-05 0.0000000000000000e+00  0.0000000000000000e+00 0.0000000000000000e+00 0.0000000000000000e+00  2.0844764285901829e-07 -2.1697641939004934e-07 0.0000000000000000e+00  4.2640177798994688e-07 -4.4165525307179249e-07 0.0000000000000000e+00  6.6397749283011770e-07 -6.8194613495602316e-07 0.0000000000000000e+00  9.3258624444538638e-07 -9.4618672943056609e-07 0.0000000000000000e+00  1.2457639552629440e-06 -1.2433587627389881e-06 0.0000000000000000e+00  1.6202459458778199e-06 -1.5833095263587987e-06 0.0000000000000000e+00  2.0774235837981845e-06 -1.9769878482866820e-06 0.0000000000000000e+00  2.6453608267509295e-06 -2.4367179086792828e-06 0.0000000000000000e+00  3.3615809365592332e-06 -2.9765694260850026e-06 0.0000000000000000e+00  4.2767834926742595e-06 -3.6129667619347860e-06 0.0000000000000000e+00  5.4593104658967806e-06 -4.3658759707698545e-06 0.0000000000000000e+00  6.9990083797841630e-06 -5.2613477008102342e-06 0.0000000000000000e+00  9.0059521983923468e-06 -6.3370717549635776e-06 0.0000000000000000e+00  1.1592503570191019e-05 -7.6539039392272501e-06 0.0000000000000000e+00  1.4816878532150972e-05 -9.3164899271784318e-06 0.0000000000000000e+00  1.8569835567760735e-05 -1.1499580595025978e-05 0.0000000000000000e+00  0.0000000000000000e+00 0.0000000000000000e+00 0.0000000000000000e+00  1.6570686766489874e-07 -1.6973413921515257e-07 0.0000000000000000e+00  3.3923699775268345e-07 -3.4542937697859421e-07 0.0000000000000000e+00  5.2896826921505703e-07 -5.3320007277446645e-07 0.0000000000000000e+00  7.4447404957091060e-07 -7.3947850573775789e-07 0.0000000000000000e+00  9.9732597358473781e-07 -9.7117266762240274e-07 0.0000000000000000e+00  1.3021949696009913e-06 -1.2358228129822017e-06 0.0000000000000000e+00  1.6784520038983692e-06 -1.5417560709377846e-06 0.0000000000000000e+00  2.1525925508202589e-06 -1.8982393648574520e-06 0.0000000000000000e+00  2.7620093388842098e-06 -2.3156368958142405e-06 0.0000000000000000e+00  3.5609325154408289e-06 -2.8056065732159467e-06 0.0000000000000000e+00  4.6296608362240865e-06 -3.3814854022253662e-06 0.0000000000000000e+00  6.0879885509829573e-06 -4.0594445458544290e-06 0.0000000000000000e+00  8.1108479457365046e-06 -4.8624347376588336e-06 0.0000000000000000e+00  1.0931740513269086e-05 -5.8329819149164830e-06 0.0000000000000000e+00  1.4781404220810496e-05 -7.0676545942572222e-06 0.0000000000000000e+00  1.9644118795461444e-05 -8.7636276077262148e-06 0.0000000000000000e+00  0.0000000000000000e+00 0.0000000000000000e+00 0.0000000000000000e+00  1.1515259460927311e-07 -1.1654083182327561e-07 0.0000000000000000e+00  2.3588543494243573e-07 -2.3714257101705369e-07 0.0000000000000000e+00  3.6820497902928345e-07 -3.6596659861531341e-07 0.0000000000000000e+00  5.1904487748148252e-07 -5.0738294153276166e-07 0.0000000000000000e+00  6.9691317010338871e-07 -6.6607060235900649e-07 0.0000000000000000e+00  9.1281835177453597e-07 -8.4711006858667694e-07 0.0000000000000000e+00  1.1816908868262396e-06 -1.0560566446662192e-06 0.0000000000000000e+00  1.5246921588613501e-06 -1.2989667344329338e-06 0.0000000000000000e+00  1.9731557226764783e-06 -1.5823091012741231e-06 0.0000000000000000e+00  2.5756285949459754e-06 -1.9126001894333025e-06 0.0000000000000000e+00  3.4109609948664840e-06 -2.2954102305467519e-06 0.0000000000000000e+00  4.6132601693278706e-06 -2.7331153765797521e-06 0.0000000000000000e+00  6.4188212391151939e-06 -3.2211755118123338e-06 0.0000000000000000e+00  9.2434282242209140e-06 -3.7493207822632096e-06 0.0000000000000000e+00  1.3733666202890839e-05 -4.3592700516356896e-06 0.0000000000000000e+00  2.0278385602505673e-05 -5.5661680148315394e-06 0.0000000000000000e+00  0.0000000000000000e+00 0.0000000000000000e+00 0.0000000000000000e+00  5.9026629758417168e-08 -5.9295242646445983e-08 0.0000000000000000e+00  1.2096043407659783e-07 -1.2064664455659010e-07 0.0000000000000000e+00  1.8894096093854661e-07 -1.8615987426282338e-07 0.0000000000000000e+00  2.6661626083927352e-07 -2.5804332715271189e-07 0.0000000000000000e+00  3.5850677211375106e-07 -3.3865585296899164e-07 0.0000000000000000e+00  4.7054047863785797e-07 -4.3054682587013876e-07 0.0000000000000000e+00  6.1090439938363490e-07 -5.3647645005083890e-07 0.0000000000000000e+00  7.9149551835274561e-07 -6.5938398978886871e-07 0.0000000000000000e+00  1.0305676777316434e-06 -8.0221474200862653e-07 0.0000000000000000e+00  1.3579356679993865e-06 -9.6734934984964245e-07 0.0000000000000000e+00  1.8261268878739961e-06 -1.1548594707054214e-06 0.0000000000000000e+00  2.5367676188694209e-06 -1.3570914655203166e-06 0.0000000000000000e+00  3.7103003702442912e-06 -1.5409574073004933e-06 0.0000000000000000e+00  5.8928617731106836e-06 -1.5859622608504800e-06 0.0000000000000000e+00  1.0645032197411074e-05 -1.0505521545289141e-06 0.0000000000000000e+00  2.3106298889859676e-05 1.7806396906089465e-06 0.0000000000000000e+00  0.0000000000000000e+00 0.0000000000000000e+00 0.0000000000000000e+00  0.0000000000000000e+00 0.0000000000000000e+00 0.0000000000000000e+00  0.0000000000000000e+00 0.0000000000000000e+00 0.0000000000000000e+00  0.0000000000000000e+00 0.0000000000000000e+00 0.0000000000000000e+00  0.0000000000000000e+00 0.0000000000000000e+00 0.0000000000000000e+00  0.0000000000000000e+00 0.0000000000000000e+00 0.0000000000000000e+00  0.0000000000000000e+00 0.0000000000000000e+00 0.0000000000000000e+00  0.0000000000000000e+00 0.0000000000000000e+00 0.0000000000000000e+00  0.0000000000000000e+00 0.0000000000000000e+00 0.00000