<?xml version="1.0"?>
<VTKFile type="UnstructuredGrid"  version="0.1"  >
<UnstructuredGrid>
<Piece  NumberOfPoints="289" NumberOfCells="512">
<Points>
<DataArray  type="Float64"  NumberOfComponents="3"  format="ascii">0 0 0  0.0625 0 0  0.125 0 0  0.1875 0 0  0.25 0 0  0.3125 0 0  0.375 0 0  0.4375 0 0  0.5 0 0  0.5625 0 0  0.625 0 0  0.6875 0 0  0.75 0 0  0.8125 0 0  0.875 0 0  0.9375 0 0  1 0 0  0 0.0625 0  0.06250142441727724 0.06249851210301235 0  0.1250028913355417 0.06249695667434644 0  0.1875044431501507 0.06249526164020468 0  0.2500061223723489 0.06249334516892937 0  0.3125079713529957 0.06249110893962706 0  0.3750100316126539 0.06248842850857928 0  0.4375123426310734 0.06248513827494085 0  0.5000149399363004 0.06248100609961468 0  0.5625178522965885 0.06247568700492512 0  0.6250210976859818 0.06246863152618221 0  0.6875246772532473 0.06245888729211762 0  0.7500285651835836 0.06244462456985613 0  0.8125326886346492 0.06242187254611109 0  0.8750368832039016 0.062380756731255 0  0.9375407991818823 0.06229302285966976 0  1.00004381711367 0.06206642208690637 0  0 0.125 0  0.06250280648011604 0.1249970915032184 0  0.1250056978184932 0.124994052456207 0  0.187508758817826 0.1249907438764468 0  0.2500120747687101 0.124987008774828 0  0.3125157310369224 0.1249826600613138 0  0.3750198118734099 0.1249774637595052 0  0.4375243981587038 0.1249711138561448 0  0.500029563788647 0.1249631920617745 0  0.562535370407056 0.1249530995472587 0  0.6250418601450447 0.1249399348925654 0  0.6875490457496807 0.1249222661525024 0  0.7500568963379314 0.1248976943477719 0  0.8125653126621655 0.1248620327097447 0  0.8750740684516267 0.1248079759919668 0  0.9375826176607548 0.1247243820692154 0  1.000089296007804 0.1246060599871441 0  0 0.1875 0  0.06250410404373308 0.1874958012090737 0  0.1250083349019753 0.1874914172598173 0  0.1875128196875352 0.187486651778951 0  0.2500176868784336 0.1874812846587494 0  0.3125230660460465 0.1874750567476658 0  0.3750290864380356 0.1874676495735803 0  0.4375358739798012 0.1874586567813066 0  0.5000435462669809 0.1874475419427726 0  0.5625522052060926 0.1874335740615258 0  0.6250619271889086 0.1874157272039936 0  0.6875727512071138 0.1873925258847924 0  0.7500846666395565 0.1873618230206452 0  0.8125976068290179 0.1873205516261209 0  0.8751114727029193 0.1872647191967347 0  0.9376262949102708 0.1871905966739475 0  1.000143054912132 0.187099135168944 0  0 0.25 0  0.06250527530411984 0.2499946958195659 0  0.1250107184761451 0.2499891630709437 0  0.1875164984710464 0.2499831604497011 0  0.2500227872243255 0.2499764199854304 0  0.3125297599360345 0.2499686306687966 0  0.3750375938692255 0.2499594179919469 0  0.437546465047175 0.2499483173041364 0  0.5000565422143415 0.2499347383408487 0  0.5625679775290953 0.2499179180730711 0  0.6250808938101228 0.2498968604697658 0  0.6875953689629716 0.2498702686679607 0  0.7501114197566553 0.2498364970354248 0  0.8126289896136664 0.2497936083277877 0  0.8751479468612535 0.2497397442374567 0  0.937668084297307 0.2496741857687523 0  1.000188962026696 0.2495993468582633 0  0 0.3125 0  0.06250627927864151 0.3124938187390285 0  0.1250127657190922 0.3124873782219196 0  0.1875196688958786 0.3124804060821504 0  0.2500272039182899 0.3124726028082765 0  0.3125355928267954 0.3124636259244471 0  0.3750450642301265 0.3124530714391808 0  0.4375558503461469 0.3124404517554644 0  0.5000681804834718 0.312425169775125 0  0.5625822699934452 0.3124064905296595 0  0.6250983039976369 0.3123835156808212 0  0.6876164159848768 0.3123551752570888 0  0.7501366628950202 0.3123202692054237 0  0.8126590004981015 0.3122776226809029 0  0.8751832647632247 0.3122264570235143 0  0.9377091648310664 0.312167075881059 0  1.000236304519458 0.3121017932741575 0  0 0.375 0  0.06250707665129214 0.3749932006553212 0  0.1250143966962406 0.3749861244618608 0  0.1875222078578839 0.3749784819670646 0  0.2500307670246272 0.3749699578886 0  0.3125403434535387 0.3749601967710546 0  0.3750512200913108 0.3749487871451136 0  0.4375636919358236 0.3749352442574825 0  0.5000780600299974 0.3749189924267841 0  0.5625946193955073 0.3748993501478183 0  0.6251136391744908 0.3748755250590194 0  0.6876353337841908 0.3748466328756148 0  0.7501598254306218 0.3748117648876787 0  0.8126871011582468 0.3747701399188249 0  0.8752169712806503 0.3747213763500385 0  0.9377490384142859 0.3746658754374186 0  1.000282681832543 0.3746051623403717 0  0 0.4375 0  0.06250763107564013 0.4374928591669119 0  0.1250155369111804 0.4374854364772703 0  0.1875239990822752 0.4374774385649734 0  0.250033313055555 0.4374685486723386 0  0.3125437939989119 0.4374584141439114 0  0.3750557808725903 0.4374466332240354 0  0.4375696375349858 0.4374327415510594 0  0.5000857489635565 0.4374161996516173 0  0.5626045099298944 0.43739638443448 0  0.6251263027735795 0.4373725905963031 0  0.6876514607595227 0.4373440522964141 0  0.7501802147519839 0.4373100009281315 0  0.8127126248471102 0.4372697783504726 0  0.8752485062357719 0.4372230185562725 0  0.9377873691813469 0.4371698804120323 0  1.000328401714004 0.4371112503654432 0  0 0.5 0  0.06250791099134571 0.4999927992922218 0  0.1250161209465567 0.4999853232043699 0  0.1875249385697723 0.4999772862923496 0  0.2500346920977111 0.4999683827825646 0  0.3125457385337422 0.4999582759623688 0  0.3750584717851596 0.4999465872197197 0  0.4375733284295786 0.4999328849978188 0  0.5000907888486431 0.4999166744351946 0  0.5626113700306368 0.4998973893588192 0  0.6251356045172446 0.4998743898187344 0  0.6876639982211861 0.4998469707590518 0  0.7501969595223436 0.4998143908042915 0  0.8127346959717122 0.4997759338490406 0  0.8752770873381717 0.4997310175742507 0  0.9378235676767531 0.4996793560618447 0  1.000373078196761 0.4996211590593159 0  0 0.5625 0  0.06250789194584409 0.5624930145678572 0  0.1250160972137526 0.5624857702627944 0  0.1875249419526481 0.5624779997898303 0  0.2500347779359467 0.5624694189225857 0  0.3125459958796259 0.5624597177924178 0  0.3750590389104609 0.5624485519007341 0  0.4375744152733874 0.5624355327621109 0  0.5000927081052996 0.5624202180258809 0  0.5626145779280897 0.5624021007915279 0  0.6251407500784514 0.5623805976984921 0  0.6876719745831865 0.5623550356386303 0  0.750208941264267 0.5623246388709373 0  0.812752132547371 0.5622885247768352 0  0.8753016106636379 0.5622457318769075 0  0.9378567798141707 0.5621953295605685 0  1.000416241177432 0.5621366800226327 0  0 0.625 0  0.0625075593126619 0.6249934884991127 0  0.1250154336310287 0.6249867430127369 0  0.1875239535977349 0.6249795228737596 0  0.2500334812024479 0.6249715740671336 0  0.3125444274159168 0.6249626224959497 0  0.3750572719111795 0.6249523670546699 0  0.4375725849050794 0.6249404721101783 0  0.5000910499535837 0.6249265583894406 0  0.5626134839683404 0.624910190039034 0  0.625140845681061 0.6248908534207496 0  0.6876742148316956 0.6248679200566214 0  0.7502147107582605 0.6248405837202348 0  0.8127633043929514 0.6248077664551148 0  0.8753204786711521 0.6247680161564657 0  0.9378857527340206 0.624719492423551 0  1.000457272540716 0.624660248840935 0  0 0.6875 0  0.06250691116077675 0.6874941962074352 0  0.1250141237611406 0.6874881899491545 0  0.187521956831679 0.6874817738278182 0  0.2500307649368842 0.687474730725817 0  0.3125409595838065 0.6874668291827859 0  0.3750530351733347 0.6874578189242693 0  0.4375676011634808 0.6874474261778439 0  0.5000854216581813 0.6874353475594512 0  0.56260746178774 0.6874212393115994 0  0.6251349350305266 0.6874046943799524 0  0.6876693331447959 0.6873851915310349 0  0.7502123942659976 0.6873619874137307 0  0.8127659188485644 0.6873339096006451 0  0.8753312873325976 0.687299025794057 0  0.9379085435545271 0.6872542958471305 0  1.000495219490131 0.6871956522013782 0  0 0.75 0  0.06250596087020838 0.7499951061763561 0  0.1250121925830907 0.7499900462837192 0  0.187518984035477 0.7499846509622072 0  0.2500266609435691 0.7499787445645023 0  0.3125356093901666 0.7499721426729536 0  0.375046306344076 0.7499646504413781 0  0.4375593609498423 0.7499560619583825 0  0.5000755715833206 0.7499461603482451 0  0.5625960045259717 0.7499347167041452 0  0.625122098622177 0.7499214812462979 0  0.6876557906305631 0.7499061476734366 0  0.7501996233796133 0.749888241917777 0  0.812756711586657 0.7498668260853615 0  0.8753302513930846 0.7498398299152467 0  0.93792198637752 0.7498029173501426 0  1.000529128430688 0.7497488961888977 0  0 0.8125 0  0.06250473894610538 0.8124961820063146 0  0.1250097007238803 0.8124922375741362 0  0.187515124660687 0.8124880383566495 0  0.2500212840539266 0.8124834526077159 0  0.3125285090172101 0.8124783445409252 0  0.3750372177713768 0.8124725752801288 0  0.4375479620737073 0.8124660065465527 0  0.5000614959130198 0.8124585088764187 0  0.5625788821808685 0.8124499768683644 0  0.6251016601186964 0.8124403535039127 0  0.6876321043517989 0.8124296586375331 0  0.7501735989341702 0.8124179837831614 0  0.8127310674847064 0.8124052940685229 0  0.8753110583883269 0.8123905099526199 0  0.9379200800636838 0.8123685624561408 0  1.000558300618705 0.8123247256104217 0  0 0.875 0  0.06250329342057195 0.8749973840588756 0  0.1250067457756739 0.8749946831617248 0  0.187510528696869 0.8749918114416743 0  0.2500148401835896 0.8749886816399222 0  0.3125199230446522 0.8749852055756759 0  0.3750260912601628 0.8749812965500794 0  0.4375337704130341 0.874976875551121 0  0.5000435633028497 0.8749718850789191 0  0.5625563618110597 0.8749663186734536 0  0.6250735463707349 0.8749602833876583 0  0.6875973555060444 0.8749541306422282 0  0.7501315857013566 0.8749487173392092 0  0.8126828901023415 0.8749458363185476 0  0.8752628475574341 0.874948357950773 0  0.9378889995900247 0.8749561534026901 0  1.000569627441851 0.8749337533881312 0  0 0.9375 0  0.0625016883234014 0.937498670840726 0  0.1250034594574624 0.9374972990662348 0  0.1875054031436252 0.9374958417406565 0  0.2500076235993638 0.9374942555652341 0  0.3125102499027342 0.9374924974803092 0  0.375013451257953 0.9374905266419788 0  0.4375174612830942 0.93748830
[...]
<PointData  Vectors="f_54"> 
<DataArray  type="Float64"  Name="f_54"  NumberOfComponents="3" format="ascii">0.0000000000000000e+00 0.0000000000000000e+00 0.0000000000000000e+00  0.0000000000000000e+00 0.0000000000000000e+00 0.0000000000000000e+00  0.0000000000000000e+00 0.0000000000000000e+00 0.0000000000000000e+00  0.0000000000000000e+00 0.0000000000000000e+00 0.0000000000000000e+00  0.0000000000000000e+00 0.0000000000000000e+00 0.0000000000000000e+00  0.0000000000000000e+00 0.0000000000000000e+00 0.0000000000000000e+00  0.0000000000000000e+00 0.0000000000000000e+00 0.0000000000000000e+00  0.0000000000000000e+00 0.0000000000000000e+00 0.0000000000000000e+00  0.0000000000000000e+00 0.0000000000000000e+00 0.0000000000000000e+00  0.0000000000000000e+00 0.0000000000000000e+00 0.0000000000000000e+00  0.0000000000000000e+00 0.0000000000000000e+00 0.0000000000000000e+00  0.0000000000000000e+00 0.0000000000000000e+00 0.0000000000000000e+00  0.0000000000000000e+00 0.0000000000000000e+00 0.0000000000000000e+00  0.0000000000000000e+00 0.0000000000000000e+00 0.0000000000000000e+00  0.0000000000000000e+00 0.0000000000000000e+00 0.0000000000000000e+00  0.0000000000000000e+00 0.0000000000000000e+00 0.0000000000000000e+00  0.0000000000000000e+00 0.0000000000000000e+00 0.0000000000000000e+00  0.0000000000000000e+00 0.0000000000000000e+00 0.0000000000000000e+00  -8.3489799413810085e-08 6.6808871290746714e-08 0.0000000000000000e+00  -1.6944455849165181e-07 1.3653037041730421e-07 0.0000000000000000e+00  -2.6033744678352195e-07 2.1226327461699327e-07 0.0000000000000000e+00  -3.5864330414332338e-07 2.9749935192741032e-07 0.0000000000000000e+00  -4.6682086459935792e-07 3.9639454577111798e-07 0.0000000000000000e+00  -5.8727212712138276e-07 5.1415764043367585e-07 0.0000000000000000e+00  -7.2227136587515047e-07 6.5765884872268404e-07 0.0000000000000000e+00  -8.7385716721448204e-07 8.3646125046559198e-07 0.0000000000000000e+00  -1.0436825236648727e-06 1.0647069483610687e-06 0.0000000000000000e+00  -1.2328190662663514e-06 1.3648466509882304e-06 0.0000000000000000e+00  -1.4415054535919586e-06 1.7756646383084352e-06 0.0000000000000000e+00  -1.6687912431923266e-06 2.3712374426479979e-06 0.0000000000000000e+00  -1.9118569040380553e-06 3.3105457393379406e-06 0.0000000000000000e+00  -2.1640819546415675e-06 4.9820157503904708e-06 0.0000000000000000e+00  -2.4079314757401490e-06 8.4717752108578263e-06 0.0000000000000000e+00  -2.5854386692778631e-06 1.7238690297003088e-05 0.0000000000000000e+00  0.0000000000000000e+00 0.0000000000000000e+00 0.0000000000000000e+00  -1.6451455455982023e-07 1.3070513487029040e-07 0.0000000000000000e+00  -3.3395509208002851e-07 2.6705296154874071e-07 0.0000000000000000e+00  -5.1327104364586327e-07 4.1503168401197657e-07 0.0000000000000000e+00  -7.0743034199112336e-07 5.8135443250254627e-07 0.0000000000000000e+00  -9.2139158674717745e-07 7.7394555031345457e-07 0.0000000000000000e+00  -1.1600302583287284e-06 1.0026157335923796e-06 0.0000000000000000e+00  -1.4280032542327933e-06 1.2800767329534236e-06 0.0000000000000000e+00  -1.7295377238741940e-06 1.6235732784476280e-06 0.0000000000000000e+00  -2.0681347563809336e-06 2.0576687339974539e-06 0.0000000000000000e+00  -2.4461869815060790e-06 2.6192575595218345e-06 0.0000000000000000e+00  -2.8645221903762064e-06 3.3669927320155524e-06 0.0000000000000000e+00  -3.3219058820419119e-06 4.3995421515301767e-06 0.0000000000000000e+00  -3.8145954568060136e-06 5.8908115699146553e-06 0.0000000000000000e+00  -4.3363488969629086e-06 8.1519034993427535e-06 0.0000000000000000e+00  -4.8810731301984949e-06 1.1697095476589617e-05 0.0000000000000000e+00  -5.4601902860327450e-06 1.7025787617147270e-05 0.0000000000000000e+00  0.0000000000000000e+00 0.0000000000000000e+00 0.0000000000000000e+00  -2.4060984525459344e-07 1.8895623380088189e-07 0.0000000000000000e+00  -4.8859083771197532e-07 3.8594585773425564e-07 0.0000000000000000e+00  -7.5136676486799728e-07 5.9946202303438152e-07 0.0000000000000000e+00  -1.0364269121639228e-06 8.3895372413778366e-07 0.0000000000000000e+00  -1.3513039342986377e-06 1.1154397018349706e-06 0.0000000000000000e+00  -1.7034825719289566e-06 1.4423196020834093e-06 0.0000000000000000e+00  -2.1002135871249171e-06 1.8365175879270977e-06 0.0000000000000000e+00  -2.5482085462257854e-06 2.3201791496383485e-06 0.0000000000000000e+00  -3.0531974980787913e-06 2.9232851333151282e-06 0.0000000000000000e+00  -3.6193468678989786e-06 3.6877635275439582e-06 0.0000000000000000e+00  -4.2485637133998854e-06 4.6739169385221226e-06 0.0000000000000000e+00  -4.9397614535569110e-06 5.9698694309694500e-06 0.0000000000000000e+00  -5.6882421031343182e-06 7.7027008315737828e-06 0.0000000000000000e+00  -6.4854646217616667e-06 1.0040584511628866e-05 0.0000000000000000e+00  -7.3194266064913282e-06 1.3143613415713053e-05 0.0000000000000000e+00  -8.1737326754880657e-06 1.6944597636755323e-05 0.0000000000000000e+00  0.0000000000000000e+00 0.0000000000000000e+00 0.0000000000000000e+00  -3.0932810114093371e-07 2.3916996267919248e-07 0.0000000000000000e+00  -6.2842981912272094e-07 4.8831200744271838e-07 0.0000000000000000e+00  -9.6718116514626819e-07 7.5792148776074199e-07 0.0000000000000000e+00  -1.3356152970481236e-06 1.0595701484473301e-06 0.0000000000000000e+00  -1.7439305413320374e-06 1.4065610938256723e-06 0.0000000000000000e+00  -2.2024071510147084e-06 1.8147409936516022e-06 0.0000000000000000e+00  -2.7211948274460275e-06 2.3035522374731807e-06 0.0000000000000000e+00  -3.3099310674035062e-06 2.8974312758745768e-06 0.0000000000000000e+00  -3.9771549505145319e-06 3.6276717027542511e-06 0.0000000000000000e+00  -4.7294983226608338e-06 4.5348196612819843e-06 0.0000000000000000e+00  -5.5706744464147164e-06 5.6714013603473279e-06 0.0000000000000000e+00  -6.5003508848183708e-06 7.1038958035236205e-06 0.0000000000000000e+00  -7.5130909105367813e-06 8.9104550686418567e-06 0.0000000000000000e+00  -8.5976608660818471e-06 1.1165467625812927e-05 0.0000000000000000e+00  -9.7370891133835375e-06 1.3893812474841393e-05 0.0000000000000000e+00  -1.0910072138131268e-05 1.6981464305842287e-05 0.0000000000000000e+00  0.0000000000000000e+00 0.0000000000000000e+00 0.0000000000000000e+00  -3.6826577917113198e-07 2.7940731903833200e-07 0.0000000000000000e+00  -7.4861626210210202e-07 5.7021030460564599e-07 0.0000000000000000e+00  -1.1533145458854410e-06 8.8434633028048265e-07 0.0000000000000000e+00  -1.5949300138687321e-06 1.2348556999611157e-06 0.0000000000000000e+00  -2.0864101995287835e-06 1.6365147577555241e-06 0.0000000000000000e+00  -2.6410434555561737e-06 2.1065666063879996e-06 0.0000000000000000e+00  -3.2722597985380832e-06 2.6655758179345101e-06 0.0000000000000000e+00  -3.9932078578553772e-06 3.3384101037122243e-06 0.0000000000000000e+00  -4.8160422889917581e-06 4.1552853005167251e-06 0.0000000000000000e+00  -5.7508675004920496e-06 5.1526449188078578e-06 0.0000000000000000e+00  -6.8043233568370361e-06 6.3732739399554532e-06 0.0000000000000000e+00  -7.9778812104100094e-06 7.8642908760581926e-06 0.0000000000000000e+00  -9.2660499327155253e-06 9.6703452318031827e-06 0.0000000000000000e+00  -1.0654844925152343e-05 1.1817734136297871e-05 0.0000000000000000e+00  -1.2120944322613736e-05 1.4285428695254777e-05 0.0000000000000000e+00  -1.3631661289331595e-05 1.6968108822864905e-05 0.0000000000000000e+00  0.0000000000000000e+00 0.0000000000000000e+00 0.0000000000000000e+00  -4.1511222869162845e-07 3.0824560203285165e-07 0.0000000000000000e+00  -8.4445247589854187e-07 6.2877609253589308e-07 0.0000000000000000e+00  -1.3025330158950246e-06 9.7440340314239164e-07 0.0000000000000000e+00  -1.8043879715224700e-06 1.3590040408551859e-06 0.0000000000000000e+00  -2.3657516959560275e-06 1.7980978921151253e-06 0.0000000000000000e+00  -3.0031198735564186e-06 2.3094711929154116e-06 0.0000000000000000e+00  -3.7336255471376849e-06 2.9138309625718716e-06 0.0000000000000000e+00  -4.5746399598955950e-06 3.6354337393394400e-06 0.0000000000000000e+00  -5.5429872561723403e-06 4.5025411343056646e-06 0.0000000000000000e+00  -6.6536545650424776e-06 5.5473832018730775e-06 0.0000000000000000e+00  -7.9179062093637431e-06 6.8050125910136911e-06 0.0000000000000000e+00  -9.3408041938265659e-06 8.3099844777817220e-06 0.0000000000000000e+00  -1.0918329388081697e-05 1.0089310356055310e-05 0.0000000000000000e+00  -1.2634595065815802e-05 1.2150132483798983e-05 0.0000000000000000e+00  -1.4459979875372033e-05 1.4462437072081957e-05 0.0000000000000000e+00  -1.6351236517921249e-05 1.6943084841195853e-05 0.0000000000000000e+00  0.0000000000000000e+00 0.0000000000000000e+00 0.0000000000000000e+00  -4.4772606241711974e-07 3.2479747434056198e-07 0.0000000000000000e+00  -9.1154800588327171e-07 6.6224748939302433e-07 0.0000000000000000e+00  -1.4079814983929959e-06 1.0254946325606684e-06 0.0000000000000000e+00  -1.9543474211519861e-06 1.4286735377280892e-06 0.0000000000000000e+00  -2.5691061476738719e-06 1.8874256233451105e-06 0.0000000000000000e+00  -3.2720847569686137e-06 2.4194270977653565e-06 0.0000000000000000e+00  -4.0845181370638913e-06 3.0449003273037455e-06 0.0000000000000000e+00  -5.0287843222862299e-06 3.7870370588884316e-06 0.0000000000000000e+00  -6.1276644818029949e-06 4.6721831975831304e-06 0.0000000000000000e+00  -7.4029101627584266e-06 5.7295020959996560e-06 0.0000000000000000e+00  -8.8728838386953914e-06 6.9896321060903549e-06 0.0000000000000000e+00  -1.0549110693941630e-05 8.4816031473428009e-06 0.0000000000000000e+00  -1.2431826871953959e-05 1.0227096756976035e-05 0.0000000000000000e+00  -1.4505116478558079e-05 1.2231360997780109e-05 0.0000000000000000e+00  -1.6732970214154962e-05 1.4471343322147066e-05 0.0000000000000000e+00  -1.9058235635364641e-05 1.6884395046691373e-05 0.0000000000000000e+00  0.0000000000000000e+00 0.0000000000000000e+00 0.0000000000000000e+00  -4.6424261232902956e-07 3.2869783726720513e-07 0.0000000000000000e+00  -9.4603497203898622e-07 6.6992670652002448e-07 0.0000000000000000e+00  -1.4635055808251000e-06 1.0366640633505903e-06 0.0000000000000000e+00  -2.0359282463523725e-06 1.4427866376436952e-06 0.0000000000000000e+00  -2.6842625071945253e-06 1.9035302904058516e-06 0.0000000000000000e+00  -3.4316258909566953e-06 2.4359510161157160e-06 0.0000000000000000e+00  -4.3036195261603625e-06 3.0593647601074889e-06 0.0000000000000000e+00  -5.3283671861558090e-06 3.7957152990412480e-06 0.0000000000000000e+00  -6.5360374557151294e-06 4.6697708595192354e-06 0.0000000000000000e+00  -7.9575015912777243e-06 5.7089706095965834e-06 0.0000000000000000e+00  -9.6216624353625233e-06 6.9426191137885805e-06 0.0000000000000000e+00  -1.1550953495520505e-05 8.3999526737443969e-06 0.0000000000000000e+00  -1.3754725383314497e-05 1.0106392426382859e-05 0.0000000000000000e+00  -1.6220978799541330e-05 1.2077138325239426e-05 0.0000000000000000e+00  -1.8908382716655235e-05 1.4307376726840418e-05 0.0000000000000000e+00  -2.1742388325778911e-05 1.6759275426544825e-05 0.0000000000000000e+00  0.0000000000000000e+00 0.0000000000000000e+00 0.0000000000000000e+00  -4.6321205754229641e-07 3.2007101558563102e-07 0.0000000000000000e+00  -9.4485097447352560e-07 6.5210513715358451e-07 0.0000000000000000e+00  -1.4640902835093534e-06 1.0084609256475903e-06 0.0000000000000000e+00  -2.0416168176324092e-06 1.4022980484030524e-06 0.0000000000000000e+00  -2.7004174850160557e-06 1.8479867065973731e-06 0.0000000000000000e+00  -3.4665749475973830e-06 2.3615240177746336e-06 0.0000000000000000e+00  -4.3700174337393925e-06 2.9609530370095493e-06 0.0000000000000000e+00  -5.4450913935607208e-06 3.6667744933877788e-06 0.0000000000000000e+00  -6.7306926782567718e-06 4.5023337154188397e-06 0.0000000000000000e+00  -8.2694789919752846e-06 5.4941513516729661e-06 0.0000000000000000e+00  -1.0105387744108018e-05 6.6721292476259666e-06 0.0000000000000000e+00  -1.2278366107057986e-05 8.0694495529539924e-06 0.0000000000000000e+00  -1.4815139571478118e-05 9.7216649704896158e-06 0.0000000000000000e+00  -1.7715607628778977e-05 1.1663699913549827e-05 0.0000000000000000e+00  -2.0937015525353457e-05 1.3921965110508039e-05 0.0000000000000000e+00  -2.4382837729531379e-05 1.6496850467542483e-05 0.0000000000000000e+00  0.0000000000000000e+00 0.0000000000000000e+00 0.0000000000000000e+00  -4.4376161556993557e-07 2.9948759777911579e-07 0.0000000000000000e+00  -9.0607851755630773e-07 6.0997219785238411e-07 0.0000000000000000e+00  -1.4064055536809710e-06 9.4279163354419721e-07 0.0000000000000000e+00  -1.9660564458971870e-06 1.3099797856380096e-06 0.0000000000000000e+00  -2.6092504267111470e-06 1.7246257277596632e-06 0.0000000000000000e+00  -3.3642860246637052e-06 2.2012498715071076e-06 0.0000000000000000e+00  -4.2648461467182667e-06 2.7562121465851018e-06 0.0000000000000000e+00  -5.3513682196626865e-06 3.4081850535762777e-06 0.0000000000000000e+00  -6.6722608909007203e-06 4.1787620034761308e-06 0.0000000000000000e+00  -8.2844459296192182e-06 5.0933402026991503e-06 0.0000000000000000e+00  -1.0252157263095168e-05 6.1825185156610279e-06 0.0000000000000000e+00  -1.2642075736480704e-05 7.4843292825549232e-06 0.0000000000000000e+00  -1.5511893524702827e-05 9.0474433605419627e-06 0.0000000000000000e+00  -1.8889229158026757e-05 1.0934374016601065e-05 0.0000000000000000e+00  -2.2741024416083550e-05 1.3220234324886140e-05 0.0000000000000000e+00  -2.6944271759384952e-05 1.5975035580891151e-05 0.0000000000000000e+00  0.0000000000000000e+00 0.0000000000000000e+00 0.0000000000000000e+00  -4.0576682572445609e-07 2.6791582717109900e-07 0.0000000000000000e+00  -8.2931218349934549e-07 5.4551681412641333e-07 0.0000000000000000e+00  -1.2894196550349608e-06 8.4277086160346224e-07 0.0000000000000000e+00  -1.8069840139673658e-06 1.1702276394940350e-06 0.0000000000000000e+00  -2.4062839222338464e-06 1.5393199044777607e-06 0.0000000000000000e+00  -3.1165296408078540e-06 1.9626844667196532e-06 0.0000000000000000e+00  -3.9737894426570058e-06 2.4545267824854137e-06 0.0000000000000000e+00  -5.0233752897260111e-06 3.0310849618936783e-06 0.0000000000000000e+00  -6.3226654974984358e-06 3.7113201982199784e-06 0.0000000000000000e+00  -7.9440425782602845e-06 4.5181110397385661e-06 0.0000000000000000e+00  -9.9768927131046792e-06 5.4805233418013382e-06 0.0000000000000000e+00  -1.2526049369896566e-05 6.6382335635162726e-06 0.0000000000000000e+00  -1.5701232925068723e-05 8.0498192941057880e-06 0.0000000000000000e+00  -1.9588358737438060e-05 9.8066046741628125e-06 0.0000000000000000e+00  -2.4193321916016037e-05 1.2050060339401998e-05 0.0000000000000000e+00  -2.9366075262462935e-05 1.4976079698787096e-05 0.0000000000000000e+00  0.0000000000000000e+00 0.0000000000000000e+00 0.0000000000000000e+00  -3.5000741432243938e-07 2.2666888404809295e-07 0.0000000000000000e+00  -7.1600332760637999e-07 4.6142209036740649e-07 0.0000000000000000e+00  -1.1150035204244166e-06 7.1256592961144930e-07 0.0000000000000000e+00  -1.5662121291569857e-06 9.8886528957690032e-07 0.0000000000000000e+00  -2.0924207847864448e-06 1.2997766555675520e-06 0.0000000000000000e+00  -2.7218266280954034e-06 1.6556900535717736e-06 0.0000000000000000e+00  -3.4904994515559307e-06 2.0681944383178740e-06 0.0000000000000000e+00  -4.4458048698957463e-06 2.5504058747191472e-06 0.0000000000000000e+00  -5.6511538002577220e-06 3.1174629242482700e-06 0.0000000000000000e+00  -7.1923875752388526e-06 3.7874607983966524e-06 0.0000000000000000e+00  -9.1855911011240018e-06 4.5835159433972603e-06 0.0000000000000000e+00  -1.1784287288081338e-05 5.5386663159230803e-06 0.0000000000000000e+00  -1.5178874014302268e-05 6.7075562930163195e-06 0.0000000000000000e+00  -1.9569717728308682e-05 8.1929131789540768e-06 0.0000000000000000e+00  -2.5077525228653122e-05 1.0198236919875204e-05 0.0000000000000000e+00  -3.1556108822043974e-05 1.3103289548359581e-05 0.0000000000000000e+00  0.0000000000000000e+00 0.0000000000000000e+00 0.0000000000000000e+00  -2.7827488846034299e-07 1.7734798117540617e-07 0.0000000000000000e+00  -5.6971158661039758e-07 3.6095086119026680e-07 0.0000000000000000e+00  -8.8840804848793271e-07 5.5722450152572231e-07 0.0000000000000000e+00  -1.2504798893941629e-06 7.7291676133674892e-07 0.0000000000000000e+00  -1.6754154035853692e-06 1.0152669824608360e-06 0.0000000000000000e+00  -2.1879338789920489e-06 1.2921545564775457e-06 0.0000000000000000e+00  -2.8206868333108115e-06 1.6122260154135399e-06 0.0000000000000000e+00  -3.6183485553154196e-06 1.9849833906139779e-06 0.0000000000000000e+00  -4.6439826782739186e-06 2.4208137261623773e-06 0.0000000000000000e+00  -5.9890799643795518e-06 2.9309728242420186e-06 0.0000000000000000e+00  -7.7892252301392312e-06 3.5277417349345299e-06 0.0000000000000000e+00  -1.0247166262257912e-05 4.2258587893284616e-06 0.0000000000000000e+00  -1.3660811628516277e-05 5.0495933272028576e-06 0.0000000000000000e+00  -1.8434472988066248e-05 6.0604196946454833e-06 0.0000000000000000e+00  -2.4990693548123255e-05 7.4483665222066312e-06 0.0000000000000000e+00  -3.3383285055188379e-05 9.7678795855359542e-06 0.0000000000000000e+00  0.0000000000000000e+00 0.0000000000000000e+00 0.0000000000000000e+00  -1.9339564393810357e-07 1.2178192429640186e-07 0.0000000000000000e+00  -3.9618144478943734e-07 2.4782244351815565e-07 0.0000000000000000e+00  -6.1846679716243692e-07 3.8248300021135806e-07 0.0000000000000000e+00  -8.7192529567098565e-07 5.3033573807427502e-07 0.0000000000000000e+00  -1.1708858134202518e-06 6.9625540894201650e-07 0.0000000000000000e+00  -1.5338920002571935e-06 8.8548531901877558e-07 0.0000000000000000e+00  -1.9860920356361966e-06 1.1036436901680731e-06 0.0000000000000000e+00  -2.5631110609357113e-06 1.3565928500893662e-06 0.0000000000000000e+00  -3.3176413424745651e-06 1.6499908399117657e-06 0.0000000000000000e+00  -4.3311759132863068e-06 1.9881085356153989e-06 0.0000000000000000e+00  -5.7357520716398170e-06 2.3709808036709553e-06 0.0000000000000000e+00  -7.7553420178945332e-06 2.7880171557041020e-06 0.0000000000000000e+00  -1.0784022082259563e-05 3.2055254845195088e-06 0.0000000000000000e+00  -1.5517951496314848e-05 3.5524903124151028e-06 0.0000000000000000e+00  -2.3067622864209616e-05 3.7699051497811605e-06 0.0000000000000000e+00  -3.4311244608153229e-05 4.3570635250870478e-06 0.0000000000000000e+00  0.0000000000000000e+00 0.0000000000000000e+00 0.0000000000000000e+00  -9.9139310694970110e-08 6.1965503311509559e-08 0.0000000000000000e+00  -2.0317127475440132e-07 1.2608611754627178e-07 0.0000000000000000e+00  -3.1738059249011468e-07 1.9456650508149921e-07 0.0000000000000000e+00  -4.4790952173093782e-07 2.6971200345138064e-07 0.0000000000000000e+00  -6.0237075523752037e-07 3.5396798253915899e-07 0.0000000000000000e+00  -7.9074708552956958e-07 4.4993700317023827e-07 0.0000000000000000e+00  -1.0268187772373222e-06 5.6034235847798321e-07 0.0000000000000000e+00  -1.3305858387085940e-06 6.8785902506482198e-07 0.0000000000000000e+00  -1.7326621168518830e-06 8.3460513500659173e-07 0.0000000000000000e+00  -2.2828507715317241e-06 1.0007255637416079e-06 0.0000000000000000e+00  -3.0683493720964960e-06 1.1804162950848107e-06 0.0000000000000000e+00  -4.2563474088029519e-06 1.3502755362420257e-06 0.0000000000000000e+00  -6.2051809193659236e-06 1.4330002567333969e-06 0.0000000000000000e+00  -9.7898864853813114e-06 1.1758167254195727e-06 0.0000000000000000e+00  -1.7471729105088176e-05 -2.8893920287113581e-07 0.0000000000000000e+00  -3.7221993755014403e-05 -6.1628121894268298e-06 0.0000000000000000e+00  0.0000000000000000e+00 0.0000000000000000e+00 0.0000000000000000e+00  0.0000000000000000e+00 0.0000000000000000e+00 0.0000000000000000e+00  0.0000000000000000e+00 0.0000000000000000e+00 0.0000000000000000e+00  0.0000000000000000e+00 0.0000000000000000e+00 0.0000000000000000e+00  0.0000000000000000e+00 0.0000000000000000e+00 0.0000000000000000e+00  0.0000000000000000e+00 0.0000000000000000e+00 0.0000000000000000e+00  0.0000000000000000e+00 0.0000000000000000e+00 0.0000000000000000e+00  0.0000000000000000e+00 0.0000000000000000e+00 0.0000000000000000e+00  0.0000000000000000e+00 0.0000000000000000e+00 0.00