<?xml version="1.0"?>
<VTKFile type="UnstructuredGrid"  version="0.1"  >
<UnstructuredGrid>
<Piece  NumberOfPoints="289" NumberOfCells="512">
<Points>
<DataArray  type="Float64"  NumberOfComponents="3"  format="ascii">0 0 0  0.0625 0 0  0.125 0 0  0.1875 0 0  0.25 0 0  0.3125 0 0  0.375 0 0  0.4375 0 0  0.5 0 0  0.5625 0 0  0.625 0 0  0.6875 0 0  0.75 0 0  0.8125 0 0  0.875 0 0  0.9375 0 0  1 0 0  0 0.0625 0  0.06250051826155116 0.06249927263746993 0  0.1250010521405227 0.06249851170670372 0  0.187501617117163 0.06249768133695637 0  0.2500022287419679 0.06249674066658389 0  0.3125029025420291 0.06249564039724027 0  0.375003653781773 0.06249431786077533 0  0.4375044970165488 0.06249268932448068 0  0.5000054453611961 0.06249063701142365 0  0.5625065093551188 0.06248798542740968 0  0.625007695195174 0.06248445442859912 0  0.6875090018110037 0.06247955717479343 0  0.7500104155156148 0.06247235426167726 0  0.8125118994458524 0.06246079183252905 0  0.8750133740778915 0.06243970573978604 0  0.937514702569379 0.06239411695645854 0  1.000015871859798 0.06227443672880352 0  0 0.125 0  0.06250102099908753 0.1249985786651074 0  0.1250020731517889 0.1249970924965558 0  0.1875031874081149 0.124995472386861 0  0.2500043949511043 0.1249936400197291 0  0.3125057270639419 0.1249915016759885 0  0.3750072147154026 0.1249889396304561 0  0.4375088877500611 0.1249857992670683 0  0.5000107735537982 0.1249818684958563 0  0.5625128950310827 0.1249768429156838 0  0.625015267631497 0.1249702637030109 0  0.6875178948416485 0.1249614020576243 0  0.7500207604597627 0.1249490394529348 0  0.8125238118859103 0.1249310616336051 0  0.8750269116525436 0.1249038395305297 0  0.9375296555086853 0.1248621573838614 0  1.000030562980628 0.1248056839578677 0  0 0.1875 0  0.06250149285932248 0.1874979493249281 0  0.125003032215272 0.1874958068463749 0  0.1875046644309281 0.1874934750803359 0  0.2500064364460514 0.1874908444124231 0  0.3125083957096331 0.1874877852533173 0  0.3750105897076947 0.1874841376295284 0  0.437513064927561 0.1874796965126526 0  0.5000158650981312 0.1874741901735895 0  0.5625190285666622 0.1874672471881273 0  0.6250225847437662 0.1874583453370406 0  0.6875265497555091 0.1874467334783085 0  0.7500309221566664 0.1874313208024442 0  0.8125356825699674 0.1874105568280397 0  0.875040815316912 0.1873824403775742 0  0.9375464408181 0.1873451104592183 0  1.000053509969389 0.1872987477776954 0  0 0.25 0  0.06250191863009812 0.2499974115702118 0  0.1250038987092654 0.2499947100834388 0  0.1875060018145438 0.2499917760414394 0  0.2500082907033729 0.249988476340321 0  0.3125108294621761 0.2499846558809149 0  0.375013683140635 0.2499801270440509 0  0.4375169166603959 0.2499746559410025 0  0.5000205927864089 0.2499679440758126 0  0.5625247689984181 0.2499596039652244 0  0.6250294932553254 0.2499491280445412 0  0.6875347990064666 0.2499358537919235 0  0.7500407005413261 0.2499189392786629 0  0.8125471910174038 0.2498973923574441 0  0.8750542459277801 0.2498702566637518 0  0.9375618205078546 0.24983713387477 0  1.000069701529703 0.2497991500712036 0  0 0.3125 0  0.06250228341938946 0.312496986648098 0  0.1250046425298015 0.3124938454672343 0  0.1875071536424091 0.3124904420184967 0  0.2500098951787513 0.312486628063679 0  0.312512948230933 0.3124822334728448 0  0.3750163965199082 0.312477056669588 0  0.4375203254715489 0.3124708531633953 0  0.5000248200995157 0.3124633219788392 0  0.5625299614049702 0.312454090587225 0  0.6250358211389208 0.3124427009656087 0  0.6875424551085947 0.3124286039663827 0  0.7500498958107977 0.3124111783712279 0  0.8125581459405169 0.3123898067592095 0  0.8750671746639183 0.3123640594841089 0  0.9375769180048393 0.3123340387783472 0  1.000087297261431 0.3123008636062643 0  0 0.375 0  0.06250257296534492 0.3749966893357907 0  0.1250052346808429 0.3749932427153434 0  0.1875080752565701 0.3749895178641903 0  0.250011188213744 0.3749853594691578 0  0.3125146716963718 0.3749805918813054 0  0.3750186290407734 0.3749750109787627 0  0.4375231683420294 0.3749683751707825 0  0.5000284005569833 0.3749603959953648 0  0.5625344356113514 0.3749507297644342 0  0.6250413760042861 0.3749389736624562 0  0.6875493076341712 0.3749246731377535 0  0.7500582881134215 0.3749073525960056 0  0.8125683336820788 0.3748865869795991 0  0.8750794065620741 0.3748621317190484 0  0.937591404021438 0.3748341067546205 0  1.000104145123943 0.3748031572178216 0  0 0.4375 0  0.06250277410893872 0.4374965277765808 0  0.1250056482017529 0.4374929178082274 0  0.1875087245951774 0.4374890266363708 0  0.2500121106942323 0.4374846991378618 0  0.3125159211305909 0.4374797622407866 0  0.3750202793117781 0.4374740182211701 0  0.4375253179512449 0.4374672377264369 0  0.5000311779434731 0.4374591530943336 0  0.5625380047101184 0.4374494533279238 0  0.6250459409452248 0.4374377834466643 0  0.6875551146897568 0.4374237529906562 0  0.7500656221456684 0.4374069609236473 0  0.8125775059536365 0.4373870455759825 0  0.8750907320185155 0.4373637647321088 0  0.937605170935473 0.4373370959947947 0  1.000120592143534 0.437307317609753 0  0 0.5 0  0.06250287544779037 0.499996503783106 0  0.1250058594776769 0.4999928737457238 0  0.1875090641534237 0.4999889711483894 0  0.2500126086203052 0.4999846473106971 0  0.3125166224531057 0.4999797384009161 0  0.3750212486228741 0.4999740600183358 0  0.4375266456403967 0.49996740166713 0  0.5000329880986685 0.4999595214406179 0  0.5625404643574622 0.4999501416209242 0  0.6250492695236262 0.4999389465377089 0  0.6875595913620446 0.499925584995161 0  0.7500715868121074 0.4999096808138912 0  0.8125853483537872 0.4998908560703973 0  0.8751008639530201 0.4998687710682438 0  0.9376179825081041 0.4998431803958696 0  1.000136405854132 0.4998139938408361 0  0 0.5625 0  0.06250286816792694 0.562496613458469 0  0.1250058499385409 0.5624931019154269 0  0.1875090636094759 0.5624893363486931 0  0.2500126367108852 0.5624851796997209 0  0.3125167107959478 0.5624804827546346 0  0.3750214462754577 0.5624750799108477 0  0.4375270269674786 0.5624687847812045 0  0.5000336635883719 0.5624613855403154 0  0.5625415946554913 0.5624526398120325 0  0.6250510821021477 0.5624422687391509 0  0.6875623973616907 0.5624299497995451 0  0.7500757922845721 0.5624153083992204 0  0.8125914496867245 0.5623979103182973 0  0.8751094142170728 0.562377262082649 0  0.9376295205822137 0.5623528338113302 0  1.000151362595838 0.5623241216753218 0  0 0.625 0  0.06250274701607506 0.6249968480099414 0  0.1250056080852586 0.6249935838101799 0  0.1875087030623188 0.6249900921106755 0  0.2500121630605991 0.6249862515622032 0  0.3125161367737812 0.6249819317615651 0  0.3750207975153419 0.6249769902475788 0  0.4375263509641515 0.6249712693285197 0  0.5000330431618709 0.6249645922907027 0  0.5625411673763707 0.6249567579327187 0  0.6250510666489049 0.6249475312776792 0  0.6875631257302447 0.6249366267211297 0  0.7500777415776745 0.6249236785087245 0  0.8125952572425789 0.6249081951011326 0  0.8751158463515499 0.6248895050370467 0  0.9376393605026858 0.6248667290943223 0  1.00016522275455 0.6248388415774749 0  0 0.6875 0  0.06250251132729769 0.6874971946661088 0  0.1250051316819706 0.6874942929274631 0  0.1875079766710874 0.6874911962226526 0  0.2500111746524817 0.6874878018744003 0  0.3125148744085341 0.6874840012523659 0  0.3750192544087417 0.6874796781544028 0  0.4375245342211444 0.6874747073044783 0  0.5000309884329307 0.6874689524766306 0  0.5625389627124896 0.6874622628206877 0  0.6250488896700432 0.6874544639469116 0  0.6875612975781422 0.6874453364581451 0  0.7500767956742336 0.6874345685777141 0  0.8125960040568314 0.687421664360968 0  0.8751193791080163 0.68740579931251 0  0.9376468968140795 0.6873856776908182 0  1.000177682746706 0.6873595721919853 0  0 0.75 0  0.06250216596586419 0.749997637633266 0  0.1250044298265956 0.7499951967435742 0  0.1875068962645793 0.7499925974863624 0  0.2500096831836 0.749989757660218 0  0.3125129301664089 0.7499865919826042 0  0.3750168094034875 0.7499830119540204 0  0.4375215404211706 0.7499789265133262 0  0.500027410321394 0.7499742434989167 0  0.5625348014480115 0.7499688712087857 0  0.6250442276245163 0.7499627171660311 0  0.6875563761481955 0.7499556753489325 0  0.7500721401339462 0.7499475792830085 0  0.8125925934649203 0.7499380715495135 0  0.8751187939649335 0.7499263127867557 0  0.9376512136252485 0.7499105387771159 0  1.000188659191639 0.7498881129371667 0  0 0.8125 0  0.06250172198432859 0.8124981590301917 0  0.1250035244838317 0.8124962586568719 0  0.1875054942369424 0.8124942388192149 0  0.2500077302015785 0.8124920384812067 0  0.3125103517887239 0.8124895957973938 0  0.3750135101257054 0.8124868492521702 0  0.4375174043884131 0.812483740452835 0  0.5000223064558404 0.8124802196327863 0  0.5625285990785518 0.8124762553464043 0  0.6250368354368531 0.8124718496859188 0  0.6875478301438467 0.8124670568762437 0  0.7500627870449735 0.812461986313025 0  0.812583434289793 0.8124567097855253 0  0.8751120042804775 0.812450811890319 0  0.9376505375091083 0.8124419855659508 0  1.000198627515878 0.8124238136737874 0  0 0.875 0  0.06250119677978816 0.874998739727879 0  0.1250024509850496 0.8749974397497323 0  0.1875038248437549 0.8749960601318102 0  0.2500053900899123 0.8749945608013074 0  0.3125072346358946 0.8749929021606982 0  0.3750094721174732 0.8749910468152895 0  0.437512256555983 0.874988963439976 0  0.5000158062047333 0.8749866348372244 0  0.5625204443034009 0.8749840744444739 0  0.6250266718825159 0.8749813602069552 0  0.6875353025843464 0.8749787037061598 0  0.7500477163898976 0.874976584140801 0  0.8125663204780506 0.8749759560900422 0  0.8750952309447531 0.8749782411215661 0  0.9376402964510544 0.8749828115793699 0  1.000201812909812 0.8749681515474363 0  0 0.9375 0  0.0625006135554115 0.9374993600113729 0  0.1250012570373643 0.9374987001753798 0  0.1875019629990888 0.9374980006082158 0  0.250002769224246 0.937497241547936 0  0.3125037224979995 0.9374964038641984 0  0.3750048841643245 0.9374954703393491 0  0.4375063390036925 0.93749442854448
[...]
<PointData  Vectors="f_54"> 
<DataArray  type="Float64"  Name="f_54"  NumberOfComponents="3" format="ascii">0.0000000000000000e+00 0.0000000000000000e+00 0.0000000000000000e+00  0.0000000000000000e+00 0.0000000000000000e+00 0.0000000000000000e+00  0.0000000000000000e+00 0.0000000000000000e+00 0.0000000000000000e+00  0.0000000000000000e+00 0.0000000000000000e+00 0.0000000000000000e+00  0.0000000000000000e+00 0.0000000000000000e+00 0.0000000000000000e+00  0.0000000000000000e+00 0.0000000000000000e+00 0.0000000000000000e+00  0.0000000000000000e+00 0.0000000000000000e+00 0.0000000000000000e+00  0.0000000000000000e+00 0.0000000000000000e+00 0.0000000000000000e+00  0.0000000000000000e+00 0.0000000000000000e+00 0.0000000000000000e+00  0.0000000000000000e+00 0.0000000000000000e+00 0.0000000000000000e+00  0.0000000000000000e+00 0.0000000000000000e+00 0.0000000000000000e+00  0.0000000000000000e+00 0.0000000000000000e+00 0.0000000000000000e+00  0.0000000000000000e+00 0.0000000000000000e+00 0.0000000000000000e+00  0.0000000000000000e+00 0.0000000000000000e+00 0.0000000000000000e+00  0.0000000000000000e+00 0.0000000000000000e+00 0.0000000000000000e+00  0.0000000000000000e+00 0.0000000000000000e+00 0.0000000000000000e+00  0.0000000000000000e+00 0.0000000000000000e+00 0.0000000000000000e+00  0.0000000000000000e+00 0.0000000000000000e+00 0.0000000000000000e+00  -1.1711380471736990e-07 1.0772927380190259e-07 0.0000000000000000e+00  -2.3768810373468057e-07 2.2016619197616073e-07 0.0000000000000000e+00  -3.6519253744021016e-07 3.4231873121693558e-07 0.0000000000000000e+00  -5.0309958125117901e-07 4.7983421663171566e-07 0.0000000000000000e+00  -6.5485966328294106e-07 6.3944088376120970e-07 0.0000000000000000e+00  -8.2384410888880636e-07 8.2958134423723588e-07 0.0000000000000000e+00  -1.0132450876987718e-06 1.0614051158242858e-06 0.0000000000000000e+00  -1.2259225600880657e-06 1.3504515100889602e-06 0.0000000000000000e+00  -1.4641895226335972e-06 1.7197291377614567e-06 0.0000000000000000e+00  -1.7295261322384557e-06 2.2058143768487895e-06 0.0000000000000000e+00  -2.0222006431054063e-06 2.8720133748784712e-06 0.0000000000000000e+00  -2.3407171017840603e-06 3.8396162518649259e-06 0.0000000000000000e+00  -2.6807959943805472e-06 5.3702878737196218e-06 0.0000000000000000e+00  -3.0328517832203623e-06 8.1082964490534470e-06 0.0000000000000000e+00  -3.3743655740567517e-06 1.3872724549210368e-05 0.0000000000000000e+00  -3.6445639244769857e-06 2.8513485710702347e-05 0.0000000000000000e+00  0.0000000000000000e+00 0.0000000000000000e+00 0.0000000000000000e+00  -2.3076637843366285e-07 2.1075028758492158e-07 0.0000000000000000e+00  -4.6844743630108613e-07 4.3061824388187565e-07 0.0000000000000000e+00  -7.1998632281946523e-07 6.6927872022610008e-07 0.0000000000000000e+00  -9.9235309657284639e-07 9.3758526171541740e-07 0.0000000000000000e+00  -1.2925058942355282e-06 1.2483615359988396e-06 0.0000000000000000e+00  -1.6272876165084434e-06 1.6175012581457759e-06 0.0000000000000000e+00  -2.0032357579577132e-06 2.0656222459130269e-06 0.0000000000000000e+00  -2.4262848594547514e-06 2.6207265356169144e-06 0.0000000000000000e+00  -2.9013461354612372e-06 3.3227384577558456e-06 0.0000000000000000e+00  -3.4317572017798662e-06 4.2316608144141458e-06 0.0000000000000000e+00  -4.0186026993111030e-06 5.4428824512055122e-06 0.0000000000000000e+00  -4.6599002299021002e-06 7.1166904310929971e-06 0.0000000000000000e+00  -5.3495882847135260e-06 9.5345880342231404e-06 0.0000000000000000e+00  -6.0760504898542044e-06 1.3195084229368348e-05 0.0000000000000000e+00  -6.8193105188906716e-06 1.8895631579979421e-05 0.0000000000000000e+00  -7.5441645646876013e-06 2.7249482857514117e-05 0.0000000000000000e+00  0.0000000000000000e+00 0.0000000000000000e+00 0.0000000000000000e+00  -3.3750121594190144e-07 3.0465105366347950e-07 0.0000000000000000e+00  -6.8534792254245600e-07 6.2227733708731407e-07 0.0000000000000000e+00  -1.0539535697895457e-06 9.6659497775818266e-07 0.0000000000000000e+00  -1.4538248157605461e-06 1.3528727802974703e-06 0.0000000000000000e+00  -1.8955309692812779e-06 1.7989306034332590e-06 0.0000000000000000e+00  -2.3895767401083460e-06 2.3264602756526614e-06 0.0000000000000000e+00  -2.9461423669402436e-06 2.9628895589917372e-06 0.0000000000000000e+00  -3.5746568214121343e-06 3.7441482451757795e-06 0.0000000000000000e+00  -4.2831785207428004e-06 4.7189261401288017e-06 0.0000000000000000e+00  -5.0775791918150582e-06 5.9553573151496267e-06 0.0000000000000000e+00  -5.9605685478903905e-06 7.5514296655504466e-06 0.0000000000000000e+00  -6.9306795875944657e-06 9.6501794367078450e-06 0.0000000000000000e+00  -7.9815257111884457e-06 1.2457328785157182e-05 0.0000000000000000e+00  -9.1022324774171864e-06 1.6243975644858086e-05 0.0000000000000000e+00  -1.0282199703684408e-05 2.1268604140065574e-05 0.0000000000000000e+00  -1.1532801847887450e-05 2.7453024003007813e-05 0.0000000000000000e+00  0.0000000000000000e+00 0.0000000000000000e+00 0.0000000000000000e+00  -4.3388586406065260e-07 3.8557282212678230e-07 0.0000000000000000e+00  -8.8148676643832982e-07 7.8724351275625858e-07 0.0000000000000000e+00  -1.3566547867335652e-06 1.2219523634097408e-06 0.0000000000000000e+00  -1.8734638949755203e-06 1.7083855343044099e-06 0.0000000000000000e+00  -2.4462219135484582e-06 2.2680388444374142e-06 0.0000000000000000e+00  -3.0893551944087107e-06 2.9265393216920628e-06 0.0000000000000000e+00  -3.8171132168898555e-06 3.7153602622767660e-06 0.0000000000000000e+00  -4.6430378806189444e-06 4.6741040625742447e-06 0.0000000000000000e+00  -5.5791492826934840e-06 5.8535467394399313e-06 0.0000000000000000e+00  -6.6348254849379849e-06 7.3195532014634356e-06 0.0000000000000000e+00  -7.8154106923910438e-06 9.1575327866222788e-06 0.0000000000000000e+00  -9.1206881546836875e-06 1.1475662963301316e-05 0.0000000000000000e+00  -1.0543504749506198e-05 1.4401234946301915e-05 0.0000000000000000e+00  -1.2068962149217671e-05 1.8055934639605096e-05 0.0000000000000000e+00  -1.3674162683576933e-05 2.2483241159145724e-05 0.0000000000000000e+00  -1.5324323971395325e-05 2.7507270677409739e-05 0.0000000000000000e+00  0.0000000000000000e+00 0.0000000000000000e+00 0.0000000000000000e+00  -5.1655004202355725e-07 4.5039270830186870e-07 0.0000000000000000e+00  -1.0500550395255636e-06 9.1916978933959872e-07 0.0000000000000000e+00  -1.6177136743944158e-06 1.4255866172049748e-06 0.0000000000000000e+00  -2.2371554025249213e-06 1.9906833849764847e-06 0.0000000000000000e+00  -2.9265419337987904e-06 2.6383109830885534e-06 0.0000000000000000e+00  -3.7045165529806865e-06 3.3963175563121115e-06 0.0000000000000000e+00  -4.5899282684128544e-06 4.2979405848577198e-06 0.0000000000000000e+00  -5.6012451665251015e-06 5.3834128318480634e-06 0.0000000000000000e+00  -6.7555673969970680e-06 6.7016847801534569e-06 0.0000000000000000e+00  -8.0671679900175664e-06 8.3119019646360708e-06 0.0000000000000000e+00  -9.5455478954079939e-06 1.0283678857837099e-05 0.0000000000000000e+00  -1.1193109845275407e-05 1.2693996372203177e-05 0.0000000000000000e+00  -1.3002737648809455e-05 1.5616434645870647e-05 0.0000000000000000e+00  -1.4955764215570403e-05 1.9095846485381998e-05 0.0000000000000000e+00  -1.7020895653880549e-05 2.3101812255066221e-05 0.0000000000000000e+00  -1.9154812183207431e-05 2.7467441780541667e-05 0.0000000000000000e+00  0.0000000000000000e+00 0.0000000000000000e+00 0.0000000000000000e+00  -5.8225412433150270e-07 4.9682490325677970e-07 0.0000000000000000e+00  -1.1844665251005895e-06 1.0134553207041906e-06 0.0000000000000000e+00  -1.8269885144417456e-06 1.5705429101952791e-06 0.0000000000000000e+00  -2.5309036813338596e-06 2.1904564717084662e-06 0.0000000000000000e+00  -3.3182783297832705e-06 2.8982160305610564e-06 0.0000000000000000e+00  -4.2122483707478352e-06 3.7224996407792435e-06 0.0000000000000000e+00  -5.2368484899919929e-06 4.6967042507867803e-06 0.0000000000000000e+00  -6.4164588984892023e-06 5.8599722532489106e-06 0.0000000000000000e+00  -7.7747170013685191e-06 7.2579534839950356e-06 0.0000000000000000e+00  -9.3327325553552973e-06 8.9428027708414890e-06 0.0000000000000000e+00  -1.1106484918019269e-05 1.0971444259230110e-05 0.0000000000000000e+00  -1.3103412075878851e-05 1.3400428798905417e-05 0.0000000000000000e+00  -1.5318463954173746e-05 1.6274944289499940e-05 0.0000000000000000e+00  -1.7730285013396813e-05 1.9609536499507680e-05 0.0000000000000000e+00  -2.0298601957675533e-05 2.3361057553629132e-05 0.0000000000000000e+00  -2.2964051070621157e-05 2.7403990711723113e-05 0.0000000000000000e+00  0.0000000000000000e+00 0.0000000000000000e+00 0.0000000000000000e+00  -6.2799608798195000e-07 5.2344974781933907e-07 0.0000000000000000e+00  -1.2785666152987594e-06 1.0672841756896905e-06 0.0000000000000000e+00  -1.9748706006609258e-06 1.6526767142510814e-06 0.0000000000000000e+00  -2.7411954577440503e-06 2.3023911204654553e-06 0.0000000000000000e+00  -3.6034252137864654e-06 3.0416103267258820e-06 0.0000000000000000e+00  -4.5893590587534053e-06 3.8987822026241772e-06 0.0000000000000000e+00  -5.7287700630996573e-06 4.9064376257674065e-06 0.0000000000000000e+00  -7.0530377394245844e-06 6.1018678588426877e-06 0.0000000000000000e+00  -8.5941195097901623e-06 7.5274258560498241e-06 0.0000000000000000e+00  -1.0382561332877581e-05 9.2300123344871505e-06 0.0000000000000000e+00  -1.2444227567604563e-05 1.1259003231806524e-05 0.0000000000000000e+00  -1.4795533698249433e-05 1.3661505342479696e-05 0.0000000000000000e+00  -1.7437311330730336e-05 1.6473584712003661e-05 0.0000000000000000e+00  -2.0348133834608169e-05 1.9706517276136046e-05 0.0000000000000000e+00  -2.3478936593306493e-05 2.3329086666206475e-05 0.0000000000000000e+00  -2.6751608965348944e-05 2.7251186579038478e-05 0.0000000000000000e+00  0.0000000000000000e+00 0.0000000000000000e+00 0.0000000000000000e+00  -6.5116191636079986e-07 5.2969008043584705e-07 0.0000000000000000e+00  -1.3269336707516516e-06 1.0795573990777398e-06 0.0000000000000000e+00  -2.0527345631036857e-06 1.6704940899588163e-06 0.0000000000000000e+00  -2.8555877587062426e-06 2.3248304340828151e-06 0.0000000000000000e+00  -3.7648764933432321e-06 3.0670670484418036e-06 0.0000000000000000e+00  -4.8130043454479003e-06 3.9246042443103590e-06 0.0000000000000000e+00  -6.0358496546010518e-06 4.9284303123673260e-06 0.0000000000000000e+00  -7.4728185639928001e-06 6.1136850336509878e-06 0.0000000000000000e+00  -9.1661756889356456e-06 7.5199392200082545e-06 0.0000000000000000e+00  -1.1159169845265859e-05 9.1909121420727616e-06 0.0000000000000000e+00  -1.3492312993342885e-05 1.1173174336744942e-05 0.0000000000000000e+00  -1.6197128320734773e-05 1.3513155525905767e-05 0.0000000000000000e+00  -1.9287001224807006e-05 1.6251540397819762e-05 0.0000000000000000e+00  -2.2745818040388199e-05 1.9414024690299089e-05 0.0000000000000000e+00  -2.6517144368368761e-05 2.2997708941422491e-05 0.0000000000000000e+00  -3.0499256751013595e-05 2.6953590275331158e-05 0.0000000000000000e+00  0.0000000000000000e+00 0.0000000000000000e+00 0.0000000000000000e+00  -6.4971891946116764e-07 5.1575554636463402e-07 0.0000000000000000e+00  -1.3252748437894609e-06 1.0507658906421432e-06 0.0000000000000000e+00  -2.0535519640279453e-06 1.6249193636864100e-06 0.0000000000000000e+00  -2.8635531697343096e-06 2.2593809872999061e-06 0.0000000000000000e+00  -3.7875007071437231e-06 2.9772402245251840e-06 0.0000000000000000e+00  -4.8619479962826227e-06 3.8041622039761133e-06 0.0000000000000000e+00  -6.1288250850424117e-06 4.7690299149911136e-06 0.0000000000000000e+00  -7.6362328658708371e-06 5.9045529631684858e-06 0.0000000000000000e+00  -9.4386150953818043e-06 7.2478032343352133e-06 0.0000000000000000e+00  -1.1595640652939454e-05 8.8406156411737671e-06 0.0000000000000000e+00  -1.4168715567821863e-05 1.0729745587080553e-05 0.0000000000000000e+00  -1.7213613622611517e-05 1.2966545073906740e-05 0.0000000000000000e+00  -2.0767631160478851e-05 1.5605552204334634e-05 0.0000000000000000e+00  -2.4830791374753351e-05 1.8700475486564124e-05 0.0000000000000000e+00  -2.9344270272623311e-05 2.2294226420413662e-05 0.0000000000000000e+00  -3.4175906430905016e-05 2.6397243675581203e-05 0.0000000000000000e+00  0.0000000000000000e+00 0.0000000000000000e+00 0.0000000000000000e+00  -6.2244281755267064e-07 4.8257066013593346e-07 0.0000000000000000e+00  -1.2709011230009312e-06 9.8283792145967076e-07 0.0000000000000000e+00  -1.9726542995384886e-06 1.5190460141168529e-06 0.0000000000000000e+00  -2.7575845341191624e-06 2.1105473547153587e-06 0.0000000000000000e+00  -3.6596414159204932e-06 2.7783695477263050e-06 0.0000000000000000e+00  -4.7184827249942966e-06 3.5458010098754934e-06 0.0000000000000000e+00  -5.9812955973434217e-06 4.4390114897076544e-06 0.0000000000000000e+00  -7.5047025224927038e-06 5.4877456540155378e-06 0.0000000000000000e+00  -9.3564417363615159e-06 6.7261764854740947e-06 0.0000000000000000e+00  -1.1616085811112968e-05 8.1940972178605164e-06 0.0000000000000000e+00  -1.4373297477369973e-05 9.9387705886813102e-06 0.0000000000000000e+00  -1.7720937593000942e-05 1.2017876882359374e-05 0.0000000000000000e+00  -2.1739001081099250e-05 1.4503813822191965e-05 0.0000000000000000e+00  -2.6465219940317049e-05 1.7488254002187301e-05 0.0000000000000000e+00  -3.1852880733894207e-05 2.1081573491420392e-05 0.0000000000000000e+00  -3.7731666305110345e-05 2.5392263112539789e-05 0.0000000000000000e+00  0.0000000000000000e+00 0.0000000000000000e+00 0.0000000000000000e+00  -5.6915775968226076e-07 4.3169527511054378e-07 0.0000000000000000e+00  -1.1632416498592390e-06 8.7897741054988889e-07 0.0000000000000000e+00  -1.8085917083396146e-06 1.3578905296136999e-06 0.0000000000000000e+00  -2.5345051316994194e-06 1.8854078536395973e-06 0.0000000000000000e+00  -3.3750183367031236e-06 2.4799100414152766e-06 0.0000000000000000e+00  -4.3710724558451628e-06 3.1616889853952136e-06 0.0000000000000000e+00  -5.5732055631301011e-06 3.9535085152482408e-06 0.0000000000000000e+00  -7.0448804939878492e-06 4.8812960587547225e-06 0.0000000000000000e+00  -8.8664091015030921e-06 5.9751349258733140e-06 0.0000000000000000e+00  -1.1139007054147515e-05 7.2709282957728142e-06 0.0000000000000000e+00  -1.3987477257490384e-05 8.8134979638021596e-06 0.0000000000000000e+00  -1.7557818735018199e-05 1.0662549605688135e-05 0.0000000000000000e+00  -2.2002106489335250e-05 1.2903774337466980e-05 0.0000000000000000e+00  -2.7437952746187945e-05 1.5667360480107560e-05 0.0000000000000000e+00  -3.3869918954310126e-05 1.9151698338721973e-05 0.0000000000000000e+00  -4.1085413889273349e-05 2.3632726188452348e-05 0.0000000000000000e+00  0.0000000000000000e+00 0.0000000000000000e+00 0.0000000000000000e+00  -4.9095506200636215e-07 3.6524015654924993e-07 0.0000000000000000e+00  -1.0043272783826805e-06 7.4349521756308894e-07 0.0000000000000000e+00  -1.5639803715993038e-06 1.1481429563190212e-06 0.0000000000000000e+00  -2.1968449047434100e-06 1.5932994840459421e-06 0.0000000000000000e+00  -2.9348790823405633e-06 2.0941952847989020e-06 0.0000000000000000e+00  -3.8176156220415010e-06 2.6675657966749926e-06 0.0000000000000000e+00  -4.8956160322174917e-06 3.3320783221435981e-06 0.0000000000000000e+00  -6.2352590324839089e-06 4.1088521707378628e-06 0.0000000000000000e+00  -7.9253737253017121e-06 5.0222187951041237e-06 0.0000000000000000e+00  -1.0086130875321829e-05 6.1010947093701679e-06 0.0000000000000000e+00  -1.2879854398753654e-05 7.3818975683428655e-06 0.0000000000000000e+00  -1.6520782469033981e-05 8.9152574958670531e-06 0.0000000000000000e+00  -2.1273580137814884e-05 1.0781642554813663e-05 0.0000000000000000e+00  -2.7414297307534344e-05 1.3126032606906280e-05 0.0000000000000000e+00  -3.5102869343620607e-05 1.6225430680318595e-05 0.0000000000000000e+00  -4.4120358857956322e-05 2.0583335410745994e-05 0.0000000000000000e+00  0.0000000000000000e+00 0.0000000000000000e+00 0.0000000000000000e+00  -3.9034465603750671e-07 2.8577753256764448e-07 0.0000000000000000e+00  -7.9914443548800103e-07 5.8162993402162679e-07 0.0000000000000000e+00  -1.2461736963315705e-06 8.9789901670644606e-07 0.0000000000000000e+00  -1.7540361183368309e-06 1.2454681877910622e-06 0.0000000000000000e+00  -2.3500655206652542e-06 1.6360277778140336e-06 0.0000000000000000e+00  -3.0689328260783855e-06 2.0823307099317077e-06 0.0000000000000000e+00  -3.9564356465385730e-06 2.5984288341187652e-06 0.0000000000000000e+00  -5.0752365027521786e-06 3.1998749671382506e-06 0.0000000000000000e+00  -6.5137908411815017e-06 3.9038783630982418e-06 0.0000000000000000e+00  -8.4004106958834626e-06 4.7294566068889167e-06 0.0000000000000000e+00  -1.0925170158019927e-05 5.6979174843174836e-06 0.0000000000000000e+00  -1.4372008178623476e-05 6.8351974926494812e-06 0.0000000000000000e+00  -1.9157170676902417e-05 8.1818735291762527e-06 0.0000000000000000e+00  -2.5842569569548580e-05 9.8301966561740221e-06 0.0000000000000000e+00  -3.5006204005240303e-05 1.2041253076409367e-05 0.0000000000000000e+00  -4.6691315996767494e-05 1.5523708756674888e-05 0.0000000000000000e+00  0.0000000000000000e+00 0.0000000000000000e+00 0.0000000000000000e+00  -2.7128835127296954e-07 1.9624694138667993e-07 0.0000000000000000e+00  -5.5574444574094356e-07 3.9935709322384390e-07 0.0000000000000000e+00  -8.6755021105469724e-07 6.1636699223853099e-07 0.0000000000000000e+00  -1.2230823239246154e-06 8.5466247041498068e-07 0.0000000000000000e+00  -1.6424442401085328e-06 1.1221386720365801e-06 0.0000000000000000e+00  -2.1516569640693362e-06 1.4273305920037461e-06 0.0000000000000000e+00  -2.7860181925763572e-06 1.7794739538764387e-06 0.0000000000000000e+00  -3.5955494916414976e-06 2.1884016858594667e-06 0.0000000000000000e+00  -4.6542734934769439e-06 2.6640522066514917e-06 0.0000000000000000e+00  -6.0767429175205072e-06 3.2150676801921172e-06 0.0000000000000000e+00  -8.0486794446349622e-06 3.8453169762782749e-06 0.0000000000000000e+00  -1.0885258848772838e-05 4.5460482050418888e-06 0.0000000000000000e+00  -1.5140867999490649e-05 5.2809370176387887e-06 0.0000000000000000e+00  -2.1792700580933480e-05 5.9723490618963959e-06 0.0000000000000000e+00  -3.2386988266870829e-05 6.5868664334005992e-06 0.0000000000000000e+00  -4.8061338329055126e-05 7.9555281660520089e-06 0.0000000000000000e+00  0.0000000000000000e+00 0.0000000000000000e+00 0.0000000000000000e+00  -1.3907215907697061e-07 9.9858855301152252e-08 0.0000000000000000e+00  -2.8500586492477529e-07 2.0319248591747075e-07 0.0000000000000000e+00  -4.4521574283427057e-07 3.1356030231313585e-07 0.0000000000000000e+00  -6.2832027824469178e-07 4.3469101586379929e-07 0.0000000000000000e+00  -8.4500307671876198e-07 5.7055471091114087e-07 0.0000000000000000e+00  -1.1092781640982568e-06 7.2540855255211320e-07 0.0000000000000000e+00  -1.4404996813221667e-06 9.0377713395879925e-07 0.0000000000000000e+00  -1.8667772732640215e-06 1.1102674711931886e-06 0.0000000000000000e+00  -2.4311830705794526e-06 1.3489524365930126e-06 0.0000000000000000e+00  -3.2038925352220836e-06 1.6215815179979512e-06 0.0000000000000000e+00  -4.3080266549819301e-06 1.9224419221371018e-06 0.0000000000000000e+00  -5.9802873883444779e-06 2.2230647460494855e-06 0.0000000000000000e+00  -8.7295481605941938e-06 2.4240035653979506e-06 0.0000000000000000e+00  -1.3801663967508973e-05 2.1919685094045785e-06 0.0000000000000000e+00  -2.4701647856487891e-05 3.6858114604817776e-07 0.0000000000000000e+00  -5.2709776627900519e-05 -7.3323792664545842e-06 0.0000000000000000e+00  0.0000000000000000e+00 0.0000000000000000e+00 0.0000000000000000e+00  0.0000000000000000e+00 0.0000000000000000e+00 0.0000000000000000e+00  0.0000000000000000e+00 0.0000000000000000e+00 0.0000000000000000e+00  0.0000000000000000e+00 0.0000000000000000e+00 0.0000000000000000e+00  0.0000000000000000e+00 0.0000000000000000e+00 0.0000000000000000e+00  0.0000000000000000e+00 0.0000000000000000e+00 0.0000000000000000e+00  0.0000000000000000e+00 0.0000000000000000e+00 0.0000000000000000e+00  0.0000000000000000e+00 0.0000000000000000e+00 0.0000000000000000e+00  0.0000000000000000e+00 0.0000000000000000e+00 0.000