<?xml version="1.0"?>
<VTKFile type="UnstructuredGrid"  version="0.1"  >
<UnstructuredGrid>
<Piece  NumberOfPoints="289" NumberOfCells="512">
<Points>
<DataArray  type="Float64"  NumberOfComponents="3"  format="ascii">0 0 0  0.0625 0 0  0.125 0 0  0.1875 0 0  0.25 0 0  0.3125 0 0  0.375 0 0  0.4375 0 0  0.5 0 0  0.5625 0 0  0.625 0 0  0.6875 0 0  0.75 0 0  0.8125 0 0  0.875 0 0  0.9375 0 0  1 0 0  0 0.0625 0  0.06250180174224761 0.06249822180288719 0  0.1250036569998854 0.06249636421173491 0  0.1875056192713078 0.0624943426047403 0  0.2500077421514639 0.06249206118049025 0  0.312510078964868 0.0624894052410313 0  0.375012681901654 0.06248623013603394 0  0.4375156004794077 0.06248234397933432 0  0.500018879150406 0.06247747841633127 0  0.5625225538573143 0.06247123522529974 0  0.625026647243703 0.06246298059043989 0  0.6875311618316748 0.06245161647894901 0  0.750036069143985 0.06243503547781318 0  0.8125412886744426 0.06240867471394872 0  0.8750466392957954 0.06236123185216245 0  0.9375517201006575 0.06226053671541397 0  1.00005566803419 0.0620021754018375 0  0 0.125 0  0.06250355005896489 0.1249965228237176 0  0.1250072070052702 0.1249928920388346 0  0.1875110778718121 0.1249889443338681 0  0.2500152702100342 0.1249844957740318 0  0.3125198915291098 0.1249793279491354 0  0.3750250477472674 0.1249731687360864 0  0.4375308402996846 0.1249656634289209 0  0.500037361557029 0.1249563284463577 0  0.562544688243347 0.1249444726122924 0  0.6250528725688941 0.1249290560981963 0  0.6875619306575534 0.1249084264416381 0  0.7500718270145511 0.1248798115916718 0  0.8125824503869343 0.1248383608621585 0  0.875093563070161 0.1247755586066487 0  0.937604648970586 0.1246781561555893 0  1.000114318629812 0.1245382903683055 0  0 0.1875 0  0.06250519171481433 0.187494977287708 0  0.1250105432497479 0.1874897363933391 0  0.1875162150854723 0.1874840462309318 0  0.2500223692874945 0.1874776485366723 0  0.3125291690985975 0.1874702403583721 0  0.3750367770641929 0.1874614508712978 0  0.4375453511381474 0.1874508086934476 0  0.5000550382342749 0.1874376935102849 0  0.5625659648083228 0.1874212619065252 0  0.6250782243614782 0.1874003315226123 0  0.6875918624101097 0.1873732017874684 0  0.7501068609569054 0.1873373947079698 0  0.8126231288669948 0.1872893603673034 0  0.8751405212173055 0.1872244537073354 0  0.9376589845517299 0.187138296841171 0  1.000179274998223 0.1870320793009685 0  0 0.25 0  0.06250667387504266 0.2499936497724287 0  0.1250135594536372 0.2499870296234161 0  0.1875208701243294 0.2499798549702773 0  0.2500288228727417 0.2499718106844583 0  0.3125376385534964 0.2499625323923099 0  0.3750475402461835 0.2499515831619694 0  0.4375587489013401 0.2499384231823502 0  0.5000714754523885 0.2499223693957451 0  0.5625859086900845 0.2499025417613021 0  0.6251021986203357 0.2498777944153767 0  0.6876204359790019 0.2498466378233096 0  0.7501406303521879 0.2498071832549452 0  0.8126626921148506 0.2497572078021923 0  0.8751864254932 0.2496945828114759 0  0.9377115261922743 0.2496185133085793 0  1.000237444670751 0.2495319038924237 0  0 0.3125 0  0.06250794470192519 0.3124925920151914 0  0.1250161508732332 0.3124848769598828 0  0.1875248833289118 0.3124765326453057 0  0.250034413702534 0.3124672057328233 0  0.3125450221107109 0.3124564936806343 0  0.3750569965385887 0.3124439236891072 0  0.4375706288584517 0.3124289277760041 0  0.5000862062188701 0.312410813739363 0  0.5626039965099502 0.3123887336062413 0  0.625124226925494 0.312361655777399 0  0.6876470555941878 0.3123283574737476 0  0.7501725381270892 0.3122874751538764 0  0.8127005937056014 0.3122376870141386 0  0.8752309779951103 0.3121781462133882 0  0.9377632706947502 0.3121092802015707 0  1.000296894539894 0.3120338596283108 0  0 0.375 0  0.06250895441556663 0.3749918411582707 0  0.1250182163027117 0.3749833531499279 0  0.1875280988478833 0.3749741922131225 0  0.2500389266687006 0.3749639848094916 0  0.3125510397661745 0.3749523112273969 0  0.3750647950331232 0.3749386876497906 0  0.4375805639171292 0.3749225468655896 0  0.5000987243953129 0.3749032189704469 0  0.5626196450280028 0.3748799158183532 0  0.625143658771814 0.3748517276223767 0  0.6876710248848185 0.3748176482013064 0  0.7502018792365005 0.3747766575496522 0  0.8127361771208598 0.3747279035981418 0  0.8752736379315335 0.3746710249346725 0  0.9378137055457114 0.3746066050873428 0  1.000355536236121 0.3745365818924347 0  0 0.4375 0  0.06250965694002709 0.4374914192880673 0  0.1250196612933663 0.4374825018544422 0  0.187530369248418 0.4374728975365757 0  0.2500421544554456 0.4374622289515621 0  0.3125554153003577 0.437450077096349 0  0.3750705799436427 0.4374359663557718 0  0.4375881074803349 0.4374193495035723 0  0.5001084827481027 0.4373995943872069 0  0.5626322013074719 0.4373759760106064 0  0.6251597401893806 0.437347681158524 0  0.6876915097588032 0.4373138378921822 0  0.7502277836337595 0.4372735885998416 0  0.8127686087142827 0.4372262294298282 0  0.8753137075129043 0.4371714317578345 0  0.9378623992831157 0.4371095267682278 0  1.000413578245952 0.4370417609691782 0  0 0.5 0  0.06251001220836147 0.4999913339486742 0  0.1250204027728267 0.4999823370217448 0  0.1875315624222358 0.4999726664125591 0  0.2500439065661689 0.4999619552527544 0  0.3125578869454709 0.4999498001876866 0  0.3750740018522115 0.4999357487363577 0  0.4375928032704477 0.4999192868908492 0  0.5001148980098828 0.4998998280773223 0  0.5626409380381119 0.4998767057467164 0  0.6251715928321514 0.4998491737380393 0  0.6877074942589069 0.4998164214178707 0  0.7502491439930518 0.4997776144865057 0  0.8127967784253234 0.4997319764939769 0  0.8753502019268511 0.4996789278317825 0  0.9379086302594452 0.4996182922132373 0  1.000470623729309 0.4995505562816072 0  0 0.5625 0  0.06250998911712735 0.5624915792829738 0  0.1250203750914436 0.5624828454432363 0  0.1875315709533459 0.5624734751223968 0  0.2500440222204545 0.562463124350816 0  0.3125582237762929 0.5624514180105589 0  0.375074736926698 0.5624379390889277 0  0.4375942054612076 0.5624222177529468 0  0.5001173679254053 0.5624037203218274 0  0.5626450605098563 0.562381838234822 0  0.625178200521719 0.5623558771741275 0  0.6877177342813449 0.5623250469917984 0  0.7502645270411021 0.562288455252051 0  0.8128191717742492 0.5622451140328691 0  0.8753817113801783 0.5621939862903815 0  0.9379513246546836 0.5621341283826805 0  1.000526126324611 0.5620650171983093 0  0 0.625 0  0.06250956899160423 0.6249921375277948 0  0.1250195372651395 0.6249839899112104 0  0.187530323738679 0.6249752635629243 0  0.250042387156132 0.624965647908383 0  0.3125562484918595 0.6249548067602826 0  0.3750725160231038 0.6249423694315095 0  0.4375919131190048 0.6249279212049085 0  0.5001153072680354 0.6249109922197795 0  0.5626437355907276 0.6248910426611008 0  0.6251784156299323 0.6248674399983777 0  0.6877207186969758 0.6248394208803048 0  0.7502720654229889 0.6248060277083884 0  0.8128336837612433 0.6247660142418263 0  0.8754061695914532 0.6247177424052593 0  0.9379888649048925 0.624659172061927 0  1.000579304471584 0.6245881881397319 0  0 0.6875 0  0.06250874924669493 0.6874929806958043 0  0.1250178808120356 0.6874857126689057 0  0.187527799055721 0.6874779405829625 0  0.2500389535366013 0.6874693958424458 0  0.3125518662463211 0.6874597900233962 0  0.375067164655118 0.6874488082227127 0  0.4375856227196432 0.687436101858959 0  0.5001082114434545 0.6874212795838038 0  0.562636158264428 0.6874038929436903 0  0.625171007950609 0.6873834091207213 0  0.6877146618223925 0.6873591547313668 0  0.7502693387223885 0.6873302009300581 0  0.8128373419625421 0.6872951452366374 0  0.8754204430730042 0.6872517561788462 0  0.9380187013796764 0.6871965647564378 0  1.000628931277227 0.6871248329542748 0  0 0.75 0  0.06250754672485122 0.7499940723581625 0  0.1250154371236711 0.7499879390352643 0  0.1875240374647074 0.74998138951979 0  0.2500337608762848 0.7499742037214505 0  0.3125450973117012 0.7499661475732851 0  0.3750586524224255 0.7499569690784068 0  0.4375752002044961 0.7499463947767082 0  0.500095755841437 0.7499341260361835 0  0.5626216763343443 0.7499198328541614 0  0.6251547947801276 0.749903138114221 0  0.6876975822030716 0.7498835730014348 0  0.7502532898801034 0.7498604550288713 0  0.8128259143252147 0.7498325793207755 0  0.8754195843781082 0.7497975251511472 0  0.9380366102763824 0.7497504146183626 0  1.000673526536783 0.7496828243358031 0  0 0.8125 0  0.06250600001097012 0.8124953694686236 0  0.125012282868173 0.8124905811352567 0  0.1875191520479177 0.8124854739874803 0  0.2500269542650321 0.8124798807933027 0  0.3125361085398442 0.8124736257354335 0  0.3750471460334243 0.8124665231728663 0  0.4375607679121591 0.8124583783603929 0  0.5000779328946414 0.8124489914267334 0  0.5625999933000835 0.8124381663665681 0  0.6251289089019154 0.8124257261216183 0  0.6876675786660358 0.812411528188885 0  0.7502203227354007 0.812395444910017 0  0.8127934463989185 0.8123771616909483 0  0.8753953883907252 0.8123553053784666 0  0.9380346577756902 0.8123246559254882 0  1.000711613715707 0.8122703954288946 0  0 0.875 0  0.06250416994616823 0.8749968241470455 0  0.1250085416723636 0.8749935415839926 0  0.1875133328312932 0.8749900437355143 0  0.2500187946324767 0.8749862185467994 0  0.3125252352932386 0.8749819496241219 0  0.3750330535679391 0.8749771168714 0  0.437542790167255 0.8749716001499571 0  0.5000552111743953 0.8749652891751337 0  0.5625714501888492 0.8749581066175793 0  0.6250932616701529 0.8749500595989831 0  0.6876234903220061 0.8749413514953731 0  0.7501669615979933 0.8749326117923697 0  0.8127321445759874 0.874925290543129 0  0.8753338603095348 0.8749218573901331 0  0.9379950126089354 0.8749225020407732 0  1.000729201743858 0.8748978086591886 0  0 0.9375 0  0.06250213768237255 0.9374983853049061 0  0.1250043805076653 0.9374967168502221 0  0.1875068422803167 0.9374949400484881 0  0.2500096552222726 0.937492998832868 0  0.3125129831705181 0.9374908355283901 0  0.3750170409739801 0.9374883918247497 0  0.4375221253330517 0.937485612145962
[...]
<PointData  Vectors="f_54"> 
<DataArray  type="Float64"  Name="f_54"  NumberOfComponents="3" format="ascii">0.0000000000000000e+00 0.0000000000000000e+00 0.0000000000000000e+00  0.0000000000000000e+00 0.0000000000000000e+00 0.0000000000000000e+00  0.0000000000000000e+00 0.0000000000000000e+00 0.0000000000000000e+00  0.0000000000000000e+00 0.0000000000000000e+00 0.0000000000000000e+00  0.0000000000000000e+00 0.0000000000000000e+00 0.0000000000000000e+00  0.0000000000000000e+00 0.0000000000000000e+00 0.0000000000000000e+00  0.0000000000000000e+00 0.0000000000000000e+00 0.0000000000000000e+00  0.0000000000000000e+00 0.0000000000000000e+00 0.0000000000000000e+00  0.0000000000000000e+00 0.0000000000000000e+00 0.0000000000000000e+00  0.0000000000000000e+00 0.0000000000000000e+00 0.0000000000000000e+00  0.0000000000000000e+00 0.0000000000000000e+00 0.0000000000000000e+00  0.0000000000000000e+00 0.0000000000000000e+00 0.0000000000000000e+00  0.0000000000000000e+00 0.0000000000000000e+00 0.0000000000000000e+00  0.0000000000000000e+00 0.0000000000000000e+00 0.0000000000000000e+00  0.0000000000000000e+00 0.0000000000000000e+00 0.0000000000000000e+00  0.0000000000000000e+00 0.0000000000000000e+00 0.0000000000000000e+00  0.0000000000000000e+00 0.0000000000000000e+00 0.0000000000000000e+00  0.0000000000000000e+00 0.0000000000000000e+00 0.0000000000000000e+00  -4.5715256729112532e-08 2.6994479062729600e-08 0.0000000000000000e+00  -9.2778275956117149e-08 5.5155137804094062e-08 0.0000000000000000e+00  -1.4254147304553525e-07 8.5721228511624097e-08 0.0000000000000000e+00  -1.9635772177361632e-07 1.2008556826862051e-07 0.0000000000000000e+00  -2.5557047836874567e-07 1.5990018615577456e-07 0.0000000000000000e+00  -3.2149156591142181e-07 2.0722745401826210e-07 0.0000000000000000e+00  -3.9536281326751048e-07 2.6477653481855993e-07 0.0000000000000000e+00  -4.7829865202931827e-07 3.3630397838421895e-07 0.0000000000000000e+00  -5.7120862892936878e-07 4.2734538171053427e-07 0.0000000000000000e+00  -6.7470150123231627e-07 5.4665635067940697e-07 0.0000000000000000e+00  -7.8897371554054237e-07 7.0928550309852376e-07 0.0000000000000000e+00  -9.1367093461874576e-07 9.4372086483689115e-07 0.0000000000000000e+00  -1.0476138991546196e-06 1.3101529355187850e-06 0.0000000000000000e+00  -1.1877639258052787e-06 1.9520436756550028e-06 0.0000000000000000e+00  -1.3241884134746046e-06 3.2571350013395390e-06 0.0000000000000000e+00  -1.4144610075023317e-06 6.4111187913118237e-06 0.0000000000000000e+00  0.0000000000000000e+00 0.0000000000000000e+00 0.0000000000000000e+00  -9.0082844071257087e-08 5.2822875805644501e-08 0.0000000000000000e+00  -1.8285937882276649e-07 1.0790678465332621e-07 0.0000000000000000e+00  -2.8103639019335905e-07 1.6764853903509339e-07 0.0000000000000000e+00  -3.8732983638959360e-07 2.3472851868963785e-07 0.0000000000000000e+00  -5.0444920132588529e-07 3.1230021394918474e-07 0.0000000000000000e+00  -6.3505684784996518e-07 4.0425277571453062e-07 0.0000000000000000e+00  -7.8169413089180367e-07 5.1560530336150292e-07 0.0000000000000000e+00  -9.4666750193676532e-07 6.5314155917977081e-07 0.0000000000000000e+00  -1.1318916054055156e-06 8.2649602590099903e-07 0.0000000000000000e+00  -1.3386941540354284e-06 1.0501155226525418e-06 0.0000000000000000e+00  -1.5676031306124158e-06 1.3469709115536044e-06 0.0000000000000000e+00  -1.8181758263775200e-06 1.7558313238363373e-06 0.0000000000000000e+00  -2.0890660415086081e-06 2.3457101034152026e-06 0.0000000000000000e+00  -2.3791466366636880e-06 3.2434869617134262e-06 0.0000000000000000e+00  -2.6936272743992053e-06 4.6771149925412420e-06 0.0000000000000000e+00  -3.0753007921233766e-06 6.9802699745388405e-06 0.0000000000000000e+00  0.0000000000000000e+00 0.0000000000000000e+00 0.0000000000000000e+00  -1.3175460750117725e-07 7.6389129389026035e-08 0.0000000000000000e+00  -2.6754073331714363e-07 1.5600135330762069e-07 0.0000000000000000e+00  -4.1141898684906777e-07 2.4224081766919968e-07 0.0000000000000000e+00  -5.6748436007978297e-07 3.3888631851081214e-07 0.0000000000000000e+00  -7.3985330578903440e-07 4.5033082616881940e-07 0.0000000000000000e+00  -9.3261285820392332e-07 5.8189684568831907e-07 0.0000000000000000e+00  -1.1497178935682712e-06 7.4028007459425805e-07 0.0000000000000000e+00  -1.3948235544465489e-06 9.3420774763259579e-07 0.0000000000000000e+00  -1.6710438025691842e-06 1.1754557925651941e-06 0.0000000000000000e+00  -1.9806359359723449e-06 1.4804587117461535e-06 0.0000000000000000e+00  -2.3246260392384494e-06 1.8728530040541126e-06 0.0000000000000000e+00  -2.7024079533860654e-06 2.3872846174649033e-06 0.0000000000000000e+00  -3.1113351444960913e-06 3.0740711383267527e-06 0.0000000000000000e+00  -3.5460773727569242e-06 4.0005316171919350e-06 0.0000000000000000e+00  -3.9958409923143377e-06 5.2302896976607449e-06 0.0000000000000000e+00  -4.4275660702768067e-06 6.7149300419506165e-06 0.0000000000000000e+00  0.0000000000000000e+00 0.0000000000000000e+00 0.0000000000000000e+00  -1.6939113921231570e-07 9.6730444009942316e-08 0.0000000000000000e+00  -3.4412907896902802e-07 1.9746876451407509e-07 0.0000000000000000e+00  -5.2961689909152453e-07 3.0642962390891731e-07 0.0000000000000000e+00  -7.3134182985696864e-07 4.2825110722206078e-07 0.0000000000000000e+00  -9.5487842445699697e-07 5.6825086581656664e-07 0.0000000000000000e+00  -1.2058412945659462e-06 7.3274193501946192e-07 0.0000000000000000e+00  -1.4897663774987805e-06 9.2943954983442120e-07 0.0000000000000000e+00  -1.8118985007490444e-06 1.1679993052289018e-06 0.0000000000000000e+00  -2.1768651964823461e-06 1.4607320551562170e-06 0.0000000000000000e+00  -2.5882253442490091e-06 1.8235222593875666e-06 0.0000000000000000e+00  -3.0478995544892801e-06 2.2768742961864672e-06 0.0000000000000000e+00  -3.5555189592005371e-06 2.8466640245958726e-06 0.0000000000000000e+00  -4.1077695395758710e-06 3.5631995246807680e-06 0.0000000000000000e+00  -4.6978836241867642e-06 4.4549160272336957e-06 0.0000000000000000e+00  -5.3158429424891591e-06 5.5293014443355863e-06 0.0000000000000000e+00  -5.9530598329843469e-06 6.7352771020396825e-06 0.0000000000000000e+00  0.0000000000000000e+00 0.0000000000000000e+00 0.0000000000000000e+00  -2.0167644805007563e-07 1.1306187946786386e-07 0.0000000000000000e+00  -4.0996595312161852e-07 2.3071361060324228e-07 0.0000000000000000e+00  -6.3157939905747218e-07 3.5776031504141644e-07 0.0000000000000000e+00  -8.7339335686330531e-07 4.9944361402631844e-07 0.0000000000000000e+00  -1.1424879742065457e-06 6.6169056285951262e-07 0.0000000000000000e+00  -1.4461242940369241e-06 8.5139868493691628e-07 0.0000000000000000e+00  -1.7916316337265453e-06 1.0767657148787581e-06 0.0000000000000000e+00  -2.1861701133214802e-06 1.3476623351038940e-06 0.0000000000000000e+00  -2.6363308100855319e-06 1.6760182853822004e-06 0.0000000000000000e+00  -3.1475411691498957e-06 2.0761247418261597e-06 0.0000000000000000e+00  -3.7232632574951848e-06 2.5646058010020652e-06 0.0000000000000000e+00  -4.3640153735866616e-06 3.1595079775071771e-06 0.0000000000000000e+00  -5.0663190079248822e-06 3.8774276388052725e-06 0.0000000000000000e+00  -5.8217667123538813e-06 4.7269620249167981e-06 0.0000000000000000e+00  -6.6164555653441255e-06 5.6970359925522476e-06 0.0000000000000000e+00  -7.4304925092611226e-06 6.7432896538703712e-06 0.0000000000000000e+00  0.0000000000000000e+00 0.0000000000000000e+00 0.0000000000000000e+00  -2.2734455874799424e-07 1.2480188035428153e-07 0.0000000000000000e+00  -4.6247761156726486e-07 2.5456390977804239e-07 0.0000000000000000e+00  -7.1334342684266310e-07 3.9445740853696676e-07 0.0000000000000000e+00  -9.8817030640782496e-07 5.5007898021921035e-07 0.0000000000000000e+00  -1.2955669005753985e-06 7.2768056194382545e-07 0.0000000000000000e+00  -1.6445534108355470e-06 9.3441512284466360e-07 0.0000000000000000e+00  -2.0444898577586387e-06 1.1785911080396233e-06 0.0000000000000000e+00  -2.5048508704667044e-06 1.4699094005382601e-06 0.0000000000000000e+00  -3.0347842302750662e-06 1.8196176642018857e-06 0.0000000000000000e+00  -3.6423851085105447e-06 2.2404435426184306e-06 0.0000000000000000e+00  -4.3336315243049428e-06 2.7460413644498992e-06 0.0000000000000000e+00  -5.1109773649137769e-06 3.3494974190624834e-06 0.0000000000000000e+00  -5.9717086514299659e-06 4.0602349842268265e-06 0.0000000000000000e+00  -6.9063476693652900e-06 4.8786675638964410e-06 0.0000000000000000e+00  -7.8976155917336897e-06 5.7887509748806328e-06 0.0000000000000000e+00  -8.9207085004978291e-06 6.7509902079696198e-06 0.0000000000000000e+00  0.0000000000000000e+00 0.0000000000000000e+00 0.0000000000000000e+00  -2.4522129770371906e-07 1.3158105769167738e-07 0.0000000000000000e+00  -4.9925657522752581e-07 2.6828408342540229e-07 0.0000000000000000e+00  -7.7114986055027627e-07 4.1543035279162716e-07 0.0000000000000000e+00  -1.0703851693129609e-06 5.7874177104551370e-07 0.0000000000000000e+00  -1.4070686968740626e-06 7.6454994347551186e-07 0.0000000000000000e+00  -1.7920516589562766e-06 9.8000947880534284e-07 0.0000000000000000e+00  -2.2369498541624126e-06 1.2333033788627218e-06 0.0000000000000000e+00  -2.7539932542885609e-06 1.5338093148648333e-06 0.0000000000000000e+00  -3.3556106844852693e-06 1.8921605220353484e-06 0.0000000000000000e+00  -4.0536270527171319e-06 2.3200746368373509e-06 0.0000000000000000e+00  -4.8579396286061654e-06 2.8297294923762504e-06 0.0000000000000000e+00  -5.7745775601066496e-06 3.4323413279480711e-06 0.0000000000000000e+00  -6.8031851089052996e-06 4.1354973863121461e-06 0.0000000000000000e+00  -7.9342553577828339e-06 4.9388616056699376e-06 0.0000000000000000e+00  -9.1468706645230665e-06 5.8284028047990777e-06 0.0000000000000000e+00  -1.0408094458203929e-05 6.7705782076567481e-06 0.0000000000000000e+00  0.0000000000000000e+00 0.0000000000000000e+00 0.0000000000000000e+00  -2.5428328219063204e-07 1.3323883233853204e-07 0.0000000000000000e+00  -5.1817983051333391e-07 2.7156358376728925e-07 0.0000000000000000e+00  -8.0162013536486681e-07 4.2024328496787115e-07 0.0000000000000000e+00  -1.1151620669170455e-06 5.8491643452079620e-07 0.0000000000000000e+00  -1.4702868137432312e-06 7.7178147041896323e-07 0.0000000000000000e+00  -1.8796572216050768e-06 9.8778985255793607e-07 0.0000000000000000e+00  -2.3572952046009523e-06 1.2408335962207647e-06 0.0000000000000000e+00  -2.9186008371076476e-06 1.5399070526776560e-06 0.0000000000000000e+00  -3.5800853802355473e-06 1.8952007859375048e-06 0.0000000000000000e+00  -4.3586246686770421e-06 2.3180464839807886e-06 0.0000000000000000e+00  -5.2699719572934497e-06 2.8205654067930090e-06 0.0000000000000000e+00  -6.3262441844745602e-06 3.4147662279784695e-06 0.0000000000000000e+00  -7.5322075638259131e-06 4.1106855523015111e-06 0.0000000000000000e+00  -8.8805880576010524e-06 4.9129978500144900e-06 0.0000000000000000e+00  -1.0347447665546371e-05 5.8154920061011210e-06 0.0000000000000000e+00  -1.1889735796416069e-05 6.7933711946214481e-06 0.0000000000000000e+00  0.0000000000000000e+00 0.0000000000000000e+00 0.0000000000000000e+00  -2.5373389843835997e-07 1.2981262911089779e-07 0.0000000000000000e+00  -5.1756448040735713e-07 2.6449205374022055e-07 0.0000000000000000e+00  -8.0199774544685168e-07 4.0906922964822310e-07 0.0000000000000000e+00  -1.1183698679140396e-06 5.6890913832349435e-07 0.0000000000000000e+00  -1.4792790568910425e-06 7.4988443455878952e-07 0.0000000000000000e+00  -1.8990226612919103e-06 9.5855649574667020e-07 0.0000000000000000e+00  -2.3940096810710217e-06 1.2023653036890070e-06 0.0000000000000000e+00  -2.9830768521205550e-06 1.4898288096657680e-06 0.0000000000000000e+00  -3.6875632091119019e-06 1.8307506300152514e-06 0.0000000000000000e+00  -4.5308800850162543e-06 2.2364280242954640e-06 0.0000000000000000e+00  -5.5371463166943415e-06 2.7198262298117400e-06 0.0000000000000000e+00  -6.7282758150292858e-06 3.2956013799157640e-06 0.0000000000000000e+00  -8.1188418076425709e-06 3.9796211085746499e-06 0.0000000000000000e+00  -9.7084264078030108e-06 4.7870819727877488e-06 0.0000000000000000e+00  -1.1472526337415546e-05 5.7272813053431496e-06 0.0000000000000000e+00  -1.3355714679095458e-05 6.7918173258195509e-06 0.0000000000000000e+00  0.0000000000000000e+00 0.0000000000000000e+00 0.0000000000000000e+00  -2.4309259913000970e-07 1.2152288053573848e-07 0.0000000000000000e+00  -4.9635469100938289e-07 2.4752797263563507e-07 0.0000000000000000e+00  -7.7044888153384721e-07 3.8264016000243876e-07 0.0000000000000000e+00  -1.0770582594046352e-06 5.3177762705699662e-07 0.0000000000000000e+00  -1.4294614381100920e-06 7.0030667790992691e-07 0.0000000000000000e+00  -1.8431782237536119e-06 8.9420936000405710e-07 0.0000000000000000e+00  -2.3366889281301446e-06 1.1202750663899370e-06 0.0000000000000000e+00  -2.9321922686420865e-06 1.3863386111796736e-06 0.0000000000000000e+00  -3.6562840360623231e-06 1.7016096452117234e-06 0.0000000000000000e+00  -4.5402732694192287e-06 2.0771772381608164e-06 0.0000000000000000e+00  -5.6195519916566652e-06 2.5268270694333509e-06 0.0000000000000000e+00  -6.9309596410286168e-06 3.0683389629092111e-06 0.0000000000000000e+00  -8.5065185238630420e-06 3.7252866271045599e-06 0.0000000000000000e+00  -1.0361754657454555e-05 4.5286032086639475e-06 0.0000000000000000e+00  -1.2478436961197699e-05 5.5148736868112356e-06 0.0000000000000000e+00  -1.4787244725246281e-05 6.7133256784570369e-06 0.0000000000000000e+00  0.0000000000000000e+00 0.0000000000000000e+00 0.0000000000000000e+00  -2.2228921401757839e-07 1.0875522970148879e-07 0.0000000000000000e+00  -4.5432393510125034e-07 2.2146303727440678e-07 0.0000000000000000e+00  -7.0640049973317206e-07 3.4219455945811104e-07 0.0000000000000000e+00  -9.8997445204803727e-07 4.7526674470347890e-07 0.0000000000000000e+00  -1.3183598136840382e-06 6.2537243296533140e-07 0.0000000000000000e+00  -1.7075802895617310e-06 7.9772343731296660e-07 0.0000000000000000e+00  -2.1774303489742311e-06 9.9822143600355634e-07 0.0000000000000000e+00  -2.7527924952075346e-06 1.2336899481775856e-06 0.0000000000000000e+00  -3.4652027300896617e-06 1.5122416555817466e-06 0.0000000000000000e+00  -4.3544958339332236e-06 1.8439420220397625e-06 0.0000000000000000e+00  -5.4699670319047655e-06 2.2421011423802761e-06 0.0000000000000000e+00  -6.8696355092052990e-06 2.7258228321913317e-06 0.0000000000000000e+00  -8.6146363868766682e-06 3.3248172780996455e-06 0.0000000000000000e+00  -1.0753681767315647e-05 4.0874484303072533e-06 0.0000000000000000e+00  -1.3292127887858233e-05 5.0905642096648761e-06 0.0000000000000000e+00  -1.6148952707523442e-05 6.4395193514212459e-06 0.0000000000000000e+00  0.0000000000000000e+00 0.0000000000000000e+00 0.0000000000000000e+00  -1.9174971491603823e-07 9.2039979010185266e-08 0.0000000000000000e+00  -3.9226470525547817e-07 1.8738129568060809e-07 0.0000000000000000e+00  -6.1087307233970086e-07 2.8941771987691398e-07 0.0000000000000000e+00  -8.5810427422187290e-07 4.0173527958334351e-07 0.0000000000000000e+00  -1.1464574586894128e-06 5.2821081338642779e-07 0.0000000000000000e+00  -1.4914003360101803e-06 6.7311578289099314e-07 0.0000000000000000e+00  -1.9127257268727580e-06 8.4123329901831124e-07 0.0000000000000000e+00  -2.4364360432653403e-06 1.0380099121729396e-06 0.0000000000000000e+00  -3.0973633758783677e-06 1.2698001603551529e-06 0.0000000000000000e+00  -3.9427059176046245e-06 1.5443577005532176e-06 0.0000000000000000e+00  -5.0363933006388793e-06 1.8719732955998461e-06 0.0000000000000000e+00  -6.4632182514979635e-06 2.2682692399210419e-06 0.0000000000000000e+00  -8.3289402049246582e-06 2.7610517505694537e-06 0.0000000000000000e+00  -1.0746348107450114e-05 3.4062838042837798e-06 0.0000000000000000e+00  -1.3787352524903327e-05 4.3210164604204678e-06 0.0000000000000000e+00  -1.7380923005313520e-05 5.7330171990398464e-06 0.0000000000000000e+00  0.0000000000000000e+00 0.0000000000000000e+00 0.0000000000000000e+00  -1.5245532697414405e-07 7.2028563933019450e-08 0.0000000000000000e+00  -3.1212668710519062e-07 1.4661156723383880e-07 0.0000000000000000e+00  -4.8674279862126115e-07 2.2636940676224958e-07 0.0000000000000000e+00  -6.8513959945702190e-07 3.1405904713113026e-07 0.0000000000000000e+00  -9.1800373243365178e-07 4.1263808870052247e-07 0.0000000000000000e+00  -1.1988921447341535e-06 5.2532145982210137e-07 0.0000000000000000e+00  -1.5457140799144769e-06 6.5562319554625969e-07 0.0000000000000000e+00  -1.9829753031132536e-06 8.0737034891878289e-07 0.0000000000000000e+00  -2.5452719883359511e-06 9.8467152772452172e-07 0.0000000000000000e+00  -3.2828045083182125e-06 1.1918364832981095e-06 0.0000000000000000e+00  -4.2700048251372750e-06 1.4333531422419024e-06 0.0000000000000000e+00  -5.6183204083726864e-06 1.7145301897974593e-06 0.0000000000000000e+00  -7.4920260651587048e-06 2.0453308778300802e-06 0.0000000000000000e+00  -1.0115808300190298e-05 2.4564266246243246e-06 0.0000000000000000e+00  -1.3730057076680566e-05 3.0554504536285912e-06 0.0000000000000000e+00  -1.8383637921503975e-05 4.1901292238752660e-06 0.0000000000000000e+00  0.0000000000000000e+00 0.0000000000000000e+00 0.0000000000000000e+00  -1.0595510824083886e-07 4.9467586353307677e-08 0.0000000000000000e+00  -2.1705849857008255e-07 1.0067385747786744e-07 0.0000000000000000e+00  -3.3885218911310314e-07 1.5539872630758171e-07 0.0000000000000000e+00  -4.7773619036371339e-07 2.1550644629313463e-07 0.0000000000000000e+00  -6.4156663765708202e-07 2.8297928397885928e-07 0.0000000000000000e+00  -8.4051021703041965e-07 3.5993474314409181e-07 0.0000000000000000e+00  -1.0883523744868437e-06 4.4860524198115165e-07 0.0000000000000000e+00  -1.4046148422561863e-06 5.5123201154386512e-07 0.0000000000000000e+00  -1.8181545202945438e-06 6.6976195467929870e-07 0.0000000000000000e+00  -2.3735623251617617e-06 8.0509113731047597e-07 0.0000000000000000e+00  -3.1430079843890490e-06 9.5527763071268457e-07 0.0000000000000000e+00  -4.2487887864635444e-06 1.1115194630919741e-06 0.0000000000000000e+00  -5.9060524250794167e-06 1.2499680681002102e-06 0.0000000000000000e+00  -8.4959107581175831e-06 1.3198964532032155e-06 0.0000000000000000e+00  -1.2634076888171841e-05 1.2566593037842784e-06 0.0000000000000000e+00  -1.8858813735444243e-05 1.2249929242316545e-06 0.0000000000000000e+00  0.0000000000000000e+00 0.0000000000000000e+00 0.0000000000000000e+00  -5.4315468911471380e-08 2.5172058606188847e-08 0.0000000000000000e+00  -1.1131336988997434e-07 5.1223696966247890e-08 0.0000000000000000e+00  -1.7389068606640429e-07 7.9053958317277400e-08 0.0000000000000000e+00  -2.4541460893541338e-07 1.0960113854838823e-07 0.0000000000000000e+00  -3.3005827781387254e-07 1.4385555203389538e-07 0.0000000000000000e+00  -4.3329312946000211e-07 1.8285849907697178e-07 0.0000000000000000e+00  -5.6266889594707872e-07 2.2766825051217658e-07 0.0000000000000000e+00  -7.2913458320820813e-07 2.7924548421873778e-07 0.0000000000000000e+00  -9.4942824221357197e-07 3.3813529860773277e-07 0.0000000000000000e+00  -1.2507242824696225e-06 4.0361289850107264e-07 0.0000000000000000e+00  -1.6804557543671086e-06 4.7133930601749081e-07 0.0000000000000000e+00  -2.3291783591188332e-06 5.2661620152747428e-07 0.0000000000000000e+00  -3.3899054822322011e-06 5.2371678919658997e-07 0.0000000000000000e+00  -5.3310393310840332e-06 3.1779122146456477e-07 0.0000000000000000e+00  -9.4629012249578103e-06 -5.7765140483768033e-07 0.0000000000000000e+00  -2.0021317014282521e-05 -3.9300773597682068e-06 0.0000000000000000e+00  0.0000000000000000e+00 0.0000000000000000e+00 0.0000000000000000e+00  0.0000000000000000e+00 0.0000000000000000e+00 0.0000000000000000e+00  0.0000000000000000e+00 0.0000000000000000e+00 0.0000000000000000e+00  0.0000000000000000e+00 0.0000000000000000e+00 0.0000000000000000e+00  0.0000000000000000e+00 0.0000000000000000e+00 0.0000000000000000e+00  0.0000000000000000e+00 0.0000000000000000e+00 0.0000000000000000e+00  0.0000000000000000e+00 0.0000000000000000e+00 0.0000000000000000e+00  0.0000000000000000e+00 0.0000000000000000e+00 0.0000000000000000e+00  0.0000000000000000e+00 0.0000000000000000e+00 0.00