<?xml version="1.0"?>
<VTKFile type="UnstructuredGrid"  version="0.1"  >
<UnstructuredGrid>
<Piece  NumberOfPoints="289" NumberOfCells="512">
<Points>
<DataArray  type="Float64"  NumberOfComponents="3"  format="ascii">0 0 0  0.0625 0 0  0.125 0 0  0.1875 0 0  0.25 0 0  0.3125 0 0  0.375 0 0  0.4375 0 0  0.5 0 0  0.5625 0 0  0.625 0 0  0.6875 0 0  0.75 0 0  0.8125 0 0  0.875 0 0  0.9375 0 0  1 0 0  0 0.0625 0  0.06250181860472452 0.06249840117742628 0  0.1250036911827107 0.06249673098882084 0  0.1875056716872877 0.06249491338800126 0  0.2500078141585763 0.06249286230771343 0  0.3125101723492933 0.06249047474894593 0  0.3750127988528399 0.06248762088611738 0  0.4375157435613878 0.06248412860542937 0  0.5000190512875823 0.06247975736272218 0  0.5625227583871585 0.06247415045480468 0  0.62502688816789 0.06246674062236598 0  0.6875314445687912 0.0624565463645578 0  0.7500364024053701 0.06244168798777613 0  0.8125416883332807 0.06241811057752607 0  0.8750471328163232 0.06237582581904789 0  0.9375523283319553 0.06228661104837248 0  1.000056198278985 0.06205963585543735 0  0 0.125 0  0.06250358332567339 0.1249968735465455 0  0.125007274458896 0.1249936090040184 0  0.1875111813479341 0.1249900595940791 0  0.2500154124418906 0.1249860600469028 0  0.3125200761144191 0.1249814141933688 0  0.3750252790941171 0.124975877744567 0  0.4375311235509348 0.1249691324593439 0  0.5000377025093775 0.1249607447253442 0  0.5625450933212476 0.1249500951069634 0  0.6250533490239982 0.1249362520193737 0  0.6875624874538528 0.1249177350158358 0  0.7500724777127663 0.1248920589279177 0  0.8125832223054023 0.1248548651905416 0  0.875094529080948 0.1247984501779632 0  0.937606053715515 0.1247105420660597 0  1.000117143877104 0.1245819649109988 0  0 0.1875 0  0.06250524046390546 0.1874954838336211 0  0.1250106421380749 0.187490771501428 0  0.1875163668892625 0.187485655275078 0  0.2500225781486814 0.1874799030451587 0  0.3125294404808684 0.1874732426299356 0  0.3750371176702083 0.1874653410173388 0  0.4375457687707954 0.1874557751196992 0  0.5000555415887037 0.1874439885002425 0  0.5625665631963007 0.1874292250062423 0  0.6250789273992171 0.1874104250005311 0  0.6875926797244557 0.1873860644391171 0  0.7501078018127469 0.1873539212599477 0  0.8126242003247035 0.1873108076345736 0  0.8751417158611596 0.1872525435482123 0  0.9376602078542559 0.1871752050368054 0  1.000179943165674 0.1870802385186703 0  0 0.25 0  0.06250673671381764 0.2499942901150703 0  0.1250136869989747 0.2499883375039637 0  0.1875210661136177 0.2499818862910725 0  0.2500290929007675 0.2499746531753351 0  0.3125379900329324 0.2499663106609941 0  0.3750479823131908 0.2499564661742187 0  0.4375592922267882 0.2499446349358888 0  0.5000721319050646 0.249930203889247 0  0.5625866907800017 0.249912383728461 0  0.6251031186195756 0.2498901474873394 0  0.6876215045454807 0.2498621611346567 0  0.7501418542890567 0.2498267342511444 0  0.8126640704673953 0.2497818792331357 0  0.8751879430412591 0.2497256993817658 0  0.9377131506850861 0.2496575162827971 0  1.000239204087422 0.2495800212342573 0  0 0.3125 0  0.06250801975960806 0.312493338948401 0  0.1250163033362802 0.3124864017135288 0  0.1875251179081848 0.3124788985338386 0  0.2500347374853545 0.3124705116441656 0  0.3125454445533016 0.3124608790623465 0  0.3750575293994496 0.3124495757042595 0  0.4375712860129713 0.3124360910709313 0  0.5000870032652581 0.3124198033322284 0  0.562604950033504 0.3123999513124631 0  0.6251253532262439 0.3123756100649764 0  0.6876483685943875 0.31234568511302 0  0.7501740460594327 0.3123089594240504 0  0.8127022940919243 0.3122642599912986 0  0.8752328505732639 0.3122108506734227 0  0.9377652683495851 0.3121491522664183 0  1.000298925066078 0.3120816846002144 0  0 0.375 0  0.06250903934160595 0.3749926637866903 0  0.125018388970815 0.374985031468167 0  0.1875283649291995 0.3749767938055614 0  0.25003929475079 0.3749676147428235 0  0.3125515214155568 0.3749571166438176 0  0.3750654048159953 0.3749448641579585 0  0.4375813193070402 0.3749303468953847 0  0.5000996454543807 0.3749129621676105 0  0.5626207536864254 0.3748920012705156 0  0.6251449774448744 0.3748666470425498 0  0.6876725740620888 0.3748359978510766 0  0.750203673588435 0.3747991442940354 0  0.81273821970306 0.3747553368980492 0  0.8752759124958776 0.3747042827904189 0  0.9378161683403285 0.3746465622297334 0  1.000358112564596 0.3745840049977204 0  0 0.4375 0  0.06250974891620371 0.4374922845478788 0  0.125019848494289 0.4374842661645435 0  0.1875306582443217 0.4374756297959851 0  0.2500425552717188 0.4374660358192659 0  0.3125559415932112 0.4374551070285123 0  0.3750712491792303 0.4374424150670296 0  0.4375889410486336 0.4374274668342785 0  0.5001095058941877 0.4374096924142019 0  0.5626334426863153 0.4373884379484205 0  0.6251612307364516 0.4373629700865125 0  0.6876932804146596 0.4373325035501738 0  0.7502298612883176 0.4372962694643543 0  0.812771009629576 0.4372536463617011 0  0.8753164276436779 0.4372043696507195 0  0.9378654016890745 0.437148803513201 0  1.000416779455083 0.4370881900206747 0  0 0.5 0  0.06251010798507405 0.4999922080546231 0  0.1250205979364656 0.4999841184437832 0  0.1875318643087281 0.4999754227169028 0  0.2500443264632208 0.4999657906600312 0  0.3125584404200024 0.4999548590166824 0  0.3750747091564245 0.4999422199548446 0  0.4375936897789827 0.4999274096590013 0  0.5001159945945137 0.499909898028753 0  0.56264228120472 0.4998890815294244 0  0.625173224305538 0.4998642830401652 0  0.6877094594757118 0.4998347654165187 0  0.7502514886240785 0.4997997696401867 0  0.8127995415987265 0.4997585933951674 0  0.8753534043696127 0.4997107292268534 0  0.9379122554709038 0.4996560764634656 0  1.000474591333132 0.4995952148798712 0  0 0.5625 0  0.06251008508463431 0.562492429038505 0  0.1250205708835959 0.5624845764381377 0  0.1875318744458185 0.5624761512956767 0  0.2500444456360473 0.5624668440474272 0  0.3125587841867951 0.562456316870759 0  0.3750754569333044 0.5624441938041291 0  0.4375951140482167 0.5624300505413521 0  0.5001185014530732 0.5624134038583456 0  0.5626464637470761 0.5623937006069095 0  0.6251799274833941 0.5623703062661392 0  0.6877198483664823 0.5623424936616753 0  0.750267099459919 0.5623094351154797 0  0.8128222763536926 0.5622702094046059 0  0.8753854124144687 0.5622238542987933 0  0.9379556526978711 0.5621695303244557 0  1.000531036000454 0.562106897832903 0  0 0.625 0  0.06250966129487567 0.6249929314705169 0  0.1250197258136045 0.6249856065746572 0  0.1875306166193464 0.6249777613120081 0  0.250042797025336 0.6249691163293686 0  0.3125567932462271 0.6249593690686038 0  0.3750732197594795 0.624948185580297 0  0.4375928074385718 0.624935191559433 0  0.5001164329861711 0.624919961565521 0  0.5626451448995976 0.6249020041721813 0  0.6251801746908225 0.6248807386156281 0  0.6877229104328231 0.6248554553980368 0  0.750274791757567 0.6248252509977336 0  0.8128370653366949 0.6247889322672988 0  0.8754103384274045 0.6247449173864289 0  0.9379939407310146 0.6246912490748736 0  1.000585338809943 0.6246259973335652 0  0 0.6875 0  0.06250883394743802 0.6874936900754633 0  0.1250180540349283 0.6874871566767627 0  0.1875280686751189 0.6874801703792611 0  0.2500393319718469 0.687472489853284 0  0.3125523712595749 0.6874638559404355 0  0.3750678205355055 0.6874539856001685 0  0.4375864619761189 0.6874425652203132 0  0.5001092771843011 0.6874292418823396 0  0.5626375075119816 0.6874136090947095 0  0.6251727162165491 0.6873951790734486 0  0.6877168293054058 0.6873733250356655 0  0.7502720983229355 0.6873471627409726 0  0.8128408684415699 0.6873153250636117 0  0.8754249597755274 0.6872755948438272 0  0.9380244730076187 0.6872244891889469 0  1.000636213675602 0.687157282254525 0  0 0.75 0  0.0625076200064445 0.7499946719579014 0  0.1250155871530439 0.7499891592719524 0  0.1875242714118729 0.7499832729987331 0  0.2500340901263773 0.749976815715281 0  0.3125455383091925 0.7499695776626534 0  0.3750592279571581 0.749961333326118 0  0.4375759413154068 0.7499518384239408 0  0.5000967046170572 0.749940826698952 0  0.5626228900540216 0.749928004151911 0  0.6251563521095653 0.7499130334790272 0  0.6876995926001674 0.7498954887763623 0  0.7502559080534826 0.7498747299375408 0  0.8128293624029725 0.7498495814816842 0  0.8754241841904618 0.7498176022520425 0  0.938042821549569 0.7497737497228153 0  1.000681960173573 0.7497091167843384 0  0 0.8125 0  0.0625060584125998 0.8124958382840126 0  0.1250124025411217 0.8124915350413556 0  0.1875193389470154 0.8124869459393523 0  0.2500272178977953 0.812481921275963 0  0.3125364627483035 0.8124763040544553 0  0.3750476102063751 0.8124699292183249 0  0.437561368820973 0.8124626249161351 0  0.5000787074713042 0.8124542171727479 0  0.56260099289203 0.8124445398566627 0  0.6251302059328412 0.8124334512193295 0  0.6876692774086161 0.8124208516037797 0  0.7502225775560053 0.812406665924004 0  0.8127964945271458 0.812390639747437 0  0.875399611946185 0.8123714389119077 0  0.9380406981827669 0.8123437029175382 0  1.000720505538362 0.8122915327054611 0  0 0.875 0  0.06250421060342329 0.8749971459336996 0  0.1250086250411595 0.8749941962487209 0  0.1875134631842883 0.8749910537369118 0  0.2500189788187367 0.8749876182983662 0  0.3125254833417465 0.8749837864028676 0  0.375033379633293 0.8749794521011915 0  0.4375432139795673 0.8749745111783201 0  0.5000557602614999 0.8749688718023421 0  0.562572163317885 0.8749624789437923 0  0.6250941942723571 0.8749553684457213 0  0.6876247232818773 0.8749477842786365 0  0.7501686162502925 0.8749404207719313 0  0.8127344113673036 0.8749348473797582 0  0.8753370673912225 0.8749337894554269 0  0.9379998489377775 0.8749380784694312 0  1.000737641450352 0.8749202038865326 0  0 0.9375 0  0.06250215854547853 0.9374985489978153 0  0.1250044233060445 0.9374970498550046 0  0.1875069092470646 0.9374954537435779 0  0.2500097499456576 0.937493710658498 0  0.3125131109227482 0.9374917694604895 0  0.3750172092288734 0.9374895790608493 0  0.4375223445629247 0.9374870920936743 0 
[...]
<PointData  Vectors="f_54"> 
<DataArray  type="Float64"  Name="f_54"  NumberOfComponents="3" format="ascii">0.0000000000000000e+00 0.0000000000000000e+00 0.0000000000000000e+00  0.0000000000000000e+00 0.0000000000000000e+00 0.0000000000000000e+00  0.0000000000000000e+00 0.0000000000000000e+00 0.0000000000000000e+00  0.0000000000000000e+00 0.0000000000000000e+00 0.0000000000000000e+00  0.0000000000000000e+00 0.0000000000000000e+00 0.0000000000000000e+00  0.0000000000000000e+00 0.0000000000000000e+00 0.0000000000000000e+00  0.0000000000000000e+00 0.0000000000000000e+00 0.0000000000000000e+00  0.0000000000000000e+00 0.0000000000000000e+00 0.0000000000000000e+00  0.0000000000000000e+00 0.0000000000000000e+00 0.0000000000000000e+00  0.0000000000000000e+00 0.0000000000000000e+00 0.0000000000000000e+00  0.0000000000000000e+00 0.0000000000000000e+00 0.0000000000000000e+00  0.0000000000000000e+00 0.0000000000000000e+00 0.0000000000000000e+00  0.0000000000000000e+00 0.0000000000000000e+00 0.0000000000000000e+00  0.0000000000000000e+00 0.0000000000000000e+00 0.0000000000000000e+00  0.0000000000000000e+00 0.0000000000000000e+00 0.0000000000000000e+00  0.0000000000000000e+00 0.0000000000000000e+00 0.0000000000000000e+00  0.0000000000000000e+00 0.0000000000000000e+00 0.0000000000000000e+00  0.0000000000000000e+00 0.0000000000000000e+00 0.0000000000000000e+00  3.5677280894340901e-08 -5.1503778900755150e-08 0.0000000000000000e+00  7.2412823652950019e-08 -1.0527648108740064e-07 0.0000000000000000e+00  1.1126917193158878e-07 -1.6373608245135046e-07 0.0000000000000000e+00  1.5331085190330720e-07 -2.2961538646135400e-07 0.0000000000000000e+00  1.9959725328974078e-07 -3.0618008741619081e-07 0.0000000000000000e+00  2.5116528704030780e-07 -3.9754196987722580e-07 0.0000000000000000e+00  3.0899783838816314e-07 -5.0914982534033162e-07 0.0000000000000000e+00  3.7397336973497906e-07 -6.4862188864898798e-07 0.0000000000000000e+00  4.4679036523358129e-07 -8.2727046892131109e-07 0.0000000000000000e+00  5.2785547142944750e-07 -1.0631310308958252e-06 0.0000000000000000e+00  6.1711045502055559e-07 -1.3875467965890769e-06 0.0000000000000000e+00  7.1373810089275777e-07 -1.8609983676715065e-06 0.0000000000000000e+00  8.1561775576714398e-07 -2.6155818259681443e-06 0.0000000000000000e+00  9.1838083254671138e-07 -3.9827208133607513e-06 0.0000000000000000e+00  1.0148539512897653e-06 -6.9216042991565380e-06 0.0000000000000000e+00  1.1039507469473102e-06 -1.4606769147963170e-05 0.0000000000000000e+00  0.0000000000000000e+00 0.0000000000000000e+00 0.0000000000000000e+00  7.0296596135505711e-08 -1.0073914250434815e-07 0.0000000000000000e+00  1.4270744412828309e-07 -2.0587014379347131e-07 0.0000000000000000e+00  2.1935838760082718e-07 -3.2006119479019059e-07 0.0000000000000000e+00  3.0238586899617363e-07 -4.4856062117316934e-07 0.0000000000000000e+00  3.9392630263701898e-07 -5.9758774247113530e-07 0.0000000000000000e+00  4.9608535670216091e-07 -7.7487694243507094e-07 0.0000000000000000e+00  6.1087945875172149e-07 -9.9049615454228289e-07 0.0000000000000000e+00  7.4014120507216073e-07 -1.2581619594974475e-06 0.0000000000000000e+00  8.8537917791857524e-07 -1.5974785706358964e-06 0.0000000000000000e+00  1.0475786511930592e-06 -2.0379498941331942e-06 0.0000000000000000e+00  1.2269143777126916e-06 -2.6264740159259252e-06 0.0000000000000000e+00  1.4222893119785441e-06 -3.4416538512477449e-06 0.0000000000000000e+00  1.6303901706895971e-06 -4.6204318324577799e-06 0.0000000000000000e+00  1.8430101727874129e-06 -6.3996703292724619e-06 0.0000000000000000e+00  2.0370559636424164e-06 -9.1274568770913140e-06 0.0000000000000000e+00  2.1303337008734235e-06 -1.2872838697675123e-05 0.0000000000000000e+00  0.0000000000000000e+00 0.0000000000000000e+00 0.0000000000000000e+00  1.0280039257624698e-07 -1.4558109548040542e-07 0.0000000000000000e+00  2.0876297490458202e-07 -2.9740584662874147e-07 0.0000000000000000e+00  3.2107477415655065e-07 -4.6208474755308597e-07 0.0000000000000000e+00  4.4295502622888535e-07 -6.4699157668808631e-07 0.0000000000000000e+00  5.7764813988280253e-07 -8.6075634823693494e-07 0.0000000000000000e+00  7.2838726025531938e-07 -1.1139192989841847e-06 0.0000000000000000e+00  8.9831707707995816e-07 -1.4198551855088010e-06 0.0000000000000000e+00  1.0903643937178395e-06 -1.7961446065723470e-06 0.0000000000000000e+00  1.3070465622417121e-06 -2.2666798926868134e-06 0.0000000000000000e+00  1.5502130381150769e-06 -2.8649546756332648e-06 0.0000000000000000e+00  1.8207290957610794e-06 -3.6391437540222441e-06 0.0000000000000000e+00  2.1181540585786725e-06 -4.6594087817063249e-06 0.0000000000000000e+00  2.4406392242087207e-06 -6.0261072967192335e-06 0.0000000000000000e+00  2.7860712612599795e-06 -7.8704012767401594e-06 0.0000000000000000e+00  3.1594482814221332e-06 -1.0318619348183627e-05 0.0000000000000000e+00  3.6117172211612812e-06 -1.3371749045569892e-05 0.0000000000000000e+00  0.0000000000000000e+00 0.0000000000000000e+00 0.0000000000000000e+00  1.3213962561588529e-07 -1.8417660467694779e-07 0.0000000000000000e+00  2.6846917057810033e-07 -3.7608835146344892e-07 0.0000000000000000e+00  4.1322524974186414e-07 -5.8388615740155768e-07 0.0000000000000000e+00  5.7071716679486811e-07 -8.1657708999499049e-07 0.0000000000000000e+00  7.4533398742349533e-07 -1.0845489939132433e-06 0.0000000000000000e+00  9.4151370242637505e-07 -1.4002253380574140e-06 0.0000000000000000e+00  1.1636587403082135e-06 -1.7789189639778785e-06 0.0000000000000000e+00  1.4159814347262965e-06 -2.2399726860857955e-06 0.0000000000000000e+00  1.7022655552247552e-06 -2.8082839846842156e-06 0.0000000000000000e+00  2.0255392483621523e-06 -3.5162671238945421e-06 0.0000000000000000e+00  2.3876767700034214e-06 -4.4060850747583349e-06 0.0000000000000000e+00  2.7889906958227978e-06 -5.5312730556801311e-06 0.0000000000000000e+00  3.2279482689182293e-06 -6.9550119136501171e-06 0.0000000000000000e+00  3.7011609097821242e-06 -8.7383497234103315e-06 0.0000000000000000e+00  4.2029442808510815e-06 -1.0906176745813003e-05 0.0000000000000000e+00  4.7163552543410773e-06 -1.3381088765244888e-05 0.0000000000000000e+00  0.0000000000000000e+00 0.0000000000000000e+00 0.0000000000000000e+00  1.5728607402465475e-07 -2.1503394096588897e-07 0.0000000000000000e+00  3.1974822657243764e-07 -4.3888559893036447e-07 0.0000000000000000e+00  4.9264193181763679e-07 -6.8080017627384142e-07 0.0000000000000000e+00  6.8135972413060333e-07 -9.5089417678032796e-07 0.0000000000000000e+00  8.9146637830088618e-07 -1.2606595074141509e-06 0.0000000000000000e+00  1.1286893719236019e-06 -1.6235506759404746e-06 0.0000000000000000e+00  1.3988434097127912e-06 -2.0556802768234690e-06 0.0000000000000000e+00  1.7076645252273389e-06 -2.5766319337847935e-06 0.0000000000000000e+00  2.0605291175248945e-06 -3.2103507735327022e-06 0.0000000000000000e+00  2.4620405807494142e-06 -3.9859457225091336e-06 0.0000000000000000e+00  2.9154870873963192e-06 -4.9379503925460894e-06 0.0000000000000000e+00  3.4222142289904669e-06 -6.1050010579997139e-06 0.0000000000000000e+00  3.9810119082262231e-06 -7.5248622527621742e-06 0.0000000000000000e+00  4.5876546539709054e-06 -9.2224347770962876e-06 0.0000000000000000e+00  5.2347367720832337e-06 -1.1187218483166493e-05 0.0000000000000000e+00  5.9127283377347748e-06 -1.3341524254983134e-05 0.0000000000000000e+00  0.0000000000000000e+00 0.0000000000000000e+00 0.0000000000000000e+00  1.7725378544477684e-07 -2.3707127354177721e-07 0.0000000000000000e+00  3.6059536315611405e-07 -4.8362152932348291e-07 0.0000000000000000e+00  5.5623683943723383e-07 -7.4954136640199644e-07 0.0000000000000000e+00  7.7061904225369211e-07 -1.0455533737959653e-06 0.0000000000000000e+00  1.0104922126224496e-06 -1.3836673427667877e-06 0.0000000000000000e+00  1.2829489446096896e-06 -1.7776747452401003e-06 0.0000000000000000e+00  1.5953821176646823e-06 -2.2436769189106457e-06 0.0000000000000000e+00  1.9553321237787815e-06 -2.8006103583847126e-06 0.0000000000000000e+00  2.3701805332943857e-06 -3.4706685459503991e-06 0.0000000000000000e+00  2.8466466083497324e-06 -4.2793969236257617e-06 0.0000000000000000e+00  3.3900573191691171e-06 -5.2550220992201255e-06 0.0000000000000000e+00  4.0034013886370171e-06 -6.4262490154640665e-06 0.0000000000000000e+00  4.6862489633501752e-06 -7.8173963690958093e-06 0.0000000000000000e+00  5.4337042576665131e-06 -9.4397132912351970e-06 0.0000000000000000e+00  6.2355945173267027e-06 -1.1279049228392401e-05 0.0000000000000000e+00  7.0758945434547090e-06 -1.3284676413460862e-05 0.0000000000000000e+00  0.0000000000000000e+00 0.0000000000000000e+00 0.0000000000000000e+00  1.9113194506661626e-07 -2.4962890499090270e-07 0.0000000000000000e+00  3.8914319863966966e-07 -5.0899105349895954e-07 0.0000000000000000e+00  6.0109437433759734e-07 -7.8819855384200292e-07 0.0000000000000000e+00  8.3439416276788969e-07 -1.0981255927564254e-06 0.0000000000000000e+00  1.0969455706256780e-06 -1.4508063283395143e-06 0.0000000000000000e+00  1.3972485538415683e-06 -1.8598422938405641e-06 0.0000000000000000e+00  1.7444269679370262e-06 -2.3407999399741345e-06 0.0000000000000000e+00  2.1481316280089076e-06 -2.9115487927244355e-06 0.0000000000000000e+00  2.6182519872334973e-06 -3.5924377148222258e-06 0.0000000000000000e+00  3.1643516691998782e-06 -4.4061205437117462e-06 0.0000000000000000e+00  3.7947401500240541e-06 -5.3767179328613096e-06 0.0000000000000000e+00  4.5151270690265630e-06 -6.5278601639722585e-06 0.0000000000000000e+00  5.3269087054218083e-06 -7.8790857989610758e-06 0.0000000000000000e+00  6.2253319098242138e-06 -9.4402954934831448e-06 0.0000000000000000e+00  7.1980394793576284e-06 -1.1204842452335304e-05 0.0000000000000000e+00  8.2246769088435710e-06 -1.3143563910628844e-05 0.0000000000000000e+00  0.0000000000000000e+00 0.0000000000000000e+00 0.0000000000000000e+00  1.9813052625698899e-07 -2.5245469033000243e-07 0.0000000000000000e+00  4.0375330159400193e-07 -5.1452047473219746e-07 0.0000000000000000e+00  6.2460837512701959e-07 -7.9614639389681290e-07 0.0000000000000000e+00  8.6892635081352764e-07 -1.1079610427142751e-06 0.0000000000000000e+00  1.1456606459330669e-06 -1.4616164596309303e-06 0.0000000000000000e+00  1.4646918568613116e-06 -1.8701278917697655e-06 0.0000000000000000e+00  1.8369718487917525e-06 -2.3481902391778579e-06 0.0000000000000000e+00  2.2745499884139332e-06 -2.9124314939719970e-06 0.0000000000000000e+00  2.7903873850705772e-06 -3.5815317981304349e-06 0.0000000000000000e+00  3.3978189256208106e-06 -4.3760920709869685e-06 0.0000000000000000e+00  4.1094800911827373e-06 -5.3180821569519660e-06 0.0000000000000000e+00  4.9355124394097136e-06 -6.4296522219667973e-06 0.0000000000000000e+00  5.8809728971468056e-06 -7.7310935593577312e-06 0.0000000000000000e+00  6.9427070587054290e-06 -9.2378495216762138e-06 0.0000000000000000e+00  8.1065726045884598e-06 -1.0956730669768767e-05 0.0000000000000000e+00  9.3466084308213347e-06 -1.2881645859573463e-05 0.0000000000000000e+00  0.0000000000000000e+00 0.0000000000000000e+00 0.0000000000000000e+00  1.9763847772517357e-07 -2.4567310973387364e-07 0.0000000000000000e+00  4.0313532528355913e-07 -5.0049727061404527e-07 0.0000000000000000e+00  6.2466677583164987e-07 -7.7391787918446871e-07 0.0000000000000000e+00  8.7105342263207190e-07 -1.0759747411759058e-06 0.0000000000000000e+00  1.1520950690329288e-06 -1.4175989076547808e-06 0.0000000000000000e+00  1.4789091797303401e-06 -1.8109040563505308e-06 0.0000000000000000e+00  1.8642496074961622e-06 -2.2694615394614949e-06 0.0000000000000000e+00  2.3227499735770892e-06 -2.8085403902771734e-06 0.0000000000000000e+00  2.8709804406005560e-06 -3.4452849117419982e-06 0.0000000000000000e+00  3.5271189738773827e-06 -4.1987956447305212e-06 0.0000000000000000e+00  4.3099192447904655e-06 -5.0900788953947834e-06 0.0000000000000000e+00  5.2365424378713465e-06 -6.1418390291905200e-06 0.0000000000000000e+00  6.3188303297070436e-06 -7.3780997309705153e-06 0.0000000000000000e+00  7.5580038898250689e-06 -8.8236193016482819e-06 0.0000000000000000e+00  8.9389710726412670e-06 -1.0502924136473731e-05 0.0000000000000000e+00  1.0427482085167551e-05 -1.2438420387311916e-05 0.0000000000000000e+00  0.0000000000000000e+00 0.0000000000000000e+00 0.0000000000000000e+00  1.8929170536539565e-07 -2.2974641078252866e-07 0.0000000000000000e+00  3.8648916361198675e-07 -4.6788726201899817e-07 0.0000000000000000e+00  5.9987973609464327e-07 -7.2306754719621976e-07 0.0000000000000000e+00  8.3853955388218684e-07 -1.0044421398635295e-06 0.0000000000000000e+00  1.1127767932361441e-06 -1.3219306260993668e-06 0.0000000000000000e+00  1.4346275218853671e-06 -1.6864712475709242e-06 0.0000000000000000e+00  1.8184046110067880e-06 -2.1102732984834841e-06 0.0000000000000000e+00  2.2812693559233836e-06 -2.6070710328916050e-06 0.0000000000000000e+00  2.8437293823172859e-06 -3.1923937696244847e-06 0.0000000000000000e+00  3.5298365452733307e-06 -3.8838935118873704e-06 0.0000000000000000e+00  4.3666282196269440e-06 -4.7018207683438085e-06 0.0000000000000000e+00  5.3820079804673894e-06 -5.6698104715572374e-06 0.0000000000000000e+00  6.5998990309116965e-06 -6.8161980787656111e-06 0.0000000000000000e+00  8.0315864810390498e-06 -8.1760164139842983e-06 0.0000000000000000e+00  9.6638742379684970e-06 -9.7933918063881853e-06 0.0000000000000000e+00  1.1449765645285796e-05 -1.1722901586634408e-05 0.0000000000000000e+00  0.0000000000000000e+00 0.0000000000000000e+00 0.0000000000000000e+00  1.7304468848675066e-07 -2.0543298033537014e-07 0.0000000000000000e+00  3.5365835916015623e-07 -4.1824919255550635e-07 0.0000000000000000e+00  5.4983556573307765e-07 -6.4603903245846576e-07 0.0000000000000000e+00  7.7046518735177247e-07 -8.9681831494458486e-07 0.0000000000000000e+00  1.0258685062219943e-06 -1.1792421516767821e-06 0.0000000000000000e+00  1.3284519670039237e-06 -1.5028221993993148e-06 0.0000000000000000e+00  1.6935165883063468e-06 -1.8781534282020965e-06 0.0000000000000000e+00  2.1402540885618420e-06 -2.3171672778704371e-06 0.0000000000000000e+00  2.6929118491051187e-06 -2.8334528892989304e-06 0.0000000000000000e+00  3.3819733675111446e-06 -3.4427404138318550e-06 0.0000000000000000e+00  4.2448759308672173e-06 -4.1637406842003972e-06 0.0000000000000000e+00  5.3251058090518963e-06 -5.0197039688740308e-06 0.0000000000000000e+00  6.6673157141192416e-06 -6.0412801165646241e-06 0.0000000000000000e+00  8.3046864426772080e-06 -7.2713798221199503e-06 0.0000000000000000e+00  1.0235228149779220e-05 -8.7723745186064520e-06 0.0000000000000000e+00  1.2392638510515273e-05 -1.0635236568316173e-05 0.0000000000000000e+00  0.0000000000000000e+00 0.0000000000000000e+00 0.0000000000000000e+00  1.4923559950384889e-07 -1.7374514422037922e-07 0.0000000000000000e+00  3.0527408410022557e-07 -3.5364997962334523e-07 0.0000000000000000e+00  4.7535302029428167e-07 -5.4603831628885255e-07 0.0000000000000000e+00  6.6763655487336986e-07 -7.5757376056334399e-07 0.0000000000000000e+00  8.9180708943325054e-07 -9.9543068213480355e-07 0.0000000000000000e+00  1.1598330524511290e-06 -1.2674687336115939e-06 0.0000000000000000e+00  1.4870087855776967e-06 -1.5824172576305596e-06 0.0000000000000000e+00  1.8933929791971662e-06 -1.9500861510026462e-06 0.0000000000000000e+00  2.4057936785078230e-06 -2.3816443470160680e-06 0.0000000000000000e+00  3.0604085786184564e-06 -2.8900645836893019e-06 0.0000000000000000e+00  3.9059767305694633e-06 -3.4909640962918171e-06 0.0000000000000000e+00  5.0064402637740035e-06 -4.2043535811762676e-06 0.0000000000000000e+00  6.4398006755017871e-06 -5.0583414845083998e-06 0.0000000000000000e+00  8.2848030766354742e-06 -6.0965243534574644e-06 0.0000000000000000e+00  1.0579767274522070e-05 -7.3903991096815520e-06 0.0000000000000000e+00  1.3240879777430667e-05 -9.0534948189677939e-06 0.0000000000000000e+00  0.0000000000000000e+00 0.0000000000000000e+00 0.0000000000000000e+00  1.1863123810703716e-07 -1.3590676531166638e-07 0.0000000000000000e+00  2.4286029690749517e-07 -2.7658010764620278e-07 0.0000000000000000e+00  3.7868111449349857e-07 -4.2690814295853730e-07 0.0000000000000000e+00  5.3294215842224555e-07 -5.9203205607983670e-07 0.0000000000000000e+00  7.1392019375495553e-07 -7.7747199149045644e-07 0.0000000000000000e+00  9.3210721887028799e-07 -9.8925265738620753e-07 0.0000000000000000e+00  1.2013546008945654e-06 -1.2340290049150799e-06 0.0000000000000000e+00  1.5406060014892191e-06 -1.5192139192792839e-06 0.0000000000000000e+00  1.9765936879714493e-06 -1.8531156747761918e-06 0.0000000000000000e+00  2.5480816553588170e-06 -2.2451150598159189e-06 0.0000000000000000e+00  3.3124494323359121e-06 -2.7059953985657935e-06 0.0000000000000000e+00  4.3552275446030555e-06 -3.2488349715849241e-06 0.0000000000000000e+00  5.8010460232781104e-06 -3.8918228042222859e-06 0.0000000000000000e+00  7.8153124573144018e-06 -4.6668371187997593e-06 0.0000000000000000e+00  1.0558239238998086e-05 -5.6403896864363722e-06 0.0000000000000000e+00  1.4007406656802804e-05 -6.9269458964570227e-06 0.0000000000000000e+00  0.0000000000000000e+00 0.0000000000000000e+00 0.0000000000000000e+00  8.2436542498786116e-08 -9.3310453648082228e-08 0.0000000000000000e+00  1.6886569800830554e-07 -1.8986794605700739e-07 0.0000000000000000e+00  2.6358450818472187e-07 -2.9299938462499208e-07 0.0000000000000000e+00  3.7155285722737620e-07 -4.0619842207492448e-07 0.0000000000000000e+00  4.9885622549146824e-07 -5.3320646417943142e-07 0.0000000000000000e+00  6.5336806674504579e-07 -6.7808917692045242e-07 0.0000000000000000e+00  8.4576710677678609e-07 -8.4530177026473988e-07 0.0000000000000000e+00  1.0911909745562350e-06 -1.0397261812276638e-06 0.0000000000000000e+00  1.4120615603576369e-06 -1.2666382728322249e-06 0.0000000000000000e+00  1.8431381574374987e-06 -1.5315052588246076e-06 0.0000000000000000e+00  2.4409206431641277e-06 -1.8393976599216644e-06 0.0000000000000000e+00  3.3015830653643687e-06 -2.1936673383886629e-06 0.0000000000000000e+00  4.5946532353134252e-06 -2.5940323218766972e-06 0.0000000000000000e+00  6.6180248180885184e-06 -3.0396836790680452e-06 0.0000000000000000e+00  9.8309836690601863e-06 -3.5785733544505699e-06 0.0000000000000000e+00  1.4480557826533761e-05 -4.6411715584797443e-06 0.0000000000000000e+00  0.0000000000000000e+00 0.0000000000000000e+00 0.0000000000000000e+00  4.2255780592975011e-08 -4.7474490785024408e-08 0.0000000000000000e+00  8.6591541174222304e-08 -9.6593056582910659e-08 0.0000000000000000e+00  1.3525324949240810e-07 -1.4903921875443479e-07 0.0000000000000000e+00  1.9085043968997427e-07 -2.0657889121118854e-07 0.0000000000000000e+00  2.5661647603610399e-07 -2.7109936769976067e-07 0.0000000000000000e+00  3.3679154644081356e-07 -3.4464366145822522e-07 0.0000000000000000e+00  4.3723260399982109e-07 -4.2943259217179409e-07 0.0000000000000000e+00  5.6645407602082447e-07 -5.2785386231350223e-07 0.0000000000000000e+00  7.3752984297648433e-07 -6.4235965568851831e-07 0.0000000000000000e+00  9.7184163289166903e-07 -7.7510161104341533e-07 0.0000000000000000e+00  1.3071351818731887e-06 -9.2677661551376174e-07 0.0000000000000000e+00  1.8166488590812963e-06 -1.0929614179769882e-06 0.0000000000000000e+00  2.6598494450617449e-06 -1.2519034925054769e-06 0.0000000000000000e+00  4.2335806679687133e-06 -1.3210693291253219e-06 0.0000000000000000e+00  7.6772715504771825e-06 -9.9075820233364215e-07 0.0000000000000000e+00  1.6762206525841991e-05 9.6420531662375488e-07 0.0000000000000000e+00  0.0000000000000000e+00 0.0000000000000000e+00 0.0000000000000000e+00  0.0000000000000000e+00 0.0000000000000000e+00 0.0000000000000000e+00  0.0000000000000000e+00 0.0000000000000000e+00 0.0000000000000000e+00  0.0000000000000000e+00 0.0000000000000000e+00 0.0000000000000000e+00  0.0000000000000000e+00 0.0000000000000000e+00 0.0000000000000000e+00  0.0000000000000000e+00 0.0000000000000000e+00 0.0000000000000000e+00  0.0000000000000000e+00 0.0000000000000000e+00 0.0000000000000000e+00  0.0000000000000000e+00 0.0000000000000000e+00 0.0000000000000000e+00  0.0000000000000000e+00 0.0000000000000000e+00 0.00000