<?xml version="1.0"?>
<VTKFile type="UnstructuredGrid"  version="0.1"  >
<UnstructuredGrid>
<Piece  NumberOfPoints="289" NumberOfCells="512">
<Points>
<DataArray  type="Float64"  NumberOfComponents="3"  format="ascii">0 0 0  0.0625 0 0  0.125 0 0  0.1875 0 0  0.25 0 0  0.3125 0 0  0.375 0 0  0.4375 0 0  0.5 0 0  0.5625 0 0  0.625 0 0  0.6875 0 0  0.75 0 0  0.8125 0 0  0.875 0 0  0.9375 0 0  1 0 0  0 0.0625 0  0.06249904795616172 0.06250120960531765 0  0.1249980679057043 0.06250247077670933 0  0.1874970316465178 0.06250383822724055 0  0.2499959109709554 0.06250537341442562 0  0.3124946778706408 0.0625071492136446 0  0.3749933050061235 0.0625092566517917 0  0.4374917665310842 0.06251181551037772 0  0.4999900393561768 0.06251499239270548 0  0.5624881049307295 0.0625190339360211 0  0.6249859516302549 0.06252433287544161 0  0.6874835779229932 0.06253157136206482 0  0.7499809967768765 0.06254206364169454 0  0.8124782423337782 0.06255866785659545 0  0.8749753793877195 0.06258849715557897 0  0.9374725033158399 0.06265188753690822 0  0.9999696298576142 0.06281497933862273 0  0 0.125 0  0.06249812397980731 0.125002367500064 0  0.1249961919731721 0.1250048349678074 0  0.187494147535844 0.1250075082000414 0  0.249991934037556 0.1250105054029453 0  0.3124894949827141 0.1250139655427949 0  0.3749867748619526 0.1250180599935754 0  0.4374837207196479 0.1250230101310969 0  0.4999802846113604 0.1250291157556969 0  0.5624764270940862 0.1250368037532575 0  0.6249721218560804 0.1250467157138114 0  0.6874673616463239 0.125059872256801 0  0.749962166205229 0.1250779882216025 0  0.8124565955971194 0.1251040649696761 0  0.8749507846973195 0.1251433478399243 0  0.9374450725042784 0.1252038293058063 0  0.9999405852874402 0.125289116878734 0  0 0.1875 0  0.06249725619118058 0.1875034252759116 0  0.1249944285683577 0.1875069930791502 0  0.1874914324636366 0.187510853674246 0  0.2499881824954616 0.1875151736308181 0  0.3124845928243803 0.1875201463099428 0  0.3749805782046409 0.1875260057676933 0  0.4374760561273852 0.1875330464459674 0  0.4999709503401906 0.1875416525240097 0  0.5624651959587851 0.1875523432897744 0  0.624958746211419 0.1875658445617508 0  0.6874515804772282 0.1875831999650383 0  0.7499437123760589 0.1876059329543841 0  0.8124351937864812 0.1876362340237567 0  0.8749260986329733 0.1876769933770796 0  0.9374164127718393 0.187731045466691 0  0.9999054656311189 0.1877983654642579 0  0 0.25 0  0.06249647251826758 0.2500043403673557 0  0.1249928338456478 0.250008858074832 0  0.1874889713412003 0.250013739248642 0  0.249984770609953 0.2500191883021822 0  0.3124801154150804 0.2500254390421351 0  0.3749748886379636 0.2500327684516104 0  0.4374689747201282 0.2500415145971203 0  0.499962264042404 0.2500521005444192 0  0.5624546596389761 0.2500650664162795 0  0.6249460864265705 0.2500811108641193 0  0.6874365026363705 0.2501011385843073 0  0.7499259122365693 0.2501262952606744 0  0.8124143758820502 0.2501579306453878 0  0.8749020180950657 0.2501973418947699 0  0.937389043622924 0.2502450177918737 0  0.9998758951209458 0.2502991225085623 0  0 0.3125 0  0.062495800384201 0.312505077958221 0  0.1249914632026993 0.3125103592748736 0  0.1874868485833096 0.3125160563982038 0  0.2499818132001329 0.3125224004472382 0  0.312476209459207 0.3125296518482776 0  0.3749698859379041 0.3125381125464445 0  0.4374626896790444 0.3125481402404189 0  0.4999544710462389 0.3125601647315716 0  0.5624450918809717 0.312574705415735 0  0.6249344375552598 0.3125923862394526 0  0.6874224330319263 0.3126139382467854 0  0.7499090620753407 0.3126401671022044 0  0.8123943873182887 0.3126718405434452 0  0.8748785674802014 0.3127094221967822 0  0.9373618668166419 0.3127525754055318 0  0.9998446365507916 0.3127994797858664 0  0 0.375 0  0.06249526614823644 0.3750056120303242 0  0.1249903702296862 0.3750114443384385 0  0.1874851467122564 0.3750177260766302 0  0.2499794241485738 0.3750247044021709 0  0.312473023149714 0.375032654108979 0  0.3749657557083459 0.3750418878162904 0  0.4374574266479108 0.3750527664388463 0  0.4999478382284174 0.3750657089465906 0  0.5624367991727323 0.3750811989914273 0  0.6249241394517491 0.3750997832837042 0  0.6874097318377654 0.3751220519198903 0  0.749893520158759 0.3751485837766534 0  0.8123755520462087 0.3751798322111167 0  0.8748560108236175 0.3752159257350132 0  0.9373352379961939 0.3752563875503897 0  0.9998137376862093 0.3752998793641333 0  0 0.4375 0  0.06249489423431747 0.4375059256680784 0  0.1249896050078148 0.4375120796471066 0  0.1874839439287067 0.4375186986290774 0  0.249977713449296 0.4375260361478671 0  0.312470703064415 0.4375343711376014 0  0.3749626867474182 0.4375440163714905 0  0.4374534225338885 0.4375553261592339 0  0.4999426556294109 0.4375687019456884 0  0.5624301269867947 0.4375845932103054 0  0.624915589833123 0.4376034891111754 0  0.6873988367838927 0.437625893573714 0  0.7498797392960836 0.4376522734626772 0  0.8123582983004378 0.4376829679955834 0  0.8748346990389912 0.437718052261704 0  0.9373093549806922 0.4377571661478654 0  0.9997829195249313 0.4377993563103804 0  0 0.5 0  0.06249470590640509 0.5000060108448982 0  0.1249892116554024 0.5000122496372622 0  0.1874833104453479 0.5000189521183419 0  0.2499767824236425 0.5000263696108255 0  0.3124693885338261 0.5000347767124101 0  0.374960865160237 0.5000444786043913 0  0.4374509204806522 0.5000558173331779 0  0.499939234147344 0.5000691758529077 0  0.5624254629568575 0.5000849777683839 0  0.6249092565025589 0.5001036795792764 0  0.6873902880995547 0.500125750948182 0  0.7498683065457944 0.5001516375670172 0  0.8123432114723153 0.5001817014629375 0  0.8748151460333866 0.5002161359481697 0  0.9372845833719673 0.5002548558478588 0  0.9997523628647521 0.5002973605033886 0  0 0.5625 0  0.06249471769477927 0.562505867932074 0  0.1249892251044822 0.5625119556341727 0  0.1874833034886686 0.5625184900841034 0  0.2499767168345565 0.562525712670533 0  0.3124692028880975 0.562533886308469 0  0.3749604641030206 0.5625433022571796 0  0.4374501591534359 0.5625542861964326 0  0.499937896546734 0.5625672027757812 0  0.5624232334183259 0.5625824574078507 0  0.6249056850487886 0.5626004936058346 0  0.6873847540491265 0.5626217838775815 0  0.7498599916409342 0.5626468124561379 0  0.8123311038514726 0.5626760492610049 0  0.8747981054241674 0.5627099155334009 0  0.9372614926923145 0.5627487377160837 0  0.9997223499303662 0.5627926670392963 0  0 0.625 0  0.06249493954781025 0.6250055051142029 0  0.1249896672317365 0.6250112145885335 0  0.1874839610805376 0.6250173394133429 0  0.2499775778785806 0.6250241038982923 0  0.3124702412186801 0.6250317524194922 0  0.3749616281157032 0.6250405561879327 0  0.4374513541543911 0.6250508199033951 0  0.4999389579740439 0.6250628880387368 0  0.562423887681444 0.6250771503846184 0  0.6249054953308714 0.6250940464683804 0  0.6873830519814521 0.6251140687808425 0  0.7498558056714411 0.6251377659167119 0  0.8123231155619496 0.6251657495882612 0  0.874784695649646 0.6251987140901043 0  0.9372409594598378 0.6252374760872671 0  0.9996933258477889 0.625282998060234 0  0 0.6875 0  0.06249537287904542 0.6875049378060006 0  0.124990542669588 0.687510057903592 0  0.1874852950374314 0.6875155485886344 0  0.2499793914946336 0.6875216103144949 0  0.3124725548527942 0.687528462110381 0  0.3749644515322239 0.6875363484325602 0  0.4374546695534775 0.6875455466476122 0  0.4999426913255833 0.6875563754188102 0  0.5624278615809299 0.6875692043856519 0  0.6249093543761118 0.6875844657209625 0  0.6873861517682687 0.6876026685449641 0  0.7498570652904123 0.6876244183809094 0  0.812320864585783 0.6876504482826206 0  0.8747766193257484 0.6876816835128197 0  0.9372243556659685 0.6877194028722665 0  0.9996658988988606 0.6877656152212389 0  0 0.75 0  0.06249600878871223 0.7500041880774665 0  0.1249918348692352 0.7500085303427982 0  0.1874872840619604 0.7500131862276241 0  0.2499821371299958 0.7500183258795136 0  0.3124761337684722 0.7500241360880811 0  0.3749689517840558 0.7500308270154891 0  0.4374601788228284 0.7500386402334733 0  0.4999492731317373 0.7500478588176407 0  0.5624355091424066 0.7500588205740767 0  0.6249179044791064 0.7500719357479146 0  0.6873951312990924 0.7500877104021733 0  0.7498654371208008 0.7501067753894076 0  0.8123266618693805 0.750129919118156 0  0.8747765762853755 0.7501581326414595 0  0.9372139787581129 0.7501927701771018 0  0.9996409352989166 0.7502364025810346 0  0 0.8125 0  0.06249682683481452 0.8125032840303189 0  0.1249935032235512 0.8125066888691045 0  0.1874898682753491 0.8125103395948249 0  0.2499857379836014 0.8125143700906942 0  0.3124808897062968 0.8125189281322843 0  0.3749750408530859 0.8125241814898613 0  0.4374678178610149 0.8125303257623923 0  0.4999587091437992 0.8125375950994635 0  0.5624469917489254 0.8125462776244129 0  0.6249316155559264 0.8125567381169928 0  0.6874110223763328 0.8125694504595551 0  0.7498828799444242 0.8125850378997205 0  0.8123437628414228 0.8126042984388494 0  0.8747890489637088 0.8126281244129584 0  0.9372140653037998 0.8126570728936363 0  0.9996190621126152 0.8126904296280201 0  0 0.875 0  0.06249779476836104 0.8750022590393086 0  0.124995482186803 0.8750046012062724 0  0.1874929468836826 0.8750071126730306 0  0.2499900555622461 0.8750098859369766 0  0.3124866444979695 0.8750130236105639 0  0.3749825016379694 0.8750166431718415 0  0.4374773391185263 0.8750208834306644 0  0.4999707486342291 0.875025914056034 0  0.5624621252866202 0.8750319506352567 0  0.6249505315683211 0.8750392798563142 0  0.6874344443158611 0.8750483031095764 0  0.7499112705232976 0.8750596112007589 0  0.8123764261529051 0.8750740944634046 0  0.8748217606793791 0.8750929813607675 0  0.937234148868309 0.8751169704863903 0  0.9996029717671636 0.8751394084844165 0  0 0.9375 0  0.06249886958001112 0.9375011507793954 0  0.1249976832251961 0.9375023439315717 0  0.1874963806295558 0.9375036234204698 0  0.2499948916607111 0.9375050365327652 0  0.3124931293371622 0.9375066359179313 0  0.3749909795008311 0.9375084822235892 0  0.437488284398733
[...]
<PointData  Vectors="f_54"> 
<DataArray  type="Float64"  Name="f_54"  NumberOfComponents="3" format="ascii">0.0000000000000000e+00 0.0000000000000000e+00 0.0000000000000000e+00  0.0000000000000000e+00 0.0000000000000000e+00 0.0000000000000000e+00  0.0000000000000000e+00 0.0000000000000000e+00 0.0000000000000000e+00  0.0000000000000000e+00 0.0000000000000000e+00 0.0000000000000000e+00  0.0000000000000000e+00 0.0000000000000000e+00 0.0000000000000000e+00  0.0000000000000000e+00 0.0000000000000000e+00 0.0000000000000000e+00  0.0000000000000000e+00 0.0000000000000000e+00 0.0000000000000000e+00  0.0000000000000000e+00 0.0000000000000000e+00 0.0000000000000000e+00  0.0000000000000000e+00 0.0000000000000000e+00 0.0000000000000000e+00  0.0000000000000000e+00 0.0000000000000000e+00 0.0000000000000000e+00  0.0000000000000000e+00 0.0000000000000000e+00 0.0000000000000000e+00  0.0000000000000000e+00 0.0000000000000000e+00 0.0000000000000000e+00  0.0000000000000000e+00 0.0000000000000000e+00 0.0000000000000000e+00  0.0000000000000000e+00 0.0000000000000000e+00 0.0000000000000000e+00  0.0000000000000000e+00 0.0000000000000000e+00 0.0000000000000000e+00  0.0000000000000000e+00 0.0000000000000000e+00 0.0000000000000000e+00  0.0000000000000000e+00 0.0000000000000000e+00 0.0000000000000000e+00  0.0000000000000000e+00 0.0000000000000000e+00 0.0000000000000000e+00  1.0663478683083100e-07 -9.3167282188294981e-08 0.0000000000000000e+00  2.1642310791867398e-07 -1.9040691013353645e-07 0.0000000000000000e+00  3.3252085229531416e-07 -2.9604528326398724e-07 0.0000000000000000e+00  4.5808667782205798e-07 -4.1496058690501072e-07 0.0000000000000000e+00  5.9625927452961453e-07 -5.5296340064423478e-07 0.0000000000000000e+00  7.5010574063373935e-07 -7.1734285091498469e-07 0.0000000000000000e+00  9.2253162681352561e-07 -9.1772257803385852e-07 0.0000000000000000e+00  1.1161444367899741e-06 -1.1675124741659452e-06 0.0000000000000000e+00  1.3330646324151241e-06 -1.4865654849064695e-06 0.0000000000000000e+00  1.5746800254362800e-06 -1.9064373327102591e-06 0.0000000000000000e+00  1.8413338891181076e-06 -2.4817267928726837e-06 0.0000000000000000e+00  2.1318986896559568e-06 -3.3169500453596503e-06 0.0000000000000000e+00  2.4430253646142364e-06 -4.6371516022649466e-06 0.0000000000000000e+00  2.7672400112738868e-06 -6.9944555452090796e-06 0.0000000000000000e+00  3.0867128105638077e-06 -1.1938355201832516e-05 0.0000000000000000e+00  3.3504063667519956e-06 -2.4400464592514501e-05 0.0000000000000000e+00  0.0000000000000000e+00 0.0000000000000000e+00 0.0000000000000000e+00  2.1011683449627071e-07 -1.8226282081260850e-07 0.0000000000000000e+00  4.2653402473484850e-07 -3.7241231134042191e-07 0.0000000000000000e+00  6.5556659492953922e-07 -5.7880648802619110e-07 0.0000000000000000e+00  9.0355419748037514e-07 -8.1082037543434128e-07 0.0000000000000000e+00  1.1768254194168318e-06 -1.0795279095273029e-06 0.0000000000000000e+00  1.4816040117878552e-06 -1.3986497260597675e-06 0.0000000000000000e+00  1.8238372781876573e-06 -1.7859786837705181e-06 0.0000000000000000e+00  2.2089292155188546e-06 -2.2656731216665001e-06 0.0000000000000000e+00  2.6413670181093094e-06 -2.8721704951289011e-06 0.0000000000000000e+00  3.1242402900835436e-06 -3.6572237116859693e-06 0.0000000000000000e+00  3.6586670276841169e-06 -4.7031113897308747e-06 0.0000000000000000e+00  4.2431552476574012e-06 -6.1481212566489285e-06 0.0000000000000000e+00  4.8729416698863546e-06 -8.2352710553050270e-06 0.0000000000000000e+00  5.5394042270284239e-06 -1.1395824322925923e-05 0.0000000000000000e+00  6.2301069638296508e-06 -1.6325813211539310e-05 0.0000000000000000e+00  6.9329992303587476e-06 -2.3607561701765520e-05 0.0000000000000000e+00  0.0000000000000000e+00 0.0000000000000000e+00 0.0000000000000000e+00  3.0730284837636455e-07 -2.6347512404799905e-07 0.0000000000000000e+00  6.2403039102837497e-07 -5.3817301018538324e-07 0.0000000000000000e+00  9.5965402439535705e-07 -8.3594347360125560e-07 0.0000000000000000e+00  1.3237297379368139e-06 -1.1699757139093719e-06 0.0000000000000000e+00  1.7258694623616632e-06 -1.5556581237626246e-06 0.0000000000000000e+00  2.1756249785243648e-06 -2.0117156030837238e-06 0.0000000000000000e+00  2.6822521953377942e-06 -2.5618141613570881e-06 0.0000000000000000e+00  3.2543255886674162e-06 -3.2369420941345206e-06 0.0000000000000000e+00  3.8991813549528492e-06 -4.0790760543163585e-06 0.0000000000000000e+00  4.6221882748243130e-06 -5.1469378760027685e-06 0.0000000000000000e+00  5.4258842886807415e-06 -6.5249632576988397e-06 0.0000000000000000e+00  6.3090874413716924e-06 -8.3363981430825705e-06 0.0000000000000000e+00  7.2662317897263096e-06 -1.0758501447093265e-05 0.0000000000000000e+00  8.2875416599798345e-06 -1.4024781815002159e-05 0.0000000000000000e+00  9.3618153452947615e-06 -1.8356752909432278e-05 0.0000000000000000e+00  1.0487679772720599e-05 -2.3675199255941597e-05 0.0000000000000000e+00  0.0000000000000000e+00 0.0000000000000000e+00 0.0000000000000000e+00  3.9507100916423202e-07 -3.3346983134548981e-07 0.0000000000000000e+00  8.0263405991369787e-07 -6.8086273099981771e-07 0.0000000000000000e+00  1.2352887641831827e-06 -1.0568156448477643e-06 0.0000000000000000e+00  1.7058357824967480e-06 -1.4774713658775427e-06 0.0000000000000000e+00  2.2272862236357316e-06 -1.9613943094892682e-06 0.0000000000000000e+00  2.8127555074457994e-06 -2.5307073324325150e-06 0.0000000000000000e+00  3.4751939095046271e-06 -3.2125657216237144e-06 0.0000000000000000e+00  4.2269040508764345e-06 -4.0411172432052625e-06 0.0000000000000000e+00  5.0788022173544014e-06 -5.0601134556860241e-06 0.0000000000000000e+00  6.0394036568682484e-06 -6.3262634813468455e-06 0.0000000000000000e+00  7.1135621389324973e-06 -7.9130412933054910e-06 0.0000000000000000e+00  8.3010805583785128e-06 -9.9134125633835312e-06 0.0000000000000000e+00  9.5954298520627447e-06 -1.2436600890616981e-05 0.0000000000000000e+00  1.0982906079921710e-05 -1.5586628725521854e-05 0.0000000000000000e+00  1.2442266091256888e-05 -1.9399437716471238e-05 0.0000000000000000e+00  1.3942389588311830e-05 -2.3721143166638930e-05 0.0000000000000000e+00  0.0000000000000000e+00 0.0000000000000000e+00 0.0000000000000000e+00  4.7035512608129461e-07 -3.8954702065452394e-07 0.0000000000000000e+00  9.5615063591156799e-07 -7.9499430864253623e-07 0.0000000000000000e+00  1.4730318038613190e-06 -1.2329821061469090e-06 0.0000000000000000e+00  2.0370342612959887e-06 -1.7216902543802290e-06 0.0000000000000000e+00  2.6646742166836243e-06 -2.2817212798854327e-06 0.0000000000000000e+00  3.3729001491717901e-06 -2.9371204002008236e-06 0.0000000000000000e+00  4.1788395428975858e-06 -3.7165697262539386e-06 0.0000000000000000e+00  5.0992628596314017e-06 -4.6547615758374047e-06 0.0000000000000000e+00  6.1496833528936193e-06 -5.7938633204127071e-06 0.0000000000000000e+00  7.3430271255836022e-06 -7.1847566384382538e-06 0.0000000000000000e+00  8.6878594150554833e-06 -8.8872179720769129e-06 0.0000000000000000e+00  1.0186257350303769e-05 -1.0967160432072920e-05 0.0000000000000000e+00  1.1831579517381976e-05 -1.3487242213612609e-05 0.0000000000000000e+00  1.3606558372585722e-05 -1.6484932382484916e-05 0.0000000000000000e+00  1.5482227617197187e-05 -1.9932436611115861e-05 0.0000000000000000e+00  1.7418254572422894e-05 -2.3684645053324187e-05 0.0000000000000000e+00  0.0000000000000000e+00 0.0000000000000000e+00 0.0000000000000000e+00  5.3020645749491695e-07 -4.2972851701416095e-07 0.0000000000000000e+00  1.0785856820867604e-06 -8.7658619563986648e-07 0.0000000000000000e+00  1.6636537292261161e-06 -1.3584241702816615e-06 0.0000000000000000e+00  2.3045906814381243e-06 -1.8945754904629040e-06 0.0000000000000000e+00  3.0214659533586010e-06 -2.5066597462253031e-06 0.0000000000000000e+00  3.8353143518590028e-06 -3.2194488442266793e-06 0.0000000000000000e+00  4.7679769975327577e-06 -4.0617763485742214e-06 0.0000000000000000e+00  5.8415934935623699e-06 -5.0674115017646447e-06 0.0000000000000000e+00  7.0776062708015980e-06 -6.2756947759942389e-06 0.0000000000000000e+00  8.4951298823728850e-06 -7.7314964238021790e-06 0.0000000000000000e+00  1.0108573917496518e-05 -9.4836518646130225e-06 0.0000000000000000e+00  1.1924526650598846e-05 -1.1580418263966891e-05 0.0000000000000000e+00  1.3938145979873703e-05 -1.4059842131336816e-05 0.0000000000000000e+00  1.6129668474723401e-05 -1.6932953239850071e-05 0.0000000000000000e+00  1.8462050000069461e-05 -2.0160319917078011e-05 0.0000000000000000e+00  2.0880982562747399e-05 -2.3630900045158387e-05 0.0000000000000000e+00  0.0000000000000000e+00 0.0000000000000000e+00 0.0000000000000000e+00  5.7189066619533342e-07 -4.5278329200084120e-07 0.0000000000000000e+00  1.1643339931262547e-06 -9.2319644805690234e-07 0.0000000000000000e+00  1.7984047996664444e-06 -1.4295466568251906e-06 0.0000000000000000e+00  2.4962019983980913e-06 -1.9915148187028524e-06 0.0000000000000000e+00  3.2812719390455299e-06 -2.6308708237619682e-06 0.0000000000000000e+00  4.1788948359530475e-06 -3.3722025878982046e-06 0.0000000000000000e+00  5.2161336928286936e-06 -4.2436193436138946e-06 0.0000000000000000e+00  6.4214940595625586e-06 -5.2773295507788164e-06 0.0000000000000000e+00  7.8239805557158689e-06 -6.5098860074051112e-06 0.0000000000000000e+00  9.4512771132125137e-06 -7.9817108247262203e-06 0.0000000000000000e+00  1.1326759350900304e-05 -9.7352434863344602e-06 0.0000000000000000e+00  1.3465141316290803e-05 -1.1810725797292998e-05 0.0000000000000000e+00  1.5866873587482609e-05 -1.4238417185941766e-05 0.0000000000000000e+00  1.8512049837593946e-05 -1.7026381248941220e-05 0.0000000000000000e+00  2.1355511124044281e-05 -2.0144723508451683e-05 0.0000000000000000e+00  2.4325646945457646e-05 -2.3510928432552244e-05 0.0000000000000000e+00  0.0000000000000000e+00 0.0000000000000000e+00 0.0000000000000000e+00  5.9302456210473925e-07 -4.5820771443983005e-07 0.0000000000000000e+00  1.2084534654511471e-06 -9.3386540738592129e-07 0.0000000000000000e+00  1.8694239018523208e-06 -1.4450420852242789e-06 0.0000000000000000e+00  2.6005299171023414e-06 -2.0110505071676488e-06 0.0000000000000000e+00  3.4285081147284791e-06 -2.6530808797888590e-06 0.0000000000000000e+00  4.3828351459625849e-06 -3.3948325848539745e-06 0.0000000000000000e+00  5.4961365135319091e-06 -4.2631110266193249e-06 0.0000000000000000e+00  6.8042283205716450e-06 -5.2883169587401388e-06 0.0000000000000000e+00  8.3454994662525966e-06 -6.5046889092777362e-06 0.0000000000000000e+00  1.0159194823109699e-05 -7.9500523763418129e-06 0.0000000000000000e+00  1.2282014768976691e-05 -9.6646686658756069e-06 0.0000000000000000e+00  1.4742406729653811e-05 -1.1688557477096489e-05 0.0000000000000000e+00  1.7552209996008484e-05 -1.4056421235738299e-05 0.0000000000000000e+00  2.0696265423835705e-05 -1.6789142548540149e-05 0.0000000000000000e+00  2.4122480664061129e-05 -1.9881046449752795e-05 0.0000000000000000e+00  2.7737200684270639e-05 -2.3283276076266412e-05 0.0000000000000000e+00  0.0000000000000000e+00 0.0000000000000000e+00 0.0000000000000000e+00  5.9175224055800017e-07 -4.4617840382074689e-07 0.0000000000000000e+00  1.2070256048681401e-06 -9.0900793414469587e-07 0.0000000000000000e+00  1.8702971176710899e-06 -1.4056935190939855e-06 0.0000000000000000e+00  2.6079698366656227e-06 -1.9545453755113111e-06 0.0000000000000000e+00  3.4493727898045774e-06 -2.5755413647533950e-06 0.0000000000000000e+00  4.4277701051099860e-06 -3.2908942583368559e-06 0.0000000000000000e+00  5.5813082823610245e-06 -4.1256147580826767e-06 0.0000000000000000e+00  6.9537328086350033e-06 -5.1080517268275443e-06 0.0000000000000000e+00  8.5945360233075233e-06 -6.2703786545382945e-06 0.0000000000000000e+00  1.0557928407475097e-05 -7.6489751486464564e-06 0.0000000000000000e+00  1.2899649755028986e-05 -9.2846041914595582e-06 0.0000000000000000e+00  1.5670243157045152e-05 -1.1222146824663489e-05 0.0000000000000000e+00  1.8903331710206966e-05 -1.3509266197709931e-05 0.0000000000000000e+00  2.2598435654486589e-05 -1.6192423151029810e-05 0.0000000000000000e+00  2.6701145065428888e-05 -1.9306806830736368e-05 0.0000000000000000e+00  3.1089513849664743e-05 -2.2854377044921199e-05 0.0000000000000000e+00  0.0000000000000000e+00 0.0000000000000000e+00 0.0000000000000000e+00  5.6695235014864198e-07 -4.1749108929605982e-07 0.0000000000000000e+00  1.1575889505395084e-06 -8.5028390075896055e-07 0.0000000000000000e+00  1.7967535681249245e-06 -1.3141634381624431e-06 0.0000000000000000e+00  2.5116578189246945e-06 -1.8258743079099353e-06 0.0000000000000000e+00  3.3332135409214513e-06 -2.4036138101819283e-06 0.0000000000000000e+00  4.2975247043623859e-06 -3.0675438150084429e-06 0.0000000000000000e+00  5.4475421709749343e-06 -3.8403384429826215e-06 0.0000000000000000e+00  6.8347936967064909e-06 -4.7478062148697897e-06 0.0000000000000000e+00  8.5209059807697938e-06 -5.8196720495544484e-06 0.0000000000000000e+00  1.0578248500993803e-05 -7.0906910724288277e-06 0.0000000000000000e+00  1.3088334085418537e-05 -8.6023942052335499e-06 0.0000000000000000e+00  1.6135534956656329e-05 -1.0405865554723357e-05 0.0000000000000000e+00  1.9792450718089912e-05 -1.2565726940518732e-05 0.0000000000000000e+00  2.4093112450638598e-05 -1.5164109519102835e-05 0.0000000000000000e+00  2.8994392619649839e-05 -1.8299053553333926e-05 0.0000000000000000e+00  3.4339632622535281e-05 -2.2062279732199609e-05 0.0000000000000000e+00  0.0000000000000000e+00 0.0000000000000000e+00 0.0000000000000000e+00  5.1845753486098379e-07 -3.7349263511334028e-07 0.0000000000000000e+00  1.0596090878282496e-06 -7.6046014348300880e-07 0.0000000000000000e+00  1.6474497742624235e-06 -1.1747843319909913e-06 0.0000000000000000e+00  2.3086667389375251e-06 -1.6311503762317308e-06 0.0000000000000000e+00  3.0742620105391174e-06 -2.1454621472892550e-06 0.0000000000000000e+00  3.9815239300246615e-06 -2.7352815642709188e-06 0.0000000000000000e+00  5.0764771914553475e-06 -3.4203221478893889e-06 0.0000000000000000e+00  6.4169098802434743e-06 -4.2230676133117467e-06 0.0000000000000000e+00  8.0759408575767569e-06 -5.1696774647444541e-06 0.0000000000000000e+00  1.0145702673698999e-05 -6.2915335151599981e-06 0.0000000000000000e+00  1.2739774694556605e-05 -7.6281549077104329e-06 0.0000000000000000e+00  1.5991005896120008e-05 -9.2328453796264845e-06 0.0000000000000000e+00  2.0037787945027139e-05 -1.1183222806901766e-05 0.0000000000000000e+00  2.4987270046880741e-05 -1.3598712238481356e-05 0.0000000000000000e+00  3.0843988624379175e-05 -1.6662481446566256e-05 0.0000000000000000e+00  3.7414893227784914e-05 -2.0627689685696060e-05 0.0000000000000000e+00  0.0000000000000000e+00 0.0000000000000000e+00 0.0000000000000000e+00  4.4725482290027125e-07 -3.1600827805984021e-07 0.0000000000000000e+00  9.1492137303138177e-07 -6.4326511172830457e-07 0.0000000000000000e+00  1.4247449995415227e-06 -9.9334408878359561e-07 0.0000000000000000e+00  2.0012646811529101e-06 -1.3784548749979571e-06 0.0000000000000000e+00  2.6736001822106301e-06 -1.8117675131309072e-06 0.0000000000000000e+00  3.4777729204358539e-06 -2.3077489204495496e-06 0.0000000000000000e+00  4.4598529737084082e-06 -2.8825312598411549e-06 0.0000000000000000e+00  5.6803201506230809e-06 -3.5543647123240521e-06 0.0000000000000000e+00  7.2201025012422770e-06 -4.3442923417083331e-06 0.0000000000000000e+00  9.1886658412339614e-06 -5.2774012799335003e-06 0.0000000000000000e+00  1.1733844124903598e-05 -6.3855431892382212e-06 0.0000000000000000e+00  1.5050713887858336e-05 -7.7137024426557599e-06 0.0000000000000000e+00  1.9380282675642199e-05 -9.3349947877604935e-06 0.0000000000000000e+00  2.4974229956084843e-05 -1.1384216276010764e-05 0.0000000000000000e+00  3.1979764228038647e-05 -1.4123467572390084e-05 0.0000000000000000e+00  4.0202408873511992e-05 -1.8033018349435464e-05 0.0000000000000000e+00  0.0000000000000000e+00 0.0000000000000000e+00 0.0000000000000000e+00  3.5562489311048536e-07 -2.4726386323428411e-07 0.0000000000000000e+00  7.2805595950275638e-07 -5.0323285150517337e-07 0.0000000000000000e+00  1.1353170045046504e-06 -7.7685223926164879e-07 0.0000000000000000e+00  1.5980106269803256e-06 -1.0775311090045231e-06 0.0000000000000000e+00  2.1410520275715036e-06 -1.4153680785625547e-06 0.0000000000000000e+00  2.7960466890095451e-06 -1.8013650707450741e-06 0.0000000000000000e+00  3.6047462156028994e-06 -2.2476176590179754e-06 0.0000000000000000e+00  4.6242799680220619e-06 -2.7674637924571120e-06 0.0000000000000000e+00  5.9352915834987569e-06 -3.3755727252329849e-06 0.0000000000000000e+00  7.6547475047055337e-06 -4.0880060475136028e-06 0.0000000000000000e+00  9.9558682512896471e-06 -4.9225616794805037e-06 0.0000000000000000e+00  1.3097300395488400e-05 -5.9008751259222571e-06 0.0000000000000000e+00  1.7458002316927382e-05 -7.0579672486230815e-06 0.0000000000000000e+00  2.3549423170665563e-05 -8.4783556138074162e-06 0.0000000000000000e+00  3.1898647767228012e-05 -1.0412286652987581e-05 0.0000000000000000e+00  4.2550988837300539e-05 -1.3562461605200768e-05 0.0000000000000000e+00  0.0000000000000000e+00 0.0000000000000000e+00 0.0000000000000000e+00  2.4717360182062293e-07 -1.6980354372317972e-07 0.0000000000000000e+00  5.0634001991774488e-07 -3.4553578761192124e-07 0.0000000000000000e+00  7.9042885578432100e-07 -5.3328174791058149e-07 0.0000000000000000e+00  1.1143712341096795e-06 -7.3942340685579292e-07 0.0000000000000000e+00  1.4964982263418671e-06 -9.7077305333188642e-07 0.0000000000000000e+00  1.9605406255254573e-06 -1.2346755651368763e-06 0.0000000000000000e+00  2.5386952931506784e-06 -1.5390385443769234e-06 0.0000000000000000e+00  3.2765971833213818e-06 -1.8921944655453692e-06 0.0000000000000000e+00  4.2417852385498656e-06 -2.3023703304943360e-06 0.0000000000000000e+00  5.5387780453664960e-06 -2.7762443707141292e-06 0.0000000000000000e+00  7.3369918088196248e-06 -3.3154309157332591e-06 0.0000000000000000e+00  9.9237629085563578e-06 -3.9086040841871597e-06 0.0000000000000000e+00  1.3803939868693331e-05 -4.5164348674125635e-06 0.0000000000000000e+00  1.9865898647018748e-05 -5.0567307914687122e-06 0.0000000000000000e+00  2.9513486724528676e-05 -5.4815354788099262e-06 0.0000000000000000e+00  4.3780014185824279e-05 -6.5527937590203983e-06 0.0000000000000000e+00  0.0000000000000000e+00 0.0000000000000000e+00 0.0000000000000000e+00  1.2671650810890755e-07 -8.6405557202928574e-08 0.0000000000000000e+00  2.5968316612084021e-07 -1.7581237054731662e-07 0.0000000000000000e+00  4.0566127204841900e-07 -2.7129812643088696e-07 0.0000000000000000e+00  5.7251055826369586e-07 -3.7608357199526112e-07 0.0000000000000000e+00  7.6997587244628353e-07 -4.9359124082865997e-07 0.0000000000000000e+00  1.0108431320225498e-06 -6.2747710415219433e-07 0.0000000000000000e+00  1.3127757682601936e-06 -7.8159594846396958e-07 0.0000000000000000e+00  1.7014363491059934e-06 -9.5980075725134263e-07 0.0000000000000000e+00  2.2161605525603747e-06 -1.1653121857089381e-06 0.0000000000000000e+00  2.9210558333504434e-06 -1.3989267272932423e-06 0.0000000000000000e+00  3.9286203050562441e-06 -1.6539230287787668e-06 0.0000000000000000e+00  5.4551194438868426e-06 -1.9009996753875009e-06 0.0000000000000000e+00  7.9651353965253877e-06 -2.0410441231019913e-06 0.0000000000000000e+00  1.2593229057051341e-05 -1.7467071578350607e-06 0.0000000000000000e+00  2.2509628712703583e-05 1.0589170285504603e-07 0.0000000000000000e+00  4.7735911119553986e-05 7.5931626267994248e-06 0.0000000000000000e+00  0.0000000000000000e+00 0.0000000000000000e+00 0.0000000000000000e+00  0.0000000000000000e+00 0.0000000000000000e+00 0.0000000000000000e+00  0.0000000000000000e+00 0.0000000000000000e+00 0.0000000000000000e+00  0.0000000000000000e+00 0.0000000000000000e+00 0.0000000000000000e+00  0.0000000000000000e+00 0.0000000000000000e+00 0.0000000000000000e+00  0.0000000000000000e+00 0.0000000000000000e+00 0.0000000000000000e+00  0.0000000000000000e+00 0.0000000000000000e+00 0.0000000000000000e+00  0.0000000000000000e+00 0.0000000000000000e+00 0.0000000000000000e+00  0.0000000000000000e+00 0.0000000000000000e+00 0.000000