<?xml version="1.0"?>
<VTKFile type="UnstructuredGrid"  version="0.1"  >
<UnstructuredGrid>
<Piece  NumberOfPoints="289" NumberOfCells="512">
<Points>
<DataArray  type="Float64"  NumberOfComponents="3"  format="ascii">0 0 0  0.0625 0 0  0.125 0 0  0.1875 0 0  0.25 0 0  0.3125 0 0  0.375 0 0  0.4375 0 0  0.5 0 0  0.5625 0 0  0.625 0 0  0.6875 0 0  0.75 0 0  0.8125 0 0  0.875 0 0  0.9375 0 0  1 0 0  0 0.0625 0  0.06250016675948672 0.06249957780185871 0  0.1250003386311956 0.06249913612857193 0  0.1875005206132802 0.06249865416940486 0  0.2500007177403701 0.0624981082028996 0  0.3125009350548051 0.06249746958223455 0  0.3750011775283199 0.06249670184461887 0  0.4375014499078523 0.06249575619409515 0  0.5000017564446753 0.06249456386981656 0  0.5625021004315379 0.06249302220136786 0  0.6250024833883424 0.06249096688068224 0  0.6875029035376987 0.06248811136178826 0  0.7500033527987986 0.06248389967986567 0  0.8125038110588827 0.06247710591990491 0  0.8750042387588783 0.06246461111135671 0  0.9375045950957531 0.06243724196781517 0  1.000005098986915 0.06236421628686569 0  0 0.125 0  0.06250032844657165 0.1249991749568667 0  0.1250006670722748 0.1249983123039507 0  0.1875010258605998 0.1249973719540343 0  0.2500014148976693 0.1249963084529884 0  0.312501844335105 0.1249950673606684 0  0.375002324261509 0.1249935802127778 0  0.4375028644388574 0.1249917569620082 0  0.5000034738437831 0.1249894738918288 0  0.5625041599156941 0.1249865531606694 0  0.6250049273139361 0.1249827263722175 0  0.6875057756958768 0.1249775669963332 0  0.7500066950786407 0.1249703627609198 0  0.8125076537916225 0.1249598844586579 0  0.8750085588243673 0.1249440590248633 0  0.9375090964666658 0.1249201141255173 0  1.000008000316671 0.1248893322075628 0  0 0.1875 0  0.0625004801253598 0.1874988095800797 0  0.1250009754052484 0.187497565916297 0  0.1875015007788571 0.1874962124760281 0  0.2500020714109559 0.1874946856666005 0  0.3125027026832444 0.1874929102576961 0  0.3750034100622791 0.1874907932915887 0  0.4375042087924238 0.187488215481293 0  0.5000051133581843 0.1874850185024089 0  0.5625061366599787 0.1874809856239718 0  0.6250072888623477 0.1874758117727324 0  0.6875085759597955 0.1874690579939771 0  0.75000999854767 0.1874600875744858 0  0.8125115535260571 0.1874479986120989 0  0.875013252878745 0.1874316336135269 0  0.9375152326428454 0.1874099068898135 0  1.000018334623917 0.1873826630394261 0  0 0.25 0  0.06250061691415232 0.2499984972919411 0  0.1250012537951323 0.2499969290297145 0  0.1875019304593186 0.249995225937075 0  0.2500026671501469 0.2499933108364699 0  0.3125034846064512 0.2499910937645604 0  0.3750044039821895 0.2499884658266795 0  0.4375054465588553 0.2499852911421241 0  0.5000066331974194 0.2499813960675907 0  0.5625079835030923 0.2499765548318035 0  0.6250095147496585 0.2499704711830602 0  0.6875112407860329 0.2499627577917391 0  0.7500131715341283 0.2499529217689748 0  0.8125153143626668 0.2499403813945333 0  0.8750176784397989 0.2499245727281924 0  0.9375202704413969 0.2499052448881021 0  1.000022960599934 0.2498830063000163 0  0 0.3125 0  0.06250073404372854 0.3124982503976466 0  0.1250014925966078 0.3124964266917313 0  0.1875023001809102 0.3124944509690957 0  0.2500031820425149 0.3124922373288708 0  0.3125041643543941 0.3124896871898206 0  0.375005274251215 0.3124866837343434 0  0.4375065396224573 0.3124830852120892 0  0.5000079885940431 0.3124787169654867 0  0.5625096486552127 0.312473362484912 0  0.6250115454616286 0.3124667549535641 0  0.6875137014960997 0.3124585733693871 0  0.7500161350035892 0.3124484526538194 0  0.8125188598351998 0.31243602630985 0  0.8750218866484232 0.3124210315231652 0  0.9375252253763039 0.3124035088642005 0  1.000028901131934 0.312384097863528 0  0 0.375 0  0.06250082695699767 0.3749980774510299 0  0.1250016825458904 0.3749960760929151 0  0.1875025956777 0.3749939134864942 0  0.250003596389525 0.3749914996782137 0  0.3125047162513909 0.3749887329962533 0  0.3750059885931007 0.3749854953591616 0  0.4375074484566688 0.3749816470753067 0  0.5000091321646707 0.3749770213679883 0  0.5625110763972664 0.3749714194099354 0  0.6250133167132584 0.3749646077266838 0  0.6875158855574331 0.3749563217316321 0  0.750018809965349 0.3749462820427606 0  0.8125221093050676 0.3749342333923238 0  0.8750257931518097 0.3749200160481713 0  0.9375298580535658 0.3749036677323939 0  1.000034277245099 0.3748855118321415 0  0 0.4375 0  0.0625008914587054 0.4374979831709273 0  0.1250018150557462 0.4374958864792494 0  0.187502803568192 0.4374936267896031 0  0.2500038914092368 0.4374911142782427 0  0.3125051153163959 0.4374882488466187 0  0.3750065148700181 0.4374849163147053 0  0.4375081327237819 0.4374809844815903 0  0.5000100143812448 0.4374762993713143 0  0.5625122073066758 0.4374706824028358 0  0.6250147591403608 0.4374639299257176 0  0.6875177148442807 0.4374558175885124 0  0.7500211127935961 0.4374461131577171 0  0.8125249801888493 0.4374346018510532 0  0.8750293286132133 0.4374211259835729 0  0.937534150790386 0.4374056326193271 0  1.000039419283225 0.4373882079941661 0  0 0.5 0  0.06250092392015194 0.4999979686305319 0  0.1250018826253886 0.4999958596223354 0  0.1875029119683846 0.499993592522685 0  0.2500040500406069 0.49999108120307 0  0.3125053382243488 0.4999882309179414 0  0.3750068221263504 0.4999849352935969 0  0.4375085522618565 0.4999810733317037 0  0.5000105842663877 0.499976506640255 0  0.5625129782908097 0.4999710773079933 0  0.6250157971055791 0.4999646071286933 0  0.687519102374118 0.499956899225234 0  0.7500229487152827 0.4999477433583595 0  0.8125273758410091 0.4999369259112736 0  0.8750324005438309 0.4999242439773908 0  0.9375380125550341 0.4999095196445572 0  1.000044179857333 0.4998926080113459 0  0 0.5625 0  0.06250092153814919 0.5624980316287377 0  0.1250018793671237 0.5624959906410324 0  0.1875029113005952 0.5624938021119656 0  0.2500040580442272 0.5624913865286317 0  0.3125053646840683 0.562488657482678 0  0.375006882171509 0.562485519368411 0  0.4375086686936129 0.5624818651154456 0  0.5000107906814921 0.5624775739898512 0  0.562513322988223 0.5624725094714923 0  0.6250163474497872 0.562466517126745 0  0.6875199486821022 0.5624594222154292 0  0.7500242058028123 0.562451026500685 0  0.8125291794199918 0.5624411034263556 0  0.8750348958641582 0.5624293904675419 0  0.9375413364407145 0.5624155764122946 0  1.000048446645056 0.5623992780318116 0  0 0.625 0  0.06250088263811228 0.6249981671651618 0  0.1250018016340538 0.6249962690093243 0  0.1875027952874321 0.6249942384177427 0  0.250003905413863 0.6249920047795469 0  0.3125051793052296 0.6249894922981288 0  0.3750066718816369 0.6249866183672986 0  0.4375084480054586 0.6249832919971933 0  0.5000105847737711 0.6249794121768052 0  0.5625131732964077 0.6249748658346697 0  0.625016318902173 0.624969524618594 0  0.6875201378106467 0.624963239001274 0  0.7500247471770224 0.6249558273728849 0  0.8125302448885489 0.6249470574741333 0  0.8750366781406334 0.6249366190301338 0  0.9375440110943527 0.6249240893854469 0  1.000052127601861 0.624908887780907 0  0 0.6875 0  0.06250080699719153 0.6874983679617409 0  0.1250016487046771 0.6874966796399794 0  0.18750256207741 0.6874948774512776 0  0.250003588059391 0.6874929013550125 0  0.3125047739746687 0.6874906877620162 0  0.3750061763787617 0.6874881686021964 0  0.4375078645088383 0.6874852705541044 0  0.5000099243726264 0.6874819143045378 0  0.5625124632221643 0.6874780133677784 0  0.6250156134315024 0.6874734712545965 0  0.6875195332212066 0.6874681743778551 0  0.7500243987182024 0.687461975958707 0  0.8125303775138861 0.6874546645590326 0  0.8750375711861993 0.6874459145998421 0  0.9375459255416544 0.6874352339047081 0  1.000055163562323 0.6874219325201015 0  0 0.75 0  0.06250069614536345 0.7499986249911007 0  0.1250014234409746 0.7499972039737257 0  0.18750221538218 0.7499956900818255 0  0.2500031096218673 0.7499940349143864 0  0.3125041506306524 0.7499921879928039 0  0.3750053931086956 0.7499900965138762 0  0.4375069065358229 0.7499877055115998 0  0.5000087813255318 0.7499849584806279 0  0.5625111370146662 0.7499817982596311 0  0.6250141324574874 0.7499781671922336 0  0.6875179762780704 0.749974003528624 0  0.7500229310060864 0.7499692263690384 0  0.8125292930387065 0.7499636934403228 0  0.8750373100832379 0.7499571130672537 0  0.9375469796427889 0.74994894625167 0  1.00005772649199 0.7499386119545525 0  0 0.8125 0  0.06250055358403837 0.812498927979699 0  0.1250011327929573 0.8124978210175289 0  0.1875017654215225 0.8124966436739112 0  0.2500024831342888 0.8124953597073256 0  0.3125033240865053 0.8124939319660672 0  0.3750043365025003 0.8124923227097974 0  0.4375055838525824 0.8124904946465822 0  0.5000071526365935 0.8124884131181944 0  0.5625091643357126 0.8124860500281823 0  0.6250117937453032 0.8124833900344288 0  0.6875152959690859 0.8124804381466268 0  0.7500200410438619 0.8124772213521174 0  0.8125265393755949 0.8124737538109789 0  0.8750353895553885 0.8124698720536686 0  0.9375469618683315 0.812464768596021 0  1.000060616733229 0.8124566955520782 0  0 0.875 0  0.06250038485033702 0.8749992658539585 0  0.1250007879901179 0.8749985082683045 0  0.1875012293950237 0.8749977035612337 0  0.2500017320743778 0.8749968277354095 0  0.3125023242216763 0.8749958566122189 0  0.375003042302129 0.8749947664318882 0  0.4375039358212623 0.874993535327739 0  0.500005075132077 0.8749921464739767 0  0.562506564868365 0.8749905945373154 0  0.6250085680595038 0.8749888987824574 0  0.6875113507383556 0.874987129329032 0  0.7500153645811481 0.8749854561727208 0  0.8125213891128218 0.8749842159054063 0  0.875030700981951 0.874983841968568 0  0.9375448186936381 0.8749835544490991 0  1.000061825755004 0.874972297199714 0  0 0.9375 0  0.06250019736084433 0.9374996270978039 0  0.1250004042629348 0.937499242449182 0  0.187500631174761 0.9374988342192379 0  0.2500008902457051 0.9374983904962672 0  0.3125011965348525 0.9374978994409203 0  0.3750015698368391 0.9374973497513387 0  0.4375020376333312 0.9374967317682541 0  0.50
[...]
<PointData  Vectors="f_54"> 
<DataArray  type="Float64"  Name="f_54"  NumberOfComponents="3" format="ascii">0.0000000000000000e+00 0.0000000000000000e+00 0.0000000000000000e+00  0.0000000000000000e+00 0.0000000000000000e+00 0.0000000000000000e+00  0.0000000000000000e+00 0.0000000000000000e+00 0.0000000000000000e+00  0.0000000000000000e+00 0.0000000000000000e+00 0.0000000000000000e+00  0.0000000000000000e+00 0.0000000000000000e+00 0.0000000000000000e+00  0.0000000000000000e+00 0.0000000000000000e+00 0.0000000000000000e+00  0.0000000000000000e+00 0.0000000000000000e+00 0.0000000000000000e+00  0.0000000000000000e+00 0.0000000000000000e+00 0.0000000000000000e+00  0.0000000000000000e+00 0.0000000000000000e+00 0.0000000000000000e+00  0.0000000000000000e+00 0.0000000000000000e+00 0.0000000000000000e+00  0.0000000000000000e+00 0.0000000000000000e+00 0.0000000000000000e+00  0.0000000000000000e+00 0.0000000000000000e+00 0.0000000000000000e+00  0.0000000000000000e+00 0.0000000000000000e+00 0.0000000000000000e+00  0.0000000000000000e+00 0.0000000000000000e+00 0.0000000000000000e+00  0.0000000000000000e+00 0.0000000000000000e+00 0.0000000000000000e+00  0.0000000000000000e+00 0.0000000000000000e+00 0.0000000000000000e+00  0.0000000000000000e+00 0.0000000000000000e+00 0.0000000000000000e+00  0.0000000000000000e+00 0.0000000000000000e+00 0.0000000000000000e+00  -1.2046659148415648e-07 1.1435385988696034e-07 0.0000000000000000e+00  -2.4449406627105173e-07 2.3370529759900567e-07 0.0000000000000000e+00  -3.7565184430970095e-07 3.6336986223620661e-07 0.0000000000000000e+00  -5.1751271468382196e-07 5.0934219042167342e-07 0.0000000000000000e+00  -6.7362750096296615e-07 6.7876506220811755e-07 0.0000000000000000e+00  -8.4746675936795921e-07 8.8060247861275652e-07 0.0000000000000000e+00  -1.0423183851840609e-06 1.1266944586488901e-06 0.0000000000000000e+00  -1.2611307519336356e-06 1.4335457787276802e-06 0.0000000000000000e+00  -1.5062920695879063e-06 1.8255997935838309e-06 0.0000000000000000e+00  -1.7793352141188054e-06 2.3417239093905484e-06 0.0000000000000000e+00  -2.0805428208418615e-06 3.0492155015883141e-06 0.0000000000000000e+00  -2.4083659413972560e-06 4.0770933449797604e-06 0.0000000000000000e+00  -2.7583547479308409e-06 5.7039805003206620e-06 0.0000000000000000e+00  -3.1205998604230169e-06 8.6168953096381371e-06 0.0000000000000000e+00  -3.4724717623174113e-06 1.4758854348483565e-05 0.0000000000000000e+00  -3.7567024161676742e-06 3.0386370819709500e-05 0.0000000000000000e+00  0.0000000000000000e+00 0.0000000000000000e+00 0.0000000000000000e+00  -2.3737133503734726e-07 2.2370925840144583e-07 0.0000000000000000e+00  -4.8185752357459228e-07 4.5709728262426198e-07 0.0000000000000000e+00  -7.4060105398333893e-07 7.1043268217513230e-07 0.0000000000000000e+00  -1.0207728961979759e-06 9.9523582990568433e-07 0.0000000000000000e+00  -1.3295330431972344e-06 1.3251194374857722e-06 0.0000000000000000e+00  -1.6739250136087397e-06 1.7169570722631199e-06 0.0000000000000000e+00  -2.0606814009141581e-06 2.1926406474069016e-06 0.0000000000000000e+00  -2.4959193868686390e-06 2.7819070285568743e-06 0.0000000000000000e+00  -2.9847100471084860e-06 3.5271597861249046e-06 0.0000000000000000e+00  -3.5305128830848297e-06 4.4921333565334554e-06 0.0000000000000000e+00  -4.1344719412266488e-06 5.7781467931938507e-06 0.0000000000000000e+00  -4.7945526817408849e-06 7.5554099663736581e-06 0.0000000000000000e+00  -5.5043991499499919e-06 1.0122623070329259e-05 0.0000000000000000e+00  -6.2514106406958389e-06 1.4007605667752058e-05 0.0000000000000000e+00  -7.0121093915594221e-06 2.0048774520214025e-05 0.0000000000000000e+00  -7.7369043004500959e-06 2.8854686024764172e-05 0.0000000000000000e+00  0.0000000000000000e+00 0.0000000000000000e+00 0.0000000000000000e+00  -3.4715888124914522e-07 3.2338379743007895e-07 0.0000000000000000e+00  -7.0496191586388016e-07 6.6054051737812428e-07 0.0000000000000000e+00  -1.0841209113309064e-06 1.0260273135615770e-06 0.0000000000000000e+00  -1.4954445074059453e-06 1.4360498857916939e-06 0.0000000000000000e+00  -1.9498073590525004e-06 1.9095226117524398e-06 0.0000000000000000e+00  -2.4580203255032557e-06 2.4694715452673463e-06 0.0000000000000000e+00  -3.0305649819953507e-06 3.1450146085856644e-06 0.0000000000000000e+00  -3.6771575640021993e-06 3.9743003807072483e-06 0.0000000000000000e+00  -4.4061165760358295e-06 5.0090313600285586e-06 0.0000000000000000e+00  -5.2235302808079023e-06 6.3215618500536511e-06 0.0000000000000000e+00  -6.1322639687687852e-06 8.0159428170435548e-06 0.0000000000000000e+00  -7.1309341492900790e-06 1.0244018907543991e-05 0.0000000000000000e+00  -8.2131905345394983e-06 1.3224047545811630e-05 0.0000000000000000e+00  -9.3683526681327417e-06 1.7243359405678467e-05 0.0000000000000000e+00  -1.0587309466303736e-05 2.2575920498686439e-05 0.0000000000000000e+00  -1.1890317838709849e-05 2.9145156838488404e-05 0.0000000000000000e+00  0.0000000000000000e+00 0.0000000000000000e+00 0.0000000000000000e+00  -4.4629895262882485e-07 4.0928258274426129e-07 0.0000000000000000e+00  -9.0670761707123307e-07 8.3565159636643848e-07 0.0000000000000000e+00  -1.3954740542241587e-06 1.2970850669436962e-06 0.0000000000000000e+00  -1.9270753992842312e-06 1.8134140628836684e-06 0.0000000000000000e+00  -2.5162307348271967e-06 2.4074518916674021e-06 0.0000000000000000e+00  -3.1777836066612696e-06 3.1063973256995861e-06 0.0000000000000000e+00  -3.9264003104480752e-06 3.9436562383763112e-06 0.0000000000000000e+00  -4.7760279025766722e-06 4.9612669927581453e-06 0.0000000000000000e+00  -5.7390636837716465e-06 6.2131357023557665e-06 0.0000000000000000e+00  -6.8252154273322093e-06 7.7691968611433464e-06 0.0000000000000000e+00  -8.0400922495749775e-06 9.7201468957118404e-06 0.0000000000000000e+00  -9.3836749620345395e-06 1.2180866636319233e-05 0.0000000000000000e+00  -1.0848976765711845e-05 1.5286543309652004e-05 0.0000000000000000e+00  -1.2421336493485565e-05 1.9166486089096277e-05 0.0000000000000000e+00  -1.4078231076691811e-05 2.3867379322690791e-05 0.0000000000000000e+00  -1.5784164360708766e-05 2.9204191029145736e-05 0.0000000000000000e+00  0.0000000000000000e+00 0.0000000000000000e+00 0.0000000000000000e+00  -5.3132555005741320e-07 4.7809194791966055e-07 0.0000000000000000e+00  -1.0800923552419780e-06 9.7569601512592826e-07 0.0000000000000000e+00  -1.6639896650119397e-06 1.5132461129767975e-06 0.0000000000000000e+00  -2.3011502284135524e-06 2.1130696559662413e-06 0.0000000000000000e+00  -3.0102549621139701e-06 2.8004759128396739e-06 0.0000000000000000e+00  -3.8104816140740394e-06 3.6050151397396632e-06 0.0000000000000000e+00  -4.7212227841638054e-06 4.5619564241554678e-06 0.0000000000000000e+00  -5.7614861157691190e-06 5.7139937455882046e-06 0.0000000000000000e+00  -6.9488861876351176e-06 7.1130780766971202e-06 0.0000000000000000e+00  -8.2981573550596032e-06 8.8219937629018559e-06 0.0000000000000000e+00  -9.8191792329281889e-06 1.0914665495256708e-05 0.0000000000000000e+00  -1.1514632604146926e-05 1.3472895869764902e-05 0.0000000000000000e+00  -1.3377597964221796e-05 1.6574993826857700e-05 0.0000000000000000e+00  -1.5389622007634365e-05 2.0268993127352050e-05 0.0000000000000000e+00  -1.7519890697636712e-05 2.4523371481081602e-05 0.0000000000000000e+00  -1.9726509969031234e-05 2.9161911786103383e-05 0.0000000000000000e+00  0.0000000000000000e+00 0.0000000000000000e+00 0.0000000000000000e+00  -5.9890729334191680e-07 5.2738662767674164e-07 0.0000000000000000e+00  -1.2183435534626489e-06 1.0757926483541556e-06 0.0000000000000000e+00  -1.8792395200041684e-06 1.6671330110348621e-06 0.0000000000000000e+00  -2.6032788668897403e-06 2.3251432939544484e-06 0.0000000000000000e+00  -3.4131555785562717e-06 3.0763698341415544e-06 0.0000000000000000e+00  -4.3326633427656850e-06 3.9512368818317557e-06 0.0000000000000000e+00  -5.3865203962724650e-06 4.9851712096133732e-06 0.0000000000000000e+00  -6.5998022275000616e-06 6.2196911117597991e-06 0.0000000000000000e+00  -7.9968264501488705e-06 7.7032172232362507e-06 0.0000000000000000e+00  -9.5993264083167901e-06 9.4910784356998308e-06 0.0000000000000000e+00  -1.1423793520323989e-05 1.1643692243017594e-05 0.0000000000000000e+00  -1.3478007106440679e-05 1.4221156533666456e-05 0.0000000000000000e+00  -1.5757047130235233e-05 1.7271683717915788e-05 0.0000000000000000e+00  -1.8239498375385641e-05 2.0811308755316450e-05 0.0000000000000000e+00  -2.0884986699088007e-05 2.4795429712362399e-05 0.0000000000000000e+00  -2.3634326523374922e-05 2.9092942160291789e-05 0.0000000000000000e+00  0.0000000000000000e+00 0.0000000000000000e+00 0.0000000000000000e+00  -6.4595722502734973e-07 5.5566025903456432e-07 0.0000000000000000e+00  -1.3151327686964972e-06 1.1329541053474265e-06 0.0000000000000000e+00  -2.0313442380916664e-06 1.7543502169983449e-06 0.0000000000000000e+00  -2.8195688271175205e-06 2.4440023659750927e-06 0.0000000000000000e+00  -3.7064240745714475e-06 3.2286270208533172e-06 0.0000000000000000e+00  -4.7204944863611796e-06 4.1383981186841292e-06 0.0000000000000000e+00  -5.8923906987710131e-06 5.2078115319252335e-06 0.0000000000000000e+00  -7.2543702302829685e-06 6.4763995968034008e-06 0.0000000000000000e+00  -8.8392786022338763e-06 7.9890473581404390e-06 0.0000000000000000e+00  -1.0678503579741327e-05 9.7954485847814899e-06 0.0000000000000000e+00  -1.2798615760927187e-05 1.1947922185532330e-05 0.0000000000000000e+00  -1.5216477630715608e-05 1.4496426787399309e-05 0.0000000000000000e+00  -1.7932963722177195e-05 1.7479368175796006e-05 0.0000000000000000e+00  -2.0926164520172157e-05 2.0909237473381724e-05 0.0000000000000000e+00  -2.4146008746298748e-05 2.4754211372894127e-05 0.0000000000000000e+00  -2.7513177407238188e-05 2.8921289853901921e-05 0.0000000000000000e+00  0.0000000000000000e+00 0.0000000000000000e+00 0.0000000000000000e+00  -6.6978724391274843e-07 5.6229988263333775e-07 0.0000000000000000e+00  -1.3648850514138579e-06 1.1460136916948657e-06 0.0000000000000000e+00  -2.1114353602862770e-06 1.7733128328289020e-06 0.0000000000000000e+00  -2.9372280953261699e-06 2.4678918190751994e-06 0.0000000000000000e+00  -3.8724775967799998e-06 3.2557426755908537e-06 0.0000000000000000e+00  -4.9504997251640085e-06 4.1659248173922329e-06 0.0000000000000000e+00  -6.2081761798788384e-06 5.2312890128122349e-06 0.0000000000000000e+00  -7.6860043546696643e-06 6.4890657642432528e-06 0.0000000000000000e+00  -9.4274017594340636e-06 7.9811488419791355e-06 0.0000000000000000e+00  -1.1476767535351035e-05 9.7537805710287064e-06 0.0000000000000000e+00  -1.3875639319882924e-05 1.1856166182288416e-05 0.0000000000000000e+00  -1.6656239686592630e-05 1.4337315924303635e-05 0.0000000000000000e+00  -1.9832032919368616e-05 1.7240187380124452e-05 0.0000000000000000e+00  -2.3385996616356767e-05 2.0592122345706230e-05 0.0000000000000000e+00  -2.7259458229234353e-05 2.4390932071968715e-05 0.0000000000000000e+00  -3.1347074863577898e-05 2.8587197384739639e-05 0.0000000000000000e+00  0.0000000000000000e+00 0.0000000000000000e+00 0.0000000000000000e+00  -6.6830668309056108e-07 5.4752651802977321e-07 0.0000000000000000e+00  -1.3631854390387976e-06 1.1154896817470946e-06 0.0000000000000000e+00  -2.1122852321984661e-06 1.7249983680263785e-06 0.0000000000000000e+00  -2.9454322632511212e-06 2.3985135688843423e-06 0.0000000000000000e+00  -3.8957604386022098e-06 3.1605331710002560e-06 0.0000000000000000e+00  -5.0008523437384114e-06 4.0382783345234040e-06 0.0000000000000000e+00  -6.3038102640627572e-06 5.0623666152384556e-06 0.0000000000000000e+00  -7.8540659191001020e-06 6.2674434205667784e-06 0.0000000000000000e+00  -9.7075454120181314e-06 7.6927261173542019e-06 0.0000000000000000e+00  -1.1925499553668555e-05 9.3823910289921968e-06 0.0000000000000000e+00  -1.4570882846339358e-05 1.1385686572259388e-05 0.0000000000000000e+00  -1.7700717333741875e-05 1.3756529782285909e-05 0.0000000000000000e+00  -2.1352783473982422e-05 1.6551988418547515e-05 0.0000000000000000e+00  -2.5526112366239078e-05 1.9828162494577246e-05 0.0000000000000000e+00  -3.0158460360400840e-05 2.3630189200884393e-05 0.0000000000000000e+00  -3.5110743507341544e-05 2.7970733355772415e-05 0.0000000000000000e+00  0.0000000000000000e+00 0.0000000000000000e+00 0.0000000000000000e+00  -6.4025571311243357e-07 5.1231872421431458e-07 0.0000000000000000e+00  -1.3072671264636679e-06 1.0434231409450759e-06 0.0000000000000000e+00  -2.0290908441196421e-06 1.6126813804027477e-06 0.0000000000000000e+00  -2.8364588600551212e-06 2.2406362731211214e-06 0.0000000000000000e+00  -3.7642835578310021e-06 2.9496053654581309e-06 0.0000000000000000e+00  -4.8533429265636156e-06 3.7642986622644290e-06 0.0000000000000000e+00  -6.1521494700700463e-06 4.7124693095971969e-06 0.0000000000000000e+00  -7.7189030788217044e-06 5.8256337642302903e-06 0.0000000000000000e+00  -9.6232060108216415e-06 7.1399461155053548e-06 0.0000000000000000e+00  -1.1946778371018688e-05 8.6974032670151704e-06 0.0000000000000000e+00  -1.4781622855690913e-05 1.0547699070992674e-05 0.0000000000000000e+00  -1.8222864476018231e-05 1.2751172148917692e-05 0.0000000000000000e+00  -2.2352103399949443e-05 1.5383112621240640e-05 0.0000000000000000e+00  -2.7206950901134072e-05 1.8538362993553253e-05 0.0000000000000000e+00  -3.2737168631229479e-05 2.2330880734795890e-05 0.0000000000000000e+00  -3.8763202734736545e-05 2.6873396564286321e-05 0.0000000000000000e+00  0.0000000000000000e+00 0.0000000000000000e+00 0.0000000000000000e+00  -5.8545223465034956e-07 4.5832847270184601e-07 0.0000000000000000e+00  -1.1965404388611359e-06 9.3320676753799414e-07 0.0000000000000000e+00  -1.8603568312231724e-06 1.4416727048665145e-06 0.0000000000000000e+00  -2.6070342108016891e-06 2.0017510775724256e-06 0.0000000000000000e+00  -3.4715781418233543e-06 2.6329615284402947e-06 0.0000000000000000e+00  -4.4960928513979984e-06 3.3568524541335840e-06 0.0000000000000000e+00  -5.7325475939304046e-06 4.1975927013437835e-06 0.0000000000000000e+00  -7.2461942242208185e-06 5.1826957542730114e-06 0.0000000000000000e+00  -9.1195933524048364e-06 6.3440474616297858e-06 0.0000000000000000e+00  -1.1456765571231452e-05 7.7196110498920616e-06 0.0000000000000000e+00  -1.4385915642517277e-05 9.3565769313905802e-06 0.0000000000000000e+00  -1.8056910091062419e-05 1.1317395369137466e-05 0.0000000000000000e+00  -2.2625624377932140e-05 1.3690970248808398e-05 0.0000000000000000e+00  -2.8212108756859306e-05 1.6611307876182150e-05 0.0000000000000000e+00  -3.4819610368757171e-05 2.0281497922223405e-05 0.0000000000000000e+00  -4.2227308543255494e-05 2.4983907817665145e-05 0.0000000000000000e+00  0.0000000000000000e+00 0.0000000000000000e+00 0.0000000000000000e+00  -5.0501711065622930e-07 3.8779225920424203e-07 0.0000000000000000e+00  -1.0330906966720745e-06 7.8940735484885874e-07 0.0000000000000000e+00  -1.6087678381051038e-06 1.2190571575312282e-06 0.0000000000000000e+00  -2.2597500036011181e-06 1.6917406877994493e-06 0.0000000000000000e+00  -3.0189100209460608e-06 2.2236459689776603e-06 0.0000000000000000e+00  -3.9269118271231318e-06 2.8325683441075128e-06 0.0000000000000000e+00  -5.0357633812471610e-06 3.5383685007161104e-06 0.0000000000000000e+00  -6.4137412355522679e-06 4.3635296281529887e-06 0.0000000000000000e+00  -8.1522107570798629e-06 5.3339647579760962e-06 0.0000000000000000e+00  -1.0374764174640920e-05 6.4804539284357017e-06 0.0000000000000000e+00  -1.3248322317570441e-05 7.8416510895707670e-06 0.0000000000000000e+00  -1.6993132814624907e-05 9.4709219578153566e-06 0.0000000000000000e+00  -2.1881164349845449e-05 1.1452127384983817e-05 0.0000000000000000e+00  -2.8195875324495060e-05 1.3934434990831445e-05 0.0000000000000000e+00  -3.6101289435263061e-05 1.7199822200739020e-05 0.0000000000000000e+00  -4.5373497549091900e-05 2.1757635099442551e-05 0.0000000000000000e+00  0.0000000000000000e+00 0.0000000000000000e+00 0.0000000000000000e+00  -4.0153037949310438e-07 3.0343722825224977e-07 0.0000000000000000e+00  -8.2204314918719466e-07 6.1757799500851017e-07 0.0000000000000000e+00  -1.2818805878871393e-06 9.5341360058770624e-07 0.0000000000000000e+00  -1.8042959630535798e-06 1.3225155882847200e-06 0.0000000000000000e+00  -2.4174096867489382e-06 1.7373222453102976e-06 0.0000000000000000e+00  -3.1568924841719194e-06 2.2114181149532674e-06 0.0000000000000000e+00  -4.0698662271100391e-06 2.7597989588924734e-06 0.0000000000000000e+00  -5.2208111966016877e-06 3.3991108765990516e-06 0.0000000000000000e+00  -6.7007574952674658e-06 4.1478576656725304e-06 0.0000000000000000e+00  -8.6417625686172157e-06 5.0266302392509390e-06 0.0000000000000000e+00  -1.1239454942725331e-05 6.0587092320949801e-06 0.0000000000000000e+00  -1.4786049457293796e-05 7.2725923582083354e-06 0.0000000000000000e+00  -1.9709808887389897e-05 8.7122802090573569e-06 0.0000000000000000e+00  -2.6588496553116079e-05 1.0474574560333061e-05 0.0000000000000000e+00  -3.6015446794325204e-05 1.2825707577006412e-05 0.0000000000000000e+00  -4.8033364716317896e-05 1.6473936330109109e-05 0.0000000000000000e+00  0.0000000000000000e+00 0.0000000000000000e+00 0.0000000000000000e+00  -2.7906598111892793e-07 2.0838236114455687e-07 0.0000000000000000e+00  -5.7167660352052685e-07 4.2405824667082044e-07 0.0000000000000000e+00  -8.9242223214516365e-07 6.5450907919371003e-07 0.0000000000000000e+00  -1.2581519376815878e-06 9.0759257762191030e-07 0.0000000000000000e+00  -1.6895507349057610e-06 1.1917179942147570e-06 0.0000000000000000e+00  -2.2133955148328467e-06 1.5159944176973221e-06 0.0000000000000000e+00  -2.8660149883976188e-06 1.8903140190588627e-06 0.0000000000000000e+00  -3.6989017503120936e-06 2.3252791357650243e-06 0.0000000000000000e+00  -4.7882724010797902e-06 2.8317559884376786e-06 0.0000000000000000e+00  -6.2521029325772909e-06 3.4195454996853280e-06 0.0000000000000000e+00  -8.2817050954668568e-06 4.0940304947358700e-06 0.0000000000000000e+00  -1.1201774097971602e-05 4.8485589852313300e-06 0.0000000000000000e+00  -1.5583358924449427e-05 5.6499738618707288e-06 0.0000000000000000e+00  -2.2432379890038580e-05 6.4260609713234312e-06 0.0000000000000000e+00  -3.3337392913122729e-05 7.1547528445626358e-06 0.0000000000000000e+00  -4.9443637416830487e-05 8.7022469932174223e-06 0.0000000000000000e+00  0.0000000000000000e+00 0.0000000000000000e+00 0.0000000000000000e+00  -1.4306084671582139e-07 1.0603693254825845e-07 0.0000000000000000e+00  -2.9317996085693921e-07 2.1576727481938856e-07 0.0000000000000000e+00  -4.5798600079034234e-07 3.3297659913231947e-07 0.0000000000000000e+00  -6.4634682752463875e-07 4.6163372224972245e-07 0.0000000000000000e+00  -8.6925644507778215e-07 6.0597078328826755e-07 0.0000000000000000e+00  -1.1411384447132035e-06 7.7053850271295725e-07 0.0000000000000000e+00  -1.4819170523414078e-06 9.6019888280597906e-07 0.0000000000000000e+00  -1.9205382119051999e-06 1.1799575778018620e-06 0.0000000000000000e+00  -2.5013714140428846e-06 1.4343737096974167e-06 0.0000000000000000e+00  -3.2967372502672240e-06 1.7258132324618208e-06 0.0000000000000000e+00  -4.4335843375590820e-06 2.0493819514978971e-06 0.0000000000000000e+00  -6.1561057243645581e-06 2.3777564720164761e-06 0.0000000000000000e+00  -8.9895302513814535e-06 2.6131841106127678e-06 0.0000000000000000e+00  -1.4219955918708539e-05 2.4250575801150933e-06 0.0000000000000000e+00  -2.5462965538840935e-05 6.6022881596105827e-07 0.0000000000000000e+00  -5.4321062872239259e-05 -6.9468392736004148e-06 0.0000000000000000e+00  0.0000000000000000e+00 0.0000000000000000e+00 0.0000000000000000e+00  0.0000000000000000e+00 0.0000000000000000e+00 0.0000000000000000e+00  0.0000000000000000e+00 0.0000000000000000e+00 0.0000000000000000e+00  0.0000000000000000e+00 0.0000000000000000e+00 0.0000000000000000e+00  0.0000000000000000e+00 0.0000000000000000e+00 0.0000000000000000e+00  0.0000000000000000e+00 0.0000000000000000e+00 0.0000000000000000e+00  0.0000000000000000e+00 0.0000000000000000e+00 0.0000000000000000e+00  0.0000000000000000e+00 0.0000000000000000e+00 0.0000000000000000e+00  0.0000000000000000e+00 0.0000000000000000e+00 0.000