<?xml version="1.0"?>
<VTKFile type="UnstructuredGrid"  version="0.1"  >
<UnstructuredGrid>
<Piece  NumberOfPoints="289" NumberOfCells="512">
<Points>
<DataArray  type="Float64"  NumberOfComponents="3"  format="ascii">0 0 0  0.0625 0 0  0.125 0 0  0.1875 0 0  0.25 0 0  0.3125 0 0  0.375 0 0  0.4375 0 0  0.5 0 0  0.5625 0 0  0.625 0 0  0.6875 0 0  0.75 0 0  0.8125 0 0  0.875 0 0  0.9375 0 0  1 0 0  0 0.0625 0  0.06249961438665013 0.06250067942955058 0  0.1249992174060898 0.06250138801393994 0  0.1874987975613892 0.06250215672282385 0  0.249998343340818 0.06250302039889517 0  0.3124978432921776 0.06250402044467045 0  0.3749972862066737 0.06250520869418881 0  0.4374966614530002 0.06250665350708889 0  0.4999959595069194 0.06250845014693651 0  0.5624951727335785 0.06251073986003074 0  0.6249942965170453 0.06251374788400442 0  0.6874933309359347 0.06251786622546147 0  0.7499922834081678 0.06252385295530465 0  0.8124911728533619 0.06253336781872591 0  0.8749900333939001 0.06255058483529825 0  0.9374888932191231 0.06258760245766075 0  0.9999875640901533 0.06268440428808922 0  0 0.125 0  0.06249924015052968 0.1250013296133125 0  0.124998457574439 0.1250027157202764 0  0.1874976292640084 0.1250042181747946 0  0.2499967321098954 0.1250059039550249 0  0.3124957430123796 0.1250078519649173 0  0.3749946392098161 0.1250101597341114 0  0.4374933989047263 0.1250129535342556 0  0.499992002271952 0.125016404702248 0  0.5624904329404041 0.1250207575381619 0  0.6249886800748492 0.125026379430409 0  0.6874867413470808 0.1250338545824629 0  0.749984627775099 0.1250441627584478 0  0.8124823743269038 0.125059010231349 0  0.8749800732093237 0.1250813371508522 0  0.9374780085442319 0.1251153952763244 0  0.9999772794127944 0.125161564542619 0  0 0.1875 0  0.06249888874951227 0.1875019232011826 0  0.1249977434761353 0.1875039268834688 0  0.1874965296811792 0.1875060959841867 0  0.2499952125362127 0.1875085247956099 0  0.3124937569566307 0.1875113229953857 0  0.374992127996494 0.1875146236518637 0  0.4374902916868358 0.1875185945655313 0  0.4999882164394408 0.1875234551608805 0  0.5624858751165339 0.1875295025434829 0  0.6249832478004216 0.1875371523767681 0  0.6874803251201101 0.1875470022309021 0  0.7499771114321242 0.1875599230096155 0  0.8124736248890678 0.1875771626301281 0  0.8749698807628622 0.1876003596980124 0  0.9374657906893036 0.1876311321912221 0  0.9999606314588488 0.1876697600793493 0  0 0.25 0  0.06249857155030417 0.2500024361975386 0  0.1249970979705845 0.2500049724229633 0  0.1874955333947619 0.2500077137553706 0  0.2499938311923368 0.2500107757516778 0  0.31249194389182 0.2500142908318512 0  0.3749898235225865 0.2500184162250713 0  0.43748742254898 0.2500233443183789 0  0.4999846955791342 0.2500293165006411 0  0.5624816020046004 0.2500366417314107 0  0.6249781096248173 0.2500457205535587 0  0.6874741990640987 0.2500570725796817 0  0.7499698682967871 0.2500713567574037 0  0.8124651358553158 0.250089350781786 0  0.8749600416709102 0.2501118070968368 0  0.9374546578224715 0.2501390326563714 0  0.9999492285867718 0.2501700428765801 0  0 0.3125 0  0.06249829969234364 0.3125028490521898 0  0.1249965435651646 0.3125058126456568 0  0.1874946747158155 0.312509010530016 0  0.2499926347791989 0.3125125731233321 0  0.3124903635488569 0.3125166476173665 0  0.3749877990952209 0.3125214050207008 0  0.4374848786191888 0.3125270484202938 0  0.4999815403202887 0.3125338225502456 0  0.5624777265679132 0.3125420241670882 0  0.6249733885933834 0.3125520112104924 0  0.6874684927009184 0.312564205228164 0  0.7499630275620996 0.3125790743339448 0  0.8124570115477221 0.3125970712652202 0  0.8749504985679589 0.3126184847766579 0  0.937443580256854 0.3126431591886161 0  0.999936367769077 0.3126700935216291 0  0 0.375 0  0.06249808385372915 0.3750031472538536 0  0.1249961019733674 0.3750064183695032 0  0.1874939870916889 0.3750099422651841 0  0.2499916694785909 0.3750138580972848 0  0.3124890760682751 0.3750183207632486 0  0.374986130119136 0.3750235067594732 0  0.4374827517140039 0.37502962026671 0  0.4999788595097852 0.3750368989482507 0  0.56247437423765 0.3750456181674374 0  0.62496922448179 0.3750560908557818 0  0.6874633551296688 0.3750686576889923 0  0.7499567384624269 0.3750836583142791 0  0.8124493870528992 0.3751013699852369 0  0.8749413665812722 0.3751218995158113 0  0.9374328059522086 0.3751450304325494 0  0.9999239039222187 0.3751700848083803 0  0 0.4375 0  0.06249793389386804 0.4375033214893251 0  0.1249957934157742 0.4375067711135239 0  0.1874935021042049 0.4375104817427955 0  0.2499909797267456 0.4375145957518827 0  0.3124881406914565 0.437519269863971 0  0.3749848929442233 0.4375246799495283 0  0.4374811377132944 0.4375310254503593 0  0.4999767706501163 0.43753853270462 0  0.5624716851455441 0.4375474557880044 0  0.6249657788183072 0.4375580724618993 0  0.6874589642419783 0.4375706714144783 0  0.7499511846377566 0.4375855254865307 0  0.8124424341393635 0.4376028450438716 0  0.8749327800333185 0.4376227085191904 0  0.9374223814112469 0.4376449771355088 0  0.9999114967406884 0.4376692192861126 0  0 0.5 0  0.06249785835763178 0.5000033674967375 0  0.1249956356255806 0.5000068626656259 0  0.1874932479814556 0.500010617534333 0  0.2499906062675038 0.5000147728352978 0  0.3124876134594771 0.5000194822970229 0  0.3749841624436385 0.5000249167122914 0  0.4374801344633374 0.5000312674249867 0  0.4999753988833702 0.5000387485695643 0  0.5624698153415303 0.5000475969542593 0  0.6249632398981938 0.5000580679234679 0  0.6874555373211976 0.5000704250072927 0  0.7499466017531106 0.500084921029299 0  0.8124363868626577 0.5001017692175806 0  0.8749249429392563 0.5001211052466956 0  0.9374124514616086 0.5001429437798295 0  0.9998992396434996 0.5001671287948536 0  0 0.5625 0  0.06249786384361197 0.562503285751897 0  0.1249956425537325 0.5625066943462507 0  0.1874932475882746 0.5625103526046439 0  0.2499905833811639 0.5625143953092455 0  0.312487543686601 0.5625189691040771 0  0.3749840078774432 0.5625242361894491 0  0.4374798374524781 0.5625303775367245 0  0.4999748733672672 0.5625375951522996 0  0.5624689354289604 0.5625461126720732 0  0.6249618259928029 0.5625561733399994 0  0.6874533415757019 0.5625680344091876 0  0.7499432973895168 0.562581957596236 0  0.8124315698669179 0.5625981969882508 0  0.8749181579830759 0.5626169889530668 0  0.9374032511568082 0.5626385511302918 0  0.9998872689983113 0.5626630924005107 0  0 0.625 0  0.06249795426684519 0.6250030810971186 0  0.1249958228243497 0.6250062762056053 0  0.18749351594174 0.6250097029558325 0  0.2499909352825604 0.6250134862616291 0  0.3124879690633291 0.625017761966142 0  0.3749844866208976 0.6250226804335134 0  0.4374803323722421 0.6250284099611003 0  0.4999753194846377 0.6250351397858713 0  0.5624692242989283 0.6250430823367499 0  0.6249617839908193 0.6250524742907335 0  0.6874527025473193 0.625063576087606 0  0.7499416741148167 0.6250766702994468 0  0.8124284370815847 0.6250920616978221 0  0.8749128718103965 0.6251100878065677 0  0.9373951366226018 0.6251311583343608 0  0.9998757819538306 0.6251558400519455 0  0 0.6875 0  0.0624981300840933 0.6875027623734455 0  0.1249961780711584 0.6875056262768664 0  0.1874940574275535 0.687508696489996 0  0.2499916718648646 0.6875120843953753 0  0.3124889094685124 0.687515911420964 0  0.3749856355510071 0.6875203126521312 0  0.4374816837509558 0.6875254406652398 0  0.4999768450125303 0.6875314696220908 0  0.5624708545794036 0.6875385996187798 0  0.6249633785926623 0.6875470611560499 0  0.6874540054458882 0.6875571193442727 0  0.749942254661901 0.6875690772633347 0  0.8124276296602539 0.6875832791928925 0  0.8749097573540193 0.687600122994021 0  0.9373886526200942 0.6876201229106824 0  0.9998650428029773 0.6876441396099408 0  0 0.75 0  0.06249838759294767 0.7500023420679394 0  0.1249967013831523 0.7500047698974108 0  0.187494863066914 0.7500073720750472 0  0.2499927842457246 0.7500102429919548 0  0.3124903599830597 0.7500134860254171 0  0.3749874604195295 0.7500172171162809 0  0.4374839193759229 0.7500215689814809 0  0.4999795185146815 0.7500266962990506 0  0.5624739653399595 0.7500327822808718 0  0.6249668636431849 0.7500400469318829 0  0.6874576776043585 0.7500487564874471 0  0.7499457000322109 0.7500592309242738 0  0.8124300610516622 0.7500718406906351 0  0.8749098715611627 0.7500869785978829 0  0.9373846822406927 0.7501050268693169 0  0.9998554022007209 0.7501266084211602 0  0 0.8125 0  0.06249871845381118 0.8125018359496442 0  0.1249973761810072 0.8125037390278702 0  0.1874959083717585 0.812505778661062 0  0.2499942409234255 0.8125080290491395 0  0.3124922842102814 0.8125105719168108 0  0.3749899245221007 0.81251349981379 0  0.4374870115892319 0.8125169203650291 0  0.4999833396341242 0.8125209621264932 0  0.5624786177691407 0.8125257830778193 0  0.6249724231237063 0.8125315831711409 0  0.6874641273893601 0.8125386220830505 0  0.7499527885887186 0.8125472396308309 0  0.8124370220827434 0.8125578596144958 0  0.8749149667210324 0.8125708993265892 0  0.937384791570869 0.8125863436815624 0  0.9998468219913882 0.8126025008781174 0  0 0.875 0  0.06249910959881989 0.8750012626472508 0  0.1249981758958974 0.8750025714549167 0  0.1874971524616915 0.8750039742232157 0  0.2499959856744936 0.8750055221910505 0  0.3124946097126932 0.8750072721047882 0  0.3749929393817035 0.875009288836736 0  0.4374908590914869 0.8750116490129514 0  0.499988204927795 0.8750144465033645 0  0.5624847339827145 0.8750178014117496 0  0.6249800693657241 0.8750218757727251 0  0.6874735973524473 0.8750269021886116 0  0.7499642692060872 0.8750332364699744 0  0.8124502211505794 0.8750414464234469 0  0.8749281222388048 0.8750523995405362 0  0.9373926299678769 0.8750669233523692 0  0.9998398491388467 0.8750822226491112 0  0 0.9375 0  0.06249954366418638 0.9375006431208839 0  0.1249990647795126 0.9375013097625623 0  0.187498539096204 0.9375020243040115 0  0.2499979384289256 0.9375028129353077 0  0.3124972278502512 0.9375037047796053 0  0.37499636156309 0.9375047333661412 0  0.4374952763355787 0.
[...]
<PointData  Vectors="f_54"> 
<DataArray  type="Float64"  Name="f_54"  NumberOfComponents="3" format="ascii">0.0000000000000000e+00 0.0000000000000000e+00 0.0000000000000000e+00  0.0000000000000000e+00 0.0000000000000000e+00 0.0000000000000000e+00  0.0000000000000000e+00 0.0000000000000000e+00 0.0000000000000000e+00  0.0000000000000000e+00 0.0000000000000000e+00 0.0000000000000000e+00  0.0000000000000000e+00 0.0000000000000000e+00 0.0000000000000000e+00  0.0000000000000000e+00 0.0000000000000000e+00 0.0000000000000000e+00  0.0000000000000000e+00 0.0000000000000000e+00 0.0000000000000000e+00  0.0000000000000000e+00 0.0000000000000000e+00 0.0000000000000000e+00  0.0000000000000000e+00 0.0000000000000000e+00 0.0000000000000000e+00  0.0000000000000000e+00 0.0000000000000000e+00 0.0000000000000000e+00  0.0000000000000000e+00 0.0000000000000000e+00 0.0000000000000000e+00  0.0000000000000000e+00 0.0000000000000000e+00 0.0000000000000000e+00  0.0000000000000000e+00 0.0000000000000000e+00 0.0000000000000000e+00  0.0000000000000000e+00 0.0000000000000000e+00 0.0000000000000000e+00  0.0000000000000000e+00 0.0000000000000000e+00 0.0000000000000000e+00  0.0000000000000000e+00 0.0000000000000000e+00 0.0000000000000000e+00  0.0000000000000000e+00 0.0000000000000000e+00 0.0000000000000000e+00  0.0000000000000000e+00 0.0000000000000000e+00 0.0000000000000000e+00  1.1887507756444470e-07 -1.1053288254460306e-07 0.0000000000000000e+00  2.4126927284421402e-07 -2.2589827833151422e-07 0.0000000000000000e+00  3.7070777727195973e-07 -3.5123257001778902e-07 0.0000000000000000e+00  5.1072254714325210e-07 -4.9232851646383326e-07 0.0000000000000000e+00  6.6483025374154084e-07 -6.5608833035492594e-07 0.0000000000000000e+00  8.3648000331352230e-07 -8.5117388628340106e-07 0.0000000000000000e+00  1.0289616148268531e-06 -1.0890256688294702e-06 0.0000000000000000e+00  1.2452671753136415e-06 -1.3855905138653955e-06 0.0000000000000000e+00  1.4879015636529788e-06 -1.7644829832566883e-06 0.0000000000000000e+00  1.7586391336205503e-06 -2.2632453902004964e-06 0.0000000000000000e+00  2.0582132752369969e-06 -2.9468579587552373e-06 0.0000000000000000e+00  2.3858671678216104e-06 -3.9398208515939229e-06 0.0000000000000000e+00  2.7384689878165245e-06 -5.5107242307916527e-06 0.0000000000000000e+00  3.1081072935105347e-06 -8.3207422514048994e-06 0.0000000000000000e+00  3.4743904287160500e-06 -1.4234561477017025e-05 0.0000000000000000e+00  3.7785148214098866e-06 -2.9225718347486128e-05 0.0000000000000000e+00  0.0000000000000000e+00 0.0000000000000000e+00 0.0000000000000000e+00  2.3423211130950172e-07 -2.1623419535609222e-07 0.0000000000000000e+00  4.7549373307175695e-07 -4.4182700042089967e-07 0.0000000000000000e+00  7.3083691458306352e-07 -6.8670073254549868e-07 0.0000000000000000e+00  1.0073474515524823e-06 -9.6198747470355631e-07 0.0000000000000000e+00  1.3121108020105489e-06 -1.2808409210945545e-06 0.0000000000000000e+00  1.6521167598054226e-06 -1.6595650564575482e-06 0.0000000000000000e+00  2.0340833421186719e-06 -2.1193117571806479e-06 0.0000000000000000e+00  2.4641843173227308e-06 -2.6888109227432083e-06 0.0000000000000000e+00  2.9476732801609483e-06 -3.4090269924955452e-06 0.0000000000000000e+00  3.4884107563606509e-06 -4.3415241919514908e-06 0.0000000000000000e+00  4.0883160593312968e-06 -5.5841544003854707e-06 0.0000000000000000e+00  4.7467682633678264e-06 -7.3012629167256451e-06 0.0000000000000000e+00  5.4599292132083727e-06 -9.7811863154074297e-06 0.0000000000000000e+00  6.2197406225528323e-06 -1.3533463388991872e-05 0.0000000000000000e+00  7.0115902321928627e-06 -1.9369144295901464e-05 0.0000000000000000e+00  7.8068371934784907e-06 -2.7894387496492837e-05 0.0000000000000000e+00  0.0000000000000000e+00 0.0000000000000000e+00 0.0000000000000000e+00  3.4256290942713937e-07 -3.1257972911612841e-07 0.0000000000000000e+00  6.9563837755421359e-07 -6.3847597312590911e-07 0.0000000000000000e+00  1.0697986696021107e-06 -9.9175490267898825e-07 0.0000000000000000e+00  1.4757173716111331e-06 -1.3880757029388067e-06 0.0000000000000000e+00  1.9241439528695188e-06 -1.8457143109070304e-06 0.0000000000000000e+00  2.4257849767545232e-06 -2.3869183336077702e-06 0.0000000000000000e+00  2.9910592549616033e-06 -3.0398194168854114e-06 0.0000000000000000e+00  3.6296985987169168e-06 -3.8412713321180253e-06 0.0000000000000000e+00  4.3501792525812382e-06 -4.8412179692939990e-06 0.0000000000000000e+00  5.1589982270746301e-06 -6.1095466575735699e-06 0.0000000000000000e+00  6.0598640727152400e-06 -7.7467499582603915e-06 0.0000000000000000e+00  7.0529770531029557e-06 -9.8994585502170111e-06 0.0000000000000000e+00  8.1348116817885698e-06 -1.2778395389957170e-05 0.0000000000000000e+00  9.2995279073850021e-06 -1.6660901133855530e-05 0.0000000000000000e+00  1.0545817388469313e-05 -2.1811167706864548e-05 0.0000000000000000e+00  1.1904279121013784e-05 -2.8152483115808386e-05 0.0000000000000000e+00  0.0000000000000000e+00 0.0000000000000000e+00 0.0000000000000000e+00  4.4038599605106986e-07 -3.9561273662133451e-07 0.0000000000000000e+00  8.9470154794690574e-07 -8.0774452833636956e-07 0.0000000000000000e+00  1.3770036719836676e-06 -1.2537672207592459e-06 0.0000000000000000e+00  1.9015790744535394e-06 -1.7528429751150757e-06 0.0000000000000000e+00  2.4829599720681631e-06 -2.3270144774297437e-06 0.0000000000000000e+00  3.1358145990435013e-06 -3.0025596877534166e-06 0.0000000000000000e+00  3.8746620776106234e-06 -3.8117504612730735e-06 0.0000000000000000e+00  4.7133614870634116e-06 -4.7951939322273757e-06 0.0000000000000000e+00  5.6643367333926348e-06 -6.0049556427568603e-06 0.0000000000000000e+00  6.7375330088361331e-06 -7.5085759940072120e-06 0.0000000000000000e+00  7.9391720998679748e-06 -9.3936400862724864e-06 0.0000000000000000e+00  9.2704992548159228e-06 -1.1771083249374467e-05 0.0000000000000000e+00  1.0726898200327036e-05 -1.4771453433297592e-05 0.0000000000000000e+00  1.2297904169679540e-05 -1.8519649120409534e-05 0.0000000000000000e+00  1.3968115442427681e-05 -2.3060838321644589e-05 0.0000000000000000e+00  1.5713924540213136e-05 -2.8216432412893756e-05 0.0000000000000000e+00  0.0000000000000000e+00 0.0000000000000000e+00 0.0000000000000000e+00  5.2428509844818488e-07 -4.6213093864008891e-07 0.0000000000000000e+00  1.0657822375800383e-06 -9.4312464550132911e-07 0.0000000000000000e+00  1.6419378480902323e-06 -1.4627266044938142e-06 0.0000000000000000e+00  2.2706358458285509e-06 -2.0425113527358870e-06 0.0000000000000000e+00  2.9703006705116111e-06 -2.7069330084773498e-06 0.0000000000000000e+00  3.7598474757219803e-06 -3.4845404057954107e-06 0.0000000000000000e+00  4.6584069957002525e-06 -4.4094028970247117e-06 0.0000000000000000e+00  5.6847415168648090e-06 -5.5227557675799042e-06 0.0000000000000000e+00  6.8562676633276171e-06 -6.8747664991424052e-06 0.0000000000000000e+00  8.1876260458112387e-06 -8.5260537620800702e-06 0.0000000000000000e+00  9.6888086120945676e-06 -1.0547982778366702e-05 0.0000000000000000e+00  1.1362995312338901e-05 -1.3019523903587244e-05 0.0000000000000000e+00  1.3204470036262385e-05 -1.6016311565534843e-05 0.0000000000000000e+00  1.5197230940415712e-05 -1.9584904060691205e-05 0.0000000000000000e+00  1.7315040757454231e-05 -2.3695517506967769e-05 0.0000000000000000e+00  1.9523896131448434e-05 -2.8179968376279588e-05 0.0000000000000000e+00  0.0000000000000000e+00 0.0000000000000000e+00 0.0000000000000000e+00  5.9097749089924905e-07 -5.0978997574061758e-07 0.0000000000000000e+00  1.2022083031048676e-06 -1.0398982800533712e-06 0.0000000000000000e+00  1.8543318686856179e-06 -1.6115025741891793e-06 0.0000000000000000e+00  2.5687261934271991e-06 -2.2475388595204095e-06 0.0000000000000000e+00  3.3677577558724638e-06 -2.9736570101740603e-06 0.0000000000000000e+00  4.2748639253356383e-06 -3.8192501489326714e-06 0.0000000000000000e+00  5.3143715208034221e-06 -4.8185385784043910e-06 0.0000000000000000e+00  6.5109241652998819e-06 -6.0116178712104152e-06 0.0000000000000000e+00  7.8883631835914142e-06 -7.4452363156513345e-06 0.0000000000000000e+00  9.4678998259799707e-06 -9.1727929653328410e-06 0.0000000000000000e+00  1.1265463018585176e-05 -1.1252572485988262e-05 0.0000000000000000e+00  1.3288255101323509e-05 -1.3742521863879503e-05 0.0000000000000000e+00  1.5530851345733926e-05 -1.6689109577844627e-05 0.0000000000000000e+00  1.7971657924709546e-05 -2.0107838194945654e-05 0.0000000000000000e+00  2.0571117475541021e-05 -2.3956055472527365e-05 0.0000000000000000e+00  2.3273459728407096e-05 -2.8108641257268012e-05 0.0000000000000000e+00  0.0000000000000000e+00 0.0000000000000000e+00 0.0000000000000000e+00  6.3742069109450454e-07 -5.3713286834780975e-07 0.0000000000000000e+00  1.2977442323543160e-06 -1.0951762577860460e-06 0.0000000000000000e+00  2.0044561184667239e-06 -1.6958444698972230e-06 0.0000000000000000e+00  2.7821784660752989e-06 -2.3624790662250494e-06 0.0000000000000000e+00  3.6571373908519326e-06 -3.1208957911739688e-06 0.0000000000000000e+00  4.6574741084472219e-06 -4.0002474198865746e-06 0.0000000000000000e+00  5.8132846640433928e-06 -5.0338561613813875e-06 0.0000000000000000e+00  7.1562141200750926e-06 -6.2598992161148048e-06 0.0000000000000000e+00  8.7183580245024960e-06 -7.7217062748046091e-06 0.0000000000000000e+00  1.0530153185881717e-05 -9.4672208577879544e-06 0.0000000000000000e+00  1.2616913199958312e-05 -1.1546870580550078e-05 0.0000000000000000e+00  1.4993766462429363e-05 -1.4008723160007783e-05 0.0000000000000000e+00  1.7659122168702040e-05 -1.6889576980864088e-05 0.0000000000000000e+00  2.0587583054446430e-05 -2.0201081840213109e-05 0.0000000000000000e+00  2.3724506097789601e-05 -2.3912045037560538e-05 0.0000000000000000e+00  2.6985886032570643e-05 -2.7932406430570984e-05 0.0000000000000000e+00  0.0000000000000000e+00 0.0000000000000000e+00 0.0000000000000000e+00  6.6096314225506409e-07 -5.4356547547236771e-07 0.0000000000000000e+00  1.3468923473048889e-06 -1.1078278090138454e-06 0.0000000000000000e+00  2.0835687486396534e-06 -1.7142159755182578e-06 0.0000000000000000e+00  2.8983911073356259e-06 -2.3856298141440202e-06 0.0000000000000000e+00  3.8211340869068503e-06 -3.1471876084663713e-06 0.0000000000000000e+00  4.8846032152512792e-06 -4.0269687352834701e-06 0.0000000000000000e+00  6.1250701011356700e-06 -5.0567109189217356e-06 0.0000000000000000e+00  7.5822808528123620e-06 -6.2723745123942313e-06 0.0000000000000000e+00  9.2986963602843091e-06 -7.7144083500191254e-06 0.0000000000000000e+00  1.1317446377170724e-05 -9.4274297989728212e-06 0.0000000000000000e+00  1.3678294917543750e-05 -1.1458854614598442e-05 0.0000000000000000e+00  1.6410833965098097e-05 -1.3855784880672734e-05 0.0000000000000000e+00  1.9524394660252000e-05 -1.6659236650464603e-05 0.0000000000000000e+00  2.2995209837463421e-05 -1.9894713119141323e-05 0.0000000000000000e+00  2.6753652550092977e-05 -2.3558517540210839e-05 0.0000000000000000e+00  3.0678019490709380e-05 -2.7600532010521676e-05 0.0000000000000000e+00  0.0000000000000000e+00 0.0000000000000000e+00 0.0000000000000000e+00  6.5953903660053401e-07 -5.2929928911376290e-07 0.0000000000000000e+00  1.3452911096167131e-06 -1.0783497836368540e-06 0.0000000000000000e+00  2.0845314598824580e-06 -1.6675556995141099e-06 0.0000000000000000e+00  2.9066771060142617e-06 -2.3186272207356021e-06 0.0000000000000000e+00  3.8443962835246507e-06 -3.0552420513796086e-06 0.0000000000000000e+00  4.9347237879263131e-06 -3.9037082931629563e-06 0.0000000000000000e+00  6.2200988927614815e-06 -4.8936141167587577e-06 0.0000000000000000e+00  7.7491295959131785e-06 -6.0584362776042281e-06 0.0000000000000000e+00  9.5766901237098958e-06 -7.4360619088545065e-06 0.0000000000000000e+00  1.1762641123248422e-05 -9.0691521961335264e-06 0.0000000000000000e+00  1.4368007908363340e-05 -1.1005224514513079e-05 0.0000000000000000e+00  1.7446939730525440e-05 -1.3296192104107227e-05 0.0000000000000000e+00  2.1032529677558770e-05 -1.5996724240173717e-05 0.0000000000000000e+00  2.5115398189007296e-05 -1.9159877237623451e-05 0.0000000000000000e+00  2.9617136782874203e-05 -2.2826684055255458e-05 0.0000000000000000e+00  3.4367154520558524e-05 -2.7004340936302550e-05 0.0000000000000000e+00  0.0000000000000000e+00 0.0000000000000000e+00 0.0000000000000000e+00  6.3189859905256754e-07 -4.9527789008928965e-07 0.0000000000000000e+00  1.2901965135403207e-06 -1.0087105586850059e-06 0.0000000000000000e+00  2.0025818105377117e-06 -1.5590217159321582e-06 0.0000000000000000e+00  2.7993801747002033e-06 -2.1660699862955726e-06 0.0000000000000000e+00  3.7150380009672915e-06 -2.8514291445205447e-06 0.0000000000000000e+00  4.7897815356522009e-06 -3.6389857131429613e-06 0.0000000000000000e+00  6.0714539202715748e-06 -4.5555689754944901e-06 0.0000000000000000e+00  7.6174286469096745e-06 -5.6316493251130455e-06 0.0000000000000000e+00  9.4962753254050361e-06 -6.9021875669605622e-06 0.0000000000000000e+00  1.1788411190282512e-05 -8.4078060995037682e-06 0.0000000000000000e+00  1.4584169588388532e-05 -1.0196585222234476e-05 0.0000000000000000e+00  1.7976444650871670e-05 -1.2326893198137222e-05 0.0000000000000000e+00  2.2043514436272991e-05 -1.4871430569384892e-05 0.0000000000000000e+00  2.6816944184830410e-05 -1.7921232260192239e-05 0.0000000000000000e+00  3.2232688003528313e-05 -2.1583893235707215e-05 0.0000000000000000e+00  3.8074868863420788e-05 -2.5960485912168157e-05 0.0000000000000000e+00  0.0000000000000000e+00 0.0000000000000000e+00 0.0000000000000000e+00  5.7785296394628907e-07 -4.4309602575043125e-07 0.0000000000000000e+00  1.1810067206221036e-06 -9.0218541791361721e-07 0.0000000000000000e+00  1.8362090611256675e-06 -1.3937409011948637e-06 0.0000000000000000e+00  2.5732110290156310e-06 -1.9351889464434218e-06 0.0000000000000000e+00  3.4265778717445371e-06 -2.5454013130603200e-06 0.0000000000000000e+00  4.4378902011094246e-06 -3.2452122576493094e-06 0.0000000000000000e+00  5.6584818324934656e-06 -4.0579929122618582e-06 0.0000000000000000e+00  7.1528269070616028e-06 -5.0103568211784668e-06 0.0000000000000000e+00  9.0025411338981580e-06 -6.1331658808779478e-06 0.0000000000000000e+00  1.1310534356432883e-05 -7.4632060827981759e-06 0.0000000000000000e+00  1.4203811227688829e-05 -9.0462901910877304e-06 0.0000000000000000e+00  1.7831199454652145e-05 -1.0943199526652684e-05 0.0000000000000000e+00  2.2348272509106850e-05 -1.3240672201354285e-05 0.0000000000000000e+00  2.7876448646341336e-05 -1.6069515178050937e-05 0.0000000000000000e+00  3.4422266400789561e-05 -1.9627003114625762e-05 0.0000000000000000e+00  4.1763728619949199e-05 -2.4182078843066627e-05 0.0000000000000000e+00  0.0000000000000000e+00 0.0000000000000000e+00 0.0000000000000000e+00  4.9849870272239388e-07 -3.7491404954745501e-07 0.0000000000000000e+00  1.0197584238693612e-06 -7.6318571603920949e-07 0.0000000000000000e+00  1.5880242733158306e-06 -1.1785567801807267e-06 0.0000000000000000e+00  2.2306614025338354e-06 -1.6355296492870861e-06 0.0000000000000000e+00  2.9801524400480688e-06 -2.1497563461002006e-06 0.0000000000000000e+00  3.8766942415134276e-06 -2.7384437498403089e-06 0.0000000000000000e+00  4.9717240581443217e-06 -3.4207982489426997e-06 0.0000000000000000e+00  6.3328158350918342e-06 -4.2185690884587152e-06 0.0000000000000000e+00  8.0504804893874194e-06 -5.1568413984603293e-06 0.0000000000000000e+00  1.0247324266014378e-05 -6.2654592679492412e-06 0.0000000000000000e+00  1.3089304681952549e-05 -7.5820228539474294e-06 0.0000000000000000e+00  1.6796278350714460e-05 -9.1587359697863121e-06 0.0000000000000000e+00  2.1642040839027764e-05 -1.1078265566457893e-05 0.0000000000000000e+00  2.7918609689349851e-05 -1.3488811650338040e-05 0.0000000000000000e+00  3.5816767063251225e-05 -1.6672181559398347e-05 0.0000000000000000e+00  4.5183972328587096e-05 -2.1138118741651934e-05 0.0000000000000000e+00  0.0000000000000000e+00 0.0000000000000000e+00 0.0000000000000000e+00  3.9637461954126842e-07 -2.9336741136933460e-07 0.0000000000000000e+00  8.1149296559630175e-07 -5.9707784629380435e-07 0.0000000000000000e+00  1.2654544029551236e-06 -9.2175980950193215e-07 0.0000000000000000e+00  1.7812403517854964e-06 -1.2786022790501139e-06 0.0000000000000000e+00  2.3866535682941496e-06 -1.6796317632962706e-06 0.0000000000000000e+00  3.1169803500395861e-06 -2.1379823181209217e-06 0.0000000000000000e+00  4.0188643421920658e-06 -2.6681510382002506e-06 0.0000000000000000e+00  5.1561783388951239e-06 -3.2862279731945551e-06 0.0000000000000000e+00  6.6191701119680534e-06 -4.0100954309093810e-06 0.0000000000000000e+00  8.5388887851270049e-06 -4.8596535840973914e-06 0.0000000000000000e+00  1.1109706042859255e-05 -5.8574342138299046e-06 0.0000000000000000e+00  1.4622491875513088e-05 -7.0311912718892913e-06 0.0000000000000000e+00  1.9505028548626188e-05 -8.4244360861735732e-06 0.0000000000000000e+00  2.6339434251094271e-05 -1.0134695364398108e-05 0.0000000000000000e+00  3.5742743370634238e-05 -1.2434071009731942e-05 0.0000000000000000e+00  4.7848362845460065e-05 -1.6059172445386580e-05 0.0000000000000000e+00  0.0000000000000000e+00 0.0000000000000000e+00 0.0000000000000000e+00  2.7549821314484568e-07 -2.0147119732596643e-07 0.0000000000000000e+00  5.6437347442090356e-07 -4.0999015817829961e-07 0.0000000000000000e+00  8.8104605962069083e-07 -6.3279175767289490e-07 0.0000000000000000e+00  1.2421738602908476e-06 -8.7747410464353767e-07 0.0000000000000000e+00  1.6682168293117224e-06 -1.1521676231707910e-06 0.0000000000000000e+00  2.1856758270267698e-06 -1.4656772198620721e-06 0.0000000000000000e+00  2.8305274736421029e-06 -1.8275594714571891e-06 0.0000000000000000e+00  3.6537951612839896e-06 -2.2480437930057228e-06 0.0000000000000000e+00  4.7310336978714722e-06 -2.7375803754433624e-06 0.0000000000000000e+00  6.1792098216575466e-06 -3.3055048615108440e-06 0.0000000000000000e+00  8.1879324538994243e-06 -3.9566760632622548e-06 0.0000000000000000e+00  1.1078687553569486e-05 -4.6838319650008798e-06 0.0000000000000000e+00  1.5415898117375826e-05 -5.4530046611338651e-06 0.0000000000000000e+00  2.2191361868066756e-05 -6.1904084386538971e-06 0.0000000000000000e+00  3.2966545095052133e-05 -6.8687629673659388e-06 0.0000000000000000e+00  4.8856651634375116e-05 -8.3337423845795441e-06 0.0000000000000000e+00  0.0000000000000000e+00 0.0000000000000000e+00 0.0000000000000000e+00  1.4123753520033242e-07 -1.0252187884017867e-07 0.0000000000000000e+00  2.8944701002600751e-07 -2.0861273723957953e-07 0.0000000000000000e+00  4.5216963250905197e-07 -3.2193356994215522e-07 0.0000000000000000e+00  6.3817469554607874e-07 -4.4632215148683601e-07 0.0000000000000000e+00  8.5833955449613273e-07 -5.8587009880913100e-07 0.0000000000000000e+00  1.1269432430882918e-06 -7.4497513702878099e-07 0.0000000000000000e+00  1.4637217311894830e-06 -9.2833082232714887e-07 0.0000000000000000e+00  1.8973597232763290e-06 -1.1407557999956407e-06 0.0000000000000000e+00  2.4718299236689231e-06 -1.3865996435197928e-06 0.0000000000000000e+00  3.2587696998155059e-06 -1.6679885184328732e-06 0.0000000000000000e+00  4.3837573149281832e-06 -1.9797366623221136e-06 0.0000000000000000e+00  6.0877762909731449e-06 -2.2941093598193053e-06 0.0000000000000000e+00  8.8874297324478429e-06 -2.5126206660416169e-06 0.0000000000000000e+00  1.4042593583009522e-05 -2.3031787228569008e-06 0.0000000000000000e+00  2.5077606084654717e-05 -5.1132181621822028e-07 0.0000000000000000e+00  5.3209666171787301e-05 7.1021481542727295e-06 0.0000000000000000e+00  0.0000000000000000e+00 0.0000000000000000e+00 0.0000000000000000e+00  0.0000000000000000e+00 0.0000000000000000e+00 0.0000000000000000e+00  0.0000000000000000e+00 0.0000000000000000e+00 0.0000000000000000e+00  0.0000000000000000e+00 0.0000000000000000e+00 0.0000000000000000e+00  0.0000000000000000e+00 0.0000000000000000e+00 0.0000000000000000e+00  0.0000000000000000e+00 0.0000000000000000e+00 0.0000000000000000e+00  0.0000000000000000e+00 0.0000000000000000e+00 0.0000000000000000e+00  0.0000000000000000e+00 0.0000000000000000e+00 0.0000000000000000e+00  0.0000000000000000e+00 0.0000000000000000e+00 0.00000