<?xml version="1.0"?>
<VTKFile type="UnstructuredGrid"  version="0.1"  >
<UnstructuredGrid>
<Piece  NumberOfPoints="289" NumberOfCells="512">
<Points>
<DataArray  type="Float64"  NumberOfComponents="3"  format="ascii">0 0 0  0.0625 0 0  0.125 0 0  0.1875 0 0  0.25 0 0  0.3125 0 0  0.375 0 0  0.4375 0 0  0.5 0 0  0.5625 0 0  0.625 0 0  0.6875 0 0  0.75 0 0  0.8125 0 0  0.875 0 0  0.9375 0 0  1 0 0  0 0.0625 0  0.06249901535598695 0.06250070385035079 0  0.1249980017724627 0.06250143825358044 0  0.1874969301962822 0.0625022356723824 0  0.249995771586965 0.06250313264557468 0  0.3124944971404522 0.0625041725962219 0  0.3749930787796945 0.06250540985478772 0  0.4374914899932572 0.06250691595778192 0  0.4999897070826249 0.06250879032050934 0  0.5624877108378795 0.06251117973788065 0  0.6249854886014059 0.06251431686165855 0  0.6874830366437857 0.06251860264554815 0  0.7499803629953159 0.06252479978642873 0  0.8124774924245911 0.06253453395375107 0  0.8749744831884013 0.06255173536125515 0  0.9374715039995728 0.06258723506303308 0  0.9999692119142402 0.06267488355750526 0  0 0.125 0  0.0624980596463042 0.1250013770728157 0  0.1249960614379241 0.1250028133391591 0  0.1874939472138143 0.1250043715363705 0  0.2499916586594397 0.1250061219165289 0  0.312489137666258 0.1250081472774714 0  0.3749863272327972 0.1250105499434262 0  0.4374831730837352 0.1250134622550975 0  0.4999796261497674 0.1250170634463662 0  0.5624756459684548 0.1250216084713605 0  0.6249712049042382 0.1250274799224932 0  0.6874662927892522 0.1250352858279898 0  0.7499609209638894 0.1250460497383116 0  0.8124551227837343 0.1250615812894748 0  0.8749489393132818 0.125085150046604 0  0.9374423368315336 0.1251223450344727 0  0.9999347829844402 0.1251797712389192 0  0 0.1875 0  0.06249716185726453 0.1875019910181502 0  0.1249942370924038 0.1875040663317014 0  0.1874911384259761 0.1875063149528396 0  0.2499877779009669 0.1875088357989334 0  0.3124840671951583 0.1875117440380384 0  0.3749799187579821 0.1875151794630533 0  0.4374752480708527 0.1875193182902528 0  0.4999699773060379 0.1875243906685024 0  0.5624640405660627 0.1875307076846913 0  0.6249573906777829 0.1875387039392156 0  0.6874500071499096 0.1875490043539868 0  0.7499419043975231 0.1875625230297654 0  0.812433139067971 0.1875805815171119 0  0.8749238177466271 0.1876049361898271 0  0.9374141264420186 0.1876372563689554 0  0.9999045293104091 0.1876766285225646 0  0 0.25 0  0.0624963508071969 0.2500025205779949 0  0.1249925866738936 0.2500051458465742 0  0.1874885914155475 0.2500079858708226 0  0.2499842471118273 0.2500111618715509 0  0.3124794340829619 0.2500148129903932 0  0.3749740319654682 0.2500191046587723 0  0.4374679223429062 0.2500242394152998 0  0.4999609934092937 0.250030471260084 0  0.5624531470852453 0.2500381247698757 0  0.624944308795796 0.2500476196976071 0  0.6874344396657899 0.2500594990721208 0  0.7499235501205205 0.2500744497341524 0  0.8124117127712351 0.2500932792510367 0  0.8748990707607566 0.250116756165864 0  0.9373858318587005 0.2501451313263498 0  0.9998721984333092 0.2501772007328319 0  0 0.3125 0  0.06249565483772631 0.3125029453540902 0  0.1249911674294026 0.3125060104315123 0  0.1874863933937118 0.312509320533905 0  0.2499811848622534 0.3125130124047076 0  0.3124753897153837 0.3125172407690693 0  0.3749688521435079 0.3125221858509682 0  0.4374614151752205 0.3125280621195973 0  0.4999529259330964 0.3125351282665331 0  0.5624432444296925 0.3125436977182077 0  0.624932256589235 0.3125541472791185 0  0.687419891708956 0.3125669176768331 0  0.7499061435588467 0.3125824920240501 0  0.8123910926099198 0.3126013247313962 0  0.8748749245794326 0.3126236771182783 0  0.9373579386197026 0.3126493207741411 0  0.9998405439191921 0.3126771739576864 0  0 0.375 0  0.06249510124590438 0.3750032503147094 0  0.1249900348515633 0.3750066298179349 0  0.1874846298000339 0.3750102731509358 0  0.2499787090302381 0.3750143260247122 0  0.3124720874145429 0.3750189512108432 0  0.3749645711666545 0.3750243349532149 0  0.437455959511117 0.3750306936415402 0  0.4999460497269532 0.3750382801101926 0  0.5624346469497505 0.3750473879652526 0  0.6249215802371126 0.3750583505334253 0  0.6874067261067618 0.375071527907987 0  0.7498900396350768 0.3750872709265218 0  0.8123715907826465 0.3751058459790275 0  0.8748515996815338 0.3751273049054306 0  0.9373304599588744 0.3751513044187048 0  0.9998087363247931 0.3751769412740026 0  0 0.4375 0  0.06249471538557719 0.4375034259996928 0  0.1249892409267302 0.4375069852067602 0  0.1874833818098387 0.4375108159562329 0  0.2499769337939484 0.437515066921089 0  0.3124696793277453 0.4375199024884054 0  0.3749613849751751 0.437525508223579 0  0.4374518011186119 0.4375320961074872 0  0.4999406654142053 0.437539908757573 0  0.5624277121068493 0.4375492209872416 0  0.6249126899433289 0.4375603356123046 0  0.6873953917069101 0.4375735682146765 0  0.7498756976342753 0.4375892128134343 0  0.8123536320459817 0.4376074783701319 0  0.8748294261859699 0.4376283884476427 0  0.9373035703099891 0.437651649994344 0  0.9997768274681942 0.4376765280127121 0  0 0.5 0  0.06249451939298185 0.5000034683983549 0  0.1249888315825081 0.5000070688950783 0  0.1874827225238199 0.5000109382865797 0  0.2499759646680527 0.5000152228171575 0  0.3124683106049045 0.5000200830062883 0  0.3749594875393416 0.5000256984792781 0  0.4374491935586716 0.5000322725568792 0  0.4999370974005923 0.5000400360468392 0  0.5624228445549597 0.5000492491354749 0  0.624906074016028 0.500060199360758 0  0.6873864515626306 0.5000731921777999 0  0.749863726153586 0.5000885284406289 0  0.8123378138220181 0.5001064603090577 0  0.8748089049412183 0.5001271146245532 0  0.9372775725533976 0.5001503740379916 0  0.999744833115271 0.5001757197970719 0  0 0.5625 0  0.06249453054011506 0.5625033786295814 0  0.1249888433145637 0.5625068835423623 0  0.1874827117354205 0.5625106452320812 0  0.2499758912899687 0.5625148026726109 0  0.312468110219379 0.5625195076662336 0  0.3749590600921086 0.5625249292836646 0  0.437448386928977 0.5625312583623557 0  0.4999356844600825 0.5625387119713633 0  0.562420492710798 0.5625475376583177 0  0.6249023077342768 0.5625580170891339 0  0.687380612067513 0.5625704681090984 0  0.7498549397260194 0.5625852425447068 0  0.8123249914670627 0.562602712466312 0  0.874790808741752 0.5626232269467633 0  0.9372529868591604 0.5626470015294474 0  0.9997128523565199 0.5626738799099156 0  0 0.625 0  0.06249475929507068 0.6250031625183887 0  0.1249892991249775 0.625006441278115 0  0.1874833893972757 0.6250099561943696 0  0.2499767779402274 0.6250138346077626 0  0.3124691780553632 0.6250182151440097 0  0.3749602545317893 0.6250232517949772 0  0.4374496080532322 0.6250291184155871 0  0.4999367587557765 0.6250360140452959 0  0.5624211314974938 0.6250441698999704 0  0.6249020490200725 0.6250538596511451 0  0.687378745797729 0.6250654156634683 0  0.7498504259292785 0.6250792543843725 0  0.812316401364925 0.6250959108816799 0  0.8747763520407957 0.6251160666826755 0  0.937230718933577 0.6251405080347475 0  0.9996811290466984 0.6251698522418143 0  0 0.6875 0  0.06249520727025153 0.6875028301147301 0  0.1249902041206604 0.6875057627319824 0  0.1874847682596606 0.6875089034373312 0  0.249978652283041 0.687512364063688 0  0.3124715685134874 0.6875162659592304 0  0.3749631705243854 0.6875207435126705 0  0.4374530300731625 0.6875259482371261 0  0.4999406084067403 0.6875320540987949 0  0.5624252220538378 0.6875392656317364 0  0.6249060066574005 0.6875478321770558 0  0.6873818909191134 0.6875580750821292 0  0.7498516111695264 0.6875704406289506 0  0.8123138310563942 0.687585598561015 0  0.8747674769771375 0.6876046036193434 0  0.9372124123934898 0.6876290846939185 0  0.9996504009299647 0.687661218387105 0  0 0.75 0  0.06249586535436197 0.750002395162393 0  0.1249915413797796 0.7500048759774932 0  0.1874868266166692 0.7500075305421815 0  0.2499814935622971 0.7500104518987502 0  0.3124752720019612 0.7500137405720788 0  0.3749678273134622 0.7500175072350379 0  0.4374587309618073 0.7500218756891812 0  0.4999474194399361 0.7500269866532969 0  0.5624331370460952 0.7500330036525975 0  0.6249148583616149 0.7500401243618623 0  0.6873911918810135 0.7500486059517524 0  0.7498602869411349 0.7500588255765236 0  0.8123198244335907 0.750071425202534 0  0.8747673045903321 0.7500876415152173 0  0.937201054066139 0.7501099676055575 0  0.9996223626707242 0.7501431024076793 0  0 0.8125 0  0.06249671242316889 0.8125018745122822 0  0.1249932689380179 0.8125038153533352 0  0.1874895025869698 0.8125058906372338 0  0.2499852224045841 0.8125081720633018 0  0.3124801972872906 0.8125107366468101 0  0.3749741338528138 0.8125136683343304 0  0.4374666442284391 0.8125170593840711 0  0.4999571972221113 0.8125210113140692 0  0.5624450422122448 0.8125256351986169 0  0.624929088843524 0.8125310515360277 0  0.6874077183308464 0.8125373925303426 0  0.7498785026514329 0.8125448207542838 0  0.8123378536485352 0.8125536190843022 0  0.8747808409250486 0.8125645409565713 0  0.9372021202179878 0.8125799826883428 0  0.9996002730249366 0.8126071896974294 0  0 0.875 0  0.06249771506173277 0.8750012874855428 0  0.1249953188727071 0.8750026201618353 0  0.1874926916978931 0.8750040443661711 0  0.2499896951997634 0.8750056087089446 0  0.3124861594660594 0.875007365059399 0  0.3749818644689155 0.8750093692275225 0  0.4374765116649799 0.8750116809366636 0  0.4999696780129053 0.8750143621442795 0  0.5624607378081181 0.8750174715108855 0  0.6249487236809361 0.8750210499234 0  0.687432069226974 0.8750250856643439 0  0.749908118839323 0.8750294360843672 0  0.8123721984864686 0.8750336727870637 0  0.8748160263965112 0.8750368893532944 0  0.9372262484426319 0.8750381739509832 0  0.9995915308122703 0.875042578160852 0  0 0.9375 0  0.06249882865658265 0.937500655214288 0  0.124997599344583 0.9375013333101491 0  0.1874962494734216 0.937502057723485 0  0.2499947062602809 0.9375028529747513 0  0.3124928794524118 0.9375037450843524 0  0.3749906506522431 0.9375047617236137 0  0.4374878564061597 0.
[...]
<PointData  Vectors="f_54"> 
<DataArray  type="Float64"  Name="f_54"  NumberOfComponents="3" format="ascii">0.0000000000000000e+00 0.0000000000000000e+00 0.0000000000000000e+00  0.0000000000000000e+00 0.0000000000000000e+00 0.0000000000000000e+00  0.0000000000000000e+00 0.0000000000000000e+00 0.0000000000000000e+00  0.0000000000000000e+00 0.0000000000000000e+00 0.0000000000000000e+00  0.0000000000000000e+00 0.0000000000000000e+00 0.0000000000000000e+00  0.0000000000000000e+00 0.0000000000000000e+00 0.0000000000000000e+00  0.0000000000000000e+00 0.0000000000000000e+00 0.0000000000000000e+00  0.0000000000000000e+00 0.0000000000000000e+00 0.0000000000000000e+00  0.0000000000000000e+00 0.0000000000000000e+00 0.0000000000000000e+00  0.0000000000000000e+00 0.0000000000000000e+00 0.0000000000000000e+00  0.0000000000000000e+00 0.0000000000000000e+00 0.0000000000000000e+00  0.0000000000000000e+00 0.0000000000000000e+00 0.0000000000000000e+00  0.0000000000000000e+00 0.0000000000000000e+00 0.0000000000000000e+00  0.0000000000000000e+00 0.0000000000000000e+00 0.0000000000000000e+00  0.0000000000000000e+00 0.0000000000000000e+00 0.0000000000000000e+00  0.0000000000000000e+00 0.0000000000000000e+00 0.0000000000000000e+00  0.0000000000000000e+00 0.0000000000000000e+00 0.0000000000000000e+00  0.0000000000000000e+00 0.0000000000000000e+00 0.0000000000000000e+00  -1.0450776447839225e-07 1.0735262628657579e-07 0.0000000000000000e+00  -2.1215013303916676e-07 2.1935336372902666e-07 0.0000000000000000e+00  -3.2606704123263201e-07 3.4093700597275627e-07 0.0000000000000000e+00  -4.4940226353867928e-07 4.7765788236289178e-07 0.0000000000000000e+00  -5.8527638089090397e-07 6.3611750322528821e-07 0.0000000000000000e+00  -7.3672267751610169e-07 8.2457892901512581e-07 0.0000000000000000e+00  -9.0656953602205013e-07 1.0539317050895366e-06 0.0000000000000000e+00  -1.0972494399318018e-06 1.3393333302465084e-06 0.0000000000000000e+00  -1.3105095593363697e-06 1.7032246282113216e-06 0.0000000000000000e+00  -1.5469885479913663e-06 2.1813269304804251e-06 0.0000000000000000e+00  -1.8055952374537129e-06 2.8356474310371087e-06 0.0000000000000000e+00  -2.0825298269009652e-06 3.7855313337093334e-06 0.0000000000000000e+00  -2.3694636997419391e-06 5.2900411920853442e-06 0.0000000000000000e+00  -2.6493009449215064e-06 7.9918103306552582e-06 0.0000000000000000e+00  -2.8844197509579220e-06 1.3719307859648399e-05 0.0000000000000000e+00  -2.9819323523972998e-06 2.8385122489836342e-05 0.0000000000000000e+00  0.0000000000000000e+00 0.0000000000000000e+00 0.0000000000000000e+00  -2.0587991437046476e-07 2.1005602790852167e-07 0.0000000000000000e+00  -4.1802102246835182e-07 4.2911867299864350e-07 0.0000000000000000e+00  -6.4270660201025071e-07 6.6672639289436221e-07 0.0000000000000000e+00  -8.8625078807457446e-07 9.3355934177604433e-07 0.0000000000000000e+00  -1.1549583575496646e-06 1.2422049408562631e-06 0.0000000000000000e+00  -1.4550129752418173e-06 1.6082225117446808e-06 0.0000000000000000e+00  -1.7922619462670343e-06 2.0517467109389623e-06 0.0000000000000000e+00  -2.1718594074774832e-06 2.6000721903576042e-06 0.0000000000000000e+00  -2.5977231971604517e-06 3.2920744858889182e-06 0.0000000000000000e+00  -3.0717534028787240e-06 4.1861733292426783e-06 0.0000000000000000e+00  -3.5927504471908717e-06 5.3752915475647880e-06 0.0000000000000000e+00  -4.1549442694302159e-06 7.0156333071801622e-06 0.0000000000000000e+00  -4.7459388803839306e-06 9.3810900307683532e-06 0.0000000000000000e+00  -5.3433643309031823e-06 1.2952784331601835e-05 0.0000000000000000e+00  -5.9069240853056190e-06 1.8476811358890285e-05 0.0000000000000000e+00  -6.3487662148108483e-06 2.6377954262255053e-05 0.0000000000000000e+00  0.0000000000000000e+00 0.0000000000000000e+00 0.0000000000000000e+00  -3.0099188016298781e-07 3.0375360003293427e-07 0.0000000000000000e+00  -6.1134479022962929e-07 6.2033558928959585e-07 0.0000000000000000e+00  -9.4048051631218382e-07 9.6328192585543713e-07 0.0000000000000000e+00  -1.2979233444854160e-06 1.3476321566067155e-06 0.0000000000000000e+00  -1.6932735570278164e-06 1.7908937529748960e-06 0.0000000000000000e+00  -2.1360800210580108e-06 2.3143170201359212e-06 0.0000000000000000e+00  -2.6355654672227235e-06 2.9446941779756506e-06 0.0000000000000000e+00  -3.2001488454764790e-06 3.7170314208811025e-06 0.0000000000000000e+00  -3.8367008893599680e-06 4.6786675558256182e-06 0.0000000000000000e+00  -4.5494672979784896e-06 5.8957469175126726e-06 0.0000000000000000e+00  -5.3386159532839091e-06 7.4633004189982730e-06 0.0000000000000000e+00  -6.1984720399998224e-06 9.5199240005451004e-06 0.0000000000000000e+00  -7.1159393651774851e-06 1.2264667798102391e-05 0.0000000000000000e+00  -8.0713657227580177e-06 1.5959233686375962e-05 0.0000000000000000e+00  -9.0515127433360491e-06 2.0854163705195877e-05 0.0000000000000000e+00  -1.0116869438082913e-05 2.6901968555177930e-05 0.0000000000000000e+00  0.0000000000000000e+00 0.0000000000000000e+00 0.0000000000000000e+00  -3.8674525267191924e-07 3.8462472230976841e-07 0.0000000000000000e+00  -7.8588452778468714e-07 7.8518589301906680e-07 0.0000000000000000e+00  -1.2099417562232028e-06 1.2184258884090495e-06 0.0000000000000000e+00  -1.6716774604620491e-06 1.7027784568999918e-06 0.0000000000000000e+00  -2.1841144150410627e-06 2.2593950111378954e-06 0.0000000000000000e+00  -2.7604410268078134e-06 2.9134160020206572e-06 0.0000000000000000e+00  -3.4137328699380010e-06 3.6956165106337511e-06 0.0000000000000000e+00  -4.1564183106186494e-06 4.6445915877446221e-06 0.0000000000000000e+00  -4.9993987814722476e-06 5.8096641250839543e-06 0.0000000000000000e+00  -5.9507208694924199e-06 7.2546123348779014e-06 0.0000000000000000e+00  -7.0136897345707415e-06 9.0618825573670233e-06 0.0000000000000000e+00  -8.1843125130992728e-06 1.1335556378586426e-05 0.0000000000000000e+00  -9.4479361997928071e-06 1.4197642471409957e-05 0.0000000000000000e+00  -1.0774651028069369e-05 1.7764312111962551e-05 0.0000000000000000e+00  -1.2110904845555353e-05 2.2077685440099843e-05 0.0000000000000000e+00  -1.3351696056298809e-05 2.6977238464989772e-05 0.0000000000000000e+00  0.0000000000000000e+00 0.0000000000000000e+00 0.0000000000000000e+00  -4.6010766467397459e-07 4.4956158106181231e-07 0.0000000000000000e+00  -9.3550569881151273e-07 9.1735525893342915e-07 0.0000000000000000e+00  -1.4417195299271446e-06 1.4224496558163402e-06 0.0000000000000000e+00  -1.9947198297644658e-06 1.9856455902154493e-06 0.0000000000000000e+00  -2.6110480555078043e-06 2.6304658911645409e-06 0.0000000000000000e+00  -3.3078102347185821e-06 3.3842939392036747e-06 0.0000000000000000e+00  -4.1024689409676120e-06 4.2797000338284197e-06 0.0000000000000000e+00  -5.0123418614199322e-06 5.3559570019273836e-06 0.0000000000000000e+00  -6.0536900212790519e-06 6.6606400968952206e-06 0.0000000000000000e+00  -7.2402498724154131e-06 8.2509436880348412e-06 0.0000000000000000e+00  -8.5810250088378077e-06 1.0193758820373243e-05 0.0000000000000000e+00  -1.0077073825825351e-05 1.2562364814860234e-05 0.0000000000000000e+00  -1.1716791883310445e-05 1.5425519434524858e-05 0.0000000000000000e+00  -1.3468403077138309e-05 1.8822145400721608e-05 0.0000000000000000e+00  -1.5265843085817234e-05 2.2714624978684649e-05 0.0000000000000000e+00  -1.6976729022372097e-05 2.6924095363531852e-05 0.0000000000000000e+00  0.0000000000000000e+00 0.0000000000000000e+00 0.0000000000000000e+00  -5.1818248083525775e-07 4.9626786634100511e-07 0.0000000000000000e+00  -1.0543101043077976e-06 1.0122210727550763e-06 0.0000000000000000e+00  -1.6267054082453382e-06 1.5683634844042592e-06 0.0000000000000000e+00  -2.2544232217797339e-06 2.1868723586354158e-06 0.0000000000000000e+00  -2.9575294399373887e-06 2.8925023076104705e-06 0.0000000000000000e+00  -3.7572553088931290e-06 3.7135517932061295e-06 0.0000000000000000e+00  -4.6759515511922510e-06 4.6828687553952916e-06 0.0000000000000000e+00  -5.7367370266937639e-06 5.8388014329521735e-06 0.0000000000000000e+00  -6.9627010603165602e-06 7.2258580816327823e-06 0.0000000000000000e+00  -8.3754802872832926e-06 8.8945698372057707e-06 0.0000000000000000e+00  -9.9929929360662292e-06 1.0899582503803143e-05 0.0000000000000000e+00  -1.1826072306349764e-05 1.3294293450181028e-05 0.0000000000000000e+00  -1.3873678820007860e-05 1.6119550091468134e-05 0.0000000000000000e+00  -1.6116292585777170e-05 1.9383779116314661e-05 0.0000000000000000e+00  -1.8507364799809298e-05 2.3034376185814185e-05 0.0000000000000000e+00  -2.0965763649321844e-05 2.6928418713551370e-05 0.0000000000000000e+00  0.0000000000000000e+00 0.0000000000000000e+00 0.0000000000000000e+00  -5.5831373132915336e-07 5.2328890463453982e-07 0.0000000000000000e+00  -1.1368445466095093e-06 1.0668934082384037e-06 0.0000000000000000e+00  -1.7563618822344384e-06 1.6519010011884476e-06 0.0000000000000000e+00  -2.4387254586025990e-06 2.3009606218424067e-06 0.0000000000000000e+00  -3.2073708057140702e-06 3.0390911299720090e-06 0.0000000000000000e+00  -4.0876997500853902e-06 3.8944990761659433e-06 0.0000000000000000e+00  -5.1073020856529879e-06 4.8993575002615727e-06 0.0000000000000000e+00  -6.2958953804400572e-06 6.0904283715174269e-06 0.0000000000000000e+00  -7.6848208573214357e-06 7.5092883412006733e-06 0.0000000000000000e+00  -9.3058824782905953e-06 9.2017131765066543e-06 0.0000000000000000e+00  -1.1189282411280921e-05 1.1215469967992942e-05 0.0000000000000000e+00  -1.3360420910300284e-05 1.3595386587938640e-05 0.0000000000000000e+00  -1.5835434816230066e-05 1.6374292996087844e-05 0.0000000000000000e+00  -1.8615608992985903e-05 1.9558761696933078e-05 0.0000000000000000e+00  -2.1681449728502365e-05 2.3110513259411969e-05 0.0000000000000000e+00  -2.4989543573265681e-05 2.6929230641065040e-05 0.0000000000000000e+00  0.0000000000000000e+00 0.0000000000000000e+00 0.0000000000000000e+00  -5.7822750107440099e-07 5.2999247963637812e-07 0.0000000000000000e+00  -1.1783880402669346e-06 1.0801564572660149e-06 0.0000000000000000e+00  -1.8231628393288755e-06 1.6713747512207817e-06 0.0000000000000000e+00  -2.5367304329961549e-06 2.3259587260968369e-06 0.0000000000000000e+00  -3.3455048931812624e-06 3.0683727096567230e-06 0.0000000000000000e+00  -4.2788363070575196e-06 3.9259512421017008e-06 0.0000000000000000e+00  -5.3696131067686283e-06 4.9295684268548975e-06 0.0000000000000000e+00  -6.6546552251001918e-06 6.1141724655037138e-06 0.0000000000000000e+00  -8.1747166309490541e-06 7.5190225492868306e-06 0.0000000000000000e+00  -9.9738337562411030e-06 9.1873468390526349e-06 0.0000000000000000e+00  -1.2097694286461013e-05 1.1164967527141711e-05 0.0000000000000000e+00  -1.4590728895167774e-05 1.3497210852212185e-05 0.0000000000000000e+00  -1.7491840282391755e-05 1.6223165726025809e-05 0.0000000000000000e+00  -2.0829040475813453e-05 1.9366166788553872e-05 0.0000000000000000e+00  -2.4613015447123964e-05 2.2919459812909328e-05 0.0000000000000000e+00  -2.8825717663384872e-05 2.6826750897705994e-05 0.0000000000000000e+00  0.0000000000000000e+00 0.0000000000000000e+00 0.0000000000000000e+00  -5.7620533579360906e-07 5.1652050829021552e-07 0.0000000000000000e+00  -1.1753101222031378e-06 1.0523568650832599e-06 0.0000000000000000e+00  -1.8211586809996163e-06 1.6274690048903713e-06 0.0000000000000000e+00  -2.5395095038163300e-06 2.2631055209429117e-06 0.0000000000000000e+00  -3.3590539948095364e-06 2.9824579500115912e-06 0.0000000000000000e+00  -4.3124873281210905e-06 3.8113181685398180e-06 0.0000000000000000e+00  -5.4376024908080573e-06 4.7787251985089506e-06 0.0000000000000000e+00  -6.7783183254689855e-06 5.9175747791679641e-06 0.0000000000000000e+00  -8.3854523692595613e-06 7.2651490509303064e-06 0.0000000000000000e+00  -1.0316904327594738e-05 8.8635029425572924e-06 0.0000000000000000e+00  -1.2636755615158223e-05 1.0759605692089955e-05 0.0000000000000000e+00  -1.5412738043476757e-05 1.3005029646188299e-05 0.0000000000000000e+00  -1.8711880857718249e-05 1.5654651559964551e-05 0.0000000000000000e+00  -2.2595352116784687e-05 1.8762918413535219e-05 0.0000000000000000e+00  -2.7115411857647400e-05 2.2374064227310095e-05 0.0000000000000000e+00  -3.2316276307735129e-05 2.6498598194006671e-05 0.0000000000000000e+00  0.0000000000000000e+00 0.0000000000000000e+00 0.0000000000000000e+00  -5.5127814266167411e-07 4.8372654439912443e-07 0.0000000000000000e+00  -1.1254783354999228e-06 9.8527112185706549e-07 0.0000000000000000e+00  -1.7466365936779188e-06 1.5230230628358795e-06 0.0000000000000000e+00  -2.4410718819824394e-06 2.1165131093619744e-06 0.0000000000000000e+00  -3.2386811765662643e-06 2.7870015702312499e-06 0.0000000000000000e+00  -4.1744095793224251e-06 3.5580894820756646e-06 0.0000000000000000e+00  -5.2899252384439599e-06 4.4563694578109797e-06 0.0000000000000000e+00  -6.6354715122963093e-06 5.5121529770494434e-06 0.0000000000000000e+00  -8.2717443675711717e-06 6.7603564882588459e-06 0.0000000000000000e+00  -1.0271405568644663e-05 8.2417183254758458e-06 0.0000000000000000e+00  -1.2719459772750077e-05 1.0004665548171800e-05 0.0000000000000000e+00  -1.5711290131272715e-05 1.2108317622398040e-05 0.0000000000000000e+00  -1.9347205087756022e-05 1.4627079272951565e-05 0.0000000000000000e+00  -2.3724562254880846e-05 1.7656301766713707e-05 0.0000000000000000e+00  -2.8936304230901951e-05 2.1314728345279487e-05 0.0000000000000000e+00  -3.5100454209512029e-05 2.5729225141667212e-05 0.0000000000000000e+00  0.0000000000000000e+00 0.0000000000000000e+00 0.0000000000000000e+00  -5.0342086001512916e-07 4.3310668516673561e-07 0.0000000000000000e+00  -1.0286756403056717e-06 8.8196595415336372e-07 0.0000000000000000e+00  -1.5988186064109266e-06 1.3628215061564607e-06 0.0000000000000000e+00  -2.2394332567081962e-06 1.8928972544315522e-06 0.0000000000000000e+00  -2.9801508951437954e-06 2.4909100199381218e-06 0.0000000000000000e+00  -3.8564901396896654e-06 3.1776176581403828e-06 0.0000000000000000e+00  -4.9121401838543332e-06 3.9764370690728637e-06 0.0000000000000000e+00  -6.2017890326666747e-06 4.9142067254242695e-06 0.0000000000000000e+00  -7.7944949314438343e-06 6.0222571430446742e-06 0.0000000000000000e+00  -9.7773012743570021e-06 7.3381393088457878e-06 0.0000000000000000e+00  -1.2258096639714958e-05 8.9087302071267609e-06 0.0000000000000000e+00  -1.5365363654767123e-05 1.0796099441640782e-05 0.0000000000000000e+00  -1.9240556004602407e-05 1.3088514391330780e-05 0.0000000000000000e+00  -2.4018660668706926e-05 1.5919780262012039e-05 0.0000000000000000e+00  -2.9803745647917938e-05 1.9498413525643882e-05 0.0000000000000000e+00  -3.6695794053037495e-05 2.4137360255752448e-05 0.0000000000000000e+00  0.0000000000000000e+00 0.0000000000000000e+00 0.0000000000000000e+00  -4.3371976488423097e-07 3.6672526866989442e-07 0.0000000000000000e+00  -8.8696978467772791e-07 7.4665131615983712e-07 0.0000000000000000e+00  -1.3805074532635850e-06 1.1533810750201853e-06 0.0000000000000000e+00  -1.9376611871691157e-06 1.6013180782245865e-06 0.0000000000000000e+00  -2.5859556905546794e-06 2.1060863589294809e-06 0.0000000000000000e+00  -3.3591978399300382e-06 2.6849809315465062e-06 0.0000000000000000e+00  -4.3002668275921601e-06 3.3574781113865040e-06 0.0000000000000000e+00  -5.4649200170912441e-06 4.1458695575315589e-06 0.0000000000000000e+00  -6.9269580113317135e-06 5.0761666726693238e-06 0.0000000000000000e+00  -8.7849399138449914e-06 6.1796207635875115e-06 0.0000000000000000e+00  -1.1169883514469015e-05 7.4956822357661067e-06 0.0000000000000000e+00  -1.4250989066506074e-05 9.0783510143769548e-06 0.0000000000000000e+00  -1.8230286927545579e-05 1.1010394627812307e-05 0.0000000000000000e+00  -2.3304823155687092e-05 1.3434862358150228e-05 0.0000000000000000e+00  -2.9562865720915774e-05 1.6620264546845733e-05 0.0000000000000000e+00  -3.6826106915032792e-05 2.1076467210880203e-05 0.0000000000000000e+00  0.0000000000000000e+00 0.0000000000000000e+00 0.0000000000000000e+00  -3.4447759308128427e-07 2.8713374074134644e-07 0.0000000000000000e+00  -7.0496013257907972e-07 5.8451936553437405e-07 0.0000000000000000e+00  -1.0985571247380965e-06 9.0271422401735029e-07 0.0000000000000000e+00  -1.5447154119316677e-06 1.2528806739847495e-06 0.0000000000000000e+00  -2.0667654499215471e-06 1.6470982295219395e-06 0.0000000000000000e+00  -2.6940095882850440e-06 2.0986869327326699e-06 0.0000000000000000e+00  -3.4647071547702011e-06 2.6225457857516154e-06 0.0000000000000000e+00  -4.4305137911778387e-06 3.2355111714743437e-06 0.0000000000000000e+00  -5.6632485685861335e-06 3.9567489069057534e-06 0.0000000000000000e+00  -7.2652750379027589e-06 4.8082412304476161e-06 0.0000000000000000e+00  -9.3850059547975282e-06 5.8156442785880320e-06 0.0000000000000000e+00  -1.2237711472809386e-05 7.0106398772363306e-06 0.0000000000000000e+00  -1.6123840600690937e-05 8.4389287530578890e-06 0.0000000000000000e+00  -2.1406355255072736e-05 1.0187536831599032e-05 0.0000000000000000e+00  -2.8315592599168317e-05 1.2468904356419016e-05 0.0000000000000000e+00  -3.6268526875359299e-05 1.5819060160813768e-05 0.0000000000000000e+00  0.0000000000000000e+00 0.0000000000000000e+00 0.0000000000000000e+00  -2.3921981739672855e-07 1.9728143376253820e-07 0.0000000000000000e+00  -4.8981985906501845e-07 4.0156493779894654e-07 0.0000000000000000e+00  -7.6402198877152721e-07 6.2005685997281352e-07 0.0000000000000000e+00  -1.0758437846023659e-06 8.6036530691463241e-07 0.0000000000000000e+00  -1.4423310404568441e-06 1.1307005856310028e-06 0.0000000000000000e+00  -1.8852931056493757e-06 1.4400673861543938e-06 0.0000000000000000e+00  -2.4339245690219434e-06 1.7984260099600634e-06 0.0000000000000000e+00  -3.1290030721676822e-06 2.2167608646616446e-06 0.0000000000000000e+00  -4.0299700856445118e-06 2.7068976489731598e-06 0.0000000000000000e+00  -5.2274656465531799e-06 3.2806791081719759e-06 0.0000000000000000e+00  -6.8664599074392405e-06 3.9475912920205739e-06 0.0000000000000000e+00  -9.1899610316764099e-06 4.7089564700741484e-06 0.0000000000000000e+00  -1.2619606236919940e-05 5.5460067681048152e-06 0.0000000000000000e+00  -1.7879792463546837e-05 6.4055288618304856e-06 0.0000000000000000e+00  -2.6024289595224195e-05 7.2457505187087908e-06 0.0000000000000000e+00  -3.7223486799200477e-05 8.5777768642931397e-06 0.0000000000000000e+00  0.0000000000000000e+00 0.0000000000000000e+00 0.0000000000000000e+00  -1.2257239830933088e-07 1.0041933598901093e-07 0.0000000000000000e+00  -2.5106244885927788e-07 2.0438994293764389e-07 0.0000000000000000e+00  -3.9184452141795701e-07 3.1556504922321166e-07 0.0000000000000000e+00  -5.5227285508650249e-07 4.3779711775973761e-07 0.0000000000000000e+00  -7.4137077293051913e-07 5.7523370427553123e-07 0.0000000000000000e+00  -9.7082882296391040e-07 7.3240088093531229e-07 0.0000000000000000e+00  -1.2565718668273794e-06 9.1424861634731403e-07 0.0000000000000000e+00  -1.6214057600260257e-06 1.1260872141998906e-06 0.0000000000000000e+00  -2.0998351484593475e-06 1.3732185277789713e-06 0.0000000000000000e+00  -2.7475975933076934e-06 1.6597062885146186e-06 0.0000000000000000e+00  -3.6624217105011115e-06 1.9846499880824253e-06 0.0000000000000000e+00  -5.0343129915927524e-06 2.3308888461652265e-06 0.0000000000000000e+00  -7.2819207649177196e-06 2.6293941689302300e-06 0.0000000000000000e+00  -1.1465615606543390e-05 2.6403734540722886e-06 0.0000000000000000e+00  -2.0669568296259564e-05 1.5301453586801678e-06 0.0000000000000000e+00  -4.5006409116675944e-05 -3.7240492164757082e-06 0.0000000000000000e+00  0.0000000000000000e+00 0.0000000000000000e+00 0.0000000000000000e+00  0.0000000000000000e+00 0.0000000000000000e+00 0.0000000000000000e+00  0.0000000000000000e+00 0.0000000000000000e+00 0.0000000000000000e+00  0.0000000000000000e+00 0.0000000000000000e+00 0.0000000000000000e+00  0.0000000000000000e+00 0.0000000000000000e+00 0.0000000000000000e+00  0.0000000000000000e+00 0.0000000000000000e+00 0.0000000000000000e+00  0.0000000000000000e+00 0.0000000000000000e+00 0.0000000000000000e+00  0.0000000000000000e+00 0.0000000000000000e+00 0.0000000000000000e+00  0.0000000000000000e+00 0.0000000000000000e+00 0.000