<?xml version="1.0"?>
<VTKFile type="UnstructuredGrid"  version="0.1"  >
<UnstructuredGrid>
<Piece  NumberOfPoints="289" NumberOfCells="512">
<Points>
<DataArray  type="Float64"  NumberOfComponents="3"  format="ascii">0 0 0  0.0625 0 0  0.125 0 0  0.1875 0 0  0.25 0 0  0.3125 0 0  0.375 0 0  0.4375 0 0  0.5 0 0  0.5625 0 0  0.625 0 0  0.6875 0 0  0.75 0 0  0.8125 0 0  0.875 0 0  0.9375 0 0  1 0 0  0 0.0625 0  0.06250190777057549 0.06249824134053778 0  0.1250038720440518 0.06249640503475988 0  0.1875059493654859 0.06249440841080638 0  0.2500081963477505 0.06249215806879994 0  0.3125106692704296 0.06248954247441346 0  0.3750134231548177 0.06248642134089698 0  0.4375165101350677 0.06248260901083131 0  0.5000199769534029 0.06247784631250904 0  0.5625238614152603 0.06247174910594554 0  0.6250281875967182 0.06246370641500688 0  0.687532959313405 0.06245266046571776 0  0.7500381502290638 0.06243658373690417 0  0.8125436850801452 0.06241109795998481 0  0.8750493937472439 0.06236540572884818 0  0.9375548797054067 0.06226895782239859 0  1.000059128606241 0.06202330254885581 0  0 0.125 0  0.06250375907129657 0.1249965602107706 0  0.1250076310199444 0.1249929701056081 0  0.1875117289880315 0.1249890700417284 0  0.2500161665979782 0.1249846805895343 0  0.3125210573303975 0.1249795892462224 0  0.3750265128552315 0.1249735319776435 0  0.4375326399485181 0.1249661654883305 0  0.5000395356512424 0.1249570226854984 0  0.5625472803948607 0.1249454368091232 0  0.6250559289205236 0.1249304052398747 0  0.6875654988647831 0.1249103341575854 0  0.7500759565601769 0.124882546855976 0  0.8125871979651088 0.1248423478321066 0  0.8750990166752459 0.1247814434565344 0  0.9376110289909424 0.1246866703305219 0  1.000122434372212 0.1245485304941422 0  0 0.1875 0  0.06250549760013747 0.1874950292988735 0  0.1250111640305266 0.1874898448692649 0  0.1875171689645042 0.1874842205773648 0  0.2500236836527961 0.1874779042146436 0  0.3125308804443285 0.187470600717596 0  0.37503893074297 0.1874619499602393 0  0.43754800081691 0.1874514954322326 0  0.5000582449025617 0.1874386378157765 0  0.5625697951834469 0.1874225636531349 0  0.625082748564244 0.1874021336097649 0  0.6875971508461987 0.1873757089108576 0  0.7501129803134013 0.1873408989356471 0  0.8126301362648973 0.1872942707299503 0  0.8751484497904092 0.1872313139757091 0  0.937667781588757 0.1871477576753597 0  1.000188480929586 0.1870449328184418 0  0 0.25 0  0.06250706745627624 0.2499937120269731 0  0.1250143586453092 0.2499871592356641 0  0.1875220992390394 0.2499800627039178 0  0.25003051859306 0.2499721141898869 0  0.3125398499677934 0.2499629582289276 0  0.3750503286964337 0.249952169856626 0  0.4375621874492517 0.2499392256723772 0  0.5000756477091318 0.2499234653264586 0  0.5625909066947523 0.249904040213251 0  0.6251081193994417 0.2498798476296467 0  0.6876273763685111 0.2498494561128128 0  0.7501486795645474 0.2498110519337762 0  0.8126719212675475 0.2497625015721532 0  0.8751968731287456 0.249701766966789 0  0.9377231837031866 0.2496281168611851 0  1.000250296699026 0.2495444617774293 0  0 0.3125 0  0.06250841376152813 0.3124926594847609 0  0.1250171039884221 0.3124850170801052 0  0.1875263508328535 0.3124767563278489 0  0.2500364415319319 0.3124675308224281 0  0.3125476720905779 0.3124569469297881 0  0.3750603465137222 0.3124445437212463 0  0.4375747724153604 0.3124297693344265 0  0.50009125163692 0.3124119535861358 0  0.5626100644578284 0.3123902784437979 0  0.6251314462905485 0.3123637524147532 0  0.6876555567233746 0.3123312049529527 0  0.7501824427173164 0.3122913373667286 0  0.8127120007066707 0.3122429020893859 0  0.8752439454030272 0.3121851255075357 0  0.937777794124343 0.312118485247377 0  1.000312879447802 0.3120457349255459 0  0 0.375 0  0.06250948377571947 0.3749919087345301 0  0.1250192928393303 0.3749834929997463 0  0.1875297586444501 0.3749744142094442 0  0.2500412246248021 0.374964305043119 0  0.3125540502990874 0.3749527537207228 0  0.3750686127428092 0.3749392869315672 0  0.4375853039146755 0.3749233516656024 0  0.5001045218428488 0.3749042973491871 0  0.5626266532415465 0.3748813620551266 0  0.6251520450109375 0.3748536710798744 0  0.6876809627452329 0.3748202640643084 0  0.7502135364957097 0.3747801786927283 0  0.8127496982064211 0.3747326318767157 0  0.8752891213063071 0.3746773393171957 0  0.937831178875601 0.3746149646030689 0  1.000374937601761 0.3745475274372 0  0 0.4375 0  0.06251022863675133 0.4374914823407088 0  0.1250208250329483 0.4374826316878922 0  0.1875321663108158 0.4374731019583072 0  0.2500446479935813 0.4374625206103915 0  0.3125586916433952 0.4374504747484641 0  0.3750747500882217 0.4374364967956682 0  0.4375933084656979 0.4374200503928974 0  0.5001148784150948 0.4374005182933828 0  0.5626399816581357 0.4373771960388672 0  0.6251691181900364 0.4373492985980623 0  0.6877027140093165 0.4373159922644868 0  0.7502410450075663 0.4372764703899435 0  0.8127841391867595 0.4372300957242544 0  0.8753316704909827 0.437176625431499 0  0.9378828734383432 0.4371165015657172 0  1.000436521070937 0.4370511183618989 0  0 0.5 0  0.06251060580572623 0.4999913888080771 0  0.1250216123585795 0.4999824491489434 0  0.1875334335281114 0.4999728408027784 0  0.2500465092862573 0.499962199872049 0  0.3125613180125721 0.4999501266329008 0  0.3750783872513658 0.4999361732924847 0  0.4375983011476272 0.4999198321855276 0  0.5001217014129382 0.4999005256469543 0  0.5626492766613681 0.4998775999902869 0  0.6251817323757624 0.4998503279477095 0  0.6877197312428731 0.4998179268346969 0  0.7502637929833336 0.4997796036342539 0  0.8128141480022534 0.4997346424757359 0  0.8753705561706607 0.4996825522065581 0  0.937932135319348 0.4996232864283014 0  1.000497285238422 0.4995575263549659 0  0 0.5625 0  0.06251058220833842 0.5624916235896867 0  0.1250215849897281 0.5624829349759239 0  0.1875334460148794 0.5624736116952703 0  0.2500466373951092 0.5624633106123204 0  0.3125616835695124 0.5624516573783171 0  0.375079179368676 0.5624382357369648 0  0.4375998069974999 0.5624225767807904 0  0.5001243489451871 0.5624041483750362 0  0.5626536908303391 0.5623823450932395 0  0.6251888034209412 0.5623564792192458 0  0.6877306864603037 0.5623257740199882 0  0.750280250102454 0.5622893627422131 0  0.8128381086407558 0.5622463035308286 0  0.8754042795839153 0.5621956370890816 0  0.9379778401702631 0.5621365457235484 0  1.000556700738073 0.5620687106529577 0  0 0.625 0  0.06251013792479289 0.6249921704024544 0  0.1250206991992076 0.6249840551324118 0  0.1875321278957346 0.6249753598399725 0  0.2500449103718293 0.6249657726624844 0  0.312559599058821 0.6249549552803746 0  0.3750768390925726 0.62494253366492 0  0.437597397841346 0.6249280881749931 0  0.5001221957632511 0.6249111421878728 0  0.5626523335390028 0.6248911474411475 0  0.6251891035393765 0.6248674624007979 0  0.6877339613634068 0.6248393171958887 0  0.750288414204225 0.6248057563135206 0  0.8128537615786229 0.6247655540535439 0  0.8754306225783245 0.6247171234544787 0  0.9380182610465065 0.6246585172882926 0  1.000613967398382 0.6245877771972136 0  0 0.6875 0  0.06250927009158724 0.6874930026995353 0  0.1250189457147807 0.6874857549596353 0  0.1875294556414697 0.6874779993063765 0  0.2500412766773832 0.6874694640626225 0  0.3125549626072072 0.687459856148659 0  0.3750711793388303 0.6874488536108633 0  0.4375907485493588 0.6874360973695133 0  0.5001147015560952 0.6874211808756686 0  0.5626443426999829 0.6874036345410078 0  0.6251813145616862 0.6873828979257508 0  0.6877276405051895 0.6873582651194152 0  0.7502856844803558 0.6873287760551114 0  0.8128579045929027 0.6872930115662834 0  0.875446197124386 0.6872487545150923 0  0.9380506319734295 0.6871925761118802 0  1.00066779104457 0.6871197334581178 0  0 0.75 0  0.06250799646099245 0.7499940852370861 0  0.1250163575825392 0.7499879623373298 0  0.1875254718381599 0.7499814177874516 0  0.2500357775239517 0.7499742272628194 0  0.3125477946188346 0.7499661503514093 0  0.3750621661398462 0.7499569253671163 0  0.4375797141858673 0.7499462640525296 0  0.5001015175435488 0.7499338453904176 0  0.5626290190240034 0.7499193061264966 0  0.6251641689825721 0.7499022213247527 0  0.6877095990291648 0.7498820574079088 0  0.7502687768832111 0.7498580541422211 0  0.8128459761409312 0.7498289365438517 0  0.8754456359008097 0.7497922679288398 0  0.9380702958182832 0.7497432330203108 0  1.00071637534982 0.749673222365572 0  0 0.8125 0  0.06250635787123059 0.8124953757080517 0  0.1250130159333878 0.8124905909953326 0  0.1875202961151425 0.812485481657152 0  0.2500285663253856 0.8124798759639408 0  0.3125382713585581 0.8124735913123311 0  0.3750499752642105 0.8124664315167639 0  0.4375644229110205 0.8124581852397343 0  0.5000826331572978 0.8124486263443675 0  0.562606043696094 0.812437517173711 0  0.625136738910251 0.8124246149969535 0  0.6876778039217923 0.8124096761995524 0  0.7502338410343762 0.8123924278150871 0  0.8128115811229613 0.8123723845520155 0  0.8754200722950054 0.8123481028283152 0  0.938068541128199 0.8123147806219712 0  1.000757565276129 0.8122588578021169 0  0 0.875 0  0.06250441879860981 0.8749968263989506 0  0.1250090517845037 0.8749935439077904 0  0.1875141298675173 0.8749900412899397 0  0.2500199196419461 0.874986202725233 0  0.312526748315278 0.874981906079446 0  0.3750350393533761 0.8749770221688367 0  0.4375453671384645 0.8749714161239998 0  0.5000585456113804 0.8749649532652931 0  0.5625757792485937 0.8749575148803878 0  0.6250989320101973 0.8749490359625521 0  0.6876310255033335 0.8749395909274811 0  0.7501771847426623 0.8749295765062804 0  0.8127464104236645 0.8749200423605566 0  0.875354504557834 0.8749129374957936 0  0.9380261949158196 0.8749088689609489 0  1.000778085497241 0.8748870457373387 0  0 0.9375 0  0.06250226529249067 0.9374983857888878 0  0.1250046422018274 0.9374967165818122 0  0.1875072514691628 0.9374949362790684 0  0.2500102334191413 0.93749298666487 0  0.3125137619852485 0.9374908067599302 0  0.3750180653203563 0.9374883329463557 0  0.437523458550019 0.937485500841
[...]
<PointData  Vectors="f_54"> 
<DataArray  type="Float64"  Name="f_54"  NumberOfComponents="3" format="ascii">0.0000000000000000e+00 0.0000000000000000e+00 0.0000000000000000e+00  0.0000000000000000e+00 0.0000000000000000e+00 0.0000000000000000e+00  0.0000000000000000e+00 0.0000000000000000e+00 0.0000000000000000e+00  0.0000000000000000e+00 0.0000000000000000e+00 0.0000000000000000e+00  0.0000000000000000e+00 0.0000000000000000e+00 0.0000000000000000e+00  0.0000000000000000e+00 0.0000000000000000e+00 0.0000000000000000e+00  0.0000000000000000e+00 0.0000000000000000e+00 0.0000000000000000e+00  0.0000000000000000e+00 0.0000000000000000e+00 0.0000000000000000e+00  0.0000000000000000e+00 0.0000000000000000e+00 0.0000000000000000e+00  0.0000000000000000e+00 0.0000000000000000e+00 0.0000000000000000e+00  0.0000000000000000e+00 0.0000000000000000e+00 0.0000000000000000e+00  0.0000000000000000e+00 0.0000000000000000e+00 0.0000000000000000e+00  0.0000000000000000e+00 0.0000000000000000e+00 0.0000000000000000e+00  0.0000000000000000e+00 0.0000000000000000e+00 0.0000000000000000e+00  0.0000000000000000e+00 0.0000000000000000e+00 0.0000000000000000e+00  0.0000000000000000e+00 0.0000000000000000e+00 0.0000000000000000e+00  0.0000000000000000e+00 0.0000000000000000e+00 0.0000000000000000e+00  0.0000000000000000e+00 0.0000000000000000e+00 0.0000000000000000e+00  1.3507046376358159e-08 -3.0953260221650850e-08 0.0000000000000000e+00  2.7415195563813357e-08 -6.3277601835026031e-08 0.0000000000000000e+00  4.2127321839434781e-08 -9.8435546056184770e-08 0.0000000000000000e+00  5.8047237059990635e-08 -1.3808262143191426e-07 0.0000000000000000e+00  7.5577122437426748e-08 -1.8420131735395393e-07 0.0000000000000000e+00  9.5111113885813792e-08 -2.3929369058243660e-07 0.0000000000000000e+00  1.1702349184834386e-07 -3.0668340401257373e-07 0.0000000000000000e+00  1.4164952390345976e-07 -3.9102792270596698e-07 0.0000000000000000e+00  1.6925590384622192e-07 -4.9925693362870785e-07 0.0000000000000000e+00  1.9999454075299525e-07 -6.4243969091602025e-07 0.0000000000000000e+00  2.3382484736124327e-07 -8.3985977540654213e-07 0.0000000000000000e+00  2.7037027009440228e-07 -1.1288779062718656e-06 0.0000000000000000e+00  3.0865224626934890e-07 -1.5916608994280001e-06 0.0000000000000000e+00  3.4676710310662906e-07 -2.4365270208717189e-06 0.0000000000000000e+00  3.8295530726804321e-07 -4.2744620011432282e-06 0.0000000000000000e+00  4.2922391241925286e-07 -9.1573217507843668e-06 0.0000000000000000e+00  0.0000000000000000e+00 0.0000000000000000e+00 0.0000000000000000e+00  2.6613072892758944e-08 -6.0535681881478350e-08 0.0000000000000000e+00  5.4027412110963973e-08 -1.2372409888778891e-07 0.0000000000000000e+00  8.3048953057501103e-08 -1.9238739965774044e-07 0.0000000000000000e+00  1.1448799512309582e-07 -2.6970318643100817e-07 0.0000000000000000e+00  1.4915543118535999e-07 -3.5944455507145978e-07 0.0000000000000000e+00  1.8785146143332311e-07 -4.6631469313336134e-07 0.0000000000000000e+00  2.3134390598807551e-07 -5.9645052928724236e-07 0.0000000000000000e+00  2.8033290352396740e-07 -7.5823164873464886e-07 0.0000000000000000e+00  3.3539794464966903e-07 -9.6365573610506505e-07 0.0000000000000000e+00  3.9692010288216023e-07 -1.2307980828218104e-06 0.0000000000000000e+00  4.6496041317976333e-07 -1.5883904497608299e-06 0.0000000000000000e+00  5.3902867782156171e-07 -2.0845063544274557e-06 0.0000000000000000e+00  6.1748423042838266e-07 -2.8024541220948669e-06 0.0000000000000000e+00  6.9545209746344850e-07 -3.8840905381044451e-06 0.0000000000000000e+00  7.5604235556695097e-07 -5.5256386244533452e-06 0.0000000000000000e+00  7.2913355383123323e-07 -7.6810064523298540e-06 0.0000000000000000e+00  0.0000000000000000e+00 0.0000000000000000e+00 0.0000000000000000e+00  3.8917265436631752e-08 -8.7464251076176550e-08 0.0000000000000000e+00  7.9032760981474156e-08 -1.7869689674839431e-07 0.0000000000000000e+00  1.2155448911100719e-07 -2.7769094568035543e-07 0.0000000000000000e+00  1.6770310610592649e-07 -3.8890653933543849e-07 0.0000000000000000e+00  2.1870960176628362e-07 -5.1757351553891814e-07 0.0000000000000000e+00  2.7580201581431177e-07 -6.7009366864464952e-07 0.0000000000000000e+00  3.4017705798608424e-07 -8.5461008548112603e-07 0.0000000000000000e+00  4.1295265595438876e-07 -1.0818520751838041e-06 0.0000000000000000e+00  4.9509860697087494e-07 -1.3664312506496266e-06 0.0000000000000000e+00  5.8734607496168015e-07 -1.7288604792037747e-06 0.0000000000000000e+00  6.9008727336544417e-07 -2.1986558457785228e-06 0.0000000000000000e+00  8.0331355983911166e-07 -2.8187570931032348e-06 0.0000000000000000e+00  9.2679372715084966e-07 -3.6503942133287414e-06 0.0000000000000000e+00  1.0614126954721145e-06 -4.7732189656151072e-06 0.0000000000000000e+00  1.2161701010637286e-06 -6.2645848238648662e-06 0.0000000000000000e+00  1.4438078583772754e-06 -8.1406558846800382e-06 0.0000000000000000e+00  0.0000000000000000e+00 0.0000000000000000e+00 0.0000000000000000e+00  5.0022199068801466e-08 -1.1062249242603857e-07 0.0000000000000000e+00  1.0163174315230564e-07 -2.2590872563707955e-07 0.0000000000000000e+00  1.5643405645800665e-07 -3.5077644910862325e-07 0.0000000000000000e+00  2.1606256634885212e-07 -4.9066628584232515e-07 0.0000000000000000e+00  2.8218173149878169e-07 -6.5186328081798104e-07 0.0000000000000000e+00  3.5647587904066479e-07 -8.4189958923935556e-07 0.0000000000000000e+00  4.4061807500017718e-07 -1.0700812176091411e-06 0.0000000000000000e+00  5.3621328368311837e-07 -1.3481938096868615e-06 0.0000000000000000e+00  6.4471179111684877e-07 -1.6914483293790342e-06 0.0000000000000000e+00  7.6729447106857060e-07 -2.1197004203788317e-06 0.0000000000000000e+00  9.0474537185297440e-07 -2.6588414635729352e-06 0.0000000000000000e+00  1.0573574053706231e-06 -3.3418266511516487e-06 0.0000000000000000e+00  1.2249698572517449e-06 -4.2076872342767795e-06 0.0000000000000000e+00  1.4072409328095084e-06 -5.2945588198785408e-06 0.0000000000000000e+00  1.6034932236174587e-06 -6.6197164944328984e-06 0.0000000000000000e+00  1.8048150336869864e-06 -8.1409224235111462e-06 0.0000000000000000e+00  0.0000000000000000e+00 0.0000000000000000e+00 0.0000000000000000e+00  5.9538553119182692e-08 -1.2911490070088849e-07 0.0000000000000000e+00  1.2103761772222435e-07 -2.6353940099291879e-07 0.0000000000000000e+00  1.8648813841530874e-07 -4.0884331209597481e-07 0.0000000000000000e+00  2.5793337817162905e-07 -5.7112668798938250e-07 0.0000000000000000e+00  3.3748251101963087e-07 -7.5732779142157449e-07 0.0000000000000000e+00  4.2730733904617723e-07 -9.7558341201797530e-07 0.0000000000000000e+00  5.2961412246892502e-07 -1.2356581815491547e-06 0.0000000000000000e+00  6.4658131389469799e-07 -1.5494505760658342e-06 0.0000000000000000e+00  7.8025408227497776e-07 -1.9315546438768165e-06 0.0000000000000000e+00  9.3238975853586435e-07 -2.3997817915427605e-06 0.0000000000000000e+00  1.1042574821742907e-06 -2.9753748147768129e-06 0.0000000000000000e+00  1.2964129302100257e-06 -3.6822930916027892e-06 0.0000000000000000e+00  1.5084924393912210e-06 -4.5443297049795936e-06 0.0000000000000000e+00  1.7390816093618793e-06 -5.5780320139327406e-06 0.0000000000000000e+00  1.9857176628959387e-06 -6.7791923010418139e-06 0.0000000000000000e+00  2.2458506188104735e-06 -8.1029102064919033e-06 0.0000000000000000e+00  0.0000000000000000e+00 0.0000000000000000e+00 0.0000000000000000e+00  6.7093245609916323e-08 -1.4229611042567452e-07 0.0000000000000000e+00  1.3649179468320044e-07 -2.9029153271512476e-07 0.0000000000000000e+00  2.1054832026473513e-07 -4.4993475286134663e-07 0.0000000000000000e+00  2.9170242347652041e-07 -6.2767777300489287e-07 0.0000000000000000e+00  3.8251136147783189e-07 -8.3075241660265031e-07 0.0000000000000000e+00  4.8566263830815118e-07 -1.0674717146950228e-06 0.0000000000000000e+00  6.0395796758600243e-07 -1.3475541976649850e-06 0.0000000000000000e+00  7.4025463520143990e-07 -1.6824511407165467e-06 0.0000000000000000e+00  8.9734690536903814e-07 -2.0856199415751809e-06 0.0000000000000000e+00  1.0777682752847287e-06 -2.5726156979550570e-06 0.0000000000000000e+00  1.2834972748046336e-06 -3.1607479347798392e-06 0.0000000000000000e+00  1.5155571202175164e-06 -3.8678590787115135e-06 0.0000000000000000e+00  1.7735120001111449e-06 -4.7095698573928209e-06 0.0000000000000000e+00  2.0548736865119756e-06 -5.6943215090360563e-06 0.0000000000000000e+00  2.3544378705460692e-06 -6.8163277231819132e-06 0.0000000000000000e+00  2.6635687132456803e-06 -8.0493612599817871e-06 0.0000000000000000e+00  0.0000000000000000e+00 0.0000000000000000e+00 0.0000000000000000e+00  7.2341857049247261e-08 -1.4977744714903975e-07 0.0000000000000000e+00  1.4728815162932460e-07 -3.0539777426666407e-07 0.0000000000000000e+00  2.2751217116073794e-07 -4.7293147652129599e-07 0.0000000000000000e+00  3.1581922879602995e-07 -6.5890666503036125e-07 0.0000000000000000e+00  4.1520216614597203e-07 -8.7054796004553573e-07 0.0000000000000000e+00  5.2888029188413977e-07 -1.1160211796574791e-06 0.0000000000000000e+00  6.6030941257880207e-07 -1.4046726041303656e-06 0.0000000000000000e+00  8.1314411864007341e-07 -1.7472342679862615e-06 0.0000000000000000e+00  9.9112518023922666e-07 -2.1559367311720027e-06 0.0000000000000000e+00  1.1978558236865172e-06 -2.6444229350295906e-06 0.0000000000000000e+00  1.4364233467966808e-06 -3.2272897930296056e-06 0.0000000000000000e+00  1.7088210875983902e-06 -3.9190126575318204e-06 0.0000000000000000e+00  2.0151337193652449e-06 -4.7319866892086184e-06 0.0000000000000000e+00  2.3524634118383740e-06 -5.6735777456801304e-06 0.0000000000000000e+00  2.7135823488468352e-06 -6.7426187080527661e-06 0.0000000000000000e+00  3.0853104621261795e-06 -7.9268161235684398e-06 0.0000000000000000e+00  0.0000000000000000e+00 0.0000000000000000e+00 0.0000000000000000e+00  7.4985872143798407e-08 -1.5141674302844258e-07 0.0000000000000000e+00  1.5280759923065636e-07 -3.0859391953562882e-07 0.0000000000000000e+00  2.3639494165027846e-07 -4.7749313285799954e-07 0.0000000000000000e+00  3.2886353517349141e-07 -6.6448016093409531e-07 0.0000000000000000e+00  4.3360297434247438e-07 -8.7652832417252868e-07 0.0000000000000000e+00  5.5435442647984310e-07 -1.1214177404459505e-06 0.0000000000000000e+00  6.9526553133608959e-07 -1.4079181298200504e-06 0.0000000000000000e+00  8.6090069116493452e-07 -1.7459306503256597e-06 0.0000000000000000e+00  1.0561705922278823e-06 -2.1465462427617206e-06 0.0000000000000000e+00  1.2861259388051623e-06 -2.6219545970271258e-06 0.0000000000000000e+00  1.5555398105890112e-06 -3.1851144966704281e-06 0.0000000000000000e+00  1.8681890714135888e-06 -3.8490888699011985e-06 0.0000000000000000e+00  2.2257515124795293e-06 -4.6259883600036689e-06 0.0000000000000000e+00  2.6262667047200302e-06 -5.5255958015483306e-06 0.0000000000000000e+00  3.0621062333367879e-06 -6.5539474325943327e-06 0.0000000000000000e+00  3.5171175408390741e-06 -7.7121564130718866e-06 0.0000000000000000e+00  0.0000000000000000e+00 0.0000000000000000e+00 0.0000000000000000e+00  7.4794659512254910e-08 -1.4729798650335772e-07 0.0000000000000000e+00  1.5256308850185486e-07 -3.0007280095033031e-07 0.0000000000000000e+00  2.3639933673813230e-07 -4.6397483343419534e-07 0.0000000000000000e+00  3.2964141018121938e-07 -6.4500460278881916e-07 0.0000000000000000e+00  4.3599817432934926e-07 -8.4968545047621912e-07 0.0000000000000000e+00  5.5967787529921927e-07 -1.0852297383461837e-06 0.0000000000000000e+00  7.0550976817532621e-07 -1.3596897272037343e-06 0.0000000000000000e+00  8.7903850266825657e-07 -1.6820784274642775e-06 0.0000000000000000e+00  1.0865506829758304e-06 -2.0624392166638463e-06 0.0000000000000000e+00  1.3349615151240886e-06 -2.5118387362769448e-06 0.0000000000000000e+00  1.6314473675232857e-06 -3.0422619364644405e-06 0.0000000000000000e+00  1.9826699429728539e-06 -3.6664129864421995e-06 0.0000000000000000e+00  2.3934374915194586e-06 -4.3974881082643771e-06 0.0000000000000000e+00  2.8647548964629564e-06 -5.2490987073523648e-06 0.0000000000000000e+00  3.3914468590280060e-06 -6.2356552176635850e-06 0.0000000000000000e+00  3.9595176288685907e-06 -7.3735033355849556e-06 0.0000000000000000e+00  0.0000000000000000e+00 0.0000000000000000e+00 0.0000000000000000e+00  7.1631148938259040e-08 -1.3770624176112668e-07 0.0000000000000000e+00  1.4625332811823882e-07 -2.8043064734835463e-07 0.0000000000000000e+00  2.2700179616525728e-07 -4.3333801400819222e-07 0.0000000000000000e+00  3.1731018232595585e-07 -6.0189134804918367e-07 0.0000000000000000e+00  4.2107827260477897e-07 -7.9199838995039265e-07 0.0000000000000000e+00  5.4285994089044484e-07 -1.0101536205264288e-06 0.0000000000000000e+00  6.8807182513542362e-07 -1.2635719460960783e-06 0.0000000000000000e+00  8.6321232238290015e-07 -1.5603097412009211e-06 0.0000000000000000e+00  1.0760571504202439e-06 -1.9093710892662211e-06 0.0000000000000000e+00  1.3357529057433948e-06 -2.3208054240199659e-06 0.0000000000000000e+00  1.6526539456249278e-06 -2.8058230285319269e-06 0.0000000000000000e+00  2.0376438222421478e-06 -3.3769951561553952e-06 0.0000000000000000e+00  2.5006088886528425e-06 -4.0486776287203114e-06 0.0000000000000000e+00  3.0478935806023205e-06 -4.8379234717207632e-06 0.0000000000000000e+00  3.6794122777859054e-06 -5.7663811161255769e-06 0.0000000000000000e+00  4.3880300996146429e-06 -6.8639660244397052e-06 0.0000000000000000e+00  0.0000000000000000e+00 0.0000000000000000e+00 0.0000000000000000e+00  6.5478856488983154e-08 -1.2310134827425159e-07 0.0000000000000000e+00  1.3382070148276308e-07 -2.5061285845383759e-07 0.0000000000000000e+00  2.0804920160695419e-07 -3.8706555492392480e-07 0.0000000000000000e+00  2.9152601448426426e-07 -5.3723885292113703e-07 0.0000000000000000e+00  3.8815414249276458e-07 -7.0628347629950006e-07 0.0000000000000000e+00  5.0262467829007449e-07 -8.9984312706944114e-07 0.0000000000000000e+00  6.4072293724386401e-07 -1.1241753433554231e-06 0.0000000000000000e+00  8.0970575142410268e-07 -1.3862749049712567e-06 0.0000000000000000e+00  1.0187444622606204e-06 -1.6940104260312775e-06 0.0000000000000000e+00  1.2793798129681648e-06 -2.0563000748244677e-06 0.0000000000000000e+00  1.6058216014582557e-06 -2.4833803832612926e-06 0.0000000000000000e+00  2.0146995646612567e-06 -2.9872663206993409e-06 0.0000000000000000e+00  2.5235202467378826e-06 -3.5825602697528395e-06 0.0000000000000000e+00  3.1468538895639260e-06 -4.2878595946255760e-06 0.0000000000000000e+00  3.8903247673450715e-06 -5.1283858835380663e-06 0.0000000000000000e+00  4.7480250565077365e-06 -6.1426183479784603e-06 0.0000000000000000e+00  0.0000000000000000e+00 0.0000000000000000e+00 0.0000000000000000e+00  5.6466409207070683e-08 -1.0409204714904343e-07 0.0000000000000000e+00  1.1550550422281001e-07 -2.1186194197112215e-07 0.0000000000000000e+00  1.7985395265487619e-07 -3.2708355385718290e-07 0.0000000000000000e+00  2.5259832234470564e-07 -4.5373024800951358e-07 0.0000000000000000e+00  3.3739839060477414e-07 -5.9607467933192473e-07 0.0000000000000000e+00  4.3877673607271718e-07 -7.5878975757426012e-07 0.0000000000000000e+00  5.6251056701111637e-07 -9.4705339438812323e-07 0.0000000000000000e+00  7.1617274918683901e-07 -1.1666636992782430e-06 0.0000000000000000e+00  9.0987589372557707e-07 -1.4241800062921960e-06 0.0000000000000000e+00  1.1572553719439656e-06 -1.7271226212722302e-06 0.0000000000000000e+00  1.4766246007406397e-06 -2.0842964803274304e-06 0.0000000000000000e+00  1.8918998333937422e-06 -2.5063530617618902e-06 0.0000000000000000e+00  2.4320164359279976e-06 -3.0067349759174098e-06 0.0000000000000000e+00  3.1257773273037818e-06 -3.6029584047879269e-06 0.0000000000000000e+00  3.9871116252249665e-06 -4.3172050504858846e-06 0.0000000000000000e+00  4.9901861478407437e-06 -5.1741595958562483e-06 0.0000000000000000e+00  0.0000000000000000e+00 0.0000000000000000e+00 0.0000000000000000e+00  4.4884403265880809e-08 -8.1410864589596920e-08 0.0000000000000000e+00  9.1885399966076543e-08 -1.6566760016716484e-07 0.0000000000000000e+00  1.4326893208780635e-07 -2.5568779252422119e-07 0.0000000000000000e+00  2.0162345592390033e-07 -3.5453943768788855e-07 0.0000000000000000e+00  2.7007633262328912e-07 -4.6551680761577454e-07 0.0000000000000000e+00  3.5259037822836416e-07 -5.9221818942387798e-07 0.0000000000000000e+00  4.5439450624637395e-07 -7.3862797016698983e-07 0.0000000000000000e+00  5.8263470649835728e-07 -9.0920838404117685e-07 0.0000000000000000e+00  7.4738334986649341e-07 -1.1090122368041254e-06 0.0000000000000000e+00  9.6321662776476234e-07 -1.3438415863753487e-06 0.0000000000000000e+00  1.2516269535498229e-06 -1.6205117284652805e-06 0.0000000000000000e+00  1.6443966862138673e-06 -1.9473694395532798e-06 0.0000000000000000e+00  2.1870293217807297e-06 -2.3354147811533289e-06 0.0000000000000000e+00  2.9372832600577550e-06 -2.8004825689096346e-06 0.0000000000000000e+00  3.9422639973487252e-06 -3.3638810785330847e-06 0.0000000000000000e+00  5.1620324794790823e-06 -4.0183855862634175e-06 0.0000000000000000e+00  0.0000000000000000e+00 0.0000000000000000e+00 0.0000000000000000e+00  3.1188877643483518e-08 -5.5889440317996953e-08 0.0000000000000000e+00  6.3887206621040018e-08 -1.1371779632077862e-07 0.0000000000000000e+00  9.9719181161202151e-08 -1.7547165233293467e-07 0.0000000000000000e+00  1.4055909703302488e-07 -2.4323826069350250e-07 0.0000000000000000e+00  1.8870585766152128e-07 -3.1925645739153137e-07 0.0000000000000000e+00  2.4713267091212776e-07 -4.0596881475670913e-07 0.0000000000000000e+00  3.1987045960046720e-07 -5.0607590926868645e-07 0.0000000000000000e+00  4.1263111526176926e-07 -6.2259354414303979e-07 0.0000000000000000e+00  5.3387264922301814e-07 -7.5891254083846586e-07 0.0000000000000000e+00  6.9670456366591334e-07 -9.1885747917651947e-07 0.0000000000000000e+00  9.2242998624008036e-07 -1.1067425078419845e-06 0.0000000000000000e+00  1.2472653907611924e-06 -1.3274957471070727e-06 0.0000000000000000e+00  1.7347208619275587e-06 -1.5874920973905333e-06 0.0000000000000000e+00  2.4943478620742206e-06 -1.9001822227039190e-06 0.0000000000000000e+00  3.6827742198820776e-06 -2.3197110560450951e-06 0.0000000000000000e+00  5.3008927466633048e-06 -3.1258138097434343e-06 0.0000000000000000e+00  0.0000000000000000e+00 0.0000000000000000e+00 0.0000000000000000e+00  1.5986579820830652e-08 -2.8433891990826471e-08 0.0000000000000000e+00  3.2759454914107364e-08 -5.7849693237209218e-08 0.0000000000000000e+00  5.1167475090312360e-08 -8.9253089828537444e-08 0.0000000000000000e+00  7.2196659882816928e-08 -1.2370017921616391e-07 0.0000000000000000e+00  9.7068369150810796e-08 -1.6232292386190177e-07 0.0000000000000000e+00  1.2738380966641362e-07 -2.0635497105135838e-07 0.0000000000000000e+00  1.6535443423529815e-07 -2.5715747104579673e-07 0.0000000000000000e+00  2.1419610841237255e-07 -3.1624249978430713e-07 0.0000000000000000e+00  2.7885319683120236e-07 -3.8528411655654011e-07 0.0000000000000000e+00  3.6743818240325516e-07 -4.6608010146495846e-07 0.0000000000000000e+00  4.9436773930247584e-07 -5.6033036877335347e-07 0.0000000000000000e+00  6.8794768424190687e-07 -6.6873485978886590e-07 0.0000000000000000e+00  1.0109439356975058e-06 -7.8748066129049230e-07 0.0000000000000000e+00  1.6233317006688096e-06 -8.9421103151589309e-07 0.0000000000000000e+00  2.9967791422212041e-06 -8.8923095523182524e-07 0.0000000000000000e+00  6.7329686276309188e-06 -3.3426522298137319e-07 0.0000000000000000e+00  0.0000000000000000e+00 0.0000000000000000e+00 0.0000000000000000e+00  0.0000000000000000e+00 0.0000000000000000e+00 0.0000000000000000e+00  0.0000000000000000e+00 0.0000000000000000e+00 0.0000000000000000e+00  0.0000000000000000e+00 0.0000000000000000e+00 0.0000000000000000e+00  0.0000000000000000e+00 0.0000000000000000e+00 0.0000000000000000e+00  0.0000000000000000e+00 0.0000000000000000e+00 0.0000000000000000e+00  0.0000000000000000e+00 0.0000000000000000e+00 0.0000000000000000e+00  0.0000000000000000e+00 0.0000000000000000e+00 0.0000000000000000e+00  0.0000000000000000e+00 0.0000000000000000e+00 0.0000