<?xml version="1.0"?>
<VTKFile type="UnstructuredGrid"  version="0.1"  >
<UnstructuredGrid>
<Piece  NumberOfPoints="289" NumberOfCells="512">
<Points>
<DataArray  type="Float64"  NumberOfComponents="3"  format="ascii">0 0 0  0.0625 0 0  0.125 0 0  0.1875 0 0  0.25 0 0  0.3125 0 0  0.375 0 0  0.4375 0 0  0.5 0 0  0.5625 0 0  0.625 0 0  0.6875 0 0  0.75 0 0  0.8125 0 0  0.875 0 0  0.9375 0 0  1 0 0  0 0.0625 0  0.06249996558712508 0.06250039273526543 0  0.1249999304269185 0.06250080057634948 0  0.1874998935582098 0.06250123942127533 0  0.249999854065504 0.06250172680087576 0  0.3124998110994446 0.06250228302990773 0  0.374999763913327 0.06250293289640797 0  0.4374997119202592 0.06250370838106725 0  0.4999996547756002 0.06250465339228133 0  0.562499592488191 0.06250583263326931 0  0.6249995255566838 0.06250734951080775 0  0.68749945508482 0.06250938553979712 0  0.7499993825891887 0.06251229613148686 0  0.8124993079202283 0.06251687105174898 0  0.8749992170869001 0.06252513011278991 0  0.9374990196973381 0.06254303500112804 0  0.9999982579526441 0.06259062843805344 0  0 0.125 0  0.06249993204662472 0.1250007701554919 0  0.1249998625516807 0.1250015697390226 0  0.1874997895712196 0.1250024296366341 0  0.2499997112415036 0.1250033837153443 0  0.3124996258167961 0.125004470853075 0  0.3749995317406812 0.1250057378130642 0  0.437499427761795 0.1250072436764102 0  0.4999993131068219 0.1250090671606395 0  0.5624991877284335 0.1250113193830426 0  0.6249990526663055 0.1250141671193704 0  0.6874989106537962 0.1250178765721395 0  0.7499987675442811 0.1250228965721926 0  0.8124986372278962 0.1250300095204085 0  0.8749985628541314 0.1250405439935607 0  0.9374987169889406 0.1250562719886627 0  0.9999998942392594 0.1250762226727741 0  0 0.1875 0  0.06249990039221994 0.1875011179054988 0  0.1249997983762217 0.1875022781427679 0  0.1874996910003099 0.1875035249638781 0  0.2499995754060014 0.1875049065001247 0  0.3124994488760039 0.1875064772596509 0  0.374999308934343 0.1875083014637521 0  0.4374991535172715 0.1875104578517194 0  0.4999989812360914 0.1875130470086205 0  0.5624987917530302 0.187516202965038 0  0.6249985862832098 0.1875201118297198 0  0.6874983681918904 0.1875250412458432 0  0.7499981434269571 0.1875313837647409 0  0.8124979192859841 0.1875397084078217 0  0.8749976932594201 0.1875507808737681 0  0.9374973869755084 0.1875654417080577 0  0.9999964797953543 0.1875843821722835 0  0 0.25 0  0.06249987164752836 0.250001423059102 0  0.1249997399361733 0.2500028994927285 0  0.1874996008849094 0.250004484842681 0  0.2499994505866049 0.2500062389667425 0  0.3124992852537449 0.2500082286125292 0  0.3749991013351582 0.2500105305792147 0  0.4374988957327603 0.2500132358337782 0  0.4999986661530048 0.2500164550977307 0  0.5624984116295227 0.2500203265431147 0  0.6249981332439741 0.2500250260997544 0  0.6874978350366775 0.2500307797951067 0  0.7499975250197245 0.2500378738021953 0  0.8124972161755257 0.2500466478268451 0  0.8749969285011889 0.2500574356266207 0  0.9374967044301676 0.2500703808659315 0  0.9999967308004124 0.2500850115684841 0  0 0.3125 0  0.06249984683568811 0.3125016745659085 0  0.1249996892865862 0.3125034114468631 0  0.1874995223352008 0.312505275204057 0  0.2499993409760725 0.3125073348094896 0  0.3124991402401765 0.3125096660378217 0  0.3749989153068061 0.3125123540823883 0  0.4374986617447582 0.3125154964646426 0  0.4999983759372667 0.3125192062473584 0  0.5624980557553263 0.3125236153564437 0  0.6249977015440732 0.3125288772365175 0  0.6874973174653518 0.3125351666336836 0  0.749996913189925 0.3125426711708449 0  0.8124965058860433 0.3125515635117198 0  0.87499612248445 0.3125619343830635 0  0.9374958014982393 0.3125736608748227 0  0.9999955802073054 0.3125861994078473 0  0 0.375 0  0.06249982695885042 0.375001863494078 0  0.1249996484663825 0.3750037960537612 0  0.1874994584916858 0.3750058689834787 0  0.2499992509037644 0.3750081579406676 0  0.3124990194483406 0.3750107450632639 0  0.3749987578214888 0.3750137209675592 0  0.4374984598952443 0.3750171864403579 0  0.4999981201735055 0.3750212534825452 0  0.5624977345807056 0.375026045062812 0  0.6249973017000446 0.3750316924083104 0  0.6874968245609953 0.3750383277367134 0  0.7499963129953803 0.3750460688642627 0  0.8124957864068021 0.3750549902443083 0  0.8749952765228948 0.3750650740817724 0  0.9374948293482485 0.3750761401873595 0  0.9999945058489932 0.3750877775599363 0  0 0.4375 0  0.0624998129640662 0.4375019831164703 0  0.1249996194334359 0.4375040398449042 0  0.1874994124369251 0.4375062460297854 0  0.2499991847386564 0.4375086818506725 0  0.3124989287349613 0.4375114337651374 0  0.3749986364437667 0.4375145960619588 0  0.4374982996518215 0.437518271679147 0  0.4999979103223418 0.4375225717270549 0  0.5624974614115322 0.4375276128723238 0  0.6249969482840673 0.4375335114177766 0  0.6874963709197278 0.4375403726620998 0  0.7499957369968949 0.4375482741584966 0  0.8124950656282731 0.4375572421380618 0  0.8749943909691394 0.4375672218931232 0  0.9374937643706128 0.4375780450651061 0  0.9999932541952435 0.4375893978020086 0  0 0.5 0  0.06249980569308509 0.5000020289205853 0  0.1249996039637682 0.5000041337711321 0  0.1874993870458541 0.5000063927755576 0  0.2499991466983418 0.500008888657421 0  0.3124988739880448 0.5000117105959598 0  0.3749985591391458 0.5000149556774964 0  0.4374981915163652 0.500018729398786 0  0.4999977598613541 0.5000231445190813 0  0.5624972529792707 0.5000283172554398 0  0.624996661167158 0.5000343596030723 0  0.6874959787477536 0.5000413667632669 0  0.7499952080110134 0.500049399862694 0  0.8124943644561126 0.5000584670056214 0  0.8749934822159616 0.5000685098466767 0  0.9374926170357405 0.5000794038247927 0  0.9999918436280494 0.5000909634453766 0  0 0.5625 0  0.06249980581584802 0.5625019986266294 0  0.1249996035127222 0.5625040731770217 0  0.1874993847669635 0.5625063020251209 0  0.2499991405443013 0.5625087684474179 0  0.3124988607393039 0.5625115628487354 0  0.374998533828736 0.5625147845524506 0  0.4374981465895111 0.5625185426910103 0  0.499997683996204 0.5625229553942246 0  0.562497129525609 0.5625281460210918 0  0.6249964662739764 0.5625342347500508 0  0.6874956795249635 0.5625413239013873 0  0.7499947615777992 0.5625494770619018 0  0.8124937193858496 0.56255869750525 0  0.8749925840742812 0.5625689226630448 0  0.9374914176910126 0.5625800657753099 0  0.9999903067791763 0.5625921355468686 0  0 0.625 0  0.06249981375113482 0.6250018922766608 0  0.1249996190436859 0.6250038579574608 0  0.1874994073386197 0.6250059731226643 0  0.2499991691594201 0.6250083193405577 0  0.3124988935763925 0.6250109864059361 0  0.3749985676234036 0.6250140749300863 0  0.4374981756556545 0.6250176984185115 0  0.4999976987151261 0.6250219840487643 0  0.5624971140993157 0.6250270706234157 0  0.6249963955928675 0.6250331010496073 0  0.6874955153061443 0.6250402054493776 0  0.7499944488002147 0.6250484710804179 0  0.8124931858405529 0.6250579011027607 0  0.8749917482840118 0.625068385380893 0  0.9374902108043701 0.6250797522988977 0  0.9999887063150715 0.6250920100691174 0  0 0.6875 0  0.06249982958266199 0.6875017124178106 0  0.1249996508407171 0.6875034929539879 0  0.1874994554632834 0.6875054126174959 0  0.2499992340315676 0.6875075484937295 0  0.3124989753665646 0.6875099871305625 0  0.3749986657096264 0.6875128282881672 0  0.4374982876733401 0.6875161889884034 0  0.4999978189179552 0.687520207405105 0  0.5624972305923304 0.68752504518411 0  0.6249964858385592 0.6875308846935497 0  0.6874955393405247 0.6875379136774461 0  0.7499943404525042 0.6875462837200662 0  0.8124928453690656 0.6875560256052859 0  0.8749910471620347 0.6875669263329895 0  0.9374890283771912 0.6875784809624464 0  0.9999870025888242 0.687590293417125 0  0 0.75 0  0.06249985298406287 0.7500014643507763 0  0.1249996983337937 0.7500029885366218 0  0.1874995284859069 0.7500046353589012 0  0.2499993347073553 0.7500064739964654 0  0.312499106366363 0.7500085839511211 0  0.3749988299447702 0.7500110600170408 0  0.4374984876424963 0.7500140187569161 0  0.4999980553628547 0.7500176069145343 0  0.5624974998050515 0.7500220116043478 0  0.6249967744125023 0.7500274698614068 0  0.6874958143421734 0.7500342683936475 0  0.7499945324064328 0.750042707275712 0  0.81249282374428 0.7500529662610129 0  0.8749906021695383 0.7500647723233551 0  0.9374879173907538 0.7500768718351756 0  0.999985183767042 0.750087242727535 0  0 0.8125 0  0.062499883170074 0.8125011563593934 0  0.1249997599760318 0.812502361192404 0  0.1874996241462388 0.8125036657340803 0  0.2499994683275892 0.8125051272717996 0  0.3124992833809059 0.8125068132390939 0  0.3749990573725031 0.8125088069162952 0  0.4374987740471523 0.8125112158987978 0  0.4999984104150419 0.8125141851908453 0  0.5624979328076323 0.8125179176948474 0  0.6249972902683784 0.8125227052674275 0  0.6874964033851003 0.8125289699389113 0  0.7499951460523238 0.8125372942624761 0  0.8124933203837996 0.812548339416898 0  0.8749906474007937 0.8125622957267883 0  0.93748690555445 0.8125769233048689 0  0.9999827748302886 0.8125832263679642 0  0 0.875 0  0.06249991889174924 0.8750007997920899 0  0.1249998332158061 0.8750016338303377 0  0.18749973848803 0.8750025385358058 0  0.2499996293936614 0.8750035551689309 0  0.3124994992297804 0.8750047333372698 0  0.3749993390782083 0.8750061362589571 0  0.437499136496023 0.8750078493565837 0  0.4999988733238726 0.8750099952567968 0  0.5624985218131259 0.8750127614222016 0  0.6249980373679828 0.8750164532054876 0  0.6874973439966229 0.8750215979093873 0  0.7499963028116673 0.8750291442536314 0  0.8124946381527612 0.8750407903419206 0  0.874991754303216 0.8750591619750503 0  0.9374862960148933 0.875085362735798 0  0.9999752416938958 0.8750985211579432 0  0 0.9375 0  0.06249995848862988 0.9375004088526878 0  0.1249999145975071 0.9375008354627936 0  0.1874998659975875 0.9375012987963706 0  0.2499998099128363 0.9375018205355158 0  0.3124997428162655 0.9375024271369525 0  0.3749996599715818 0.937503153073167 0  0.4374995546935511 0
[...]
<PointData  Vectors="f_54"> 
<DataArray  type="Float64"  Name="f_54"  NumberOfComponents="3" format="ascii">0.0000000000000000e+00 0.0000000000000000e+00 0.0000000000000000e+00  0.0000000000000000e+00 0.0000000000000000e+00 0.0000000000000000e+00  0.0000000000000000e+00 0.0000000000000000e+00 0.0000000000000000e+00  0.0000000000000000e+00 0.0000000000000000e+00 0.0000000000000000e+00  0.0000000000000000e+00 0.0000000000000000e+00 0.0000000000000000e+00  0.0000000000000000e+00 0.0000000000000000e+00 0.0000000000000000e+00  0.0000000000000000e+00 0.0000000000000000e+00 0.0000000000000000e+00  0.0000000000000000e+00 0.0000000000000000e+00 0.0000000000000000e+00  0.0000000000000000e+00 0.0000000000000000e+00 0.0000000000000000e+00  0.0000000000000000e+00 0.0000000000000000e+00 0.0000000000000000e+00  0.0000000000000000e+00 0.0000000000000000e+00 0.0000000000000000e+00  0.0000000000000000e+00 0.0000000000000000e+00 0.0000000000000000e+00  0.0000000000000000e+00 0.0000000000000000e+00 0.0000000000000000e+00  0.0000000000000000e+00 0.0000000000000000e+00 0.0000000000000000e+00  0.0000000000000000e+00 0.0000000000000000e+00 0.0000000000000000e+00  0.0000000000000000e+00 0.0000000000000000e+00 0.0000000000000000e+00  0.0000000000000000e+00 0.0000000000000000e+00 0.0000000000000000e+00  0.0000000000000000e+00 0.0000000000000000e+00 0.0000000000000000e+00  1.2071115901126882e-07 -1.1576276919850429e-07 0.0000000000000000e+00  2.4499313105246014e-07 -2.3658604867177994e-07 0.0000000000000000e+00  3.7642256617836377e-07 -3.6784959849943553e-07 0.0000000000000000e+00  5.1857977085834358e-07 -5.1562075537200628e-07 0.0000000000000000e+00  6.7502329072411882e-07 -6.8712923784622956e-07 0.0000000000000000e+00  8.4923149143305348e-07 -8.9144869149066858e-07 0.0000000000000000e+00  1.0445000342894886e-06 -1.1405650965271329e-06 0.0000000000000000e+00  1.2637850034183371e-06 -1.4511891691895183e-06 0.0000000000000000e+00  1.5094828004457964e-06 -1.8480745577148434e-06 0.0000000000000000e+00  1.7831372762609099e-06 -2.3705933611085847e-06 0.0000000000000000e+00  2.0850522454184496e-06 -3.0869412112899310e-06 0.0000000000000000e+00  2.4137322252296096e-06 -4.1279129905124429e-06 0.0000000000000000e+00  2.7648794219323514e-06 -5.7760849484077020e-06 0.0000000000000000e+00  3.1290488650247085e-06 -8.7284070811635154e-06 0.0000000000000000e+00  3.4851607173006995e-06 -1.4955400878153559e-05 0.0000000000000000e+00  3.7817352368004686e-06 -3.0790431299838110e-05 0.0000000000000000e+00  0.0000000000000000e+00 0.0000000000000000e+00 0.0000000000000000e+00  2.3785287090427055e-07 -2.2646631328725940e-07 0.0000000000000000e+00  4.8284006434704795e-07 -4.6273297356100533e-07 0.0000000000000000e+00  7.4211852928732420e-07 -7.1919254302208859e-07 0.0000000000000000e+00  1.0228743016905163e-06 -1.0075048464168530e-06 0.0000000000000000e+00  1.3322829131541552e-06 -1.3414477023319994e-06 0.0000000000000000e+00  1.6774036685862755e-06 -1.7380998611699626e-06 0.0000000000000000e+00  2.0649848647296345e-06 -2.2196206220099098e-06 0.0000000000000000e+00  2.5011589748306695e-06 -2.8161126675109213e-06 0.0000000000000000e+00  2.9910120610021522e-06 -3.5705064668718691e-06 0.0000000000000000e+00  3.5380200909686559e-06 -4.5473376348425543e-06 0.0000000000000000e+00  4.1433515954003390e-06 -5.8492108571647934e-06 0.0000000000000000e+00  4.8050223734045797e-06 -7.6484937291214164e-06 0.0000000000000000e+00  5.5167913000350253e-06 -1.0247566443608353e-05 0.0000000000000000e+00  6.2662839147718676e-06 -1.4180127176503208e-05 0.0000000000000000e+00  7.0301931940099820e-06 -2.0290949921308548e-05 0.0000000000000000e+00  7.7570739868060943e-06 -2.9177875762303502e-05 0.0000000000000000e+00  0.0000000000000000e+00 0.0000000000000000e+00 0.0000000000000000e+00  3.4786291426891769e-07 -3.2737194269549791e-07 0.0000000000000000e+00  7.0639829947832829e-07 -6.6868925231193198e-07 0.0000000000000000e+00  1.0863397055928473e-06 -1.0386847677061235e-06 0.0000000000000000e+00  1.4985185137942953e-06 -1.4537600056010182e-06 0.0000000000000000e+00  1.9538330188961917e-06 -1.9330578311308575e-06 0.0000000000000000e+00  2.4631183543716968e-06 -2.4998822656038035e-06 0.0000000000000000e+00  3.0368804687598033e-06 -3.1837026608974628e-06 0.0000000000000000e+00  3.6848591784747912e-06 -4.0231283535949580e-06 0.0000000000000000e+00  4.4153945523790852e-06 -5.0704872277969423e-06 0.0000000000000000e+00  5.2345932228379350e-06 -6.3990095668381190e-06 0.0000000000000000e+00  6.1453359568869670e-06 -8.1140027125326544e-06 0.0000000000000000e+00  7.1462582537527215e-06 -1.0369124107092731e-05 0.0000000000000000e+00  8.2310604216392898e-06 -1.3385168461301174e-05 0.0000000000000000e+00  9.3892549719350018e-06 -1.7452672242507884e-05 0.0000000000000000e+00  1.0612542182505631e-05 -2.2848828406492857e-05 0.0000000000000000e+00  1.1924920450555652e-05 -2.9500560900127961e-05 0.0000000000000000e+00  0.0000000000000000e+00 0.0000000000000000e+00 0.0000000000000000e+00  4.4720407396993403e-07 -4.1433535750556171e-07 0.0000000000000000e+00  9.0855403839275309e-07 -8.4597027164808140e-07 0.0000000000000000e+00  1.3983269951262166e-06 -1.3130999050608779e-06 0.0000000000000000e+00  1.9310306287467065e-06 -1.8357947134165330e-06 0.0000000000000000e+00  2.5214161565796037e-06 -2.4371426542609080e-06 0.0000000000000000e+00  3.1843607220738159e-06 -3.1446685767126640e-06 0.0000000000000000e+00  3.9345651549114608e-06 -3.9921767208439098e-06 0.0000000000000000e+00  4.7860107206553853e-06 -5.0222035115100609e-06 0.0000000000000000e+00  5.7511260175410132e-06 -6.2892883667026439e-06 0.0000000000000000e+00  6.8396421539150341e-06 -7.8641773948126129e-06 0.0000000000000000e+00  8.0571737476845215e-06 -9.8385989690296547e-06 0.0000000000000000e+00  9.4036692185512526e-06 -1.2328696562415435e-05 0.0000000000000000e+00  1.0872026975327967e-05 -1.5471047627548222e-05 0.0000000000000000e+00  1.2447272664477169e-05 -1.9396083982074759e-05 0.0000000000000000e+00  1.4105989476802842e-05 -2.4150334361015516e-05 0.0000000000000000e+00  1.5809604580740289e-05 -2.9545024890964804e-05 0.0000000000000000e+00  0.0000000000000000e+00 0.0000000000000000e+00 0.0000000000000000e+00  5.3240338124434080e-07 -4.8400255143164681e-07 0.0000000000000000e+00  1.0822907772369618e-06 -9.8775966523910343e-07 0.0000000000000000e+00  1.6673876319183169e-06 -1.5319525910080013e-06 0.0000000000000000e+00  2.3058650377478856e-06 -2.1391784207794370e-06 0.0000000000000000e+00  3.0164448508124540e-06 -2.8350506530198043e-06 0.0000000000000000e+00  3.8183486646491659e-06 -3.6494721816337845e-06 0.0000000000000000e+00  4.7310157888556000e-06 -4.6181288370840352e-06 0.0000000000000000e+00  5.7735026255729572e-06 -5.7842124217786686e-06 0.0000000000000000e+00  6.9634720669553054e-06 -7.2002685796562447e-06 0.0000000000000000e+00  8.3157001409736609e-06 -8.9297808618177912e-06 0.0000000000000000e+00  9.8400870677822703e-06 -1.1047461243557680e-05 0.0000000000000000e+00  1.1539280507795444e-05 -1.3635913868639887e-05 0.0000000000000000e+00  1.3406201895236230e-05 -1.6774072344914404e-05 0.0000000000000000e+00  1.5421959475276153e-05 -2.0510022043740248e-05 0.0000000000000000e+00  1.7554726825527297e-05 -2.4811040180387853e-05 0.0000000000000000e+00  1.9760650884255548e-05 -2.9497575788114510e-05 0.0000000000000000e+00  0.0000000000000000e+00 0.0000000000000000e+00 0.0000000000000000e+00  6.0012260687629829e-07 -5.3391814738307082e-07 0.0000000000000000e+00  1.2208219600262812e-06 -1.0891159397845160e-06 0.0000000000000000e+00  1.8830716910347120e-06 -1.6877746502042087e-06 0.0000000000000000e+00  2.6086012514958475e-06 -2.3539173446786215e-06 0.0000000000000000e+00  3.4201542940420572e-06 -3.1144099097041550e-06 0.0000000000000000e+00  4.3415791210508982e-06 -4.0000394703705719e-06 0.0000000000000000e+00  5.3976545517491261e-06 -5.0466499624967906e-06 0.0000000000000000e+00  6.6135233915059490e-06 -6.2962399685686624e-06 0.0000000000000000e+00  8.0135772099832075e-06 -7.7977761594167603e-06 0.0000000000000000e+00  9.6196273797054756e-06 -9.6071873733574046e-06 0.0000000000000000e+00  1.1448238366484277e-05 -1.1785503402587220e-05 0.0000000000000000e+00  1.3507232643086781e-05 -1.4393350011006202e-05 0.0000000000000000e+00  1.5791642440391072e-05 -1.7479194957403048e-05 0.0000000000000000e+00  1.8279777645121063e-05 -2.1058742013746031e-05 0.0000000000000000e+00  2.0930485620566279e-05 -2.5086047565027163e-05 0.0000000000000000e+00  2.3682795084822600e-05 -2.9427330502467233e-05 0.0000000000000000e+00  0.0000000000000000e+00 0.0000000000000000e+00 0.0000000000000000e+00  6.4726835233863594e-07 -5.6255620582699276e-07 0.0000000000000000e+00  1.3178060129559151e-06 -1.1470131143618210e-06 0.0000000000000000e+00  2.0354792734689635e-06 -1.7761141007253422e-06 0.0000000000000000e+00  2.8253176397834195e-06 -2.4743070792244241e-06 0.0000000000000000e+00  3.7139962632048334e-06 -3.2686317479725175e-06 0.0000000000000000e+00  4.7301645591253210e-06 -4.1896236406108029e-06 0.0000000000000000e+00  5.9045078486128881e-06 -5.2721865770612396e-06 0.0000000000000000e+00  7.2693713078122822e-06 -6.5563119142496723e-06 0.0000000000000000e+00  8.8577052763113668e-06 -8.0873925149505916e-06 0.0000000000000000e+00  1.0701024746818623e-05 -9.9156628652434543e-06 0.0000000000000000e+00  1.2826055381202159e-05 -1.2093974948851094e-05 0.0000000000000000e+00  1.5249844315238729e-05 -1.4672730514290416e-05 0.0000000000000000e+00  1.7973466765723890e-05 -1.7690539942591883e-05 0.0000000000000000e+00  2.0975171079280308e-05 -2.1159614165943304e-05 0.0000000000000000e+00  2.4204826055157027e-05 -2.5046986116090061e-05 0.0000000000000000e+00  2.7582385715751102e-05 -2.9257101774838741e-05 0.0000000000000000e+00  0.0000000000000000e+00 0.0000000000000000e+00 0.0000000000000000e+00  6.7114689406999952e-07 -5.6929446611940839e-07 0.0000000000000000e+00  1.3676565590968209e-06 -1.1602668204190279e-06 0.0000000000000000e+00  2.1157239715443294e-06 -1.7953617176167750e-06 0.0000000000000000e+00  2.9431963441871573e-06 -2.4985645796366732e-06 0.0000000000000000e+00  3.8803518752883929e-06 -3.2961847135517003e-06 0.0000000000000000e+00  4.9605797541140848e-06 -4.2176333803777111e-06 0.0000000000000000e+00  6.2208483719774295e-06 -5.2961546977193280e-06 0.0000000000000000e+00  7.7017608077540308e-06 -6.5694183775404039e-06 0.0000000000000000e+00  9.4468679562122643e-06 -8.0798028411986340e-06 0.0000000000000000e+00  1.1500744167359890e-05 -9.8740719583955552e-06 0.0000000000000000e+00  1.3905167538907797e-05 -1.2001967821940329e-05 0.0000000000000000e+00  1.6692704924668671e-05 -1.4513010818917815e-05 0.0000000000000000e+00  1.9877329377732970e-05 -1.7450565724460679e-05 0.0000000000000000e+00  2.3442776646452123e-05 -2.0842135102394852e-05 0.0000000000000000e+00  2.7331463645062850e-05 -2.4685143608252072e-05 0.0000000000000000e+00  3.1439402883058730e-05 -2.8928544206224455e-05 0.0000000000000000e+00  0.0000000000000000e+00 0.0000000000000000e+00 0.0000000000000000e+00  6.6966325509580359e-07 -5.5435437857263264e-07 0.0000000000000000e+00  1.3659499342751152e-06 -1.1293972330951747e-06 0.0000000000000000e+00  2.1165644203820211e-06 -1.7465001752199467e-06 0.0000000000000000e+00  2.9513929715986327e-06 -2.4284029227802166e-06 0.0000000000000000e+00  3.9036370059101620e-06 -3.1999061769193348e-06 0.0000000000000000e+00  5.0109576040140624e-06 -4.0885658033487445e-06 0.0000000000000000e+00  6.3165513156039136e-06 -5.1253731662107616e-06 0.0000000000000000e+00  7.8699669458008814e-06 -6.3453928145476312e-06 0.0000000000000000e+00  9.7272817859274133e-06 -7.7883115733697273e-06 0.0000000000000000e+00  1.1949951345327448e-05 -9.4988297347690780e-06 0.0000000000000000e+00  1.4601223678199819e-05 -1.1526780007936024e-05 0.0000000000000000e+00  1.7738570110408560e-05 -1.3926737551862358e-05 0.0000000000000000e+00  2.1400505296035674e-05 -1.6756532946624186e-05 0.0000000000000000e+00  2.5587330199816089e-05 -2.0073183485591825e-05 0.0000000000000000e+00  3.0239086936503277e-05 -2.3922907033125460e-05 0.0000000000000000e+00  3.5220867707524042e-05 -2.8319301257057631e-05 0.0000000000000000e+00  0.0000000000000000e+00 0.0000000000000000e+00 0.0000000000000000e+00  6.4155512233909373e-07 -5.1872403231368874e-07 0.0000000000000000e+00  1.3099144052743561e-06 -1.0564654958364919e-06 0.0000000000000000e+00  2.0331898240399061e-06 -1.6328363373841894e-06 0.0000000000000000e+00  2.8421734845446791e-06 -2.2686376010043886e-06 0.0000000000000000e+00  3.7718457031204929e-06 -2.9864670551186453e-06 0.0000000000000000e+00  4.8630639894527821e-06 -3.8113446140921962e-06 0.0000000000000000e+00  6.1644368849965827e-06 -4.7713708793997797e-06 0.0000000000000000e+00  7.7342837603323098e-06 -5.8984557186785869e-06 0.0000000000000000e+00  9.6423603204767705e-06 -7.2292027052941120e-06 0.0000000000000000e+00  1.1970591541001096e-05 -8.8061293532525898e-06 0.0000000000000000e+00  1.4811268161615175e-05 -1.0679549532881577e-05 0.0000000000000000e+00  1.8259949373859847e-05 -1.2910582756512464e-05 0.0000000000000000e+00  2.2398949781612636e-05 -1.5575600159061363e-05 0.0000000000000000e+00  2.7267177107074101e-05 -1.8771130295123195e-05 0.0000000000000000e+00  3.2816980821386388e-05 -2.2614018302940781e-05 0.0000000000000000e+00  3.8874410875808705e-05 -2.7221951872390143e-05 0.0000000000000000e+00  0.0000000000000000e+00 0.0000000000000000e+00 0.0000000000000000e+00  5.8664020497812301e-07 -4.6407338262580889e-07 0.0000000000000000e+00  1.1989600639827307e-06 -9.4490124370136520e-07 0.0000000000000000e+00  1.8641043841969177e-06 -1.4597385343861693e-06 0.0000000000000000e+00  2.6122631188737338e-06 -2.0268399056172562e-06 0.0000000000000000e+00  3.4785066725842260e-06 -2.6659746231139623e-06 0.0000000000000000e+00  4.5050154847333077e-06 -3.3989678737466831e-06 0.0000000000000000e+00  5.7438509285731737e-06 -4.2503005561812207e-06 0.0000000000000000e+00  7.2603785954727489e-06 -5.2478428927313326e-06 0.0000000000000000e+00  9.1373017028771562e-06 -6.4238942903667795e-06 0.0000000000000000e+00  1.1478821561320628e-05 -7.8169064037155244e-06 0.0000000000000000e+00  1.4413373903662371e-05 -9.4746649219364900e-06 0.0000000000000000e+00  1.8091124784526970e-05 -1.1460389755967838e-05 0.0000000000000000e+00  2.2668354739816569e-05 -1.3864093659231222e-05 0.0000000000000000e+00  2.8265724913646961e-05 -1.6821672409671316e-05 0.0000000000000000e+00  3.4887618806824826e-05 -2.0540098369409426e-05 0.0000000000000000e+00  4.2316009998794896e-05 -2.5310776870666758e-05 0.0000000000000000e+00  0.0000000000000000e+00 0.0000000000000000e+00 0.0000000000000000e+00  5.0604182184595858e-07 -3.9266468413703471e-07 0.0000000000000000e+00  1.0351773651875661e-06 -7.9932374376403850e-07 0.0000000000000000e+00  1.6120006460194453e-06 -1.2343724512106898e-06 0.0000000000000000e+00  2.2642642247059866e-06 -1.7130040580880428e-06 0.0000000000000000e+00  3.0248991601691393e-06 -2.2516178695703057e-06 0.0000000000000000e+00  3.9346382284689451e-06 -2.8682443027293690e-06 0.0000000000000000e+00  5.0455729521124705e-06 -3.5830105253192114e-06 0.0000000000000000e+00  6.4260828970317361e-06 -4.4187065750345060e-06 0.0000000000000000e+00  8.1676605336794852e-06 -5.4016035621622509e-06 0.0000000000000000e+00  1.0394051265784055e-05 -6.5629039434540815e-06 0.0000000000000000e+00  1.3272347055273034e-05 -7.9417632033363114e-06 0.0000000000000000e+00  1.7022947361407621e-05 -9.5921422510123752e-06 0.0000000000000000e+00  2.1917842305000705e-05 -1.1598610052826026e-05 0.0000000000000000e+00  2.8240095634416602e-05 -1.4111256062716428e-05 0.0000000000000000e+00  3.6152214318117400e-05 -1.7413868060182245e-05 0.0000000000000000e+00  4.5425900096822922e-05 -2.2022058675657486e-05 0.0000000000000000e+00  0.0000000000000000e+00 0.0000000000000000e+00 0.0000000000000000e+00  4.0234530865106507e-07 -3.0725783500823919e-07 0.0000000000000000e+00  8.2370240337620776e-07 -6.2535259129823718e-07 0.0000000000000000e+00  1.2844520268928551e-06 -9.6541911141065457e-07 0.0000000000000000e+00  1.8078894377138887e-06 -1.3391810857348054e-06 0.0000000000000000e+00  2.4221832439822640e-06 -1.7592426507072356e-06 0.0000000000000000e+00  3.1630617721846634e-06 -2.2393735537744856e-06 0.0000000000000000e+00  4.0777178952528412e-06 -2.7947806485965124e-06 0.0000000000000000e+00  5.2307213013177261e-06 -3.4423547440741501e-06 0.0000000000000000e+00  6.7132157352125294e-06 -4.2008868247441984e-06 0.0000000000000000e+00  8.6574012953213715e-06 -5.0913055638289622e-06 0.0000000000000000e+00  1.1259074063715295e-05 -6.1372785060337960e-06 0.0000000000000000e+00  1.4810601552895828e-05 -7.3676960813232196e-06 0.0000000000000000e+00  1.9740227944584622e-05 -8.8267622544146171e-06 0.0000000000000000e+00  2.6625039490152200e-05 -1.0610601903682407e-05 0.0000000000000000e+00  3.6055683254577312e-05 -1.2981811322921147e-05 0.0000000000000000e+00  4.8065889612884323e-05 -1.6637673731348055e-05 0.0000000000000000e+00  0.0000000000000000e+00 0.0000000000000000e+00 0.0000000000000000e+00  2.7963273200014609e-07 -2.1101060985811150e-07 0.0000000000000000e+00  5.7283049260310399e-07 -4.2940601096778566e-07 0.0000000000000000e+00  8.9421107902649446e-07 -6.6276633584559489e-07 0.0000000000000000e+00  1.2606536370845154e-06 -9.1905403591919395e-07 0.0000000000000000e+00  1.6928780256945983e-06 -1.2067927752306502e-06 0.0000000000000000e+00  2.2177034554637902e-06 -1.5352198859560840e-06 0.0000000000000000e+00  2.8715122253731927e-06 -1.9143745875642972e-06 0.0000000000000000e+00  3.7058676141921232e-06 -2.3550313106751651e-06 0.0000000000000000e+00  4.7970837902829878e-06 -2.8682614665110047e-06 0.0000000000000000e+00  6.2632789071970585e-06 -3.4641144839760184e-06 0.0000000000000000e+00  8.2959844554163759e-06 -4.1482758685996340e-06 0.0000000000000000e+00  1.1220249255730931e-05 -4.9144497975456510e-06 0.0000000000000000e+00  1.5607665397581399e-05 -5.7298069332183111e-06 0.0000000000000000e+00  2.2464726382241324e-05 -6.5218777671925294e-06 0.0000000000000000e+00  3.3379600609657373e-05 -7.2643764318128018e-06 0.0000000000000000e+00  4.9498715974869892e-05 -8.7938425280795132e-06 0.0000000000000000e+00  0.0000000000000000e+00 0.0000000000000000e+00 0.0000000000000000e+00  1.4335171631880340e-07 -1.0737594042290665e-07 0.0000000000000000e+00  2.9377218633825134e-07 -2.1849166709500552e-07 0.0000000000000000e+00  4.5890441914563885e-07 -3.3718306977671462e-07 0.0000000000000000e+00  6.4763208370756502e-07 -4.6747240105796455e-07 0.0000000000000000e+00  8.7096767668901870e-07 -6.1365028187378130e-07 0.0000000000000000e+00  1.1433576332843554e-06 -7.8033319910635273e-07 0.0000000000000000e+00  1.4847559714391633e-06 -9.7245900517590042e-07 0.0000000000000000e+00  1.9241500462075485e-06 -1.1951231338809494e-06 0.0000000000000000e+00  2.5059721039519773e-06 -1.4529944800963225e-06 0.0000000000000000e+00  3.3026500325669570e-06 -1.7485805001480608e-06 0.0000000000000000e+00  4.4413461974702963e-06 -2.0771893987701364e-06 0.0000000000000000e+00  6.1667533123785585e-06 -2.4118514745588919e-06 0.0000000000000000e+00  9.0054288561379756e-06 -2.6556454558586304e-06 0.0000000000000000e+00  1.4247199357895280e-05 -2.4805978444463540e-06 0.0000000000000000e+00  2.5516524647316105e-05 -7.4423160914839986e-07 0.0000000000000000e+00  5.4405771285167873e-05 6.7621272963482677e-06 0.0000000000000000e+00  0.0000000000000000e+00 0.0000000000000000e+00 0.0000000000000000e+00  0.0000000000000000e+00 0.0000000000000000e+00 0.0000000000000000e+00  0.0000000000000000e+00 0.0000000000000000e+00 0.0000000000000000e+00  0.0000000000000000e+00 0.0000000000000000e+00 0.0000000000000000e+00  0.0000000000000000e+00 0.0000000000000000e+00 0.0000000000000000e+00  0.0000000000000000e+00 0.0000000000000000e+00 0.0000000000000000e+00  0.0000000000000000e+00 0.0000000000000000e+00 0.0000000000000000e+00  0.0000000000000000e+00 0.0000000000000000e+00 0.0000000000000000e+00  0.0000000000000000e+00 0.0000000000000000e+00 0.00000