<?xml version="1.0"?>
<VTKFile type="UnstructuredGrid"  version="0.1"  >
<UnstructuredGrid>
<Piece  NumberOfPoints="289" NumberOfCells="512">
<Points>
<DataArray  type="Float64"  NumberOfComponents="3"  format="ascii">0 0 0  0.0625 0 0  0.125 0 0  0.1875 0 0  0.25 0 0  0.3125 0 0  0.375 0 0  0.4375 0 0  0.5 0 0  0.5625 0 0  0.625 0 0  0.6875 0 0  0.75 0 0  0.8125 0 0  0.875 0 0  0.9375 0 0  1 0 0  0 0.0625 0  0.062500737653157 0.06249911781062279 0  0.1250014976429989 0.06249819377297574 0  0.1875023020875448 0.06249718307063599 0  0.2500031732310494 0.06249603444068618 0  0.3125041333237365 0.06249468573385687 0  0.3750052042969321 0.06249305757723299 0  0.4375064071466472 0.06249104352547726 0  0.5000077609155245 0.06248849350954178 0  0.5625092811054593 0.06248518374587207 0  0.6250109771948242 0.06248075722431463 0  0.6875128484955382 0.06247459454058794 0  0.7500148764206785 0.06246550319091148 0  0.8125170084586875 0.06245088272064597 0  0.8750191246149625 0.06242421294331744 0  0.937520986095336 0.06236663355626105 0  1.000022347071632 0.06221582761721595 0  0 0.125 0  0.06250145317443247 0.1249982771755678 0  0.1250029508957548 0.1249964736222639 0  0.1875045373783628 0.1249945030971907 0  0.250006257219581 0.1249922674507003 0  0.3125081552362782 0.1249896486305654 0  0.3750102759058827 0.124986497603064 0  0.4375126622513625 0.1249826178161347 0  0.5000153539874553 0.1249777388813103 0  0.5625183846994093 0.1249714721800939 0  0.6250217776956025 0.1249632319049595 0  0.6875255397660244 0.124952088314086 0  0.7500296507285534 0.1249364884644637 0  0.8125340418347715 0.124913738260867 0  0.8750385367664052 0.1248792010667128 0  0.9375426407557504 0.1248261229495851 0  1.000044627206581 0.1247534113406296 0  0 0.1875 0  0.0625021246476172 0.1874975169380602 0  0.1250043157529298 0.1874949198146665 0  0.1875066395290694 0.1874920872322467 0  0.2500091630833371 0.1874888820888023 0  0.3125119543589671 0.1874851414223279 0  0.3750150815089778 0.1874806629509565 0  0.4375186114775745 0.1874751861515708 0  0.5000226075612259 0.1874683644441485 0  0.562527125749655 0.1874597229645071 0  0.6250322097438917 0.1874485934135229 0  0.6875378848243805 0.1874340147658712 0  0.7500441516568046 0.1874145929680916 0  0.8125509848324531 0.1873883501042009 0  0.8750583579717892 0.1873527430073391 0  0.9375664004544618 0.1873054525675563 0  1.000076211139396 0.1872470220740932 0  0 0.25 0  0.06250273037228339 0.2499968704044754 0  0.1250055485212118 0.2499936008073695 0  0.1875085423489731 0.249990042883614 0  0.2500118015286346 0.2499860306755829 0  0.3125154177642427 0.2499813696914903 0  0.3750194843306873 0.2499758232118222 0  0.4375240945949162 0.2499690944057127 0  0.5000293392175108 0.2499608025307209 0  0.5625353017998526 0.2499504514078782 0  0.6250420529550136 0.2499373894138299 0  0.6875496432783089 0.2499207649009366 0  0.7500580967135444 0.2498994954428185 0  0.8125674075899588 0.2498723064904263 0  0.8750775457718948 0.2498379717814509 0  0.9375884593120485 0.2497959834914869 0  1.00009991949445 0.249747764082897 0  0 0.3125 0  0.06250324912696575 0.3124963635052379 0  0.1250066062940274 0.3124925694554238 0  0.1875101803753998 0.3124884517612263 0  0.250014083350426 0.312483826454701 0  0.3125184311583539 0.3124784811334645 0  0.3750233437128835 0.3124721624246785 0  0.4375289436818559 0.3124645608616321 0  0.500035353591939 0.3124552929144118 0  0.5625426908437752 0.3124438809670885 0  0.6250510604083394 0.3124297346715395 0  0.6875605454419355 0.3124121430076047 0  0.7500711969080686 0.3123902981755082 0  0.8125830244175668 0.312363392474479 0  0.8750959911212355 0.3123308531386859 0  0.9376100146298232 0.3122927786010084 0  1.0001249880256 0.3122505422061133 0  0 0.375 0  0.0625036606172427 0.3749960138028418 0  0.1250074478063714 0.3749918610852255 0  0.1875114900431298 0.3749873672033184 0  0.2500159207610559 0.374982340680627 0  0.3125208801387396 0.3749765636702568 0  0.375026515995232 0.3749697811788426 0  0.4375329832876421 0.3749616889610962 0  0.5000404415625456 0.3749519206004713 0  0.5625490496061433 0.3749400356012269 0  0.6250589565651292 0.3749255128859074 0  0.6875702891216373 0.3749077586114606 0  0.7500831350602687 0.3748861439847439 0  0.8125975247600639 0.3748600959295129 0  0.8751134132366873 0.3748292629341981 0  0.9376306646862814 0.3747937493657729 0  1.000149034487711 0.3747543172512203 0  0 0.4375 0  0.06250394615267409 0.4374958302890309 0  0.1250080347645429 0.4374914932456292 0  0.1875124116057452 0.4374868142713201 0  0.2500172297805147 0.4374816038664453 0  0.3125226528329401 0.4374756494488448 0  0.3750288570419169 0.4374687064249752 0  0.4375360323060177 0.4374604885870718 0  0.5000443807274594 0.4374506584293781 0  0.5625541116630322 0.4374388189960094 0  0.6250654317163993 0.4374245106909088 0  0.6875785281198338 0.4374072193280127 0  0.7500935445804687 0.4373864052624845 0  0.8126105504563862 0.4373615657449396 0  0.8751295074295043 0.437332338293316 0  0.9376502421788873 0.4372986324870892 0  1.000172437077711 0.4372607353414518 0  0 0.5 0  0.06250408957780097 0.4999958138146653 0  0.1250083337131573 0.4999914667470021 0  0.1875128919328106 0.4999867918043859 0  0.2500179339095054 0.4999816095940068 0  0.3125236442804936 0.4999757216622122 0  0.3750302269551147 0.4999689033355728 0  0.4375379083009375 0.4999608960272133 0  0.5000469381265107 0.4999513991833358 0  0.562557586700591 0.4999400624792305 0  0.625070135201325 0.4999264797123852 0  0.6875848562133092 0.4999101873286236 0  0.750101980847472 0.4998906728318828 0  0.81262165109232 0.4998674010871794 0  0.8751438621005925 0.4998398676331722 0  0.9376684106203911 0.4998076820855001 0  1.00019487950993 0.4997706627897459 0  0 0.5625 0  0.06250407845134195 0.5624959579739727 0  0.1250083184446618 0.5624917675831951 0  0.1875128882368561 0.5624872756949955 0  0.2500179692524573 0.562482319633079 0  0.3125237629354325 0.5624767221665123 0  0.3750304976948135 0.5624702861532657 0  0.4375384354998385 0.5624627885790487 0  0.5000478770614534 0.5624539735276973 0  0.562559163478512 0.5624435432877555 0  0.6250726705750632 0.5624311464092643 0  0.6875887899402817 0.5624163614670769 0  0.7501078885880291 0.562398676715074 0  0.8126302394407819 0.5623774711120534 0  0.8751559225099653 0.5623520142804116 0  0.9376847188270623 0.5623215201673734 0  1.000216056158343 0.562285293790723 0  0 0.625 0  0.06250390541932485 0.6249962502911482 0  0.1250079728613782 0.6249923694225424 0  0.187512372649354 0.6249882228982115 0  0.2500172911056343 0.6249836697179898 0  0.3125229395513623 0.6249785591645303 0  0.3750295643498757 0.6249727275042235 0  0.4375374580026042 0.6249659942192329 0  0.5000469706984958 0.6249581567965683 0  0.5625585204303759 0.6249489819316016 0  0.6250725972904274 0.6249381889830408 0  0.6875897531855907 0.6249254187363181 0  0.7501105617505512 0.6249101786518781 0  0.8126355267507934 0.6248917606642621 0  0.8751649195205491 0.624869152378466 0  0.9376985590245858 0.6248410209626211 0  1.000235645678511 0.6248059070201187 0  0 0.6875 0  0.06250356966068675 0.6874966735931041 0  0.1250072940595867 0.6874932364562352 0  0.1875113373426617 0.6874895759283798 0  0.2500158817219088 0.6874855758458576 0  0.3125211383583979 0.6874811152362348 0  0.3750273605095711 0.6874760674544925 0  0.4375348597546791 0.6874702995785666 0  0.5000440258538972 0.6874636711582663 0  0.5625553498155004 0.6874560296775413 0  0.6250694470438773 0.6874471963341037 0  0.6875870710977212 0.6874369285382921 0  0.7501090955886739 0.6874248343833553 0  0.8126364196010326 0.6874102055661927 0  0.8751697269130165 0.6873917588906472 0  0.9377090404850018 0.68736741067324 0  1.000253175592764 0.6873345003611024 0  0 0.75 0  0.06250307820431404 0.7499972074669283 0  0.1250062952280953 0.7499943264334222 0  0.1875097995851543 0.7499912676926983 0  0.2500137584760714 0.7499879411688897 0  0.3125183697449904 0.749984256426932 0  0.3750238773280822 0.7499801244208973 0  0.4375305920795384 0.7499754609548911 0  0.5000389204224692 0.7499701920322772 0  0.5625494036064241 0.7499642599817997 0  0.6250627693828407 0.7499576251725864 0  0.6875799925903756 0.749950246961378 0  0.7501023439593631 0.7499420006067303 0  0.8126313619793831 0.749932433966214 0  0.8751685904659194 0.749920211458882 0  0.9377148019510043 0.7499022548453912 0  1.000268493166678 0.7498738728477773 0  0 0.8125 0  0.06250244684322705 0.8124978296827347 0  0.1250050077760332 0.8124955936634554 0  0.187507805765412 0.8124932264030917 0  0.2500109810140062 0.8124906633460672 0  0.3125147025695059 0.8124878427695934 0  0.3750191841921183 0.8124847096624408 0  0.4375247073482594 0.8124812230692157 0  0.500031655911701 0.8124773691531805 0  0.5625405699009994 0.8124731832003486 0  0.6250522294293264 0.8124687837129209 0  0.6875677833293916 0.8124644152664393 0  0.7500889309483447 0.8124604642950609 0  0.8126181184385207 0.8124572914748336 0  0.8751585299871464 0.8124543629425696 0  0.9377131739474009 0.8124474429547053 0  1.000281969407367 0.8124236460498504 0  0 0.875 0  0.06250170033672915 0.8749985174256618 0  0.1250034819965327 0.874996991655233 0  0.1875054331452088 0.8749953800364978 0  0.2500076553352845 0.8749936416237915 0  0.3125102728939452 0.8749917394443469 0  0.375013446333304 0.8749896450605406 0  0.4375173929217768 0.8749873475325757 0  0.5000224201010743 0.8749848709659237 0  0.5625289825422675 0.8749823092705133 0  0.6250377840070808 0.87497989610231 0  0.6875499659321908 0.8749781460108617 0  0.7500674623691215 0.8749781271846068 0  0.8125936444660297 0.8749818918308031 0  0.8751342686357226 0.8749925366806236 0  0.9376974584030405 0.8750096279255142 0  1.000283322933439 0.8749942448964765 0  0 0.9375 0  0.06250087163393726 0.9374992481610179 0  0.1250017856304631 0.9374984749790574 0  0.187502788091275 0.9374976595425145 0  0.2500039324751448 0.9374967821849217 0  0.3125052848954394 0.9374958260307984 0  0.3750069319121457 0.9374947801213199 0  0.4375089929559121 0.937493645
[...]
<PointData  Vectors="f_54"> 
<DataArray  type="Float64"  Name="f_54"  NumberOfComponents="3" format="ascii">0.0000000000000000e+00 0.0000000000000000e+00 0.0000000000000000e+00  0.0000000000000000e+00 0.0000000000000000e+00 0.0000000000000000e+00  0.0000000000000000e+00 0.0000000000000000e+00 0.0000000000000000e+00  0.0000000000000000e+00 0.0000000000000000e+00 0.0000000000000000e+00  0.0000000000000000e+00 0.0000000000000000e+00 0.0000000000000000e+00  0.0000000000000000e+00 0.0000000000000000e+00 0.0000000000000000e+00  0.0000000000000000e+00 0.0000000000000000e+00 0.0000000000000000e+00  0.0000000000000000e+00 0.0000000000000000e+00 0.0000000000000000e+00  0.0000000000000000e+00 0.0000000000000000e+00 0.0000000000000000e+00  0.0000000000000000e+00 0.0000000000000000e+00 0.0000000000000000e+00  0.0000000000000000e+00 0.0000000000000000e+00 0.0000000000000000e+00  0.0000000000000000e+00 0.0000000000000000e+00 0.0000000000000000e+00  0.0000000000000000e+00 0.0000000000000000e+00 0.0000000000000000e+00  0.0000000000000000e+00 0.0000000000000000e+00 0.0000000000000000e+00  0.0000000000000000e+00 0.0000000000000000e+00 0.0000000000000000e+00  0.0000000000000000e+00 0.0000000000000000e+00 0.0000000000000000e+00  0.0000000000000000e+00 0.0000000000000000e+00 0.0000000000000000e+00  0.0000000000000000e+00 0.0000000000000000e+00 0.0000000000000000e+00  -1.1257334982778406e-07 1.0119652304371330e-07 0.0000000000000000e+00  -2.2847262471639984e-07 2.0681459035150855e-07 0.0000000000000000e+00  -3.5103301287691723e-07 3.2155811526742807e-07 0.0000000000000000e+00  -4.8359234957731447e-07 4.5073112331827312e-07 0.0000000000000000e+00  -6.2946718866472716e-07 6.0065216002285414e-07 0.0000000000000000e+00  -7.9189794631754106e-07 7.7924868484427340e-07 0.0000000000000000e+00  -9.7395273996382872e-07 9.9698824290824575e-07 0.0000000000000000e+00  -1.1783803846592034e-06 1.2684571278137242e-06 0.0000000000000000e+00  -1.4074043810106317e-06 1.6152487512624819e-06 0.0000000000000000e+00  -1.6624492953970784e-06 2.0716821408670801e-06 0.0000000000000000e+00  -1.9437792056988435e-06 2.6971381243789721e-06 0.0000000000000000e+00  -2.2499720624434122e-06 3.6053303589432265e-06 0.0000000000000000e+00  -2.5769420304736113e-06 5.0413861074586796e-06 0.0000000000000000e+00  -2.9154599584543858e-06 7.6081772690069989e-06 0.0000000000000000e+00  -3.2433599173429724e-06 1.3005648723335536e-05 0.0000000000000000e+00  -3.4982957584823502e-06 2.6694412729619455e-05 0.0000000000000000e+00  0.0000000000000000e+00 0.0000000000000000e+00 0.0000000000000000e+00  -2.2182031254734555e-07 1.9797116147322923e-07 0.0000000000000000e+00  -4.5028656736974654e-07 4.0450619200369425e-07 0.0000000000000000e+00  -6.9207295488106223e-07 6.2869286066221020e-07 0.0000000000000000e+00  -9.5387939266698199e-07 8.8072541870067696e-07 0.0000000000000000e+00  -1.2423941700420560e-06 1.1726474408003235e-06 0.0000000000000000e+00  -1.5641945801485065e-06 1.5193840211878945e-06 0.0000000000000000e+00  -1.9255640527707397e-06 1.9402937726321510e-06 0.0000000000000000e+00  -2.3322061377447660e-06 2.4616646932985167e-06 0.0000000000000000e+00  -2.7888407266348720e-06 3.1209722319488717e-06 0.0000000000000000e+00  -3.2986764137806702e-06 3.9745333635088523e-06 0.0000000000000000e+00  -3.8627619334804222e-06 5.1118764143145867e-06 0.0000000000000000e+00  -4.4792188281910088e-06 6.6834648930919514e-06 0.0000000000000000e+00  -5.1423243639366086e-06 8.9536960554767441e-06 0.0000000000000000e+00  -5.8413228364099755e-06 1.2391535263057553e-05 0.0000000000000000e+00  -6.5587789483938314e-06 1.7751105871471634e-05 0.0000000000000000e+00  -7.2691161888714108e-06 2.5636557261940826e-05 0.0000000000000000e+00  0.0000000000000000e+00 0.0000000000000000e+00 0.0000000000000000e+00  -3.2441816423506853e-07 2.8617935614665023e-07 0.0000000000000000e+00  -6.5878002595651430e-07 5.8454643886966638e-07 0.0000000000000000e+00  -1.0130957843741205e-06 9.0798569222865126e-07 0.0000000000000000e+00  -1.3974650653827934e-06 1.2708393678079053e-06 0.0000000000000000e+00  -1.8220474967746271e-06 1.6898447650012349e-06 0.0000000000000000e+00  -2.2969402553123176e-06 2.1853739888045542e-06 0.0000000000000000e+00  -2.8319280140292732e-06 2.7831830964489160e-06 0.0000000000000000e+00  -3.4360722754933339e-06 3.5170076248894855e-06 0.0000000000000000e+00  -4.1171154677802870e-06 4.4325583023528996e-06 0.0000000000000000e+00  -4.8806955228979923e-06 5.5937952630056819e-06 0.0000000000000000e+00  -5.7294066684512794e-06 7.0927044742913893e-06 0.0000000000000000e+00  -6.6618187774702652e-06 9.0635833315674245e-06 0.0000000000000000e+00  -7.6717385408886657e-06 1.1699663075189280e-05 0.0000000000000000e+00  -8.7484941682948346e-06 1.5255745873507662e-05 0.0000000000000000e+00  -9.8808126941232374e-06 1.9974697571733818e-05 0.0000000000000000e+00  -1.1073892516259840e-05 2.5778487098466850e-05 0.0000000000000000e+00  0.0000000000000000e+00 0.0000000000000000e+00 0.0000000000000000e+00  -4.1706724168089661e-07 3.6219590520550769e-07 0.0000000000000000e+00  -8.4731727795903348e-07 7.3951353226000951e-07 0.0000000000000000e+00  -1.3040659558955182e-06 1.1478668946349173e-06 0.0000000000000000e+00  -1.8008422705241296e-06 1.6048096198806567e-06 0.0000000000000000e+00  -2.3513998083832212e-06 2.1305338561472831e-06 0.0000000000000000e+00  -2.9696057013183215e-06 2.7491109075349610e-06 0.0000000000000000e+00  -3.6691562436720463e-06 3.4901008613467045e-06 0.0000000000000000e+00  -4.4630659152896300e-06 4.3906945741260167e-06 0.0000000000000000e+00  -5.3628831641814288e-06 5.4985698718092289e-06 0.0000000000000000e+00  -6.3776107633227982e-06 6.8755644523111068e-06 0.0000000000000000e+00  -7.5123626956491145e-06 8.6018560243889291e-06 0.0000000000000000e+00  -8.7668862205812394e-06 1.0778987136455309e-05 0.0000000000000000e+00  -1.0134220889924700e-05 1.3526429296033411e-05 0.0000000000000000e+00  -1.1599896355902256e-05 1.6958328867935149e-05 0.0000000000000000e+00  -1.3141757869784702e-05 2.1115113210733865e-05 0.0000000000000000e+00  -1.4727255177873284e-05 2.5830452254401462e-05 0.0000000000000000e+00  0.0000000000000000e+00 0.0000000000000000e+00 0.0000000000000000e+00  -4.9652760815829714e-07 4.2308654693570266e-07 0.0000000000000000e+00  -1.0093527208157510e-06 8.6344371900857605e-07 0.0000000000000000e+00  -1.5550084336313952e-06 1.3391614222753241e-06 0.0000000000000000e+00  -2.1504418826071544e-06 1.8700063579540187e-06 0.0000000000000000e+00  -2.8131117813975097e-06 2.4783857320268914e-06 0.0000000000000000e+00  -3.5609395358019191e-06 3.1904616513273275e-06 0.0000000000000000e+00  -4.4120436127185801e-06 4.0374580854433186e-06 0.0000000000000000e+00  -5.3841746055811486e-06 5.0571677909859556e-06 0.0000000000000000e+00  -6.4937644532981388e-06 6.2955669932307686e-06 0.0000000000000000e+00  -7.7545200796814868e-06 7.8081969978951716e-06 0.0000000000000000e+00  -9.1755472958790938e-06 9.6604106812947700e-06 0.0000000000000000e+00  -1.0759104182728808e-05 1.1924439605099803e-05 0.0000000000000000e+00  -1.2498258720260061e-05 1.4669247813273174e-05 0.0000000000000000e+00  -1.4374917665220026e-05 1.7936688178150230e-05 0.0000000000000000e+00  -1.6358775301679327e-05 2.1697723655390981e-05 0.0000000000000000e+00  -1.8407771101042290e-05 2.5795090807612304e-05 0.0000000000000000e+00  0.0000000000000000e+00 0.0000000000000000e+00 0.0000000000000000e+00  -5.5968491504864927e-07 4.6670318112224122e-07 0.0000000000000000e+00  -1.1385547791531393e-06 9.5201305713561335e-07 0.0000000000000000e+00  -1.7561734958092846e-06 1.4753323108713203e-06 0.0000000000000000e+00  -2.4328090132639340e-06 2.0576775900665277e-06 0.0000000000000000e+00  -3.1896741567581233e-06 2.7225575510528428e-06 0.0000000000000000e+00  -4.0490101249630023e-06 3.4969192366775152e-06 0.0000000000000000e+00  -5.0339219823623146e-06 4.4121450944019281e-06 0.0000000000000000e+00  -6.1678460134946753e-06 5.5050171545378735e-06 0.0000000000000000e+00  -7.4735017077760686e-06 6.8184310380023428e-06 0.0000000000000000e+00  -8.9711724286966034e-06 8.4013880220185412e-06 0.0000000000000000e+00  -1.0676197024912270e-05 1.0307350985206676e-05 0.0000000000000000e+00  -1.2595680709771181e-05 1.2589384873322835e-05 0.0000000000000000e+00  -1.4724687427049496e-05 1.5289779106315516e-05 0.0000000000000000e+00  -1.7042557285101940e-05 1.8421847089091006e-05 0.0000000000000000e+00  -1.9510396785480704e-05 2.1944389957043702e-05 0.0000000000000000e+00  -2.2070967131981681e-05 2.5738376250147876e-05 0.0000000000000000e+00  0.0000000000000000e+00 0.0000000000000000e+00 0.0000000000000000e+00  -6.0365325282763936e-07 4.9171142812640150e-07 0.0000000000000000e+00  -1.2290068040353000e-06 1.0025743995814042e-06 0.0000000000000000e+00  -1.8983237440054905e-06 1.5524824706347259e-06 0.0000000000000000e+00  -2.6349522175967143e-06 2.1628247486838104e-06 0.0000000000000000e+00  -3.4637757636503219e-06 2.8572656927794357e-06 0.0000000000000000e+00  -4.4115197543603188e-06 3.6625412301563258e-06 0.0000000000000000e+00  -5.5068079493746133e-06 4.6092293532466864e-06 0.0000000000000000e+00  -6.7798090648718008e-06 5.7323888519019951e-06 0.0000000000000000e+00  -8.2612470747127597e-06 7.0718442003023501e-06 0.0000000000000000e+00  -9.9804862998730334e-06 8.6717016406489868e-06 0.0000000000000000e+00  -1.1962382465464642e-05 1.0578392643959317e-05 0.0000000000000000e+00  -1.4222690050489650e-05 1.2836188164957328e-05 0.0000000000000000e+00  -1.6762148985811586e-05 1.5478892132739170e-05 0.0000000000000000e+00  -1.9560048073641163e-05 1.8516796828848747e-05 0.0000000000000000e+00  -2.2569035542663878e-05 2.1919843324949608e-05 0.0000000000000000e+00  -2.5713768037830741e-05 2.5601934955285234e-05 0.0000000000000000e+00  0.0000000000000000e+00 0.0000000000000000e+00 0.0000000000000000e+00  -6.2591978960791016e-07 4.9756871008207475e-07 0.0000000000000000e+00  -1.2754968965032526e-06 1.0140942646267683e-06 0.0000000000000000e+00  -1.9731672240284011e-06 1.5692059206068754e-06 0.0000000000000000e+00  -2.7449090160653065e-06 2.1838859792814559e-06 0.0000000000000000e+00  -3.6189702101167196e-06 2.8811592702795038e-06 0.0000000000000000e+00  -4.6265036938477633e-06 3.6867808813943536e-06 0.0000000000000000e+00  -5.8020048136249300e-06 4.6298866802616403e-06 0.0000000000000000e+00  -7.1833631139658243e-06 5.7435284824857420e-06 0.0000000000000000e+00  -8.8112194696790695e-06 7.0649444673517173e-06 0.0000000000000000e+00  -1.0727164027823848e-05 8.6353024176488754e-06 0.0000000000000000e+00  -1.2970156429211782e-05 1.0498486071023490e-05 0.0000000000000000e+00  -1.5570507767878666e-05 1.2698273068909166e-05 0.0000000000000000e+00  -1.8541067371979636e-05 1.5273015540689901e-05 0.0000000000000000e+00  -2.1866266566996914e-05 1.8246808963557608e-05 0.0000000000000000e+00  -2.5491661467378284e-05 2.1616406295152268e-05 0.0000000000000000e+00  -2.9319094400631299e-05 2.5334293377645984e-05 0.0000000000000000e+00  0.0000000000000000e+00 0.0000000000000000e+00 0.0000000000000000e+00  -6.2453066654749719e-07 4.8447220811398465e-07 0.0000000000000000e+00  -1.2738985564788140e-06 9.8703407730875419e-07 0.0000000000000000e+00  -1.9739475652324139e-06 1.5263708278904305e-06 0.0000000000000000e+00  -2.7525589715262739e-06 2.1223689926648806e-06 0.0000000000000000e+00  -3.6407100398580887e-06 2.7967267023826416e-06 0.0000000000000000e+00  -4.6735436346739036e-06 3.5735685131276407e-06 0.0000000000000000e+00  -5.8913744848384358e-06 4.4800539858964115e-06 0.0000000000000000e+00  -7.3404545656458606e-06 5.5469585763210620e-06 0.0000000000000000e+00  -9.0731411302109615e-06 6.8091916871312986e-06 0.0000000000000000e+00  -1.1146825491670860e-05 8.3061961162104666e-06 0.0000000000000000e+00  -1.3620582768484298e-05 1.0082127679786190e-05 0.0000000000000000e+00  -1.6548086324386300e-05 1.2185584275116268e-05 0.0000000000000000e+00  -1.9965245512178939e-05 1.4668286539592080e-05 0.0000000000000000e+00  -2.3872092880751356e-05 1.7581203382493603e-05 0.0000000000000000e+00  -2.8211943863407610e-05 2.0964807546405927e-05 0.0000000000000000e+00  -3.2857290843461274e-05 2.4827779565329134e-05 0.0000000000000000e+00  0.0000000000000000e+00 0.0000000000000000e+00 0.0000000000000000e+00  -5.9830932959226081e-07 4.5329142941267588e-07 0.0000000000000000e+00  -1.2216274549873809e-06 9.2320732242561224e-07 0.0000000000000000e+00  -1.8961777206818484e-06 1.4268863820314586e-06 0.0000000000000000e+00  -2.6506862011231324e-06 1.9825096075939119e-06 0.0000000000000000e+00  -3.5177901658099124e-06 2.6098342647522832e-06 0.0000000000000000e+00  -4.5356163095818828e-06 3.3307466355208469e-06 0.0000000000000000e+00  -5.7495330786962769e-06 4.1698500976308958e-06 0.0000000000000000e+00  -7.2139857475763144e-06 5.1551267967418452e-06 0.0000000000000000e+00  -8.9941165915972003e-06 6.3187588386106078e-06 0.0000000000000000e+00  -1.1166463451198655e-05 7.6982845841719439e-06 0.0000000000000000e+00  -1.3817294568828280e-05 9.3384012139599614e-06 0.0000000000000000e+00  -1.7035997197984630e-05 1.1293841087985077e-05 0.0000000000000000e+00  -2.0899642835835938e-05 1.3633557071993301e-05 0.0000000000000000e+00  -2.5444701050141863e-05 1.6445117611665848e-05 0.0000000000000000e+00  -3.0626362256149185e-05 1.9833985441999267e-05 0.0000000000000000e+00  -3.6280569422572230e-05 2.3903050161057286e-05 0.0000000000000000e+00  0.0000000000000000e+00 0.0000000000000000e+00 0.0000000000000000e+00  -5.4708724773444546e-07 4.0549341647997674e-07 0.0000000000000000e+00  -1.1181358594781707e-06 8.2562751762894871e-07 0.0000000000000000e+00  -1.7384655560161450e-06 1.2754715932905622e-06 0.0000000000000000e+00  -2.4362392136765327e-06 1.7709676696958388e-06 0.0000000000000000e+00  -3.2441763382991345e-06 2.3293800816404134e-06 0.0000000000000000e+00  -4.2016355045645963e-06 2.9697696476072159e-06 0.0000000000000000e+00  -5.3572038767109573e-06 3.7135230179232799e-06 0.0000000000000000e+00  -6.7718991816765826e-06 4.5850091799001162e-06 0.0000000000000000e+00  -8.5229478917003840e-06 5.6125280565480254e-06 0.0000000000000000e+00  -1.0707694361411734e-05 6.8299120729713327e-06 0.0000000000000000e+00  -1.3446201586869262e-05 8.2795232470345982e-06 0.0000000000000000e+00  -1.6878989945705329e-05 1.0018039950366308e-05 0.0000000000000000e+00  -2.1152559203285233e-05 1.2127242931703085e-05 0.0000000000000000e+00  -2.6380475590929362e-05 1.4732000071567595e-05 0.0000000000000000e+00  -3.2567774352087241e-05 1.8023187155254802e-05 0.0000000000000000e+00  -3.9510409908193271e-05 2.2266011235821016e-05 0.0000000000000000e+00  0.0000000000000000e+00 0.0000000000000000e+00 0.0000000000000000e+00  -4.7191410506269003e-07 3.4306308090238936e-07 0.0000000000000000e+00  -9.6537733279597766e-07 6.9834897647651929e-07 0.0000000000000000e+00  -1.5033282759133053e-06 1.0784197448156402e-06 0.0000000000000000e+00  -2.1116537540099084e-06 1.4965294151601964e-06 0.0000000000000000e+00  -2.8210737766013453e-06 1.9669759400110076e-06 0.0000000000000000e+00  -3.6695900601637178e-06 2.5054663003107071e-06 0.0000000000000000e+00  -4.7058072336478576e-06 3.1295152199003699e-06 0.0000000000000000e+00  -5.9935375399348950e-06 3.8589316422204943e-06 0.0000000000000000e+00  -7.6181813202420026e-06 4.7165338979068692e-06 0.0000000000000000e+00  -9.6952841155868628e-06 5.7294539019778973e-06 0.0000000000000000e+00  -1.2380953689163286e-05 6.9319342053587167e-06 0.0000000000000000e+00  -1.5881299327739887e-05 8.3718142497853541e-06 0.0000000000000000e+00  -2.0451125790011993e-05 1.0125714042469975e-05 0.0000000000000000e+00  -2.6356646830955293e-05 1.2332861716377968e-05 0.0000000000000000e+00  -3.3753269333871917e-05 1.5261162623680874e-05 0.0000000000000000e+00  -4.2432907693393792e-05 1.9399755961220328e-05 0.0000000000000000e+00  0.0000000000000000e+00 0.0000000000000000e+00 0.0000000000000000e+00  -3.7520323523644962e-07 2.6841858714459866e-07 0.0000000000000000e+00  -7.6814657338826801e-07 5.4629711916913786e-07 0.0000000000000000e+00  -1.1978370883441531e-06 8.4334429108355809e-07 0.0000000000000000e+00  -1.6860013715818020e-06 1.1697747542086059e-06 0.0000000000000000e+00  -2.2589124489373800e-06 1.5365557446699618e-06 0.0000000000000000e+00  -2.9498953417262107e-06 1.9556427642369885e-06 0.0000000000000000e+00  -3.8029691993363195e-06 2.4401936446134236e-06 0.0000000000000000e+00  -4.8783622918772901e-06 3.0047442570747716e-06 0.0000000000000000e+00  -6.2610932112819503e-06 3.6653301873505567e-06 0.0000000000000000e+00  -8.0744903487585515e-06 4.4395901484106535e-06 0.0000000000000000e+00  -1.0501257291110251e-05 5.3471671335326036e-06 0.0000000000000000e+00  -1.3814369884227488e-05 6.4118858343181621e-06 0.0000000000000000e+00  -1.8414163724307275e-05 7.6713844873895565e-06 0.0000000000000000e+00  -2.4841606325261959e-05 9.2131802295803763e-06 0.0000000000000000e+00  -3.3654976014620205e-05 1.1289617498558161e-05 0.0000000000000000e+00  -4.4902418350651618e-05 1.4595009865850375e-05 0.0000000000000000e+00  0.0000000000000000e+00 0.0000000000000000e+00 0.0000000000000000e+00  -2.6076340249336124e-07 1.8432224870043754e-07 0.0000000000000000e+00  -5.3418406156518771e-07 3.7508767469325167e-07 0.0000000000000000e+00  -8.3389311908245897e-07 5.7890040917263863e-07 0.0000000000000000e+00  -1.1756310076363055e-06 8.0268969248913256e-07 0.0000000000000000e+00  -1.5787196189317380e-06 1.0538571829378765e-06 0.0000000000000000e+00  -2.0681672651555065e-06 1.3403940081761047e-06 0.0000000000000000e+00  -2.6778958610362580e-06 1.6709271010537981e-06 0.0000000000000000e+00  -3.4559734006149223e-06 2.0546001055091795e-06 0.0000000000000000e+00  -4.4735242539383374e-06 2.5005662595024976e-06 0.0000000000000000e+00  -5.8406026040535902e-06 3.0165758927540468e-06 0.0000000000000000e+00  -7.7356145026752305e-06 3.6055047879036365e-06 0.0000000000000000e+00  -1.0461292979610027e-05 4.2575464040224189e-06 0.0000000000000000e+00  -1.4550143259237567e-05 4.9353053867769840e-06 0.0000000000000000e+00  -2.0941021186608950e-05 5.5596228301389067e-06 0.0000000000000000e+00  -3.1121188459975879e-05 6.0905664648296502e-06 0.0000000000000000e+00  -4.6205218944518700e-05 7.3128934044705599e-06 0.0000000000000000e+00  0.0000000000000000e+00 0.0000000000000000e+00 0.0000000000000000e+00  -1.3367589321572007e-07 9.3789519233099176e-08 0.0000000000000000e+00  -2.7394716508344378e-07 1.9084072522778960e-07 0.0000000000000000e+00  -4.2794024333452130e-07 2.9449367703532517e-07 0.0000000000000000e+00  -6.0393840863715337e-07 4.0824551347322158e-07 0.0000000000000000e+00  -8.1220925920546272e-07 5.3581612691227224e-07 0.0000000000000000e+00  -1.0662201577499172e-06 6.8118718835476783e-07 0.0000000000000000e+00  -1.3845683246222483e-06 8.4857568201322684e-07 0.0000000000000000e+00  -1.7942600546866306e-06 1.0422429143163221e-06 0.0000000000000000e+00  -2.3366682327426662e-06 1.2658764151632647e-06 0.0000000000000000e+00  -3.0791805856882196e-06 1.5208158699328117e-06 0.0000000000000000e+00  -4.1399824200852280e-06 1.8009865108378331e-06 0.0000000000000000e+00  -5.7461815512008457e-06 2.0778702136010638e-06 0.0000000000000000e+00  -8.3857906033516103e-06 2.2532129180438640e-06 0.0000000000000000e+00  -1.3253206088058858e-05 1.9994587378100551e-06 0.0000000000000000e+00  -2.3709155283009757e-05 1.8056473961922154e-07 0.0000000000000000e+00  -5.0580490180459855e-05 -7.4056413345014284e-06 0.0000000000000000e+00  0.0000000000000000e+00 0.0000000000000000e+00 0.0000000000000000e+00  0.0000000000000000e+00 0.0000000000000000e+00 0.0000000000000000e+00  0.0000000000000000e+00 0.0000000000000000e+00 0.0000000000000000e+00  0.0000000000000000e+00 0.0000000000000000e+00 0.0000000000000000e+00  0.0000000000000000e+00 0.0000000000000000e+00 0.0000000000000000e+00  0.0000000000000000e+00 0.0000000000000000e+00 0.0000000000000000e+00  0.0000000000000000e+00 0.0000000000000000e+00 0.0000000000000000e+00  0.0000000000000000e+00 0.0000000000000000e+00 0.0000000000000000e+00  0.0000000000000000e+00 0.0000000000000000e+00 0.000