<?xml version="1.0"?>
<VTKFile type="UnstructuredGrid"  version="0.1"  >
<UnstructuredGrid>
<Piece  NumberOfPoints="289" NumberOfCells="512">
<Points>
<DataArray  type="Float64"  NumberOfComponents="3"  format="ascii">0 0 0  0.0625 0 0  0.125 0 0  0.1875 0 0  0.25 0 0  0.3125 0 0  0.375 0 0  0.4375 0 0  0.5 0 0  0.5625 0 0  0.625 0 0  0.6875 0 0  0.75 0 0  0.8125 0 0  0.875 0 0  0.9375 0 0  1 0 0  0 0.0625 0  0.06249807265847535 0.06250195864691149 0  0.1249960888394385 0.0625039994260584 0  0.1874939917192994 0.06250620930663364 0  0.2499917245260827 0.06250868564441005 0  0.3124892309853341 0.06251154337629981 0  0.3749864562943225 0.06251492539683079 0  0.4374833487885194 0.06251901892896551 0  0.4999798624299371 0.06252408347787845 0  0.5624759601768232 0.06253050227620384 0  0.6249716181876007 0.06253888451713151 0  0.6874668307123128 0.06255028623908117 0  0.7499616156179526 0.0625667343989587 0  0.8124560214356631 0.06259260550339645 0  0.8749501410819218 0.06263866593604289 0  0.9374441571591516 0.06273521634591524 0  0.9999385671841522 0.06297897085808979 0  0 0.125 0  0.0624962020154592 0.1250038348493207 0  0.1249922911131991 0.1250078290719124 0  0.1874881535464155 0.1250121510000591 0  0.2499836753202893 0.1250169880714358 0  0.3124787429105759 0.1250225596698422 0  0.3749732450517596 0.1250291350424289 0  0.4374670759476397 0.1250370604136695 0  0.4999601402018573 0.1250468029151187 0  0.562452359629164 0.1250590260503125 0  0.6249436818583582 0.1250747260452664 0  0.6874340902737955 0.1250954885640535 0  0.7499236144648719 0.1251239842828245 0  0.8124123403563953 0.1251649147974443 0  0.8749004207842159 0.1252266229851352 0  0.9373880935213788 0.1253224946222124 0  0.9998757337699319 0.1254630769024867 0  0 0.1875 0  0.06249444477798075 0.1875055513638901 0  0.1249887204586792 0.1875113303265396 0  0.1874826563563606 0.187517576384258 0  0.2499760805347016 0.1875245541385284 0  0.3124688204393368 0.1875325693941793 0  0.374960705153433 0.1875419904781807 0  0.4374515698664409 0.1875532784499224 0  0.4999412631061246 0.187567032248005 0  0.5624296571145998 0.1875840587763961 0  0.6249166613590424 0.18760548387293 0  0.6874022384315466 0.1876329265484024 0  0.749886420272835 0.1876687557337623 0  0.8123693199573095 0.1877163945223346 0  0.8748511267564065 0.1877803943917974 0  0.9373320443982177 0.1878652255062423 0  0.9998120131824467 0.1879701660830059 0  0 0.25 0  0.0624928573162529 0.250007039960567 0  0.1249854901910191 0.2500143637898538 0  0.1874776714185204 0.2500222688910166 0  0.2499691704924269 0.2500310808563326 0  0.3124597535881006 0.2500411704902787 0  0.3749491857038496 0.2500529748448879 0  0.4374372358524242 0.2500670244646057 0  0.499923686237858 0.2500839797334777 0  0.5624083462432743 0.2501046796501459 0  0.6248910716497167 0.2501302051287481 0  0.6873717886321725 0.2501619519109816 0  0.749850520610599 0.2502016846443492 0  0.812327414178273 0.2502514797263412 0  0.8748027598782994 0.2503133215652363 0  0.9372770141992781 0.2503878951396443 0  0.9997509016671768 0.2504721472985605 0  0 0.3125 0  0.06249149506254254 0.3125082443648884 0  0.1249827122669809 0.3125168152757151 0  0.1874733692699855 0.3125260533403331 0  0.2499631770203342 0.3125363280465829 0  0.3124518383035451 0.3125480540667258 0  0.3749390488876336 0.3125617098020672 0  0.4374245025190924 0.3125778587613316 0  0.4999079012449796 0.3125971737858264 0  0.5623889726292098 0.3126204624555081 0  0.6248674951772023 0.3126486877779038 0  0.6873433323828227 0.312682968593898 0  0.749816473951185 0.3127245242158778 0  0.8122870798519766 0.3127744926147156 0  0.8747555195314854 0.3128335068583425 0  0.9372223959372536 0.3129009142494755 0  0.9996885351626805 0.3129737397617313 0  0 0.375 0  0.06249041140521309 0.3750091218970702 0  0.1249804952149447 0.3750185988980468 0  0.1874699169914425 0.3750287999506254 0  0.2499583306038443 0.3750401220641252 0  0.3124453743287716 0.3750530051427372 0  0.3749306697629264 0.3750679474386068 0  0.43741382516623 0.3750855210476476 0  0.4998944453885206 0.3751063856896361 0  0.5623721510351122 0.3751312966920771 0  0.6248466097158833 0.3751610987670408 0  0.6873175815894451 0.375196689694789 0  0.7497849792034614 0.3752389267535328 0  0.8122489370368896 0.3752884362565605 0  0.8747098789026522 0.3753452858515773 0  0.9371685626803892 0.3754085260984297 0  0.9996260750198651 0.3754757659063607 0  0 0.4375 0  0.06248965593832337 0.4375096439992217 0  0.1249789407233673 0.4375196577614518 0  0.1874674733547547 0.4375304243086628 0  0.2499548545329769 0.4375423532707398 0  0.3124406591436469 0.4375558942433379 0  0.3749244313311378 0.4375715497208712 0  0.4374056840562947 0.4375898864672421 0  0.4998839060018153 0.4376115429437663 0  0.5623585798776153 0.4376372283251354 0  0.6248292173097019 0.4376677053559853 0  0.6872954158622754 0.4377037446817054 0  0.7497569419572028 0.4377460330350532 0  0.8122138374131076 0.4377950147806723 0  0.874666535022901 0.4378506533200168 0  0.9371159508423339 0.437912128563333 0  0.9995635064917852 0.4379775481403732 0  0 0.5 0  0.06248927197832736 0.5000097960142594 0  0.1249781386683217 0.500019963140002 0  0.1874661814037526 0.5000308850740807 0  0.2499529552445103 0.5000429706426462 0  0.3124379766443921 0.5000566661145723 0  0.3749207128051308 0.5000724667465342 0  0.4374005746079603 0.5000909264080697 0  0.4998769164782866 0.5001126631358213 0  0.5623490486870212 0.5001383569602421 0  0.6248162703597936 0.5001687342777348 0  0.6872779341934171 0.500204530568928 0  0.7497335545916328 0.5002464210001891 0  0.812182965446134 0.5002949075710125 0  0.8746265157171136 0.5003501531868585 0  0.937065255646548 0.5004117563866211 0  0.9995010235135642 0.5004784582007522 0  0 0.5625 0  0.06248929335274792 0.5625095765959244 0  0.1249781605368899 0.5625195130190425 0  0.1874661582595326 0.5625301810423315 0  0.2499528082839042 0.5625419763086239 0  0.3124375793111353 0.5625553301299859 0  0.3749198687388386 0.5625707207910009 0  0.4373989856367573 0.5625886835762884 0  0.4998741381061431 0.5626098181119953 0  0.562344431355785 0.5626347907468685 0  0.6248088878777294 0.56266432867178 0  0.6872665081443603 0.5626992015293114 0  0.7497163976059774 0.5627401857808056 0  0.812157987220204 0.562788006988886 0  0.8745913556908559 0.5628432525670668 0  0.9370175993818708 0.5629062319321709 0  0.9994390811257636 0.5629767150574362 0  0 0.625 0  0.06248974061172717 0.6250089970288546 0  0.1249790514964247 0.6250183306121291 0  0.1874674823732054 0.6250283486142407 0  0.2499545398363031 0.6250394216284817 0  0.3124396631063248 0.6250519546204195 0  0.3749221968696109 0.6250663987626653 0  0.4374013611605323 0.6250832632703588 0  0.4998762199297545 0.6251031268034553 0  0.5623456535791495 0.6251266477070107 0  0.6248083479588759 0.6251545721274873 0  0.68726282530784 0.6251877392130236 0  0.7497075627913472 0.6252270839425473 0  0.81214126724749 0.6252736416091184 0  0.8745633775059892 0.6253285616154047 0  0.9369747863968596 0.6253931212731685 0  0.9993785189202703 0.6254686016981931 0  0 0.6875 0  0.06249061701101065 0.687508080582827 0  0.1249808217788035 0.6875164630990277 0  0.1874701791267516 0.6875254600184781 0  0.249958204733905 0.6875354051729611 0  0.3124443355253728 0.6875466652571492 0  0.3749278936542834 0.6875596523779256 0  0.4374080416794101 0.6875748381249089 0  0.4998837271176195 0.6875927697579944 0  0.5623536170328008 0.6876140892661208 0  0.6248160304999634 0.6876395562577626 0  0.6872688942631492 0.6876700761261439 0  0.7497097842018952 0.6877067370181381 0  0.8121361825437335 0.6877508680457359 0  0.8745461671827874 0.6878041617261914 0  0.9369397485051365 0.687868976763233 0  0.9993206294760038 0.6879489681619 0  0 0.75 0  0.06249190484073164 0.7500068618723715 0  0.1249834385569798 0.7500139804855811 0  0.1874742065850236 0.7500216220162279 0  0.2499637632966818 0.7500300719623021 0  0.3124515793529064 0.7500396461036826 0  0.3749369992390401 0.7500507032836555 0  0.4374191835896268 0.7500636611097083 0  0.4998970291242716 0.7500790161659598 0  0.5623690575652621 0.750097370930344 0  0.6248332664435667 0.7501194699976742 0  0.6872869471365471 0.7501462476317148 0  0.7497265195514395 0.7501788861169935 0  0.8121475550754756 0.7502188834637823 0  0.8745454354559883 0.7502681647252374 0  0.9369175257785638 0.7503295184936583 0  0.9992676674063343 0.7504087151356101 0  0 0.8125 0  0.06249356287236268 0.812505386081353 0  0.1249868199771868 0.8125109742415256 0  0.1874794441764461 0.8125169744001409 0  0.2499710611706111 0.8125236126861067 0  0.3124612178185169 0.8125311410816938 0  0.374949338627888 0.8125398493259404 0  0.4374346624296935 0.8125500806402969 0  0.4999161463801576 0.8125622537637186 0  0.5623923164164194 0.8125768951349996 0  0.6248610313034683 0.8125946864800579 0  0.6873191141056156 0.812616532420316 0  0.7497618091849553 0.81264364180485 0  0.8121821234522196 0.812677569946355 0  0.8745705723144064 0.8127200316941334 0  0.9369173640797845 0.8127720925170044 0  0.9992223139657042 0.8128334842110311 0  0 0.875 0  0.06249552577711043 0.8750037078636166 0  0.1249908332745027 0.8750075552679981 0  0.187485687783491 0.8750116874274272 0  0.2499798179924953 0.8750162613789586 0  0.3124728904451057 0.8750214532948186 0  0.3749644729741026 0.8750274679285954 0  0.437453978589449 0.8750345518579559 0  0.4999405744447556 0.8750430134831769 0  0.5624230267600496 0.8750532552137866 0  0.6248994244546275 0.875065827890899 0  0.6873666664229943 0.8750815251691197 0  0.7498194833428694 0.8751015421221149 0  0.8122485794259012 0.8751276861065204 0  0.8746374331436827 0.8751622900486719 0  0.9369591756116156 0.8752054065546823 0  0.9991895810263973 0.8752352566397873 0  0 0.9375 0  0.06249770623090883 0.9375018897524769 0  0.1249952986873153 0.937503850794544 0  0.1874926546354816 0.9375059574078933 0  0.2499896312620908 0.9375082901432016 0  0.3124860513170094 0.9375109397999982 0  0.3749816820032094 0.9375140127317375 0  0.4374762014381509 0.
[...]
<PointData  Vectors="f_54"> 
<DataArray  type="Float64"  Name="f_54"  NumberOfComponents="3" format="ascii">0.0000000000000000e+00 0.0000000000000000e+00 0.0000000000000000e+00  0.0000000000000000e+00 0.0000000000000000e+00 0.0000000000000000e+00  0.0000000000000000e+00 0.0000000000000000e+00 0.0000000000000000e+00  0.0000000000000000e+00 0.0000000000000000e+00 0.0000000000000000e+00  0.0000000000000000e+00 0.0000000000000000e+00 0.0000000000000000e+00  0.0000000000000000e+00 0.0000000000000000e+00 0.0000000000000000e+00  0.0000000000000000e+00 0.0000000000000000e+00 0.0000000000000000e+00  0.0000000000000000e+00 0.0000000000000000e+00 0.0000000000000000e+00  0.0000000000000000e+00 0.0000000000000000e+00 0.0000000000000000e+00  0.0000000000000000e+00 0.0000000000000000e+00 0.0000000000000000e+00  0.0000000000000000e+00 0.0000000000000000e+00 0.0000000000000000e+00  0.0000000000000000e+00 0.0000000000000000e+00 0.0000000000000000e+00  0.0000000000000000e+00 0.0000000000000000e+00 0.0000000000000000e+00  0.0000000000000000e+00 0.0000000000000000e+00 0.0000000000000000e+00  0.0000000000000000e+00 0.0000000000000000e+00 0.0000000000000000e+00  0.0000000000000000e+00 0.0000000000000000e+00 0.0000000000000000e+00  0.0000000000000000e+00 0.0000000000000000e+00 0.0000000000000000e+00  0.0000000000000000e+00 0.0000000000000000e+00 0.0000000000000000e+00  8.9376595985426031e-09 1.0409890951913238e-08 0.0000000000000000e+00  1.8137690879655025e-08 2.1263727012766024e-08 0.0000000000000000e+00  2.7862185800808276e-08 3.3032723639492071e-08 0.0000000000000000e+00  3.8372927900506391e-08 4.6248120050074010e-08 0.0000000000000000e+00  4.9929286910913534e-08 6.1543311148757105e-08 0.0000000000000000e+00  6.2783925744428770e-08 7.9715210508808883e-08 0.0000000000000000e+00  7.7175928831124470e-08 1.0182170435726772e-07 0.0000000000000000e+00  9.3321615826621372e-08 1.2934891421471799e-07 0.0000000000000000e+00  1.1140473413646454e-07 1.6452153863705296e-07 0.0000000000000000e+00  1.3157056075856001e-07 2.1093037162184788e-07 0.0000000000000000e+00  1.5393306144522094e-07 2.7493341743158425e-07 0.0000000000000000e+00  1.7860594191692227e-07 3.6915845862420295e-07 0.0000000000000000e+00  2.0572631406438160e-07 5.2238939987547742e-07 0.0000000000000000e+00  2.3509890456560689e-07 8.1101141098669178e-07 0.0000000000000000e+00  2.6301531567088449e-07 1.4702325861275252e-06 0.0000000000000000e+00  2.6232984094151799e-07 3.3223906928074272e-06 0.0000000000000000e+00  0.0000000000000000e+00 0.0000000000000000e+00 0.0000000000000000e+00  1.7612943489354136e-08 2.0375814877823482e-08 0.0000000000000000e+00  3.5750303601432587e-08 4.1611510152498672e-08 0.0000000000000000e+00  5.4936777458834898e-08 6.4617277367532414e-08 0.0000000000000000e+00  7.5697967462399395e-08 9.0413300173741115e-08 0.0000000000000000e+00  9.8556831199524668e-08 1.2020476945400481e-07 0.0000000000000000e+00  1.2402549018507893e-07 1.5548769490679819e-07 0.0000000000000000e+00  1.5259123323668508e-07 1.9820999534135050e-07 0.0000000000000000e+00  1.8469647232212527e-07 2.5103255108046520e-07 0.0000000000000000e+00  2.2071463624443630e-07 3.1777533139043564e-07 0.0000000000000000e+00  2.6092929297500461e-07 4.0421481243556073e-07 0.0000000000000000e+00  3.0553776044937612e-07 5.1955456169024735e-07 0.0000000000000000e+00  3.5474490867602348e-07 6.7913289524133863e-07 0.0000000000000000e+00  4.0918552060361736e-07 9.0894191627974481e-07 0.0000000000000000e+00  4.7168697270509128e-07 1.2497797183367066e-06 0.0000000000000000e+00  5.5513787849163789e-07 1.7381935795819439e-06 0.0000000000000000e+00  7.2026220076347538e-07 2.2197008500745072e-06 0.0000000000000000e+00  0.0000000000000000e+00 0.0000000000000000e+00 0.0000000000000000e+00  2.5764287586507560e-08 2.9482352769311294e-08 0.0000000000000000e+00  5.2313677955134357e-08 6.0188938921336197e-08 0.0000000000000000e+00  8.0435814951037959e-08 9.3410287870893425e-08 0.0000000000000000e+00  1.1092360585240419e-07 1.3058034657347334e-07 0.0000000000000000e+00  1.4457172411108817e-07 1.7337004932963056e-07 0.0000000000000000e+00  1.8216569163022164e-07 2.2381304056652812e-07 0.0000000000000000e+00  2.2446101671203460e-07 2.8448561895289477e-07 0.0000000000000000e+00  2.7215033933927372e-07 3.5877627531133345e-07 0.0000000000000000e+00  3.2581778931968338e-07 4.5130099510284524e-07 0.0000000000000000e+00  3.8588194331745119e-07 5.6854783625324954e-07 0.0000000000000000e+00  4.5253021717189738e-07 7.1985115651521545e-07 0.0000000000000000e+00  5.2563659787991654e-07 9.1872635847620996e-07 0.0000000000000000e+00  6.0456711111307680e-07 1.1841995311040139e-06 0.0000000000000000e+00  6.8727078413690993e-07 1.5405769207693264e-06 0.0000000000000000e+00  7.6528960780671640e-07 2.0131027598586621e-06 0.0000000000000000e+00  7.9632559942252270e-07 2.6354446682000036e-06 0.0000000000000000e+00  0.0000000000000000e+00 0.0000000000000000e+00 0.0000000000000000e+00  3.3131350292082278e-08 3.7365472092844984e-08 0.0000000000000000e+00  6.7304530746839281e-08 7.6251621786024951e-08 0.0000000000000000e+00  1.0356872271431477e-07 1.1825357567797513e-07 0.0000000000000000e+00  1.4298757516369672e-07 1.6512530750506533e-07 0.0000000000000000e+00  1.8663833981221983e-07 2.1887753288769273e-07 0.0000000000000000e+00  2.3560076126577422e-07 2.8190122570101077e-07 0.0000000000000000e+00  2.9093142017775123e-07 3.5713096213634982e-07 0.0000000000000000e+00  3.5361890293968840e-07 4.4826663547038990e-07 0.0000000000000000e+00  4.2451530478291123e-07 5.6007419161220568e-07 0.0000000000000000e+00  5.0424028579734377e-07 6.9877663547545985e-07 0.0000000000000000e+00  5.9305448991432470e-07 8.7250063657166570e-07 0.0000000000000000e+00  6.9069711711937662e-07 1.0916042210234209e-06 0.0000000000000000e+00  7.9617805219484013e-07 1.3683753090626508e-06 0.0000000000000000e+00  9.0757093505598721e-07 1.7149774511638064e-06 0.0000000000000000e+00  1.0225539652603256e-06 2.1378582104864359e-06 0.0000000000000000e+00  1.1459451734910709e-06 2.6260424578323137e-06 0.0000000000000000e+00  0.0000000000000000e+00 0.0000000000000000e+00 0.0000000000000000e+00  3.9457563604059930e-08 4.3728809178621325e-08 0.0000000000000000e+00  8.0204756148552239e-08 8.9198578295315623e-08 0.0000000000000000e+00  1.2354665762779886e-07 1.3822611146508513e-07 0.0000000000000000e+00  1.7081846430811419e-07 1.9278735011058829e-07 0.0000000000000000e+00  2.2339106476785793e-07 2.5510904395961075e-07 0.0000000000000000e+00  2.8266405224791828e-07 3.2777581570959688e-07 0.0000000000000000e+00  3.5003992495122522e-07 4.1385830561559948e-07 0.0000000000000000e+00  4.2687181790160520e-07 5.1706633709585317e-07 0.0000000000000000e+00  5.1437600094376038e-07 6.4192375409745678e-07 0.0000000000000000e+00  6.1350031740917898e-07 7.9394051448562054e-07 0.0000000000000000e+00  7.2474193646293855e-07 9.7970647932808425e-07 0.0000000000000000e+00  8.4791437941317169e-07 1.2067234685194659e-06 0.0000000000000000e+00  9.8187952902598172e-07 1.4825992386332461e-06 0.0000000000000000e+00  1.1242936485137054e-06 1.8129579971926016e-06 0.0000000000000000e+00  1.2714224923277843e-06 2.1971760653125435e-06 0.0000000000000000e+00  1.4172772860078041e-06 2.6208259019954007e-06 0.0000000000000000e+00  0.0000000000000000e+00 0.0000000000000000e+00 0.0000000000000000e+00  4.4495075354670989e-08 4.8351918728264114e-08 0.0000000000000000e+00  9.0510595691777362e-08 9.8587673780771546e-08 0.0000000000000000e+00  1.3959430801764084e-07 1.5266378074028050e-07 0.0000000000000000e+00  1.9334731918674745e-07 2.1268631836931247e-07 0.0000000000000000e+00  2.5344109103361907e-07 2.8099078805845917e-07 0.0000000000000000e+00  3.2162083663997527e-07 3.6022701191253750e-07 0.0000000000000000e+00  3.9968726129188334e-07 4.5344810323894389e-07 0.0000000000000000e+00  4.8944566813602681e-07 5.6419840355184860e-07 0.0000000000000000e+00  5.9260834404772060e-07 6.9658684668667644e-07 0.0000000000000000e+00  7.1063408595559197e-07 8.5531583385459328e-07 0.0000000000000000e+00  8.4449036979829195e-07 1.0456060853673247e-06 0.0000000000000000e+00  9.9433401520575827e-07 1.2729104709767410e-06 0.0000000000000000e+00  1.1591335781364798e-06 1.5422506775978345e-06 0.0000000000000000e+00  1.3363122712000677e-06 1.8569857160483290e-06 0.0000000000000000e+00  1.5215854230535025e-06 2.2169902420834595e-06 0.0000000000000000e+00  1.7093702797088009e-06 2.6170942601361909e-06 0.0000000000000000e+00  0.0000000000000000e+00 0.0000000000000000e+00 0.0000000000000000e+00  4.8012801875391439e-08 5.1091550892265586e-08 0.0000000000000000e+00  9.7748281745232871e-08 1.0413594547312525e-07 0.0000000000000000e+00  1.5097197663076979e-07 1.6115348405309443e-07 0.0000000000000000e+00  2.0953384385046300e-07 2.2430037023257199e-07 0.0000000000000000e+00  2.7540246644944038e-07 2.9593575557859105e-07 0.0000000000000000e+00  3.5068690337685275e-07 3.7868541751868259e-07 0.0000000000000000e+00  4.3763697901075636e-07 4.7549664433471861e-07 0.0000000000000000e+00  5.3860789424357583e-07 5.8967448135805482e-07 0.0000000000000000e+00  6.5596870639415845e-07 7.2488358353367405e-07 0.0000000000000000e+00  7.9192751006907770e-07 8.8509356354039257e-07 0.0000000000000000e+00  9.4824218574688084e-07 1.0744422793642593e-06 0.0000000000000000e+00  1.1257913125429629e-06 1.2969982817273140e-06 0.0000000000000000e+00  1.3240076348944898e-06 1.5564320968144713e-06 0.0000000000000000e+00  1.5402429322949809e-06 1.8556650455891692e-06 0.0000000000000000e+00  1.7692490052370724e-06 2.1966358538806604e-06 0.0000000000000000e+00  2.0030990310872299e-06 2.5803040564296248e-06 0.0000000000000000e+00  0.0000000000000000e+00 0.0000000000000000e+00 0.0000000000000000e+00  4.9808055572570919e-08 5.1878175075780090e-08 0.0000000000000000e+00  1.0149730893152860e-07 1.0571008527737942e-07 0.0000000000000000e+00  1.5701027244292780e-07 1.6351179927110632e-07 0.0000000000000000e+00  2.1841147556450078e-07 2.2742245374904223e-07 0.0000000000000000e+00  2.8794470645370795e-07 2.9976098194802521e-07 0.0000000000000000e+00  3.6808253438806542e-07 3.8307398386250792e-07 0.0000000000000000e+00  4.6155929383739423e-07 4.8016636426171914e-07 0.0000000000000000e+00  5.7137170266771585e-07 5.9410165343710078e-07 0.0000000000000000e+00  7.0072067422821794e-07 7.2815450945055918e-07 0.0000000000000000e+00  8.5285336061991623e-07 8.8569822057174528e-07 0.0000000000000000e+00  1.0307479076052997e-06 1.0700254493240386e-06 0.0000000000000000e+00  1.2365720824769313e-06 1.2841499914985609e-06 0.0000000000000000e+00  1.4708585090882006e-06 1.5307443590069403e-06 0.0000000000000000e+00  1.7314059933791810e-06 1.8125286225592210e-06 0.0000000000000000e+00  2.0120791682793976e-06 2.1335048720653171e-06 0.0000000000000000e+00  2.3019502589491800e-06 2.5009169848301387e-06 0.0000000000000000e+00  0.0000000000000000e+00 0.0000000000000000e+00 0.0000000000000000e+00  4.9721730829399693e-08 5.0710304448440286e-08 0.0000000000000000e+00  1.0142155732657624e-07 1.0331284874896008e-07 0.0000000000000000e+00  1.5715844979932789e-07 1.5975856286181023e-07 0.0000000000000000e+00  2.1915418284155185e-07 2.2211264517865088e-07 0.0000000000000000e+00  2.8987814370259560e-07 2.9260575890047050e-07 0.0000000000000000e+00  3.7213335715251568e-07 3.7367445915117173e-07 0.0000000000000000e+00  4.6913801919499672e-07 4.6798066807812362e-07 0.0000000000000000e+00  5.8458861455282089e-07 5.7839358795103152e-07 0.0000000000000000e+00  7.2267610454993298e-07 7.0791008027521473e-07 0.0000000000000000e+00  8.8800245143046935e-07 8.5948616292088213e-07 0.0000000000000000e+00  1.0853082873813028e-06 1.0357675390890219e-06 0.0000000000000000e+00  1.3188764575336996e-06 1.2387759193327477e-06 0.0000000000000000e+00  1.5914392081599724e-06 1.4697973753847389e-06 0.0000000000000000e+00  1.9024431411235631e-06 1.7301164860860806e-06 0.0000000000000000e+00  2.2457232537547270e-06 2.0238383264366318e-06 0.0000000000000000e+00  2.6071331141457926e-06 2.3643918740549205e-06 0.0000000000000000e+00  0.0000000000000000e+00 0.0000000000000000e+00 0.0000000000000000e+00  4.7656292620457358e-08 4.7648850527515229e-08 0.0000000000000000e+00  9.7306985316406971e-08 9.7070293896107375e-08 0.0000000000000000e+00  1.5104514985411639e-07 1.5009377972365816e-07 0.0000000000000000e+00  2.1116489388531784e-07 2.0865922995333722e-07 0.0000000000000000e+00  2.8027506734859410e-07 2.7486843289195778e-07 0.0000000000000000e+00  3.6142750403717768e-07 3.5102820387451412e-07 0.0000000000000000e+00  4.5826105412932053e-07 4.3967531259530817e-07 0.0000000000000000e+00  5.7515576801751640e-07 5.4356398659106932e-07 0.0000000000000000e+00  7.1737629111679671e-07 6.6558156895563441e-07 0.0000000000000000e+00  8.9115220641193562e-07 8.0853616173805979e-07 0.0000000000000000e+00  1.1035840531349590e-06 9.7474017420255565e-07 0.0000000000000000e+00  1.3621641073332391e-06 1.1653346954320373e-06 0.0000000000000000e+00  1.6735613019791795e-06 1.3794839983380384e-06 0.0000000000000000e+00  2.0411982287160638e-06 1.6142111332032665e-06 0.0000000000000000e+00  2.4612524746809999e-06 1.8672105134061464e-06 0.0000000000000000e+00  2.9174952422291244e-06 2.1473592791626080e-06 0.0000000000000000e+00  0.0000000000000000e+00 0.0000000000000000e+00 0.0000000000000000e+00  4.3594843259354170e-08 4.2812968628344714e-08 0.0000000000000000e+00  8.9102539240188536e-08 8.7223055958260669e-08 0.0000000000000000e+00  1.3854689873558496e-07 1.3488335758043396e-07 0.0000000000000000e+00  1.9418052726006155e-07 1.8755697996009270e-07 0.0000000000000000e+00  2.5862334323142849e-07 2.4717349433715975e-07 0.0000000000000000e+00  3.3503177766344691e-07 3.1588482684979542e-07 0.0000000000000000e+00  4.2731095820675996e-07 3.9611484134286676e-07 0.0000000000000000e+00  5.4038094593606719e-07 4.9058690204342043e-07 0.0000000000000000e+00  6.8049970932289223e-07 6.0229107876521885e-07 0.0000000000000000e+00  8.5561876598841588e-07 7.3430416156999469e-07 0.0000000000000000e+00  1.0756787949338882e-06 8.8928136612851836e-07 0.0000000000000000e+00  1.3525986696458280e-06 1.0682889934778877e-06 0.0000000000000000e+00  1.6994104754298637e-06 1.2685323031765807e-06 0.0000000000000000e+00  2.1275166462131139e-06 1.4799523974203929e-06 0.0000000000000000e+00  2.6406070517639450e-06 1.6832995288996797e-06 0.0000000000000000e+00  3.2243042234627950e-06 1.8606924661748731e-06 0.0000000000000000e+00  0.0000000000000000e+00 0.0000000000000000e+00 0.0000000000000000e+00  3.7618477300642185e-08 3.6377801742869345e-08 0.0000000000000000e+00  7.6958520066476152e-08 7.4122621375835728e-08 0.0000000000000000e+00  1.1985540494356240e-07 1.1465557903245400e-07 0.0000000000000000e+00  1.6838155656545332e-07 1.5950635829044826e-07 0.0000000000000000e+00  2.2499855363636715e-07 2.1037622766291044e-07 0.0000000000000000e+00  2.9275496338989003e-07 2.6921239824620021e-07 0.0000000000000000e+00  3.7555559469972319e-07 3.3829799261178752e-07 0.0000000000000000e+00  4.7853711476416275e-07 4.2035808070396761e-07 0.0000000000000000e+00  6.0859475455989737e-07 5.1866546930117569e-07 0.0000000000000000e+00  7.7510619567642307e-07 6.3707463051289442e-07 0.0000000000000000e+00  9.9086388594069857e-07 7.7975294084043679e-07 0.0000000000000000e+00  1.2730807289553309e-06 9.4996764428619523e-07 0.0000000000000000e+00  1.6439001797221383e-06 1.1463710162699937e-06 0.0000000000000000e+00  2.1287966947161464e-06 1.3537421358135056e-06 0.0000000000000000e+00  2.7493463480300291e-06 1.5252896564426776e-06 0.0000000000000000e+00  3.5054222646025905e-06 1.5689147503289305e-06 0.0000000000000000e+00  0.0000000000000000e+00 0.0000000000000000e+00 0.0000000000000000e+00  2.9918250262038110e-08 2.8573328630322531e-08 0.0000000000000000e+00  6.1254469425162690e-08 5.8230925786529661e-08 0.0000000000000000e+00  9.5530299725174693e-08 9.0105771067791544e-08 0.0000000000000000e+00  1.3448578179674241e-07 1.2543093637168948e-07 0.0000000000000000e+00  1.8022604306303170e-07 1.6560480811117593e-07 0.0000000000000000e+00  2.3542212724207515e-07 2.1227962215087941e-07 0.0000000000000000e+00  3.0360230434761045e-07 2.6749137012899249e-07 0.0000000000000000e+00  3.8959226057523228e-07 3.3386070691654113e-07 0.0000000000000000e+00  5.0019938282702272e-07 4.1490925443846030e-07 0.0000000000000000e+00  6.4529374058773461e-07 5.1553919931620119e-07 0.0000000000000000e+00  8.3951279178879254e-07 6.4264796668152221e-07 0.0000000000000000e+00  1.1048545823458870e-06 8.0543148001067918e-07 0.0000000000000000e+00  1.4741802392534464e-06 1.0132717121812716e-06 0.0000000000000000e+00  1.9942778717434789e-06 1.2635029285620213e-06 0.0000000000000000e+00  2.7224255589150503e-06 1.4954857875369585e-06 0.0000000000000000e+00  3.6999666498637345e-06 1.4586628295372466e-06 0.0000000000000000e+00  0.0000000000000000e+00 0.0000000000000000e+00 0.0000000000000000e+00  2.0797794621470567e-08 1.9682406914174576e-08 0.0000000000000000e+00  4.2607617919023323e-08 4.0118946166484881e-08 0.0000000000000000e+00  6.6521120809500509e-08 6.2101486950731139e-08 0.0000000000000000e+00  9.3799037456839180e-08 8.6501082889370123e-08 0.0000000000000000e+00  1.2598886339466847e-07 1.1432444536317101e-07 0.0000000000000000e+00  1.6509225211664784e-07 1.4679855979809038e-07 0.0000000000000000e+00  2.1381983212124871e-07 1.8551086203351249e-07 0.0000000000000000e+00  2.7600049559412811e-07 2.3266062703574386e-07 0.0000000000000000e+00  3.5727022377587205e-07 2.9153811701624649e-07 0.0000000000000000e+00  4.6628249560696297e-07 3.6747920243711439e-07 0.0000000000000000e+00  6.1692009006431702e-07 4.6981447574412837e-07 0.0000000000000000e+00  8.3245644471915537e-07 6.1580891213580578e-07 0.0000000000000000e+00  1.1534071435480223e-06 8.3790186840673977e-07 0.0000000000000000e+00  1.6513294415877849e-06 1.1921208055502883e-06 0.0000000000000000e+00  2.4455366227368998e-06 1.7359772683661606e-06 0.0000000000000000e+00  3.6743237889555591e-06 2.2628137759115606e-06 0.0000000000000000e+00  0.0000000000000000e+00 0.0000000000000000e+00 0.0000000000000000e+00  1.0663353114119931e-08 1.0035499702582414e-08 0.0000000000000000e+00  2.1854176826653147e-08 2.0458238498759489e-08 0.0000000000000000e+00  3.4143330577089016e-08 3.1676271888316647e-08 0.0000000000000000e+00  4.8194297427913633e-08 4.4141961165444312e-08 0.0000000000000000e+00  6.4829125611133048e-08 5.8385430259001421e-08 0.0000000000000000e+00  8.5124559838681088e-08 7.5067777318237365e-08 0.0000000000000000e+00  1.1056306529290846e-07 9.5075750307396810e-08 0.0000000000000000e+00  1.4328564622893545e-07 1.1970686111009366e-07 0.0000000000000000e+00  1.8654209151899235e-07 1.5106331636945996e-07 0.0000000000000000e+00  2.4554861280266607e-07 1.9296226734953722e-07 0.0000000000000000e+00  3.2925324512198315e-07 2.5322453911919812e-07 0.0000000000000000e+00  4.5431430027260493e-07 3.4995643007459979e-07 0.0000000000000000e+00  6.5503709725978741e-07 5.3038524482051391e-07 0.0000000000000000e+00  1.0110568274952641e-06 9.3230759199208994e-07 0.0000000000000000e+00  1.7328931930679127e-06 1.9997971158718727e-06 0.0000000000000000e+00  3.4478679382463888e-06 5.2788072808110767e-06 0.0000000000000000e+00  0.0000000000000000e+00 0.0000000000000000e+00 0.0000000000000000e+00  0.0000000000000000e+00 0.0000000000000000e+00 0.0000000000000000e+00  0.0000000000000000e+00 0.0000000000000000e+00 0.0000000000000000e+00  0.0000000000000000e+00 0.0000000000000000e+00 0.0000000000000000e+00  0.0000000000000000e+00 0.0000000000000000e+00 0.0000000000000000e+00  0.0000000000000000e+00 0.0000000000000000e+00 0.0000000000000000e+00  0.0000000000000000e+00 0.0000000000000000e+00 0.0000000000000000e+00  0.0000000000000000e+00 0.0000000000000000e+00 0.0000000000000000e+00  0.0000000000000000e+00 0.0000000000000000e+00 0.0000000000000000e+00  0.0000000000000000e+00 0.0000000000000000e+00 0.0000000000000000e+00  0.0000000000000000e+00 0.0000000000000000e+00 0.0000000000000000e+00  0.0000000000000000e+00 0.0000000000000000e+00 0.0000000000000000e+00  0.0000000000