<?xml version="1.0"?>
<VTKFile type="UnstructuredGrid"  version="0.1"  >
<UnstructuredGrid>
<Piece  NumberOfPoints="289" NumberOfCells="512">
<Points>
<DataArray  type="Float64"  NumberOfComponents="3"  format="ascii">0 0 0  0.0625 0 0  0.125 0 0  0.1875 0 0  0.25 0 0  0.3125 0 0  0.375 0 0  0.4375 0 0  0.5 0 0  0.5625 0 0  0.625 0 0  0.6875 0 0  0.75 0 0  0.8125 0 0  0.875 0 0  0.9375 0 0  1 0 0  0 0.0625 0  0.06250137170013535 0.06249897998903869 0  0.1250027843764046 0.06249791249941374 0  0.187504278837927 0.06249674678722791 0  0.250005896012186 0.06249542504186849 0  0.3125076766820765 0.06249387753124853 0  0.3750096608520739 0.06249201568085855 0  0.4375118866119642 0.06248972131945334 0  0.500014388367052 0.06248682860056651 0  0.5625171942966525 0.06248309115843573 0  0.625020322837166 0.06247811738479764 0  0.6875237776796944 0.06247123112910607 0  0.7500275396066339 0.06246114146757065 0  0.812531549345394 0.06244507372553514 0  0.8750356610722358 0.06241622181595153 0  0.9375394963255654 0.06235544731854278 0  1.000041981974116 0.06220146788072162 0  0 0.125 0  0.0625027026227646 0.1249980071712672 0  0.125005487051276 0.1249959226448363 0  0.1875084349148601 0.1249936486522944 0  0.2500116283227436 0.1249910743643788 0  0.3125151494688925 0.1249880671481913 0  0.3750190794994257 0.1249844604743968 0  0.4375234963781751 0.1249800358695375 0  0.5000284714985037 0.1249744941486729 0  0.5625340648286511 0.1249674067478383 0  0.6250403184359918 0.1249581288068643 0  0.6875472482616242 0.1249456366312675 0  0.7500548338925999 0.1249282145834787 0  0.812563005730631 0.1249028561432641 0  0.8750716292753109 0.1248642352628077 0  0.9375804937395397 0.1248037594470517 0  1.000089363146668 0.1247142276290897 0  0 0.1875 0  0.06250395220657859 0.187497125733112 0  0.1250080266496696 0.1874941216443609 0  0.1875123456877255 0.1874908498210233 0  0.2500170330027189 0.1874871550973469 0  0.3125222133349781 0.1874828539478785 0  0.375028011122244 0.1874777198136926 0  0.4375345476301331 0.1874714625065097 0  0.5000419361779866 0.1874636979076563 0  0.5625502751594794 0.1874539018043523 0  0.6250596387925601 0.1874413381773014 0  0.6875700660054082 0.1874249486441848 0  0.750081548795311 0.1874031929959748 0  0.8125940234958692 0.1873738692237063 0  0.8751073742412302 0.1873341105012618 0  0.9376214769398014 0.1872813106635817 0  1.000136375921874 0.1872169873549228 0  0 0.25 0  0.0625050802129815 0.2499963737755895 0  0.1250103222092529 0.2499925877394753 0  0.1875158886329952 0.2499884728696491 0  0.2500219450036443 0.2499838407124498 0  0.3125286599784671 0.2499784714448516 0  0.3750362041839956 0.249972098964801 0  0.4375447470214803 0.2499643915197458 0  0.5000544508307938 0.2499549260246052 0  0.5625654618887306 0.2499431541097947 0  0.625077898032309 0.2499283590199216 0  0.6875918333917773 0.2499096074698497 0  0.750107281989288 0.2498857164423913 0  0.8126241839889323 0.2498552969895667 0  0.8751424009295473 0.2498170284003116 0  0.9376617261372595 0.2497704429608134 0  1.000181893641314 0.2497173695412342 0  0 0.3125 0  0.06250604718452173 0.3124957812797037 0  0.125012293990612 0.3124913820175771 0  0.1875189421828433 0.3124866121726594 0  0.2500261988579483 0.3124812618855136 0  0.3125342777738553 0.3124750898718031 0  0.375043398977735 0.3124678097598338 0  0.4375537859180588 0.3124590737881295 0  0.5000656590957716 0.312448453708687 0  0.5625792252856301 0.3124354199662382 0  0.6250946615917485 0.3124193232266029 0  0.6876120943056263 0.3123993889770431 0  0.75013157393168 0.3123747491892298 0  0.8126530498618426 0.3123445575884745 0  0.8751763503572944 0.3123082614220621 0  0.9377011735767912 0.3122660945884332 0  1.000227090507197 0.3122197053737368 0  0 0.375 0  0.06250681525514883 0.374995368983181 0  0.1250138650089178 0.3749905462349004 0  0.1875213877811028 0.3749853308934484 0  0.2500296309211206 0.3749795032466517 0  0.3125388536788731 0.3749728141423168 0  0.3750493284549921 0.3749649731521881 0  0.4375613391819569 0.3749556354921992 0  0.5000751754577797 0.3749443884520781 0  0.5625911207603321 0.3749307396748643 0  0.6251094329994107 0.3749141127015293 0  0.6876303161374706 0.3748938605618084 0  0.7501538830700509 0.3748693161793766 0  0.8126801127796429 0.3748399067394625 0  0.8752088087667955 0.3748053582410024 0  0.937739569309937 0.3747659817191257 0  1.000271779595305 0.3747229264173151 0  0 0.4375 0  0.06250734940354449 0.4374951480985571 0  0.1250149634864847 0.4374901024271984 0  0.1875231133993928 0.4374846609243384 0  0.2500320836790506 0.4374786045629048 0  0.3125421778392948 0.4374716880929525 0  0.3750537223036685 0.4374636300255599 0  0.4375670674530372 0.437454102022981 0  0.5000825839415916 0.4374427185250261 0  0.5626006516810407 0.4374290287485858 0  0.6251216381851109 0.4374125155490441 0  0.6876458627473179 0.4373926093907851 0  0.7501735440408023 0.4373687305873842 0  0.8127047324364628 0.437340376766652 0  0.8752392358172236 0.4373072685133345 0  0.9377765585377907 0.4372695418654081 0  1.000315883045322 0.4372279215383295 0  0 0.5 0  0.06250761920462797 0.4999951206983262 0  0.1250155263629874 0.499990053871527 0  0.1875240187869019 0.4999846048626744 0  0.2500334126152576 0.4999785645364742 0  0.3125440517166532 0.4999717014970571 0  0.3750563155440501 0.4999637537233291 0  0.4375706247166783 0.4999544195988332 0  0.5000874421495287 0.4999433486056307 0  0.5626072661531224 0.4999301325784954 0  0.6251306101272202 0.4999142996857782 0  0.6876579616906521 0.4998953157033904 0  0.7501897135752859 0.4998726012413057 0  0.8127260620187629 0.4998455794095559 0  0.8752668798465545 0.4998137736938646 0  0.9378115943011603 0.4997769721387834 0  1.000359129110836 0.4997354414736376 0  0 0.5625 0  0.06250760107129556 0.5624952805765678 0  0.1250155038819498 0.5624903869626027 0  0.1875240225756933 0.5624851392166347 0  0.2500334959950833 0.5624793458269145 0  0.3125443005313706 0.5624727975523143 0  0.3750568631397387 0.5624652607283636 0  0.43757167365886 0.5624564696657635 0  0.5000892943675418 0.5624461175187516 0  0.5626103626236411 0.5624338446385975 0  0.6251355791086789 0.5624192231261027 0  0.6876656695821157 0.5624017367660705 0  0.750201303217868 0.5623807587368408 0  0.8127429495704959 0.5623555396090177 0  0.8752906684036689 0.5623252411507069 0  0.9378438666161859 0.5622890883582164 0  1.000401129825893 0.5622467389212839 0  0 0.625 0  0.06250728088056678 0.624995614435252 0  0.1250148650769096 0.6249910736908896 0  0.1875230710794568 0.6249862183561918 0  0.2500322475855482 0.6249808806511395 0  0.3125427905123341 0.6249748801183229 0  0.3750551620481183 0.6249680189680189 0  0.4375699118032426 0.6249600764649886 0  0.5000876989923119 0.6249508009557448 0  0.5626093121521744 0.6249398966086159 0  0.6251356781069803 0.6249269993482049 0  0.6876678433168698 0.6249116330111727 0  0.75020689752979 0.6248931348706404 0  0.81275379476962 0.6248705480923635 0  0.8753090251451547 0.6248425184602933 0  0.9378721430367428 0.6248073344549601 0  1.000441328231604 0.6247633985131462 0  0 0.6875 0  0.06250665674511671 0.6874961032911896 0  0.1250136036997461 0.6874920745433734 0  0.1875211481728243 0.6874877790357966 0  0.2500296316990187 0.6874830769760553 0  0.3125394506801897 0.6874778212780969 0  0.3750510814256737 0.687471855552804 0  0.4375651112305936 0.6874650118803667 0  0.5000822767302294 0.6874571069223609 0  0.5626035090708296 0.6874479325653311 0  0.6251299805812379 0.6874372321944612 0  0.68766313592544 0.6874246438404708 0  0.7502046660489515 0.6874095756683429 0  0.812756339355261 0.6873909648004857 0  0.8753195491046623 0.6873668963684967 0  0.9378944358212647 0.6873342416095521 0  1.000478711007374 0.6872889676918512 0  0 0.75 0  0.0625057415375113 0.7499967240180893 0  0.1250117437895344 0.7499933417008546 0  0.1875182850307848 0.7499897454432018 0  0.2500256789792298 0.749985825607984 0  0.3125342974778235 0.7499814704189235 0  0.3750445998955745 0.7499765670213631 0  0.4375571729206026 0.7499710040776433 0  0.5000727855991407 0.7499646757714362 0  0.5625924653785879 0.7499574852629246 0  0.6251175996923871 0.7499493400668895 0  0.687650058887799 0.7499401166825784 0  0.7501923062910349 0.7499295347603072 0  0.8127473802639055 0.7499168042358286 0  0.8753184564675375 0.7498998045663783 0  0.9379074362335688 0.7498736609668756 0  1.000512047092818 0.7498300060925465 0  0 0.8125 0  0.06250456463778128 0.8124974509113022 0  0.1250093437466264 0.8124948223366075 0  0.1875145678425392 0.812492034586962 0  0.2500205001223461 0.8124890082303283 0  0.3125274584471239 0.8124856656631024 0  0.3750358454360493 0.812481934866377 0  0.4375461921353815 0.8124777569430951 0  0.500059224023249 0.8124730999726726 0  0.562575963482328 0.8124679828267972 0  0.6250978907173002 0.8124625123971437 0  0.6876271931380854 0.8124569295923421 0  0.7501671275242884 0.8124516189464415 0  0.8127224452346697 0.8124468842813176 0  0.875299518815705 0.8124418176986212 0  0.9379048904933478 0.8124305040425113 0  1.000539608424218 0.8123938408426583 0  0 0.875 0  0.06250317231641969 0.8749982571063758 0  0.1250064975889949 0.8749964616616587 0  0.1875101411216448 0.8749945614615213 0  0.2500142935726043 0.8749925056469204 0  0.3125191886832043 0.8749902469477365 0  0.375025128594345 0.8749877465273621 0  0.4375325226258452 0.874984983912611 0  0.5000419501149063 0.8749819770470267 0  0.5625542673625022 0.8749788230364935 0  0.6250707979614164 0.8749757819969016 0  0.687593684696255 0.8749734500707761 0  0.7501265548615208 0.8749731036530115 0  0.8126757540784029 0.8749772805407366 0  0.8752523195862121 0.8749901007051055 0  0.9378730557718996 0.8750127914179665 0  1.000546802796684 0.8750062991990138 0  0 0.9375 0  0.06250162625577446 0.9374991156426179 0  0.1250033322029246 0.9374982052226581 0  0.1875052042717861 0.937497243029906 0  0.2500073428079364 0.9374962044708796 0  0.312509872049442 0.9374950676746625 0  0.3750129547730981 0.9374938169260644 0  0.4375168155558445 0.937492449927
[...]
<PointData  Vectors="f_54"> 
<DataArray  type="Float64"  Name="f_54"  NumberOfComponents="3" format="ascii">0.0000000000000000e+00 0.0000000000000000e+00 0.0000000000000000e+00  0.0000000000000000e+00 0.0000000000000000e+00 0.0000000000000000e+00  0.0000000000000000e+00 0.0000000000000000e+00 0.0000000000000000e+00  0.0000000000000000e+00 0.0000000000000000e+00 0.0000000000000000e+00  0.0000000000000000e+00 0.0000000000000000e+00 0.0000000000000000e+00  0.0000000000000000e+00 0.0000000000000000e+00 0.0000000000000000e+00  0.0000000000000000e+00 0.0000000000000000e+00 0.0000000000000000e+00  0.0000000000000000e+00 0.0000000000000000e+00 0.0000000000000000e+00  0.0000000000000000e+00 0.0000000000000000e+00 0.0000000000000000e+00  0.0000000000000000e+00 0.0000000000000000e+00 0.0000000000000000e+00  0.0000000000000000e+00 0.0000000000000000e+00 0.0000000000000000e+00  0.0000000000000000e+00 0.0000000000000000e+00 0.0000000000000000e+00  0.0000000000000000e+00 0.0000000000000000e+00 0.0000000000000000e+00  0.0000000000000000e+00 0.0000000000000000e+00 0.0000000000000000e+00  0.0000000000000000e+00 0.0000000000000000e+00 0.0000000000000000e+00  0.0000000000000000e+00 0.0000000000000000e+00 0.0000000000000000e+00  0.0000000000000000e+00 0.0000000000000000e+00 0.0000000000000000e+00  0.0000000000000000e+00 0.0000000000000000e+00 0.0000000000000000e+00  8.1283909859405587e-08 -9.1305706031691052e-08 0.0000000000000000e+00  1.6497404925510523e-07 -1.8661528997707918e-07 0.0000000000000000e+00  2.5348432731746831e-07 -2.9019122099169200e-07 0.0000000000000000e+00  3.4923183101100231e-07 -4.0684502891680224e-07 0.0000000000000000e+00  4.5462008476529000e-07 -5.4231705077806032e-07 0.0000000000000000e+00  5.7199962433131450e-07 -7.0382158894339629e-07 0.0000000000000000e+00  7.0359777296794287e-07 -9.0090136494258769e-07 0.0000000000000000e+00  8.5140927385745461e-07 -1.1468765985445797e-06 0.0000000000000000e+00  1.0170385320749323e-06 -1.4614983534146992e-06 0.0000000000000000e+00  1.2014796829278681e-06 -1.8762125592214943e-06 0.0000000000000000e+00  1.4048033054731379e-06 -2.4455639688997803e-06 0.0000000000000000e+00  1.6256632735939380e-06 -3.2744483800817434e-06 0.0000000000000000e+00  1.8603854206977790e-06 -4.5906123797076865e-06 0.0000000000000000e+00  2.1010655307516267e-06 -6.9602656302777177e-06 0.0000000000000000e+00  2.3318281319440745e-06 -1.2002478625420138e-05 0.0000000000000000e+00  2.5257454611037262e-06 -2.5000435603407641e-05 0.0000000000000000e+00  0.0000000000000000e+00 0.0000000000000000e+00 0.0000000000000000e+00  1.6016257606527006e-07 -1.7860873926516116e-07 0.0000000000000000e+00  3.2513292014259128e-07 -3.6497021186526019e-07 0.0000000000000000e+00  4.9974117226992941e-07 -5.6731674529123928e-07 0.0000000000000000e+00  6.8883871762660069e-07 -7.9489268404566422e-07 0.0000000000000000e+00  8.9727254303418212e-07 -1.0586350266048742e-06 0.0000000000000000e+00  1.1298144750384998e-06 -1.3721201809110565e-06 0.0000000000000000e+00  1.3910290070386243e-06 -1.7529881184625565e-06 0.0000000000000000e+00  1.6850636491513457e-06 -2.2252320176778232e-06 0.0000000000000000e+00  2.0153468647342257e-06 -2.8231009876304991e-06 0.0000000000000000e+00  2.3841787164975199e-06 -3.5981048585773516e-06 0.0000000000000000e+00  2.7921893570983045e-06 -4.6321311764388873e-06 0.0000000000000000e+00  3.2375876470325243e-06 -6.0626131713627315e-06 0.0000000000000000e+00  3.7149023196740860e-06 -8.1299591451938626e-06 0.0000000000000000e+00  4.2120072505739270e-06 -1.1254914807667577e-05 0.0000000000000000e+00  4.7001657327465597e-06 -1.6083227497499644e-05 0.0000000000000000e+00  5.0923185432166164e-06 -2.2935808440510401e-05 0.0000000000000000e+00  0.0000000000000000e+00 0.0000000000000000e+00 0.0000000000000000e+00  2.3423218412156946e-07 -2.5815791550224378e-07 0.0000000000000000e+00  4.7565651246883402e-07 -5.2734379832576651e-07 0.0000000000000000e+00  7.3151602407633716e-07 -8.1922285909283740e-07 0.0000000000000000e+00  1.0091224852114223e-06 -1.1467926505327301e-06 0.0000000000000000e+00  1.3158375567615439e-06 -1.5252415510635477e-06 0.0000000000000000e+00  1.6589869467212653e-06 -1.9730861470871216e-06 0.0000000000000000e+00  2.0456822470219778e-06 -2.5137775341757411e-06 0.0000000000000000e+00  2.4825257163527012e-06 -3.1780849448090127e-06 0.0000000000000000e+00  2.9751783717029775e-06 -4.0077609256399465e-06 0.0000000000000000e+00  3.5277853129479650e-06 -5.0612813137308018e-06 0.0000000000000000e+00  4.1422822893694696e-06 -6.4227472548543420e-06 0.0000000000000000e+00  4.8176808546132381e-06 -8.2147841777587181e-06 0.0000000000000000e+00  5.5496638671870315e-06 -1.0613278627547331e-05 0.0000000000000000e+00  6.3317824515157169e-06 -1.3849079959775889e-05 0.0000000000000000e+00  7.1640019468160675e-06 -1.8143576479026064e-05 0.0000000000000000e+00  8.0962272109175560e-06 -2.3465544381782996e-05 0.0000000000000000e+00  0.0000000000000000e+00 0.0000000000000000e+00 0.0000000000000000e+00  3.0110675484603663e-07 -3.2667661335565490e-07 0.0000000000000000e+00  6.1174592105880720e-07 -6.6702665769870282e-07 0.0000000000000000e+00  9.4154953082063284e-07 -1.0354470741096691e-06 0.0000000000000000e+00  1.3003089870173347e-06 -1.4478311589731838e-06 0.0000000000000000e+00  1.6979868841216989e-06 -1.9224827234998455e-06 0.0000000000000000e+00  2.1446413202490316e-06 -2.4812543476277941e-06 0.0000000000000000e+00  2.6502263538374943e-06 -3.1510278405066195e-06 0.0000000000000000e+00  3.2242306121259899e-06 -3.9656883199121974e-06 0.0000000000000000e+00  3.8751211941843330e-06 -4.9687597424425820e-06 0.0000000000000000e+00  4.6095790147540382e-06 -6.2167946523645486e-06 0.0000000000000000e+00  5.4315552431574009e-06 -7.7832286178614717e-06 0.0000000000000000e+00  6.3412606035346109e-06 -9.7611690029472622e-06 0.0000000000000000e+00  7.3343257901890696e-06 -1.2260293939887383e-05 0.0000000000000000e+00  8.4014346615587529e-06 -1.5385903305359402e-05 0.0000000000000000e+00  9.5277790744232892e-06 -1.9177895735804881e-05 0.0000000000000000e+00  1.0683300806213222e-05 -2.3491813415737513e-05 0.0000000000000000e+00  0.0000000000000000e+00 0.0000000000000000e+00 0.0000000000000000e+00  3.5844532286021162e-07 -3.8151910958888493e-07 0.0000000000000000e+00  7.2867119813090315e-07 -7.7864144329842414e-07 0.0000000000000000e+00  1.1226320998428735e-06 -1.2077164055537853e-06 0.0000000000000000e+00  1.5525876685584182e-06 -1.6866198714624286e-06 0.0000000000000000e+00  2.0311775193470341e-06 -2.2356341989424995e-06 0.0000000000000000e+00  2.5713919977907982e-06 -2.8784694444529413e-06 0.0000000000000000e+00  3.1863891121918864e-06 -3.6434668399661986e-06 0.0000000000000000e+00  3.8890995771037939e-06 -4.5649958214065626e-06 0.0000000000000000e+00  4.6915599925487416e-06 -5.6849674339517158e-06 0.0000000000000000e+00  5.6039280402188486e-06 -7.0541632394386905e-06 0.0000000000000000e+00  6.6331765658079262e-06 -8.7325707008874238e-06 0.0000000000000000e+00  7.7815489006908391e-06 -1.0786879190520742e-05 0.0000000000000000e+00  9.0449843707412695e-06 -1.3281482054669784e-05 0.0000000000000000e+00  1.0411843305307513e-05 -1.6257076210105721e-05 0.0000000000000000e+00  1.1862308453569984e-05 -1.9690912801279224e-05 0.0000000000000000e+00  1.3369650474950403e-05 -2.3442704949519163e-05 0.0000000000000000e+00  0.0000000000000000e+00 0.0000000000000000e+00 0.0000000000000000e+00  4.0400007236398071e-07 -4.2075646334142580e-07 0.0000000000000000e+00  8.2186214518543015e-07 -8.5830681404681863e-07 0.0000000000000000e+00  1.2677253561476601e-06 -1.3301669908370719e-06 0.0000000000000000e+00  1.7562432123960009e-06 -1.8553163963070787e-06 0.0000000000000000e+00  2.3027620047121485e-06 -2.4549960052488714e-06 0.0000000000000000e+00  2.9233877157575582e-06 -3.1535716254197468e-06 0.0000000000000000e+00  3.6348773535828756e-06 -3.9794492377828162e-06 0.0000000000000000e+00  4.4542701621945201e-06 -4.9659722032827773e-06 0.0000000000000000e+00  5.3981558369985313e-06 -6.1521131795677429e-06 0.0000000000000000e+00  6.4814722932428103e-06 -7.5825501927539870e-06 0.0000000000000000e+00  7.7157548184155384e-06 -9.3063260691794394e-06 0.0000000000000000e+00  9.1068490067811963e-06 -1.1372700409420103e-05 0.0000000000000000e+00  1.0652274267091366e-05 -1.3822154213217795e-05 0.0000000000000000e+00  1.2338668400155939e-05 -1.6670479072526618e-05 0.0000000000000000e+00  1.4139954440618337e-05 -1.9886314892457343e-05 0.0000000000000000e+00  1.6016765310620822e-05 -2.3370698426535615e-05 0.0000000000000000e+00  0.0000000000000000e+00 0.0000000000000000e+00 0.0000000000000000e+00  4.3569088904296093e-07 -4.4319978309696172e-07 0.0000000000000000e+00  8.8705410139114075e-07 -9.0366734495858247e-07 0.0000000000000000e+00  1.3701709160297624e-06 -1.3993398681497945e-06 0.0000000000000000e+00  1.9019107616866101e-06 -1.9495031005668179e-06 0.0000000000000000e+00  2.5002601466390670e-06 -2.5754945822594053e-06 0.0000000000000000e+00  3.1845497273059625e-06 -3.3014221186162417e-06 0.0000000000000000e+00  3.9755044538634496e-06 -4.1548612452909462e-06 0.0000000000000000e+00  4.8950035794124382e-06 -5.1674396705586665e-06 0.0000000000000000e+00  5.9653910179614218e-06 -6.3751177966073454e-06 0.0000000000000000e+00  7.2081334857305971e-06 -7.8178115439642792e-06 0.0000000000000000e+00  8.6416122005788163e-06 -9.5377641813555971e-06 0.0000000000000000e+00  1.0277907300927114e-05 -1.1575790196300014e-05 0.0000000000000000e+00  1.2118671006156610e-05 -1.3964346489276385e-05 0.0000000000000000e+00  1.4150654304859793e-05 -1.6716748416025850e-05 0.0000000000000000e+00  1.6342106809461016e-05 -1.9813448767967318e-05 0.0000000000000000e+00  1.8641780646122296e-05 -2.3189583995818719e-05 0.0000000000000000e+00  0.0000000000000000e+00 0.0000000000000000e+00 0.0000000000000000e+00  4.5170963709913983e-07 -4.4837755219642134e-07 0.0000000000000000e+00  9.2049697072942246e-07 -9.1383021972749042e-07 0.0000000000000000e+00  1.4240030004333013e-06 -1.4140358096237598e-06 0.0000000000000000e+00  1.9809846687465342e-06 -1.9678840876103878e-06 0.0000000000000000e+00  2.6118421539034229e-06 -2.5960918407896914e-06 0.0000000000000000e+00  3.3390811071369420e-06 -3.3218128866956754e-06 0.0000000000000000e+00  4.1876346907030727e-06 -4.1712096841989570e-06 0.0000000000000000e+00  5.1849116573100212e-06 -5.1739157563268612e-06 0.0000000000000000e+00  6.3603510568338171e-06 -6.3632580969319160e-06 0.0000000000000000e+00  7.7441545782634286e-06 -7.7760189422947184e-06 0.0000000000000000e+00  9.3647614606373542e-06 -9.4513950073720703e-06 0.0000000000000000e+00  1.1244608944925469e-05 -1.1428675325022801e-05 0.0000000000000000e+00  1.3393952235873757e-05 -1.3743059532779721e-05 0.0000000000000000e+00  1.5803256914892600e-05 -1.6419084835628241e-05 0.0000000000000000e+00  1.8436103463216040e-05 -1.9461452538895367e-05 0.0000000000000000e+00  2.1226254657788512e-05 -2.2843603051921637e-05 0.0000000000000000e+00  0.0000000000000000e+00 0.0000000000000000e+00 0.0000000000000000e+00  4.5065369877206603e-07 -4.3648503375640333e-07 0.0000000000000000e+00  9.1922865901215197e-07 -8.8924998953567535e-07 0.0000000000000000e+00  1.4243723421711349e-06 -1.3751052555212754e-06 0.0000000000000000e+00  1.9862025126181387e-06 -1.9119304396743770e-06 0.0000000000000000e+00  2.6270714153296317e-06 -2.5192127008444040e-06 0.0000000000000000e+00  3.3723382865104424e-06 -3.2185817021480007e-06 0.0000000000000000e+00  4.2510969193414078e-06 -4.0343261630644793e-06 0.0000000000000000e+00  5.2967309771848604e-06 -4.9938649528524706e-06 0.0000000000000000e+00  6.5470416359822047e-06 -6.1281315769358520e-06 0.0000000000000000e+00  8.0434886797654487e-06 -7.4718158968299621e-06 0.0000000000000000e+00  9.8288052561314183e-06 -9.0633881371773780e-06 0.0000000000000000e+00  1.1941960621171409e-05 -1.0944786985789957e-05 0.0000000000000000e+00  1.4409415495662107e-05 -1.3160515562896556e-05 0.0000000000000000e+00  1.7232443611419853e-05 -1.5755489975865983e-05 0.0000000000000000e+00  2.0372893398469794e-05 -1.8770070769231693e-05 0.0000000000000000e+00  2.3744413190155229e-05 -2.2229263479231742e-05 0.0000000000000000e+00  0.0000000000000000e+00 0.0000000000000000e+00 0.0000000000000000e+00  4.3168244782946977e-07 -4.0831986597460112e-07 0.0000000000000000e+00  8.8140237443146860e-07 -8.3159162624538388e-07 0.0000000000000000e+00  1.3680717672902253e-06 -1.2852232533501395e-06 0.0000000000000000e+00  1.9124057468868591e-06 -1.7855467583372039e-06 0.0000000000000000e+00  2.5379369180956404e-06 -2.3502858664307547e-06 0.0000000000000000e+00  3.2721514199868301e-06 -2.9990310153766281e-06 0.0000000000000000e+00  4.1477492263683939e-06 -3.7537279416414748e-06 0.0000000000000000e+00  5.2039618579949474e-06 -4.6391985214546378e-06 0.0000000000000000e+00  6.4877113567069607e-06 -5.6837432092433177e-06 0.0000000000000000e+00  8.0540991892149888e-06 -6.9199370122627933e-06 0.0000000000000000e+00  9.9651856517691623e-06 -8.3858353919643415e-06 0.0000000000000000e+00  1.2285209741828376e-05 -1.0126927538064097e-05 0.0000000000000000e+00  1.5069506907142381e-05 -1.2199164463609901e-05 0.0000000000000000e+00  1.8344388381389701e-05 -1.4672799589405510e-05 0.0000000000000000e+00  2.2078741992723740e-05 -1.7634641940792624e-05 0.0000000000000000e+00  2.6159085623551731e-05 -2.1181240491730719e-05 0.0000000000000000e+00  0.0000000000000000e+00 0.0000000000000000e+00 0.0000000000000000e+00  3.9468235256104031e-07 -3.6521203518086572e-07 0.0000000000000000e+00  8.0664038558969544e-07 -7.4358748043548036e-07 0.0000000000000000e+00  1.2541267068094089e-06 -1.1486697122967279e-06 0.0000000000000000e+00  1.7574403032113795e-06 -1.5947763819746949e-06 0.0000000000000000e+00  2.3401591370373046e-06 -2.0973939764145745e-06 0.0000000000000000e+00  3.0306372235795741e-06 -2.6735867013785399e-06 0.0000000000000000e+00  3.8638644655979253e-06 -3.3424385266629538e-06 0.0000000000000000e+00  4.8837626984113054e-06 -4.1255744710010641e-06 0.0000000000000000e+00  6.1458867782529122e-06 -5.0478689694750415e-06 0.0000000000000000e+00  7.7201996398615988e-06 -6.1385794151221053e-06 0.0000000000000000e+00  9.6928646488368563e-06 -7.4333959499660761e-06 0.0000000000000000e+00  1.2164463011189291e-05 -8.9783317874498188e-06 0.0000000000000000e+00  1.5239308312615966e-05 -1.0836945438556298e-05 0.0000000000000000e+00  1.8997123634940730e-05 -1.3102573410763949e-05 0.0000000000000000e+00  2.3438757302130309e-05 -1.5915284420741810e-05 0.0000000000000000e+00  2.8416158349851735e-05 -1.9475777051307751e-05 0.0000000000000000e+00  0.0000000000000000e+00 0.0000000000000000e+00 0.0000000000000000e+00  3.4041722225088836e-07 -3.0895125105313677e-07 0.0000000000000000e+00  6.9636620640681080e-07 -6.2889185990125114e-07 0.0000000000000000e+00  1.0843773662010490e-06 -9.7111332412215587e-07 0.0000000000000000e+00  1.5231020108222915e-06 -1.3475253194296099e-06 0.0000000000000000e+00  2.0346677595308036e-06 -1.7709694733803720e-06 0.0000000000000000e+00  2.6464385126584010e-06 -2.2555434362855465e-06 0.0000000000000000e+00  3.3934004690568934e-06 -2.8169504761268561e-06 0.0000000000000000e+00  4.3214676215275738e-06 -3.4729135519176348e-06 0.0000000000000000e+00  5.4920555565518289e-06 -4.2437517119241051e-06 0.0000000000000000e+00  6.9881979066027767e-06 -5.1533603155173684e-06 0.0000000000000000e+00  8.9219407174730775e-06 -6.2311806364997429e-06 0.0000000000000000e+00  1.1440879763712803e-05 -7.5165362253680997e-06 0.0000000000000000e+00  1.4726598473167494e-05 -9.0683717672991340e-06 0.0000000000000000e+00  1.8966456230538989e-05 -1.0986169686490900e-05 0.0000000000000000e+00  2.4263196591480401e-05 -1.3449384425201380e-05 0.0000000000000000e+00  3.0450919910615993e-05 -1.6772321102488225e-05 0.0000000000000000e+00  0.0000000000000000e+00 0.0000000000000000e+00 0.0000000000000000e+00  2.7063198000738085e-07 -2.4171191767383883e-07 0.0000000000000000e+00  5.5404724310121278e-07 -4.9193110577523502e-07 0.0000000000000000e+00  8.6393937256018089e-07 -7.5938849168123774e-07 0.0000000000000000e+00  1.2159578584365236e-06 -1.0532729863645871e-06 0.0000000000000000e+00  1.6290217965360853e-06 -1.3834586284646332e-06 0.0000000000000000e+00  2.1271215693022507e-06 -1.7607288021491890e-06 0.0000000000000000e+00  2.7419380118526076e-06 -2.1969946808422037e-06 0.0000000000000000e+00  3.5168089561649650e-06 -2.7055045998157419e-06 0.0000000000000000e+00  4.5129015340076304e-06 -3.3010475159952458e-06 0.0000000000000000e+00  5.8189336393438395e-06 -4.0001951939336845e-06 0.0000000000000000e+00  7.5663005498648258e-06 -4.8218156269437725e-06 0.0000000000000000e+00  9.9511622929483539e-06 -5.7888217307972751e-06 0.0000000000000000e+00  1.3260532775923547e-05 -6.9346538838935727e-06 0.0000000000000000e+00  1.7879670083397447e-05 -8.3255472799933615e-06 0.0000000000000000e+00  2.4196918512523863e-05 -1.0125557290210290e-05 0.0000000000000000e+00  3.2212974715533359e-05 -1.2720122391725222e-05 0.0000000000000000e+00  0.0000000000000000e+00 0.0000000000000000e+00 0.0000000000000000e+00  1.8807493012057284e-07 -1.6597557427806728e-07 0.0000000000000000e+00  3.8526885668412828e-07 -3.3774742588260748e-07 0.0000000000000000e+00  6.0140037697548238e-07 -5.2125831626398637e-07 0.0000000000000000e+00  8.4780496787971600e-07 -7.2275027173417440e-07 0.0000000000000000e+00  1.1383937725882725e-06 -9.4890694438203105e-07 0.0000000000000000e+00  1.4911680358410633e-06 -1.2069810509720852e-06 0.0000000000000000e+00  1.9305424231585741e-06 -1.5048852937510989e-06 0.0000000000000000e+00  2.4911156836565602e-06 -1.8511943803366582e-06 0.0000000000000000e+00  3.2241001819560727e-06 -2.2549317292050917e-06 0.0000000000000000e+00  4.2087945004768289e-06 -2.7248425819275997e-06 0.0000000000000000e+00  5.5738847358296090e-06 -3.2674900836431676e-06 0.0000000000000000e+00  7.5380207575083099e-06 -3.8829227795080329e-06 0.0000000000000000e+00  1.0486196344447061e-05 -4.5568502028612732e-06 0.0000000000000000e+00  1.5096519637772731e-05 -5.2572516027162613e-06 0.0000000000000000e+00  2.2432598717542966e-05 -6.0093554229494400e-06 0.0000000000000000e+00  3.3210164789767873e-05 -7.5024864416208370e-06 0.0000000000000000e+00  0.0000000000000000e+00 0.0000000000000000e+00 0.0000000000000000e+00  9.6409038094551196e-08 -8.4451849977755875e-08 0.0000000000000000e+00  1.9756915197345275e-07 -1.7183872403261666e-07 0.0000000000000000e+00  3.0861285524614877e-07 -2.6516772270150536e-07 0.0000000000000000e+00  4.3550453941913012e-07 -3.6759268563132565e-07 0.0000000000000000e+00  5.8563565151481624e-07 -4.8248092785565891e-07 0.0000000000000000e+00  7.6869947487823970e-07 -6.1346575487148933e-07 0.0000000000000000e+00  9.9808169994660127e-07 -7.6446263163888309e-07 0.0000000000000000e+00  1.2932267604823813e-06 -9.3959085176067775e-07 0.0000000000000000e+00  1.6839466772836892e-06 -1.1428426496716339e-06 0.0000000000000000e+00  2.2188719492432169e-06 -1.3770519917129147e-06 0.0000000000000000e+00  2.9835043169514445e-06 -1.6408272187882985e-06 0.0000000000000000e+00  4.1427708875696927e-06 -1.9192084925999794e-06 0.0000000000000000e+00  6.0529670673669876e-06 -2.1536386592976963e-06 0.0000000000000000e+00  9.5922506025424583e-06 -2.1386163917137616e-06 0.0000000000000000e+00  1.7253820362147387e-05 -1.1387280652477432e-06 0.0000000000000000e+00  3.7172098730798035e-05 3.6415561740025924e-06 0.0000000000000000e+00  0.0000000000000000e+00 0.0000000000000000e+00 0.0000000000000000e+00  0.0000000000000000e+00 0.0000000000000000e+00 0.0000000000000000e+00  0.0000000000000000e+00 0.0000000000000000e+00 0.0000000000000000e+00  0.0000000000000000e+00 0.0000000000000000e+00 0.0000000000000000e+00  0.0000000000000000e+00 0.0000000000000000e+00 0.0000000000000000e+00  0.0000000000000000e+00 0.0000000000000000e+00 0.0000000000000000e+00  0.0000000000000000e+00 0.0000000000000000e+00 0.0000000000000000e+00  0.0000000000000000e+00 0.0000000000000000e+00 0.0000000000000000e+00  0.0000000000000000e+00 0.0000000000000000e+00 0.00000