<?xml version="1.0"?>
<VTKFile type="UnstructuredGrid"  version="0.1"  >
<UnstructuredGrid>
<Piece  NumberOfPoints="289" NumberOfCells="512">
<Points>
<DataArray  type="Float64"  NumberOfComponents="3"  format="ascii">0 0 0  0.0625 0 0  0.125 0 0  0.1875 0 0  0.25 0 0  0.3125 0 0  0.375 0 0  0.4375 0 0  0.5 0 0  0.5625 0 0  0.625 0 0  0.6875 0 0  0.75 0 0  0.8125 0 0  0.875 0 0  0.9375 0 0  1 0 0  0 0.0625 0  0.06250129729535614 0.06249899908447167 0  0.1250026330039089 0.06249795381622165 0  0.1875040455151387 0.06249681698478882 0  0.2500055732568695 0.06249553524057013 0  0.3125072544173176 0.06249404486416112 0  0.3750091263153374 0.06249226570818998 0  0.4375112243028888 0.06249009172569164 0  0.5000135800975821 0.06248737494535295 0  0.5625162194672966 0.06248389620983982 0  0.625019159200462 0.06247930736284032 0  0.6875224031880898 0.06247300687029888 0  0.7500259368098965 0.06246384588787821 0  0.8125297161045086 0.06244935885248992 0  0.8750336372468174 0.0624235227649317 0  0.9375374272473003 0.0623695139345287 0  1.000040213494505 0.0622339530706252 0  0 0.125 0  0.06250255620495403 0.1249980424129148 0  0.1250051891451747 0.1249959989674411 0  0.1875079756367955 0.1249937784982359 0  0.2500109928049513 0.1249912785105128 0  0.3125143176478953 0.1249883775859881 0  0.3750180258948462 0.1249849248447865 0  0.4375221899160925 0.1249807241290335 0  0.5000268754718181 0.1249755086147032 0  0.5625321371583303 0.1249688975619371 0  0.62503801254222 0.1249603186288568 0  0.6875445151715286 0.1249488619702286 0  0.7500516269593884 0.1249329981018996 0  0.8125592912882668 0.1249100347781163 0  0.875067412550693 0.1248751665220252 0  0.9375758926015572 0.1248204853978563 0  1.000084870375132 0.1247384446507118 0  0 0.1875 0  0.06250373850122101 0.1874971714840757 0  0.1250075917719304 0.1874942209057871 0  0.1875116750203085 0.1874910191367619 0  0.2500161044975472 0.1874874221055989 0  0.3125209971486844 0.1874832611974446 0  0.3750264692017309 0.1874783305640999 0  0.4375326333033505 0.187472369247397 0  0.5000395938332611 0.1874650347052592 0  0.5625474401353129 0.1874558621355236 0  0.6250562376493202 0.187444200694594 0  0.6875660173908481 0.1874291141678557 0  0.7500767650217314 0.1874092357821418 0  0.8125884121016799 0.187382599357882 0  0.8751008343105521 0.1873466162763948 0  0.9376138628376156 0.1872988625771022 0  1.000127292870094 0.1872405321613186 0  0 0.25 0  0.06250480621765944 0.2499964224961901 0  0.1250097645274341 0.2499926937905553 0  0.18751502818637 0.2499886546349766 0  0.2500207529146483 0.2499841289573142 0  0.3125270970114022 0.2499789136024419 0  0.3750342200696627 0.2499727655833245 0  0.4375422797107798 0.2499653855496919 0  0.5000514257356637 0.2499563958296488 0  0.5625617911714834 0.2499453112354032 0  0.6250734799760244 0.2499315016672495 0  0.6875865517728648 0.2499141497977416 0  0.7501010050524185 0.2498922210130116 0  0.8126167618261874 0.2498645002589371 0  0.8751336585104861 0.2498298335786652 0  0.9376514489270601 0.2497878351639404 0  1.000169825591314 0.2497402394555568 0  0 0.3125 0  0.06250572206293457 0.3124958245855574 0  0.1250116320723119 0.3124914768762309 0  0.187517920328657 0.3124867762472211 0  0.2500247818995584 0.3124815248610286 0  0.3125324177208768 0.3124754977397198 0  0.3750410340203686 0.3124684312462913 0  0.4375508392594116 0.3124600095410561 0  0.5000620376522258 0.3124498489495586 0  0.5625748182805369 0.3124374812310586 0  0.6250893390159841 0.312422339334804 0  0.6876057050927656 0.3124037550470098 0  0.7501239434502605 0.3123809896847211 0  0.8126439759494041 0.312353339299959 0  0.875165596793848 0.3123203803070301 0  0.9376884602920417 0.3122824159145794 0  1.000212080349179 0.3122410435514845 0  0 0.375 0  0.06250645017225562 0.3749953988455447 0  0.1250131214976677 0.3749906126324172 0  0.1875202391909308 0.3749854482086161 0  0.2500280365600882 0.3749796958763104 0  0.3125367577521215 0.3749731203237258 0  0.3750466586930363 0.3749654507687057 0  0.4375580051837605 0.3749563704657378 0  0.5000710667794672 0.3749455064156835 0  0.5625861047739111 0.3749324215274484 0  0.6251033525128772 0.3749166141700463 0  0.6876229866925004 0.3748975347266512 0  0.7501450897189981 0.3748746357549683 0  0.8126696060711232 0.3748474798518808 0  0.8751962999412498 0.3748159289829248 0  0.9377247261472118 0.3747804091824657 0  1.000254229134717 0.3747421509659793 0  0 0.4375 0  0.06250695728662847 0.4374951580438391 0  0.12501416462781 0.4374901263549342 0  0.1875218783545441 0.4374847076766982 0  0.2500303672635108 0.437478689497039 0  0.312539917770433 0.4374718359983804 0  0.3750508374089099 0.4374638797099196 0  0.4375634554594574 0.4374545132261585 0  0.5000781188777521 0.4374433820141543 0  0.5625951809386107 0.437430080545917 0  0.6251149792989446 0.4374141560722057 0  0.6876377999491453 0.4373951275511477 0  0.7501638246207295 0.4373725312845611 0  0.812693062929947 0.437346007773165 0  0.8752252780832548 0.4373154407305871 0  0.9377599259351838 0.4372811390407575 0  1.000296136706321 0.4372440073790575 0  0 0.5 0  0.06250721441620213 0.4999951068612959 0  0.1250147013518534 0.4999900268312862 0  0.187522742214329 0.4999845662555192 0  0.2500316361282661 0.4999785178359752 0  0.3125417082757505 0.4999716535692415 0  0.3750533171728205 0.4999637175418284 0  0.4375668596695588 0.4999544188376779 0  0.500082771521824 0.4999434252103263 0  0.5626015200068876 0.4999303588817301 0  0.6251235832822839 0.4999147970505267 0  0.6876494094281916 0.4998962816876583 0  0.7501793475984712 0.4998743461955666 0  0.812713547040131 0.4998485703451314 0  0.8752518309393205 0.4998186780955852 0  0.9377935742087874 0.4997846907435937 0  1.000337642054918 0.4997471294974503 0  0 0.5625 0  0.06250719898262123 0.5624952424647908 0  0.1250146840081111 0.5624903076287486 0  0.1875227527714775 0.5624850123007841 0  0.250031726375916 0.5624791614372148 0  0.31254196148729 0.5624725420256964 0  0.375053862604607 0.5624649167667123 0  0.4375678935902644 0.562456017516789 0  0.500084586425292 0.5624455384653458 0  0.5626045431153238 0.5624331290238787 0  0.6251284234260959 0.5624183865047383 0  0.6876569066058384 0.5624008492279794 0  0.7501906105074514 0.5623799928054785 0  0.8127299504654359 0.5623552385399444 0  0.8752749320661127 0.5623259975276014 0  0.9378249107507466 0.5622918007829808 0  1.000378422397691 0.5622525951046394 0  0 0.625 0  0.06250689733974388 0.6249955552719935 0  0.125014082654014 0.6249909487038058 0  0.1875218580922395 0.6249860135165277 0  0.2500305545695423 0.6249805730151204 0  0.3125405479546745 0.6249744354684731 0  0.375052277193767 0.6249673887106384 0  0.4375662644126342 0.6249591941459579 0  0.500083135943389 0.6249495794512211 0  0.562603640864393 0.6249382284790991 0  0.625128658986117 0.6249247654708091 0  0.6876591818722888 0.6249087287202292 0  0.7501962375895747 0.624889527513908 0  0.8127407152719365 0.6248663803116558 0  0.8752930438231359 0.624838254648533 0  0.9378527292109933 0.6248038943884344 0  1.000417918193721 0.6247621465285635 0  0 0.6875 0  0.06250630744240268 0.6874960298285639 0  0.1250128907801752 0.6874919181910026 0  0.1875200418399407 0.6874875196892182 0  0.2500280851444697 0.6874826810745366 0  0.3125373976244965 0.6874772372664941 0  0.3750484325547787 0.6874710071882668 0  0.4375617492886077 0.6874637890374741 0  0.5000780499805961 0.6874553540062656 0  0.5625982228554628 0.6874454360871723 0  0.6251233869017815 0.6874337126685481 0  0.6876549215635384 0.687419764902658 0  0.7501944410899332 0.6874029972481062 0  0.8127436304698459 0.6873824847227835 0  0.8753038056031156 0.6873567225203874 0  0.9378750607309843 0.6873233376617164 0  1.000455135159045 0.6872791085245351 0  0 0.75 0  0.06250544128394332 0.7499966457637084 0  0.1250111306931233 0.7499931743382455 0  0.1875173326968189 0.7499894656192725 0  0.2500243456918054 0.7499853937628062 0  0.3125325237080397 0.7499808244729503 0  0.375042304581743 0.7499756124492268 0  0.4375542481342226 0.7499695989049403 0  0.5000690890426358 0.7499626086634217 0  0.5625878099859634 0.7499544451550615 0  0.6251117395372752 0.7499448783970301 0  0.6876426709875649 0.7499336126192369 0  0.7501829695422679 0.749920199732329 0  0.8127355570684367 0.7499038205757953 0  0.8753034905631738 0.7498827834342207 0  0.9378885886090678 0.7498535718182689 0  1.000488606639229 0.7498097752245741 0  0 0.8125 0  0.06250432659154649 0.8124973788001525 0  0.1250088574691713 0.8124946675725176 0  0.1875138118492247 0.8124917743262939 0  0.2500194402685069 0.8124886033108122 0  0.3125260456442713 0.8124850535352642 0  0.3750340121399332 0.812481017912319 0  0.4375438470949105 0.8124763835118026 0  0.5000562444546358 0.8124710337034675 0  0.5625721833291272 0.8124648532545357 0  0.6250930829485563 0.8124577370163296 0  0.6876210433505825 0.8124495985771113 0  0.7501591966681969 0.8124403555900536 0  0.8127121250906588 0.812429795018527 0  0.8752860025227156 0.8124169864704158 0  0.9378871949158405 0.8123983237328131 0  1.000516399555943 0.8123628110454834 0  0 0.875 0  0.06250300721275921 0.8749982017729091 0  0.1250061602028632 0.8749963426123534 0  0.187509616238313 0.8749943604319232 0  0.2500135569009082 0.8749921910301153 0  0.3125182050771664 0.8749897675439453 0  0.3750238492450571 0.8749870207978521 0  0.4375308806966745 0.8749838815072103 0  0.5000398538615746 0.874980286394023 0  0.5625515889491417 0.8749761927428144 0  0.6250673545546565 0.8749716114143554 0  0.6875892053316145 0.8749666798305337 0  0.7501206217779791 0.8749618159635127 0  0.812667706631108 0.8749579994396205 0  0.8752411586341095 0.8749570191655717 0  0.9378577414468914 0.874959886583994 0  1.000529101607131 0.8749517270648859 0  0 0.9375 0  0.06250154171538179 0.9374990855817861 0  0.1250031594068127 0.9374981404501894 0  0.1875049353220135 0.9374971333760228 0  0.2500069650557969 0.9374960322282437 0  0.3125093671121852 0.937494803887889 0  0.3750122969509992 0.9374934148373851 0  0.4375159692979179 0.93749183324
[...]
<PointData  Vectors="f_54"> 
<DataArray  type="Float64"  Name="f_54"  NumberOfComponents="3" format="ascii">0.0000000000000000e+00 0.0000000000000000e+00 0.0000000000000000e+00  0.0000000000000000e+00 0.0000000000000000e+00 0.0000000000000000e+00  0.0000000000000000e+00 0.0000000000000000e+00 0.0000000000000000e+00  0.0000000000000000e+00 0.0000000000000000e+00 0.0000000000000000e+00  0.0000000000000000e+00 0.0000000000000000e+00 0.0000000000000000e+00  0.0000000000000000e+00 0.0000000000000000e+00 0.0000000000000000e+00  0.0000000000000000e+00 0.0000000000000000e+00 0.0000000000000000e+00  0.0000000000000000e+00 0.0000000000000000e+00 0.0000000000000000e+00  0.0000000000000000e+00 0.0000000000000000e+00 0.0000000000000000e+00  0.0000000000000000e+00 0.0000000000000000e+00 0.0000000000000000e+00  0.0000000000000000e+00 0.0000000000000000e+00 0.0000000000000000e+00  0.0000000000000000e+00 0.0000000000000000e+00 0.0000000000000000e+00  0.0000000000000000e+00 0.0000000000000000e+00 0.0000000000000000e+00  0.0000000000000000e+00 0.0000000000000000e+00 0.0000000000000000e+00  0.0000000000000000e+00 0.0000000000000000e+00 0.0000000000000000e+00  0.0000000000000000e+00 0.0000000000000000e+00 0.0000000000000000e+00  0.0000000000000000e+00 0.0000000000000000e+00 0.0000000000000000e+00  0.0000000000000000e+00 0.0000000000000000e+00 0.0000000000000000e+00  8.6732705994820200e-08 -9.5726792289163874e-08 0.0000000000000000e+00  1.7603296005075640e-07 -1.9564896314440459e-07 0.0000000000000000e+00  2.7047608431072864e-07 -3.0423241409284528e-07 0.0000000000000000e+00  3.7263984127833284e-07 -4.2651750426072985e-07 0.0000000000000000e+00  4.8508551911280479e-07 -5.6851629543703646e-07 0.0000000000000000e+00  6.1031390049792327e-07 -7.3778281669132180e-07 0.0000000000000000e+00  7.5068672076756005e-07 -9.4430695037511608e-07 0.0000000000000000e+00  9.0830349477675380e-07 -1.2020306733028444e-06 0.0000000000000000e+00  1.0848219686705530e-06 -1.5316249857819285e-06 0.0000000000000000e+00  1.2812049594694199e-06 -1.9659998764839233e-06 0.0000000000000000e+00  1.4973580522720364e-06 -2.5622403824701541e-06 0.0000000000000000e+00  1.7315678909787166e-06 -3.4301203700558953e-06 0.0000000000000000e+00  1.9795062472442561e-06 -4.8079070053003986e-06 0.0000000000000000e+00  2.2322617984470071e-06 -7.2875819027414402e-06 0.0000000000000000e+00  2.4726922969899470e-06 -1.2560166592603539e-05 0.0000000000000000e+00  2.6730669640013352e-06 -2.6135867903700449e-05 0.0000000000000000e+00  0.0000000000000000e+00 0.0000000000000000e+00 0.0000000000000000e+00  1.7089876214130049e-07 -1.8725929585223861e-07 0.0000000000000000e+00  3.4692796545823278e-07 -3.8264247912667583e-07 0.0000000000000000e+00  5.3324129006820161e-07 -5.9477518917429831e-07 0.0000000000000000e+00  7.3501365260468658e-07 -8.3334192640471877e-07 0.0000000000000000e+00  9.5741217975925001e-07 -1.1097980282569360e-06 0.0000000000000000e+00  1.2055175188826729e-06 -1.4383599196910277e-06 0.0000000000000000e+00  1.4841768030710853e-06 -1.8374947273920931e-06 0.0000000000000000e+00  1.7977688862314210e-06 -2.3323155548184545e-06 0.0000000000000000e+00  2.1498621524216550e-06 -2.9586654254643850e-06 0.0000000000000000e+00  2.5427430582606578e-06 -3.7704501032127011e-06 0.0000000000000000e+00  2.9767803819536040e-06 -4.8533756732801300e-06 0.0000000000000000e+00  3.4495333764305321e-06 -6.3513239426170418e-06 0.0000000000000000e+00  3.9542900114905971e-06 -8.5161170479730437e-06 0.0000000000000000e+00  4.4768211358926018e-06 -1.1788982664555565e-05 0.0000000000000000e+00  4.9851455132646844e-06 -1.6849542680002766e-05 0.0000000000000000e+00  5.3878799907622976e-06 -2.4051442307235970e-05 0.0000000000000000e+00  0.0000000000000000e+00 0.0000000000000000e+00 0.0000000000000000e+00  2.4993288970626556e-07 -2.7066660122804767e-07 0.0000000000000000e+00  5.0754133079185130e-07 -5.5288998598855767e-07 0.0000000000000000e+00  7.8055467634200936e-07 -8.5889371028306549e-07 0.0000000000000000e+00  1.0767744712814073e-06 -1.2022954719785663e-06 0.0000000000000000e+00  1.4040528313594934e-06 -1.5990051136088258e-06 0.0000000000000000e+00  1.7701977366461528e-06 -2.0684140813276990e-06 0.0000000000000000e+00  2.1827767813193166e-06 -2.6350750104841045e-06 0.0000000000000000e+00  2.6487902920414846e-06 -3.3311940383743057e-06 0.0000000000000000e+00  3.1741879173588554e-06 -4.2004635971734086e-06 0.0000000000000000e+00  3.7632131290715284e-06 -5.3040666683071117e-06 0.0000000000000000e+00  4.4175843995543828e-06 -6.7299932146295955e-06 0.0000000000000000e+00  5.1355842468066653e-06 -8.6065503010181942e-06 0.0000000000000000e+00  5.9113394934934632e-06 -1.1117822219136542e-05 0.0000000000000000e+00  6.7354837946145643e-06 -1.4505521591271629e-05 0.0000000000000000e+00  7.6027034084299452e-06 -1.9001447745394258e-05 0.0000000000000000e+00  8.5530338815945490e-06 -2.4570592008121951e-05 0.0000000000000000e+00  0.0000000000000000e+00 0.0000000000000000e+00 0.0000000000000000e+00  3.2128828831586242e-07 -3.4251437039099622e-07 0.0000000000000000e+00  6.5275056076696317e-07 -6.9935935087062023e-07 0.0000000000000000e+00  1.0046670630443065e-06 -1.0856227765146459e-06 0.0000000000000000e+00  1.3874880230299345e-06 -1.5179585656162019e-06 0.0000000000000000e+00  1.8118456795898889e-06 -2.0155430567487563e-06 0.0000000000000000e+00  2.2884719635247579e-06 -2.6012652745343567e-06 0.0000000000000000e+00  2.8279819936478736e-06 -3.3032743102375338e-06 0.0000000000000000e+00  3.4404807324903943e-06 -4.1570416095666970e-06 0.0000000000000000e+00  4.1349534919380028e-06 -5.2081127619108181e-06 0.0000000000000000e+00  4.9184169614232295e-06 -6.5156442112577177e-06 0.0000000000000000e+00  5.7948452095504765e-06 -8.1564190551036816e-06 0.0000000000000000e+00  6.7639554946599916e-06 -1.0227734584437070e-05 0.0000000000000000e+00  7.8200408332629469e-06 -1.2844097532974336e-05 0.0000000000000000e+00  8.9510512784925516e-06 -1.6115163539446559e-05 0.0000000000000000e+00  1.0137089853399945e-05 -2.0081510703214408e-05 0.0000000000000000e+00  1.1339029347882661e-05 -2.4589257331256751e-05 0.0000000000000000e+00  0.0000000000000000e+00 0.0000000000000000e+00 0.0000000000000000e+00  3.8246577433427354e-07 -4.0002848996973291e-07 0.0000000000000000e+00  7.7750559379550119e-07 -8.1641229611297996e-07 0.0000000000000000e+00  1.1978797043885745e-06 -1.2662880107170157e-06 0.0000000000000000e+00  1.6566754233955884e-06 -1.7683904414752575e-06 0.0000000000000000e+00  2.1673878509623772e-06 -2.3439735476714534e-06 0.0000000000000000e+00  2.7438897165529144e-06 -3.0178785341484487e-06 0.0000000000000000e+00  3.4002371436547406e-06 -3.8197915094963120e-06 0.0000000000000000e+00  4.1502489081794029e-06 -4.7857014838794897e-06 0.0000000000000000e+00  5.0067937973446750e-06 -5.9594760017067058e-06 0.0000000000000000e+00  5.9807331830940308e-06 -7.3942359089431378e-06 0.0000000000000000e+00  7.0795064879655406e-06 -9.1526758014877515e-06 0.0000000000000000e+00  8.3054267906341373e-06 -1.1304385797331575e-05 0.0000000000000000e+00  9.6538653352194774e-06 -1.3916327352328567e-05 0.0000000000000000e+00  1.1111589991446534e-05 -1.7030244149370136e-05 0.0000000000000000e+00  1.2655509888836109e-05 -2.0620758235959055e-05 0.0000000000000000e+00  1.4252835245739272e-05 -2.4538484143279542e-05 0.0000000000000000e+00  0.0000000000000000e+00 0.0000000000000000e+00 0.0000000000000000e+00  4.3106560570525599e-07 -4.4118511530816452e-07 0.0000000000000000e+00  8.7692674966708404e-07 -8.9997628963611605e-07 0.0000000000000000e+00  1.3526758972261520e-06 -1.3947360615849004e-06 0.0000000000000000e+00  1.8739571963778215e-06 -1.9453601687343890e-06 0.0000000000000000e+00  2.4571591980896076e-06 -2.5741134128400136e-06 0.0000000000000000e+00  3.1194900260786356e-06 -3.3065333226262347e-06 0.0000000000000000e+00  3.8788677022634969e-06 -4.1723874575416333e-06 0.0000000000000000e+00  4.7535371654253007e-06 -5.2066098751119470e-06 0.0000000000000000e+00  5.7613070165914478e-06 -6.4500188443623787e-06 0.0000000000000000e+00  6.9182955424722086e-06 -7.9493820144934905e-06 0.0000000000000000e+00  8.2371081362032466e-06 -9.7559828890908387e-06 0.0000000000000000e+00  9.7244643581747678e-06 -1.1921217836517626e-05 0.0000000000000000e+00  1.1378471359080823e-05 -1.4487061832795962e-05 0.0000000000000000e+00  1.3185971860638900e-05 -1.7469195233576757e-05 0.0000000000000000e+00  1.5120535670815835e-05 -2.0833112371681789e-05 0.0000000000000000e+00  1.7141328985327848e-05 -2.4472095208647067e-05 0.0000000000000000e+00  0.0000000000000000e+00 0.0000000000000000e+00 0.0000000000000000e+00  4.6486767226322463e-07 -4.6473532675294263e-07 0.0000000000000000e+00  9.4646181867381804e-07 -9.4757647193091846e-07 0.0000000000000000e+00  1.4619467493116202e-06 -1.4673311410749884e-06 0.0000000000000000e+00  2.0293312106102467e-06 -2.0442210823991951e-06 0.0000000000000000e+00  2.6678225145380868e-06 -2.7006195231106608e-06 0.0000000000000000e+00  3.3980742713145364e-06 -3.4618046595519721e-06 0.0000000000000000e+00  4.2422496106422932e-06 -4.3566911401550754e-06 0.0000000000000000e+00  5.2237827006977902e-06 -5.4184428215246792e-06 0.0000000000000000e+00  6.3666750006940252e-06 -6.6847658676538737e-06 0.0000000000000000e+00  7.6941222618053377e-06 -8.1975091761906427e-06 0.0000000000000000e+00  9.2262655315248340e-06 -1.0000944974208483e-05 0.0000000000000000e+00  1.0976953558424771e-05 -1.2137798549019183e-05 0.0000000000000000e+00  1.2949678966369919e-05 -1.4641907182973328e-05 0.0000000000000000e+00  1.5133370438201693e-05 -1.7526743508089966e-05 0.0000000000000000e+00  1.7499400434320942e-05 -2.0770672005301058e-05 0.0000000000000000e+00  2.0001542110997742e-05 -2.4303172121183694e-05 0.0000000000000000e+00  0.0000000000000000e+00 0.0000000000000000e+00 0.0000000000000000e+00  4.8194333349013313e-07 -4.7018183341794080e-07 0.0000000000000000e+00  9.8211049966145857e-07 -9.5827033406279411e-07 0.0000000000000000e+00  1.5193276045274753e-06 -1.4828046720491540e-06 0.0000000000000000e+00  2.1136144076289942e-06 -2.0635960928280059e-06 0.0000000000000000e+00  2.7867498053614481e-06 -2.7223739571179992e-06 0.0000000000000000e+00  3.5627701965924075e-06 -3.4834271974796009e-06 0.0000000000000000e+00  4.4683226707038712e-06 -4.3742067174839100e-06 0.0000000000000000e+00  5.5327343691032720e-06 -5.4258152174883893e-06 0.0000000000000000e+00  6.7875719024519971e-06 -6.6732481819898030e-06 0.0000000000000000e+00  8.2653557199675535e-06 -8.1551555415482970e-06 0.0000000000000000e+00  9.9969971765192177e-06 -9.9127652887735440e-06 0.0000000000000000e+00  1.2007534522660785e-05 -1.1987462924592316e-05 0.0000000000000000e+00  1.4310051535408694e-05 -1.4416406177983977e-05 0.0000000000000000e+00  1.6898557681808227e-05 -1.7225578702558261e-05 0.0000000000000000e+00  1.9742281427582629e-05 -2.0419973180547370e-05 0.0000000000000000e+00  2.2785734436877511e-05 -2.3971083601023305e-05 0.0000000000000000e+00  0.0000000000000000e+00 0.0000000000000000e+00 0.0000000000000000e+00  4.8079814825415623e-07 -4.5772651428202562e-07 0.0000000000000000e+00  9.8071680376642935e-07 -9.3252820677681498e-07 0.0000000000000000e+00  1.5196518084176128e-06 -1.4420374018852341e-06 0.0000000000000000e+00  2.1190690771675123e-06 -2.0050097165021787e-06 0.0000000000000000e+00  2.8028213997125820e-06 -2.6418903718151032e-06 0.0000000000000000e+00  3.5979754696553947e-06 -3.3753781661336157e-06 0.0000000000000000e+00  4.5355935807865017e-06 -4.2309723264440905e-06 0.0000000000000000e+00  5.6513367252296634e-06 -5.2374755432728337e-06 0.0000000000000000e+00  6.9856219179958679e-06 -6.4274129025863807e-06 0.0000000000000000e+00  8.5828557472174047e-06 -7.8373125492937443e-06 0.0000000000000000e+00  1.0488980995484995e-05 -9.5077768058916388e-06 0.0000000000000000e+00  1.2746302883405146e-05 -1.1483229799059976e-05 0.0000000000000000e+00  1.5384612982069567e-05 -1.3811082939754904e-05 0.0000000000000000e+00  1.8408709027898511e-05 -1.6539630505390660e-05 0.0000000000000000e+00  2.1785619985788381e-05 -1.9712987276289225e-05 0.0000000000000000e+00  2.5440670214105074e-05 -2.3359743384671065e-05 0.0000000000000000e+00  0.0000000000000000e+00 0.0000000000000000e+00 0.0000000000000000e+00  4.6053857907964196e-07 -4.2820344904619157e-07 0.0000000000000000e+00  9.4031775944509153e-07 -8.7209093311024379e-07 0.0000000000000000e+00  1.4595106829931582e-06 -1.3478257252353497e-06 0.0000000000000000e+00  2.0402133586871131e-06 -1.8725424239814074e-06 0.0000000000000000e+00  2.7075262903690313e-06 -2.4648393423126990e-06 0.0000000000000000e+00  3.4907657296803290e-06 -3.1452798716001357e-06 0.0000000000000000e+00  4.4248070641382550e-06 -3.9369105387230208e-06 0.0000000000000000e+00  5.5514886045787207e-06 -4.8658174911423982e-06 0.0000000000000000e+00  6.9208443869811553e-06 -5.9617772700421993e-06 0.0000000000000000e+00  8.5916194040760082e-06 -7.2591270945344243e-06 0.0000000000000000e+00  1.0629958517048899e-05 -8.7980962661510966e-06 0.0000000000000000e+00  1.3104304635324225e-05 -1.0626979147674539e-05 0.0000000000000000e+00  1.6073630662081376e-05 -1.2805538250290289e-05 0.0000000000000000e+00  1.9566292630369964e-05 -1.5409431066693514e-05 0.0000000000000000e+00  2.3551058715638842e-05 -1.8533231713268697e-05 0.0000000000000000e+00  2.7915288916318840e-05 -2.2284294975558447e-05 0.0000000000000000e+00  0.0000000000000000e+00 0.0000000000000000e+00 0.0000000000000000e+00  4.2104742302497773e-07 -3.8300587928744870e-07 0.0000000000000000e+00  8.6051919655869428e-07 -7.7982075596539134e-07 0.0000000000000000e+00  1.3378804940488519e-06 -1.2046528676861921e-06 0.0000000000000000e+00  1.8747766844149072e-06 -1.6725243506950940e-06 0.0000000000000000e+00  2.4963458330422122e-06 -2.1996865009144293e-06 0.0000000000000000e+00  3.2328117236925092e-06 -2.8040509362513044e-06 0.0000000000000000e+00  4.1214606562165599e-06 -3.5056572489363594e-06 0.0000000000000000e+00  5.2090771246631568e-06 -4.3272271678367142e-06 0.0000000000000000e+00  6.5547981748682688e-06 -5.2949219273607703e-06 0.0000000000000000e+00  8.2330180424404806e-06 -6.4395603232467309e-06 0.0000000000000000e+00  1.0335182133207284e-05 -7.7988293972843307e-06 0.0000000000000000e+00  1.2967630724243902e-05 -9.4214934629772674e-06 0.0000000000000000e+00  1.6239650244085127e-05 -1.1375240764436027e-05 0.0000000000000000e+00  2.0232105571149667e-05 -1.3760071415900744e-05 0.0000000000000000e+00  2.4937304634760202e-05 -1.6727155882102224e-05 0.0000000000000000e+00  3.0180876037220076e-05 -2.0495298045738174e-05 0.0000000000000000e+00  0.0000000000000000e+00 0.0000000000000000e+00 0.0000000000000000e+00  3.6314311584581214e-07 -3.2401017480048525e-07 0.0000000000000000e+00  7.4284785027729735e-07 -6.5954908174913315e-07 0.0000000000000000e+00  1.1567391860273419e-06 -1.0184627206294278e-06 0.0000000000000000e+00  1.6247004382475907e-06 -1.4132464823346436e-06 0.0000000000000000e+00  2.1703156499911892e-06 -1.8573748096981408e-06 0.0000000000000000e+00  2.8227412865270024e-06 -2.3656417375193806e-06 0.0000000000000000e+00  3.6192414706886584e-06 -2.9545283336090006e-06 0.0000000000000000e+00  4.6086957444919206e-06 -3.6426381081866507e-06 0.0000000000000000e+00  5.8564429484194320e-06 -4.4513038241697678e-06 0.0000000000000000e+00  7.4507347702018363e-06 -5.4056217758211513e-06 0.0000000000000000e+00  9.5104711054700816e-06 -6.5365365109781677e-06 0.0000000000000000e+00  1.2191825577585029e-05 -7.8854471625834961e-06 0.0000000000000000e+00  1.5685735049612238e-05 -9.5145948676154012e-06 0.0000000000000000e+00  2.0185651029100659e-05 -1.1529485086412523e-05 0.0000000000000000e+00  2.5785448309378991e-05 -1.4121454322242227e-05 0.0000000000000000e+00  3.2268163949781950e-05 -1.7627422750274405e-05 0.0000000000000000e+00  0.0000000000000000e+00 0.0000000000000000e+00 0.0000000000000000e+00  2.8868949599862473e-07 -2.5349700156488491e-07 0.0000000000000000e+00  5.9100804237843366e-07 -5.1591886822915116e-07 0.0000000000000000e+00  9.2155368430697905e-07 -7.9642506569985111e-07 0.0000000000000000e+00  1.2970065989243718e-06 -1.1046555937290550e-06 0.0000000000000000e+00  1.7375269698671542e-06 -1.4509689057171685e-06 0.0000000000000000e+00  2.2686714428059933e-06 -1.8466760188708776e-06 0.0000000000000000e+00  2.9241782542181474e-06 -2.3042669863349113e-06 0.0000000000000000e+00  3.7501839844333645e-06 -2.8376245903384487e-06 0.0000000000000000e+00  4.8117836510889447e-06 -3.4622252816824428e-06 0.0000000000000000e+00  6.2033599562247108e-06 -4.1953680041404009e-06 0.0000000000000000e+00  8.0646465659063829e-06 -5.0566640626001784e-06 0.0000000000000000e+00  1.0604147568439946e-05 -6.0697847554064629e-06 0.0000000000000000e+00  1.4126641666879119e-05 -7.2691385860236318e-06 0.0000000000000000e+00  1.9040127706175808e-05 -8.7232169062785043e-06 0.0000000000000000e+00  2.5751028409167235e-05 -1.0603842699218706e-05 0.0000000000000000e+00  3.4235231438665873e-05 -1.3322512318428787e-05 0.0000000000000000e+00  0.0000000000000000e+00 0.0000000000000000e+00 0.0000000000000000e+00  2.0061895549808505e-07 -1.7406965357804481e-07 0.0000000000000000e+00  4.1095932737649949e-07 -3.5422003358160947e-07 0.0000000000000000e+00  6.4148715022242650e-07 -5.4668532512624286e-07 0.0000000000000000e+00  9.0428313085426298e-07 -7.5801326656231726e-07 0.0000000000000000e+00  1.2141694568501857e-06 -9.9521368531524724e-07 0.0000000000000000e+00  1.5903214977766470e-06 -1.2658902606505345e-06 0.0000000000000000e+00  2.0587408342959050e-06 -1.5783315584037530e-06 0.0000000000000000e+00  2.6562708658021016e-06 -1.9415036196969049e-06 0.0000000000000000e+00  3.4374497054866836e-06 -2.3648055161486660e-06 0.0000000000000000e+00  4.4867529113283294e-06 -2.8572617737609967e-06 0.0000000000000000e+00  5.9413612077697488e-06 -3.4254254979537679e-06 0.0000000000000000e+00  8.0346235621688592e-06 -4.0686059153615288e-06 0.0000000000000000e+00  1.1178142987961849e-05 -4.7701094566947719e-06 0.0000000000000000e+00  1.6099013632878896e-05 -5.4922281468236522e-06 0.0000000000000000e+00  2.3944731300603149e-05 -6.2508135594226416e-06 0.0000000000000000e+00  3.5511820726912673e-05 -7.7438615161239567e-06 0.0000000000000000e+00  0.0000000000000000e+00 0.0000000000000000e+00 0.0000000000000000e+00  1.0283769051221628e-07 -8.8570804496712650e-08 0.0000000000000000e+00  2.1074005827449764e-07 -1.8022062834658011e-07 0.0000000000000000e+00  3.2917775172795402e-07 -2.7810392287804226e-07 0.0000000000000000e+00  4.6450694576391313e-07 -3.8552870443555106e-07 0.0000000000000000e+00  6.2460288074966597e-07 -5.0602593679209700e-07 0.0000000000000000e+00  8.1979122773752293e-07 -6.4340318204528265e-07 0.0000000000000000e+00  1.0643293860288684e-06 -8.0175835274705956e-07 0.0000000000000000e+00  1.3789294675976898e-06 -9.8539048691121658e-07 0.0000000000000000e+00  1.7953581437827975e-06 -1.1984371884960456e-06 0.0000000000000000e+00  2.3654717493257735e-06 -1.4437589293965427e-06 0.0000000000000000e+00  3.1805454104081103e-06 -1.7196465547572429e-06 0.0000000000000000e+00  4.4168844176488210e-06 -2.0098571523490653e-06 0.0000000000000000e+00  6.4558451807284611e-06 -2.2517690848829868e-06 0.0000000000000000e+00  1.0237964020937434e-05 -2.2273435375778379e-06 0.0000000000000000e+00  1.8432953180241255e-05 -1.1607798567022191e-06 0.0000000000000000e+00  3.9747249368159921e-05 3.8854154045340251e-06 0.0000000000000000e+00  0.0000000000000000e+00 0.0000000000000000e+00 0.0000000000000000e+00  0.0000000000000000e+00 0.0000000000000000e+00 0.0000000000000000e+00  0.0000000000000000e+00 0.0000000000000000e+00 0.0000000000000000e+00  0.0000000000000000e+00 0.0000000000000000e+00 0.0000000000000000e+00  0.0000000000000000e+00 0.0000000000000000e+00 0.0000000000000000e+00  0.0000000000000000e+00 0.0000000000000000e+00 0.0000000000000000e+00  0.0000000000000000e+00 0.0000000000000000e+00 0.0000000000000000e+00  0.0000000000000000e+00 0.0000000000000000e+00 0.0000000000000000e+00  0.0000000000000000e+00 0.0000000000000000e+00 0.00000