<?xml version="1.0"?>
<VTKFile type="UnstructuredGrid"  version="0.1"  >
<UnstructuredGrid>
<Piece  NumberOfPoints="289" NumberOfCells="512">
<Points>
<DataArray  type="Float64"  NumberOfComponents="3"  format="ascii">0 0 0  0.0625 0 0  0.125 0 0  0.1875 0 0  0.25 0 0  0.3125 0 0  0.375 0 0  0.4375 0 0  0.5 0 0  0.5625 0 0  0.625 0 0  0.6875 0 0  0.75 0 0  0.8125 0 0  0.875 0 0  0.9375 0 0  1 0 0  0 0.0625 0  0.06249926865063569 0.06250099353032534 0  0.124998515711378 0.06250202994060892 0  0.1874977194530273 0.06250315478511057 0  0.2499968581258579 0.06250441935170212 0  0.3124959101109476 0.06250588463267651 0  0.3749948542776749 0.06250762703940509 0  0.4374936706210951 0.06250974738559983 0  0.4999923412552826 0.06251238616726906 0  0.5624908518463217 0.06251575161565835 0  0.6249891936047587 0.06252017548355737 0  0.6874873660866868 0.06252623419155816 0  0.7499853814063548 0.06253503918841453 0  0.812483271083535 0.06254901233846587 0  0.874981095962853 0.06257420184777578 0  0.937478943282267 0.06262798251880902 0  0.9999767758148062 0.06276719818648215 0  0 0.125 0  0.06249855889834079 0.1250019440921077 0  0.1249970746445418 0.1250039712589507 0  0.1874955037536446 0.1250061695300084 0  0.2499938025641288 0.1250086374881653 0  0.3124919274700265 0.1250114913716243 0  0.3749898355634971 0.1250148749718793 0  0.4374874858364858 0.125018974561161 0  0.499984841089503 0.125024042956744 0  0.5624818706884838 0.1250304406311404 0  0.624978554320252 0.1250387095922044 0  0.6874748870307149 0.1250497117004002 0  0.7499708865150839 0.1250648933703932 0  0.8124666066472688 0.1250867804760319 0  0.8749621746563946 0.1251197645117587 0  0.937457932359117 0.1251704207998675 0  0.9999550741570195 0.1252409486798692 0  0 0.1875 0  0.0624978923954284 0.1875028114862944 0  0.1249957202098098 0.1875057412793702 0  0.1874934182282067 0.1875089142630545 0  0.2499909206356437 0.1875124691918492 0  0.3124881611882105 0.1875165676216043 0  0.3749850739941697 0.1875214057520833 0  0.4374815951361491 0.1875272311834692 0  0.4999776653623302 0.1875343678451854 0  0.562473234030393 0.1875432544268234 0  0.6249682643646407 0.1875545046819287 0  0.6874627397965929 0.1875690010280793 0  0.7499566703824351 0.1875880301036212 0  0.8124500955382465 0.1876134375647788 0  0.8749430671983537 0.1876476491116216 0  0.9374355382655355 0.1876930312103704 0  0.9999267789238017 0.1877496261293503 0  0 0.25 0  0.062497290635249 0.2500035604769621 0  0.1249944956321209 0.250007267909822 0  0.1874915282581893 0.2500112767192871 0  0.2499883003651062 0.2500157568800566 0  0.3124847222831631 0.2500209033945228 0  0.3749807035124649 0.2500269480739443 0  0.4374761545429157 0.2500341748610804 0  0.4999709901531593 0.2500429402902052 0  0.5624651344959813 0.2500537008717634 0  0.6249585281088992 0.2500670484266266 0  0.6874511365933608 0.2500837504187565 0  0.7499429599525687 0.2501047794028222 0  0.8124340404715926 0.2501312814828312 0  0.8749244671613271 0.2501643599189071 0  0.9374143894930115 0.2502044430719321 0  0.9999041717658801 0.250250027099117 0  0 0.3125 0  0.06249677470468744 0.31250416241254 0  0.124993443516353 0.3125084929604501 0  0.1874898987832869 0.3125131674877467 0  0.2499860301206507 0.3125183776956553 0  0.3124817237358275 0.3125243402251446 0  0.3749768627004297 0.312531307139937 0  0.4374713286236094 0.3125395782172026 0  0.4999650052608644 0.3125495151527508 0  0.5624577846167083 0.3125615568865563 0  0.6249495759842701 0.3125762329594231 0  0.687440317991077 0.3125941665680998 0  0.7499299929739418 0.3126160482386669 0  0.8124186419227727 0.3126425421944669 0  0.8749063772587764 0.3126740636493464 0  0.9373933898659979 0.3127103627046352 0  0.9998799315009843 0.3127499460542633 0  0 0.375 0  0.06249636484793657 0.3750045961132493 0  0.1249926050248568 0.3750093738277421 0  0.187488593201567 0.3750145222384311 0  0.2499841974225972 0.3750202456712915 0  0.3124792794945265 0.3750267718975533 0  0.3749736943873283 0.3750343609093852 0  0.4374672912327749 0.3750433140711472 0  0.4999599166945831 0.3750539828674847 0  0.5624514216593289 0.3750667752735332 0  0.6249416722518659 0.3750821555058539 0  0.6874305659343174 0.3751006289658549 0  0.7499180526610092 0.3751226982151017 0  0.8124041595417878 0.3751487692087879 0  0.8748890153641367 0.3751789865983838 0  0.9373728695842402 0.3752130016010244 0  0.9998561020841327 0.3752497617962943 0  0 0.4375 0  0.06249607979246135 0.4375048481152501 0  0.1249920185593423 0.4375098837977101 0  0.1874876714817451 0.4375153016337557 0  0.2499828866356645 0.4375213103411991 0  0.3124775020188529 0.4375281400216211 0  0.3749713435006535 0.4375360494130596 0  0.4374642243769824 0.4375453326804567 0  0.4999559475628634 0.4375563246853668 0  0.5624463118819244 0.4375694026555962 0  0.6249351243135985 0.4375849805505913 0  0.6874222201792111 0.4376034901155487 0  0.7499074926014483 0.4376253400256718 0  0.8123909304557385 0.4376508432543981 0  0.8748726598728197 0.437680106794943 0  0.9373529787159297 0.4377128935672139 0  0.999832369674424 0.4377484971652184 0  0 0.5 0  0.06249593580762564 0.5000049124565478 0  0.1249917178732154 0.5000100114187318 0  0.1874871873386921 0.500015489832257 0  0.2499821752736135 0.5000215535361148 0  0.31247649790856 0.5000284276858789 0  0.3749699524543897 0.500036362944548 0  0.4374623141877166 0.5000456409704724 0  0.499953336016994 0.500056578291072 0  0.5624427525249673 0.5000695269861379 0  0.624930291483207 0.5000848696970962 0  0.6874156967995384 0.5001030054297827 0  0.7498987670451749 0.5001243217851961 0  0.8123794115659534 0.500149149362348 0  0.8748577194204556 0.5001776959879857 0  0.9373340235977767 0.5002099617077123 0  0.9998089285768673 0.5002456344004594 0  0 0.5625 0  0.06249594550072853 0.562504790203739 0  0.1249917296048767 0.5625097594003117 0  0.1874871844063832 0.5625150924245103 0  0.2499821287216034 0.56252098579499 0  0.31247636118292 0.5625276535068546 0  0.3749696532499206 0.5625353326294871 0  0.4374617426172994 0.5625442884024325 0  0.4999523281701521 0.5625548182907137 0  0.5624410688011607 0.5625672541710074 0  0.6249275902534327 0.5625819615293102 0  0.6874115067002007 0.5625993343960588 0  0.7498924663314901 0.5626197849347374 0  0.8123702303375083 0.562643727214562 0  0.8748447867457652 0.5626715549498404 0  0.9373164762446162 0.5627036096112983 0  0.9997860645780768 0.5627401219048092 0  0 0.625 0  0.06249611640830355 0.6250044888745565 0  0.1249920703288078 0.6250091433730534 0  0.1874876914979822 0.6250141343632428 0  0.2499827933685118 0.6250196432325015 0  0.3124771639464077 0.6250258671936131 0  0.3749705555170604 0.6250330245947767 0  0.4374626732308013 0.6250413601603659 0  0.4999531631450838 0.6250511500557053 0  0.5624416016738784 0.6250627066963859 0  0.6249274910787928 0.6250763834100379 0  0.6874102704464589 0.6250925795842389 0  0.7498893589685057 0.6251117480565753 0  0.8123642563341117 0.6251344083967807 0  0.8748347243159781 0.6251611716070542 0  0.9373010396439065 0.6251927782439665 0  0.9997642040294474 0.6252301204284296 0  0 0.6875 0  0.06249644951241579 0.6875040218416103 0  0.1249927433734884 0.6875081906776466 0  0.1874887172883001 0.6875126581211165 0  0.2499841884870686 0.6875175851036662 0  0.312478944598536 0.6875231467209687 0  0.3749727301207974 0.6875295373259468 0  0.4374652295915035 0.6875369760184329 0  0.4999560467778335 0.6875457127961293 0  0.5624446801485187 0.687556035875765 0  0.6249304976142038 0.6875682811777825 0  0.6874127201544105 0.6875828459067378 0  0.7498904380561486 0.687600210017316 0  0.8123627086870393 0.6876209732821568 0  0.8748288158138839 0.6876459245474669 0  0.9372887640143908 0.6876761789180407 0  0.9997438991176493 0.6877134433129609 0  0 0.75 0  0.06249693789400929 0.7500034077361446 0  0.1249937358404712 0.7500069391998035 0  0.1874902450828115 0.7500107220388584 0  0.2499862977274782 0.7500148918646724 0  0.3124816945194019 0.7500195965368229 0  0.3749761889527486 0.7500250008879127 0  0.4374694657045717 0.7500312921936544 0  0.4999611107159709 0.7500386868965965 0  0.5624505697228718 0.7500474394394978 0  0.6249370926862083 0.7500578546277763 0  0.6874196664660883 0.7500703058149716 0  0.7498969552888427 0.750085262608312 0  0.8123673160644223 0.7501033347684031 0  0.8748290619721949 0.750125349262951 0  0.937281308757602 0.7501525238325106 0  0.9997256937958486 0.7501870132975953 0  0 0.8125 0  0.06249756580771544 0.8125026698245417 0  0.1249950164368874 0.8125054361694914 0  0.1874922286947939 0.81250839866469 0  0.249989061753489 0.8125116632967582 0  0.3124853453139691 0.8125153459374818 0  0.3749808633606264 0.8125195763914788 0  0.4374753305224965 0.8125245033338068 0  0.4999683562314736 0.8125303007447802 0  0.5624593888588878 0.8125371768289119 0  0.6249476275290663 0.8125453869499917 0  0.6874318844558946 0.8125552526956406 0  0.7499103830192299 0.8125671890399779 0  0.8123805178893077 0.8125817376740025 0  0.8748387881195725 0.8125995866814615 0  0.9372817028993687 0.8126214963683702 0  0.9997095822467008 0.8126479073460635 0  0 0.875 0  0.06249830849203339 0.8750018353114526 0  0.1249965348307898 0.8750037368070527 0  0.1874945907120637 0.8750057728409284 0  0.2499923741667088 0.8750080162262808 0  0.3124897600329534 0.8750105467714392 0  0.3749865863213588 0.875013454275701 0  0.4374826332850974 0.8750168423217914 0  0.4999775894251102 0.8750208334282905 0  0.5624709934540246 0.8750255765157927 0  0.6249621305381492 0.8750312583000459 0  0.6874498390330197 0.8750381212817786 0  0.7499321403358035 0.8750464923366691 0  0.8124055352518456 0.8750568252997466 0  0.8748638112170921 0.875069743045468 0  0.9372970671459254 0.8750859367667309 0  0.9996980712778331 0.8751049867753761 0  0 0.9375 0  0.06249913297756717 0.9375009345295674 0  0.1249982231603742 0.9375019027185171 0  0.1874972244035817 0.9375029393444151 0  0.2499960830752733 0.9375040814902358 0  0.3124947327076157 0.9375053698761329 0  0.3749930861341045 0.9375068504620269 0  0.437491022989868
[...]
<PointData  Vectors="f_54"> 
<DataArray  type="Float64"  Name="f_54"  NumberOfComponents="3" format="ascii">0.0000000000000000e+00 0.0000000000000000e+00 0.0000000000000000e+00  0.0000000000000000e+00 0.0000000000000000e+00 0.0000000000000000e+00  0.0000000000000000e+00 0.0000000000000000e+00 0.0000000000000000e+00  0.0000000000000000e+00 0.0000000000000000e+00 0.0000000000000000e+00  0.0000000000000000e+00 0.0000000000000000e+00 0.0000000000000000e+00  0.0000000000000000e+00 0.0000000000000000e+00 0.0000000000000000e+00  0.0000000000000000e+00 0.0000000000000000e+00 0.0000000000000000e+00  0.0000000000000000e+00 0.0000000000000000e+00 0.0000000000000000e+00  0.0000000000000000e+00 0.0000000000000000e+00 0.0000000000000000e+00  0.0000000000000000e+00 0.0000000000000000e+00 0.0000000000000000e+00  0.0000000000000000e+00 0.0000000000000000e+00 0.0000000000000000e+00  0.0000000000000000e+00 0.0000000000000000e+00 0.0000000000000000e+00  0.0000000000000000e+00 0.0000000000000000e+00 0.0000000000000000e+00  0.0000000000000000e+00 0.0000000000000000e+00 0.0000000000000000e+00  0.0000000000000000e+00 0.0000000000000000e+00 0.0000000000000000e+00  0.0000000000000000e+00 0.0000000000000000e+00 0.0000000000000000e+00  0.0000000000000000e+00 0.0000000000000000e+00 0.0000000000000000e+00  0.0000000000000000e+00 0.0000000000000000e+00 0.0000000000000000e+00  1.1280666045427167e-07 -1.0131334853692171e-07 0.0000000000000000e+00  2.2893333977289484e-07 -2.0705371725538928e-07 0.0000000000000000e+00  3.5170027958888749e-07 -3.2192523668094064e-07 0.0000000000000000e+00  4.8442428512095119e-07 -4.5123266227758685e-07 0.0000000000000000e+00  6.3039055574150373e-07 -6.0129610461072433e-07 0.0000000000000000e+00  7.9279284925462663e-07 -7.8004660829238130e-07 0.0000000000000000e+00  9.7463189668729909e-07 -9.9796024287581682e-07 0.0000000000000000e+00  1.1785639392472756e-06 -1.2696431998350356e-06 0.0000000000000000e+00  1.4066952665593829e-06 -1.6167337381887387e-06 0.0000000000000000e+00  1.6603243243267793e-06 -2.0736488885514636e-06 0.0000000000000000e+00  1.9396356429968235e-06 -2.6999791747150030e-06 0.0000000000000000e+00  2.2433295787098514e-06 -3.6098802466579266e-06 0.0000000000000000e+00  2.5680553399701597e-06 -5.0493796094545267e-06 0.0000000000000000e+00  2.9070372299344481e-06 -7.6228693615824813e-06 0.0000000000000000e+00  3.2454763859874438e-06 -1.3029644474454933e-05 0.0000000000000000e+00  3.5435758170597900e-06 -2.6691397999571358e-05 0.0000000000000000e+00  0.0000000000000000e+00 0.0000000000000000e+00 0.0000000000000000e+00  2.2229418023700480e-07 -1.9820038430747717e-07 0.0000000000000000e+00  4.5122441756507047e-07 -4.0497418672282493e-07 0.0000000000000000e+00  6.9343805862898442e-07 -6.2940881774603281e-07 0.0000000000000000e+00  9.5559656779820843e-07 -8.8169844230184054e-07 0.0000000000000000e+00  1.2443298573268112e-06 -1.1738868074041264e-06 0.0000000000000000e+00  1.5661267307087884e-06 -1.5209005281660271e-06 0.0000000000000000e+00  1.9271399200749071e-06 -1.9421043879135402e-06 0.0000000000000000e+00  2.3328874463415738e-06 -2.4638048926104719e-06 0.0000000000000000e+00  2.7878404528522117e-06 -3.1235244166783242e-06 0.0000000000000000e+00  3.2949038175423994e-06 -3.9776865162886407e-06 0.0000000000000000e+00  3.8548214072793957e-06 -5.1160414510037502e-06 0.0000000000000000e+00  4.4655714513253665e-06 -6.6894741123649520e-06 0.0000000000000000e+00  5.1218522933835438e-06 -8.9630727172118639e-06 0.0000000000000000e+00  5.8147864056135741e-06 -1.2406593052491968e-05 0.0000000000000000e+00  6.5320280656203753e-06 -1.7774155666771150e-05 0.0000000000000000e+00  7.2588612828632401e-06 -2.5670520349096734e-05 0.0000000000000000e+00  0.0000000000000000e+00 0.0000000000000000e+00 0.0000000000000000e+00  3.2514958465193447e-07 -2.8651723823732443e-07 0.0000000000000000e+00  6.6023321950996270e-07 -5.8523418831783837e-07 0.0000000000000000e+00  1.0152288039159831e-06 -9.0903402283135507e-07 0.0000000000000000e+00  1.4001878611881566e-06 -1.2722568517653931e-06 0.0000000000000000e+00  1.8251943367798813e-06 -1.6916358397903522e-06 0.0000000000000000e+00  2.3002268982029707e-06 -2.1875364201468041e-06 0.0000000000000000e+00  2.8348889911697650e-06 -2.7857061487198490e-06 0.0000000000000000e+00  3.4379731101753358e-06 -3.5198735375711670e-06 0.0000000000000000e+00  4.1168360524820609e-06 -4.4357519684816960e-06 0.0000000000000000e+00  4.8765869281698615e-06 -5.5973301365060842e-06 0.0000000000000000e+00  5.7191395782300163e-06 -7.0966748614041393e-06 0.0000000000000000e+00  6.6422755565236626e-06 -9.0682476615310251e-06 0.0000000000000000e+00  7.6390582366953861e-06 -1.1705535210994526e-05 0.0000000000000000e+00  8.6984330748430433e-06 -1.5263623158256570e-05 0.0000000000000000e+00  9.8094470129269085e-06 -1.9985653988970349e-05 0.0000000000000000e+00  1.0977598359974443e-05 -2.5794665118168834e-05 0.0000000000000000e+00  0.0000000000000000e+00 0.0000000000000000e+00 0.0000000000000000e+00  4.1807706926697108e-07 -3.6263916245669587e-07 0.0000000000000000e+00  8.4933343258311623e-07 -7.4041311324271789e-07 0.0000000000000000e+00  1.3070562467875836e-06 -1.1492341750364122e-06 0.0000000000000000e+00  1.8047280581240285e-06 -1.6066516376150671e-06 0.0000000000000000e+00  2.3560243729113806e-06 -2.1328479274131941e-06 0.0000000000000000e+00  2.9746836370436086e-06 -2.7518759991922783e-06 0.0000000000000000e+00  3.6741960066066814e-06 -3.4932650476557263e-06 0.0000000000000000e+00  4.4672540333213651e-06 -4.3941578695476294e-06 0.0000000000000000e+00  5.3649140132939187e-06 -5.5021618735002531e-06 0.0000000000000000e+00  6.3754404071318556e-06 -6.8790165320268170e-06 0.0000000000000000e+00  7.5028600909981441e-06 -8.6047682038335119e-06 0.0000000000000000e+00  8.7453529200925490e-06 -1.0780790944865444e-05 0.0000000000000000e+00  1.0093757684065416e-05 -1.3526355800400744e-05 0.0000000000000000e+00  1.1530627168839950e-05 -1.6955430301916711e-05 0.0000000000000000e+00  1.3030023425596492e-05 -2.1108504266345492e-05 0.0000000000000000e+00  1.4555247963659212e-05 -2.5820007861425046e-05 0.0000000000000000e+00  0.0000000000000000e+00 0.0000000000000000e+00 0.0000000000000000e+00  4.9783239620764029e-07 -4.2363142229427027e-07 0.0000000000000000e+00  1.0119715768047851e-06 -8.6454698077387577e-07 0.0000000000000000e+00  1.5589359438905222e-06 -1.3408359965476181e-06 0.0000000000000000e+00  2.1556412766138676e-06 -1.8722601241996472e-06 0.0000000000000000e+00  2.8194845319423421e-06 -2.4812127411031851e-06 0.0000000000000000e+00  3.5682752116180581e-06 -3.1938272527469145e-06 0.0000000000000000e+00  4.4199398946165560e-06 -4.0412750810077075e-06 0.0000000000000000e+00  5.3919108751417033e-06 -5.0612591874252508e-06 0.0000000000000000e+00  6.5001016228118887e-06 -6.2996088850211688e-06 0.0000000000000000e+00  7.7573813770533395e-06 -7.8116328859696516e-06 0.0000000000000000e+00  9.1715051389779631e-06 -9.6623277691605780e-06 0.0000000000000000e+00  1.0742552295494398e-05 -1.1923403868381510e-05 0.0000000000000000e+00  1.2460087921276843e-05 -1.4663123210906720e-05 0.0000000000000000e+00  1.4300474361761629e-05 -1.7922550692262332e-05 0.0000000000000000e+00  1.6225036834208326e-05 -2.1672180825643696e-05 0.0000000000000000e+00  1.8180702367978284e-05 -2.5755698425414528e-05 0.0000000000000000e+00  0.0000000000000000e+00 0.0000000000000000e+00 0.0000000000000000e+00  5.6128773165061468e-07 -4.6734379768291016e-07 0.0000000000000000e+00  1.1417885514647228e-06 -9.5330850709956363e-07 0.0000000000000000e+00  1.7610755678188373e-06 -1.4772997605647844e-06 0.0000000000000000e+00  2.4394137772879723e-06 -2.0603315572492005e-06 0.0000000000000000e+00  3.1979901096665448e-06 -2.7258990458560901e-06 0.0000000000000000e+00  4.0589806814034292e-06 -3.5009168566813727e-06 0.0000000000000000e+00  5.0453603316670260e-06 -4.4167033712564613e-06 0.0000000000000000e+00  6.1803267875932837e-06 -5.5099245213386589e-06 0.0000000000000000e+00  7.4861783237452135e-06 -6.8232754524058667e-06 0.0000000000000000e+00  8.9824626806725392e-06 -8.4054224194460206e-06 0.0000000000000000e+00  1.0683229665250221e-05 -1.0309284451066050e-05 0.0000000000000000e+00  1.2593302828154139e-05 -1.2587073442702317e-05 0.0000000000000000e+00  1.4703665197878381e-05 -1.5279806062280603e-05 0.0000000000000000e+00  1.6986316766170294e-05 -1.8399049580632322e-05 0.0000000000000000e+00  1.9389182036839541e-05 -2.1901581660328917e-05 0.0000000000000000e+00  2.1831448042005645e-05 -2.5667021122639987e-05 0.0000000000000000e+00  0.0000000000000000e+00 0.0000000000000000e+00 0.0000000000000000e+00  6.0553508204062482e-07 -4.9243760919187572e-07 0.0000000000000000e+00  1.2328215892956176e-06 -1.0040426814922364e-06 0.0000000000000000e+00  1.9041630739297162e-06 -1.5547180883766727e-06 0.0000000000000000e+00  2.6429434798409521e-06 -2.1658567798111957e-06 0.0000000000000000e+00  3.4740723421966698e-06 -2.8611165190643050e-06 0.0000000000000000e+00  4.4242829566270481e-06 -3.6672077713902790e-06 0.0000000000000000e+00  5.5221747630292424e-06 -4.6146505986003141e-06 0.0000000000000000e+00  6.7978344732152018e-06 -5.7383904175124620e-06 0.0000000000000000e+00  8.2817985602564806e-06 -7.0780444000566758e-06 0.0000000000000000e+00  1.0003044446287009e-05 -8.6773534513169207e-06 0.0000000000000000e+00  1.1985650300939191e-05 -1.0582120103293291e-05 0.0000000000000000e+00  1.4243803685490729e-05 -1.2835552288723504e-05 0.0000000000000000e+00  1.6775050874361782e-05 -1.5469690239078483e-05 0.0000000000000000e+00  1.9552116453153613e-05 -1.8491966690093076e-05 0.0000000000000000e+00  2.2514167323799227e-05 -2.1867832724550958e-05 0.0000000000000000e+00  2.5558518350147952e-05 -2.5504446163951753e-05 0.0000000000000000e+00  0.0000000000000000e+00 0.0000000000000000e+00 0.0000000000000000e+00  6.2803326023522826e-07 -4.9836369668839870e-07 0.0000000000000000e+00  1.2797989387703011e-06 -1.0157031276733483e-06 0.0000000000000000e+00  1.9798076223225612e-06 -1.5716656790837921e-06 0.0000000000000000e+00  2.7541167492262032e-06 -2.1872479228528144e-06 0.0000000000000000e+00  3.6310601461258669e-06 -2.8854815612681415e-06 0.0000000000000000e+00  4.6418859740069615e-06 -3.6921149610605626e-06 0.0000000000000000e+00  5.8211976307844189e-06 -4.6362527924431158e-06 0.0000000000000000e+00  7.2070095433121013e-06 -5.7508720585851426e-06 0.0000000000000000e+00  8.8401075754578886e-06 -7.0730586446340232e-06 0.0000000000000000e+00  1.0762242975739737e-05 -8.6436898828105126e-06 0.0000000000000000e+00  1.3012519158898178e-05 -1.0506110295346628e-05 0.0000000000000000e+00  1.5621244455783868e-05 -1.2703104066904164e-05 0.0000000000000000e+00  1.8600712602247323e-05 -1.5271188606170988e-05 0.0000000000000000e+00  2.1933105868156674e-05 -1.8231055428793735e-05 0.0000000000000000e+00  2.5557115013175669e-05 -2.1573157156928857e-05 0.0000000000000000e+00  2.9356342720623658e-05 -2.5238564661251734e-05 0.0000000000000000e+00  0.0000000000000000e+00 0.0000000000000000e+00 0.0000000000000000e+00  6.2679762459965415e-07 -4.8531088475474736e-07 0.0000000000000000e+00  1.2785287472210592e-06 -9.8873420612882391e-07 0.0000000000000000e+00  1.9811436309555447e-06 -1.5289833264308316e-06 0.0000000000000000e+00  2.7626433674513495e-06 -2.1259719093072550e-06 0.0000000000000000e+00  3.6541479168219862e-06 -2.8014232905472341e-06 0.0000000000000000e+00  4.6909793875071054e-06 -3.5794830885010643e-06 0.0000000000000000e+00  5.9136897345399183e-06 -4.4873232873218502e-06 0.0000000000000000e+00  7.3688618424273639e-06 -5.5557145048625964e-06 0.0000000000000000e+00  9.1093394291333094e-06 -6.8195275400526923e-06 0.0000000000000000e+00  1.1193264995110100e-05 -8.3181001727031934e-06 0.0000000000000000e+00  1.3680920665729969e-05 -1.0095348696130298e-05 0.0000000000000000e+00  1.6627962478691837e-05 -1.2199346849170734e-05 0.0000000000000000e+00  2.0073534602985740e-05 -1.4680661650516084e-05 0.0000000000000000e+00  2.4022657826921517e-05 -1.7587675426354667e-05 0.0000000000000000e+00  2.8425136077156687e-05 -2.0955003796230828e-05 0.0000000000000000e+00  3.3157542585603361e-05 -2.4778251453854259e-05 0.0000000000000000e+00  0.0000000000000000e+00 0.0000000000000000e+00 0.0000000000000000e+00  6.0062315471900767e-07 -4.5413969980189904e-07 0.0000000000000000e+00  1.2263660911600710e-06 -9.2493052340769178e-07 0.0000000000000000e+00  1.9035821906399612e-06 -1.4295486035782186e-06 0.0000000000000000e+00  2.6611477736169235e-06 -1.9862147361558971e-06 0.0000000000000000e+00  3.5318853243766194e-06 -2.6147304982311134e-06 0.0000000000000000e+00  4.5541630188113719e-06 -3.3370336371252520e-06 0.0000000000000000e+00  5.7736804638293336e-06 -4.1777898472138396e-06 0.0000000000000000e+00  7.2453600289923257e-06 -5.1650602290855820e-06 0.0000000000000000e+00  9.0350676496445793e-06 -6.3311321206130467e-06 0.0000000000000000e+00  1.1220500733424093e-05 -7.7136913344384679e-06 0.0000000000000000e+00  1.3889893149808861e-05 -9.3576482067377925e-06 0.0000000000000000e+00  1.7136144225351713e-05 -1.1318035764586072e-05 0.0000000000000000e+00  2.1042870018345818e-05 -1.3664161306124714e-05 0.0000000000000000e+00  2.5659029408277249e-05 -1.6483701528401479e-05 0.0000000000000000e+00  3.0963554147654699e-05 -1.9880708055815683e-05 0.0000000000000000e+00  3.6835287019291948e-05 -2.3950725649595699e-05 0.0000000000000000e+00  0.0000000000000000e+00 0.0000000000000000e+00 0.0000000000000000e+00  5.4931992559683460e-07 -4.0630920621836729e-07 0.0000000000000000e+00  1.1227176671238346e-06 -8.2728841537334810e-07 0.0000000000000000e+00  1.7456543525268423e-06 -1.2780507537994660e-06 0.0000000000000000e+00  2.4464578069404152e-06 -1.7745874295870164e-06 0.0000000000000000e+00  3.2580529983333186e-06 -2.3342220579118021e-06 0.0000000000000000e+00  4.2200679643689175e-06 -2.9760916219953435e-06 0.0000000000000000e+00  5.3814583979898425e-06 -3.7216865568972999e-06 0.0000000000000000e+00  6.8037657633165231e-06 -4.5955256502971323e-06 0.0000000000000000e+00  8.5649921521261957e-06 -5.6261381822361926e-06 0.0000000000000000e+00  1.0763689426511182e-05 -6.8477295665561351e-06 0.0000000000000000e+00  1.3521922950954857e-05 -8.3033046630122221e-06 0.0000000000000000e+00  1.6983797735632079e-05 -1.0050706219282915e-05 0.0000000000000000e+00  2.1302791966360016e-05 -1.2173896329363621e-05 0.0000000000000000e+00  2.6607185250882862e-05 -1.4801864390411297e-05 0.0000000000000000e+00  3.2935104236810571e-05 -1.8133028976198405e-05 0.0000000000000000e+00  4.0160146939017047e-05 -2.2444983837935657e-05 0.0000000000000000e+00  0.0000000000000000e+00 0.0000000000000000e+00 0.0000000000000000e+00  4.7392715152905614e-07 -3.4379910337992580e-07 0.0000000000000000e+00  9.6951467599015734e-07 -6.9985060281221685e-07 0.0000000000000000e+00  1.5098393463240425e-06 -1.0807620950738974e-06 0.0000000000000000e+00  2.1209493964680064e-06 -1.4998402545112726e-06 0.0000000000000000e+00  2.8337655783542789e-06 -1.9714489141952907e-06 0.0000000000000000e+00  3.6865502985522400e-06 -2.5113829878844041e-06 0.0000000000000000e+00  4.7282562696942779e-06 -3.1372809984489193e-06 0.0000000000000000e+00  6.0231685349453377e-06 -3.8691347727278455e-06 0.0000000000000000e+00  7.6573366919636225e-06 -4.7300463413218648e-06 0.0000000000000000e+00  9.7472068143839812e-06 -5.7476125211758083e-06 0.0000000000000000e+00  1.2450159351256318e-05 -6.9568880039763859e-06 0.0000000000000000e+00  1.5974191268827281e-05 -8.4072373987900023e-06 0.0000000000000000e+00  2.0577243969172951e-05 -1.0178368055871303e-05 0.0000000000000000e+00  2.6531896779160531e-05 -1.2416196065257355e-05 0.0000000000000000e+00  3.4009844712014108e-05 -1.5403818723309988e-05 0.0000000000000000e+00  4.2852675823501039e-05 -1.9665160972546662e-05 0.0000000000000000e+00  0.0000000000000000e+00 0.0000000000000000e+00 0.0000000000000000e+00  3.7686089801151131e-07 -2.6902658785243853e-07 0.0000000000000000e+00  7.7155729659014378e-07 -5.4753979790216886e-07 0.0000000000000000e+00  1.2032164772295113e-06 -8.4528985352479156e-07 0.0000000000000000e+00  1.6937051961571555e-06 -1.1725401744584115e-06 0.0000000000000000e+00  2.2694697471159657e-06 -1.5403199858192671e-06 0.0000000000000000e+00  2.9640567328760894e-06 -1.9606682768515165e-06 0.0000000000000000e+00  3.8217717957605761e-06 -2.4468599645936382e-06 0.0000000000000000e+00  4.9032087214195580e-06 -3.0135999257614283e-06 0.0000000000000000e+00  6.2938300172142635e-06 -3.6771734282799261e-06 0.0000000000000000e+00  8.1174372835925879e-06 -4.4555974237288564e-06 0.0000000000000000e+00  1.0557050612830305e-05 -5.3691104015283342e-06 0.0000000000000000e+00  1.3885257336288465e-05 -6.4425426316266823e-06 0.0000000000000000e+00  1.8499828504490623e-05 -7.7154486032834707e-06 0.0000000000000000e+00  2.4933234316869137e-05 -9.2796836350627189e-06 0.0000000000000000e+00  3.3719925763276599e-05 -1.1399450475811895e-05 0.0000000000000000e+00  4.4846287134005548e-05 -1.4806246845904393e-05 0.0000000000000000e+00  0.0000000000000000e+00 0.0000000000000000e+00 0.0000000000000000e+00  2.6194630665037131e-07 -1.8475807985802628e-07 0.0000000000000000e+00  5.3661997155543963e-07 -3.7597975988398850e-07 0.0000000000000000e+00  8.3774125722075276e-07 -5.8030100579049426e-07 0.0000000000000000e+00  1.1811543601333883e-06 -8.0468871992384851e-07 0.0000000000000000e+00  1.5863088635620392e-06 -1.0565926246060041e-06 0.0000000000000000e+00  2.0783745667473322e-06 -1.3440682191316071e-06 0.0000000000000000e+00  2.6914773678934831e-06 -1.6758306080415548e-06 0.0000000000000000e+00  3.4739335634749540e-06 -2.0611437766473598e-06 0.0000000000000000e+00  4.4971394437364042e-06 -2.5093189544046948e-06 0.0000000000000000e+00  5.8713603857660397e-06 -3.0282923388998364e-06 0.0000000000000000e+00  7.7748953335271160e-06 -3.6210935106030497e-06 0.0000000000000000e+00  1.0509316170863571e-05 -4.2778362289531472e-06 0.0000000000000000e+00  1.4602813005293970e-05 -4.9602387222647436e-06 0.0000000000000000e+00  2.0980722961603410e-05 -5.5859092462011839e-06 0.0000000000000000e+00  3.1090058980304387e-05 -6.1054715886715786e-06 0.0000000000000000e+00  4.5906013485382479e-05 -7.2924798728375503e-06 0.0000000000000000e+00  0.0000000000000000e+00 0.0000000000000000e+00 0.0000000000000000e+00  1.3429341895351762e-07 -9.4018208763616615e-08 0.0000000000000000e+00  2.7521963172896384e-07 -1.9130933716959949e-07 0.0000000000000000e+00  4.2995286166695651e-07 -2.9523088210827765e-07 0.0000000000000000e+00  6.0683209762008648e-07 -4.0930068571611505e-07 0.0000000000000000e+00  8.1619353770255853e-07 -5.3726506201468853e-07 0.0000000000000000e+00  1.0715912555508590e-06 -6.8314076323083387e-07 0.0000000000000000e+00  1.3917318601278627e-06 -8.5119157778831106e-07 0.0000000000000000e+00  1.8037551130463301e-06 -1.0457386388166247e-06 0.0000000000000000e+00  2.3491842303569830e-06 -1.2705353335178824e-06 0.0000000000000000e+00  3.0955492123605574e-06 -1.5269576452964344e-06 0.0000000000000000e+00  4.1611201789165244e-06 -1.8088125802747401e-06 0.0000000000000000e+00  5.7729882995409759e-06 -2.0869170618534880e-06 0.0000000000000000e+00  8.4191680759939289e-06 -2.2606506335479577e-06 0.0000000000000000e+00  1.3294342694564126e-05 -1.9953557845386957e-06 0.0000000000000000e+00  2.3751951625262705e-05 -1.3867226028406756e-07 0.0000000000000000e+00  5.0467231414189789e-05 7.5007874630824707e-06 0.0000000000000000e+00  0.0000000000000000e+00 0.0000000000000000e+00 0.0000000000000000e+00  0.0000000000000000e+00 0.0000000000000000e+00 0.0000000000000000e+00  0.0000000000000000e+00 0.0000000000000000e+00 0.0000000000000000e+00  0.0000000000000000e+00 0.0000000000000000e+00 0.0000000000000000e+00  0.0000000000000000e+00 0.0000000000000000e+00 0.0000000000000000e+00  0.0000000000000000e+00 0.0000000000000000e+00 0.0000000000000000e+00  0.0000000000000000e+00 0.0000000000000000e+00 0.0000000000000000e+00  0.0000000000000000e+00 0.0000000000000000e+00 0.0000000000000000e+00  0.0000000000000000e+00 0.0000000000000000e+00 0.00000