<?xml version="1.0"?>
<VTKFile type="UnstructuredGrid"  version="0.1"  >
<UnstructuredGrid>
<Piece  NumberOfPoints="289" NumberOfCells="512">
<Points>
<DataArray  type="Float64"  NumberOfComponents="3"  format="ascii">0 0 0  0.0625 0 0  0.125 0 0  0.1875 0 0  0.25 0 0  0.3125 0 0  0.375 0 0  0.4375 0 0  0.5 0 0  0.5625 0 0  0.625 0 0  0.6875 0 0  0.75 0 0  0.8125 0 0  0.875 0 0  0.9375 0 0  1 0 0  0 0.0625 0  0.06249810718185915 0.0625017826463785 0  0.1249961584584612 0.06250364279807454 0  0.1874940977764713 0.06250566279154607 0  0.2499918690456595 0.06250793538859456 0  0.3124894165462266 0.06251057097425564 0  0.3749866858564546 0.06251370789185826 0  0.437483625473525 0.062517528653195 0  0.4999801892825487 0.06252228745294063 0  0.5624763399960473 0.06252836056183918 0  0.6249720536671315 0.06253634618079217 0  0.6874673255006379 0.06254728000493517 0  0.7499621778813909 0.0625631470704657 0  0.8124566742254449 0.06258823053939427 0  0.8749509515978086 0.06263307307717265 0  0.9374453166800034 0.06272739892043869 0  0.9999405585906446 0.06296639653670778 0  0 0.125 0  0.06249627027157154 0.1250034877021086 0  0.1249924288290259 0.1250071255326595 0  0.1874883634977025 0.1250110725796349 0  0.2499839616853733 0.125015507138613 0  0.3124791110207966 0.1250206396011856 0  0.3749737010370223 0.1250267303779069 0  0.4374676262597206 0.1250341168736863 0  0.4999607910261107 0.1250432569130761 0  0.5624531162660904 0.1250548028873819 0  0.6249445483135966 0.1250697350922233 0  0.6874350696262518 0.1250896119963677 0  0.7499247112685595 0.1251170524767693 0  0.812413567760631 0.1251566546645116 0  0.8749018182662378 0.1252165530535875 0  0.9373897706947936 0.1253097259384652 0  0.9998779963682738 0.1254460278925912 0  0 0.1875 0  0.06249454512009106 0.1875050425680591 0  0.1249889230852164 0.1875102988508522 0  0.1874829656413363 0.1875159944755597 0  0.2499765030517528 0.1875223803533549 0  0.3124693646075147 0.1875297489171208 0  0.3749613807073128 0.1875384556063251 0  0.437452387090091 0.1875489491974924 0  0.4999422317763856 0.1875618168477759 0  0.5624307851298881 0.187577853493591 0  0.6249179530995376 0.187598170877813 0  0.6874036930066429 0.187624367419991 0  0.7498880298884657 0.1876587761900693 0  0.8123710682931344 0.1877047527515072 0  0.8748529848362647 0.1877667202188415 0  0.9373339499375779 0.1878489085635672 0  0.9998137684112622 0.1879501411110386 0  0 0.25 0  0.06249298719851245 0.2500063836712284 0  0.1249857527785054 0.2500130326374695 0  0.1874780729049383 0.2500202257457896 0  0.2499697201826176 0.2500282702561235 0  0.312460463482699 0.2500375191171901 0  0.3749500698374167 0.2500483924084473 0  0.4374383092637355 0.2500614051494195 0  0.4999249634203453 0.2500772043087142 0  0.5624098388968601 0.2500966181709609 0  0.6248927855330912 0.2501207198448623 0  0.6873737192768918 0.2501508995439058 0  0.7498526475125111 0.2501889168125604 0  0.8123296925328163 0.2502368408836703 0  0.8748051072356002 0.2502966486404696 0  0.9372792854412102 0.2503690440885226 0  0.999752841917776 0.2504511548324226 0  0 0.3125 0  0.06249165098436523 0.3125074594325051 0  0.1249830279678459 0.3125152220909371 0  0.1874738530067415 0.312523605237688 0  0.2499638412173051 0.3125329551772614 0  0.3124526991540855 0.3125436638937584 0  0.3749401256604398 0.3125561882438356 0  0.4374258163818469 0.3125710724075933 0  0.4999094733447804 0.3125889737021053 0  0.5623908210832828 0.3126106901407564 0  0.6248696305369367 0.3126371838279892 0  0.6873457510575477 0.3126695845917696 0  0.7498191490520257 0.312709138555303 0  0.8122899490291609 0.3127570320703537 0  0.874758469933544 0.3128139792485605 0  0.9372252485894185 0.3128794651654166 0  0.9996910388021999 0.3129507511342248 0  0 0.375 0  0.06249058885521968 0.3750082319106814 0  0.1249808551389448 0.3750167908535049 0  0.1874704699205524 0.3750260175480398 0  0.2499590924456609 0.375036280678503 0  0.312446366099641 0.375047992034963 0  0.3749319170250112 0.3750616227514777 0  0.4374153569248706 0.3750777202916027 0  0.499896292086793 0.3750969246857324 0  0.5623743411307005 0.3751199802088961 0  0.6248491641572843 0.3751477343064136 0  0.6873205053827099 0.3751811079843489 0  0.7497882493231955 0.3752210105061646 0  0.8122524864996006 0.3752681589317254 0  0.8747135785077286 0.3753227631925715 0  0.9371722059339226 0.3753840856774072 0  0.9996293805591568 0.3754500412947067 0  0 0.4375 0  0.06248984935799076 0.43750867728008 0  0.124979333823845 0.4375176916428759 0  0.1874680790469469 0.4375273930157014 0  0.2499556924345611 0.437538157294699 0  0.3124417555829201 0.4375503998029467 0  0.3749258191310964 0.437564588920821 0  0.4374074018234655 0.4375812591009419 0  0.4998859964805942 0.4376010213453307 0  0.5623610866997117 0.4376245672116474 0  0.6248321791769252 0.4376526590958522 0  0.6872988569122961 0.4376860946242749 0  0.7497608569590966 0.4377256270697532 0  0.812218170906099 0.4377718199200436 0  0.8746711551313862 0.4378248204170717 0  0.9371206216437012 0.4378840688434166 0  0.9995678658445776 0.4379480286808522 0  0 0.5 0  0.06248947477319449 0.5000087854648101 0  0.1249785517198042 0.5000179051775175 0  0.1874668199174462 0.5000277051495138 0  0.2499538424989116 0.5000385550046974 0  0.3124391444138011 0.5000508599349006 0  0.3749222017347559 0.5000650725079713 0  0.4374024342825412 0.5000817036341096 0  0.4998792047285526 0.5001013312204324 0  0.56235182936432 0.5001246037733361 0  0.6248196083468623 0.5001522342393703 0  0.6872818858212383 0.5001849765454344 0  0.7497381510436005 0.5002235736878489 0  0.8121881865789334 0.500268662563542 0  0.8746322528731301 0.5003206190939555 0  0.9370712656407311 0.5003793316759291 0  0.9995068824727932 0.500443907933048 0  0 0.5625 0  0.06248949798373556 0.5625085592722515 0  0.1249785782768272 0.5625174381836333 0  0.1874668062502987 0.5625269669508315 0  0.2499537129945024 0.5625374969441671 0  0.3124387775007244 0.562549411382362 0  0.374921408647055 0.5625631360103797 0  0.4374009282308947 0.5625791494861385 0  0.4998765580197217 0.5625979929555334 0  0.5623474167906699 0.562620277970478 0  0.6248125381111161 0.5626466914503568 0  0.6872709262696332 0.5626779955596461 0  0.7497216747074185 0.5627150183218785 0  0.8121641726282086 0.5627586251786478 0  0.8745984074323014 0.5628096475883525 0  0.9370253122297749 0.5628687154766957 0  0.9994470022140861 0.5629358989562976 0  0 0.625 0  0.06248993879784628 0.6250080132852784 0  0.1249794570039898 0.6250163210415114 0  0.1874681135888162 0.6250252270560297 0  0.2499554254103806 0.6250350537246673 0  0.3124408435074312 0.6250461515807432 0  0.3749237265236337 0.6250589091138947 0  0.4374033111789469 0.6250737630952976 0  0.4998786813045825 0.6250912099180015 0  0.5623487404121756 0.6251118191341372 0  0.6248121996185655 0.6251362516746277 0  0.6872676050591838 0.6251652872597557 0  0.7497134479756887 0.6251998673369531 0  0.8121484221195102 0.625241157239425 0  0.8745718948425671 0.6252906113410889 0  0.9369845810506405 0.6253499589813154 0  0.9993891612895021 0.6254208727889936 0  0 0.6875 0  0.0624908000648876 0.6875071726509318 0  0.1249811971450813 0.6875146053291771 0  0.1874707653994812 0.6875225660188503 0  0.249959031149912 0.6875313385856636 0  0.3124454440456619 0.6875412310229718 0  0.3749293420102293 0.6875525841912269 0  0.4374099076370675 0.6875657815686104 0  0.4998861142438925 0.6875812611704984 0  0.5623566621631532 0.6875995322160811 0  0.6248199127031391 0.6876212020932727 0  0.6872738438988101 0.6876470249539389 0  0.7497160876675883 0.6876779932399483 0  0.8121441717005635 0.6877155065394684 0  0.874556170179966 0.6877616552473583 0  0.9369519633394534 0.6878195980777038 0  0.999334887179761 0.6878937608234172 0  0 0.75 0  0.06249206413870679 0.750006071799022 0  0.1249837658595653 0.7500123612796449 0  0.1874747193679652 0.7500190926019331 0  0.2499644892706398 0.7500265028280648 0  0.3124525588619749 0.75003484863468 0  0.3749382889246468 0.7500444134502789 0  0.4374208618391539 0.7500555154670753 0  0.4998992040818127 0.7500685175522358 0  0.5623718788123773 0.7500838414793487 0  0.6248369417820623 0.7501019922831657 0  0.6872917658725047 0.7501236066908256 0  0.7497328821006208 0.7501495587234632 0  0.8121560020298003 0.7501811974868687 0  0.8745566482589788 0.75022086951908 0  0.9369322196609193 0.7502729588095541 0  0.9992862419045807 0.7503455050771421 0  0 0.8125 0  0.06249369043274951 0.8125047530704257 0  0.1249870825096421 0.8125096750561807 0  0.187479856562326 0.8125149397699395 0  0.2499716471778655 0.8125207307298974 0  0.3124620124689177 0.8125272461197373 0  0.3749503919285924 0.8125347038686976 0  0.4374360451670428 0.812543346891174 0  0.4999179591430958 0.8125534485557214 0  0.5623947038115529 0.8125653186558757 0  0.6248642046787932 0.8125793111580905 0  0.6873233883688061 0.8125958392805516 0  0.749767662759718 0.8126154199362791 0  0.8121902936144455 0.8126388275999531 0  0.8745821879418292 0.8126676208675979 0  0.936934012888453 0.8127057780594583 0  0.9992452683915618 0.8127637377482827 0  0 0.875 0  0.06249561488853728 0.875003265236308 0  0.1249910169074096 0.8750066457745788 0  0.1874859768069743 0.8750102601795394 0  0.2499802298621683 0.8750142334367215 0  0.3124734511147328 0.8750187001167089 0  0.3749652199756093 0.8750238073519546 0  0.4374549659582899 0.875029717224528 0  0.4999418806929826 0.8750366075052439 0  0.5624247680874612 0.8750446680625016 0  0.6249017773433809 0.8750540863973985 0  0.687369907901527 0.8750650072080176 0  0.7498240669140109 0.87507743525597 0  0.8122552910347286 0.8750910411759094 0  0.8746477570547319 0.8751049553591813 0  0.9369763259080025 0.8751187072575742 0  0.9992221182972535 0.8751420727812672 0  0 0.9375 0  0.06249775204619094 0.9375016619243585 0  0.1249953931726704 0.9375033823075936 0  0.1874928035289047 0.9375052212331737 0  0.2499898438097246 0.9375072419606171 0  0.3124863413418452 0.9375095124298402 0  0.3749820696485273 0.937512106529558 0  0.4374767160011962 0.9
[...]
<PointData  Vectors="f_54"> 
<DataArray  type="Float64"  Name="f_54"  NumberOfComponents="3" format="ascii">0.0000000000000000e+00 0.0000000000000000e+00 0.0000000000000000e+00  0.0000000000000000e+00 0.0000000000000000e+00 0.0000000000000000e+00  0.0000000000000000e+00 0.0000000000000000e+00 0.0000000000000000e+00  0.0000000000000000e+00 0.0000000000000000e+00 0.0000000000000000e+00  0.0000000000000000e+00 0.0000000000000000e+00 0.0000000000000000e+00  0.0000000000000000e+00 0.0000000000000000e+00 0.0000000000000000e+00  0.0000000000000000e+00 0.0000000000000000e+00 0.0000000000000000e+00  0.0000000000000000e+00 0.0000000000000000e+00 0.0000000000000000e+00  0.0000000000000000e+00 0.0000000000000000e+00 0.0000000000000000e+00  0.0000000000000000e+00 0.0000000000000000e+00 0.0000000000000000e+00  0.0000000000000000e+00 0.0000000000000000e+00 0.0000000000000000e+00  0.0000000000000000e+00 0.0000000000000000e+00 0.0000000000000000e+00  0.0000000000000000e+00 0.0000000000000000e+00 0.0000000000000000e+00  0.0000000000000000e+00 0.0000000000000000e+00 0.0000000000000000e+00  0.0000000000000000e+00 0.0000000000000000e+00 0.0000000000000000e+00  0.0000000000000000e+00 0.0000000000000000e+00 0.0000000000000000e+00  0.0000000000000000e+00 0.0000000000000000e+00 0.0000000000000000e+00  0.0000000000000000e+00 0.0000000000000000e+00 0.0000000000000000e+00  -1.4140811581067954e-08 3.2136737014604579e-08 0.0000000000000000e+00  -2.8760916160264194e-08 6.5669724005174905e-08 0.0000000000000000e+00  -4.4351365633432386e-08 1.0208121206579683e-07 0.0000000000000000e+00  -6.1428571102127986e-08 1.4304142902984503e-07 0.0000000000000000e+00  -8.0547869967651513e-08 1.9053814739592950e-07 0.0000000000000000e+00  -1.0231814997725652e-07 2.4706245705979545e-07 0.0000000000000000e+00  -1.2741735748417230e-07 3.1589962024629946e-07 0.0000000000000000e+00  -1.5660709624593977e-07 4.0162228523230503e-07 0.0000000000000000e+00  -1.9073998626847914e-07 5.1099538728537478e-07 0.0000000000000000e+00  -2.3074203715623654e-07 6.5478110642169062e-07 0.0000000000000000e+00  -2.7752552676086227e-07 8.5168829491386843e-07 0.0000000000000000e+00  -3.3172947632787981e-07 1.1379533234402195e-06 0.0000000000000000e+00  -3.9307443121353409e-07 1.5933235244161283e-06 0.0000000000000000e+00  -4.5900598143448699e-07 2.4199699442185006e-06 0.0000000000000000e+00  -5.2285266397586414e-07 4.2088449209491103e-06 0.0000000000000000e+00  -5.7751309709902741e-07 8.9227288019762477e-06 0.0000000000000000e+00  0.0000000000000000e+00 0.0000000000000000e+00 0.0000000000000000e+00  -2.7802253796995145e-08 6.2877014529145332e-08 0.0000000000000000e+00  -5.6550439746723075e-08 1.2845842296197695e-07 0.0000000000000000e+00  -8.7213729926731838e-08 1.9960816525973073e-07 0.0000000000000000e+00  -1.2081123572375290e-07 2.7953663082338064e-07 0.0000000000000000e+00  -1.5843883115726930e-07 3.7203287439857366e-07 0.0000000000000000e+00  -2.0129856322092476e-07 4.8178712613181514e-07 0.0000000000000000e+00  -2.5073145758613151e-07 6.1487494049479459e-07 0.0000000000000000e+00  -3.0825306273131730e-07 7.7953373120682350e-07 0.0000000000000000e+00  -3.7558599224271836e-07 9.8748295301427374e-07 0.0000000000000000e+00  -4.5466944566401436e-07 1.2562864259607572e-06 0.0000000000000000e+00  -5.4758867947943946e-07 1.6137546122886523e-06 0.0000000000000000e+00  -6.5627158310621381e-07 2.1062986869305700e-06 0.0000000000000000e+00  -7.8152988262794770e-07 2.8141925388033641e-06 0.0000000000000000e+00  -9.2012727487906057e-07 3.8737624515107426e-06 0.0000000000000000e+00  -1.0549529819108436e-06 5.4721747896600553e-06 0.0000000000000000e+00  -1.1165306637901377e-06 7.5586416618494082e-06 0.0000000000000000e+00  0.0000000000000000e+00 0.0000000000000000e+00 0.0000000000000000e+00  -4.0518360994015592e-08 9.0914129504681971e-08 0.0000000000000000e+00  -8.2424488305466267e-08 1.8567765959428418e-07 0.0000000000000000e+00  -1.2714032310474605e-07 2.8835220971888600e-07 0.0000000000000000e+00  -1.7616071469218596e-07 4.0345560998330418e-07 0.0000000000000000e+00  -2.3109249581300399e-07 5.3625496049444748e-07 0.0000000000000000e+00  -2.9369786317046582e-07 6.9315437672295212e-07 0.0000000000000000e+00  -3.6594513774194232e-07 8.8224140820694970e-07 0.0000000000000000e+00  -4.5007101890577441e-07 1.1140951051062365e-06 0.0000000000000000e+00  -5.4865842491888399e-07 1.4030218925169099e-06 0.0000000000000000e+00  -6.6473049003906296e-07 1.7689750137082943e-06 0.0000000000000000e+00  -8.0185037868521492e-07 2.2404920697828599e-06 0.0000000000000000e+00  -9.6419921639036057e-07 2.8588529457733035e-06 0.0000000000000000e+00  -1.1566305384345070e-06 3.6825799501146904e-06 0.0000000000000000e+00  -1.3851174068373932e-06 4.7872999006610566e-06 0.0000000000000000e+00  -1.6608066533372594e-06 6.2459496779962898e-06 0.0000000000000000e+00  -2.0269102290030364e-06 8.0758332199719019e-06 0.0000000000000000e+00  0.0000000000000000e+00 0.0000000000000000e+00 0.0000000000000000e+00  -5.1847758108805589e-08 1.1510395278469583e-07 0.0000000000000000e+00  -1.0548891387996939e-07 2.3498556101207433e-07 0.0000000000000000e+00  -1.6276126126132912e-07 3.6466395926356039e-07 0.0000000000000000e+00  -2.2559617508960929e-07 5.0967085331850885e-07 0.0000000000000000e+00  -2.9606790328365862e-07 6.7636292399013923e-07 0.0000000000000000e+00  -3.7644783534960575e-07 8.7231068145015935e-07 0.0000000000000000e+00  -4.6926910166307437e-07 1.1068039549227692e-06 0.0000000000000000e+00  -5.7741145987005301e-07 1.3915249568542213e-06 0.0000000000000000e+00  -7.0422392399143876e-07 1.7414434602128758e-06 0.0000000000000000e+00  -8.5371376408551606e-07 2.1759578298623945e-06 0.0000000000000000e+00  -1.0308448737511755e-06 2.7201642724321899e-06 0.0000000000000000e+00  -1.2419998478082671e-06 3.4056968777158177e-06 0.0000000000000000e+00  -1.4956332486506903e-06 4.2694549080780480e-06 0.0000000000000000e+00  -1.8028796189497701e-06 5.3461893812250440e-06 0.0000000000000000e+00  -2.1762230560861985e-06 6.6476333062853019e-06 0.0000000000000000e+00  -2.6145629537515796e-06 8.1205402072474720e-06 0.0000000000000000e+00  0.0000000000000000e+00 0.0000000000000000e+00 0.0000000000000000e+00  -6.1384993890225094e-08 1.3451842184695561e-07 0.0000000000000000e+00  -1.2492240308727303e-07 2.7449648827891804e-07 0.0000000000000000e+00  -1.9281869867180114e-07 4.2564383078156187e-07 0.0000000000000000e+00  -2.6739235159524141e-07 5.9419312810883422e-07 0.0000000000000000e+00  -3.5113059437765433e-07 7.8720109256402823e-07 0.0000000000000000e+00  -4.4674921428202614e-07 1.0128981385195038e-06 0.0000000000000000e+00  -5.5726102801935886e-07 1.2811018526606171e-06 0.0000000000000000e+00  -6.8606594099257194e-07 1.6037003243907409e-06 0.0000000000000000e+00  -8.3708974378964176e-07 1.9951827002621380e-06 0.0000000000000000e+00  -1.0150251631617006e-06 2.4731194761957489e-06 0.0000000000000000e+00  -1.2257746322699027e-06 3.0583218233296848e-06 0.0000000000000000e+00  -1.4772697257185103e-06 3.7740508438607423e-06 0.0000000000000000e+00  -1.7809619479484379e-06 4.6430089800782771e-06 0.0000000000000000e+00  -2.1544916053663848e-06 5.6799799773875264e-06 0.0000000000000000e+00  -2.6266532581169276e-06 6.8775111188988151e-06 0.0000000000000000e+00  -3.2489069443298919e-06 8.1834432118931213e-06 0.0000000000000000e+00  0.0000000000000000e+00 0.0000000000000000e+00 0.0000000000000000e+00  -6.8770926106114869e-08 1.4847505206145869e-07 0.0000000000000000e+00  -1.3999712317170925e-07 3.0283742082466306e-07 0.0000000000000000e+00  -2.1619769333130022e-07 4.6921778853004578e-07 0.0000000000000000e+00  -3.0002130323018869e-07 6.5424833457055474e-07 0.0000000000000000e+00  -3.9430821403903749e-07 8.6533547376650492e-07 0.0000000000000000e+00  -5.0214993919723228e-07 1.1109551393864315e-06 0.0000000000000000e+00  -6.2694867902516330e-07 1.4009680894807052e-06 0.0000000000000000e+00  -7.7248537799517087e-07 1.7469360847651649e-06 0.0000000000000000e+00  -9.4302112435097412e-07 2.1623853914183499e-06 0.0000000000000000e+00  -1.1434906922689984e-06 2.6628975301122608e-06 0.0000000000000000e+00  -1.3799146164387271e-06 3.2657892294311202e-06 0.0000000000000000e+00  -1.6602811751823524e-06 3.9889619084215104e-06 0.0000000000000000e+00  -1.9963682221403599e-06 4.8482961351374547e-06 0.0000000000000000e+00  -2.4073553880638337e-06 5.8529554254387776e-06 0.0000000000000000e+00  -2.9268351731463030e-06 6.9988065613026976e-06 0.0000000000000000e+00  -3.6168173658662822e-06 8.2634781921966237e-06 0.0000000000000000e+00  0.0000000000000000e+00 0.0000000000000000e+00 0.0000000000000000e+00  -7.3702285528262125e-08 1.5654509254947500e-07 0.0000000000000000e+00  -1.5009715674055133e-07 3.1915854973655067e-07 0.0000000000000000e+00  -2.3195211352030378e-07 4.9413651699686531e-07 0.0000000000000000e+00  -3.2218384730344386e-07 6.8823746482651123e-07 0.0000000000000000e+00  -4.2392582675470261e-07 9.0892160159365088e-07 0.0000000000000000e+00  -5.4058566154529031e-07 1.1645942349592009e-06 0.0000000000000000e+00  -6.7588663777120071e-07 1.4648420234448560e-06 0.0000000000000000e+00  -8.3388902338446430e-07 1.8206355687114590e-06 0.0000000000000000e+00  -1.0189951920944997e-06 2.2444461366395062e-06 0.0000000000000000e+00  -1.2359690768228783e-06 2.7501854734411704e-06 0.0000000000000000e+00  -1.4900657774794878e-06 3.3528273140066857e-06 0.0000000000000000e+00  -1.7875054831448860e-06 4.0675237955589313e-06 0.0000000000000000e+00  -2.1367749801289806e-06 4.9080410394625958e-06 0.0000000000000000e+00  -2.5515739160390589e-06 5.8845192708890297e-06 0.0000000000000000e+00  -3.0562760521568441e-06 7.0010992491403456e-06 0.0000000000000000e+00  -3.6928558215827993e-06 8.2550262731318022e-06 0.0000000000000000e+00  0.0000000000000000e+00 0.0000000000000000e+00 0.0000000000000000e+00  -7.5941109189674926e-08 1.5854601735338964e-07 0.0000000000000000e+00  -1.5473612068578278e-07 3.2311190760699341e-07 0.0000000000000000e+00  -2.3932752491433388e-07 4.9992578327588351e-07 0.0000000000000000e+00  -3.3283230856789277e-07 6.9563253416542926e-07 0.0000000000000000e+00  -4.3861962050248640e-07 9.1750220072835340e-07 0.0000000000000000e+00  -5.6037144256690943e-07 1.1736324277313004e-06 0.0000000000000000e+00  -7.0211062169022407e-07 1.4731321883808887e-06 0.0000000000000000e+00  -8.6817135601457550e-07 1.8262630478351742e-06 0.0000000000000000e+00  -1.0630774630248620e-06 2.2445003335861401e-06 0.0000000000000000e+00  -1.2912917189659018e-06 2.7404639040047156e-06 0.0000000000000000e+00  -1.5568283724009546e-06 3.3276689045695926e-06 0.0000000000000000e+00  -1.8628348908385801e-06 4.0200861400291718e-06 0.0000000000000000e+00  -2.2115550196499260e-06 4.8316144248533097e-06 0.0000000000000000e+00  -2.6057392867850897e-06 5.7757540486974656e-06 0.0000000000000000e+00  -3.0536119318440095e-06 6.8658213118869861e-06 0.0000000000000000e+00  -3.5800714704049473e-06 8.1150120276019007e-06 0.0000000000000000e+00  0.0000000000000000e+00 0.0000000000000000e+00 0.0000000000000000e+00  -7.5325283888292506e-08 1.5452466976540526e-07 0.0000000000000000e+00  -1.5357688049354584e-07 3.1481240872725825e-07 0.0000000000000000e+00  -2.3778645795737214e-07 4.8681412366384516e-07 0.0000000000000000e+00  -3.3119348316236973e-07 6.7685229768416884e-07 0.0000000000000000e+00  -4.3734194895508756e-07 8.9180376173651904e-07 0.0000000000000000e+00  -5.6015999798147740e-07 1.1392740096139728e-06 0.0000000000000000e+00  -7.0399937124167195e-07 1.4277521065817791e-06 0.0000000000000000e+00  -8.7358976588275076e-07 1.7667282951123502e-06 0.0000000000000000e+00  -1.0738269576894296e-06 2.1667500796218853e-06 0.0000000000000000e+00  -1.3092598249390739e-06 2.6393939071533681e-06 0.0000000000000000e+00  -1.5830793421909093e-06 3.1971561217887821e-06 0.0000000000000000e+00  -1.8953951928032435e-06 3.8533556077673075e-06 0.0000000000000000e+00  -2.2407927878126506e-06 4.6223540587441252e-06 0.0000000000000000e+00  -2.6060978762922342e-06 5.5208019186924275e-06 0.0000000000000000e+00  -2.9721739543349476e-06 6.5711308172388438e-06 0.0000000000000000e+00  -3.3311410811396211e-06 7.8084854845428517e-06 0.0000000000000000e+00  0.0000000000000000e+00 0.0000000000000000e+00 0.0000000000000000e+00  -7.1781563264209683e-08 1.4473627359352278e-07 0.0000000000000000e+00  -1.4645696991978275e-07 2.9479251972563173e-07 0.0000000000000000e+00  -2.2704390622951695e-07 4.5565644806312071e-07 0.0000000000000000e+00  -3.1680743201635922e-07 6.3314490941776108e-07 0.0000000000000000e+00  -4.1938658522869815e-07 8.3356661873966758e-07 0.0000000000000000e+00  -5.3891604271293397e-07 1.0638792373368005e-06 0.0000000000000000e+00  -6.8012194135746773e-07 1.3318333351071846e-06 0.0000000000000000e+00  -8.4834133958299089e-07 1.6460905737086411e-06 0.0000000000000000e+00  -1.0493552055695895e-06 2.0162976913861088e-06 0.0000000000000000e+00  -1.2888102400308982e-06 2.4530956389344073e-06 0.0000000000000000e+00  -1.5707987704541649e-06 2.9680586102341220e-06 0.0000000000000000e+00  -1.8948369680530703e-06 3.5736331184198840e-06 0.0000000000000000e+00  -2.2500866669674298e-06 4.2833974111779840e-06 0.0000000000000000e+00  -2.6056432930248226e-06 5.1136565854092162e-06 0.0000000000000000e+00  -2.8977600563696172e-06 6.0890150029751963e-06 0.0000000000000000e+00  -3.0243211666079896e-06 7.2574007787142972e-06 0.0000000000000000e+00  0.0000000000000000e+00 0.0000000000000000e+00 0.0000000000000000e+00  -6.5341661085026972e-08 1.2962263261763754e-07 0.0000000000000000e+00  -1.3342203048843582e-07 2.6395726180978881e-07 0.0000000000000000e+00  -2.0711983398041106e-07 4.0786342395177945e-07 0.0000000000000000e+00  -2.8959893908203362e-07 5.6648915081148321e-07 0.0000000000000000e+00  -3.8447156575721825e-07 7.4541734845972790e-07 0.0000000000000000e+00  -4.9598289806525383e-07 9.5081307304873029e-07 0.0000000000000000e+00  -6.2921386667939639e-07 1.1895691629032390e-06 0.0000000000000000e+00  -7.9027600328460621e-07 1.4694434100209236e-06 0.0000000000000000e+00  -9.8641436875651119e-07 1.7991711576671161e-06 0.0000000000000000e+00  -1.2257956708634890e-06 2.1885173008384825e-06 0.0000000000000000e+00  -1.5164400165988878e-06 2.6481933871287886e-06 0.0000000000000000e+00  -1.8630570015015962e-06 3.1895125124678114e-06 0.0000000000000000e+00  -2.2591106976404804e-06 3.8236705307704086e-06 0.0000000000000000e+00  -2.6687574053368164e-06 4.5610427315507003e-06 0.0000000000000000e+00  -2.9891625970263654e-06 5.4133475546097619e-06 0.0000000000000000e+00  -2.9802458745075583e-06 6.4098461960624639e-06 0.0000000000000000e+00  0.0000000000000000e+00 0.0000000000000000e+00 0.0000000000000000e+00  -5.6160152994550766e-08 1.0979089008650323e-07 0.0000000000000000e+00  -1.1476553609587759e-07 2.2354194604357679e-07 0.0000000000000000e+00  -1.7840880160820972e-07 3.4533916339513211e-07 0.0000000000000000e+00  -2.4998919952139006e-07 4.7951489499131204e-07 0.0000000000000000e+00  -3.3290726265620966e-07 6.3077831784941837e-07 0.0000000000000000e+00  -4.3131560920246881e-07 8.0435537547961313e-07 0.0000000000000000e+00  -5.5045485836617203e-07 1.0061428307415084e-06 0.0000000000000000e+00  -6.9710810963941940e-07 1.2428805016824891e-06 0.0000000000000000e+00  -8.8019731487005949e-07 1.5223385435927812e-06 0.0000000000000000e+00  -1.1114807244945023e-06 1.8534868349769627e-06 0.0000000000000000e+00  -1.4060790140932707e-06 2.2465178638144591e-06 0.0000000000000000e+00  -1.7818509814990434e-06 2.7123290960721002e-06 0.0000000000000000e+00  -2.2546687574912510e-06 3.2604348314248408e-06 0.0000000000000000e+00  -2.8215168092731244e-06 3.8931031598539796e-06 0.0000000000000000e+00  -3.4108841264727668e-06 4.5929089079761368e-06 0.0000000000000000e+00  -3.7512101391749303e-06 5.3097038427268215e-06 0.0000000000000000e+00  0.0000000000000000e+00 0.0000000000000000e+00 0.0000000000000000e+00  -4.4530247638468751e-08 8.5992613490582352e-08 0.0000000000000000e+00  -9.1066706638603705e-08 1.7507165005305128e-07 0.0000000000000000e+00  -1.4175453112272301e-07 2.7042437519545645e-07 0.0000000000000000e+00  -1.9903340698910522e-07 3.7543649221097575e-07 0.0000000000000000e+00  -2.6584103227828038e-07 4.9380281647355525e-07 0.0000000000000000e+00  -3.4590109024555091e-07 6.2965515916999142e-07 0.0000000000000000e+00  -4.4415886410110623e-07 7.8772062393150876e-07 0.0000000000000000e+00  -5.6747217402529615e-07 9.7353195318213501e-07 0.0000000000000000e+00  -7.2574261891089003e-07 1.1937224585709322e-06 0.0000000000000000e+00  -9.3379660092977813e-07 1.4564418020034084e-06 0.0000000000000000e+00  -1.2144900158317125e-06 1.7718800967913646e-06 0.0000000000000000e+00  -1.6035860355810583e-06 2.1526111122685815e-06 0.0000000000000000e+00  -2.1563420354557195e-06 2.6123440411307632e-06 0.0000000000000000e+00  -2.9523444188528585e-06 3.1577071914799824e-06 0.0000000000000000e+00  -4.0833180433701880e-06 3.7551439342882201e-06 0.0000000000000000e+00  -5.5819071537368389e-06 4.2220528083213665e-06 0.0000000000000000e+00  0.0000000000000000e+00 0.0000000000000000e+00 0.0000000000000000e+00  -3.0891036454818120e-08 5.9101885579584149e-08 0.0000000000000000e+00  -6.3212079136963261e-08 1.2031914046501859e-07 0.0000000000000000e+00  -9.8503016434687578e-08 1.8583841178967625e-07 0.0000000000000000e+00  -1.3854017425292752e-07 2.5798755040720686e-07 0.0000000000000000e+00  -1.8550998623818593e-07 3.3931838383490747e-07 0.0000000000000000e+00  -2.4227089882190560e-07 4.3270921614556243e-07 0.0000000000000000e+00  -3.1278087941788575e-07 5.4150556245088462e-07 0.0000000000000000e+00  -4.0283968347609677e-07 6.6973585763661955e-07 0.0000000000000000e+00  -5.2144544866675702e-07 8.2247759541909390e-07 0.0000000000000000e+00  -6.8338603724375581e-07 1.0065323260299246e-06 0.0000000000000000e+00  -9.1437616445807978e-07 1.2317426085292149e-06 0.0000000000000000e+00  -1.2615131696998709e-06 1.5136167448499456e-06 0.0000000000000000e+00  -1.8146669207042086e-06 1.8783291601594611e-06 0.0000000000000000e+00  -2.7483335773745026e-06 2.3701332804407121e-06 0.0000000000000000e+00  -4.3886475950803917e-06 3.0484840344762422e-06 0.0000000000000000e+00  -7.2246860801415646e-06 3.8770779233836477e-06 0.0000000000000000e+00  0.0000000000000000e+00 0.0000000000000000e+00 0.0000000000000000e+00  -1.5819134724470397e-08 3.0090656688963143e-08 0.0000000000000000e+00  -3.2383498094005026e-08 6.1256940040426141e-08 0.0000000000000000e+00  -5.0499379103576399e-08 9.4611589281603189e-08 0.0000000000000000e+00  -7.1105706633244803e-08 1.3134127990987090e-07 0.0000000000000000e+00  -9.5375175451858969e-08 1.7275156130723365e-07 0.0000000000000000e+00  -1.2487254378750217e-07 2.2032530692074669e-07 0.0000000000000000e+00  -1.6182455170168889e-07 2.7580889015385705e-07 0.0000000000000000e+00  -2.0961327871167683e-07 3.4135736833562893e-07 0.0000000000000000e+00  -2.7373620586044943e-07 4.1981267694283467e-07 0.0000000000000000e+00  -3.6379348217244853e-07 5.1530363910765178e-07 0.0000000000000000e+00  -4.9787687053336647e-07 6.3468912200955534e-07 0.0000000000000000e+00  -7.1297231262105317e-07 7.9140222787420098e-07 0.0000000000000000e+00  -1.0916124414547686e-06 1.0167137501014615e-06 0.0000000000000000e+00  -1.8361492144165588e-06 1.3957057516241428e-06 0.0000000000000000e+00  -3.4939965192166161e-06 2.1908753767178631e-06 0.0000000000000000e+00  -7.6907691043635066e-06 4.2890416138385762e-06 0.0000000000000000e+00  0.0000000000000000e+00 0.0000000000000000e+00 0.0000000000000000e+00  0.0000000000000000e+00 0.0000000000000000e+00 0.0000000000000000e+00  0.0000000000000000e+00 0.0000000000000000e+00 0.0000000000000000e+00  0.0000000000000000e+00 0.0000000000000000e+00 0.0000000000000000e+00  0.0000000000000000e+00 0.0000000000000000e+00 0.0000000000000000e+00  0.0000000000000000e+00 0.0000000000000000e+00 0.0000000000000000e+00  0.0000000000000000e+00 0.0000000000000000e+00 0.0000000000000000e+00  0.0000000000000000e+00 0.0000000000000000e+00 0.0000000000000000e+00  0.0000000000000000e+00 0.0000000000000000e+00 0.0000