<?xml version="1.0"?>
<VTKFile type="UnstructuredGrid"  version="0.1"  >
<UnstructuredGrid>
<Piece  NumberOfPoints="289" NumberOfCells="512">
<Points>
<DataArray  type="Float64"  NumberOfComponents="3"  format="ascii">0 0 0  0.0625 0 0  0.125 0 0  0.1875 0 0  0.25 0 0  0.3125 0 0  0.375 0 0  0.4375 0 0  0.5 0 0  0.5625 0 0  0.625 0 0  0.6875 0 0  0.75 0 0  0.8125 0 0  0.875 0 0  0.9375 0 0  1 0 0  0 0.0625 0  0.06249949284746656 0.06250081282502315 0  0.124998970845923 0.0625016598745112 0  0.1874984189628398 0.06250257743596106 0  0.2499978221721446 0.06250360619063328 0  0.3124971655644767 0.06250479426511511 0  0.3749964346016452 0.06250620163745436 0  0.4374956155653775 0.06250790709212316 0  0.4999946962506581 0.06251002009942105 0  0.5624936669557787 0.06251270270221224 0  0.6249925218368104 0.06251621315351472 0  0.6874912607522422 0.06252100086056246 0  0.7499898918431992 0.06252793434027365 0  0.8124884349773287 0.06253891125904927 0  0.8749869231767126 0.06255868553765186 0  0.93748537706655 0.06260096128895312 0  0.9999836049863359 0.06271072680531498 0  0 0.125 0  0.0624990006084573 0.1250015912781636 0  0.1249979715178434 0.1250032489394531 0  0.1874968826365434 0.125005043185135 0  0.2499957037906319 0.1250070522933255 0  0.3124944048963374 0.1250093680639959 0  0.3749929564209384 0.1250121034273957 0  0.4374913302344698 0.1250154039625222 0  0.4999895009529403 0.125019466545617 0  0.5624874478668678 0.1250245713312727 0  0.6249851575552791 0.125031139385177 0  0.6874826273933764 0.1250398407246642 0  0.7499798707435 0.1250518009861203 0  0.8124769272869138 0.1250689865221334 0  0.8749738941791591 0.1250948082359773 0  0.937471051876873 0.1251343109684225 0  0.9999694478526349 0.125188720906735 0  0 0.1875 0  0.06249853828637156 0.1875023031834575 0  0.1249970320820723 0.1875047011033326 0  0.1874954362429093 0.1875072935582309 0  0.2499937052654816 0.1875101909463072 0  0.3124917934245618 0.187513521087943 0  0.3749896553415162 0.1875174382823517 0  0.4374872471451109 0.1875221361590905 0  0.4999845283831547 0.1875278668795788 0  0.5624814648108415 0.1875349708819709 0  0.6249780320916158 0.1875439237686995 0  0.6874742202316508 0.1875554093728914 0  0.7499700379704491 0.1875704260208524 0  0.8124655141158388 0.1875904090930543 0  0.8749606825631081 0.1876172543003344 0  0.9374554864509541 0.1876528513885908 0  0.9999492705485155 0.1876974926049277 0  0 0.25 0  0.06249812078246647 0.2500029201752765 0  0.1249961824953686 0.2500059584009258 0  0.1874941250742016 0.2500092384686572 0  0.2499918875412921 0.2500128960434286 0  0.3124894079588074 0.250017085867752 0  0.374986623947841 0.2500219907001607 0  0.4374834740083067 0.2500278329389932 0  0.4999798998875895 0.250034890180922 0  0.562475850216078 0.250043516141968 0  0.6249712855082332 0.250054167823243 0  0.6874661843472742 0.2500674367835702 0  0.7499605500408019 0.2500840724372151 0  0.8124544163030181 0.2501049588700601 0  0.8749478510774517 0.2501309494604079 0  0.9374409713800802 0.2501623784978689 0  0.9999340883674758 0.2501980633940055 0  0 0.3125 0  0.0624977627261331 0.3125034189348342 0  0.1249954523089639 0.312506973518633 0  0.1874929941598488 0.3125108053352531 0  0.2499903118675177 0.3125150680828344 0  0.3124873267620917 0.3125199344486002 0  0.3749839581553271 0.3125256039743298 0  0.4374801245811001 0.3125323122006728 0  0.4999757464183251 0.3125403411585244 0  0.5624707502976802 0.3125500306054342 0  0.6249650756132407 0.3125617876748203 0  0.6874586831946103 0.3125760886067119 0  0.7499515656629084 0.3125934579453737 0  0.8124437582264707 0.312614395891965 0  0.8749353479917635 0.312639205430151 0  0.9374264790136301 0.3126676668523444 0  0.9999173355681985 0.312698576847015 0  0 0.375 0  0.06249747817410715 0.3750037818673005 0  0.1249948701033054 0.3750077110691386 0  0.1874920875150933 0.3750119407380287 0  0.2499890389947181 0.3750166357022797 0  0.3124856289010025 0.3750219786916151 0  0.3749817570094894 0.3750281768388508 0  0.4374773193014452 0.3750354682760193 0  0.4999722104555951 0.3750441281666679 0  0.5624663287265351 0.3750544726126682 0  0.6249595839340417 0.3750668571778394 0  0.6874519091073649 0.375081663820408 0  0.7499432757432504 0.3750992655304703 0  0.812433711486713 0.3751199528807915 0  0.8749233173945429 0.3751438060375872 0  0.937412280377498 0.3751705138944523 0  0.9999008771073372 0.3751992077621223 0  0 0.4375 0  0.06249728014372596 0.4375039972988407 0  0.1249944625766554 0.4375081478312498 0  0.1874914468394033 0.437512610327556 0  0.2499881275917676 0.4375175545132409 0  0.3124843925793864 0.4375231666236306 0  0.374980121267366 0.4375296547413003 0  0.4374751846317138 0.4375372535023133 0  0.4999694468525166 0.4375462272369838 0  0.5624627699614396 0.4375568698240402 0  0.6249550227846684 0.4375694983420559 0  0.687446095600689 0.4375844359953559 0  0.7499359214345697 0.437601978116908 0  0.8124245033019829 0.437622334490152 0  0.8749119435478439 0.437645544456323 0  0.9373984671065707 0.4376713723677777 0  0.9998844276321286 0.437699211453093 0  0 0.5 0  0.06249717995876233 0.5000040593479445 0  0.1249942532338282 0.5000082723282252 0  0.1874911095564927 0.5000127977328402 0  0.2499876316871715 0.5000178046428595 0  0.3124836921248944 0.5000234774273824 0  0.3749791502469803 0.5000300203684963 0  0.4374738503704917 0.5000376614116483 0  0.4999676216122106 0.5000466541401082 0  0.5624602809877114 0.5000572765058061 0  0.6249516419108281 0.5000698241603728 0  0.6874415309447536 0.5000845956221744 0  0.7499298157639517 0.5001018664673235 0  0.81241644566369 0.5001218509912825 0  0.8749015009044124 0.5001446527453213 0  0.9373852376622722 0.500170207829893 0  0.9998681046609913 0.5001982170637196 0  0 0.5625 0  0.06249718641036915 0.5625039676358651 0  0.1249942606664506 0.5625080841226746 0  0.187491106145939 0.5625125031639049 0  0.24998759699083 0.5625173881704992 0  0.3124835933112149 0.5625229169860221 0  0.3749789363459363 0.5625292862974874 0  0.4374734439296151 0.562536715330061 0  0.4999669070990939 0.5625454481245143 0  0.5624590895111811 0.5625557533072731 0  0.6249497326780545 0.5625679198775957 0  0.6874385718662333 0.5625822474425364 0  0.7499253693490323 0.5625990301514173 0  0.8124099717598656 0.5626185362524992 0  0.8748923924554504 0.562640990068927 0  0.9373729019307679 0.5626665668877423 0  0.9998520777602621 0.5626954019879024 0  0 0.625 0  0.06249730477313412 0.6250037269628356 0  0.1249944964912754 0.6250075931057757 0  0.1874914568265228 0.6250117421840801 0  0.2499880560853713 0.6250163271864321 0  0.3124841468203038 0.6250215149851204 0  0.374979556668037 0.625027490931896 0  0.4374740804019171 0.6250344631960042 0  0.4999674716360148 0.6250426664339286 0  0.5624594355914959 0.6250523640743899 0  0.6249496262692398 0.6250638481286732 0  0.6874376548476406 0.625077435222552 0  0.7499231214711373 0.6250934582820755 0  0.8124056884311167 0.6251122570176273 0  0.8748852123152367 0.6251341805548637 0  0.9373619283217242 0.6251596324208863 0  0.9998366058111833 0.6251891824116117 0  0 0.6875 0  0.06249753576703466 0.6875033470140229 0  0.1249949631208548 0.6875068189118114 0  0.1874921678257471 0.6875105448500669 0  0.2499890227223187 0.6875146627174606 0  0.312485379950445 0.6875193237830944 0  0.374981061482286 0.687524697677751 0  0.4374758473343867 0.6875309777827358 0  0.4999694609836927 0.6875383870058527 0  0.5624615521845088 0.687547183668238 0  0.6249516793329956 0.6875576666307754 0  0.6874392982914375 0.6875701776467242 0  0.7499237747741418 0.6875850975099022 0  0.8124044557122629 0.6876028337397744 0  0.8748808577802248 0.6876238128913207 0  0.9373530265862613 0.6876485500432953 0  0.9998219851923216 0.6876779939406912 0  0 0.75 0  0.06249787461418489 0.7500028420932641 0  0.124995651672007 0.7500057904420725 0  0.1874932277034548 0.7500089551610268 0  0.2499904858341364 0.7500124543618164 0  0.3124872872288399 0.7500164186913434 0  0.3749834599514885 0.7500209966197695 0  0.4374787838194283 0.7500263608969172 0  0.4999729693553577 0.7500327167076759 0  0.5624656285582303 0.7500403120300368 0  0.6249562356514009 0.7500494500851685 0  0.6874440794149482 0.7500605014040667 0  0.749928220982667 0.7500739065232124 0  0.8124075052560856 0.7500901471658499 0  0.8748807517939977 0.750109653922164 0  0.9373473704336052 0.7501326978696207 0  0.9998086109588226 0.7501598676516855 0  0 0.8125 0  0.06249831039016283 0.8125022308285386 0  0.1249965404430474 0.8125045453636933 0  0.187494604450408 0.8125070305569122 0  0.2499924043442674 0.8125097801750583 0  0.3124898214084271 0.8125128989147342 0  0.3749867048821659 0.8125165075740659 0  0.4374828553495102 0.8125207500411061 0  0.4999779995090385 0.8125258033216984 0  0.5624717507686158 0.8125318924818766 0  0.6249635468701266 0.8125393129145768 0  0.6874525521256315 0.8125484611450557 0  0.7499375130689538 0.8125598662115122 0  0.8124165847436158 0.8125741758372251 0  0.8748872772183705 0.8125919291079314 0  0.9373471110639841 0.8126126565949023 0  0.9997965090210756 0.8126327938053363 0  0 0.875 0  0.06249882589013055 0.8750015357614129 0  0.1249975944585832 0.8750031293773787 0  0.1874962442651971 0.875004841078066 0  0.2499947042924477 0.8750067361401184 0  0.3124928872747853 0.8750088880953287 0  0.3749906801379972 0.8750113830211186 0  0.437487929305045 0.8750143258309305 0  0.4999844168021656 0.8750178502931294 0  0.5624798194191917 0.8750221361509973 0  0.6249736355824347 0.8750274400331916 0  0.6874650487879352 0.8750341531324148 0  0.7499526646846301 0.8750429075991197 0  0.8124340055814547 0.8750547473101281 0  0.8749046278821355 0.8750712256615545 0  0.9373572622567096 0.8750932202957554 0  0.9997855789393469 0.8751109438301512 0  0 0.9375 0  0.06249939819339705 0.9375007827312983 0  0.124998766524072 0.9375015950399475 0  0.1874980728877756 0.9375024677667811 0  0.2499972799348678 0.9375034344572553 0  0.3124963413281529 0.9375045331425857 0  0.3749951962359404 0.937505808823213 0  0.4374937605721407 0.937507
[...]
<PointData  Vectors="f_54"> 
<DataArray  type="Float64"  Name="f_54"  NumberOfComponents="3" format="ascii">0.0000000000000000e+00 0.0000000000000000e+00 0.0000000000000000e+00  0.0000000000000000e+00 0.0000000000000000e+00 0.0000000000000000e+00  0.0000000000000000e+00 0.0000000000000000e+00 0.0000000000000000e+00  0.0000000000000000e+00 0.0000000000000000e+00 0.0000000000000000e+00  0.0000000000000000e+00 0.0000000000000000e+00 0.0000000000000000e+00  0.0000000000000000e+00 0.0000000000000000e+00 0.0000000000000000e+00  0.0000000000000000e+00 0.0000000000000000e+00 0.0000000000000000e+00  0.0000000000000000e+00 0.0000000000000000e+00 0.0000000000000000e+00  0.0000000000000000e+00 0.0000000000000000e+00 0.0000000000000000e+00  0.0000000000000000e+00 0.0000000000000000e+00 0.0000000000000000e+00  0.0000000000000000e+00 0.0000000000000000e+00 0.0000000000000000e+00  0.0000000000000000e+00 0.0000000000000000e+00 0.0000000000000000e+00  0.0000000000000000e+00 0.0000000000000000e+00 0.0000000000000000e+00  0.0000000000000000e+00 0.0000000000000000e+00 0.0000000000000000e+00  0.0000000000000000e+00 0.0000000000000000e+00 0.0000000000000000e+00  0.0000000000000000e+00 0.0000000000000000e+00 0.0000000000000000e+00  0.0000000000000000e+00 0.0000000000000000e+00 0.0000000000000000e+00  0.0000000000000000e+00 0.0000000000000000e+00 0.0000000000000000e+00  1.1737679719187684e-07 -1.0789405520317155e-07 0.0000000000000000e+00  2.3822529516523494e-07 -2.2050340936342740e-07 0.0000000000000000e+00  3.6602128770996438e-07 -3.4283906665968442e-07 0.0000000000000000e+00  5.0424386534910565e-07 -4.8055166313045154e-07 0.0000000000000000e+00  6.5635053651163258e-07 -6.4037294130771620e-07 0.0000000000000000e+00  8.2572040203611525e-07 -8.3074938887706339e-07 0.0000000000000000e+00  1.0155547843345792e-06 -1.0628355008822391e-06 0.0000000000000000e+00  1.2287258089219157e-06 -1.3521786516236684e-06 0.0000000000000000e+00  1.4675653445917919e-06 -1.7218033864638143e-06 0.0000000000000000e+00  1.7335874260564557e-06 -2.2083209362859179e-06 0.0000000000000000e+00  2.0271283399199892e-06 -2.8751161547717094e-06 0.0000000000000000e+00  2.3468409692772474e-06 -3.8436555303309599e-06 0.0000000000000000e+00  2.6887981869667060e-06 -5.3759697741402971e-06 0.0000000000000000e+00  3.0443251429782355e-06 -8.1167963376279315e-06 0.0000000000000000e+00  3.3935094278770541e-06 -1.3882859253200040e-05 0.0000000000000000e+00  3.6839453714680153e-06 -2.8486540876074239e-05 0.0000000000000000e+00  0.0000000000000000e+00 0.0000000000000000e+00 0.0000000000000000e+00  2.3128298632612962e-07 -2.1107374962745288e-07 0.0000000000000000e+00  4.6950212298510920e-07 -4.3127938537671819e-07 0.0000000000000000e+00  7.2161255891073218e-07 -6.7029736509252727e-07 0.0000000000000000e+00  9.9459713067867280e-07 -9.3898702736307600e-07 0.0000000000000000e+00  1.2954274556599624e-06 -1.2501775480994654e-06 0.0000000000000000e+00  1.6309609049059551e-06 -1.6197675979897468e-06 0.0000000000000000e+00  2.0077514262565369e-06 -2.0683795792973514e-06 0.0000000000000000e+00  2.4317544320924893e-06 -2.6240209306021889e-06 0.0000000000000000e+00  2.9079118187723060e-06 -3.3266254353374927e-06 0.0000000000000000e+00  3.4396131710490564e-06 -4.2362161010949889e-06 0.0000000000000000e+00  4.0280405362810649e-06 -5.4482228862990492e-06 0.0000000000000000e+00  4.6714053178388332e-06 -7.1229969993364542e-06 0.0000000000000000e+00  5.3640439097625589e-06 -9.5420576715037516e-06 0.0000000000000000e+00  6.0951632538091283e-06 -1.3203480896503141e-05 0.0000000000000000e+00  6.8464296823176197e-06 -1.8902538597978032e-05 0.0000000000000000e+00  7.5853581403544668e-06 -2.7248460174192931e-05 0.0000000000000000e+00  0.0000000000000000e+00 0.0000000000000000e+00 0.0000000000000000e+00  3.3825672172709586e-07 -3.0512470140317686e-07 0.0000000000000000e+00  6.8688933380920869e-07 -6.2324403007613457e-07 0.0000000000000000e+00  1.0563290286007302e-06 -9.6808220892591134e-07 0.0000000000000000e+00  1.4571011097091714e-06 -1.3549158410234818e-06 0.0000000000000000e+00  1.8997941759046381e-06 -1.8015711658646302e-06 0.0000000000000000e+00  2.3949329687855446e-06 -2.3297436791698945e-06 0.0000000000000000e+00  2.9527192747108431e-06 -2.9668605196340736e-06 0.0000000000000000e+00  3.5826072419907030e-06 -3.7488445789800079e-06 0.0000000000000000e+00  4.2926887762065959e-06 -4.7243697122633013e-06 0.0000000000000000e+00  5.0888867781576631e-06 -5.9615399596379194e-06 0.0000000000000000e+00  5.9739972230232456e-06 -7.5582867015440603e-06 0.0000000000000000e+00  6.9467041413616225e-06 -9.6575282463520265e-06 0.0000000000000000e+00  8.0008802886389182e-06 -1.2464715133593915e-05 0.0000000000000000e+00  9.1260591605818971e-06 -1.6250335742712422e-05 0.0000000000000000e+00  1.0312144092449187e-05 -2.1271848822278826e-05 0.0000000000000000e+00  1.1570681493328237e-05 -2.7450955633599224e-05 0.0000000000000000e+00  0.0000000000000000e+00 0.0000000000000000e+00 0.0000000000000000e+00  4.3486012721715193e-07 -3.8618552456298586e-07 0.0000000000000000e+00  8.8347304337736380e-07 -7.8849210808145345e-07 0.0000000000000000e+00  1.3597144297677261e-06 -1.2238709871874733e-06 0.0000000000000000e+00  1.8776827146137061e-06 -1.7110182772443245e-06 0.0000000000000000e+00  2.4517105292041986e-06 -2.2714369315316887e-06 0.0000000000000000e+00  3.0962491021397508e-06 -2.9307557515798864e-06 0.0000000000000000e+00  3.8255730014190112e-06 -3.7204406708841342e-06 0.0000000000000000e+00  4.6532504355021955e-06 -4.6800717442682565e-06 0.0000000000000000e+00  5.5913316197391563e-06 -5.8603783003478810e-06 0.0000000000000000e+00  6.6492336000956213e-06 -7.3271385903439607e-06 0.0000000000000000e+00  7.8323563118722705e-06 -9.1656083999485147e-06 0.0000000000000000e+00  9.1405634992845506e-06 -1.1483698493270932e-05 0.0000000000000000e+00  1.0566801986170677e-05 -1.4408247952691733e-05 0.0000000000000000e+00  1.2096227680793007e-05 -1.8060224066003063e-05 0.0000000000000000e+00  1.3705684357870276e-05 -2.2482115184591299e-05 0.0000000000000000e+00  1.5358926528848921e-05 -2.7496844344823865e-05 0.0000000000000000e+00  0.0000000000000000e+00 0.0000000000000000e+00 0.0000000000000000e+00  5.1771716709002155e-07 -4.5113009631027677e-07 0.0000000000000000e+00  1.0524327421664691e-06 -9.2067040086001057e-07 0.0000000000000000e+00  1.6213751817284787e-06 -1.4278908634298202e-06 0.0000000000000000e+00  2.2422044410729162e-06 -1.9938446541833668e-06 0.0000000000000000e+00  2.9331127251129690e-06 -2.6423917103338204e-06 0.0000000000000000e+00  3.7127730920468308e-06 -3.4013817766675455e-06 0.0000000000000000e+00  4.6000629597655749e-06 -4.3040409408537741e-06 0.0000000000000000e+00  5.6134771090607716e-06 -5.3905687205984192e-06 0.0000000000000000e+00  6.7701409629771880e-06 -6.7098463689703120e-06 0.0000000000000000e+00  8.0843526375334123e-06 -8.3208919926830042e-06 0.0000000000000000e+00  9.5656396983465900e-06 -1.0293100787659280e-05 0.0000000000000000e+00  1.1216432312121311e-05 -1.2703095738226622e-05 0.0000000000000000e+00  1.3029630885196486e-05 -1.5623907490187867e-05 0.0000000000000000e+00  1.4986535009662476e-05 -1.9099620191686453e-05 0.0000000000000000e+00  1.7055692391790043e-05 -2.3098897319860527e-05 0.0000000000000000e+00  1.9193509860093307e-05 -2.7454055656311938e-05 0.0000000000000000e+00  0.0000000000000000e+00 0.0000000000000000e+00 0.0000000000000000e+00  5.8358194179463850e-07 -4.9766851590682135e-07 0.0000000000000000e+00  1.1871697447175978e-06 -1.0151702370652874e-06 0.0000000000000000e+00  1.8311510881746402e-06 -1.5731760386445014e-06 0.0000000000000000e+00  2.5366465691250223e-06 -2.1940721090363587e-06 0.0000000000000000e+00  3.3257593182213170e-06 -2.9028916400352280e-06 0.0000000000000000e+00  4.2216608424120076e-06 -3.7283177950820587e-06 0.0000000000000000e+00  5.2484188449145599e-06 -4.7037383124883581e-06 0.0000000000000000e+00  6.4304423767917478e-06 -5.8682618959364277e-06 0.0000000000000000e+00  7.7913918379621155e-06 -7.2674640379670230e-06 0.0000000000000000e+00  9.3523926261425605e-06 -8.9533595999822552e-06 0.0000000000000000e+00  1.1129430963731218e-05 -1.0982630515890110e-05 0.0000000000000000e+00  1.3129940457959692e-05 -1.3411434050927822e-05 0.0000000000000000e+00  1.5348848880590708e-05 -1.6284357806499549e-05 0.0000000000000000e+00  1.7764746555908765e-05 -1.9615102253060034e-05 0.0000000000000000e+00  2.0337257067379240e-05 -2.3359464519040218e-05 0.0000000000000000e+00  2.3006875429945027e-05 -2.7390899759450167e-05 0.0000000000000000e+00  0.0000000000000000e+00 0.0000000000000000e+00 0.0000000000000000e+00  6.2944557462172631e-07 -5.2437612810002000e-07 0.0000000000000000e+00  1.2815159084309446e-06 -1.0691660150967921e-06 0.0000000000000000e+00  1.9794133342339585e-06 -1.6555678660768714e-06 0.0000000000000000e+00  2.7474693358583698e-06 -2.3063687213622057e-06 0.0000000000000000e+00  3.6116120868202412e-06 -3.0467714068676654e-06 0.0000000000000000e+00  4.5996838654185431e-06 -3.9052370022703040e-06 0.0000000000000000e+00  5.7414979848436680e-06 -4.9142972976804609e-06 0.0000000000000000e+00  7.0684688059543202e-06 -6.1112228398042252e-06 0.0000000000000000e+00  8.6125799530374439e-06 -7.5383091291752425e-06 0.0000000000000000e+00  1.0404391274265931e-05 -9.2423388899984633e-06 0.0000000000000000e+00  1.2469765086480144e-05 -1.1272473171375637e-05 0.0000000000000000e+00  1.4825095668962389e-05 -1.3675453343997981e-05 0.0000000000000000e+00  1.7471171241353619e-05 -1.6486753186195271e-05 0.0000000000000000e+00  2.0386496916889141e-05 -1.9716724564827010e-05 0.0000000000000000e+00  2.3521918455181721e-05 -2.3332755301216075e-05 0.0000000000000000e+00  2.6799249709373061e-05 -2.7242691982394177e-05 0.0000000000000000e+00  0.0000000000000000e+00 0.0000000000000000e+00 0.0000000000000000e+00  6.5268675534409711e-07 -5.3067009549436549e-07 0.0000000000000000e+00  1.3300351882721334e-06 -1.0815475819857546e-06 0.0000000000000000e+00  2.0575148982657789e-06 -1.6735553562126576e-06 0.0000000000000000e+00  2.8622005616740414e-06 -2.3290538965826281e-06 0.0000000000000000e+00  3.7735279239169150e-06 -3.0725725715826640e-06 0.0000000000000000e+00  4.8239532369883063e-06 -3.9315370848121884e-06 0.0000000000000000e+00  6.0494058929209398e-06 -4.9369541571167651e-06 0.0000000000000000e+00  7.4893384254130204e-06 -6.1239687252508667e-06 0.0000000000000000e+00  9.1860527110396616e-06 -7.5321328565560983e-06 0.0000000000000000e+00  1.1182819954074997e-05 -9.2051056212749140e-06 0.0000000000000000e+00  1.3520153256825341e-05 -1.1189326826821995e-05 0.0000000000000000e+00  1.6229549740167498e-05 -1.3530975468359970e-05 0.0000000000000000e+00  1.9324336635955277e-05 -1.6270277053683379e-05 0.0000000000000000e+00  2.2788305133182867e-05 -1.9432092933593319e-05 0.0000000000000000e+00  2.6564881613544163e-05 -2.3011993054300331e-05 0.0000000000000000e+00  3.0552156623097746e-05 -2.6958157017395483e-05 0.0000000000000000e+00  0.0000000000000000e+00 0.0000000000000000e+00 0.0000000000000000e+00  6.5126546852358103e-07 -5.1675423317820617e-07 0.0000000000000000e+00  1.3284201789632643e-06 -1.0527940989460237e-06 0.0000000000000000e+00  2.0584050218660064e-06 -1.6280442738210812e-06 0.0000000000000000e+00  2.8702816844165622e-06 -2.2637069088290446e-06 0.0000000000000000e+00  3.7963339485329585e-06 -2.9829098587039282e-06 0.0000000000000000e+00  4.8731794906342042e-06 -3.8113579555785626e-06 0.0000000000000000e+00  6.1428142201765168e-06 -4.7779746170820000e-06 0.0000000000000000e+00  7.6534037211528502e-06 -5.9155090643779446e-06 0.0000000000000000e+00  9.4594502358214261e-06 -7.2610689810969267e-06 0.0000000000000000e+00  1.1620667232579455e-05 -8.8565157390943648e-06 0.0000000000000000e+00  1.4198481334158173e-05 -1.0748611152536264e-05 0.0000000000000000e+00  1.7248651646028250e-05 -1.2988670026883317e-05 0.0000000000000000e+00  2.0808413545613940e-05 -1.5631091195225464e-05 0.0000000000000000e+00  2.4877669843940192e-05 -1.8729188504477225e-05 0.0000000000000000e+00  2.9397386544925310e-05 -2.2324828374478155e-05 0.0000000000000000e+00  3.4235020758189316e-05 -2.6425817340330229e-05 0.0000000000000000e+00  0.0000000000000000e+00 0.0000000000000000e+00 0.0000000000000000e+00  6.2395079587541215e-07 -4.8354785441729974e-07 0.0000000000000000e+00  1.2739685089219929e-06 -9.8482314382065281e-07 0.0000000000000000e+00  1.9773940858807338e-06 -1.5221105714897641e-06 0.0000000000000000e+00  2.7641746815044349e-06 -2.1148052728965218e-06 0.0000000000000000e+00  3.6683301371090953e-06 -2.7839816964429746e-06 0.0000000000000000e+00  4.7295951917504301e-06 -3.5529813594208330e-06 0.0000000000000000e+00  5.9952411461788652e-06 -4.4480360672041376e-06 0.0000000000000000e+00  7.5219806365108360e-06 -5.4989653471406303e-06 0.0000000000000000e+00  9.3776438678806193e-06 -6.7400359254636883e-06 0.0000000000000000e+00  1.1641888603479198e-05 -8.2111639050077504e-06 0.0000000000000000e+00  1.4404441783910362e-05 -9.9597814497819121e-06 0.0000000000000000e+00  1.7758188340544876e-05 -1.2043812695087186e-05 0.0000000000000000e+00  2.1783087063312148e-05 -1.4536009371202673e-05 0.0000000000000000e+00  2.6516757259405906e-05 -1.7528518026092300e-05 0.0000000000000000e+00  3.1912268311345102e-05 -2.1132136887796498e-05 0.0000000000000000e+00  3.7798833680503327e-05 -2.5454808819887700e-05 0.0000000000000000e+00  0.0000000000000000e+00 0.0000000000000000e+00 0.0000000000000000e+00  5.7056195491475401e-07 -4.3260716571409467e-07 0.0000000000000000e+00  1.1660991495201021e-06 -8.8083093166973251e-07 0.0000000000000000e+00  1.8130152892578916e-06 -1.3607575156887046e-06 0.0000000000000000e+00  2.5406761904205526e-06 -1.8894056887176266e-06 0.0000000000000000e+00  3.3831952354427571e-06 -2.4852080936497183e-06 0.0000000000000000e+00  4.3816023417082979e-06 -3.1685188187917349e-06 0.0000000000000000e+00  5.5865394699692612e-06 -3.9621793936616996e-06 0.0000000000000000e+00  7.0615907519736621e-06 -4.8922185491384719e-06 0.0000000000000000e+00  8.8872063631297584e-06 -5.9888578908602110e-06 0.0000000000000000e+00  1.1164751127073095e-05 -7.2881995306154327e-06 0.0000000000000000e+00  1.4019171492670861e-05 -8.8353689068242535e-06 0.0000000000000000e+00  1.7596574324065630e-05 -1.0690565653685127e-05 0.0000000000000000e+00  2.2049068429657220e-05 -1.2940335668589095e-05 0.0000000000000000e+00  2.7494207752448997e-05 -1.5716421675861773e-05 0.0000000000000000e+00  3.3936467989791120e-05 -1.9220099732202866e-05 0.0000000000000000e+00  4.1163365799147353e-05 -2.3732478118653575e-05 0.0000000000000000e+00  0.0000000000000000e+00 0.0000000000000000e+00 0.0000000000000000e+00  4.9218826956592879e-07 -3.6604173819435570e-07 0.0000000000000000e+00  1.0068384684291914e-06 -7.4512553569203985e-07 0.0000000000000000e+00  1.5678759906967083e-06 -1.1506695596484690e-06 0.0000000000000000e+00  2.2022994212464125e-06 -1.5968344163218524e-06 0.0000000000000000e+00  2.9421462183191899e-06 -2.0989026932490191e-06 0.0000000000000000e+00  3.8270454304275405e-06 -2.6736740780170860e-06 0.0000000000000000e+00  4.9076790841875996e-06 -3.3398986427595687e-06 0.0000000000000000e+00  6.2505788760173768e-06 -4.1188065818682108e-06 0.0000000000000000e+00  7.9447674999831678e-06 -5.0348837824542575e-06 0.0000000000000000e+00  1.0110653901059662e-05 -6.1172714273411456e-06 0.0000000000000000e+00  1.2910835079222367e-05 -7.4027321297702607e-06 0.0000000000000000e+00  1.6559817294539129e-05 -8.9424639146422971e-06 0.0000000000000000e+00  2.1322443305063672e-05 -1.0817956418182594e-05 0.0000000000000000e+00  2.7474745559437963e-05 -1.3176229066856836e-05 0.0000000000000000e+00  3.5176484510854922e-05 -1.6298788223722948e-05 0.0000000000000000e+00  4.4209091801837592e-05 -2.0699516167558375e-05 0.0000000000000000e+00  0.0000000000000000e+00 0.0000000000000000e+00 0.0000000000000000e+00  3.9134187068522219e-07 -2.8642574528579233e-07 0.0000000000000000e+00  8.0117672746801177e-07 -5.8294917640657300e-07 0.0000000000000000e+00  1.2493333340526472e-06 -8.9994708476969086e-07 0.0000000000000000e+00  1.7584767912984749e-06 -1.2483418762017449e-06 0.0000000000000000e+00  2.3560151742107979e-06 -1.6398702565626432e-06 0.0000000000000000e+00  3.0767142831700473e-06 -2.0873431741459565e-06 0.0000000000000000e+00  3.9664982327301420e-06 -2.6048878919653783e-06 0.0000000000000000e+00  5.0882034691925107e-06 -3.2081579594203597e-06 0.0000000000000000e+00  6.5305288180159205e-06 -3.9144998234797072e-06 0.0000000000000000e+00  8.4221266225976694e-06 -4.7431206804746891e-06 0.0000000000000000e+00  1.0953531602462335e-05 -5.7155944305767967e-06 0.0000000000000000e+00  1.4409248722021210e-05 -6.8582415688825243e-06 0.0000000000000000e+00  1.9206057919282497e-05 -8.2122317613083346e-06 0.0000000000000000e+00  2.5905984941951770e-05 -9.8709018485734664e-06 0.0000000000000000e+00  3.5086033093810382e-05 -1.2098195057796707e-05 0.0000000000000000e+00  4.6786447751542334e-05 -1.5614194907587760e-05 0.0000000000000000e+00  0.0000000000000000e+00 0.0000000000000000e+00 0.0000000000000000e+00  2.7199193753830905e-07 -1.9670413393440481e-07 0.0000000000000000e+00  5.5717959427832690e-07 -4.0028815915286407e-07 0.0000000000000000e+00  8.6978616371938764e-07 -6.1781458307229956e-07 0.0000000000000000e+00  1.2262359151726365e-06 -8.5669842492889825e-07 0.0000000000000000e+00  1.6466917688341674e-06 -1.1248698401738502e-06 0.0000000000000000e+00  2.1572541423809666e-06 -1.4309078616810572e-06 0.0000000000000000e+00  2.7933328187396697e-06 -1.7841052289314208e-06 0.0000000000000000e+00  3.6051151977470597e-06 -2.1943693634854317e-06 0.0000000000000000e+00  4.6668794054674333e-06 -2.6717344087299205e-06 0.0000000000000000e+00  6.0935846092077449e-06 -3.2249581588264683e-06 0.0000000000000000e+00  8.0716091456509325e-06 -3.8580262549044261e-06 0.0000000000000000e+00  1.0917165945998663e-05 -4.5622347478104547e-06 0.0000000000000000e+00  1.5186096972254709e-05 -5.3010176592497302e-06 0.0000000000000000e+00  2.1856906699521598e-05 -5.9954634218845588e-06 0.0000000000000000e+00  3.2474918242278737e-05 -6.6068298400695980e-06 0.0000000000000000e+00  4.8165092965784217e-05 -7.9485415879235670e-06 0.0000000000000000e+00  0.0000000000000000e+00 0.0000000000000000e+00 0.0000000000000000e+00  1.3943738097262589e-07 -1.0009613009037412e-07 0.0000000000000000e+00  2.8575145429443046e-07 -2.0367597463783388e-07 0.0000000000000000e+00  4.4637946073805131e-07 -3.1431292242385304e-07 0.0000000000000000e+00  6.2996642189252736e-07 -4.3575148220693936e-07 0.0000000000000000e+00  8.4722996557126229e-07 -5.7198079151478721e-07 0.0000000000000000e+00  1.1122311437034385e-06 -7.2728202995332090e-07 0.0000000000000000e+00  1.4443935184685832e-06 -9.0621067838797146e-07 0.0000000000000000e+00  1.8719357905550355e-06 -1.1134130783642523e-06 0.0000000000000000e+00  2.4381127305295225e-06 -1.3530090429223676e-06 0.0000000000000000e+00  3.2134278011568912e-06 -1.6267930630314194e-06 0.0000000000000000e+00  4.3216379295540748e-06 -1.9290587802043114e-06 0.0000000000000000e+00  6.0007760019497830e-06 -2.2311922592942401e-06 0.0000000000000000e+00  8.7626406796662088e-06 -2.4331565067196026e-06 0.0000000000000000e+00  1.3859013116552170e-05 -2.2001888604137861e-06 0.0000000000000000e+00  2.4797518342862098e-05 -3.7440852545774971e-07 0.0000000000000000e+00  5.2732190135991955e-05 7.2761505489129004e-06 0.0000000000000000e+00  0.0000000000000000e+00 0.0000000000000000e+00 0.0000000000000000e+00  0.0000000000000000e+00 0.0000000000000000e+00 0.0000000000000000e+00  0.0000000000000000e+00 0.0000000000000000e+00 0.0000000000000000e+00  0.0000000000000000e+00 0.0000000000000000e+00 0.0000000000000000e+00  0.0000000000000000e+00 0.0000000000000000e+00 0.0000000000000000e+00  0.0000000000000000e+00 0.0000000000000000e+00 0.0000000000000000e+00  0.0000000000000000e+00 0.0000000000000000e+00 0.0000000000000000e+00  0.0000000000000000e+00 0.0000000000000000e+00 0.0000000000000000e+00  0.0000000000000000e+00 0.0000000000000000e+00 0.00000