<?xml version="1.0"?>
<VTKFile type="UnstructuredGrid"  version="0.1"  >
<UnstructuredGrid>
<Piece  NumberOfPoints="289" NumberOfCells="512">
<Points>
<DataArray  type="Float64"  NumberOfComponents="3"  format="ascii">0 0 0  0.0625 0 0  0.125 0 0  0.1875 0 0  0.25 0 0  0.3125 0 0  0.375 0 0  0.4375 0 0  0.5 0 0  0.5625 0 0  0.625 0 0  0.6875 0 0  0.75 0 0  0.8125 0 0  0.875 0 0  0.9375 0 0  1 0 0  0 0.0625 0  0.06249812117613542 0.06250179364859181 0  0.1249961870821098 0.06250366377542069 0  0.1874941421990176 0.06250569148579592 0  0.2499919310118706 0.06250796783739779 0  0.3124894984254533 0.06251060072155948 0  0.3749867906929685 0.06251372476443795 0  0.4374837570205818 0.06251751690126861 0  0.499980351983184 0.06252222288993353 0  0.5624765388319785 0.06252820598442412 0  0.6249722937046115 0.06253604349585676 0  0.6874676107445301 0.06254673521938431 0  0.7499625085093351 0.06256219767572561 0  0.8124570399056448 0.06258656362602122 0  0.8749513153482278 0.06262998823796773 0  0.9374455792133795 0.06272102556849468 0  0.9999405236344424 0.06295078556242034 0  0 0.125 0  0.06249629773412047 0.1250035106204729 0  0.1249924849944478 0.1250071695229501 0  0.187488450662708 0.1250111335655617 0  0.249984083288127 0.1250155779288659 0  0.3124792717488125 0.125020708417608 0  0.3749739069482462 0.1250267785939992 0  0.4374678848935716 0.1250341156332748 0  0.499961111454876 0.1250431620825192 0  0.5624535089849536 0.1250545473899297 0  0.6249450247621696 0.1250692168698164 0  0.687435640911164 0.1250886742303034 0  0.7499253851435428 0.1251154496853653 0  0.8124143415686698 0.1251539944038474 0  0.8749026611771281 0.1252122091779126 0  0.9373905706876207 0.1253028116354676 0  0.9998783617484276 0.1254361244777916 0  0 0.1875 0  0.06249458503361155 0.1875050791190944 0  0.1249890047002673 0.1875103696899127 0  0.1874830922986208 0.1875160945613198 0  0.2499766797785161 0.1875225006826501 0  0.3124695982971076 0.1875298745650728 0  0.3749616803403196 0.1875385627431256 0  0.4374527639827203 0.1875490007110301 0  0.4999426998230865 0.1875617560308353 0  0.5624313609745244 0.187577595014119 0  0.6249186561190269 0.1875975879337726 0  0.6874045449346073 0.1876232737042343 0  0.7498890539368283 0.1876569017162254 0  0.8123722882054919 0.1877017162740187 0  0.8748544275751532 0.18776201574827 0  0.9373356719948711 0.1878419652453007 0  0.9998160061137937 0.1879405658711258 0  0 0.25 0  0.06249303807933761 0.2500064359768653 0  0.1249858567908835 0.250013135113647 0  0.1874782343046743 0.2500203735382783 0  0.2499699454150559 0.2500284544567538 0  0.3124607614431459 0.2500377245552979 0  0.3749504522151692 0.2500485943056189 0  0.4374387909754523 0.2500615642727915 0  0.499925563133971 0.2500772601596194 0  0.5624105796398212 0.2500964796863095 0  0.6248936953726716 0.2501202531674785 0  0.6873748320786717 0.2501499128905234 0  0.749854003896924 0.2501871439372341 0  0.8123313415424761 0.2502339282806733 0  0.8748071101377722 0.2502921586648145 0  0.9372817233261177 0.2503624924859146 0  0.9997558135241025 0.2504420750719354 0  0 0.3125 0  0.06249171092366341 0.3125075294833944 0  0.1249831504497124 0.3125153608011378 0  0.1874740430253448 0.3125238092442481 0  0.2499641063886431 0.3125332178242017 0  0.3124530500560162 0.3125439730312142 0  0.3749405763045326 0.3125565228765244 0  0.4374263848481657 0.3125713978317833 0  0.4999101826216905 0.3125892347114825 0  0.5623917001679115 0.3126108019128912 0  0.6248707158668259 0.3126370203434283 0  0.687347088355837 0.3126689650981092 0  0.7498207956600175 0.3127078139812692 0  0.8122919767029586 0.312754675697054 0  0.8747609676378544 0.3128101890000231 0  0.9372283232677608 0.3128737863232031 0  0.9996948088700182 0.3129427254353194 0  0 0.375 0  0.06249065557970045 0.3750083209590111 0  0.1249809914136449 0.3750169689083164 0  0.1874706812572409 0.3750262840293592 0  0.2499593873077211 0.3750366333334784 0  0.3124467563065896 0.3750484250103553 0  0.3749324183335469 0.375062123589108 0  0.437415989843236 0.3750782654608333 0  0.499897083006336 0.375097473191541 0  0.5623753238934529 0.3751204648243982 0  0.6248503822140038 0.3751480501838942 0  0.6873220147052381 0.3751810989583675 0  0.7497901221432233 0.3752204544646909 0  0.8122548155700688 0.3752667551167184 0  0.8747164805177832 0.3753201254105806 0  0.9371758201025977 0.3753797440229429 0  0.999633852330729 0.3754434475841058 0  0 0.4375 0  0.06248992031119826 0.4375087852407476 0  0.1249794786372496 0.4375179093832548 0  0.1874683034965399 0.4375277238440852 0  0.2499560054464616 0.4375386052400088 0  0.3124421696734352 0.4375509682394824 0  0.3749263510543724 0.4375652782898155 0  0.4374080735043642 0.4375820632931552 0  0.4998868363540885 0.4376019221594566 0  0.562362131639962 0.4376255261883616 0  0.6248334772757841 0.4376536060465885 0  0.6873004714328508 0.4376869124954612 0  0.7497628717674347 0.437726133600185 0  0.8122206973991702 0.4377717478720162 0  0.8746743398422046 0.4378237993199928 0  0.9371246521228819 0.4378816101396953 0  0.9995729711474834 0.4379435097451184 0  0 0.5 0  0.06248954721532237 0.5000089104091993 0  0.1249786994514896 0.5000181590751416 0  0.1874670487114286 0.5000280959363363 0  0.2499541613260437 0.5000390943183479 0  0.3124395658795555 0.5000515625831121 0  0.374922742731631 0.5000659553454218 0  0.4374031169457365 0.5000827833734678 0  0.4998800578393284 0.5001026204366416 0  0.5623528904358563 0.5001261040230066 0  0.6248209267627933 0.5001539248857775 0  0.6872835275785307 0.5001867977732435 0  0.7497402058412734 0.5002254027488355 0  0.8121907780558145 0.5002702841022778 0  0.8746355524019364 0.5003216935753056 0  0.937075508620598 0.5003793682588084 0  0.9995123827090966 0.5004422415950843 0  0 0.5625 0  0.06248956910463559 0.5625086971009585 0  0.1249787231787731 0.5625177201032323 0  0.1874670304442126 0.562527405721116 0  0.2499540250824209 0.5625381122947056 0  0.3124391895668303 0.5625502306049733 0  0.3749219368447343 0.5625641944588036 0  0.4374015936453308 0.5625804905490446 0  0.4998773879454473 0.5625996666779967 0  0.5623484466692996 0.5626223368640534 0  0.6248138145597482 0.562649181129562 0  0.6872725119451684 0.5626809368645055 0  0.7497236562536653 0.5627183772833547 0  0.8121666736519145 0.5627622693440072 0  0.8746016091295294 0.5628132946240787 0  0.9370294839349036 0.5628718937282159 0  0.9994525393213908 0.5629379518218779 0  0 0.625 0  0.06249000583543805 0.6250081576627471 0  0.1249795934487647 0.6250166180422616 0  0.1874683244631999 0.6250256937617815 0  0.2499557185787018 0.6250357173154671 0  0.312441229986791 0.6250470512592694 0  0.3749242209444564 0.6250600986548983 0  0.4374039324465653 0.6250753137973895 0  0.4998794535576665 0.6250932132938045 0  0.5623496944617211 0.6251143877643421 0  0.6248133752301122 0.6251395149819151 0  0.6872690548098578 0.6251693763421111 0  0.7497152441730099 0.6252048800179048 0  0.8121506697616211 0.6252470941832325 0  0.8745747563379961 0.6252972845692075 0  0.9369883228641255 0.6253569073523179 0  0.9993942391441756 0.6254273652174852 0  0 0.6875 0  0.06249086042024391 0.6875073152704249 0  0.1249813198633436 0.6875149001606455 0  0.1874709548372459 0.6875230331729757 0  0.2499592941421974 0.6875320107182826 0  0.3124457901191997 0.6875421566223274 0  0.3749297836848597 0.6875538323925591 0  0.4374104608241169 0.6875674487401368 0  0.4998867987605665 0.6875834792381257 0  0.5623575024079235 0.6876024777972911 0  0.6248209386092456 0.6876251032551143 0  0.6872750924900778 0.6876521575503789 0  0.7497176061350985 0.6876846500220537 0  0.8121460245655474 0.6877239112059118 0  0.8745584573154986 0.687771795085513 0  0.9369548648216901 0.6878310112124669 0  0.9993387660482129 0.6879055041792235 0  0 0.75 0  0.06249211548003668 0.7500062030130227 0  0.124983870149195 0.7500126336667442 0  0.1874748801757838 0.7500195272430944 0  0.2499647122033355 0.7500271345151378 0  0.3124528516840611 0.7500357302472969 0  0.3749386617095563 0.7500456227831191 0  0.4374213271190796 0.7500571654732433 0  0.4998997769362752 0.7500707712240774 0  0.5623725767778397 0.7500869324459492 0  0.624837784350085 0.7501062506074133 0  0.6872927731302925 0.7501294835257459 0  0.7497340717630896 0.7501576272205885 0  0.8121573841470894 0.7501920705650831 0  0.8745582195694028 0.750234918628547 0  0.9369339723809211 0.7502897416129455 0  0.9992882282228841 0.7503634253521201 0  0 0.8125 0  0.06249373078306544 0.8125048628636465 0  0.124987164405503 0.8125099037496073 0  0.1874799827172776 0.8125153067926202 0  0.249971821856684 0.8125212685775208 0  0.3124622415410414 0.8125280051512643 0  0.3749506829151674 0.8125357601702751 0  0.437436407232443 0.812544814943311 0  0.4999184029365326 0.8125555015809547 0  0.5623952409659094 0.8125682212020563 0  0.624864846538479 0.8125834703277649 0  0.6873241429052379 0.8126018804797471 0  0.7497685269705995 0.8126242793132895 0  0.8121912344412155 0.8126517896295823 0  0.8745830967390967 0.8126860135154319 0  0.9369346267483417 0.8127295078170325 0  0.9992452863642265 0.8127876611743261 0  0 0.875 0  0.06249564269503651 0.8750033444382226 0  0.124991073309399 0.8750068111662441 0  0.187486063628188 0.8750105267589005 0  0.2499803499714138 0.8750146265483894 0  0.3124736084433768 0.8750192596441407 0  0.374965419519691 0.8750245948685794 0  0.4374552137280625 0.875030828189051 0  0.4999421835490213 0.8750381925001016 0  0.5624251333645298 0.8750469709435649 0  0.6249022120877095 0.8750575151423617 0  0.6873704172867189 0.8750702689136332 0  0.7498246500607076 0.8750857928567078 0  0.8122559249940455 0.8751047619272465 0  0.8746483191958753 0.8751278065117641 0  0.9369761920072353 0.8751546041385574 0  0.9992180383775841 0.8751793177549173 0  0 0.9375 0  0.0624977662320059 0.9375017034717502 0  0.1249954219368189 0.9375034692056697 0  0.1874928477895246 0.9375053616764453 0  0.2499899050128807 0.9375074498895269 0  0.3124864214666431 0.9375098100044276 0  0.3749821712045694 0.9375125284650807 0  0.4374768
[...]
<PointData  Vectors="f_54"> 
<DataArray  type="Float64"  Name="f_54"  NumberOfComponents="3" format="ascii">0.0000000000000000e+00 0.0000000000000000e+00 0.0000000000000000e+00  0.0000000000000000e+00 0.0000000000000000e+00 0.0000000000000000e+00  0.0000000000000000e+00 0.0000000000000000e+00 0.0000000000000000e+00  0.0000000000000000e+00 0.0000000000000000e+00 0.0000000000000000e+00  0.0000000000000000e+00 0.0000000000000000e+00 0.0000000000000000e+00  0.0000000000000000e+00 0.0000000000000000e+00 0.0000000000000000e+00  0.0000000000000000e+00 0.0000000000000000e+00 0.0000000000000000e+00  0.0000000000000000e+00 0.0000000000000000e+00 0.0000000000000000e+00  0.0000000000000000e+00 0.0000000000000000e+00 0.0000000000000000e+00  0.0000000000000000e+00 0.0000000000000000e+00 0.0000000000000000e+00  0.0000000000000000e+00 0.0000000000000000e+00 0.0000000000000000e+00  0.0000000000000000e+00 0.0000000000000000e+00 0.0000000000000000e+00  0.0000000000000000e+00 0.0000000000000000e+00 0.0000000000000000e+00  0.0000000000000000e+00 0.0000000000000000e+00 0.0000000000000000e+00  0.0000000000000000e+00 0.0000000000000000e+00 0.0000000000000000e+00  0.0000000000000000e+00 0.0000000000000000e+00 0.0000000000000000e+00  0.0000000000000000e+00 0.0000000000000000e+00 0.0000000000000000e+00  0.0000000000000000e+00 0.0000000000000000e+00 0.0000000000000000e+00  -2.1380773159834503e-08 3.9144904319416323e-08 0.0000000000000000e+00  -4.3395892166833554e-08 7.9988962075053575e-08 0.0000000000000000e+00  -6.6680072049972808e-08 1.2433646629238567e-07 0.0000000000000000e+00  -9.1869099962103063e-08 1.7422184891509354e-07 0.0000000000000000e+00  -1.1959543237252484e-07 2.3206921081931266e-07 0.0000000000000000e+00  -1.5047776939077771e-07 3.0092226300574434e-07 0.0000000000000000e+00  -1.8510229794168483e-07 3.8480613967252980e-07 0.0000000000000000e+00  -2.2399296139770513e-07 4.8934322882339419e-07 0.0000000000000000e+00  -2.6756725118159109e-07 6.2288485378527419e-07 0.0000000000000000e+00  -3.1607153847203766e-07 7.9876618420734956e-07 0.0000000000000000e+00  -3.6948355160038173e-07 1.0402214341623648e-06 0.0000000000000000e+00  -4.2735750311926185e-07 1.3922350131340237e-06 0.0000000000000000e+00  -4.8859039960607481e-07 1.9534422127420657e-06 0.0000000000000000e+00  -5.5130077316290452e-07 2.9722558868082560e-06 0.0000000000000000e+00  -6.1469570573479325e-07 5.1689467775311112e-06 0.0000000000000000e+00  -6.9521555693668527e-07 1.0916801364782594e-05 0.0000000000000000e+00  0.0000000000000000e+00 0.0000000000000000e+00 0.0000000000000000e+00  -4.2127112249622767e-08 7.6590430660860477e-08 0.0000000000000000e+00  -8.5521207558903783e-08 1.5647145232545494e-07 0.0000000000000000e+00  -1.3145206344666411e-07 2.4312838934755568e-07 0.0000000000000000e+00  -1.8119548984027188e-07 3.4046997067296723e-07 0.0000000000000000e+00  -2.3602664509572077e-07 4.5311358335109816e-07 0.0000000000000000e+00  -2.9720150195269933e-07 5.8678349847049589e-07 0.0000000000000000e+00  -3.6592200454349361e-07 7.4891199705150230e-07 0.0000000000000000e+00  -4.4328017599534872e-07 9.4960849156655945e-07 0.0000000000000000e+00  -5.3017581599020350e-07 1.2033139456145669e-06 0.0000000000000000e+00  -6.2719983410312122e-07 1.5317696891534921e-06 0.0000000000000000e+00  -7.3446429979441177e-07 1.9695603488742700e-06 0.0000000000000000e+00  -8.5131547914062127e-07 2.5746587207743002e-06 0.0000000000000000e+00  -9.7567714427071737e-07 3.4478401687924517e-06 0.0000000000000000e+00  -1.1019199698269662e-06 4.7619030421965979e-06 0.0000000000000000e+00  -1.2120638439963056e-06 6.7626896889206311e-06 0.0000000000000000e+00  -1.2345363280071700e-06 9.4477883952448890e-06 0.0000000000000000e+00  0.0000000000000000e+00 0.0000000000000000e+00 0.0000000000000000e+00  -6.1607431765366562e-08 1.1074690917358463e-07 0.0000000000000000e+00  -1.2510931779190370e-07 2.2617671194577191e-07 0.0000000000000000e+00  -1.9240936465759049e-07 3.5123064620601410e-07 0.0000000000000000e+00  -2.6542993472575846e-07 4.9140586987737121e-07 0.0000000000000000e+00  -3.4610726714275423e-07 6.5311394261456466e-07 0.0000000000000000e+00  -4.3636931164131900e-07 8.4415721316278979e-07 0.0000000000000000e+00  -5.3808958254719799e-07 1.0744038149726881e-06 0.0000000000000000e+00  -6.5301055259855127e-07 1.3567921096996136e-06 0.0000000000000000e+00  -7.8263137955880006e-07 1.7088773680499702e-06 0.0000000000000000e+00  -9.2805848659811921e-07 2.1552516990547803e-06 0.0000000000000000e+00  -1.0898275947186336e-06 2.7312796743824504e-06 0.0000000000000000e+00  -1.2677391060830939e-06 3.4884526700296675e-06 0.0000000000000000e+00  -1.4608886465964100e-06 4.5003527349783391e-06 0.0000000000000000e+00  -1.6687483234454549e-06 5.8630353235129546e-06 0.0000000000000000e+00  -1.8975907526845294e-06 7.6700269010724572e-06 0.0000000000000000e+00  -2.1945677438020226e-06 9.9356744739227836e-06 0.0000000000000000e+00  0.0000000000000000e+00 0.0000000000000000e+00 0.0000000000000000e+00  -7.9195010029655244e-08 1.4022311789830777e-07 0.0000000000000000e+00  -1.6089958227211120e-07 2.8625752559556511e-07 0.0000000000000000e+00  -2.4764480844782916e-07 4.4420750056777658e-07 0.0000000000000000e+00  -3.4200423525689157e-07 6.2079953178019923e-07 0.0000000000000000e+00  -4.4659720955827563e-07 8.2376208449826327e-07 0.0000000000000000e+00  -5.6406969513599537e-07 1.0622992732627392e-06 0.0000000000000000e+00  -6.9704335451655816e-07 1.3477086055534007e-06 0.0000000000000000e+00  -8.4802353146645436e-07 1.6942074827172517e-06 0.0000000000000000e+00  -1.0192586495436621e-06 2.1200403244706295e-06 0.0000000000000000e+00  -1.2125496965855279e-06 2.6489058612304329e-06 0.0000000000000000e+00  -1.4290226689775466e-06 3.3115807444796030e-06 0.0000000000000000e+00  -1.6689046193674602e-06 4.1470924720495026e-06 0.0000000000000000e+00  -1.9313841941606452e-06 5.2014343458967752e-06 0.0000000000000000e+00  -2.2146017217757811e-06 6.5189597240112255e-06 0.0000000000000000e+00  -2.5149443457131667e-06 8.1176583369200504e-06 0.0000000000000000e+00  -2.8179315702479440e-06 9.9404012923461643e-06 0.0000000000000000e+00  0.0000000000000000e+00 0.0000000000000000e+00 0.0000000000000000e+00  -9.4275079621650514e-08 1.6389090400220114e-07 0.0000000000000000e+00  -1.9164984580367616e-07 3.3442262541896536e-07 0.0000000000000000e+00  -2.9526506183696188e-07 5.1853826816402518e-07 0.0000000000000000e+00  -4.0834196791370985e-07 7.2381327935526823e-07 0.0000000000000000e+00  -5.3420206910016376e-07 9.5881850737040109e-07 0.0000000000000000e+00  -6.7626016664613708e-07 1.2335408615645701e-06 0.0000000000000000e+00  -8.3797808536654068e-07 1.5598789276582829e-06 0.0000000000000000e+00  -1.0227648242958397e-06 1.9522194136601725e-06 0.0000000000000000e+00  -1.2338091043468991e-06 2.4280649250112603e-06 0.0000000000000000e+00  -1.4738350736948819e-06 3.0085924678837795e-06 0.0000000000000000e+00  -1.7447846842069464e-06 3.7188131058341084e-06 0.0000000000000000e+00  -2.0474534485598062e-06 4.5865749609946124e-06 0.0000000000000000e+00  -2.3811352972783926e-06 5.6389029679001993e-06 0.0000000000000000e+00  -2.7433454722895081e-06 6.8932186609744528e-06 0.0000000000000000e+00  -3.1297064168374313e-06 8.3408006810077911e-06 0.0000000000000000e+00  -3.5349922692814723e-06 9.9230316047280540e-06 0.0000000000000000e+00  0.0000000000000000e+00 0.0000000000000000e+00 0.0000000000000000e+00  -1.0625738923358869e-07 1.8092014002489177e-07 0.0000000000000000e+00  -2.1616016622926418e-07 3.6900300972834123e-07 0.0000000000000000e+00  -3.3342247210178318e-07 5.7170493718287873e-07 0.0000000000000000e+00  -4.6189330248098335e-07 7.9708667751549558e-07 0.0000000000000000e+00  -6.0560315396613073e-07 1.0541399964874491e-06 0.0000000000000000e+00  -7.6878184293687079e-07 1.3531378648640292e-06 0.0000000000000000e+00  -9.5583120513572563e-07 1.7060019654917220e-06 0.0000000000000000e+00  -1.1712315326062837e-06 2.1266585185303913e-06 0.0000000000000000e+00  -1.4193566415794293e-06 2.6313074116131892e-06 0.0000000000000000e+00  -1.7041724307227718e-06 3.2384420838240259e-06 0.0000000000000000e+00  -2.0288025451417575e-06 3.9683047767219238e-06 0.0000000000000000e+00  -2.3949679000143737e-06 4.8412300480592543e-06 0.0000000000000000e+00  -2.8023460841925515e-06 5.8740722367218024e-06 0.0000000000000000e+00  -3.2479403083397300e-06 7.0738944576087480e-06 0.0000000000000000e+00  -3.7255569556070065e-06 8.4290563931232069e-06 0.0000000000000000e+00  -4.2253271440057956e-06 9.9012728982836223e-06 0.0000000000000000e+00  0.0000000000000000e+00 0.0000000000000000e+00 0.0000000000000000e+00  -1.1459564316079840e-07 1.9078759483668169e-07 0.0000000000000000e+00  -2.3331083020906976e-07 3.8896221410856717e-07 0.0000000000000000e+00  -3.6036952432168221e-07 6.0218572783904482e-07 0.0000000000000000e+00  -5.0020166931398464e-07 8.3867704205481040e-07 0.0000000000000000e+00  -6.5752878690013660e-07 1.1074978834521744e-06 0.0000000000000000e+00  -8.3742289960451542e-07 1.4188387583467754e-06 0.0000000000000000e+00  -1.0453193993485171e-06 1.7842872992163750e-06 0.0000000000000000e+00  -1.2869549671308155e-06 2.2170385195381948e-06 0.0000000000000000e+00  -1.5681904258369511e-06 2.7319681093411096e-06 0.0000000000000000e+00  -1.8946686584914443e-06 3.3454298270577122e-06 0.0000000000000000e+00  -2.2712568231039741e-06 4.0745550435830818e-06 0.0000000000000000e+00  -2.7012433353006305e-06 4.9357437605120267e-06 0.0000000000000000e+00  -3.1853213234099849e-06 5.9420051684436082e-06 0.0000000000000000e+00  -3.7205031930916928e-06 7.0989782233163512e-06 0.0000000000000000e+00  -4.2992533541217903e-06 8.4000637019516481e-06 0.0000000000000000e+00  -4.9092054535572906e-06 9.8222063233144008e-06 0.0000000000000000e+00  0.0000000000000000e+00 0.0000000000000000e+00 0.0000000000000000e+00  -1.1881468639164720e-07 1.9326715745354119e-07 0.0000000000000000e+00  -2.4211679735222417e-07 3.9386861113335190e-07 0.0000000000000000e+00  -3.7454014881454730e-07 6.0939089207921657e-07 0.0000000000000000e+00  -5.2100985651138771e-07 8.4792471411369240e-07 0.0000000000000000e+00  -6.8687937301663114e-07 1.1183150764380890e-06 0.0000000000000000e+00  -8.7804991782192617e-07 1.4304007231963442e-06 0.0000000000000000e+00  -1.1010524623148776e-06 1.7952237915376332e-06 0.0000000000000000e+00  -1.3630573417713470e-06 2.2251734417803300e-06 0.0000000000000000e+00  -1.6717548885396094e-06 2.7340025544920369e-06 0.0000000000000000e+00  -2.0350236049669750e-06 3.3366252631885811e-06 0.0000000000000000e+00  -2.4602784733193993e-06 4.0485727440777440e-06 0.0000000000000000e+00  -2.9533934008175454e-06 4.8849754768755333e-06 0.0000000000000000e+00  -3.5171632847453727e-06 5.8589878863429438e-06 0.0000000000000000e+00  -4.1494758974651439e-06 6.9797078302650833e-06 0.0000000000000000e+00  -4.8417325094746220e-06 8.2498071635385885e-06 0.0000000000000000e+00  -5.5784410426900568e-06 9.6628815240893236e-06 0.0000000000000000e+00  0.0000000000000000e+00 0.0000000000000000e+00 0.0000000000000000e+00  -1.1854535934352190e-07 1.8840952081090729e-07 0.0000000000000000e+00  -2.4179896780309382e-07 3.8384827693474589e-07 0.0000000000000000e+00  -3.7465995315511829e-07 5.9357474573930899e-07 0.0000000000000000e+00  -5.2241135919477892e-07 8.2530079470946557e-07 0.0000000000000000e+00  -6.9091892882381268e-07 1.0874145201864098e-06 0.0000000000000000e+00  -8.8683089855263943e-07 1.3891923303757122e-06 0.0000000000000000e+00  -1.1177640793689287e-06 1.7409860893858120e-06 0.0000000000000000e+00  -1.3924418643772730e-06 2.1543611139883536e-06 0.0000000000000000e+00  -1.7207162709980683e-06 2.6421487624027139e-06 0.0000000000000000e+00  -2.1133539358980242e-06 3.2183672565664963e-06 0.0000000000000000e+00  -2.5813965941687833e-06 3.8979664767336099e-06 0.0000000000000000e+00  -3.1348432709166375e-06 4.6963867847702053e-06 0.0000000000000000e+00  -3.7804199971878379e-06 5.6290160451260464e-06 0.0000000000000000e+00  -4.5184688649582362e-06 6.7107906164068164e-06 0.0000000000000000e+00  -5.3397317013165290e-06 7.9563118197426829e-06 0.0000000000000000e+00  -6.2240215488435269e-06 9.3805823715702829e-06 0.0000000000000000e+00  0.0000000000000000e+00 0.0000000000000000e+00 0.0000000000000000e+00  -1.1356545375951764e-07 1.7651778533984426e-07 0.0000000000000000e+00  -2.3186971285921676e-07 3.5953240753338177e-07 0.0000000000000000e+00  -3.5988321992569763e-07 5.5574737079298073e-07 0.0000000000000000e+00  -5.0304791674347052e-07 7.7227230220288949e-07 0.0000000000000000e+00  -6.6754177110028200e-07 1.0168255880814166e-06 0.0000000000000000e+00  -8.6057367143043489e-07 1.2979332120505362e-06 0.0000000000000000e+00  -1.0907080096922761e-06 1.6251175778105127e-06 0.0000000000000000e+00  -1.3681990822457261e-06 2.0090661783680099e-06 0.0000000000000000e+00  -1.7052748089627394e-06 2.4617666260682240e-06 0.0000000000000000e+00  -2.1162302769412288e-06 2.9965954551558803e-06 0.0000000000000000e+00  -2.6170533932334140e-06 3.6283625714634106e-06 0.0000000000000000e+00  -3.2241009703213614e-06 4.3733632575062194e-06 0.0000000000000000e+00  -3.9511436407720859e-06 5.2496219800919372e-06 0.0000000000000000e+00  -4.8041955245854784e-06 6.2778017057317187e-06 0.0000000000000000e+00  -5.7746662682378714e-06 7.4836970484655237e-06 0.0000000000000000e+00  -6.8345046182381806e-06 8.9030975026617546e-06 0.0000000000000000e+00  0.0000000000000000e+00 0.0000000000000000e+00 0.0000000000000000e+00  -1.0384313086541090e-07 1.5812273604765718e-07 0.0000000000000000e+00  -2.1222575715510015e-07 3.2200678229124236e-07 0.0000000000000000e+00  -3.2994758185508953e-07 4.9759679803904985e-07 0.0000000000000000e+00  -4.6234461584164598e-07 6.9119696358132903e-07 0.0000000000000000e+00  -6.1561179724246106e-07 9.0965636305312034e-07 0.0000000000000000e+00  -7.9719365830606682e-07 1.1605607273310805e-06 0.0000000000000000e+00  -1.0162673087659237e-06 1.4524330188148887e-06 0.0000000000000000e+00  -1.2843338319865627e-06 1.7949462505353602e-06 0.0000000000000000e+00  -1.6159034109707992e-06 2.1991536449833252e-06 0.0000000000000000e+00  -2.0291745682413723e-06 2.6777438236103402e-06 0.0000000000000000e+00  -2.5464072727723069e-06 3.2453334795251537e-06 0.0000000000000000e+00  -3.1932750175762703e-06 3.9188287407749277e-06 0.0000000000000000e+00  -3.9957687798290524e-06 4.7179816319624712e-06 0.0000000000000000e+00  -4.9724284127380174e-06 5.6666868338199697e-06 0.0000000000000000e+00  -6.1201921628711467e-06 6.7970605903260434e-06 0.0000000000000000e+00  -7.3982200871046783e-06 8.1623390457916326e-06 0.0000000000000000e+00  0.0000000000000000e+00 0.0000000000000000e+00 0.0000000000000000e+00  -8.9576726104865545e-08 1.3395885249539493e-07 0.0000000000000000e+00  -1.8323605328847734e-07 2.7276471635204195e-07 0.0000000000000000e+00  -2.8532771094591672e-07 4.2142176247333287e-07 0.0000000000000000e+00  -4.0075878711433282e-07 5.8524274759047967e-07 0.0000000000000000e+00  -5.3535004089623987e-07 7.7001490839803414e-07 0.0000000000000000e+00  -6.9629802899113247e-07 9.8218203559646752e-07 0.0000000000000000e+00  -8.9280037090584236e-07 1.2290533280185520e-06 0.0000000000000000e+00  -1.1369188735948872e-06 1.5190551702411573e-06 0.0000000000000000e+00  -1.4447659220069738e-06 1.8620487093583050e-06 0.0000000000000000e+00  -1.8380703191430567e-06 2.2697391090006128e-06 0.0000000000000000e+00  -2.3460141039846911e-06 2.7561855715146232e-06 0.0000000000000000e+00  -3.0066897375823033e-06 3.3383459328316500e-06 0.0000000000000000e+00  -3.8660889388098207e-06 4.0363995201499883e-06 0.0000000000000000e+00  -4.9694435574926476e-06 4.8733838277287961e-06 0.0000000000000000e+00  -6.3354153098455285e-06 5.8748059105960212e-06 0.0000000000000000e+00  -7.9065204531419500e-06 7.0793541371983644e-06 0.0000000000000000e+00  0.0000000000000000e+00 0.0000000000000000e+00 0.0000000000000000e+00  -7.1222638408219944e-08 1.0494009447133178e-07 0.0000000000000000e+00  -1.4580686490130919e-07 2.1366061978014328e-07 0.0000000000000000e+00  -2.2735858773461942e-07 3.3006803774666777e-07 0.0000000000000000e+00  -3.1999920473498439e-07 4.5831716407892322e-07 0.0000000000000000e+00  -4.2871253290062351e-07 6.0295045116622654e-07 0.0000000000000000e+00  -5.5982096378737297e-07 7.6905966813853138e-07 0.0000000000000000e+00  -7.2167815679464361e-07 9.6248671713692847e-07 0.0000000000000000e+00  -9.2571835857108442e-07 1.1900912937361560e-06 0.0000000000000000e+00  -1.1880878973218504e-06 1.4601298059768753e-06 0.0000000000000000e+00  -1.5322067207107737e-06 1.7828095404292835e-06 0.0000000000000000e+00  -1.9927218887236666e-06 2.1710826269127950e-06 0.0000000000000000e+00  -2.6211645065564657e-06 2.6416314743874116e-06 0.0000000000000000e+00  -3.4922119392068408e-06 3.2154238625622132e-06 0.0000000000000000e+00  -4.7036398982399050e-06 3.9150224168774827e-06 0.0000000000000000e+00  -6.3454499872832186e-06 4.7485630841473186e-06 0.0000000000000000e+00  -8.3829496349527122e-06 5.6499358660825131e-06 0.0000000000000000e+00  0.0000000000000000e+00 0.0000000000000000e+00 0.0000000000000000e+00  -4.9501961902697960e-08 7.2133458515921914e-08 0.0000000000000000e+00  -1.0140302385086707e-07 1.4685914360261203e-07 0.0000000000000000e+00  -1.5829055860430240e-07 2.2685814068541698e-07 0.0000000000000000e+00  -2.2315280389962246e-07 3.1498738869378043e-07 0.0000000000000000e+00  -2.9965967208063674e-07 4.1438194992543110e-07 0.0000000000000000e+00  -3.9256542571323330e-07 5.2857939278895084e-07 0.0000000000000000e+00  -5.0832838795180565e-07 6.6168461555373428e-07 0.0000000000000000e+00  -6.5612038485738845e-07 8.1860860579900074e-07 0.0000000000000000e+00  -8.4955471082320784e-07 1.0054441952452006e-06 0.0000000000000000e+00  -1.1097807448822917e-06 1.2301000370588659e-06 0.0000000000000000e+00  -1.4712438713065446e-06 1.5034270727173279e-06 0.0000000000000000e+00  -1.9926508458314618e-06 1.8412711141872600e-06 0.0000000000000000e+00  -2.7774572307990364e-06 2.2680953815219205e-06 0.0000000000000000e+00  -4.0069796628214738e-06 2.8221028690593416e-06 0.0000000000000000e+00  -5.9593909431402948e-06 3.5541050500305528e-06 0.0000000000000000e+00  -8.7775580319730617e-06 4.4633097441597206e-06 0.0000000000000000e+00  0.0000000000000000e+00 0.0000000000000000e+00 0.0000000000000000e+00  -2.5377837976347877e-08 3.6728264766388424e-08 0.0000000000000000e+00  -5.2006153618965576e-08 7.4774931897552620e-08 0.0000000000000000e+00  -8.1238278709122992e-08 1.1550452639272524e-07 0.0000000000000000e+00  -1.1464786501283669e-07 1.6037316412884696e-07 0.0000000000000000e+00  -1.5418727742659393e-07 2.1098315659364065e-07 0.0000000000000000e+00  -2.0242132263415960e-07 2.6915156492229141e-07 0.0000000000000000e+00  -2.6290071349285835e-07 3.3700519847644785e-07 0.0000000000000000e+00  -3.4080171162934452e-07 4.1712682449538605e-07 0.0000000000000000e+00  -4.4410008043880493e-07 5.1280547058238240e-07 0.0000000000000000e+00  -5.8589515080013841e-07 6.2851404120496768e-07 0.0000000000000000e+00  -7.8942626199079221e-07 7.7093167011609572e-07 0.0000000000000000e+00  -1.1000189133792170e-06 9.5141845854507877e-07 0.0000000000000000e+00  -1.6167502278194515e-06 1.1928030851544672e-06 0.0000000000000000e+00  -2.5860015489750611e-06 1.5502700322763120e-06 0.0000000000000000e+00  -4.7064996651265388e-06 2.1819566665653659e-06 0.0000000000000000e+00  -1.0198952329005390e-05 3.6026201928315043e-06 0.0000000000000000e+00  0.0000000000000000e+00 0.0000000000000000e+00 0.0000000000000000e+00  0.0000000000000000e+00 0.0000000000000000e+00 0.0000000000000000e+00  0.0000000000000000e+00 0.0000000000000000e+00 0.0000000000000000e+00  0.0000000000000000e+00 0.0000000000000000e+00 0.0000000000000000e+00  0.0000000000000000e+00 0.0000000000000000e+00 0.0000000000000000e+00  0.0000000000000000e+00 0.0000000000000000e+00 0.0000000000000000e+00  0.0000000000000000e+00 0.0000000000000000e+00 0.0000000000000000e+00  0.0000000000000000e+00 0.0000000000000000e+00 0.0000000000000000e+00  0.0000000000000000e+00 0.0000000000000000e+00 0.0000