<?xml version="1.0"?>
<VTKFile type="UnstructuredGrid"  version="0.1"  >
<UnstructuredGrid>
<Piece  NumberOfPoints="1369" NumberOfCells="2560">
<Points>
<DataArray  type="Float64"  NumberOfComponents="3"  format="ascii">0 0 0  0.75 0 0  1.5 0 0  2.25 0 0  3 0 0  3.75 0 0  4.5 0 0  5.25 0 0  6 0 0  6.75 0 0  7.5 0 0  8.25 0 0  9 0 0  9.75 0 0  10.5 0 0  11.25 0 0  12 0 0  12.75 0 0  13.5 0 0  14.25 0 0  15 0 0  15.75 0 0  16.5 0 0  17.25 0 0  18 0 0  18.75 0 0  19.5 0 0  20.25 0 0  21 0 0  21.75 0 0  22.5 0 0  23.25 0 0  24 0 0  24.75 0 0  25.5 0 0  26.25 0 0  27 0 0  27.75 0 0  28.5 0 0  29.25 0 0  30 0 0  30.75 0 0  31.5 0 0  32.25 0 0  33 0 0  33.75 0 0  34.5 0 0  35.25 0 0  36 0 0  36.75 0 0  37.5 0 0  38.25 0 0  39 0 0  39.75 0 0  40.5 0 0  41.25 0 0  42 0 0  42.75 0 0  43.5 0 0  44.25 0 0  45 0 0  45.75 0 0  46.5 0 0  47.25 0 0  48 0 0  48.75 0 0  49.5 0 0  50.25 0 0  51 0 0  51.75 0 0  52.5 0 0  53.25 0 0  54 0 0  54.75 0 0  55.5 0 0  56.25 0 0  57 0 0  57.75 0 0  58.5 0 0  59.25 0 0  60 0 0  0 0.5 0  0.75 0.5 0  1.5 0.5 0  2.25 0.5 0  3 0.5 0  3.75 0.5 0  4.5 0.5 0  5.25 0.5 0  6 0.5 0  6.75 0.5 0  7.5 0.5 0  8.25 0.5 0  9 0.5 0  9.75 0.5 0  10.5 0.5 0  11.25 0.5 0  12 0.5 0  12.75 0.5 0  13.5 0.5 0  14.25 0.5 0  15 0.5 0  15.75 0.5 0  16.5 0.5 0  17.25 0.5 0  18 0.5 0  18.75 0.5 0  19.5 0.5 0  20.25 0.5 0  21 0.5 0  21.75 0.5 0  22.5 0.5 0  23.25 0.5 0  24 0.5 0  24.75 0.5 0  25.5 0.5 0  26.25 0.5 0  27 0.5 0  27.75 0.5 0  28.5 0.5 0  29.25 0.5 0  30 0.5 0  30.75 0.5 0  31.5 0.5 0  32.25 0.5 0  33 0.5 0  33.75 0.5 0  34.5 0.5 0  35.25 0.5 0  36 0.5 0  36.75 0.5 0  37.5 0.5 0  38.25 0.5 0  39 0.5 0  39.75 0.5 0  40.5 0.5 0  41.25 0.5 0  42 0.5 0  42.75 0.5 0  43.5 0.5 0  44.25 0.5 0  45 0.5 0  45.75 0.5 0  46.5 0.5 0  47.25 0.5 0  48 0.5 0  48.75 0.5 0  49.5 0.5 0  50.25 0.5 0  51 0.5 0  51.75 0.5 0  52.5 0.5 0  53.25 0.5 0  54 0.5 0  54.75 0.5 0  55.5 0.5 0  56.25 0.5 0  57 0.5 0  57.75 0.5 0  58.5 0.5 0  59.25 0.5 0  60 0.5 0  0 1 0  0.75 1 0  1.5 1 0  2.25 1 0  3 1 0  3.75 1 0  4.5 1 0  5.25 1 0  6 1 0  6.75 1 0  7.5 1 0  8.25 1 0  9 1 0  9.75 1 0  10.5 1 0  11.25 1 0  12 1 0  12.75 1 0  13.5 1 0  14.25 1 0  15 1 0  15.75 1 0  16.5 1 0  17.25 1 0  18 1 0  18.75 1 0  19.5 1 0  20.25 1 0  21 1 0  21.75 1 0  22.5 1 0  23.25 1 0  24 1 0  24.75 1 0  25.5 1 0  26.25 1 0  27 1 0  27.75 1 0  28.5 1 0  29.25 1 0  30 1 0  30.75 1 0  31.5 1 0  32.25 1 0  33 1 0  33.75 1 0  34.5 1 0  35.25 1 0  36 1 0  36.75 1 0  37.5 1 0  38.25 1 0  39 1 0  39.75 1 0  40.5 1 0  41.25 1 0  42 1 0  42.75 1 0  43.5 1 0  44.25 1 0  45 1 0  45.75 1 0  46.5 1 0  47.25 1 0  48 1 0  48.75 1 0  49.5 1 0  50.25 1 0  51 1 0  51.75 1 0  52.5 1 0  53.25 1 0  54 1 0  54.75 1 0  55.5 1 0  56.25 1 0  57 1 0  57.75 1 0  58.5 1 0  59.25 1 0  60 1 0  0 1.5 0  0.75 1.5 0  1.5 1.5 0  2.25 1.5 0  3 1.5 0  3.75 1.5 0  4.5 1.5 0  5.25 1.5 0  6 1.5 0  6.75 1.5 0  7.5 1.5 0  8.25 1.5 0  9 1.5 0  9.75 1.5 0  10.5 1.5 0  11.25 1.5 0  12 1.5 0  12.75 1.5 0  13.5 1.5 0  14.25 1.5 0  15 1.5 0  15.75 1.5 0  16.5 1.5 0  17.25 1.5 0  18 1.5 0  18.75 1.5 0  19.5 1.5 0  20.25 1.5 0  21 1.5 0  21.75 1.5 0  22.5 1.5 0  23.25 1.5 0  24 1.5 0  24.75 1.5 0  25.5 1.5 0  26.25 1.5 0  27 1.5 0  27.75 1.5 0  28.5 1.5 0  29.25 1.5 0  30 1.5 0  30.75 1.5 0  31.5 1.5 0  32.25 1.5 0  33 1.5 0  33.75 1.5 0  34.5 1.5 0  35.25 1.5 0  36 1.5 0  36.75 1.5 0  37.5 1.5 0  38.25 1.5 0  39 1.5 0  39.75 1.5 0  40.5 1.5 0  41.25 1.5 0  42 1.5 0  42.75 1.5 0  43.5 1.5 0  44.25 1.5 0  45 1.5 0  45.75 1.5 0  46.5 1.5 0  47.25 1.5 0  48 1.5 0  48.75 1.5 0  49.5 1.5 0  50.25 1.5 0  51 1.5 0  51.75 1.5 0  52.5 1.5 0  53.25 1.5 0  54 1.5 0  54.75 1.5 0  55.5 1.5 0  56.25 1.5 0  57 1.5 0  57.75 1.5 0  58.5 1.5 0  59.25 1.5 0  60 1.5 0  0 2 0  0.75 2 0  1.5 2 0  2.25 2 0  3 2 0  3.75 2 0  4.5 2 0  5.25 2 0  6 2 0  6.75 2 0  7.5 2 0  8.25 2 0  9 2 0  9.75 2 0  10.5 2 0  11.25 2 0  12 2 0  12.75 2 0  13.5 2 0  14.25 2 0  15 2 0  15.75 2 0  16.5 2 0  17.25 2 0  18 2 0  18.75 2 0  19.5 2 0  20.25 2 0  21 2 0  21.75 2 0  22.5 2 0  23.25 2 0  24 2 0  24.75 2 0  25.5 2 0  26.25 2 0  27 2 0  27.75 2 0  28.5 2 0  29.25 2 0  30 2 0  30.75 2 0  31.5 2 0  32.25 2 0  33 2 0  33.75 2 0  34.5 2 0  35.25 2 0  36 2 0  36.75 2 0  37.5 2 0  38.25 2 0  39 2 0  39.75 2 0  40.5 2 0  41.25 2 0  42 2 0  42.75 2 0  43.5 2 0  44.25 2 0  45 2 0  45.75 2 0  46.5 2 0  47.25 2 0  48 2 0  48.75 2 0  49.5 2 0  50.25 2 0  51 2 0  51.75 2 0  52.5 2 0  53.25 2 0  54 2 0  54.75 2 0  55.5 2 0  56.25 2 0  57 2 0  57.75 2 0  58.5 2 0  59.25 2 0  60 2 0  0 2.5 0  0.75 2.5 0  1.5 2.5 0  2.25 2.5 0  3 2.5 0  3.75 2.5 0  4.5 2.5 0  5.25 2.5 0  6 2.5 0  6.75 2.5 0  7.5 2.5 0  8.25 2.5 0  9 2.5 0  9.75 2.5 0  10.5 2.5 0  11.25 2.5 0  12 2.5 0  12.75 2.5 0  13.5 2.5 0  14.25 2.5 0  15 2.5 0  15.75 2.5 0  16.5 2.5 0  17.25 2.5 0  18 2.5 0  18.75 2.5 0  19.5 2.5 0  20.25 2.5 0  21 2.5 0  21.75 2.5 0  22.5 2.5 0  23.25 2.5 0  24 2.5 0  24.75 2.5 0  25.5 2.5 0  26.25 2.5 0  27 2.5 0  27.75 2.5 0  28.5 2.5 0  29.25 2.5 0  30 2.5 0  30.75 2.5 0  31.5 2.5 0  32.25 2.5 0  33 2.5 0  33.75 2.5 0  34.5 2.5 0  35.25 2.5 0  36 2.5 0  36.75 2.5 0  37.5 2.5 0  38.25 2.5 0  39 2.5 0  39.75 2.5 0  40.5 2.5 0  41.25 2.5 0  42 2.5 0  42.75 2.5 0  43.5 2.5 0  44.25 2.5 0  45 2.5 0  45.75 2.5 0  46.5 2.5 0  47.25 2.5 0  48 2.5 0  48.75 2.5 0  49.5 2.5 0  50.25 2.5 0  51 2.5 0  51.75 2.5 0  52.5 2.5 0  53.25 2.5 0  54 2.5 0  54.75 2.5 0  55.5 2.5 0  56.25 2.5 0  57 2.5 0  57.75 2.5 0  58.5 2.5 0  59.25 2.5 0  60 2.5 0  0 3 0  0.75 3 0  1.5 3 0  2.25 3 0  3 3 0  3.75 3 0  4.5 3 0  5.25 3 0  6 3 0  6.75 3 0  7.5 3 0  8.25 3 0  9 3 0  9.75 3 0  10.5 3 0  11.25 3 0  12 3 0  12.75 3 0  13.5 3 0  14.25 3 0  15 3 0  15.75 3 0  16.5 3 0  17.25 3 0  18 3 0  18.75 3 0  19.5 3 0  20.25 3 0  21 3 0  21.75 3 0  22.5 3 0  23.25 3 0  24 3 0  24.75 3 0  25.5 3 0  26.25 3 0  27 3 0  27.75 3 0  28.5 3 0  29.25 3 0  30 3 0  30.75 3 0  31.5 3 0  32.25 3 0  33 3 0  33.75 3 0  34.5 3 0  35.25 3 0  36 3 0  36.75 3 0  37.5 3 0  38.25 3 0  39 3 0  39.75 3 0  40.5 3 0  41.25 3 0  42 3 0  42.75 3 0  43.5 3 0  44.25 3 0  45 3 0  45.75 3 0  46.5 3 0  47.25 3 0  48 3 0  48.75 3 0  49.5 3 0  50.25 3 0  51 3 0  51.75 3 0  52.5 3 0  53.25 3 0  54 3 0  54.75 3 0  55.5 3 0  56.25 3 0  57 3 0  57.75 3 0  58.5 3 0  59.25 3 0  60 3 0  0 3.5 0  0.75 3.5 0  1.5 3.5 0  2.25 3.5 0  3 3.5 0  3.75 3.5 0  4.5 3.5 0  5.25 3.5 0  6 3.5 0  6.75 3.5 0  7.5 3.5 0  8.25 3.5 0  9 3.5 0  9.75 3.5 0  10.5 3.5 0  11.25 3.5 0  12 3.5 0  12.75 3.5 0  13.5 3.5 0  14.25 3.5 0  15 3.5 0  15.75 3.5 0  16.5 3.5 0  17.25 3.5 0  18 3.5 0  18.75 3.5 0  19.5 3.5 0  20.25 3.5 0  21 3.5 0  21.75 3.5 0  22.5 3.5 0  23.25 3.5 0  24 3.5 0  24.75 3.5 0  25.5 3.5 0  26.25 3.5 0  27 3.5 0  27.75 3.5 0  28.5 3.5 0  29.25 3.5 0  30 3.5 0  30.75 3.5 0  31.5 3.5 0  32.25 3.5 0  33 3.5 0  33.75 3.5 0  34.5 3.5 0  35.25 3.5 0  36 3.5 0  36.75 3.5 0  37.5 3.5 0  38.25 3.5 0  39 3.5 0  39.75 3.5 0  40.5 3.5 0  41.25 3.5 0  42 3.5 0  42.75 3.5 0  43.5 3.5 0  44.25 3.5 0  45 3.5 0  45.75 3.5 0  46.5 3.5 0  47.25 3.5 0  48 3.5 0  48.75 3.5 0  49.5 3.5 0  50.25 3.5 0  51 3.5 0  51.75 3.5 0  52.5 3.5 0  53.25 3.5 0  54 3.5 0  54.75 3.5 0  55.5 3.5 0  56.25 3.5 0  57 3.5 0  57.75 3.5 0  58.5 3.5 0  59.25 3.5 0  60 3.5 0  0 4 0  0.75 4 0  1.5 4 0  2.25 4 0  3 4 0  3.75 4 0  4.5 4 0  5.25 4 0  6 4 0  6.75 4 0  7.5 4 0  8.25 4 0  9 4 0  9.75 4 0  10.5 4 0  11.25 4 0  12 4 0  12.75 4 0  13.5 4 0  14.25 4 0  15 4 0  15.75 4 0  16.5 4 0  17.25 4 0  18 4 0  18.75 4 0  19.5 4 0  20.25 4 0  21 4 0  21.75 4 0  22.5 4 0  23.25 4 0  24 4 0  24.75 4 0  25.5 4 0  26.25 4 0  27 4 0  27.75 4 0  28.5 4 0  29.25 4 0  30 4 0  30.75 4 0  31.5 4 0  32.25 4 0  33 4 0  33.75 4 0  34.5 4 0  35.25 4 0  36 4 0  36.75 4 0  37.5 4 0  38.25 4 0  39 4 0  39.75 4 0  40.5 4 0  41.25 4 0  42 4 0  42.75 4 0  43.5 4 0  44.25 4 0  45 4 0  45.75 4 0  46.5 4 0  47.25 4 0  48 4 0  48.75 4 0  49.5 4 0  50.25 4 0  51 4 0  51.75 4 0  52.5 4 0  53.25 4 0  54 4 0  54.75 4 0  55.5 4 0  56.25 4 0  57 4 0  57.75 4 0  58.5 4 0  59.25 4 0  60 4 0  0.375 0.25 0  1.125 0.25 0  1.875 0.25 0  2.625 0.25 0  3.375 0.25 0  4.125 0.25 0  4.875 0.25 0  5.625 0.25 0  6.375 0.25 0  7.125 0.25 0  7.875 0.25 0  8.625 0.25 0  9.375 0.25 0  10.125 0.25 0  10.875 0.25 0  11.625 0.25 0  12.375 0.25 0  13.125 0.25 0  13.875 0.25 0  14.625 0.25 0  15.375 0.25 0  16.125 0.25 0  16.875 0.25 0  17.625 0.25 0  18.375 0.25 0  19.125 0.25 0  19.875 0.25 0  20.625 0.25 0  21.375 0.25 0  22.125 0.25 0  22.875 0.25 0  23.625 0.25 0  24.375 0.25 0  25.125 0.25 0  25.875 0.25 0  26.625 0.25 0  27.375 0.25 0  28.125 0.25 0  28.875 0.25 0  29.625 0.25 0  30.375 0.25 0  31.125 0.25 0  31.875 0.25 0  32.625 0.25 0  33.375 0.25 0  34.125 0.25 0  34.875 0.25 0  35.625 0.25 0  36.375 0.25 0  37.125 0.25 0  37.875 0.25 0  38.625 0.25 0  39.375 0.25 0  40.125 0.25 0  40.875 0.25 0  41.625 0.25 0  42.375 0.25 0  43.125 0.25 0  43.875 0.25 0  44.625 0.25 0  45.375 0.25 0  46.125 0.25 0  46.875 0.25 0  47.625 0.25 0  48.375 0.25 0  49.125 0.25 0  49.875 0.25 0  50.625 0.25 0  51.375 0.25 0  52.125 0.25 0  52.875 0.25 0  53.625 0.25 0  54.375 0.25 0  55.125 0.25 0  55.875 0.25 0  56.625 0.25 0  57.375 0.25 0  58.125 0.25 0  58.875 0.25 0  59.625 0.25 0  0.375 0.75 0  1.125 0.75 0  1.875 0.75 0  2.625 0.75 0  3.375 0.75 0  4.125 0.75 0  4.875 0.75 0  5.625 0.75 0  6.375 0.75 0  7.125 0.75 0  7.875 0.75 0  8.625 0.75 0  9.375 0.75 0  10.125 0.75 0  10.875 0.75 0  11.625 0.75 0  12.375 0.75 0  13.125 0.75 0  13.875 0.75 0  14.625 0.75 0  15.375 0.75 0  16.125 0.75 0  16.875 0.75 0  17.625 0.75 0  18.375 0.75 0  19.125 0.75 0  19.875 0.75 0  20.625 0.75 0  21.375 0.75 0  22.125 0.75 0  22.875 0.75 0  23.625 0.75 0  24.375 0.75 0  25.125 0.75 0  25.875 0.75 0  26.625 0.75 0  27.375 0.75 0  28.125 0.75 0  28.875 0.75 0  29.625 0.75 0  30.375 0.75 0  31.125 0.75 0  31.875 0.75 0  32.625 0.75 0  33.375 0.75 0  34.125 0.75 0  34.875 0.75 0  35.625 0.75 0  36.375 0.75 0  37.125 0.75 0  37.875 0.75 0  38.625 0.75 0  39.375 0.75 0  40.125 0.75 0  40
[...]
<PointData  Scalars="f_8-1"> 
<DataArray  type="Float64"  Name="f_8-1"  format="ascii">-5.2027295633594018e+04  -8.2670803145267579e+04  -4.3850132713845698e+04  -3.8104902099434650e+04  -2.6327836407670777e+04  -9.8719818247320422e+04  1.1573021212233044e+05  -1.8740398612211453e+05  -1.1227920986375066e+05  -9.1220182013591635e+04  -4.5681842497913829e+04  -2.6447596467759192e+05  1.7811283571981482e+05  2.8179444909021858e+05  3.8771971741944063e+05  3.2043727045532931e+04  2.0646990296960037e+05  -2.3213023760323093e+05  -3.7542951055007135e+04  -1.2451834431276687e+05  1.6223954273178757e+05  2.9217018772650732e+04  2.2018475302385812e+05  1.7568360372418340e+05  2.6677596597523789e+05  7.5102278882066355e+04  -1.5213956673870981e+05  -2.8411238727308635e+05  6.3608949838618352e+05  -1.4864511388097491e+05  2.3254910329513950e+04  1.4359069075222992e+05  -1.2524419621458081e+05  -6.7975860496111607e+04  -5.1916848011865186e+04  6.8799476881213530e+04  1.5384981253614859e+05  -1.4265832986528878e+05  8.1658515445652389e+04  3.6216589064319356e+04  1.0822222832476030e+05  -3.1069683050555566e+04  1.0704163437822214e+05  -9.8619302671442365e+03  2.5386633466327275e+05  -3.6513572726389958e+05  7.8968866763342172e+04  -1.4571608276382071e+05  -1.3900328510832015e+05  -1.4781069258501217e+04  5.1275510892865896e+04  1.6555505714095480e+05  2.6962264116020949e+05  1.5642852435466970e+05  2.0056063555001662e+05  -5.3636750140750446e+03  2.1377775799751584e+05  2.3980267805317399e+05  9.6084601315871725e+04  4.2813239004458737e+05  4.6752747191686224e+05  3.0341110872705153e+05  6.3459529395359545e+05  -4.8737783600436518e+05  4.5424213763893262e+05  3.0930042355225200e+05  5.7959193096225534e+05  1.6006786274784704e+05  2.9520513927402248e+05  -8.9204347145578836e+05  -1.8785045058506913e+05  -1.5601076385604317e+05  -8.0460820824971574e+05  -1.2717134141853705e+05  -3.4389146787604911e+05  -2.9991321537504700e+05  -2.8953178227739193e+05  5.2096254240519920e+04  -3.7396885687152768e+05  -1.7756295281555640e+05  -1.2073037379983305e+05  -2.5972469540777089e+04  -5.4348978321413546e+04  -4.4181535753687742e+04  -6.2150115142567964e+04  -7.2641575412372811e+04  3.1159137340271559e+03  -1.0210443990776433e+05  -2.2947901202819150e+04  -1.6140543385065391e+05  -7.6358125791173516e+04  1.2891439442250175e+05  6.5211087490425285e+04  1.1267318663598939e+05  3.0697589469654497e+05  3.3744054228195595e+05  4.8911370986676615e+04  1.8449836555890256e+05  -1.3019998933853729e+05  -2.8992962236715957e+03  1.8516794209866179e+05  9.7945414234352895e+04  -2.3236375378546605e+05  6.2716813761552781e+04  -7.5449118614116815e+04  -3.3005420677992050e+04  1.9335531486299165e+05  -3.9120936677884398e+04  -1.0860776830761761e+04  -3.6495129133348586e+05  2.8261116217251006e+05  5.7928980192715091e+04  1.7115415695372687e+05  -6.7347964187592443e+04  -3.9405660053304098e+04  -7.3533972109603492e+04  2.7698360568264197e+04  2.1319926822179364e+05  -5.9231076439929915e+04  2.4867031720502555e+05  1.0254813374835611e+05  1.5944883432042779e+05  3.1769437475290237e+04  -2.3000115002105191e+04  3.3529594972107455e+05  1.0649249501957816e+04  1.3133995197580667e+05  -3.0378865298731565e+04  2.9795039946780471e+04  9.1240568678923315e+04  1.4791752924186448e+05  9.5699118433505340e+04  7.5732824143190055e+03  2.4611374516667129e+05  9.2001114638118001e+04  6.9155659676067167e+04  1.2239912658949439e+05  -2.9569096733226557e+04  1.9036862998959834e+04  2.3464144172245657e+05  5.9927784519403288e+05  4.6761922670967976e+05  4.8534515116418537e+05  5.4094895422189625e+05  2.2921644231496517e+04  1.2528061297189152e+05  5.7494719736880623e+04  5.1583421081856352e+04  3.3407207240677548e+04  -2.1951948366084945e+05  4.8648075680637494e+03  -4.1440720249646803e+05  -1.7125861632546590e+05  -4.8381690575699013e+05  -3.8692433125350258e+05  -1.7383444989470826e+05  -4.0455995400275546e+05  -7.2109058540786704e+04  -3.0328899769769568e+05  -2.8502996706288535e+05  6.5183404067022864e+04  -1.4359567641152241e+05  2.6126319733100085e+04  -3.2803831309743313e+04  -4.5542918777798412e+04  -7.3195971397283196e+04  -7.7981460083747161e+03  -1.1761528128805192e+04  2.1343857738567276e+04  5.5790204707301411e+04  3.6280161418119082e+04  -6.5770194814585630e+04  -4.0201175579818912e+04  -8.6049019719466800e+04  9.3256975817322285e+00  2.4473473468448460e+05  3.2563966974510154e+05  1.1220902814722956e+05  -1.7296490450757268e+04  -4.2498126415857965e+04  -1.9706972534471296e+05  6.5122431483059852e+04  -1.7732852014926245e+05  5.1797103089740420e+04  -1.9742248212575901e+05  1.2881741534640973e+05  -1.1236687458406926e+05  8.0009202561352766e+04  1.8935215446040533e+04  -1.0194193886343716e+05  -2.0041368685918504e+04  -1.4659575522400293e+05  1.5123011369666664e+05  2.1887394244866789e+05  -2.2473679030535321e+05  -1.7711701916460242e+05  1.0603931814780087e+03  -5.9653147953722500e+03  5.0238940437040466e+04  -6.3371861773363407e+03  4.9775779520727498e+04  -8.2101438567874429e+04  -2.3493118960431108e+04  2.5623934994883224e+05  -6.4820012798172153e+04  1.0269392140847948e+05  1.0602811024047896e+05  8.9345590992594007e+04  -7.0630591741646131e+04  1.5979904798755093e+05  -1.1645139782598773e+05  1.4399990799584964e+05  2.4573749268108912e+05  -5.2799931870240493e+04  -1.5319381763573166e+05  2.2264488306496263e+05  -1.5568863777116037e+05  2.8728010242480119e+04  2.6235081403387856e+04  2.4671919437932823e+05  1.0088823505436970e+05  3.2220788037640334e+05  6.3272396226295352e+05  4.6614668699223350e+05  4.4879313643452874e+05  4.3927574526423216e+05  -2.3388870093084878e+05  2.1809580049637105e+04  5.3026878191391856e+05  -3.5654197633802987e+03  4.4911850035883312e+04  -2.1188338471722780e+05  1.1741562501824173e+05  -2.5204761290500383e+05  -2.8019282177575596e+05  -2.6655082341396238e+05  -4.1803990673352533e+05  -3.9231467732611584e+05  -6.3911555793224147e+05  -1.8880557530897393e+05  -1.5005338596524563e+04  -1.2124367350190195e+05  1.5206488734016262e+05  -4.3208133333188045e+04  -5.2316138214274361e+04  -3.2442376769852810e+04  -1.4234475025884054e+04  -4.2417808203820990e+04  -1.4636308695022570e+04  4.7210044998680649e+04  1.8093658723829587e+04  -4.3815382838841782e+04  2.4720588616503129e+05  -2.6480542992930755e+05  -6.9119798835510257e+04  5.9850189056735559e+04  1.4290814447473298e+05  1.2441943220133205e+05  3.5417809018071729e+05  2.5509333444840301e+05  1.5714266733861118e+03  -6.1914680074961638e+04  -8.5404146227748628e+04  -1.3127857538594140e+05  2.7870206804176141e+04  -3.5142567006371559e+04  7.7218954112178049e+04  -1.3635333880489640e+05  1.8069585376696600e+05  6.6270891686009651e+04  -8.3569983136782073e+04  -1.5451171302822165e+05  -2.5920458424836490e+05  -4.6457530422489095e+05  -4.3278358086739061e+05  -1.5479381764939515e+05  6.1511098273252035e+04  -1.1342206593242900e+05  4.6782279683009307e+04  3.9442444116296429e+04  -2.5833963890356492e+04  6.4969954336668299e+04  3.5506092242858213e+04  -9.5822943977263334e+04  -1.0347824528027899e+05  -7.9846096331612280e+04  9.6903785044437784e+04  9.4920411005496193e+04  -8.9888881713888884e+04  6.9507298757440600e+04  -4.6142840185506015e+04  -6.5760885416772988e+04  1.9914414920749838e+05  4.4020397977117573e+04  -1.1559517315706299e+05  2.6876036203560976e+04  8.8066838212130533e+04  -1.9479406108477199e+05  2.9566688818632148e+04  2.8865603575723810e+05  2.1624495432094249e+05  2.0905022446093051e+05  3.1150147505828034e+05  3.1501339690323902e+05  2.5762507366929602e+05  7.9680469788117998e+05  2.2940869603640796e+04  1.1248159539886234e+05  2.9831901951487263e+05  4.5227692656700406e+05  2.3178652333865690e+05  3.0647168014784757e+05  -2.7900307547716756e+05  2.3425379597563090e+05  -2.5319668040259765e+05  -1.2610650451557612e+05  -3.0026570664522878e+05  -2.1901209432614557e+05  -5.2179109005032922e+05  -9.8812203203305282e+04  -1.6946624158478680e+05  -2.0393621298167694e+05  -3.8588654150271643e+05  3.3176590649765043e+05  3.5337559075554622e+04  -3.7146093244108131e+04  -4.6363983510500322e+04  -4.4535999615058528e+04  -1.3013266642715147e+04  -9.0341907722603955e+03  1.8277284391087090e+05  5.2428040668769027e+04  1.5602373099907205e+05  1.7447404262849319e+05  2.1519029526163338e+05  9.0739787192788368e+04  -5.9155823803831467e+04  5.3543430474875640e+04  1.5559488560113084e+05  -8.7035183347937145e+03  7.5984337508350043e+04  4.4094517581746673e+04  -6.1545909000690888e+04  -9.1302975206044648e+04  -5.2749754970939903e+04  -2.8536825931100528e+04  4.7898016052492021e+04  -1.5889858317208730e+05  -1.9090629771764032e+05  -3.1836121867675869e+04  4.2624966244266747e+04  -6.1992902080345790e+04  -1.7489741577561852e+05  7.4610793143500297e+04  4.6065834427650564e+05  -1.0602637706770137e+05  4.7592891379729939e+04  -5.0502742833573335e+04  3.2051389949984918e+04  5.8298631674627133e+04  -6.5934095070057985e+04  -3.7662872699303844e+03  4.8486838678504100e+04  -9.8562841657056651e+03  2.1478886092422988e+04  -9.6840059656030615e+04  -2.4093233581122119e+05  -4.8641439250026626e+04  1.6172953534153634e+05  -1.6210880909387156e+05  6.0678041705438976e+04  8.5271447634580763e+04  -7.8988523280523325e+04  6.7655717958626090e+04  -1.0708851908372357e+05  1.2208568308706682e+05  -4.1410324529154008e+04  -1.5554869888729422e+05  1.0400074771251559e+05  2.5428905836644244e+04  4.2525636377302388e+05  3.7353573324773059e+05  9.0847004729948007e+04  4.1141845312368780e+04  6.7197582968051033e+05  3.7656686419393774e+05  2.7181530707167881e+05  6.3727063464447518e+05  -1.3137297700836218e+05  1.8667992975225501e+04  1.8939481863015200e+05  1.4223485301422590e+05  4.4426407950875099e+05  4.5316333038757404e+05  2.6520297683298896e+05  -1.5352711182355415e+05  -3.8630960210493917e+05  -4.2697775737101177e+05  -4.4768195403353666e+05  -4.2086207745943236e+05  -3.2771955564779276e+05  -5.3703723865412339e+05  4.0622703402056781e+04  -5.5789830230785755e+05  1.9391818761873909e+05  2.8829683079274913e+04  -5.7112940341450754e+04  2.9977125857797346e+04  1.4972109595441412e+04  -2.3699849486250085e+04  -1.6007035715049549e+04  -1.1816571277581924e+05  -1.5595979848064735e+03  4.1731895938453563e+04  4.5193609498176986e+04  2.4554253689543075e+04  -4.4401828229420198e+03  -2.1341876826483895e+04  1.8684571057298520e+05  -1.2831270764765439e+05  3.6545554639058821e+04  2.7702582452382074e+04  1.9410428419028125e+04  -1.7292776647102881e+04  -2.4548008644897931e+04  -6.6887940508448999e+04  -1.4774628981999791e+05  7.3318571105009367e+04  -1.0579352695682461e+05  -5.7695980153629258e+04  -6.3354374992550787e+04  1.0923891775747895e+05  -1.1609835839425148e+05  1.8434356363368517e+05  -3.4882988039482378e+04  3.9619705315190251e+05  2.4450380142984711e+05  -2.5366917998993467e+03  1.1928838194683376e+04  7.2271821557028728e+04  -9.7914699541061200e+04  4.0002180809480451e+04  -1.6092505593289079e+04  -6.3157596259930790e+04  -6.2343911969058703e+04  6.1607014821670135e+04  -9.0672017423664875e+04  3.1281131679511154e+03  -5.6000114905563147e+04  2.0547733918443238e+05  1.0295536733045289e+05  -4.6102281987056261e+02  1.1210642326852203e+05  -8.3666308230087830e+04  6.9653657629611815e+04  -9.3526071314453584e+03  1.3741420582177263e+05  -2.5196399991079085e+05  5.7749197876794560e+03  1.3875466925170712e+05  6.8470822405636500e+04  1.9667286930521191e+05  1.5284738282239478e+05  2.7431258749472455e+05  -4.9036249872025830e+04  1.6127545279070601e+05  -2.8256513654210215e+04  3.2980451863520156e+05  8.7215054768592422e+05  5.8398591392567067e+05  2.1997655467714692e+05  -8.8948651540127787e+04  3.3139020479689352e+05  -6.9018394276748193e+04  -9.6326822495384928e+04  4.3490149798751477e+05  -6.2607610558651725e+05  -6.3334861978972610e+05  -3.4554927020859811e+05  -1.4049648206292803e+05  -4.3144050971802766e+05  -1.8524846733569435e+05  -1.2715496379181552e+05  -4.8931020624531939e+03  1.1121802710543945e+05  8.2722225380342235e+04  6.0447698967517390e+03  5.4262238733351376e+02  -2.3730198914171262e+04  -5.0617225187030039e+04  2.2540661185393915e+03  -4.8398556916527355e+04  -2.3142948036112251e+04  4.4196360037315011e+04  8.3911465908867787e+04  5.3761400771966873e+04  6.6963667474526665e+04  6.8347282459044363e+04  -1.5915048739401743e+05  8.6516416406363001e+04  -7.4726005177656974e+04  2.7186948214857355e+04  1.5328951045399572e+04  -3.6517808328977029e+04  -2.9084358377358993e+04  4.1022822748035305e+03  -8.2670323058168069e+04  -8.6819152219866533e+04  -3.4505886384777594e+04  7.1493653630282934e+04  -7.2617179503726788e+04  -1.9167542157853098e+05  2.3263623386060957e+04  9.6607958791908623e+03  -4.8692406069332646e+04  1.8290593063781792e+05  1.6969367201104190e+05  1.8854202658323650e+05  3.1772465062836069e+04  5.8484743411056465e+04  -8.6745540907054485e+04  3.0509822182308504e+05  1.6052489670611365e+05  -3.8789983751836160e+04  -3.8786055180783675e+04  7.4278875322835347e+03  -1.0179102140267439e+05  1.9773006763883885e+04  -1.2156163256203372e+05  -7.8543636929288721e+02  -1.4624071142300271e+05  2.0371683279912864e+05  2.5587257995848011e+05  1.3523724389430947e+05  -7.4677420859958511e+04  1.3839024890018776e+04  -1.8450014320796472e+05  2.7097248803352506e+05  3.5614641531863905e+04  -9.4697972471178233e+04  -1.1098179384998210e+05  -8.1282790115047173e+04  -8.8371782113424488e+04  -2.4209729629540330e+05  2.4107495749914026e+05  1.9558625686427907e+05  -4.5921683121639617e+04  1.9148282580136933e+05  3.9688484997985594e+05  2.6218122199079971e+05  4.6472026653654332e+05  2.0639087673087645e+05  -5.0037530811224118e+04  1.3836261134291545e+05  -1.4419213406213204e+05  1.7525363793723658e+05  -3.3729986476500126e+04  1.4305930407742970e+05  1.3122618793967672e+05  -3.9449143006346334e+04  -6.7219036572639237e+05  5.3224838317371155e+04  -1.4476407209274051e+05  1.8270503689140323e+05  -1.1690383314565699e+05  1.2913535915624356e+05  1.4183765920154465e+04  -1.5474937626978507e+02  -2.4126227146292182e+04  -2.9025534753372081e+04  1.8748734205416564e+04  -3.5887254186853024e+04  -3.3421209886200966e+04  -3.6340092259610225e+04  -6.4549241644109215e+03  3.0028211446212612e+04  2.8602797288914997e+04  3.6266825818215482e+04  -2.0554621454706845e+04  -5.9019424996890695e+04  9.0940321031100510e+04  -1.7594520398088716e+05  -7.2423830363698498e+03  -5.0356814681481164e+03  -3.3680277653929086e+04  -4.0946100075739436e+04  2.1463242748888501e+04  -6.2351701259996604e+04  -9.6891553961764701e+04  4.3518708328511835e+04  5.8127893023142045e+04  -7.2084395210812116e+04  3.3234591709713692e+04  -3.4931669680827879e+04  5.1740750062027073e+04  2.2504059676584067e+04  5.4609795915148188e+03  1.4871627503000776e+05  -2.8005944923552415e+04  5.5712071729648058e+04  1.6443501669675246e+05  -9.8900782422958855e+03  1.8136851509777119e+05  1.8952433454036230e+05  -1.0649412148106359e+05  -8.8676420468396784e+04  1.5288205891756201e+04  -1.4096987026179218e+05  1.2370398485261339e+05  -8.7053631860651774e+04  3.1352807684496133e+02  -8.1018012165929220e+04  -1.6583532811496573e+05  4.8304350340671968e+04  -1.9381656690416121e+05  1.2914269626800751e+03  -1.0953633407395839e+05  7.0286998574515106e+04  3.4650282346248088e+04  1.4850309003410733e+05  -4.1769677937255008e+04  1.9170204735180720e+04  3.7406129283816321e+04  -6.9374143927925310e+04  1.1687235889195801e+04  -5.8806257387777725e+04  -1.7297953885540414e+03  5.9210152348137060e+04  1.2483708264736833e+05  3.5133943532732717e+05  2.0590541896243941e+05  6.9149510180678175e+04  -2.4019379186617982e+05  6.7772228480080536e+04  -3.4456662698170386e+05  -2.5212870377769327e+05  -1.9935841051818596e+05  3.3296556195521436e+05  -1.0395147590729393e+05  -7.3759661076434451e+04  -1.9762915548571819e+05  1.8966717082215284e+05  -5.4331730010052002e+05  7.7952736818437566e+04  9.8612096703600197e+04  1.0919016779847976e+05  6.8680324216599456e+03  -1.5839246860174699e+04  3.8393523866737810e+03  6.1933928075413432e+03  -5.1848139641482185e+03  3.0887541928274236e+03  -8.4035447033956789e+03  8.0961733333110942e+03  -1.5021313689438279e+04  2.1176069797867058e+04  -9.9918085083196111e+03  1.5607491180118515e+04  5.8149793543922806e+02  -7.0453793302433678e+03  -6.7834325047613791e+04  -8.8714901510240466e+04  2.7944357370425339e+04  1.4301700844479190e+04  -1.8604916227471347e+03  -4.9109415275842031e+04  5.4578129059804902e+04  -3.2731104120437147e+04  8.8040766760625083e+03  -6.1887586143975983e+04  2.3712766261371256e+04  3.3617649001710546e+04  1.0680317359480734e+04  -2.3930609675125073e+04  2.0634925588920840e+04  -1.1090589765200968e+04  1.3298955493561887e+04  7.7268907788198348e+03  -3.3819375319451465e+04  -4.7282068559417185e+03  -4.0002143531074624e+04  5.6921905285109213e+04  8.3465225752117385e+03  -3.9562875446010425e+04  1.1016664799832698e+05  -5.3641742827210663e+04  -3.7386022296259238e+04  2.5794209542180546e+04  -1.2857333972857639e+04  4.3110364521324365e+04  -3.0991494132135581e+03  2.6687183198605917e+03  -5.5200510354010301e+04  8.9407041082698997e+03  1.6950090859438553e+03  2.2564750775242865e+04  -8.2016292201266420e+04  4.1243638999866227e+04  4.6084906512865367e+04  5.4163805328610630e+04  8.9455707421952786e+04  -3.5523750280813372e+04  -2.1357968135129697e+04  -3.1480912548023887e+04  -3.9890627995783274e+04  -4.0707019518859524e+04  -5.4919798876858731e+04  9.2667604916840603e+04  -3.9255598626908619e+05  2.3130222365901805e+05  -6.3206432868182761e+04  1.8590919694421285e+04  1.1933661830685934e+05  -1.2359812520991658e+04  -4.9585014139589628e+04  -1.4171581960927719e+04  8.2437507329218904e+04  1.3117126616079733e+05  -3.1628865753748159e+04  -6.2031638767872821e+04  -6.2235050189419191e+04  3.3717579842546635e+04  -9.9126054826234191e+04  -2.9601073778119731e+04  5.7431709960084598e+04  -2.5775008754584236e+04  4.3568131392694100e+04  -1.1866124226768242e+05  -2.1216713829311644e+04  1.6286465129146618e+04  -3.3713943850027987e+04  -3.8710736024853701e+04  -4.8367613916188908e+04  -8.0198072420065713e+04  -2.1044696660317521e+04  -4.0318749234989416e+04  -2.8889911394649919e+05  2.1495028890397774e+04  2.7538610466568259e+05  -3.4939227624312992e+05  7.9243185198678446e+04  2.7098139513652038e+05  3.3479141120250133e+05  3.5162695473829343e+05  1.2047607333331657e+05  -5.4830637905259304e+04  1.4690671242614560e+04  -1.2505529469888553e+05  2.7175986214365348e+04  -3.7252562852615440e+04  -2.6509422975145011e+04  1.2994722549332821e+05  2.2271309490460535e+04  1.4922601690808698e+05  8.9395218859174020e+03  -9.1081378019599972e+04  2.5231139749837492e+05  3.9249973618045376e+04  -1.6616534057439133e+05  1.3364735630847272e+05  -7.9215660088643912e+04  -6.5205387122712084e+04  -6.9025514518601805e+04  -6.0490276704380696e+04  -2.1886487599171750e+05  2.4811229994101788e+04  8.6313943777753317e+04  4.5962332695055011e+04  3.6748276148745319e+05  2.7617719583357027e+05  2.6914379315200473e+04  2.8956857108116295e+05  1.2365063376556482e+05  -2.9491494366739564e+04  9.4376954725689109e+04  -1.3942234215735289e+05  1.2388508734214379e+05  -1.9666961479935164e+05  -3.9549715064376571e+04  -4.0912968218160189e+04  4.7166576786986901e+05  2.5637358063774923e+05  1.0752281939585488e+05  -1.2249966850577426e+05  1.0200846403293265e+05  1.6294544292477882e+05  2.6742105790204753e+05  1.0109256659261201e+05  4.1637986990154540e+05  2.6869920144720614e+05  4.9893639909429004e+05  1.5520222377514065e+05  -1.7998807096731770e+05  5.3765751633472519e+05  8.1078516703783174e+05  7.1669190314435994e+05  4.0993686107023951e+05  2.0219660322407389e+05  -6.8218310783199279e+05  -6.1923649111271999e+05  -3.0258708763132943e+05  -4.7270687676221400e+05  -3.0033066837444308e+05  -1.4158192327888304e+05  -2.6299619968097156e+05  -1.8921995446650960e+05  -1.2850841646773666e+05  2.1174874289806066e+04  -1.2249744072718760e+05  -2.4704267934966414e+04  -2.5828811597859065e+04  -2.2658455022474707e+04  -6.6284174823302208e+04  -1.1518