<?xml version="1.0"?>
<VTKFile type="UnstructuredGrid"  version="0.1"  >
<UnstructuredGrid>
<Piece  NumberOfPoints="1369" NumberOfCells="2560">
<Points>
<DataArray  type="Float64"  NumberOfComponents="3"  format="ascii">0 0 0  0.75 0 0  1.5 0 0  2.25 0 0  3 0 0  3.75 0 0  4.5 0 0  5.25 0 0  6 0 0  6.75 0 0  7.5 0 0  8.25 0 0  9 0 0  9.75 0 0  10.5 0 0  11.25 0 0  12 0 0  12.75 0 0  13.5 0 0  14.25 0 0  15 0 0  15.75 0 0  16.5 0 0  17.25 0 0  18 0 0  18.75 0 0  19.5 0 0  20.25 0 0  21 0 0  21.75 0 0  22.5 0 0  23.25 0 0  24 0 0  24.75 0 0  25.5 0 0  26.25 0 0  27 0 0  27.75 0 0  28.5 0 0  29.25 0 0  30 0 0  30.75 0 0  31.5 0 0  32.25 0 0  33 0 0  33.75 0 0  34.5 0 0  35.25 0 0  36 0 0  36.75 0 0  37.5 0 0  38.25 0 0  39 0 0  39.75 0 0  40.5 0 0  41.25 0 0  42 0 0  42.75 0 0  43.5 0 0  44.25 0 0  45 0 0  45.75 0 0  46.5 0 0  47.25 0 0  48 0 0  48.75 0 0  49.5 0 0  50.25 0 0  51 0 0  51.75 0 0  52.5 0 0  53.25 0 0  54 0 0  54.75 0 0  55.5 0 0  56.25 0 0  57 0 0  57.75 0 0  58.5 0 0  59.25 0 0  60 0 0  0 0.5 0  0.75 0.5 0  1.5 0.5 0  2.25 0.5 0  3 0.5 0  3.75 0.5 0  4.5 0.5 0  5.25 0.5 0  6 0.5 0  6.75 0.5 0  7.5 0.5 0  8.25 0.5 0  9 0.5 0  9.75 0.5 0  10.5 0.5 0  11.25 0.5 0  12 0.5 0  12.75 0.5 0  13.5 0.5 0  14.25 0.5 0  15 0.5 0  15.75 0.5 0  16.5 0.5 0  17.25 0.5 0  18 0.5 0  18.75 0.5 0  19.5 0.5 0  20.25 0.5 0  21 0.5 0  21.75 0.5 0  22.5 0.5 0  23.25 0.5 0  24 0.5 0  24.75 0.5 0  25.5 0.5 0  26.25 0.5 0  27 0.5 0  27.75 0.5 0  28.5 0.5 0  29.25 0.5 0  30 0.5 0  30.75 0.5 0  31.5 0.5 0  32.25 0.5 0  33 0.5 0  33.75 0.5 0  34.5 0.5 0  35.25 0.5 0  36 0.5 0  36.75 0.5 0  37.5 0.5 0  38.25 0.5 0  39 0.5 0  39.75 0.5 0  40.5 0.5 0  41.25 0.5 0  42 0.5 0  42.75 0.5 0  43.5 0.5 0  44.25 0.5 0  45 0.5 0  45.75 0.5 0  46.5 0.5 0  47.25 0.5 0  48 0.5 0  48.75 0.5 0  49.5 0.5 0  50.25 0.5 0  51 0.5 0  51.75 0.5 0  52.5 0.5 0  53.25 0.5 0  54 0.5 0  54.75 0.5 0  55.5 0.5 0  56.25 0.5 0  57 0.5 0  57.75 0.5 0  58.5 0.5 0  59.25 0.5 0  60 0.5 0  0 1 0  0.75 1 0  1.5 1 0  2.25 1 0  3 1 0  3.75 1 0  4.5 1 0  5.25 1 0  6 1 0  6.75 1 0  7.5 1 0  8.25 1 0  9 1 0  9.75 1 0  10.5 1 0  11.25 1 0  12 1 0  12.75 1 0  13.5 1 0  14.25 1 0  15 1 0  15.75 1 0  16.5 1 0  17.25 1 0  18 1 0  18.75 1 0  19.5 1 0  20.25 1 0  21 1 0  21.75 1 0  22.5 1 0  23.25 1 0  24 1 0  24.75 1 0  25.5 1 0  26.25 1 0  27 1 0  27.75 1 0  28.5 1 0  29.25 1 0  30 1 0  30.75 1 0  31.5 1 0  32.25 1 0  33 1 0  33.75 1 0  34.5 1 0  35.25 1 0  36 1 0  36.75 1 0  37.5 1 0  38.25 1 0  39 1 0  39.75 1 0  40.5 1 0  41.25 1 0  42 1 0  42.75 1 0  43.5 1 0  44.25 1 0  45 1 0  45.75 1 0  46.5 1 0  47.25 1 0  48 1 0  48.75 1 0  49.5 1 0  50.25 1 0  51 1 0  51.75 1 0  52.5 1 0  53.25 1 0  54 1 0  54.75 1 0  55.5 1 0  56.25 1 0  57 1 0  57.75 1 0  58.5 1 0  59.25 1 0  60 1 0  0 1.5 0  0.75 1.5 0  1.5 1.5 0  2.25 1.5 0  3 1.5 0  3.75 1.5 0  4.5 1.5 0  5.25 1.5 0  6 1.5 0  6.75 1.5 0  7.5 1.5 0  8.25 1.5 0  9 1.5 0  9.75 1.5 0  10.5 1.5 0  11.25 1.5 0  12 1.5 0  12.75 1.5 0  13.5 1.5 0  14.25 1.5 0  15 1.5 0  15.75 1.5 0  16.5 1.5 0  17.25 1.5 0  18 1.5 0  18.75 1.5 0  19.5 1.5 0  20.25 1.5 0  21 1.5 0  21.75 1.5 0  22.5 1.5 0  23.25 1.5 0  24 1.5 0  24.75 1.5 0  25.5 1.5 0  26.25 1.5 0  27 1.5 0  27.75 1.5 0  28.5 1.5 0  29.25 1.5 0  30 1.5 0  30.75 1.5 0  31.5 1.5 0  32.25 1.5 0  33 1.5 0  33.75 1.5 0  34.5 1.5 0  35.25 1.5 0  36 1.5 0  36.75 1.5 0  37.5 1.5 0  38.25 1.5 0  39 1.5 0  39.75 1.5 0  40.5 1.5 0  41.25 1.5 0  42 1.5 0  42.75 1.5 0  43.5 1.5 0  44.25 1.5 0  45 1.5 0  45.75 1.5 0  46.5 1.5 0  47.25 1.5 0  48 1.5 0  48.75 1.5 0  49.5 1.5 0  50.25 1.5 0  51 1.5 0  51.75 1.5 0  52.5 1.5 0  53.25 1.5 0  54 1.5 0  54.75 1.5 0  55.5 1.5 0  56.25 1.5 0  57 1.5 0  57.75 1.5 0  58.5 1.5 0  59.25 1.5 0  60 1.5 0  0 2 0  0.75 2 0  1.5 2 0  2.25 2 0  3 2 0  3.75 2 0  4.5 2 0  5.25 2 0  6 2 0  6.75 2 0  7.5 2 0  8.25 2 0  9 2 0  9.75 2 0  10.5 2 0  11.25 2 0  12 2 0  12.75 2 0  13.5 2 0  14.25 2 0  15 2 0  15.75 2 0  16.5 2 0  17.25 2 0  18 2 0  18.75 2 0  19.5 2 0  20.25 2 0  21 2 0  21.75 2 0  22.5 2 0  23.25 2 0  24 2 0  24.75 2 0  25.5 2 0  26.25 2 0  27 2 0  27.75 2 0  28.5 2 0  29.25 2 0  30 2 0  30.75 2 0  31.5 2 0  32.25 2 0  33 2 0  33.75 2 0  34.5 2 0  35.25 2 0  36 2 0  36.75 2 0  37.5 2 0  38.25 2 0  39 2 0  39.75 2 0  40.5 2 0  41.25 2 0  42 2 0  42.75 2 0  43.5 2 0  44.25 2 0  45 2 0  45.75 2 0  46.5 2 0  47.25 2 0  48 2 0  48.75 2 0  49.5 2 0  50.25 2 0  51 2 0  51.75 2 0  52.5 2 0  53.25 2 0  54 2 0  54.75 2 0  55.5 2 0  56.25 2 0  57 2 0  57.75 2 0  58.5 2 0  59.25 2 0  60 2 0  0 2.5 0  0.75 2.5 0  1.5 2.5 0  2.25 2.5 0  3 2.5 0  3.75 2.5 0  4.5 2.5 0  5.25 2.5 0  6 2.5 0  6.75 2.5 0  7.5 2.5 0  8.25 2.5 0  9 2.5 0  9.75 2.5 0  10.5 2.5 0  11.25 2.5 0  12 2.5 0  12.75 2.5 0  13.5 2.5 0  14.25 2.5 0  15 2.5 0  15.75 2.5 0  16.5 2.5 0  17.25 2.5 0  18 2.5 0  18.75 2.5 0  19.5 2.5 0  20.25 2.5 0  21 2.5 0  21.75 2.5 0  22.5 2.5 0  23.25 2.5 0  24 2.5 0  24.75 2.5 0  25.5 2.5 0  26.25 2.5 0  27 2.5 0  27.75 2.5 0  28.5 2.5 0  29.25 2.5 0  30 2.5 0  30.75 2.5 0  31.5 2.5 0  32.25 2.5 0  33 2.5 0  33.75 2.5 0  34.5 2.5 0  35.25 2.5 0  36 2.5 0  36.75 2.5 0  37.5 2.5 0  38.25 2.5 0  39 2.5 0  39.75 2.5 0  40.5 2.5 0  41.25 2.5 0  42 2.5 0  42.75 2.5 0  43.5 2.5 0  44.25 2.5 0  45 2.5 0  45.75 2.5 0  46.5 2.5 0  47.25 2.5 0  48 2.5 0  48.75 2.5 0  49.5 2.5 0  50.25 2.5 0  51 2.5 0  51.75 2.5 0  52.5 2.5 0  53.25 2.5 0  54 2.5 0  54.75 2.5 0  55.5 2.5 0  56.25 2.5 0  57 2.5 0  57.75 2.5 0  58.5 2.5 0  59.25 2.5 0  60 2.5 0  0 3 0  0.75 3 0  1.5 3 0  2.25 3 0  3 3 0  3.75 3 0  4.5 3 0  5.25 3 0  6 3 0  6.75 3 0  7.5 3 0  8.25 3 0  9 3 0  9.75 3 0  10.5 3 0  11.25 3 0  12 3 0  12.75 3 0  13.5 3 0  14.25 3 0  15 3 0  15.75 3 0  16.5 3 0  17.25 3 0  18 3 0  18.75 3 0  19.5 3 0  20.25 3 0  21 3 0  21.75 3 0  22.5 3 0  23.25 3 0  24 3 0  24.75 3 0  25.5 3 0  26.25 3 0  27 3 0  27.75 3 0  28.5 3 0  29.25 3 0  30 3 0  30.75 3 0  31.5 3 0  32.25 3 0  33 3 0  33.75 3 0  34.5 3 0  35.25 3 0  36 3 0  36.75 3 0  37.5 3 0  38.25 3 0  39 3 0  39.75 3 0  40.5 3 0  41.25 3 0  42 3 0  42.75 3 0  43.5 3 0  44.25 3 0  45 3 0  45.75 3 0  46.5 3 0  47.25 3 0  48 3 0  48.75 3 0  49.5 3 0  50.25 3 0  51 3 0  51.75 3 0  52.5 3 0  53.25 3 0  54 3 0  54.75 3 0  55.5 3 0  56.25 3 0  57 3 0  57.75 3 0  58.5 3 0  59.25 3 0  60 3 0  0 3.5 0  0.75 3.5 0  1.5 3.5 0  2.25 3.5 0  3 3.5 0  3.75 3.5 0  4.5 3.5 0  5.25 3.5 0  6 3.5 0  6.75 3.5 0  7.5 3.5 0  8.25 3.5 0  9 3.5 0  9.75 3.5 0  10.5 3.5 0  11.25 3.5 0  12 3.5 0  12.75 3.5 0  13.5 3.5 0  14.25 3.5 0  15 3.5 0  15.75 3.5 0  16.5 3.5 0  17.25 3.5 0  18 3.5 0  18.75 3.5 0  19.5 3.5 0  20.25 3.5 0  21 3.5 0  21.75 3.5 0  22.5 3.5 0  23.25 3.5 0  24 3.5 0  24.75 3.5 0  25.5 3.5 0  26.25 3.5 0  27 3.5 0  27.75 3.5 0  28.5 3.5 0  29.25 3.5 0  30 3.5 0  30.75 3.5 0  31.5 3.5 0  32.25 3.5 0  33 3.5 0  33.75 3.5 0  34.5 3.5 0  35.25 3.5 0  36 3.5 0  36.75 3.5 0  37.5 3.5 0  38.25 3.5 0  39 3.5 0  39.75 3.5 0  40.5 3.5 0  41.25 3.5 0  42 3.5 0  42.75 3.5 0  43.5 3.5 0  44.25 3.5 0  45 3.5 0  45.75 3.5 0  46.5 3.5 0  47.25 3.5 0  48 3.5 0  48.75 3.5 0  49.5 3.5 0  50.25 3.5 0  51 3.5 0  51.75 3.5 0  52.5 3.5 0  53.25 3.5 0  54 3.5 0  54.75 3.5 0  55.5 3.5 0  56.25 3.5 0  57 3.5 0  57.75 3.5 0  58.5 3.5 0  59.25 3.5 0  60 3.5 0  0 4 0  0.75 4 0  1.5 4 0  2.25 4 0  3 4 0  3.75 4 0  4.5 4 0  5.25 4 0  6 4 0  6.75 4 0  7.5 4 0  8.25 4 0  9 4 0  9.75 4 0  10.5 4 0  11.25 4 0  12 4 0  12.75 4 0  13.5 4 0  14.25 4 0  15 4 0  15.75 4 0  16.5 4 0  17.25 4 0  18 4 0  18.75 4 0  19.5 4 0  20.25 4 0  21 4 0  21.75 4 0  22.5 4 0  23.25 4 0  24 4 0  24.75 4 0  25.5 4 0  26.25 4 0  27 4 0  27.75 4 0  28.5 4 0  29.25 4 0  30 4 0  30.75 4 0  31.5 4 0  32.25 4 0  33 4 0  33.75 4 0  34.5 4 0  35.25 4 0  36 4 0  36.75 4 0  37.5 4 0  38.25 4 0  39 4 0  39.75 4 0  40.5 4 0  41.25 4 0  42 4 0  42.75 4 0  43.5 4 0  44.25 4 0  45 4 0  45.75 4 0  46.5 4 0  47.25 4 0  48 4 0  48.75 4 0  49.5 4 0  50.25 4 0  51 4 0  51.75 4 0  52.5 4 0  53.25 4 0  54 4 0  54.75 4 0  55.5 4 0  56.25 4 0  57 4 0  57.75 4 0  58.5 4 0  59.25 4 0  60 4 0  0.375 0.25 0  1.125 0.25 0  1.875 0.25 0  2.625 0.25 0  3.375 0.25 0  4.125 0.25 0  4.875 0.25 0  5.625 0.25 0  6.375 0.25 0  7.125 0.25 0  7.875 0.25 0  8.625 0.25 0  9.375 0.25 0  10.125 0.25 0  10.875 0.25 0  11.625 0.25 0  12.375 0.25 0  13.125 0.25 0  13.875 0.25 0  14.625 0.25 0  15.375 0.25 0  16.125 0.25 0  16.875 0.25 0  17.625 0.25 0  18.375 0.25 0  19.125 0.25 0  19.875 0.25 0  20.625 0.25 0  21.375 0.25 0  22.125 0.25 0  22.875 0.25 0  23.625 0.25 0  24.375 0.25 0  25.125 0.25 0  25.875 0.25 0  26.625 0.25 0  27.375 0.25 0  28.125 0.25 0  28.875 0.25 0  29.625 0.25 0  30.375 0.25 0  31.125 0.25 0  31.875 0.25 0  32.625 0.25 0  33.375 0.25 0  34.125 0.25 0  34.875 0.25 0  35.625 0.25 0  36.375 0.25 0  37.125 0.25 0  37.875 0.25 0  38.625 0.25 0  39.375 0.25 0  40.125 0.25 0  40.875 0.25 0  41.625 0.25 0  42.375 0.25 0  43.125 0.25 0  43.875 0.25 0  44.625 0.25 0  45.375 0.25 0  46.125 0.25 0  46.875 0.25 0  47.625 0.25 0  48.375 0.25 0  49.125 0.25 0  49.875 0.25 0  50.625 0.25 0  51.375 0.25 0  52.125 0.25 0  52.875 0.25 0  53.625 0.25 0  54.375 0.25 0  55.125 0.25 0  55.875 0.25 0  56.625 0.25 0  57.375 0.25 0  58.125 0.25 0  58.875 0.25 0  59.625 0.25 0  0.375 0.75 0  1.125 0.75 0  1.875 0.75 0  2.625 0.75 0  3.375 0.75 0  4.125 0.75 0  4.875 0.75 0  5.625 0.75 0  6.375 0.75 0  7.125 0.75 0  7.875 0.75 0  8.625 0.75 0  9.375 0.75 0  10.125 0.75 0  10.875 0.75 0  11.625 0.75 0  12.375 0.75 0  13.125 0.75 0  13.875 0.75 0  14.625 0.75 0  15.375 0.75 0  16.125 0.75 0  16.875 0.75 0  17.625 0.75 0  18.375 0.75 0  19.125 0.75 0  19.875 0.75 0  20.625 0.75 0  21.375 0.75 0  22.125 0.75 0  22.875 0.75 0  23.625 0.75 0  24.375 0.75 0  25.125 0.75 0  25.875 0.75 0  26.625 0.75 0  27.375 0.75 0  28.125 0.75 0  28.875 0.75 0  29.625 0.75 0  30.375 0.75 0  31.125 0.75 0  31.875 0.75 0  32.625 0.75 0  33.375 0.75 0  34.125 0.75 0  34.875 0.75 0  35.625 0.75 0  36.375 0.75 0  37.125 0.75 0  37.875 0.75 0  38.625 0.75 0  39.375 0.75 0  40.125 0.75 0  40
[...]
<PointData  Scalars="f_8-1"> 
<DataArray  type="Float64"  Name="f_8-1"  format="ascii">3.4923819681183004e+05  1.0357764758800648e+05  7.2754422764498740e+05  1.4057197747207883e+04  3.9615326303543872e+05  -6.9930729486959288e+04  -8.0971747534151582e+04  4.3675644565515936e+05  8.5742486914686474e+05  2.2862103849547970e+05  -2.1943273446298891e+05  1.3457901438975849e+05  1.1267216632168095e+05  -7.5156940563602780e+04  4.0516399919990610e+04  9.6830255566808337e+04  -2.1161969162182846e+04  7.3701001065939467e+05  -1.3265381012242145e+05  4.2916260067124030e+05  1.8207762732112018e+05  2.0256526778429523e+05  7.4154941961162694e+04  -4.3570895669225988e+05  -5.6857090037138851e+03  2.4755812436884953e+05  -5.3649076922278677e+05  3.2566778016124724e+05  -9.5927118709384685e+05  1.4030730064208126e+06  3.6660730835167895e+05  -9.9131192697848346e+03  6.7387366580324213e+05  2.5355506942335691e+04  1.3817295732543615e+05  2.0866595621267654e+05  -1.3796734700441940e+05  -7.6019100391277796e+04  2.6691126897181990e+05  2.0637220284942485e+05  -1.8962222644927702e+05  1.4974945834057129e+05  -9.7229061829260987e+04  -3.8313196465392387e+05  -1.1027367847713063e+05  -4.2033780830534606e+05  -5.2196833256281324e+05  -2.4088742182173106e+05  -5.1028465775326389e+05  -3.1184553518387157e+05  -1.1416634327564214e+05  -2.8195030154479679e+05  -5.2653156116890220e+05  -3.4895619745446101e+05  -5.0836670236069890e+05  1.3700373369208598e+05  -5.0790039977865224e+05  -2.1164664116227429e+05  -3.9995614648680278e+05  -3.5626892532042292e+05  -1.1212239831659869e+05  -1.3477157215233889e+05  -2.8095977232011012e+05  -2.5507168454561278e+05  4.7001121833230113e+05  1.3202442194456278e+05  1.9090003496680449e+04  1.9049268085822504e+05  6.6236476294187072e+04  -7.4548742070441379e+05  -3.0317819818752742e+05  -1.0115496239545574e+03  -4.2596686143729696e+05  -1.0211023890298044e+04  -1.9456867321305320e+05  -1.2805434846174161e+05  -5.8785074375328608e+04  1.1802566759546798e+05  1.3022200730361488e+05  -1.8521969918320604e+05  4.5658240818242286e+05  2.5837779258409515e+04  2.0734695016275311e+05  1.8576378902100705e+05  7.1745155552859709e+05  1.4307171057654367e+05  2.1431933791062431e+05  6.0870842109887488e+05  7.7649539968108770e+05  -5.7981813541863870e+05  -1.6906456133530059e+05  -1.8521468761203601e+05  1.5531251375845712e+05  1.2039421371372732e+05  -2.3403976425815615e+05  1.4909961084351974e+05  -8.6699330620806606e+04  3.4573487156464247e+05  -7.7314164963740172e+04  7.8873234911899781e+04  6.1989906017972025e+04  1.3101589728703773e+05  7.7865679885778329e+04  9.3994768905930323e+04  -1.6076175153939406e+05  -2.4163701575534439e+05  -1.3108109538801402e+05  2.1766164411883114e+05  -8.3898494803146878e+05  -5.9963915257513034e+05  3.3606839769363066e+05  3.1112959015407169e+05  7.4131324963598384e+05  8.0486472449837675e+04  2.5848090299945045e+05  7.7896008068232142e+04  1.3764252855494057e+05  -2.1657584043565006e+04  -2.6523291081743059e+05  2.1441173358251259e+05  3.2013686905240949e+05  -2.3375806806145076e+04  -1.3756983268062153e+05  2.5885728525823198e+05  -2.1069787519838649e+05  -1.9979237475326890e+05  3.2675467259202985e+05  -2.8722571038982819e+05  -3.0143347339351318e+05  -1.2279125477630530e+05  -2.5172556342690895e+05  -1.2378151496775661e+05  -7.6229535821448918e+05  -4.1015408499641845e+05  -4.9720874492327386e+05  -5.9551612510288227e+05  -3.8800466475906986e+05  -1.7440940119360734e+05  -3.4243357057843148e+05  -1.9381830079447932e+05  -2.6868971734433598e+05  -1.2373508531283852e+05  -3.0386165171525441e+05  -1.6970956833583521e+05  1.8755076939679592e+05  -7.7309919514982917e+04  -2.3052436571830045e+05  -2.8300023213138869e+04  -2.9151716314845165e+04  -2.3265602278432346e+05  -4.2460092175258964e+04  -4.5120244889712043e+05  2.1686526937837662e+04  4.7726088426357082e+03  -1.5322137863712941e+05  -1.9345924058115639e+05  -8.5158572408816472e+04  -8.7998503327112514e+04  1.7546984548196601e+05  -9.1178149692135557e+03  2.4475293632429576e+05  -1.5973875213877915e+05  -2.2363896822930383e+04  8.5727620529435051e+04  2.5194205383751699e+05  -4.6549360259244531e+03  5.1238112355104189e+04  1.0750116785202282e+05  1.1771918038066840e+05  -7.3507148076297948e+04  -2.2149046009594441e+05  -3.5053694163381011e+05  -1.9137597127690009e+05  -4.0821917096478603e+04  -1.3475773946538506e+05  -1.5515129253775877e+05  -4.0890771190571155e+04  1.8348996682835481e+05  -5.7763672252121127e+04  2.4934205358423898e+05  2.0073142030146165e+05  4.3851845223907949e+04  5.6720075909575266e+04  2.5377747037688503e+05  5.5858806205220972e+04  -1.9624709336323442e+05  -2.0757311716251669e+05  4.6688500263953036e+04  2.0617970461652614e+05  3.7332878033139504e+05  -3.5818176483134250e+05  8.5022506504020374e+05  5.6525850400680141e+05  -2.2411849480840327e+04  -4.9340799918116849e+04  -8.8017735307600902e+04  -3.7332261501650064e+05  2.1864179885240950e+05  -1.6822104338732719e+04  1.3567289904528818e+05  1.6730661796281405e+05  -1.6220223325441417e+05  -2.8338177395442419e+05  -3.4891938631334354e+05  2.6720162888539806e+04  -3.5647800294442277e+04  -1.3681712961019124e+05  4.0927121935582574e+04  -3.5470791330984612e+03  -1.7846601847441529e+05  -4.7946625551376719e+05  3.3073876655409425e+04  -3.0209802165112173e+05  -4.3135991807323421e+05  -1.6142537516056592e+05  -4.5392241671400938e+04  -5.4225950953592930e+05  -7.6297364254562650e+05  -3.4265247401853226e+05  -4.0673793581540219e+05  -1.6397523235602456e+05  -4.1423832542100799e+05  3.4037447470776831e+04  -3.2393057233729673e+05  -2.5396449391680895e+05  -2.1525730671653748e+05  -1.1555296605338069e+05  -2.0665154316826491e+05  8.9832958528090894e+04  1.0619239877356797e+05  -1.1428073201021705e+05  4.1497573240106220e+04  -1.8691213781362792e+05  -1.4832598131763033e+05  2.7727028522050433e+05  -2.1490388831550063e+05  -2.7423425067307538e+05  -1.0378242363241381e+04  -4.4917541768053627e+04  3.2123686155841511e+05  1.3573005464241010e+05  9.2691524235076620e+04  6.5856225780976194e+04  8.5176856308301460e+04  1.3099298333073391e+05  4.1178425849913619e+04  -2.6321588828255681e+03  2.8290588743530010e+05  2.7124604160189701e+01  2.8863622720399875e+04  1.6359394316451007e+05  -5.9463285066455996e+04  1.2428145805266414e+05  -1.7140984132916297e+05  -1.2369391788465901e+05  -1.0062467797629439e+05  -1.2202209702463422e+05  -6.0296093754218091e+04  -2.8666199785144097e+05  2.7641728573610373e+04  2.7886817353996006e+05  7.3560881623027526e+04  5.1332519074895747e+04  1.3036932699752583e+05  3.0083461190471653e+05  6.1443414687401688e+04  -4.8195036132350586e+04  -1.5140669845923709e+05  -3.5986459931994737e+04  -2.2811728273088316e+05  3.9672639381148492e+05  3.1568613512816903e+05  6.4513434757865325e+05  -4.2320210044380990e+04  -2.6814047416163719e+05  -5.6241946127123767e+04  -3.8231064915750071e+05  -2.3132461532386934e+05  2.9508479449097063e+04  1.6511391967905522e+05  -2.0693022108521240e+05  2.2256009717490472e+05  -1.2730651205181365e+05  -2.3328737277945172e+05  -1.0868156215470344e+05  -2.8052625340910139e+05  3.6083198935243105e+04  3.4132690467997047e+05  9.7378010310135083e+04  -3.1387538861380733e+05  -1.1719780283433157e+05  -5.2094602183153608e+05  -2.1075050966838820e+05  -4.3732334498500044e+05  2.5595981005440131e+05  -7.6898519280596098e+04  -3.1516142475835141e+05  -3.8303423584944708e+05  -9.2960227870142949e+05  -7.0180111109640542e+05  -1.7500810895389822e+05  -3.2654100547961111e+05  -4.6106000289614632e+05  -3.7331378697020601e+05  -3.9794885099528718e+05  8.8669664090867562e+04  -6.9639021014022233e+04  1.3279872724641292e+05  2.7564942195323453e+05  2.8609748774705530e+05  -6.5103312890252309e+03  4.2088955656529189e+05  -6.7920667874143313e+04  -2.9724359909796498e+04  6.8445721530926414e+04  1.1240983678514250e+05  1.0709832762325573e+05  -1.0919851959378750e+04  -1.1044077305371733e+05  1.1580339441822162e+05  1.6005574614427908e+05  9.9300232753591321e+04  1.8492202865868382e+05  -1.1571130464044621e+05  -1.7188301565128056e+05  -5.2286562397339192e+04  1.7455193840801288e+05  -1.9784726231128746e+05  -1.4442743513989964e+05  -1.4104631832564931e+05  -6.4872709617348656e+05  -1.5828352855389123e+05  -5.1967452293557813e+04  -1.2969867298653850e+02  2.6870166107905086e+05  1.5005382557956604e+05  -1.9991439160458380e+05  -3.3134688548628421e+05  -7.3893153994446897e+04  3.0658869426964307e+03  2.7242965592446574e+05  2.8007007855376706e+05  7.9431735186595019e+04  1.3591580307341975e+05  8.5794832004502357e+04  1.8994378803785681e+05  4.3209767608233808e+04  5.5926237338074355e+05  -3.9351777137132490e+05  1.5767096796844547e+05  4.3354050195351662e+05  3.2657441810139851e+05  3.7159569722249388e+05  4.4290389870203406e+04  1.1434538188233016e+05  1.7940406487130273e+04  -2.0185889031119616e+05  -2.6950784018510504e+05  7.3103470717382777e+04  8.7764770527290195e+04  -1.7586037640382577e+05  1.6504983501663254e+05  1.4731373631138320e+04  -3.9430483144405618e+04  4.7402700663991462e+04  -1.2572844354083185e+05  4.8211902756522541e+03  2.9639524929240911e+05  2.2363750586690340e+05  2.3117460832056840e+05  -2.8153419157743827e+05  -2.9982264697291708e+05  -1.4132577700657857e+05  -1.5389486123547432e+05  -8.7973602161180170e+04  -8.6096999574471352e+04  1.4180718117520623e+05  -2.7426139000425203e+05  -2.3457747536182535e+05  -4.4279646357237158e+04  -8.0203104544674640e+05  -4.9311868709065719e+05  -3.8590263237039972e+05  -3.9792025654631603e+05  -3.6501163462567807e+05  -8.9991509284966683e+04  -1.3666482076735646e+05  2.0550297147146668e+05  -8.4989721688450067e+04  -7.6561090005255173e+04  -1.6466764700439022e+05  1.2798178038048674e+05  -4.6213288624395261e+05  3.8221875551768047e+04  -8.3154079344554993e+04  1.0783008228150292e+05  -1.7104559620290838e+04  -1.6700929464091538e+05  5.9292313796811264e+04  -1.9587416123119928e+05  1.2323903254618723e+05  1.1811943025623192e+05  1.3132454637122905e+05  2.3304334488664335e+05  -1.5336099658880799e+04  9.8843051321531428e+04  -6.3404790663226420e+04  -3.7870790975799307e+05  -1.7183250930417224e+05  -1.1000924712633730e+05  -2.9221742175777612e+05  -1.5813625693991524e+05  -3.4149823269591834e+04  -2.8736116213745432e+05  -4.4401073967290045e+04  -2.7151836285187467e+05  -2.8238420988514722e+03  -4.6362387851372431e+05  1.9352087610397593e+05  -1.5363628715346163e+05  2.2785653018883007e+04  1.6257810648533682e+05  4.9219240428715333e+04  6.0008669441957492e+04  2.9849108784454671e+05  -5.1036957693759046e+04  3.5191472845729359e+05  3.8244264242346202e+04  1.4388803948032219e+05  5.5675961177746693e+04  3.5457023105986715e+04  -1.4195523608208814e+05  -2.7364483744932583e+05  -1.1371433803390489e+05  4.3221899042260171e+04  -1.3205946109765842e+04  7.0121404192660339e+04  -1.6089261914234454e+05  1.8348853351394832e+05  -3.0273984580589551e+05  -1.6565890752280713e+05  8.6377417850463476e+04  1.6903621270066471e+05  1.2239475542194636e+05  -1.0675949918555786e+05  -2.8716318261142122e+05  1.7333110500135637e+05  -2.4750733217404017e+05  -6.9224779440787475e+04  -3.2633035920872033e+05  -5.3845955117135134e+05  -2.3582027442713652e+05  -1.0840599035638011e+05  -1.8574946758327773e+05  -2.5407934466856538e+05  -1.8550913708783386e+05  -2.1439888373058170e+05  3.8312287214804575e+05  -4.9096872523318176e+04  2.7120444262370991e+05  9.1428452906560735e+04  -5.9102303021544439e+05  -3.8126555973717722e+05  -5.9644255214929988e+05  -3.2547272051619195e+04  1.2928051360164677e+05  2.0229940457512933e+05  -1.3728793169031627e+04  2.0294956674951373e+05  1.6870334881260264e+05  -1.2630397678509091e+04  -2.7375778423764365e+05  7.5539275250874605e+04  1.4811504765588325e+05  3.0769080347509083e+05  2.6378537086624617e+05  1.8084534988826510e+05  5.4689278319006681e+05  -1.8291756351062685e+05  -7.1422157397655450e+04  1.8536200511093489e+03  3.0397435525245126e+05  7.8581389732740616e+04  1.5121597692001145e+05  -3.0006687182497582e+05  -4.7982844842691586e+04  2.0651518321490974e+04  -3.1984625975054598e+04  -5.2298751894363093e+04  -1.7661604430573931e+04  2.8932727546603906e+04  -2.8491879460218351e+05  -5.8083734727962474e+03  1.5609036598087524e+05  1.3376938470924890e+05  9.9512563257896778e+04  -3.1692462973544374e+05  -3.8032809919608966e+05  -1.1228671583630810e+05  -9.8495319856839880e+04  -5.4454684620713058e+04  1.1935868139043347e+05  1.2523390795108084e+05  -2.1681184596842064e+04  1.0627086047702646e+05  7.2964834773567476e+04  9.8965705992607443e+04  4.3842691800462591e+04  2.1653514749641705e+05  -1.7297387756805139e+05  1.4339042046492259e+05  4.0320932671696210e+04  -2.2397386130422191e+05  -1.7464639030254702e+05  1.0444071418114856e+05  -1.4799197686870984e+05  1.7107520095132891e+05  -2.9559219303652737e+05  -7.0607487352833399e+04  -1.4675879963180687e+04  -2.7261947605420352e+05  6.5571400462865378e+04  -3.3156336409871830e+04  1.2761376335243472e+05  -6.7672964096136420e+04  -1.2373864369787385e+05  -7.6544109855235991e+04  -9.6005897720363035e+04  -3.6787919788744452e+05  -1.4146201756955574e+04  -1.0254565165556414e+05  -4.7330448677167966e+05  -7.5541384965574092e+04  -5.1782577340525531e+03  -3.2193665553893923e+05  -4.0649040036360483e+05  -1.9046479667074850e+05  2.9636202907382936e+04  2.8263422606227116e+05  -1.2036197223928291e+05  2.7009994583055144e+05  -4.6356595666743896e+05  1.3282597409928060e+05  -3.1840495387601358e+05  -3.3265628613225929e+05  -7.4482190039119931e+04  2.7071688079915952e+05  -1.1018646151328374e+05  -8.3552296915295956e+03  -7.1621968531960636e+04  -1.6700892002346084e+05  -6.9419731393154754e+04  -1.2561944873275839e+05  -9.7766178433056150e+04  1.2431887721895878e+05  -1.2326851220151666e+04  1.3991450108379510e+05  3.0026074013587815e+05  -2.8292586809618742e+05  -1.3824327943632283e+05  -1.2469465226244842e+05  9.7743777814548885e+04  4.3997440444152198e+04  -4.6608431803912054e+03  1.7263253170860586e+04  -8.8393535894184053e+04  6.8022080879400688e+04  -1.0774744708877708e+04  -6.6716805436932918e+04  -1.3113634185754036e+05  -1.6240685362600823e+05  -5.8591249393909793e+03  1.0716097498356372e+05  -1.1592876625857887e+04  2.2452820205823623e+05  1.2952252757950311e+04  -9.4007956442024981e+04  -3.4195503525674576e+05  4.8426165121628139e+04  1.1744169880837135e+04  8.3036893736404541e+04  1.2857067394654189e+05  -4.6225001887443024e+04  8.6822202512292293e+04  9.3143884118463800e+04  6.3127715879573872e+04  1.1102179585351498e+05  6.9832758605236901e+04  1.6849585467137109e+04  -4.0071110367225029e+05  -1.8436837476666106e+05  9.5914318492146180e+04  -1.4484631774824897e+04  -1.5613152618221013e+04  -1.7665814746366805e+05  9.2524678541265457e+04  2.0194791815428118e+02  1.1216739380553020e+05  1.3594977100182400e+05  -1.6408043397892005e+05  -1.6021998734745651e+05  -1.8809901128968663e+05  -1.4637025944748515e+05  4.4287485875684746e+04  -1.3648519315571134e+05  -2.2153772335353281e+05  1.1579363760238173e+03  -1.8568212873972734e+05  1.6566163420548619e+04  -5.7450767943580184e+04  5.8985144483905598e+04  -2.5923951623881218e+05  -9.2695555309934280e+04  -1.9918366691183174e+05  4.3888754444496147e+05  -2.3212138899828255e+05  -3.5515130544797098e+05  2.7928551835981326e+05  -3.8857597036068764e+05  -8.5931016171105366e+04  -9.3585976119940460e+04  -1.3734953995049416e+05  -1.4745024607507887e+05  -4.8956108870652079e+05  -3.9743253178545466e+05  -7.0379806003520556e+04  9.4357237634813006e+04  9.2067876634050306e+04  -4.0382120453758944e+04  -3.8556857190973463e+05  -3.1455239235384164e+04  -5.9407047572285512e+04  1.3303395163018693e+05  -2.4729497697432405e+04  -1.0289062399046405e+05  -2.3606419698852827e+05  3.9534170172985532e+03  2.5998882608166541e+05  -3.8331820246865227e+03  2.1360927688975155e+05  -1.5548110653467459e+05  7.0754915877587395e+04  6.9883676338177291e+04  -5.4224063442293700e+04  -6.4220575190819080e+04  -1.7379226841291471e+05  1.7640575642569740e+04  4.7898451224194505e+03  5.9104715565194265e+03  2.1340657083708378e+04  -2.3790605642727183e+04  -5.7129071727275557e+04  4.6090710542975299e+04  -4.5318566738583222e+03  -1.5100657155123377e+04  3.0160968648361020e+04  1.8880159732833723e+04  -5.2696404619046851e+04  1.5071119247113544e+05  -7.9811923420228544e+04  -3.7601367998547015e+04  7.3400521515593045e+03  2.5327079732332899e+04  -5.2446568037802812e+04  1.2335971455131492e+04  -1.6822446064456464e+04  4.3637178821318666e+04  9.4134493041739024e+03  5.0758584724299690e+03  -1.9830209007846101e+04  1.2817645819231160e+04  -6.2586809071730226e+04  -1.7598375858022329e+04  1.0471333432533609e+04  -8.6440370348562064e+04  5.1611064143239513e+04  -2.0651876430778448e+03  5.1345980735702826e+04  -1.7325657473941508e+04  -4.9229730865022990e+04  7.3259837417816861e+03  -1.3172766545209658e+05  4.9862561210413362e+04  -9.2001467730513439e+04  2.8335886736264150e+04  -2.1135829528084199e+04  5.3194193012984542e+04  3.7122585161030411e+03  -1.1884721435125261e+04  5.0935693582879088e+04  -2.9550475190779616e+04  -9.1940740434042327e+03  5.1200980793270632e+04  -5.2165815622196627e+04  -7.7038110088571528e+04  -4.1239395957263601e+04  8.6174202067941569e+03  -8.4324469589917673e+04  -2.4750719794549086e+03  8.9930759390605381e+04  5.3909090772069634e+04  -1.0372220243428681e+04  3.0517792441558515e+04  -1.6288667142679569e+04  -6.8471285186400375e+04  -1.3326499523704892e+05  -1.6460158542220620e+05  -1.4458460176787418e+05  2.1963138734652929e+05  -1.9438406917248110e+05  -1.3336073985993172e+05  3.0042764864617615e+05  -2.3512025460807048e+05  -1.0802752247443440e+05  -6.9597676476555062e+03  6.5626299047195280e+04  -3.3525997420911262e+04  1.0349739240280034e+05  -3.0517488046122020e+04  -5.9667640741688854e+04  9.7810650841678711e+04  -7.5338182994158269e+04  -3.5196528982727563e+04  7.7438426252727208e+04  -8.4436106537478074e+04  -1.0100321818819309e+05  -5.1345973951226420e+04  3.2428037784642231e+04  -6.8289179990771780e+04  2.7980350592887588e+05  3.2026935461258580e+05  2.7664183426548407e+05  2.9235154442602448e+05  1.7796370456001855e+05  -3.6158342514181270e+04  4.9991198564606730e+05  5.8377332945489872e+05  5.9372608063209809e+04  -3.9018759140278411e+05  -3.4233499025042627e+04  3.2270481027327979e+05  6.3060523738265336e+04  -1.0757670469945981e+05  7.9962315612274222e+04  4.5671448033005372e+05  6.7751266607519879e+05  -1.9925750806190865e+03  2.0125822618441039e+05  -4.9221669838103066e+04  1.7971689539134718e+05  5.3196494044868334e+04  -6.9231767555678030e+04  -2.0550946976261993e+05  1.0842925371244612e+05  -8.2598903678945324e+04  -2.1668229979064883e+05  3.0566128113293630e+05  1.0947594528809316e+06  1.1135098074526258e+05  1.3102718919704914e+05  5.4409942352371756e+05  1.1448125603089220e+05  -2.8589303627096856e+05  1.6586467440417103e+05  8.4763756599257444e+05  5.5941085340392240e+05  -8.4291401877778735e+03  1.7797910070355184e+05  -1.5947235604575058e+05  -4.6539127925871062e+05  3.4122028117153321e+04  -2.5280320661306334e+04  -2.8403887036491680e+05  -2.3004747280589450e+05  -1.4517465876955155e+05  -3.6312368649354845e+05  1.8638344381390547e+05  -3.6813726205996273e+05  4.9815557551979931e+05  -2.3638427261966301e+05  -1.2890615387907026e+05  -4.2820855368749308e+05  -5.5577639334194432e+05  -5.1058187980177288e+05  -1.3843873669593927e+05  -5.6802646699972590e+05  -4.5072990340394765e+05  -6.1015486622432759e+05  -1.5442019679630836e+05  -3.2134173412363270e+04  -4.1232797681308317e+05  -8.6515950981704547e+04  -6.3489131843733345e+05  -1.6363587103317829e+05  2.1436514925834167e+05  1.7987533613621388e+05  4.6864519442799833e+05  -2.7859264115705701e+04  -6.9609249131959386e+05  -4.0851262203690835e+05  -1.8759593245616605e+05  3.2173044022195812e+04  -1.4208866931318029e+05  -1.1764088809047453e+05  -6.1650116311040081e+04  7.8145943675458053e+04  2.1022867580529285e+05  1.4223469940845581e+05  1.1319034837955549e+04  3.1409630992896709e+04  -2.44351947100