<?xml version="1.0"?>
<VTKFile type="UnstructuredGrid"  version="0.1"  >
<UnstructuredGrid>
<Piece  NumberOfPoints="1369" NumberOfCells="2560">
<Points>
<DataArray  type="Float64"  NumberOfComponents="3"  format="ascii">0 0 0  0.75 0 0  1.5 0 0  2.25 0 0  3 0 0  3.75 0 0  4.5 0 0  5.25 0 0  6 0 0  6.75 0 0  7.5 0 0  8.25 0 0  9 0 0  9.75 0 0  10.5 0 0  11.25 0 0  12 0 0  12.75 0 0  13.5 0 0  14.25 0 0  15 0 0  15.75 0 0  16.5 0 0  17.25 0 0  18 0 0  18.75 0 0  19.5 0 0  20.25 0 0  21 0 0  21.75 0 0  22.5 0 0  23.25 0 0  24 0 0  24.75 0 0  25.5 0 0  26.25 0 0  27 0 0  27.75 0 0  28.5 0 0  29.25 0 0  30 0 0  30.75 0 0  31.5 0 0  32.25 0 0  33 0 0  33.75 0 0  34.5 0 0  35.25 0 0  36 0 0  36.75 0 0  37.5 0 0  38.25 0 0  39 0 0  39.75 0 0  40.5 0 0  41.25 0 0  42 0 0  42.75 0 0  43.5 0 0  44.25 0 0  45 0 0  45.75 0 0  46.5 0 0  47.25 0 0  48 0 0  48.75 0 0  49.5 0 0  50.25 0 0  51 0 0  51.75 0 0  52.5 0 0  53.25 0 0  54 0 0  54.75 0 0  55.5 0 0  56.25 0 0  57 0 0  57.75 0 0  58.5 0 0  59.25 0 0  60 0 0  0 0.5 0  0.75 0.5 0  1.5 0.5 0  2.25 0.5 0  3 0.5 0  3.75 0.5 0  4.5 0.5 0  5.25 0.5 0  6 0.5 0  6.75 0.5 0  7.5 0.5 0  8.25 0.5 0  9 0.5 0  9.75 0.5 0  10.5 0.5 0  11.25 0.5 0  12 0.5 0  12.75 0.5 0  13.5 0.5 0  14.25 0.5 0  15 0.5 0  15.75 0.5 0  16.5 0.5 0  17.25 0.5 0  18 0.5 0  18.75 0.5 0  19.5 0.5 0  20.25 0.5 0  21 0.5 0  21.75 0.5 0  22.5 0.5 0  23.25 0.5 0  24 0.5 0  24.75 0.5 0  25.5 0.5 0  26.25 0.5 0  27 0.5 0  27.75 0.5 0  28.5 0.5 0  29.25 0.5 0  30 0.5 0  30.75 0.5 0  31.5 0.5 0  32.25 0.5 0  33 0.5 0  33.75 0.5 0  34.5 0.5 0  35.25 0.5 0  36 0.5 0  36.75 0.5 0  37.5 0.5 0  38.25 0.5 0  39 0.5 0  39.75 0.5 0  40.5 0.5 0  41.25 0.5 0  42 0.5 0  42.75 0.5 0  43.5 0.5 0  44.25 0.5 0  45 0.5 0  45.75 0.5 0  46.5 0.5 0  47.25 0.5 0  48 0.5 0  48.75 0.5 0  49.5 0.5 0  50.25 0.5 0  51 0.5 0  51.75 0.5 0  52.5 0.5 0  53.25 0.5 0  54 0.5 0  54.75 0.5 0  55.5 0.5 0  56.25 0.5 0  57 0.5 0  57.75 0.5 0  58.5 0.5 0  59.25 0.5 0  60 0.5 0  0 1 0  0.75 1 0  1.5 1 0  2.25 1 0  3 1 0  3.75 1 0  4.5 1 0  5.25 1 0  6 1 0  6.75 1 0  7.5 1 0  8.25 1 0  9 1 0  9.75 1 0  10.5 1 0  11.25 1 0  12 1 0  12.75 1 0  13.5 1 0  14.25 1 0  15 1 0  15.75 1 0  16.5 1 0  17.25 1 0  18 1 0  18.75 1 0  19.5 1 0  20.25 1 0  21 1 0  21.75 1 0  22.5 1 0  23.25 1 0  24 1 0  24.75 1 0  25.5 1 0  26.25 1 0  27 1 0  27.75 1 0  28.5 1 0  29.25 1 0  30 1 0  30.75 1 0  31.5 1 0  32.25 1 0  33 1 0  33.75 1 0  34.5 1 0  35.25 1 0  36 1 0  36.75 1 0  37.5 1 0  38.25 1 0  39 1 0  39.75 1 0  40.5 1 0  41.25 1 0  42 1 0  42.75 1 0  43.5 1 0  44.25 1 0  45 1 0  45.75 1 0  46.5 1 0  47.25 1 0  48 1 0  48.75 1 0  49.5 1 0  50.25 1 0  51 1 0  51.75 1 0  52.5 1 0  53.25 1 0  54 1 0  54.75 1 0  55.5 1 0  56.25 1 0  57 1 0  57.75 1 0  58.5 1 0  59.25 1 0  60 1 0  0 1.5 0  0.75 1.5 0  1.5 1.5 0  2.25 1.5 0  3 1.5 0  3.75 1.5 0  4.5 1.5 0  5.25 1.5 0  6 1.5 0  6.75 1.5 0  7.5 1.5 0  8.25 1.5 0  9 1.5 0  9.75 1.5 0  10.5 1.5 0  11.25 1.5 0  12 1.5 0  12.75 1.5 0  13.5 1.5 0  14.25 1.5 0  15 1.5 0  15.75 1.5 0  16.5 1.5 0  17.25 1.5 0  18 1.5 0  18.75 1.5 0  19.5 1.5 0  20.25 1.5 0  21 1.5 0  21.75 1.5 0  22.5 1.5 0  23.25 1.5 0  24 1.5 0  24.75 1.5 0  25.5 1.5 0  26.25 1.5 0  27 1.5 0  27.75 1.5 0  28.5 1.5 0  29.25 1.5 0  30 1.5 0  30.75 1.5 0  31.5 1.5 0  32.25 1.5 0  33 1.5 0  33.75 1.5 0  34.5 1.5 0  35.25 1.5 0  36 1.5 0  36.75 1.5 0  37.5 1.5 0  38.25 1.5 0  39 1.5 0  39.75 1.5 0  40.5 1.5 0  41.25 1.5 0  42 1.5 0  42.75 1.5 0  43.5 1.5 0  44.25 1.5 0  45 1.5 0  45.75 1.5 0  46.5 1.5 0  47.25 1.5 0  48 1.5 0  48.75 1.5 0  49.5 1.5 0  50.25 1.5 0  51 1.5 0  51.75 1.5 0  52.5 1.5 0  53.25 1.5 0  54 1.5 0  54.75 1.5 0  55.5 1.5 0  56.25 1.5 0  57 1.5 0  57.75 1.5 0  58.5 1.5 0  59.25 1.5 0  60 1.5 0  0 2 0  0.75 2 0  1.5 2 0  2.25 2 0  3 2 0  3.75 2 0  4.5 2 0  5.25 2 0  6 2 0  6.75 2 0  7.5 2 0  8.25 2 0  9 2 0  9.75 2 0  10.5 2 0  11.25 2 0  12 2 0  12.75 2 0  13.5 2 0  14.25 2 0  15 2 0  15.75 2 0  16.5 2 0  17.25 2 0  18 2 0  18.75 2 0  19.5 2 0  20.25 2 0  21 2 0  21.75 2 0  22.5 2 0  23.25 2 0  24 2 0  24.75 2 0  25.5 2 0  26.25 2 0  27 2 0  27.75 2 0  28.5 2 0  29.25 2 0  30 2 0  30.75 2 0  31.5 2 0  32.25 2 0  33 2 0  33.75 2 0  34.5 2 0  35.25 2 0  36 2 0  36.75 2 0  37.5 2 0  38.25 2 0  39 2 0  39.75 2 0  40.5 2 0  41.25 2 0  42 2 0  42.75 2 0  43.5 2 0  44.25 2 0  45 2 0  45.75 2 0  46.5 2 0  47.25 2 0  48 2 0  48.75 2 0  49.5 2 0  50.25 2 0  51 2 0  51.75 2 0  52.5 2 0  53.25 2 0  54 2 0  54.75 2 0  55.5 2 0  56.25 2 0  57 2 0  57.75 2 0  58.5 2 0  59.25 2 0  60 2 0  0 2.5 0  0.75 2.5 0  1.5 2.5 0  2.25 2.5 0  3 2.5 0  3.75 2.5 0  4.5 2.5 0  5.25 2.5 0  6 2.5 0  6.75 2.5 0  7.5 2.5 0  8.25 2.5 0  9 2.5 0  9.75 2.5 0  10.5 2.5 0  11.25 2.5 0  12 2.5 0  12.75 2.5 0  13.5 2.5 0  14.25 2.5 0  15 2.5 0  15.75 2.5 0  16.5 2.5 0  17.25 2.5 0  18 2.5 0  18.75 2.5 0  19.5 2.5 0  20.25 2.5 0  21 2.5 0  21.75 2.5 0  22.5 2.5 0  23.25 2.5 0  24 2.5 0  24.75 2.5 0  25.5 2.5 0  26.25 2.5 0  27 2.5 0  27.75 2.5 0  28.5 2.5 0  29.25 2.5 0  30 2.5 0  30.75 2.5 0  31.5 2.5 0  32.25 2.5 0  33 2.5 0  33.75 2.5 0  34.5 2.5 0  35.25 2.5 0  36 2.5 0  36.75 2.5 0  37.5 2.5 0  38.25 2.5 0  39 2.5 0  39.75 2.5 0  40.5 2.5 0  41.25 2.5 0  42 2.5 0  42.75 2.5 0  43.5 2.5 0  44.25 2.5 0  45 2.5 0  45.75 2.5 0  46.5 2.5 0  47.25 2.5 0  48 2.5 0  48.75 2.5 0  49.5 2.5 0  50.25 2.5 0  51 2.5 0  51.75 2.5 0  52.5 2.5 0  53.25 2.5 0  54 2.5 0  54.75 2.5 0  55.5 2.5 0  56.25 2.5 0  57 2.5 0  57.75 2.5 0  58.5 2.5 0  59.25 2.5 0  60 2.5 0  0 3 0  0.75 3 0  1.5 3 0  2.25 3 0  3 3 0  3.75 3 0  4.5 3 0  5.25 3 0  6 3 0  6.75 3 0  7.5 3 0  8.25 3 0  9 3 0  9.75 3 0  10.5 3 0  11.25 3 0  12 3 0  12.75 3 0  13.5 3 0  14.25 3 0  15 3 0  15.75 3 0  16.5 3 0  17.25 3 0  18 3 0  18.75 3 0  19.5 3 0  20.25 3 0  21 3 0  21.75 3 0  22.5 3 0  23.25 3 0  24 3 0  24.75 3 0  25.5 3 0  26.25 3 0  27 3 0  27.75 3 0  28.5 3 0  29.25 3 0  30 3 0  30.75 3 0  31.5 3 0  32.25 3 0  33 3 0  33.75 3 0  34.5 3 0  35.25 3 0  36 3 0  36.75 3 0  37.5 3 0  38.25 3 0  39 3 0  39.75 3 0  40.5 3 0  41.25 3 0  42 3 0  42.75 3 0  43.5 3 0  44.25 3 0  45 3 0  45.75 3 0  46.5 3 0  47.25 3 0  48 3 0  48.75 3 0  49.5 3 0  50.25 3 0  51 3 0  51.75 3 0  52.5 3 0  53.25 3 0  54 3 0  54.75 3 0  55.5 3 0  56.25 3 0  57 3 0  57.75 3 0  58.5 3 0  59.25 3 0  60 3 0  0 3.5 0  0.75 3.5 0  1.5 3.5 0  2.25 3.5 0  3 3.5 0  3.75 3.5 0  4.5 3.5 0  5.25 3.5 0  6 3.5 0  6.75 3.5 0  7.5 3.5 0  8.25 3.5 0  9 3.5 0  9.75 3.5 0  10.5 3.5 0  11.25 3.5 0  12 3.5 0  12.75 3.5 0  13.5 3.5 0  14.25 3.5 0  15 3.5 0  15.75 3.5 0  16.5 3.5 0  17.25 3.5 0  18 3.5 0  18.75 3.5 0  19.5 3.5 0  20.25 3.5 0  21 3.5 0  21.75 3.5 0  22.5 3.5 0  23.25 3.5 0  24 3.5 0  24.75 3.5 0  25.5 3.5 0  26.25 3.5 0  27 3.5 0  27.75 3.5 0  28.5 3.5 0  29.25 3.5 0  30 3.5 0  30.75 3.5 0  31.5 3.5 0  32.25 3.5 0  33 3.5 0  33.75 3.5 0  34.5 3.5 0  35.25 3.5 0  36 3.5 0  36.75 3.5 0  37.5 3.5 0  38.25 3.5 0  39 3.5 0  39.75 3.5 0  40.5 3.5 0  41.25 3.5 0  42 3.5 0  42.75 3.5 0  43.5 3.5 0  44.25 3.5 0  45 3.5 0  45.75 3.5 0  46.5 3.5 0  47.25 3.5 0  48 3.5 0  48.75 3.5 0  49.5 3.5 0  50.25 3.5 0  51 3.5 0  51.75 3.5 0  52.5 3.5 0  53.25 3.5 0  54 3.5 0  54.75 3.5 0  55.5 3.5 0  56.25 3.5 0  57 3.5 0  57.75 3.5 0  58.5 3.5 0  59.25 3.5 0  60 3.5 0  0 4 0  0.75 4 0  1.5 4 0  2.25 4 0  3 4 0  3.75 4 0  4.5 4 0  5.25 4 0  6 4 0  6.75 4 0  7.5 4 0  8.25 4 0  9 4 0  9.75 4 0  10.5 4 0  11.25 4 0  12 4 0  12.75 4 0  13.5 4 0  14.25 4 0  15 4 0  15.75 4 0  16.5 4 0  17.25 4 0  18 4 0  18.75 4 0  19.5 4 0  20.25 4 0  21 4 0  21.75 4 0  22.5 4 0  23.25 4 0  24 4 0  24.75 4 0  25.5 4 0  26.25 4 0  27 4 0  27.75 4 0  28.5 4 0  29.25 4 0  30 4 0  30.75 4 0  31.5 4 0  32.25 4 0  33 4 0  33.75 4 0  34.5 4 0  35.25 4 0  36 4 0  36.75 4 0  37.5 4 0  38.25 4 0  39 4 0  39.75 4 0  40.5 4 0  41.25 4 0  42 4 0  42.75 4 0  43.5 4 0  44.25 4 0  45 4 0  45.75 4 0  46.5 4 0  47.25 4 0  48 4 0  48.75 4 0  49.5 4 0  50.25 4 0  51 4 0  51.75 4 0  52.5 4 0  53.25 4 0  54 4 0  54.75 4 0  55.5 4 0  56.25 4 0  57 4 0  57.75 4 0  58.5 4 0  59.25 4 0  60 4 0  0.375 0.25 0  1.125 0.25 0  1.875 0.25 0  2.625 0.25 0  3.375 0.25 0  4.125 0.25 0  4.875 0.25 0  5.625 0.25 0  6.375 0.25 0  7.125 0.25 0  7.875 0.25 0  8.625 0.25 0  9.375 0.25 0  10.125 0.25 0  10.875 0.25 0  11.625 0.25 0  12.375 0.25 0  13.125 0.25 0  13.875 0.25 0  14.625 0.25 0  15.375 0.25 0  16.125 0.25 0  16.875 0.25 0  17.625 0.25 0  18.375 0.25 0  19.125 0.25 0  19.875 0.25 0  20.625 0.25 0  21.375 0.25 0  22.125 0.25 0  22.875 0.25 0  23.625 0.25 0  24.375 0.25 0  25.125 0.25 0  25.875 0.25 0  26.625 0.25 0  27.375 0.25 0  28.125 0.25 0  28.875 0.25 0  29.625 0.25 0  30.375 0.25 0  31.125 0.25 0  31.875 0.25 0  32.625 0.25 0  33.375 0.25 0  34.125 0.25 0  34.875 0.25 0  35.625 0.25 0  36.375 0.25 0  37.125 0.25 0  37.875 0.25 0  38.625 0.25 0  39.375 0.25 0  40.125 0.25 0  40.875 0.25 0  41.625 0.25 0  42.375 0.25 0  43.125 0.25 0  43.875 0.25 0  44.625 0.25 0  45.375 0.25 0  46.125 0.25 0  46.875 0.25 0  47.625 0.25 0  48.375 0.25 0  49.125 0.25 0  49.875 0.25 0  50.625 0.25 0  51.375 0.25 0  52.125 0.25 0  52.875 0.25 0  53.625 0.25 0  54.375 0.25 0  55.125 0.25 0  55.875 0.25 0  56.625 0.25 0  57.375 0.25 0  58.125 0.25 0  58.875 0.25 0  59.625 0.25 0  0.375 0.75 0  1.125 0.75 0  1.875 0.75 0  2.625 0.75 0  3.375 0.75 0  4.125 0.75 0  4.875 0.75 0  5.625 0.75 0  6.375 0.75 0  7.125 0.75 0  7.875 0.75 0  8.625 0.75 0  9.375 0.75 0  10.125 0.75 0  10.875 0.75 0  11.625 0.75 0  12.375 0.75 0  13.125 0.75 0  13.875 0.75 0  14.625 0.75 0  15.375 0.75 0  16.125 0.75 0  16.875 0.75 0  17.625 0.75 0  18.375 0.75 0  19.125 0.75 0  19.875 0.75 0  20.625 0.75 0  21.375 0.75 0  22.125 0.75 0  22.875 0.75 0  23.625 0.75 0  24.375 0.75 0  25.125 0.75 0  25.875 0.75 0  26.625 0.75 0  27.375 0.75 0  28.125 0.75 0  28.875 0.75 0  29.625 0.75 0  30.375 0.75 0  31.125 0.75 0  31.875 0.75 0  32.625 0.75 0  33.375 0.75 0  34.125 0.75 0  34.875 0.75 0  35.625 0.75 0  36.375 0.75 0  37.125 0.75 0  37.875 0.75 0  38.625 0.75 0  39.375 0.75 0  40.125 0.75 0  40
[...]
<PointData  Scalars="f_8-1"> 
<DataArray  type="Float64"  Name="f_8-1"  format="ascii">-1.9151497699484080e+06  7.6602966275021477e+04  -2.7363809231965686e+06  2.4860636609757352e+06  -1.6259695371593088e+06  2.5061897512704798e+05  -2.6397130994284987e+06  1.9724799545365518e+06  4.9992437837835681e+06  -5.3902762961384589e+06  -2.4438433098425115e+06  -3.0201759133185120e+05  -1.5954472223511329e+06  -2.9401434646573635e+06  -1.9675978544843227e+06  -4.8320639491706025e+06  -4.8394050862052282e+06  -1.4694354723612734e+06  -1.6400086937325541e+06  3.1218490058556490e+05  3.7424681779000266e+06  4.6954398021659805e+06  2.2243091875351854e+06  2.5997607394739599e+06  1.9293866767155312e+06  2.0332524417272757e+06  -5.9507760746941539e+06  -6.6845044970157137e+06  -3.5101613915296998e+06  -2.9570191414335654e+06  -3.4551899766600260e+05  -6.2589993573881569e+05  5.2952503766614292e+05  -6.6462760217958572e+05  1.6664712827741064e+06  -2.1068844750476783e+05  1.3514544154341635e+06  1.0450899618350978e+06  1.4593857662245375e+06  1.0509125351437777e+06  5.4550568800613401e+05  3.7294943843805051e+05  1.0333429237721558e+06  1.5664376605693484e+06  6.4070436155652278e+05  7.9550023310430266e+05  5.0700926697875460e+05  8.5366885535261899e+04  1.6339514931304069e+05  -2.9656131025994569e+05  7.2471292931052286e+05  1.0512478640172291e+06  4.6975764528163127e+05  2.7624385980603221e+05  3.1854637715491751e+05  -1.1383195161142426e+06  -1.0889430817316312e+06  -8.2791926600783202e+05  -5.2617442821781000e+05  -7.6732379894437516e+04  -1.6475025696900321e+05  -1.0319716528932562e+06  1.1276071040277975e+06  1.5005683925628611e+06  -1.8592382660985861e+06  1.3090274226834546e+06  -1.3244638863785681e+06  -2.5030158502590514e+05  6.1325361190063064e+05  2.0487324560742725e+06  8.4736925341578713e+05  -3.3032460974914551e+05  7.2013667673493235e+05  8.7129893186206033e+05  1.0912901766061701e+06  1.5938243677186085e+04  8.6236253414068546e+05  -1.1225124702595887e+06  -5.0813096347367642e+06  1.7726484897069884e+06  4.5563599000810217e+06  -5.4800700143670011e+05  -7.5841203480210307e+05  1.1734078901787165e+05  -2.0232880562073187e+04  -6.9394543441437907e+05  -2.1295587605945254e+06  5.1987118460392696e+04  2.9892799968052618e+06  -8.3779589895655643e+06  -2.9201375057344427e+06  -1.1216610927752154e+06  -1.3218003401276743e+05  -1.7003179794512345e+06  -3.0828681084323958e+06  -1.1634845689107331e+05  -6.4261590284199221e+06  -4.7392097409934243e+06  -1.8995757004134015e+06  -9.4024976514565863e+05  1.5316250391411532e+06  6.2509851861126907e+05  3.3575667768470282e+06  1.5644358520862109e+06  1.5783779054714448e+06  3.1683485727195204e+06  -1.6394564321723313e+05  -3.0461028134151604e+06  -8.4177127088754214e+06  1.3525949873624798e+06  -3.7816036742665097e+06  -7.4549120843925769e+05  -1.4190418759705427e+06  -1.2785466929996326e+06  -2.8314240692864422e+05  1.0202055944181875e+06  -3.5937938109329180e+05  1.3802197615522158e+06  9.1657396965256089e+05  1.4173395473782024e+06  1.3179032998556653e+06  8.3909587674624380e+05  8.0078300270025060e+05  2.4685009235476758e+05  7.4227986714811053e+05  7.2037762353937828e+05  8.8070853490922588e+05  2.5167331867964388e+05  5.8597006842904317e+05  4.6535034025683801e+05  1.9126274253913574e+05  3.3048784954465035e+05  6.3116969756815722e+05  1.1492873093612197e+04  -1.3478957037600403e+05  8.2626410699792125e+05  5.6000803717437771e+05  3.3651942613214941e+05  5.2139475266900327e+05  4.1589151413219742e+05  -1.2687728603039235e+06  -1.4622478880491068e+06  1.3375907274496181e+04  1.9242025846116751e+05  9.1238412132081611e+05  -2.2103646191808046e+05  1.4582616158640829e+06  -5.9260756952728894e+04  3.1331322459134768e+05  -3.5800286857274035e+05  8.6986731501130771e+05  8.1758920596774167e+05  4.7979115528773586e+05  1.9018864472374050e+06  1.1409490839916114e+06  8.9969409695318213e+05  1.0735193539467657e+06  -1.0282587799396216e+06  1.5162917892205031e+06  -2.0166695151825761e+06  8.4458675945453588e+06  4.5956999603074807e+05  7.0607613611778000e+05  -6.5658748490010167e+05  5.2664232901291596e+05  1.0884041807029669e+06  -5.6706535578064062e+05  -1.5492812634712262e+06  -2.4465941381899752e+06  -1.6745837924466592e+06  -1.4312873036350892e+06  -1.0428927792796980e+06  1.4535098244133529e+06  -8.4938026190850046e+05  -2.7040318903033627e+05  -3.3987025186353815e+06  -1.6001127282715961e+06  -2.0338249214453299e+06  -8.1392209214121534e+05  -1.7480257904612049e+06  1.3560846204980044e+06  2.9350420639567528e+04  -2.9192913463331671e+06  2.8631310651828987e+06  -2.6481788395503554e+04  2.3335951538751731e+06  6.6613382485765673e+05  1.2916087545372727e+06  -2.8104339434016310e+05  -5.9052508010271308e+05  8.2125568947918713e+05  -1.2898675985016364e+06  -5.4406955041952047e+05  -5.2271186842494155e+05  -2.1702957857822492e+06  -2.9042665005219396e+05  6.1518137772564578e+05  1.4143481782149104e+06  2.2918588790988622e+05  1.6706650357630968e+06  1.4655751663620889e+06  7.7316545451671630e+05  1.1760660775589044e+06  1.4158553361943816e+06  8.1095184578984010e+05  5.0037160242728249e+05  1.3406838919469367e+06  2.8311291270275996e+05  6.1142639066698721e+04  3.2183379250913678e+05  6.8017948937013932e+05  1.8377763043326675e+05  -3.8260230619122791e+04  7.9059162767496496e+05  2.7906686534492602e+05  -6.3104284245569934e+05  -3.2720076077481243e+05  -1.0130761130962332e+06  -6.2605464393432054e+05  -5.5182354597964301e+05  -5.1520829838147870e+05  -2.1908576268684329e+05  -2.0877491145625466e+06  9.0429043060506752e+04  -4.2590284040425823e+05  3.1868738872115401e+05  7.2790455916120671e+05  3.3992880798372126e+05  -2.2235137951610924e+05  3.7067005587982637e+05  -8.3485828422127652e+05  2.0186165095202977e+05  3.4513808151299902e+05  8.1656963688260282e+05  1.1415714821505984e+06  2.1880249362534471e+05  1.6426903778179362e+06  -6.4447100334665354e+05  -1.5101300778693566e+05  -8.0112997954000928e+05  -2.3554764254417121e+06  -5.6212576480917288e+06  7.0600243166708358e+04  -3.0715710229288921e+04  -1.4246821461325334e+06  -7.8844067127177073e+05  -2.1066546940843021e+06  -9.8092938027642667e+05  -8.7206640318037185e+05  -2.2564846036017733e+06  -2.3506400235989233e+06  -6.9925122035759012e+05  7.2480055728946044e+05  -7.9835163917367964e+05  -2.4408030154058919e+06  -4.6435198646360761e+04  -1.6315511174136011e+06  -2.2675487865498997e+06  -6.4680727946485216e+06  -3.5346183190562436e+06  -7.6312722624073504e+05  1.7216566561783247e+06  5.9023969140809821e+05  5.6797451390981767e+05  8.1251466217523371e+05  2.6747094984538114e+05  6.5322482014079066e+05  1.5976609671447729e+05  1.1224405185947441e+06  -2.9441824755000469e+05  1.5275882569401426e+05  -1.1643051114062604e+05  1.7192411088639391e+06  3.1603671964878286e+05  -2.9225253540296602e+05  -1.9174196753029185e+06  -1.6921869130916796e+06  2.3881055898262182e+05  3.5557814385497844e+05  1.4056705640444239e+06  1.0781077528472915e+06  1.0966661871474842e+06  7.4434109389647830e+05  8.9215566166602354e+05  1.3503328342064908e+06  2.5384933963264970e+05  1.1011360695236679e+06  9.5355212438587984e+05  7.3608401573255204e+05  2.6549889199246775e+05  -7.5156414267271198e+05  4.3756813755907892e+05  2.7603310087176802e+05  1.5826102156708168e+05  -3.6579995364735479e+05  7.3192053138557752e+05  -4.6952794628862257e+05  -1.2103678758259490e+06  -8.5484094852315600e+05  -1.5232412639864809e+06  -1.4000973172368878e+06  -6.8451685955909325e+05  -1.4083959466013326e+06  -1.0784844217020136e+06  -4.8251891172294662e+05  -4.0576243293758132e+05  1.3291796367274597e+06  1.1242806472491399e+05  8.3408603193159477e+04  -8.4809126446477044e+05  -3.0906757180196373e+05  -3.8540244151825074e+05  -4.9242329836124746e+05  1.2995167942816634e+06  1.1336889231310403e+06  7.5294313997649949e+05  8.4916325048449391e+05  1.6268462091298855e+06  3.1655013863902692e+04  -2.9056991006404692e+06  -2.4330606396667962e+06  -2.4584208690751628e+06  -7.1599796514351066e+04  -1.7113397517343045e+06  -1.2948086812204686e+06  4.5092078971361171e+05  -6.7006308318085945e+05  -8.9703620420626923e+05  -3.9076682625710522e+05  1.1163299242602319e+04  1.5177664460695651e+06  -4.1704578557715978e+05  -1.6937870128795456e+06  -5.8398585906487668e+05  -1.3238700867511579e+06  2.9838211673912965e+06  -2.1158434016401959e+06  -2.5308957342368346e+06  2.3438182959129158e+05  -3.6873196748766047e+06  -2.4716513521239688e+06  -2.7671075697029997e+06  1.3345440501889365e+06  1.3368439606210042e+06  1.2811337197242987e+06  1.9681516596427171e+06  1.7266935617780732e+05  3.1224477979358649e+04  -2.3214190701172184e+06  1.7155240853721974e+06  -1.7650999740724040e+06  5.2779725472621394e+04  1.5458594332696128e+05  -1.4897851188078516e+06  -9.8469954609372839e+05  2.0828650750558889e+06  5.3236465189564461e+05  -2.1806582340324339e+06  4.9503097487190797e+05  1.2165722102342562e+06  8.4424961505590356e+05  1.0494904059306970e+06  -1.8741213635818302e+04  1.1325956670491972e+06  1.4394674744426056e+06  6.0660500709523913e+05  4.4035434576247353e+05  9.4751354678950750e+05  -2.7951801983965404e+05  1.3480260102918674e+06  1.9263631471679881e+05  -6.6840162721105327e+04  -4.3354866933066875e+05  -5.4712019036821625e+05  2.5727707078370941e+05  8.2261123287148701e+04  -1.8361878970458409e+04  -1.6936276572361924e+06  -1.5341132478339714e+05  4.1562854210691247e+05  -1.4876405654891625e+06  -9.7405053897883743e+05  -8.0543100465454347e+05  -9.8481002406084808e+04  -4.0764763337640802e+05  -4.7025380196970474e+05  3.7486781090373598e+05  5.8036414652594831e+05  1.0222712873196630e+06  7.9698771503666125e+05  6.3436030604183790e+05  -4.3586642138706862e+04  -9.6823742005680979e+05  3.4866376334365213e+05  1.3017401432404630e+06  6.9959202639348269e+05  -5.6949871570401345e+04  8.6437497994019859e+05  2.2402985112107294e+06  -3.0593787235682749e+05  1.3875968488192479e+06  -2.8164653602183396e+06  -1.6328333630238590e+06  -2.2494086450074976e+06  -1.8504634645515669e+06  8.7352931442149833e+05  -1.0537081700362924e+06  4.6212557813621347e+05  -9.7065662390333088e+05  3.5036965879703057e+05  3.0011289795606578e+05  3.5200338507472728e+06  -1.7555904711158550e+06  -1.2757312391676163e+05  3.6589216068051942e+05  -6.7814900830735499e+05  6.1746618603766139e+05  -7.3018763453260087e+05  8.0636010899061791e+05  -1.2833156129678998e+06  -1.2667405863009267e+06  -1.0343584595611242e+06  -4.3468866482224211e+05  2.2628976282121274e+06  1.0813838477418881e+06  1.2735174495964353e+06  1.5060371787800314e+06  -2.7909167944801913e+05  -1.7559400227992916e+06  -5.3439143747235788e+05  4.1093282390404108e+05  2.2101463190811467e+06  -1.2426976597568640e+06  1.1469303708442543e+06  -5.9874969460198027e+05  -9.2767596555188776e+05  7.8815939959916030e+05  3.7217936017714608e+04  4.8772258292991266e+05  -8.5992977734208341e+02  7.5517830295221973e+05  -2.6950044691670814e+05  6.1910167806159065e+05  9.2297483780098002e+04  5.3869592268397959e+04  3.2771753913367959e+05  1.2031326464482017e+06  6.5284397050053440e+05  1.2280024699964102e+06  1.0019395083877215e+06  6.3489646132775582e+05  6.0441808732205164e+05  -1.4504668655714567e+05  -5.0170344771417388e+05  2.4232144949175179e+05  -4.0103609988984896e+05  -5.0085714722093364e+05  -2.5360889963809130e+05  -3.6614406494231086e+05  2.5850781792306374e+04  4.8714001186767877e+04  -4.9287334610999998e+05  -1.5085879603372896e+06  -4.7069486080620508e+05  2.5350879925595532e+05  2.4485410276773234e+05  1.8468925426292903e+05  9.1109708990732688e+04  1.8459355473613529e+05  1.0884592029127816e+06  1.6410358453892914e+06  2.6423033316725411e+05  2.1087645407619476e+05  1.2859750874557889e+06  -2.7905817310554115e+05  6.3147703358193429e+05  1.0338983291872672e+06  1.9465492256543308e+06  1.4019584985449947e+06  9.7783546884020721e+05  2.1162089641319151e+05  1.8457973293297083e+05  -1.8249358113082568e+06  -6.7740339142767468e+05  -6.1071766943029417e+06  -6.2542451788742654e+05  1.1714345930805927e+05  1.0969873680193326e+06  -3.1953114451594389e+05  -3.7584420549867436e+05  -7.5562802633168874e+05  1.3291144891846883e+06  -1.1859411066132309e+06  9.6253201148908964e+04  -6.5653252919671766e+05  1.9592445669845671e+06  7.2716131193700084e+05  2.0306791562427682e+05  -1.6783603988265090e+06  -1.5747162040352796e+06  -7.5106768925648567e+05  -1.0694050142348646e+06  -4.8827298785006057e+05  -1.2861133547338641e+06  2.7631299091986795e+06  -1.0568099643499914e+06  9.7275051508462534e+05  1.0499135259902966e+06  -6.7693646156747395e+05  -1.0985602612217665e+06  -2.3426591546681467e+06  -2.0738911509364990e+06  1.1136082598634690e+04  1.4002235999971500e+06  1.3012688657209433e+06  6.7149414709689806e+05  -7.1676827478599153e+04  9.8557023642129463e+05  -3.2962460315635061e+05  7.6708527778333938e+05  8.9454888911634835e+05  -1.5710650364565590e+05  -8.3926448375864630e+05  3.7054725122309319e+05  8.3180380848477338e+05  7.5794318571584474e+05  3.2533860007629253e+05  7.9508103948477958e+05  1.1165592090521182e+06  1.5608471129766991e+06  2.0756018567421568e+04  1.0757786500589214e+06  -7.6689353557855042e+05  -5.3289908522592776e+05  -3.3220492072419496e+05  1.6050754336278135e+05  6.7323498554469857e+04  -1.0040743257483743e+06  -4.0603384990047116e+05  2.1993461852201287e+05  -3.1362127098987059e+05  -1.7446328633795280e+05  -2.4147844157055905e+05  5.7387563326776854e+05  -5.8621617669925536e+05  -5.2478636981760233e+05  3.8720533642716514e+05  4.0660818921140424e+05  2.0590864279597465e+05  7.9202951919774991e+05  3.9308354829752579e+05  6.1398777653112425e+05  1.0517952737979288e+06  -1.0641403674629454e+05  -5.2564173151555471e+05  -1.4932919453254979e+04  3.3604882201668911e+05  -1.3912964227645188e+06  -1.6098029518751071e+06  -4.4626503195001977e+05  2.3061168296765294e+06  8.2640212664713699e+05  8.1309784324337263e+05  -7.2030669468355016e+05  -1.0574309258364115e+06  -2.5973076703908760e+06  -1.6522128307866754e+06  3.7178391930082078e+04  -4.3219720376788704e+04  -2.7536918187319238e+03  -1.3834188094477588e+05  7.7339285946472175e+05  -1.3187134677426973e+06  1.1569050619358057e+05  -3.0455654425258283e+06  6.0989844630867441e+05  -3.1163926389682740e+06  -4.8498859893873398e+05  -5.9161101200846431e+04  -4.0484695515234060e+04  -2.4448303008286743e+06  -4.0778459977187187e+05  5.0107419069951703e+05  -3.1186243633445998e+05  4.1088026327645108e+06  -3.3725143668303557e+05  2.5225064509267444e+06  1.5201249974521322e+05  2.0607850667501043e+05  -2.0294847606505449e+06  -1.3657106280773201e+06  -1.2887502784619005e+06  -7.6928887874492374e+05  7.6278353227986675e+05  -3.1939621050041442e+04  8.7763809893115272e+05  2.3227759410108841e+05  1.1428222024820885e+06  1.5024496774552995e+06  -1.4583401593035345e+06  6.7186817216208950e+05  1.0239326816027044e+04  -8.4188078620209964e+05  -6.1038088931088406e+05  4.2124577910418424e+05  -2.3963251303648056e+04  -2.4545234803726108e+05  1.1430877612737990e+06  7.2065014295630937e+05  5.9186093276849249e+05  1.0071070869087391e+06  -4.9149518401007319e+05  1.0927744157150775e+05  6.6502258035063700e+04  -8.0426591159993864e+05  6.4534592198896346e+04  -2.7751746624711093e+04  1.6611896363401081e+05  -6.3864744551159267e+05  -5.2233294865454623e+05  -1.3857418822330568e+05  -2.3033771200580630e+05  5.6160035898762662e+05  4.8114765124789102e+05  -1.4002014898839337e+05  -8.3441899509952302e+04  -4.6933231440374308e+05  3.7867349814467697e+05  1.6104279276057467e+05  -8.2387379309533469e+04  9.2441033672984259e+05  9.4759280116987007e+05  6.9362201715724391e+05  2.3519778065291111e+05  2.0280750781184065e+06  -1.1704223840309300e+06  3.3167559096196608e+05  1.5436706726825950e+05  -6.5827004104330833e+05  -1.6084549047031081e+06  1.0052798784668860e+06  3.8001837810205651e+05  6.3931097216511192e+05  4.5474169626082241e+05  1.2125332387471527e+06  -1.6102382403955781e+06  -1.4755156741717143e+06  4.6257643885806139e+05  6.7244647233205687e+04  -4.8892831499494158e+05  7.8640982537548954e+05  -2.2058129701654284e+05  3.7051636176084314e+05  -4.2722842446312652e+05  1.3090008706008887e+05  1.0206696448324414e+05  -9.4013030221558013e+05  -7.1875268849910761e+05  -2.9956452657322027e+05  6.8332330324509251e+05  -1.0685947739316574e+06  -7.5700160634091916e+05  5.6618148194403853e+05  -1.3709788867724589e+06  7.5964619335795089e+05  1.4739887603790849e+06  -2.1609910266227013e+05  -1.7007408505408739e+05  2.6655043334694252e+04  -8.6540652691116580e+05  3.1151376225474360e+05  -8.7233615693644143e+05  -1.6867455000085747e+05  6.5734216833782429e+05  7.2025552449317838e+04  1.1879279665657609e+05  -4.9234813291533716e+05  3.3789519739557104e+05  -1.6137870508369355e+05  7.4786481474585016e+04  7.1621127163918386e+05  1.9223611873464103e+05  9.6610744041622640e+05  -1.0995769738679430e+06  7.6267017284214892e+05  -4.4536290581990295e+05  1.8712877686251284e+05  -4.2497119831815115e+04  2.0916822271844788e+05  2.2034569064700505e+05  1.7242399753936037e+05  -3.2377927019903559e+05  2.6620535561187676e+05  -6.1741927664930197e+04  4.5896707574674561e+04  -5.8393401125566292e+04  2.8803462009568560e+04  -2.4153176679051740e+05  -3.2946212622137065e+05  -2.5170089380066658e+05  -3.8788302532611135e+05  -1.7957953426619561e+05  -4.8475193215389183e+04  1.2906303800763286e+05  2.7254721843880310e+05  8.1372322602702232e+04  4.5095816295801662e+04  -1.4092442321915948e+05  4.9919512854725780e+05  -3.7320343916236633e+05  3.2375963294139836e+05  -6.9562914862649853e+05  -5.1253763850221387e+05  1.6569893755341347e+05  1.6736218410152305e+05  -5.2011542183622642e+05  4.1264518344274518e+05  1.8471910019698073e+05  -1.4358147621735357e+05  1.2431672595138848e+05  -1.4646547159771525e+05  7.5948530861489265e+05  -3.0365563469466765e+05  -5.6149175657180022e+04  -2.0238527266819726e+05  -2.8011012124680082e+05  5.1749327689962636e+04  2.8117190997356316e+05  6.8656483271050092e+04  1.6133524311959051e+05  -3.0585462891207645e+06  -1.9983712102163571e+06  8.8503365862145100e+05  -6.7390206389372842e+05  -8.3774296791193215e+05  1.1910560393445285e+06  5.6885012322793547e+06  -5.4663742604129603e+06  1.4076907400265307e+05  -4.1450374816560131e+06  -7.6904361314698542e+05  -4.6196638673568796e+05  -2.7735596957226819e+06  -3.5394083182961070e+06  -8.5615227033822669e+05  -4.2812413437363580e+06  -2.0993792869586642e+06  -3.0535068132188165e+05  2.7284131992608095e+06  3.0600874400487789e+06  2.0200125078687964e+06  1.1824668885904322e+06  2.0752893027420577e+06  2.5400161468220507e+06  -3.3854718941195058e+06  -8.1023021044861628e+06  -5.1233908703618804e+06  -2.6602661315120165e+06  -1.7925860553549440e+06  -4.9516851208875456e+05  1.0300372918643960e+06  -6.1364045835646009e+05  1.0686151777236987e+05  2.8224758038658337e+06  -1.5546636951148408e+05  1.3474180392968063e+06  1.9578914407041199e+06  1.4374191681807239e+06  1.4657325535539570e+06  1.6121476698394076e+06  4.7056725834294502e+05  1.3000351313432730e+06  1.0253012679240424e+06  1.2876522598298786e+06  8.5551922236754594e+05  2.2341318834832078e+05  6.8784124655800418e+05  -1.0710815194099472e+05  -2.4739757642570540e+05  6.8685459829224262e+05  3.2182894145258376e+05  1.1878535852694859e+05  -1.6125702261235288e+05  -7.0290125620175211e+05  -1.6265178653211292e+05  -1.5946819943139788e+06  -1.2850935568949743e+06  -9.1137661451672681e+05  -5.5066843435572751e+04  -2.4702672155887862e+06  -3.5415864892204106e+05  5.1221336605798692e+05  1.3487414617751325e+06  5.1919643051909562e+05  -1.3417629490622042e+06  -1.5253976215282329e+06  1.2427279219288615e+05  1.0319845368923029e+06  1.2774829042067009e+06  6.1268405596583849e+05  4.2903136766016914e+05  7.4385492326297797e+05  8.0697842199590325e+05  7.6929902622613986e+05  3.9559011543958477e+04  9.3342983233362538e+03  4.5119183401150154e+06  -3.6080120923680132e+06  2.3727675524037187e+06  2.3836082776124731e+04  8.3926597663145501e+05  -7.7768685454311210e+05  -1.3591070309995264e+06  -1.4629142510928172e+