<?xml version="1.0"?>
<VTKFile type="UnstructuredGrid"  version="0.1"  >
<UnstructuredGrid>
<Piece  NumberOfPoints="1369" NumberOfCells="2560">
<Points>
<DataArray  type="Float64"  NumberOfComponents="3"  format="ascii">0 0 0  0.75 0 0  1.5 0 0  2.25 0 0  3 0 0  3.75 0 0  4.5 0 0  5.25 0 0  6 0 0  6.75 0 0  7.5 0 0  8.25 0 0  9 0 0  9.75 0 0  10.5 0 0  11.25 0 0  12 0 0  12.75 0 0  13.5 0 0  14.25 0 0  15 0 0  15.75 0 0  16.5 0 0  17.25 0 0  18 0 0  18.75 0 0  19.5 0 0  20.25 0 0  21 0 0  21.75 0 0  22.5 0 0  23.25 0 0  24 0 0  24.75 0 0  25.5 0 0  26.25 0 0  27 0 0  27.75 0 0  28.5 0 0  29.25 0 0  30 0 0  30.75 0 0  31.5 0 0  32.25 0 0  33 0 0  33.75 0 0  34.5 0 0  35.25 0 0  36 0 0  36.75 0 0  37.5 0 0  38.25 0 0  39 0 0  39.75 0 0  40.5 0 0  41.25 0 0  42 0 0  42.75 0 0  43.5 0 0  44.25 0 0  45 0 0  45.75 0 0  46.5 0 0  47.25 0 0  48 0 0  48.75 0 0  49.5 0 0  50.25 0 0  51 0 0  51.75 0 0  52.5 0 0  53.25 0 0  54 0 0  54.75 0 0  55.5 0 0  56.25 0 0  57 0 0  57.75 0 0  58.5 0 0  59.25 0 0  60 0 0  0 0.5 0  0.75 0.5 0  1.5 0.5 0  2.25 0.5 0  3 0.5 0  3.75 0.5 0  4.5 0.5 0  5.25 0.5 0  6 0.5 0  6.75 0.5 0  7.5 0.5 0  8.25 0.5 0  9 0.5 0  9.75 0.5 0  10.5 0.5 0  11.25 0.5 0  12 0.5 0  12.75 0.5 0  13.5 0.5 0  14.25 0.5 0  15 0.5 0  15.75 0.5 0  16.5 0.5 0  17.25 0.5 0  18 0.5 0  18.75 0.5 0  19.5 0.5 0  20.25 0.5 0  21 0.5 0  21.75 0.5 0  22.5 0.5 0  23.25 0.5 0  24 0.5 0  24.75 0.5 0  25.5 0.5 0  26.25 0.5 0  27 0.5 0  27.75 0.5 0  28.5 0.5 0  29.25 0.5 0  30 0.5 0  30.75 0.5 0  31.5 0.5 0  32.25 0.5 0  33 0.5 0  33.75 0.5 0  34.5 0.5 0  35.25 0.5 0  36 0.5 0  36.75 0.5 0  37.5 0.5 0  38.25 0.5 0  39 0.5 0  39.75 0.5 0  40.5 0.5 0  41.25 0.5 0  42 0.5 0  42.75 0.5 0  43.5 0.5 0  44.25 0.5 0  45 0.5 0  45.75 0.5 0  46.5 0.5 0  47.25 0.5 0  48 0.5 0  48.75 0.5 0  49.5 0.5 0  50.25 0.5 0  51 0.5 0  51.75 0.5 0  52.5 0.5 0  53.25 0.5 0  54 0.5 0  54.75 0.5 0  55.5 0.5 0  56.25 0.5 0  57 0.5 0  57.75 0.5 0  58.5 0.5 0  59.25 0.5 0  60 0.5 0  0 1 0  0.75 1 0  1.5 1 0  2.25 1 0  3 1 0  3.75 1 0  4.5 1 0  5.25 1 0  6 1 0  6.75 1 0  7.5 1 0  8.25 1 0  9 1 0  9.75 1 0  10.5 1 0  11.25 1 0  12 1 0  12.75 1 0  13.5 1 0  14.25 1 0  15 1 0  15.75 1 0  16.5 1 0  17.25 1 0  18 1 0  18.75 1 0  19.5 1 0  20.25 1 0  21 1 0  21.75 1 0  22.5 1 0  23.25 1 0  24 1 0  24.75 1 0  25.5 1 0  26.25 1 0  27 1 0  27.75 1 0  28.5 1 0  29.25 1 0  30 1 0  30.75 1 0  31.5 1 0  32.25 1 0  33 1 0  33.75 1 0  34.5 1 0  35.25 1 0  36 1 0  36.75 1 0  37.5 1 0  38.25 1 0  39 1 0  39.75 1 0  40.5 1 0  41.25 1 0  42 1 0  42.75 1 0  43.5 1 0  44.25 1 0  45 1 0  45.75 1 0  46.5 1 0  47.25 1 0  48 1 0  48.75 1 0  49.5 1 0  50.25 1 0  51 1 0  51.75 1 0  52.5 1 0  53.25 1 0  54 1 0  54.75 1 0  55.5 1 0  56.25 1 0  57 1 0  57.75 1 0  58.5 1 0  59.25 1 0  60 1 0  0 1.5 0  0.75 1.5 0  1.5 1.5 0  2.25 1.5 0  3 1.5 0  3.75 1.5 0  4.5 1.5 0  5.25 1.5 0  6 1.5 0  6.75 1.5 0  7.5 1.5 0  8.25 1.5 0  9 1.5 0  9.75 1.5 0  10.5 1.5 0  11.25 1.5 0  12 1.5 0  12.75 1.5 0  13.5 1.5 0  14.25 1.5 0  15 1.5 0  15.75 1.5 0  16.5 1.5 0  17.25 1.5 0  18 1.5 0  18.75 1.5 0  19.5 1.5 0  20.25 1.5 0  21 1.5 0  21.75 1.5 0  22.5 1.5 0  23.25 1.5 0  24 1.5 0  24.75 1.5 0  25.5 1.5 0  26.25 1.5 0  27 1.5 0  27.75 1.5 0  28.5 1.5 0  29.25 1.5 0  30 1.5 0  30.75 1.5 0  31.5 1.5 0  32.25 1.5 0  33 1.5 0  33.75 1.5 0  34.5 1.5 0  35.25 1.5 0  36 1.5 0  36.75 1.5 0  37.5 1.5 0  38.25 1.5 0  39 1.5 0  39.75 1.5 0  40.5 1.5 0  41.25 1.5 0  42 1.5 0  42.75 1.5 0  43.5 1.5 0  44.25 1.5 0  45 1.5 0  45.75 1.5 0  46.5 1.5 0  47.25 1.5 0  48 1.5 0  48.75 1.5 0  49.5 1.5 0  50.25 1.5 0  51 1.5 0  51.75 1.5 0  52.5 1.5 0  53.25 1.5 0  54 1.5 0  54.75 1.5 0  55.5 1.5 0  56.25 1.5 0  57 1.5 0  57.75 1.5 0  58.5 1.5 0  59.25 1.5 0  60 1.5 0  0 2 0  0.75 2 0  1.5 2 0  2.25 2 0  3 2 0  3.75 2 0  4.5 2 0  5.25 2 0  6 2 0  6.75 2 0  7.5 2 0  8.25 2 0  9 2 0  9.75 2 0  10.5 2 0  11.25 2 0  12 2 0  12.75 2 0  13.5 2 0  14.25 2 0  15 2 0  15.75 2 0  16.5 2 0  17.25 2 0  18 2 0  18.75 2 0  19.5 2 0  20.25 2 0  21 2 0  21.75 2 0  22.5 2 0  23.25 2 0  24 2 0  24.75 2 0  25.5 2 0  26.25 2 0  27 2 0  27.75 2 0  28.5 2 0  29.25 2 0  30 2 0  30.75 2 0  31.5 2 0  32.25 2 0  33 2 0  33.75 2 0  34.5 2 0  35.25 2 0  36 2 0  36.75 2 0  37.5 2 0  38.25 2 0  39 2 0  39.75 2 0  40.5 2 0  41.25 2 0  42 2 0  42.75 2 0  43.5 2 0  44.25 2 0  45 2 0  45.75 2 0  46.5 2 0  47.25 2 0  48 2 0  48.75 2 0  49.5 2 0  50.25 2 0  51 2 0  51.75 2 0  52.5 2 0  53.25 2 0  54 2 0  54.75 2 0  55.5 2 0  56.25 2 0  57 2 0  57.75 2 0  58.5 2 0  59.25 2 0  60 2 0  0 2.5 0  0.75 2.5 0  1.5 2.5 0  2.25 2.5 0  3 2.5 0  3.75 2.5 0  4.5 2.5 0  5.25 2.5 0  6 2.5 0  6.75 2.5 0  7.5 2.5 0  8.25 2.5 0  9 2.5 0  9.75 2.5 0  10.5 2.5 0  11.25 2.5 0  12 2.5 0  12.75 2.5 0  13.5 2.5 0  14.25 2.5 0  15 2.5 0  15.75 2.5 0  16.5 2.5 0  17.25 2.5 0  18 2.5 0  18.75 2.5 0  19.5 2.5 0  20.25 2.5 0  21 2.5 0  21.75 2.5 0  22.5 2.5 0  23.25 2.5 0  24 2.5 0  24.75 2.5 0  25.5 2.5 0  26.25 2.5 0  27 2.5 0  27.75 2.5 0  28.5 2.5 0  29.25 2.5 0  30 2.5 0  30.75 2.5 0  31.5 2.5 0  32.25 2.5 0  33 2.5 0  33.75 2.5 0  34.5 2.5 0  35.25 2.5 0  36 2.5 0  36.75 2.5 0  37.5 2.5 0  38.25 2.5 0  39 2.5 0  39.75 2.5 0  40.5 2.5 0  41.25 2.5 0  42 2.5 0  42.75 2.5 0  43.5 2.5 0  44.25 2.5 0  45 2.5 0  45.75 2.5 0  46.5 2.5 0  47.25 2.5 0  48 2.5 0  48.75 2.5 0  49.5 2.5 0  50.25 2.5 0  51 2.5 0  51.75 2.5 0  52.5 2.5 0  53.25 2.5 0  54 2.5 0  54.75 2.5 0  55.5 2.5 0  56.25 2.5 0  57 2.5 0  57.75 2.5 0  58.5 2.5 0  59.25 2.5 0  60 2.5 0  0 3 0  0.75 3 0  1.5 3 0  2.25 3 0  3 3 0  3.75 3 0  4.5 3 0  5.25 3 0  6 3 0  6.75 3 0  7.5 3 0  8.25 3 0  9 3 0  9.75 3 0  10.5 3 0  11.25 3 0  12 3 0  12.75 3 0  13.5 3 0  14.25 3 0  15 3 0  15.75 3 0  16.5 3 0  17.25 3 0  18 3 0  18.75 3 0  19.5 3 0  20.25 3 0  21 3 0  21.75 3 0  22.5 3 0  23.25 3 0  24 3 0  24.75 3 0  25.5 3 0  26.25 3 0  27 3 0  27.75 3 0  28.5 3 0  29.25 3 0  30 3 0  30.75 3 0  31.5 3 0  32.25 3 0  33 3 0  33.75 3 0  34.5 3 0  35.25 3 0  36 3 0  36.75 3 0  37.5 3 0  38.25 3 0  39 3 0  39.75 3 0  40.5 3 0  41.25 3 0  42 3 0  42.75 3 0  43.5 3 0  44.25 3 0  45 3 0  45.75 3 0  46.5 3 0  47.25 3 0  48 3 0  48.75 3 0  49.5 3 0  50.25 3 0  51 3 0  51.75 3 0  52.5 3 0  53.25 3 0  54 3 0  54.75 3 0  55.5 3 0  56.25 3 0  57 3 0  57.75 3 0  58.5 3 0  59.25 3 0  60 3 0  0 3.5 0  0.75 3.5 0  1.5 3.5 0  2.25 3.5 0  3 3.5 0  3.75 3.5 0  4.5 3.5 0  5.25 3.5 0  6 3.5 0  6.75 3.5 0  7.5 3.5 0  8.25 3.5 0  9 3.5 0  9.75 3.5 0  10.5 3.5 0  11.25 3.5 0  12 3.5 0  12.75 3.5 0  13.5 3.5 0  14.25 3.5 0  15 3.5 0  15.75 3.5 0  16.5 3.5 0  17.25 3.5 0  18 3.5 0  18.75 3.5 0  19.5 3.5 0  20.25 3.5 0  21 3.5 0  21.75 3.5 0  22.5 3.5 0  23.25 3.5 0  24 3.5 0  24.75 3.5 0  25.5 3.5 0  26.25 3.5 0  27 3.5 0  27.75 3.5 0  28.5 3.5 0  29.25 3.5 0  30 3.5 0  30.75 3.5 0  31.5 3.5 0  32.25 3.5 0  33 3.5 0  33.75 3.5 0  34.5 3.5 0  35.25 3.5 0  36 3.5 0  36.75 3.5 0  37.5 3.5 0  38.25 3.5 0  39 3.5 0  39.75 3.5 0  40.5 3.5 0  41.25 3.5 0  42 3.5 0  42.75 3.5 0  43.5 3.5 0  44.25 3.5 0  45 3.5 0  45.75 3.5 0  46.5 3.5 0  47.25 3.5 0  48 3.5 0  48.75 3.5 0  49.5 3.5 0  50.25 3.5 0  51 3.5 0  51.75 3.5 0  52.5 3.5 0  53.25 3.5 0  54 3.5 0  54.75 3.5 0  55.5 3.5 0  56.25 3.5 0  57 3.5 0  57.75 3.5 0  58.5 3.5 0  59.25 3.5 0  60 3.5 0  0 4 0  0.75 4 0  1.5 4 0  2.25 4 0  3 4 0  3.75 4 0  4.5 4 0  5.25 4 0  6 4 0  6.75 4 0  7.5 4 0  8.25 4 0  9 4 0  9.75 4 0  10.5 4 0  11.25 4 0  12 4 0  12.75 4 0  13.5 4 0  14.25 4 0  15 4 0  15.75 4 0  16.5 4 0  17.25 4 0  18 4 0  18.75 4 0  19.5 4 0  20.25 4 0  21 4 0  21.75 4 0  22.5 4 0  23.25 4 0  24 4 0  24.75 4 0  25.5 4 0  26.25 4 0  27 4 0  27.75 4 0  28.5 4 0  29.25 4 0  30 4 0  30.75 4 0  31.5 4 0  32.25 4 0  33 4 0  33.75 4 0  34.5 4 0  35.25 4 0  36 4 0  36.75 4 0  37.5 4 0  38.25 4 0  39 4 0  39.75 4 0  40.5 4 0  41.25 4 0  42 4 0  42.75 4 0  43.5 4 0  44.25 4 0  45 4 0  45.75 4 0  46.5 4 0  47.25 4 0  48 4 0  48.75 4 0  49.5 4 0  50.25 4 0  51 4 0  51.75 4 0  52.5 4 0  53.25 4 0  54 4 0  54.75 4 0  55.5 4 0  56.25 4 0  57 4 0  57.75 4 0  58.5 4 0  59.25 4 0  60 4 0  0.375 0.25 0  1.125 0.25 0  1.875 0.25 0  2.625 0.25 0  3.375 0.25 0  4.125 0.25 0  4.875 0.25 0  5.625 0.25 0  6.375 0.25 0  7.125 0.25 0  7.875 0.25 0  8.625 0.25 0  9.375 0.25 0  10.125 0.25 0  10.875 0.25 0  11.625 0.25 0  12.375 0.25 0  13.125 0.25 0  13.875 0.25 0  14.625 0.25 0  15.375 0.25 0  16.125 0.25 0  16.875 0.25 0  17.625 0.25 0  18.375 0.25 0  19.125 0.25 0  19.875 0.25 0  20.625 0.25 0  21.375 0.25 0  22.125 0.25 0  22.875 0.25 0  23.625 0.25 0  24.375 0.25 0  25.125 0.25 0  25.875 0.25 0  26.625 0.25 0  27.375 0.25 0  28.125 0.25 0  28.875 0.25 0  29.625 0.25 0  30.375 0.25 0  31.125 0.25 0  31.875 0.25 0  32.625 0.25 0  33.375 0.25 0  34.125 0.25 0  34.875 0.25 0  35.625 0.25 0  36.375 0.25 0  37.125 0.25 0  37.875 0.25 0  38.625 0.25 0  39.375 0.25 0  40.125 0.25 0  40.875 0.25 0  41.625 0.25 0  42.375 0.25 0  43.125 0.25 0  43.875 0.25 0  44.625 0.25 0  45.375 0.25 0  46.125 0.25 0  46.875 0.25 0  47.625 0.25 0  48.375 0.25 0  49.125 0.25 0  49.875 0.25 0  50.625 0.25 0  51.375 0.25 0  52.125 0.25 0  52.875 0.25 0  53.625 0.25 0  54.375 0.25 0  55.125 0.25 0  55.875 0.25 0  56.625 0.25 0  57.375 0.25 0  58.125 0.25 0  58.875 0.25 0  59.625 0.25 0  0.375 0.75 0  1.125 0.75 0  1.875 0.75 0  2.625 0.75 0  3.375 0.75 0  4.125 0.75 0  4.875 0.75 0  5.625 0.75 0  6.375 0.75 0  7.125 0.75 0  7.875 0.75 0  8.625 0.75 0  9.375 0.75 0  10.125 0.75 0  10.875 0.75 0  11.625 0.75 0  12.375 0.75 0  13.125 0.75 0  13.875 0.75 0  14.625 0.75 0  15.375 0.75 0  16.125 0.75 0  16.875 0.75 0  17.625 0.75 0  18.375 0.75 0  19.125 0.75 0  19.875 0.75 0  20.625 0.75 0  21.375 0.75 0  22.125 0.75 0  22.875 0.75 0  23.625 0.75 0  24.375 0.75 0  25.125 0.75 0  25.875 0.75 0  26.625 0.75 0  27.375 0.75 0  28.125 0.75 0  28.875 0.75 0  29.625 0.75 0  30.375 0.75 0  31.125 0.75 0  31.875 0.75 0  32.625 0.75 0  33.375 0.75 0  34.125 0.75 0  34.875 0.75 0  35.625 0.75 0  36.375 0.75 0  37.125 0.75 0  37.875 0.75 0  38.625 0.75 0  39.375 0.75 0  40.125 0.75 0  40
[...]
<PointData  Scalars="f_8-1"> 
<DataArray  type="Float64"  Name="f_8-1"  format="ascii">1.4892010786640047e+04  3.8490327709591156e+03  3.0152713326839468e+04  -1.5802835738799238e+04  -6.3214780699260591e+03  -5.1733951768984989e+03  6.9779894890477590e+03  6.5200503210425552e+02  5.7695275466727298e+03  5.4686517631436518e+03  8.0532794014884548e+03  1.1087418009928002e+04  8.8570542102915770e+03  3.2268267870264153e+03  7.8599972219213987e+02  -1.0222377225065573e+04  -1.8554120184379858e+03  3.0388241146534807e+02  1.4310062451623021e+03  -3.6622618311466235e+03  -4.6874419435282825e+03  -9.2297297713656363e+01  -1.7933656292929583e+04  -1.2061864610429844e+04  8.7242571230856163e+02  6.2810006028068019e+03  9.9676438569862767e+03  9.8783356199014634e+03  -1.6605603305112945e+04  8.7519978160716400e+03  6.3504297961744733e+03  -5.0474529514524947e+03  3.8043825934101068e+02  6.4677193132975272e+03  5.1641851901632836e+03  1.2565027262472553e+04  -1.1944265012148328e+03  3.4772698999633403e+03  -8.7099718591168539e+02  2.6391538254912671e+03  -2.8252832662509712e+02  1.9908878004806384e+03  1.9834209756897076e+02  1.2586016519498262e+03  3.1914055579876128e+02  7.2891784857976916e+02  2.9835500658384041e+02  4.1303742590519374e+02  2.2968951487985385e+02  2.2968009588190185e+02  1.5412188631133557e+02  1.2734908143672439e+02  9.3244365186830620e+01  7.1294345933969225e+01  5.3212126983114267e+01  3.9822959373005226e+01  2.9662804208877812e+01  2.2059100073466748e+01  1.6376697580252177e+01  1.2144124477800151e+01  8.9975627601478685e+00  6.6619715334108829e+00  4.9302772384440958e+00  3.6473991247159274e+00  2.6975905533424713e+00  1.9946858054299526e+00  1.4746604356297799e+00  1.0900066942723565e+00  8.0550680109023975e-01  5.9507058844980010e-01  4.3937685095450341e-01  3.2411793662567917e-01  2.3869507926242453e-01  1.7524932401639678e-01  1.2794153287995513e-01  9.2416627596106554e-02  6.5403714048886535e-02  4.4414308401381990e-02  2.7522087184123446e-02  1.3113055611854154e-02  3.6661261175824600e-04  -3.9522403262143057e+03  1.5370709763155804e+04  2.0242845001299323e+04  3.5371874839334678e+03  1.7352733291558616e+03  7.1481433152166574e+03  1.2612639070023320e+03  1.0477467178315969e+03  8.7936291522901574e+03  9.1255133811851611e+03  8.8959341542721249e+03  9.4647719897047882e+03  1.0321161343517886e+04  3.8972707152578459e+03  -6.4090028681749288e+02  -3.1656997334033340e+03  -2.9060779467261641e+03  -2.5903814076071640e+03  1.8042240247043649e+03  -1.2399384706890038e+04  -5.2818420888984929e+03  -1.4854981944665315e+03  -8.3886512605145617e+03  -2.4532265970650774e+03  1.1739224253058062e+03  8.5470405882352861e+03  7.5255262604228819e+03  -2.5492915582896746e+01  4.4553519771799512e+02  4.7122017001588256e+03  -5.1742547823630848e+03  4.2444625468053046e+03  2.1345909893586781e+03  2.0742025767510590e+03  1.0103214434487099e+04  5.7078703053510344e+03  5.4417143781299646e+03  -1.3405200697313353e+03  3.1999341413823422e+03  -7.9270646529223245e+02  2.4704616126806000e+03  -1.5245737979527840e+02  1.8405630376174465e+03  6.1648949443620722e+01  1.1662156084562491e+03  1.5672242092937881e+02  6.5629277430724721e+02  2.0138841825721713e+02  3.3767111419706220e+02  1.7713756035676056e+02  1.7301844553896805e+02  1.1916655828749346e+02  9.4306936991697498e+01  7.0012440865220483e+01  5.2728232575470784e+01  3.9344604518191261e+01  2.9320640381268419e+01  2.1797837485787191e+01  1.6181488830666424e+01  1.1998281954606403e+01  8.8889731687599429e+00  6.5812676204192870e+00  4.8703871571253732e+00  3.6030027380866940e+00  2.6647061509290970e+00  1.9703431553968784e+00  1.4566493786183328e+00  1.0766856760489849e+00  7.9565830168452711e-01  5.8779260073043227e-01  4.3400177560158720e-01  3.2015216874280300e-01  2.3577413020848323e-01  1.7310456843996877e-01  1.2637563623570286e-01  9.1285486582971101e-02  6.4603053328778942e-02  4.3871530414518849e-02  2.7178397505973083e-02  1.3009769271558688e-02  -8.1204363184045409e-05  4.5485154756910915e+03  9.9643275485561026e+03  1.4346257157404521e+04  1.4057171250585476e+04  4.5073496774328205e+03  5.4705355479968930e+03  1.5515102573098488e+03  1.2538275685000515e+03  8.8448404457883553e+03  6.2738952939711226e+03  6.5034207141575498e+03  9.0807156193437186e+03  7.4323023228922002e+03  6.1463016964286080e+03  -3.3982228123630243e+03  1.1330019089383070e+03  -4.9185807442017131e+03  1.1024926239734991e+03  -2.2661001790248174e+03  -6.7716334526433875e+03  1.4290381599189172e+02  4.9808525710952163e+03  -1.9259963763012936e+03  4.5916715003131452e+02  -3.4703036626888306e+03  -8.0009828104781609e+03  1.9945651785561971e+04  1.8173999426239797e+02  6.0414997997028540e+03  -8.3244611459658045e+03  -2.4691268793494390e+02  -9.7992928426286799e+03  1.0494082638408868e+02  2.1036890281101450e+03  -7.9021296662351176e+02  1.3054333200137880e+04  -4.2745145434834312e+03  5.7219287131226456e+03  -3.7145908544385252e+03  3.3239484021321341e+03  -1.1037926059547563e+03  2.4874943229841274e+03  -1.4054953534457084e+02  1.5450661923108451e+03  1.1670076497354509e+02  8.5436647443758420e+02  1.9606843909766377e+02  4.4999338629513824e+02  1.9123125827904056e+02  2.3054233570603756e+02  1.4155940568931825e+02  1.2146559486542796e+02  8.7642361299385115e+01  6.7081388549173113e+01  4.9994681937172331e+01  3.7370320171515068e+01  2.7817576970247430e+01  2.0674299387265673e+01  1.5342203358680544e+01  1.1373341338749125e+01  8.4244978374464150e+00  6.2365653939656154e+00  4.6148486308638468e+00  3.4137169525114999e+00  2.5245806876582053e+00  1.8666581951188719e+00  1.3799564868590024e+00  1.0199761406494887e+00  7.5373870348749183e-01  5.5681800398821102e-01  4.1112787843818444e-01  3.0327675251250652e-01  2.2334529522435578e-01  1.6397880468306930e-01  1.1971304671479556e-01  8.6472710882798176e-02  6.1197013017780591e-02  4.1558079022379069e-02  2.5748196722332539e-02  1.2306522881677627e-02  -8.6647714842860878e-06  -1.2692451821229322e+03  1.1754566372215226e+04  1.8107587979453634e+04  1.2238513726704166e+04  4.7553629571976599e+03  1.6233855854629521e+03  -3.4427422671719319e+03  9.8646408714572935e+03  1.9116060321064829e+03  3.2191026144400935e+03  4.3600592563563223e+03  1.6122414420823905e+04  9.7736126106925658e+03  6.5330742750234340e+03  -4.3133455819963192e+03  -1.5600343082866932e+03  -3.9783944528589399e+02  -1.2718769393670052e+03  -2.4755252165615520e+03  -3.9167343611971990e+02  4.5732792655689627e+03  -7.9868361179464619e+03  -3.8146422094771306e+03  5.0153685075371177e+03  -8.8779921100989566e+02  5.9269796879603100e+03  5.7166485985569147e+02  2.3959406578840740e+03  1.4508780336073798e+04  -8.6129872328981983e+03  3.2004792889859427e+03  1.3010102610508870e+03  2.7455419603455757e+03  7.5532265411194203e+03  -2.2607935927879015e+02  1.4966458629133505e+04  2.6975920180112926e+03  1.1575180014279874e+03  2.1841709337230031e+02  -5.0626751688597119e+02  9.7103176214741768e+02  2.4126852347617859e+02  1.5049046360622697e+03  2.5936801147228755e+02  1.0189368837450430e+03  2.0349029732710068e+02  5.7282881253581047e+02  1.9005230138627655e+02  2.9802492518124541e+02  1.5495645640436592e+02  1.5250008274103737e+02  1.0319291996061047e+02  8.1987964408071662e+01  6.0490627839595192e+01  4.5489797530771156e+01  3.3874598401413849e+01  2.5209499689524883e+01  1.8721754613269574e+01  1.3886969481247286e+01  1.0290870333783207e+01  7.6206844559426310e+00  5.6404075972502756e+00  4.1731075359441334e+00  3.0866192420805842e+00  2.2824977628578962e+00  1.6875647158490117e+00  1.2475047318148731e+00  9.2204668695904590e-01  6.8135499027114921e-01  5.0333636722768316e-01  3.7163480156451678e-01  2.7414129196178499e-01  2.0188735789164378e-01  1.4822376233019538e-01  1.0821065172576946e-01  7.8163948848066878e-02  5.5316753511875670e-02  3.7564939631736564e-02  2.3273316221117221e-02  1.1124933220295658e-02  -1.7315248965306148e-05  9.4617802558578605e+03  1.0506344292718233e+04  1.4655872885095569e+04  1.3231888583102571e+04  5.1558454477188125e+03  -5.9729650215509018e+03  -6.7302000336913079e+02  2.4029713177745230e+03  5.6354660426210312e+03  5.6222507188053305e+03  1.6052270659889780e+02  5.9169546855744484e+03  -1.6444602941388712e+03  7.4232938676253343e+02  -5.1948752173736229e+03  -2.2360318564233025e+03  7.3947973737339908e+02  5.6296704974023316e+02  -3.7946577310898329e+03  1.0647545629528829e+03  -2.8712152921276956e+03  2.2296478219216515e+03  6.9546693041581932e+01  -2.4913830699096016e+02  5.5982610085119870e+02  -1.1254615869746424e+03  4.2928779211143379e+01  -5.9757274990275346e+03  5.2057033497972479e+03  3.4256425064148748e+03  8.5323833160233207e+03  3.0621788238445765e+02  1.1686104866920468e+04  -3.4491550706468229e+03  1.1928116325492987e+04  3.2198382845680021e+03  1.0230335841388922e+04  4.3528585950340621e+03  -1.7501512182300992e+03  -6.2996357679155517e+02  2.1229613859991406e+02  3.8315721948644824e+02  8.1704478815792515e+02  8.5988702597594511e+02  3.9770449275186400e+02  6.1351359851658117e+02  2.1173809380212725e+02  3.5666227403444134e+02  1.5698066163511021e+02  1.8513014355706960e+02  1.1202341466919381e+02  9.6086987541178701e+01  6.8748046900572902e+01  5.2458596241069273e+01  3.8953664500849889e+01  2.9045298654062197e+01  2.1578462731879597e+01  1.6013921947576389e+01  1.1870788352544395e+01  8.7927663723124034e+00  6.5090578555159402e+00  4.8164182560610884e+00  3.5627997994489862e+00  2.6348404542528465e+00  1.9482146911444009e+00  1.4403026482877286e+00  1.0646602432244130e+00  7.8687120595012638e-01  5.8144791694288489e-01  4.2952240622328969e-01  3.1712948091537324e-01  2.3393184315028787e-01  1.7227413847838721e-01  1.2648118773125613e-01  9.2337062924168573e-02  6.6697732770467144e-02  4.7201985862625306e-02  3.2054200685153522e-02  1.9859027403854652e-02  9.4922655313177586e-03  -1.3560300819898555e-05  -2.6612424778600853e+03  -3.6931172322071502e+03  3.3709973382912667e+03  -5.4855530160275850e+02  -3.2755285984061156e+03  -6.5263654296458606e+02  1.0312026226768473e+03  -1.3414906905092046e+03  5.6579703029640550e+03  1.0268660697722507e+03  -2.9670505795152474e+02  6.0926651877840659e+03  2.1644217414882801e+03  1.8494625303078462e+03  1.7134049770236395e+03  7.0179111739088185e+01  -2.7205503127935508e+03  -1.5876197543534777e+03  -6.0363943386559333e+02  3.0698239747334251e+03  -3.2384798679401451e+03  3.1891440610602463e+03  -5.7915361464966618e+03  2.4597898707645754e+03  -2.4715030320075948e+03  2.4624208395254022e+03  -4.1435381898697169e+03  1.0414312117842896e+03  6.8488353983504576e+03  4.3285391413674197e+03  6.0613591077177371e+03  1.2159645054096197e+03  1.0770915455771217e+04  1.1604253803424848e+04  1.7270179635349199e+04  2.3956522231780957e+04  1.3444020070685756e+04  2.9277834811124158e+03  2.0212260423753639e+03  -1.2912848262033506e+03  -4.7950806032646972e+02  7.7752639287739555e+01  4.1443395869174509e+02  6.5655407398600801e+02  5.1369049011689719e+02  3.0824263690679788e+02  3.5943010824548043e+02  1.6033904661668936e+02  2.0709962242594736e+02  1.0979312654239710e+02  1.0657930991021694e+02  7.1280043771073409e+01  5.6369803847538883e+01  4.1346485106920213e+01  3.0965397348042586e+01  2.2985717865227695e+01  1.7064437170056738e+01  1.2649832775175897e+01  9.3703156895082600e+00  6.9367914531457684e+00  5.1330262909914213e+00  3.7970607520457835e+00  2.8081291841423752e+00  2.0763841571224644e+00  1.5351002726015957e+00  1.1347865568747151e+00  8.3876878361543905e-01  6.1988810181928589e-01  4.5804118689680173e-01  3.3835124152281076e-01  2.4981004328335593e-01  1.8427067999032384e-01  1.3570076718166821e-01  9.9628764160863789e-02  7.2733152572315649e-02  5.2537051868174103e-02  3.7180369196064378e-02  2.5248601074560815e-02  1.5642602391766819e-02  7.4769100682738118e-03  -1.0650560471145626e-05  -6.3347813785151793e+03  8.4843219185013622e+03  -6.6861081511713155e+03  -1.8600285151540463e+03  -2.2712418043909215e+03  2.2336275842748473e+03  -1.7906790677998904e+03  -3.3401680276580009e+03  3.6128387688732387e+03  1.1559817568333783e+03  2.1746508566393131e+03  4.7170822689733786e+03  3.1630365798987832e+03  2.8357086302297753e+03  4.7617915363509746e+02  -9.2323881936788007e+02  -2.9535064157593246e+02  -6.1599919167617043e+02  -3.2386094192222063e+03  2.2792270342934580e+03  -6.4560218840406433e+03  -1.1531099213652485e+03  -5.3013131438602641e+03  2.9209883980784534e+03  8.1814513789955367e+02  -7.3396090229221352e+02  7.7326943942855987e+03  1.1341536071819137e+03  4.1888743853911992e+03  3.6477468022489788e+03  1.9297207867193208e+03  3.0853500156418286e+03  9.7268234878180101e+03  1.3483867061449144e+04  1.6151597200393251e+04  2.7635401342562986e+04  -2.8782417575944505e+03  8.8141301705235965e+03  9.4139842142549298e+01  2.1385118370771136e+02  -7.9462593784884780e+02  2.8969885677381342e+02  3.3187692383138454e+02  4.8485088138682920e+02  4.1784848207308733e+02  2.9061056090790771e+02  1.8426734478939736e+02  1.9075109952660100e+02  9.7085290546132512e+01  1.0581660690622580e+02  6.3362737426518684e+01  5.4184333958641027e+01  3.8319859673025640e+01  2.9087215568867109e+01  2.1489487409290597e+01  1.5963115353833757e+01  1.1825887526302193e+01  8.7576139257011025e+00  6.4815527043995678e+00  4.7952695098924645e+00  3.5467118504463921e+00  2.6227127499668881e+00  1.9391429786447227e+00  1.4335696955284110e+00  1.0597111511024340e+00  7.8328595226390629e-01  5.7891587520216825e-01  4.2782105514156638e-01  3.1610794035786494e-01  2.3349918918099632e-01  1.7239223959604619e-01  1.2716185499211982e-01  9.3643500397764382e-02  6.8750559194981048e-02  5.0190455843990504e-02  3.6253713137248358e-02  2.5656601785845261e-02  1.7422984135028127e-02  1.0794209599204048e-02  5.1601210026884789e-03  -8.7177640641161501e-06  6.1404784081405633e+03  -4.3302135657014442e+03  9.1333908649350815e+03  -5.6538568031887653e+03  -1.8725306990945483e+03  6.8810743477175329e+03  -4.3367109430919500e+03  -1.8437030362861560e+03  3.6525269326856619e+03  4.2024649993662570e+03  1.3936134578848184e+03  1.4002960777620538e+03  -5.0951356288973657e+03  1.5486822363164067e+03  1.7584006412315266e+03  -1.0669082045438690e+03  3.8177267811585298e+03  -1.6312850591171227e+03  -4.6722477730081266e+02  3.0444566073807682e+03  -7.0908654616092758e+02  -9.4747533612830807e+02  1.0809963125546390e+03  -8.1260587884207905e+02  -2.9310472402616693e+02  1.5950240296120305e+03  -4.3345111693217495e+02  4.0769237641609416e+03  -1.4477178364764886e+03  -7.7444006727310680e+03  9.9557198011036826e+02  7.4400163419091923e+03  4.2244846471663514e+03  1.8281878206062840e+04  3.1027049616503813e+04  -2.3399809841932656e+04  1.9462419694788368e+04  -4.8522708932460146e+03  3.8060884716108321e+03  -4.3056596230691605e+02  -4.4439979204466027e+02  -3.5311437683025486e+02  3.9914855085514620e+02  1.5440930555655194e+02  2.4363794985988241e+02  1.5665967511759811e+02  1.2049856712643117e+02  7.2714213930674518e+01  7.7266626482975795e+01  4.0439121526319298e+01  4.0226663598107088e+01  2.5830047138818607e+01  2.0531851285361494e+01  1.4881852982008500e+01  1.1094199552352949e+01  8.1978705104202803e+00  6.0666412014771911e+00  4.4862978735662784e+00  3.3172620954512646e+00  2.4524873594014505e+00  1.8129861052372807e+00  1.3401473612400288e+00  9.9057761708583791e-01  7.3216083465943904e-01  5.4113790794224292e-01  3.9993657560847173e-01  2.9556265010001154e-01  2.1840830216874363e-01  1.6136984314352404e-01  1.1919487266502653e-01  8.7999258808764344e-02  6.4909780178647292e-02  4.7799685794294729e-02  3.5092907594358423e-02  2.5618941416838500e-02  1.8505053839918836e-02  1.3095915261592039e-02  8.8931557214177621e-03  5.5100782301905739e-03  2.6319955117614824e-03  4.5602363453822202e-06  -1.4414150668914173e+04  2.6767611343465805e+03  -3.6678971642283736e+03  1.9018710946423942e+03  -4.2015253807815325e+03  -4.4545933216333096e+03  3.7803966707959712e+03  -1.2134652645315869e+03  -2.2032289119534785e+03  -1.6620748797672306e+03  2.8624271214199985e+03  3.6995235194276697e+03  -5.0109122116702547e+03  -5.7707952981802882e+03  4.9927622306029741e+02  1.3429872109501898e+03  -4.8447769484555538e+03  -6.9796679967978241e+02  -6.8432613007372709e+02  5.9776797075770287e+02  4.6002639203259532e+03  -1.9701410513013955e+03  -4.0758148624684503e+02  3.9707407781043065e+02  4.0048785758735261e+02  -1.4561223228832991e+03  5.6507820891787901e+02  -2.4589371498117583e+02  1.6519323488586431e+03  2.0978229133507411e+03  -2.3240448467412963e+02  5.6564967623380026e+03  -1.5993957433100177e+00  -4.6217344486696959e+02  9.2324697511458908e+03  -6.4247522829268137e+03  -3.9812559013447785e+03  5.4432883239794282e+03  -3.5759832537915272e+03  2.9418993623703404e+03  -5.9481235746904122e+02  2.3069705855933285e+02  -3.0249988307717325e+02  1.7509704668684211e+02  -7.9186201227915333e+01  3.9430881907643304e+01  -4.3335573042189131e+00  6.5427729397649319e+00  -6.4986135470592945e+00  5.9867014231606888e+00  -2.7324815467536774e+00  1.2988128197044457e+00  -2.6260786721910229e-01  1.2749326796992141e-01  7.7841029279176535e-03  1.6716004017648639e-02  7.3253997922994368e-03  4.6763536514887591e-03  2.7769049525969971e-03  1.7447582176439076e-03  1.1209850633013404e-03  7.4021700992211851e-04  4.9983470927966820e-04  3.4408874413654952e-04  2.4065327516268093e-04  1.7047355495960649e-04  1.2198146355232537e-04  8.7965877202410430e-05  6.3811621521578482e-05  4.6491281383810464e-05  3.3973864739161673e-05  2.4869547017055610e-05  1.8210776186609909e-05  1.3314019304756903e-05  9.6893508200141927e-06  6.9861819454959515e-06  4.9128503480095824e-06  3.5061528292477130e-06  8.9128894775648393e-07  9.9448914344552187e-06  -7.1278158565395031e-05  6.0697121844008789e+03  2.5014684695748554e+04  1.8329234952104769e+04  -3.4917521203987485e+03  4.0485658832624331e+03  6.4443258103901508e+02  1.6241172544296289e+03  4.5652029784337192e+03  8.1373974620038271e+03  5.9505714336258407e+03  4.7510677366509044e+03  2.0874910474517183e+03  8.2448288684337622e+03  6.6319330973642263e+03  -6.3990424873562670e+03  -5.8736259903421924e+03  -6.7945179065077707e+02  5.4172832601651489e+03  9.8917820354737160e+02  -1.2769696351368987e+03  -5.2317053841523721e+03  -1.2863770464175983e+04  -1.7522035823648559e+04  -9.1188225409427305e+03  7.2734021246943385e+03  6.5354729879047236e+03  1.9818768439015471e+02  5.1681288606731123e+03  -1.8999905859703460e+03  6.7193559350624046e+03  -1.4110480547392932e+04  -7.0682748014200035e+02  1.4254882350543071e+03  5.3587687421893888e+03  7.5943273412592362e+03  5.2028453823330919e+03  2.7349877875276434e+03  1.7105812513905823e+03  5.6877599190692433e+02  1.3828351543840015e+03  7.2622428328316528e+02  1.1523730797140129e+03  6.8599090697864870e+02  8.0236134535271276e+02  5.1952766098290203e+02  5.0871954763183999e+02  3.6478998177571009e+02  3.1182636519397511e+02  2.3716583555048570e+02  1.8703248123655644e+02  1.4287232367571647e+02  1.0900753727310347e+02  8.2306208385951308e+01  6.1877199430208258e+01  4.6300369718719352e+01  3.4541028969274265e+01  2.5705456313105941e+01  1.9096280292268272e+01  1.4167478102760809e+01  1.0500418767245813e+01  7.7767930382930963e+00  5.7564705666328759e+00  4.2592597723645751e+00  3.1504873253241823e+00  2.3297936342366565e+00  1.7225506736880207e+00  1.2733517007371327e+00  9.4110720230477629e-01  6.9536933079057184e-01  5.1358703672130968e-01  3.7906146781021416e-01  2.7942559142728096e-01  2.0551472614445643e-01  1.5052762683352891e-01  1.0940286022653661e-01  7.8354134729283431e-02  5.4522311270388833e-02  3.5712865534962737e-02  2.0189429430545119e-02  6.5274525267356859e-03  4.8344699319209567e+03  1.1430059735738261e+04  1.7487268991167810e+04  1.4523812329652104e+04  4.0942589934571788e+03  7.1976967750982285e+03  2.7168016435823201e+03  1.6173032229134240e+03  6.7049117884969237e+03  3.2043904065767811e+03  6.2513126891385627e+03  1.1222600133404305e+04  5.5068169020965897e+03  5.8246992207