<?xml version="1.0"?>
<VTKFile type="UnstructuredGrid"  version="0.1"  >
<UnstructuredGrid>
<Piece  NumberOfPoints="1369" NumberOfCells="2560">
<Points>
<DataArray  type="Float64"  NumberOfComponents="3"  format="ascii">0 0 0  0.75 0 0  1.5 0 0  2.25 0 0  3 0 0  3.75 0 0  4.5 0 0  5.25 0 0  6 0 0  6.75 0 0  7.5 0 0  8.25 0 0  9 0 0  9.75 0 0  10.5 0 0  11.25 0 0  12 0 0  12.75 0 0  13.5 0 0  14.25 0 0  15 0 0  15.75 0 0  16.5 0 0  17.25 0 0  18 0 0  18.75 0 0  19.5 0 0  20.25 0 0  21 0 0  21.75 0 0  22.5 0 0  23.25 0 0  24 0 0  24.75 0 0  25.5 0 0  26.25 0 0  27 0 0  27.75 0 0  28.5 0 0  29.25 0 0  30 0 0  30.75 0 0  31.5 0 0  32.25 0 0  33 0 0  33.75 0 0  34.5 0 0  35.25 0 0  36 0 0  36.75 0 0  37.5 0 0  38.25 0 0  39 0 0  39.75 0 0  40.5 0 0  41.25 0 0  42 0 0  42.75 0 0  43.5 0 0  44.25 0 0  45 0 0  45.75 0 0  46.5 0 0  47.25 0 0  48 0 0  48.75 0 0  49.5 0 0  50.25 0 0  51 0 0  51.75 0 0  52.5 0 0  53.25 0 0  54 0 0  54.75 0 0  55.5 0 0  56.25 0 0  57 0 0  57.75 0 0  58.5 0 0  59.25 0 0  60 0 0  0 0.5 0  0.75 0.5 0  1.5 0.5 0  2.25 0.5 0  3 0.5 0  3.75 0.5 0  4.5 0.5 0  5.25 0.5 0  6 0.5 0  6.75 0.5 0  7.5 0.5 0  8.25 0.5 0  9 0.5 0  9.75 0.5 0  10.5 0.5 0  11.25 0.5 0  12 0.5 0  12.75 0.5 0  13.5 0.5 0  14.25 0.5 0  15 0.5 0  15.75 0.5 0  16.5 0.5 0  17.25 0.5 0  18 0.5 0  18.75 0.5 0  19.5 0.5 0  20.25 0.5 0  21 0.5 0  21.75 0.5 0  22.5 0.5 0  23.25 0.5 0  24 0.5 0  24.75 0.5 0  25.5 0.5 0  26.25 0.5 0  27 0.5 0  27.75 0.5 0  28.5 0.5 0  29.25 0.5 0  30 0.5 0  30.75 0.5 0  31.5 0.5 0  32.25 0.5 0  33 0.5 0  33.75 0.5 0  34.5 0.5 0  35.25 0.5 0  36 0.5 0  36.75 0.5 0  37.5 0.5 0  38.25 0.5 0  39 0.5 0  39.75 0.5 0  40.5 0.5 0  41.25 0.5 0  42 0.5 0  42.75 0.5 0  43.5 0.5 0  44.25 0.5 0  45 0.5 0  45.75 0.5 0  46.5 0.5 0  47.25 0.5 0  48 0.5 0  48.75 0.5 0  49.5 0.5 0  50.25 0.5 0  51 0.5 0  51.75 0.5 0  52.5 0.5 0  53.25 0.5 0  54 0.5 0  54.75 0.5 0  55.5 0.5 0  56.25 0.5 0  57 0.5 0  57.75 0.5 0  58.5 0.5 0  59.25 0.5 0  60 0.5 0  0 1 0  0.75 1 0  1.5 1 0  2.25 1 0  3 1 0  3.75 1 0  4.5 1 0  5.25 1 0  6 1 0  6.75 1 0  7.5 1 0  8.25 1 0  9 1 0  9.75 1 0  10.5 1 0  11.25 1 0  12 1 0  12.75 1 0  13.5 1 0  14.25 1 0  15 1 0  15.75 1 0  16.5 1 0  17.25 1 0  18 1 0  18.75 1 0  19.5 1 0  20.25 1 0  21 1 0  21.75 1 0  22.5 1 0  23.25 1 0  24 1 0  24.75 1 0  25.5 1 0  26.25 1 0  27 1 0  27.75 1 0  28.5 1 0  29.25 1 0  30 1 0  30.75 1 0  31.5 1 0  32.25 1 0  33 1 0  33.75 1 0  34.5 1 0  35.25 1 0  36 1 0  36.75 1 0  37.5 1 0  38.25 1 0  39 1 0  39.75 1 0  40.5 1 0  41.25 1 0  42 1 0  42.75 1 0  43.5 1 0  44.25 1 0  45 1 0  45.75 1 0  46.5 1 0  47.25 1 0  48 1 0  48.75 1 0  49.5 1 0  50.25 1 0  51 1 0  51.75 1 0  52.5 1 0  53.25 1 0  54 1 0  54.75 1 0  55.5 1 0  56.25 1 0  57 1 0  57.75 1 0  58.5 1 0  59.25 1 0  60 1 0  0 1.5 0  0.75 1.5 0  1.5 1.5 0  2.25 1.5 0  3 1.5 0  3.75 1.5 0  4.5 1.5 0  5.25 1.5 0  6 1.5 0  6.75 1.5 0  7.5 1.5 0  8.25 1.5 0  9 1.5 0  9.75 1.5 0  10.5 1.5 0  11.25 1.5 0  12 1.5 0  12.75 1.5 0  13.5 1.5 0  14.25 1.5 0  15 1.5 0  15.75 1.5 0  16.5 1.5 0  17.25 1.5 0  18 1.5 0  18.75 1.5 0  19.5 1.5 0  20.25 1.5 0  21 1.5 0  21.75 1.5 0  22.5 1.5 0  23.25 1.5 0  24 1.5 0  24.75 1.5 0  25.5 1.5 0  26.25 1.5 0  27 1.5 0  27.75 1.5 0  28.5 1.5 0  29.25 1.5 0  30 1.5 0  30.75 1.5 0  31.5 1.5 0  32.25 1.5 0  33 1.5 0  33.75 1.5 0  34.5 1.5 0  35.25 1.5 0  36 1.5 0  36.75 1.5 0  37.5 1.5 0  38.25 1.5 0  39 1.5 0  39.75 1.5 0  40.5 1.5 0  41.25 1.5 0  42 1.5 0  42.75 1.5 0  43.5 1.5 0  44.25 1.5 0  45 1.5 0  45.75 1.5 0  46.5 1.5 0  47.25 1.5 0  48 1.5 0  48.75 1.5 0  49.5 1.5 0  50.25 1.5 0  51 1.5 0  51.75 1.5 0  52.5 1.5 0  53.25 1.5 0  54 1.5 0  54.75 1.5 0  55.5 1.5 0  56.25 1.5 0  57 1.5 0  57.75 1.5 0  58.5 1.5 0  59.25 1.5 0  60 1.5 0  0 2 0  0.75 2 0  1.5 2 0  2.25 2 0  3 2 0  3.75 2 0  4.5 2 0  5.25 2 0  6 2 0  6.75 2 0  7.5 2 0  8.25 2 0  9 2 0  9.75 2 0  10.5 2 0  11.25 2 0  12 2 0  12.75 2 0  13.5 2 0  14.25 2 0  15 2 0  15.75 2 0  16.5 2 0  17.25 2 0  18 2 0  18.75 2 0  19.5 2 0  20.25 2 0  21 2 0  21.75 2 0  22.5 2 0  23.25 2 0  24 2 0  24.75 2 0  25.5 2 0  26.25 2 0  27 2 0  27.75 2 0  28.5 2 0  29.25 2 0  30 2 0  30.75 2 0  31.5 2 0  32.25 2 0  33 2 0  33.75 2 0  34.5 2 0  35.25 2 0  36 2 0  36.75 2 0  37.5 2 0  38.25 2 0  39 2 0  39.75 2 0  40.5 2 0  41.25 2 0  42 2 0  42.75 2 0  43.5 2 0  44.25 2 0  45 2 0  45.75 2 0  46.5 2 0  47.25 2 0  48 2 0  48.75 2 0  49.5 2 0  50.25 2 0  51 2 0  51.75 2 0  52.5 2 0  53.25 2 0  54 2 0  54.75 2 0  55.5 2 0  56.25 2 0  57 2 0  57.75 2 0  58.5 2 0  59.25 2 0  60 2 0  0 2.5 0  0.75 2.5 0  1.5 2.5 0  2.25 2.5 0  3 2.5 0  3.75 2.5 0  4.5 2.5 0  5.25 2.5 0  6 2.5 0  6.75 2.5 0  7.5 2.5 0  8.25 2.5 0  9 2.5 0  9.75 2.5 0  10.5 2.5 0  11.25 2.5 0  12 2.5 0  12.75 2.5 0  13.5 2.5 0  14.25 2.5 0  15 2.5 0  15.75 2.5 0  16.5 2.5 0  17.25 2.5 0  18 2.5 0  18.75 2.5 0  19.5 2.5 0  20.25 2.5 0  21 2.5 0  21.75 2.5 0  22.5 2.5 0  23.25 2.5 0  24 2.5 0  24.75 2.5 0  25.5 2.5 0  26.25 2.5 0  27 2.5 0  27.75 2.5 0  28.5 2.5 0  29.25 2.5 0  30 2.5 0  30.75 2.5 0  31.5 2.5 0  32.25 2.5 0  33 2.5 0  33.75 2.5 0  34.5 2.5 0  35.25 2.5 0  36 2.5 0  36.75 2.5 0  37.5 2.5 0  38.25 2.5 0  39 2.5 0  39.75 2.5 0  40.5 2.5 0  41.25 2.5 0  42 2.5 0  42.75 2.5 0  43.5 2.5 0  44.25 2.5 0  45 2.5 0  45.75 2.5 0  46.5 2.5 0  47.25 2.5 0  48 2.5 0  48.75 2.5 0  49.5 2.5 0  50.25 2.5 0  51 2.5 0  51.75 2.5 0  52.5 2.5 0  53.25 2.5 0  54 2.5 0  54.75 2.5 0  55.5 2.5 0  56.25 2.5 0  57 2.5 0  57.75 2.5 0  58.5 2.5 0  59.25 2.5 0  60 2.5 0  0 3 0  0.75 3 0  1.5 3 0  2.25 3 0  3 3 0  3.75 3 0  4.5 3 0  5.25 3 0  6 3 0  6.75 3 0  7.5 3 0  8.25 3 0  9 3 0  9.75 3 0  10.5 3 0  11.25 3 0  12 3 0  12.75 3 0  13.5 3 0  14.25 3 0  15 3 0  15.75 3 0  16.5 3 0  17.25 3 0  18 3 0  18.75 3 0  19.5 3 0  20.25 3 0  21 3 0  21.75 3 0  22.5 3 0  23.25 3 0  24 3 0  24.75 3 0  25.5 3 0  26.25 3 0  27 3 0  27.75 3 0  28.5 3 0  29.25 3 0  30 3 0  30.75 3 0  31.5 3 0  32.25 3 0  33 3 0  33.75 3 0  34.5 3 0  35.25 3 0  36 3 0  36.75 3 0  37.5 3 0  38.25 3 0  39 3 0  39.75 3 0  40.5 3 0  41.25 3 0  42 3 0  42.75 3 0  43.5 3 0  44.25 3 0  45 3 0  45.75 3 0  46.5 3 0  47.25 3 0  48 3 0  48.75 3 0  49.5 3 0  50.25 3 0  51 3 0  51.75 3 0  52.5 3 0  53.25 3 0  54 3 0  54.75 3 0  55.5 3 0  56.25 3 0  57 3 0  57.75 3 0  58.5 3 0  59.25 3 0  60 3 0  0 3.5 0  0.75 3.5 0  1.5 3.5 0  2.25 3.5 0  3 3.5 0  3.75 3.5 0  4.5 3.5 0  5.25 3.5 0  6 3.5 0  6.75 3.5 0  7.5 3.5 0  8.25 3.5 0  9 3.5 0  9.75 3.5 0  10.5 3.5 0  11.25 3.5 0  12 3.5 0  12.75 3.5 0  13.5 3.5 0  14.25 3.5 0  15 3.5 0  15.75 3.5 0  16.5 3.5 0  17.25 3.5 0  18 3.5 0  18.75 3.5 0  19.5 3.5 0  20.25 3.5 0  21 3.5 0  21.75 3.5 0  22.5 3.5 0  23.25 3.5 0  24 3.5 0  24.75 3.5 0  25.5 3.5 0  26.25 3.5 0  27 3.5 0  27.75 3.5 0  28.5 3.5 0  29.25 3.5 0  30 3.5 0  30.75 3.5 0  31.5 3.5 0  32.25 3.5 0  33 3.5 0  33.75 3.5 0  34.5 3.5 0  35.25 3.5 0  36 3.5 0  36.75 3.5 0  37.5 3.5 0  38.25 3.5 0  39 3.5 0  39.75 3.5 0  40.5 3.5 0  41.25 3.5 0  42 3.5 0  42.75 3.5 0  43.5 3.5 0  44.25 3.5 0  45 3.5 0  45.75 3.5 0  46.5 3.5 0  47.25 3.5 0  48 3.5 0  48.75 3.5 0  49.5 3.5 0  50.25 3.5 0  51 3.5 0  51.75 3.5 0  52.5 3.5 0  53.25 3.5 0  54 3.5 0  54.75 3.5 0  55.5 3.5 0  56.25 3.5 0  57 3.5 0  57.75 3.5 0  58.5 3.5 0  59.25 3.5 0  60 3.5 0  0 4 0  0.75 4 0  1.5 4 0  2.25 4 0  3 4 0  3.75 4 0  4.5 4 0  5.25 4 0  6 4 0  6.75 4 0  7.5 4 0  8.25 4 0  9 4 0  9.75 4 0  10.5 4 0  11.25 4 0  12 4 0  12.75 4 0  13.5 4 0  14.25 4 0  15 4 0  15.75 4 0  16.5 4 0  17.25 4 0  18 4 0  18.75 4 0  19.5 4 0  20.25 4 0  21 4 0  21.75 4 0  22.5 4 0  23.25 4 0  24 4 0  24.75 4 0  25.5 4 0  26.25 4 0  27 4 0  27.75 4 0  28.5 4 0  29.25 4 0  30 4 0  30.75 4 0  31.5 4 0  32.25 4 0  33 4 0  33.75 4 0  34.5 4 0  35.25 4 0  36 4 0  36.75 4 0  37.5 4 0  38.25 4 0  39 4 0  39.75 4 0  40.5 4 0  41.25 4 0  42 4 0  42.75 4 0  43.5 4 0  44.25 4 0  45 4 0  45.75 4 0  46.5 4 0  47.25 4 0  48 4 0  48.75 4 0  49.5 4 0  50.25 4 0  51 4 0  51.75 4 0  52.5 4 0  53.25 4 0  54 4 0  54.75 4 0  55.5 4 0  56.25 4 0  57 4 0  57.75 4 0  58.5 4 0  59.25 4 0  60 4 0  0.375 0.25 0  1.125 0.25 0  1.875 0.25 0  2.625 0.25 0  3.375 0.25 0  4.125 0.25 0  4.875 0.25 0  5.625 0.25 0  6.375 0.25 0  7.125 0.25 0  7.875 0.25 0  8.625 0.25 0  9.375 0.25 0  10.125 0.25 0  10.875 0.25 0  11.625 0.25 0  12.375 0.25 0  13.125 0.25 0  13.875 0.25 0  14.625 0.25 0  15.375 0.25 0  16.125 0.25 0  16.875 0.25 0  17.625 0.25 0  18.375 0.25 0  19.125 0.25 0  19.875 0.25 0  20.625 0.25 0  21.375 0.25 0  22.125 0.25 0  22.875 0.25 0  23.625 0.25 0  24.375 0.25 0  25.125 0.25 0  25.875 0.25 0  26.625 0.25 0  27.375 0.25 0  28.125 0.25 0  28.875 0.25 0  29.625 0.25 0  30.375 0.25 0  31.125 0.25 0  31.875 0.25 0  32.625 0.25 0  33.375 0.25 0  34.125 0.25 0  34.875 0.25 0  35.625 0.25 0  36.375 0.25 0  37.125 0.25 0  37.875 0.25 0  38.625 0.25 0  39.375 0.25 0  40.125 0.25 0  40.875 0.25 0  41.625 0.25 0  42.375 0.25 0  43.125 0.25 0  43.875 0.25 0  44.625 0.25 0  45.375 0.25 0  46.125 0.25 0  46.875 0.25 0  47.625 0.25 0  48.375 0.25 0  49.125 0.25 0  49.875 0.25 0  50.625 0.25 0  51.375 0.25 0  52.125 0.25 0  52.875 0.25 0  53.625 0.25 0  54.375 0.25 0  55.125 0.25 0  55.875 0.25 0  56.625 0.25 0  57.375 0.25 0  58.125 0.25 0  58.875 0.25 0  59.625 0.25 0  0.375 0.75 0  1.125 0.75 0  1.875 0.75 0  2.625 0.75 0  3.375 0.75 0  4.125 0.75 0  4.875 0.75 0  5.625 0.75 0  6.375 0.75 0  7.125 0.75 0  7.875 0.75 0  8.625 0.75 0  9.375 0.75 0  10.125 0.75 0  10.875 0.75 0  11.625 0.75 0  12.375 0.75 0  13.125 0.75 0  13.875 0.75 0  14.625 0.75 0  15.375 0.75 0  16.125 0.75 0  16.875 0.75 0  17.625 0.75 0  18.375 0.75 0  19.125 0.75 0  19.875 0.75 0  20.625 0.75 0  21.375 0.75 0  22.125 0.75 0  22.875 0.75 0  23.625 0.75 0  24.375 0.75 0  25.125 0.75 0  25.875 0.75 0  26.625 0.75 0  27.375 0.75 0  28.125 0.75 0  28.875 0.75 0  29.625 0.75 0  30.375 0.75 0  31.125 0.75 0  31.875 0.75 0  32.625 0.75 0  33.375 0.75 0  34.125 0.75 0  34.875 0.75 0  35.625 0.75 0  36.375 0.75 0  37.125 0.75 0  37.875 0.75 0  38.625 0.75 0  39.375 0.75 0  40.125 0.75 0  40
[...]
<PointData  Scalars="f_8-1"> 
<DataArray  type="Float64"  Name="f_8-1"  format="ascii">-6.3583322548896552e+05  1.6863184613672954e+06  -3.4058299829632821e+06  4.3279035996715790e+06  3.8089087526413365e+06  -3.7419757246947219e+06  -3.8840582844744585e+06  -2.8812333179166587e+06  3.6457373406822211e+04  -3.9706849711109325e+06  -1.5519612578659246e+06  -8.0926934580881037e+06  -5.6556663915823298e+06  -4.7030600766285732e+06  -3.6312288869553762e+06  -6.0975874359275661e+06  3.2300795273705791e+06  -8.2617240865206476e+06  3.0312468879172532e+06  -1.0224146287212113e+07  -5.2628783533468824e+06  -7.9000484437868875e+06  -8.2242235712041445e+06  -5.4474343825151643e+05  -6.8805541250640189e+05  1.1450482861862218e+06  1.4372139528290795e+06  1.5681908036489619e+07  1.0557416151371123e+07  3.1958154281847519e+06  -1.5788323136551259e+05  5.2009132944126148e+05  -5.1730946027132391e+05  2.8541240476244166e+06  -9.0577040628986189e+05  7.6940989959375118e+05  3.3450184478678438e+06  2.4988388457757691e+06  2.1232026034416161e+06  3.2152994301971729e+05  3.1501324453754178e+06  6.8111084213080374e+05  1.9632634762361399e+06  3.0265336343322797e+06  3.8547986814742396e+06  2.9735782338779829e+06  1.4236015269184969e+06  1.0112291307386913e+06  -2.8791788518083962e+06  1.2195289863405032e+06  -1.3870876534339115e+06  -1.0691800259877865e+06  -1.3356782487784035e+06  -1.6790930154860215e+06  -2.6236846535310885e+06  -7.2956464484398894e+05  4.4589242866208591e+05  1.6758957864010578e+06  5.3909495676158054e+05  3.3095451249868952e+05  -2.6976603578682238e+05  -1.3105783131015096e+06  -1.9211337126838113e+06  -2.9767530934683140e+06  -7.8909264826327178e+05  -5.6137081017462933e+05  5.7941703824862058e+05  1.5145854912359060e+06  -4.7232938029398530e+05  -1.6351995290463872e+05  2.8670731356359593e+04  -1.5082956771935771e+04  2.1482667634778612e+05  -3.6272466905143886e+05  7.5741152182502358e+05  3.6472415463148995e+05  5.6527392136888773e+02  1.2785460174182506e+05  -1.1506038903376598e+03  -1.5553753510001296e+05  1.1721245827966854e+05  8.0184666596297699e+04  5.0424325467335101e+05  -4.7785472074781073e+05  1.6044951313772562e+06  2.8402212581423600e+06  -9.6051605756569263e+06  -2.8660584052287634e+06  -4.5736818035567841e+06  -3.8132916626515491e+06  -2.6249934708164753e+06  -1.9227348000211376e+06  -7.5116937413397562e+06  -5.4343275428155474e+06  -4.0229048469329705e+06  -4.4042630244273786e+06  -5.8439903367164489e+06  1.7847305968558181e+06  -5.7736284599301172e+06  -3.0407542739248197e+06  -5.4647011408284409e+06  -7.8725230657949345e+06  -4.5414460876953918e+06  -1.5553572412051691e+06  -4.7813001553944508e+06  -1.7277306775245714e+04  5.9642759807705448e+05  -2.5726843624291406e+06  7.4744781836907640e+06  5.3534708261461239e+06  7.5673921260241866e+06  3.4616022018340015e+05  4.1084673623423916e+06  1.6764282493515231e+06  9.0433255851833470e+04  5.7660544918809496e+06  1.7797052873012258e+06  3.8608935949093648e+06  2.4425965642844094e+06  6.2163341397361271e+05  -7.6265712120881653e+05  -9.2465896509834949e+05  2.1233473097243896e+06  2.0058876629780983e+06  2.7023629180811732e+06  3.4326338026630036e+06  3.1646649990923107e+06  2.2350233636649782e+06  -2.6875770603025034e+04  7.6893982001243485e+05  -5.0190924235286226e+05  9.1474663935610282e+04  -2.8826769660714426e+05  -1.9701536144006595e+06  -1.6893388756124256e+06  -1.7267525325939739e+06  -4.5785542322575755e+05  1.3350487715413894e+06  1.3652876502298599e+06  -1.7768018617961364e+05  -3.2647938561464398e+05  1.4038984570438066e+05  -9.2820365191454871e+05  -2.7833159407336991e+06  -2.3074787449566568e+06  -5.4375204718634125e+05  4.8789561179327800e+04  7.9907081372170453e+05  8.4281149045515296e+04  2.9075562039021828e+05  -1.9254792336158137e+05  -5.3174310981068923e+05  7.4079824634544086e+04  -2.1976424962759294e+05  -1.1191782067250655e+05  4.0608817904266890e+05  2.2723634860413400e+04  -1.8820176348995781e+04  -3.4726214781358933e+04  2.2859267355641950e+05  -1.2875263375355880e+05  -2.4935937043922597e+04  -1.1590231971400414e+05  1.0828910082045409e+06  1.6456278819507584e+06  2.7351234481452144e+05  1.4654854991146985e+06  -3.9126994652324403e+06  -4.7587045082144579e+06  -3.4206338520640568e+06  -4.1607682152021448e+06  -3.9141919795408212e+06  -1.5712511340162177e+06  -6.6352660805488415e+06  -7.3281493045310024e+06  -4.3339027887404365e+06  -4.8279239333295636e+06  -6.5961567135603558e+06  4.9187375208817137e+05  5.9232595054202364e+05  -1.0625808262771133e+07  -7.1052405065412726e+06  -7.6773169850474522e+06  -3.2891121675987397e+06  -3.5057329203979359e+06  -2.5935598810760211e+06  1.8269805702984275e+06  -1.1050371668693977e+06  3.7608209423781158e+06  6.4077536847221833e+06  1.0428871007017147e+07  3.9861935373859694e+06  1.7615805338361545e+06  3.3229437327910592e+06  3.1814175803985605e+06  3.1321975172531218e+06  9.4894930546056964e+06  4.5185107746531228e+06  -1.3092964811619879e+06  7.8434080624785172e+06  -3.6086691502730078e+06  2.5442256801139317e+06  -6.1007038516856602e+05  1.0912791878242772e+06  5.3674708442230814e+05  -8.1398259240343142e+05  9.2196823078022478e+05  2.0592820397689983e+06  1.7098254908319858e+06  2.2614848690561131e+06  -4.2371930017311266e+05  1.6575222851134959e+05  -5.8401990191271529e+05  -2.0826690592021187e+05  -2.8518932521556588e+06  -2.2481170097332224e+06  -6.7468233912547817e+05  -5.5978676482003625e+05  4.4882047058572358e+05  6.6567011009983602e+05  -9.1286895448181196e+05  -1.3450548340329065e+05  -2.1534249379402905e+05  -9.2674509901345510e+05  -1.4990442902348326e+06  -1.9617213692801498e+05  -1.4845415019362413e+06  4.5920490647614333e+03  1.1584591421174137e+06  4.1403014958543901e+05  3.6022768668697274e+04  3.0338800438754167e+05  -1.9021684360972236e+05  -9.7498413390523463e+04  -2.0039459726274645e+05  -3.1113560169709299e+05  3.9011403424675536e+05  5.6355924342789326e+05  2.3963325933673670e+04  6.5783365855555807e+05  -1.0521677258882351e+04  -9.9330706629932203e+04  2.6389124416373747e+03  -1.0775690891274142e+04  -3.6394909307920677e+05  3.2482423706425321e+06  -1.3810300089281955e+05  -1.6337235232937380e+06  -1.5299437353234750e+05  -6.2863984160063381e+05  -2.7292214285762148e+05  -1.3853101675167240e+06  -2.6280046663805181e+06  -1.5107503707867514e+06  -7.8000239348187046e+06  -8.1292908349191314e+06  -4.0456610706071542e+06  -2.4197664746531360e+06  -9.5775212528570890e+06  -2.7758659108796315e+06  -1.7180539984341450e+06  -4.2573228538303375e+06  -1.8308802874420949e+06  -7.0703288913720632e+06  -5.6043938912441954e+06  -1.1024064125867814e+06  -2.2711153495874638e+06  -3.2653853512838916e+06  -1.7583798062987472e+06  -2.2481495687722703e+06  6.8536352011257978e+06  5.6133028177448744e+06  1.7069595025726096e+06  4.7513656939129578e+06  6.2241570962252636e+06  2.8355418871258353e+06  2.5079021792531540e+06  4.0423397776000099e+06  3.4781217635729406e+06  1.6223605079405233e+06  1.9600865066780234e+06  3.8039073418317240e+05  2.0296160135742896e+06  -1.9480431051580245e+06  1.5686756073731417e+06  1.3405386012456098e+06  -3.4126118742985372e+05  -1.1014302049836689e+06  -1.4852279326199489e+06  -9.4974376268794562e+05  3.7167426220779074e+05  1.3005101910294627e+06  -3.1087028238847369e+05  3.5001047008825297e+05  -1.3362562552851662e+06  4.4518229553490644e+05  -5.3746978220446093e+05  -9.7813464878366224e+05  -1.8063035620662654e+05  8.4405004244415252e+05  -3.4241558199172490e+05  -1.5969711755722661e+06  1.7722075956600715e+05  7.7200018030300806e+05  1.3949986364608130e+06  2.3523591947859310e+05  7.2234299555450736e+05  -1.5488189861334388e+06  8.5441549125037284e+05  6.9780619402114942e+05  1.6080885628379931e+05  7.5382709692064347e+05  -8.8916529997422767e+04  9.9920946921182665e+04  9.1653243696667210e+04  -3.0449089189990718e+04  -1.3970344166619163e+04  3.3797759913410171e+05  8.6387471470204880e+04  7.6167945452697270e+04  1.6163105318567096e+05  1.3989227931614401e+04  -2.1076603596057472e+05  -5.5048958172009021e+04  2.2970595421970647e+05  1.2768261448086437e+06  4.6494665256302472e+05  1.8691204661351107e+06  1.0728548242046028e+05  3.2527217664709169e+05  3.3253930086676832e+06  -7.1908171939189034e+05  -3.5646938057354125e+06  -2.0865325476083478e+06  -1.9889341719885312e+06  -1.0376570896966688e+06  -1.0924189016161617e+07  -2.5806942405113662e+06  -5.4348140047953036e+06  -1.4505884641925280e+06  -1.1397327466057776e+07  -4.3236706140087545e+06  -4.1200663031858224e+06  -2.6790090298590804e+06  -6.7422704352849890e+06  -8.9160431737894062e+06  2.2557505782803516e+06  4.5036073758324725e+05  1.8487034609292962e+06  -1.8037717962484097e+06  4.7975469115029890e+06  -3.6623450971295564e+06  8.2943202429315904e+06  6.5542990685216095e+06  1.5187657639555668e+06  2.5759252521167491e+06  2.2435332322849343e+06  2.3004083501481153e+06  2.0506315456795213e+06  2.6733501363985133e+06  8.4588156115322432e+05  -2.3475595558112054e+06  5.2171245321355630e+06  -1.1157902726900816e+05  2.4007151129742162e+06  7.6593677274499869e+05  1.3283571818512953e+06  -8.6853242855677591e+05  4.2665377101021062e+04  -7.3806344935654546e+05  2.9638043486104032e+05  -1.2156598219003933e+06  3.5925059128137032e+05  -5.1145600120780489e+05  6.2964760086520133e+05  -7.9534584769212967e+05  4.9459058936825785e+05  -1.1813480552856550e+06  -1.0553040966620950e+06  -7.8774747151426494e+05  2.6630841016516689e+05  -1.5554959573414366e+05  9.3609337334644806e+05  1.1916812967298860e+06  2.0524229483935316e+06  1.9482441379185731e+05  -5.2233212986676628e+05  -9.3799848482476908e+05  4.0680163397268465e+04  1.4023545245151310e+06  -4.5499283296963014e+05  8.6402579434118688e+05  2.7185082035244303e+05  4.2436410880461778e+05  1.1863874019562962e+05  7.6864889869358027e+04  2.2990173071128491e+05  5.2014456838971365e+05  5.9693179025805800e+05  5.2282347262226489e+04  2.5240004947340232e+05  -8.0151831215608336e+03  1.9545811484401935e+05  -1.7716626774344352e+05  -1.1579072093130683e+05  -9.6517577525111462e+05  3.1542750482882312e+06  1.3409986897877825e+06  2.1930169863455128e+06  3.7972432764081063e+05  1.0935211041548199e+06  1.3545633418380262e+06  -1.9372764666345047e+06  -1.5030322142306951e+05  -1.6141491820459259e+06  1.7146007420729226e+06  -2.5958085456098109e+06  3.9208054543152060e+06  -3.4545134389234851e+06  4.8396076446990529e+06  1.9504458121274132e+06  -1.0785532914284768e+07  -3.3180037403595960e+06  -6.2504831176613327e+06  -2.8522924234132618e+06  -4.8572671384397475e+06  -3.3294229667754550e+06  2.4625929336900422e+06  -1.8071977575761655e+06  1.5657102394812292e+05  -2.6042561573249316e+06  -3.7759017052851170e+06  -7.7363024162104782e+06  -6.9699872709589486e+05  -2.7775799123341059e+06  6.5037457636425979e+06  3.6088318478897274e+06  1.1573443303876386e+06  -3.1824414163081290e+05  1.9128838025333367e+06  3.5245168568885964e+06  -2.4238211802625604e+05  -5.5633307613906183e+05  9.7095383344094164e+05  1.2823736757956361e+06  3.1766942377975251e+05  1.8491092292712359e+06  -1.3044823145719082e+06  1.2941964533329143e+06  -1.2314002773775831e+06  -3.7347424932496011e+05  -3.3300825808652694e+05  9.5549127190612518e+04  2.5914683456556704e+04  1.5322446985655667e+06  6.5531799113576754e+05  4.1416690235802140e+06  -6.7725585709770843e+06  1.3484203411812973e+06  -1.8896703977684567e+06  2.3079355896047717e+04  -9.1291945036780229e+05  -3.5004447762468923e+05  8.6226348914941249e+05  1.5973785720797281e+06  3.7278604815374420e+05  -2.7801499932343053e+05  -1.8624896930743943e+06  -3.2200340926981508e+05  -4.5801691337503231e+05  3.5784122738854348e+05  1.6161160782309607e+05  8.5978884703640803e+05  5.7099379921857768e+05  -1.5012799042024766e+04  4.2924235754900199e+05  5.6752532045146090e+05  3.3617458229559037e+05  4.1131152200668008e+05  3.2538907795705763e+05  3.6086374799730474e+04  2.5606442204104882e+05  1.1518395003835949e+05  1.6446471435567073e+05  -2.7935210591978056e+05  1.2969900101693199e+05  1.8230991540767078e+05  -4.7575152359687933e+05  9.7937085297617037e+05  -5.0004619790172594e+05  6.4750694723449368e+05  1.5908966370080174e+06  2.8001912292713101e+05  -1.7322195608062821e+05  -3.1820262839605182e+05  -1.0557307629218309e+06  -1.7058150948123946e+06  1.2644630063308319e+06  -2.7059016472334191e+06  -5.2400478821002640e+05  -5.9597414326399779e+06  2.6997168672801056e+06  -2.7783865893444517e+06  6.9473578830525361e+05  -4.8627995541956006e+06  3.5127011025881860e+04  -1.4173437073108945e+06  -2.3738940613461034e+06  1.0431718700848345e+06  -5.2923176335625127e+06  1.5890550657580313e+05  -3.0599468969389624e+06  2.5277243033519192e+05  -6.0750109707423104e+06  -6.1486808062829135e+05  3.0798577793532563e+06  3.7103952044991213e+06  2.7719338284903057e+06  -2.4665757427351468e+05  3.0578157156174746e+05  1.2567217640451585e+05  2.0161731934706955e+06  -4.4921515418027324e+05  9.2253929058406851e+05  -5.1185588680297678e+05  -1.2188995962401423e+05  -4.0325178293975303e+05  1.2673304166688768e+06  7.4703540028120950e+05  -1.8277815335184522e+06  1.8645151077413931e+05  9.8846838980483566e+05  4.3191766074030468e+05  -7.3014655466824782e+05  3.2682224850135128e+05  2.0333347927166517e+06  2.2394743851934788e+06  -2.0907310600459729e+06  -2.2539325241366732e+06  -2.0270091003259574e+06  -1.3601680032020041e+06  -5.7276657077578537e+05  -4.2482361827439221e+05  1.3638259246919435e+06  -5.6418610251864523e+05  5.2461769334672717e+05  6.4426493162193953e+05  -4.7255664544824540e+05  1.7117727387540237e+05  -1.3398552846550704e+06  -5.4285074127102045e+04  -5.5179986427071900e+05  2.7069826458009600e+05  6.8454991983889288e+05  4.1549428307359683e+05  3.7162649692355661e+05  3.0900944193743524e+05  6.2619767686439573e+05  5.7361638508919103e+05  3.2928391976356570e+05  2.6950878763304546e+05  2.1406429526067877e+05  2.0864906672747759e+05  1.5594782187684102e+05  -3.6610733847782627e+04  1.0423315280402900e+05  4.4617102380411918e+04  -1.4668502416887842e+05  -2.7778604326652782e+05  -4.7340743975006277e+05  6.2652793710090096e+04  -9.4173458419423329e+05  2.3153425375332643e+05  4.8657306402622501e+05  -8.2579291069289320e+05  1.0727492845478407e+06  -1.0101094708453127e+06  -2.4764089851024695e+05  -9.6006701398462319e+04  1.0852004045688175e+06  -2.5185022405129168e+06  -4.9988793447550648e+05  -2.2826850084192413e+06  7.9885634425196797e+05  -1.4140622903466998e+06  -7.0595701327351492e+05  2.7847648024207694e+06  -1.1527620952590317e+06  -5.9641759984052996e+05  3.7193536569015249e+06  -3.1644515073909904e+06  -2.6291035397178051e+06  2.4495063749541232e+05  2.1806367336533271e+05  6.7695319112983416e+05  -4.8054548658506228e+06  -5.6731467689366848e+05  3.3368609513703437e+05  -6.0552876028513676e+05  -9.1514075231513416e+05  -2.5335265513589571e+05  8.8623165935561107e+05  9.5043044524962595e+05  1.1902406912414383e+06  2.2306305328866444e+06  -6.5983814844714187e+05  6.1597943157616130e+05  -1.8801823789582422e+05  -3.1320137603138876e+05  -2.1138834093571512e+05  1.1477156501693837e+05  -2.6578452241721456e+06  4.2371968944477681e+06  7.4680221796957904e+05  -4.5009052937805635e+05  -3.6589428250522725e+05  -2.2306940823330842e+06  -1.8420503186814492e+06  -1.5035741569930536e+05  1.7003785705815125e+06  3.7024677751580148e+05  -3.5915132170708016e+06  -5.3789984793006268e+05  -7.8697043654718247e+04  2.6506137135452969e+05  -4.0723518008195335e+05  -3.8650789458615822e+05  1.1197821510035649e+06  -9.3820338391828258e+05  3.3294836782628996e+05  -5.4001566274506898e+04  -6.2050379821905066e+04  -5.3506632282531902e+05  -4.6397172799077578e+05  -8.5673319198465021e+05  -1.3509603427746572e+05  4.9668678072234220e+05  3.0238137595175800e+05  4.0203458030962612e+05  1.8265055791945299e+05  3.8353065449128003e+05  -5.9983441678694653e+04  3.6064939197872678e+05  -1.0413402365751391e+05  2.7646489212028461e+05  1.4098822697036364e+05  1.7475142802718512e+05  7.5155998946777472e+04  -1.3948809621059161e+05  -5.4403268925881872e+04  9.0376412242591253e+05  -4.6444261315125268e+05  3.7081264082837384e+04  4.3199702380566963e+05  2.2688491750325976e+05  -3.2159603641719086e+05  8.8203422157732688e+05  -6.3729541757782316e+05  -9.5648757224760175e+03  -1.7550768744925736e+05  7.6939477313790587e+05  1.0662355320015567e+05  -6.8483736601564032e+05  5.5244242279212689e+05  6.8262594811413402e+05  -8.7777483005701262e+05  -2.1597137195984614e+06  1.7480119904832428e+06  2.9589221433653327e+05  -8.8629928524700529e+05  1.1984852698836646e+06  -2.2497051929546581e+06  2.6572284889846500e+06  -7.5275330259518407e+05  1.6414315127713585e+06  -5.4042007216708083e+05  1.1433181680001612e+06  -1.0006301990748252e+06  1.9262396261597928e+06  -4.5029096876965120e+05  -1.2222244556580253e+06  5.6939419877266488e+05  -1.6824248807663061e+06  1.4671976001669278e+06  -9.9104143445691315e+05  9.3974933345760114e+05  -1.0409845239248356e+06  1.5246333877294592e+05  -8.2272744277653052e+04  -6.1498664574330847e+05  -3.9810458863914118e+05  -2.0319486561698918e+05  3.0544529194023652e+05  3.1857414212120282e+04  1.0285548710590217e+06  -6.5997121932992522e+04  -1.0520174465585503e+05  -3.4322608545680682e+05  2.7268265191183500e+06  -1.7066703979360203e+06  9.6428749087043409e+05  -6.8311036604150431e+05  1.0582199332428589e+06  -1.7214649541844791e+05  1.8701193210422725e+05  -1.8502752435163717e+05  -1.8066008073565422e+05  -5.4704240845483926e+05  8.2664003423897171e+04  -2.3998990669084530e+05  2.3379548984990950e+05  6.0794277925735316e+05  1.3161127237740553e+04  4.0104151417665434e+05  2.1077063128431550e+04  -8.4455730982089182e+04  2.4477639363024366e+05  7.4227934902232257e+04  -2.2873568082548343e+04  -5.9302927773364918e+03  2.1762358838820489e+05  4.9920379024817458e+02  -2.1423890313338525e+04  -9.1743358453885412e+03  -1.1250446152234841e+04  2.8332755714316957e+05  -1.9275645497925565e+05  3.2402435014589742e+05  -5.5939091525807096e+04  5.3431695032904034e+04  1.7528324582203131e+06  3.0128691505096168e+06  2.3103755880316915e+06  2.9929856755282095e+05  -7.4629156538215159e+06  -5.5017398671787418e+06  -2.0524127202793893e+06  -3.3973989071020172e+06  7.9272728118849162e+04  -6.4980521941383230e+06  -1.2231702083978632e+06  -5.7671462672091024e+06  -5.0893943634349946e+06  -4.8345503249005284e+06  -8.0705456675025634e+05  -1.0734016339737016e+06  -3.3796042268857001e+06  -7.1442721594576575e+06  -5.0700222477580495e+06  -5.4956199009090168e+06  -1.2335319246277267e+07  -3.2653764259567782e+06  -1.0604445008207674e+06  -7.5883239041537815e+05  2.6069110675278972e+06  1.0655921937043786e+07  1.0298932264375318e+07  5.4709558349496555e+06  9.2937347894724943e+06  1.8829935752621789e+06  4.9353945644564839e+05  -3.4603248460578192e+06  4.3122887094869455e+06  1.9049415823044253e+06  3.1952176504716552e+06  5.1687751225428376e+06  2.2350913089940972e+06  -3.9884615737348190e+05  2.2824611877625436e+05  2.7114257925082860e+05  1.0870092772869514e+06  2.6820201812059646e+06  3.1777289249929241e+06  3.9101760673096152e+06  2.6182671220106320e+06  8.1091393744739622e+05  3.2804951126082015e+04  1.7101437359197105e+06  -9.5456172423838382e+05  -1.0283779149194341e+06  -2.6030585600564862e+06  -1.7584697480730156e+06  -2.3421127290088292e+06  -8.9136875277635700e+05  1.5341504316273404e+05  1.2724577983983865e+06  7.0488036623037292e+05  -2.5905073881199825e+05  -8.3833565164630790e+05  9.5181720399903494e+05  -1.6412211121374108e+06  -3.4183138617371921e+06  -1.5252078644727026e+06  -1.5323370852356332e+06  -1.0709889331934841e+05  1.4718988860033259e+06  3.9024875374356547e+05  2.6626980908110423e+05  -2.9937432847284654e+05  -5.2065843568636401e+05  1.0669245173834360e+05  4.7711759742567362e+05  2.6121012074216988e+05  4.2440712675667682e+05  1.0124147625561873e+05  -4.7376887903309442e+04  1.5604914367065034e+05  -1.8267683019864949e+05  -5.8549624574701716e+04  8.8619624774759612e+05  9.5800801632639626e+05  -1.8266368848434861e+06  8.8367792038988904e+