<?xml version="1.0"?>
<VTKFile type="UnstructuredGrid"  version="0.1"  >
<UnstructuredGrid>
<Piece  NumberOfPoints="1369" NumberOfCells="2560">
<Points>
<DataArray  type="Float64"  NumberOfComponents="3"  format="ascii">0 0 0  0.75 0 0  1.5 0 0  2.25 0 0  3 0 0  3.75 0 0  4.5 0 0  5.25 0 0  6 0 0  6.75 0 0  7.5 0 0  8.25 0 0  9 0 0  9.75 0 0  10.5 0 0  11.25 0 0  12 0 0  12.75 0 0  13.5 0 0  14.25 0 0  15 0 0  15.75 0 0  16.5 0 0  17.25 0 0  18 0 0  18.75 0 0  19.5 0 0  20.25 0 0  21 0 0  21.75 0 0  22.5 0 0  23.25 0 0  24 0 0  24.75 0 0  25.5 0 0  26.25 0 0  27 0 0  27.75 0 0  28.5 0 0  29.25 0 0  30 0 0  30.75 0 0  31.5 0 0  32.25 0 0  33 0 0  33.75 0 0  34.5 0 0  35.25 0 0  36 0 0  36.75 0 0  37.5 0 0  38.25 0 0  39 0 0  39.75 0 0  40.5 0 0  41.25 0 0  42 0 0  42.75 0 0  43.5 0 0  44.25 0 0  45 0 0  45.75 0 0  46.5 0 0  47.25 0 0  48 0 0  48.75 0 0  49.5 0 0  50.25 0 0  51 0 0  51.75 0 0  52.5 0 0  53.25 0 0  54 0 0  54.75 0 0  55.5 0 0  56.25 0 0  57 0 0  57.75 0 0  58.5 0 0  59.25 0 0  60 0 0  0 0.5 0  0.75 0.5 0  1.5 0.5 0  2.25 0.5 0  3 0.5 0  3.75 0.5 0  4.5 0.5 0  5.25 0.5 0  6 0.5 0  6.75 0.5 0  7.5 0.5 0  8.25 0.5 0  9 0.5 0  9.75 0.5 0  10.5 0.5 0  11.25 0.5 0  12 0.5 0  12.75 0.5 0  13.5 0.5 0  14.25 0.5 0  15 0.5 0  15.75 0.5 0  16.5 0.5 0  17.25 0.5 0  18 0.5 0  18.75 0.5 0  19.5 0.5 0  20.25 0.5 0  21 0.5 0  21.75 0.5 0  22.5 0.5 0  23.25 0.5 0  24 0.5 0  24.75 0.5 0  25.5 0.5 0  26.25 0.5 0  27 0.5 0  27.75 0.5 0  28.5 0.5 0  29.25 0.5 0  30 0.5 0  30.75 0.5 0  31.5 0.5 0  32.25 0.5 0  33 0.5 0  33.75 0.5 0  34.5 0.5 0  35.25 0.5 0  36 0.5 0  36.75 0.5 0  37.5 0.5 0  38.25 0.5 0  39 0.5 0  39.75 0.5 0  40.5 0.5 0  41.25 0.5 0  42 0.5 0  42.75 0.5 0  43.5 0.5 0  44.25 0.5 0  45 0.5 0  45.75 0.5 0  46.5 0.5 0  47.25 0.5 0  48 0.5 0  48.75 0.5 0  49.5 0.5 0  50.25 0.5 0  51 0.5 0  51.75 0.5 0  52.5 0.5 0  53.25 0.5 0  54 0.5 0  54.75 0.5 0  55.5 0.5 0  56.25 0.5 0  57 0.5 0  57.75 0.5 0  58.5 0.5 0  59.25 0.5 0  60 0.5 0  0 1 0  0.75 1 0  1.5 1 0  2.25 1 0  3 1 0  3.75 1 0  4.5 1 0  5.25 1 0  6 1 0  6.75 1 0  7.5 1 0  8.25 1 0  9 1 0  9.75 1 0  10.5 1 0  11.25 1 0  12 1 0  12.75 1 0  13.5 1 0  14.25 1 0  15 1 0  15.75 1 0  16.5 1 0  17.25 1 0  18 1 0  18.75 1 0  19.5 1 0  20.25 1 0  21 1 0  21.75 1 0  22.5 1 0  23.25 1 0  24 1 0  24.75 1 0  25.5 1 0  26.25 1 0  27 1 0  27.75 1 0  28.5 1 0  29.25 1 0  30 1 0  30.75 1 0  31.5 1 0  32.25 1 0  33 1 0  33.75 1 0  34.5 1 0  35.25 1 0  36 1 0  36.75 1 0  37.5 1 0  38.25 1 0  39 1 0  39.75 1 0  40.5 1 0  41.25 1 0  42 1 0  42.75 1 0  43.5 1 0  44.25 1 0  45 1 0  45.75 1 0  46.5 1 0  47.25 1 0  48 1 0  48.75 1 0  49.5 1 0  50.25 1 0  51 1 0  51.75 1 0  52.5 1 0  53.25 1 0  54 1 0  54.75 1 0  55.5 1 0  56.25 1 0  57 1 0  57.75 1 0  58.5 1 0  59.25 1 0  60 1 0  0 1.5 0  0.75 1.5 0  1.5 1.5 0  2.25 1.5 0  3 1.5 0  3.75 1.5 0  4.5 1.5 0  5.25 1.5 0  6 1.5 0  6.75 1.5 0  7.5 1.5 0  8.25 1.5 0  9 1.5 0  9.75 1.5 0  10.5 1.5 0  11.25 1.5 0  12 1.5 0  12.75 1.5 0  13.5 1.5 0  14.25 1.5 0  15 1.5 0  15.75 1.5 0  16.5 1.5 0  17.25 1.5 0  18 1.5 0  18.75 1.5 0  19.5 1.5 0  20.25 1.5 0  21 1.5 0  21.75 1.5 0  22.5 1.5 0  23.25 1.5 0  24 1.5 0  24.75 1.5 0  25.5 1.5 0  26.25 1.5 0  27 1.5 0  27.75 1.5 0  28.5 1.5 0  29.25 1.5 0  30 1.5 0  30.75 1.5 0  31.5 1.5 0  32.25 1.5 0  33 1.5 0  33.75 1.5 0  34.5 1.5 0  35.25 1.5 0  36 1.5 0  36.75 1.5 0  37.5 1.5 0  38.25 1.5 0  39 1.5 0  39.75 1.5 0  40.5 1.5 0  41.25 1.5 0  42 1.5 0  42.75 1.5 0  43.5 1.5 0  44.25 1.5 0  45 1.5 0  45.75 1.5 0  46.5 1.5 0  47.25 1.5 0  48 1.5 0  48.75 1.5 0  49.5 1.5 0  50.25 1.5 0  51 1.5 0  51.75 1.5 0  52.5 1.5 0  53.25 1.5 0  54 1.5 0  54.75 1.5 0  55.5 1.5 0  56.25 1.5 0  57 1.5 0  57.75 1.5 0  58.5 1.5 0  59.25 1.5 0  60 1.5 0  0 2 0  0.75 2 0  1.5 2 0  2.25 2 0  3 2 0  3.75 2 0  4.5 2 0  5.25 2 0  6 2 0  6.75 2 0  7.5 2 0  8.25 2 0  9 2 0  9.75 2 0  10.5 2 0  11.25 2 0  12 2 0  12.75 2 0  13.5 2 0  14.25 2 0  15 2 0  15.75 2 0  16.5 2 0  17.25 2 0  18 2 0  18.75 2 0  19.5 2 0  20.25 2 0  21 2 0  21.75 2 0  22.5 2 0  23.25 2 0  24 2 0  24.75 2 0  25.5 2 0  26.25 2 0  27 2 0  27.75 2 0  28.5 2 0  29.25 2 0  30 2 0  30.75 2 0  31.5 2 0  32.25 2 0  33 2 0  33.75 2 0  34.5 2 0  35.25 2 0  36 2 0  36.75 2 0  37.5 2 0  38.25 2 0  39 2 0  39.75 2 0  40.5 2 0  41.25 2 0  42 2 0  42.75 2 0  43.5 2 0  44.25 2 0  45 2 0  45.75 2 0  46.5 2 0  47.25 2 0  48 2 0  48.75 2 0  49.5 2 0  50.25 2 0  51 2 0  51.75 2 0  52.5 2 0  53.25 2 0  54 2 0  54.75 2 0  55.5 2 0  56.25 2 0  57 2 0  57.75 2 0  58.5 2 0  59.25 2 0  60 2 0  0 2.5 0  0.75 2.5 0  1.5 2.5 0  2.25 2.5 0  3 2.5 0  3.75 2.5 0  4.5 2.5 0  5.25 2.5 0  6 2.5 0  6.75 2.5 0  7.5 2.5 0  8.25 2.5 0  9 2.5 0  9.75 2.5 0  10.5 2.5 0  11.25 2.5 0  12 2.5 0  12.75 2.5 0  13.5 2.5 0  14.25 2.5 0  15 2.5 0  15.75 2.5 0  16.5 2.5 0  17.25 2.5 0  18 2.5 0  18.75 2.5 0  19.5 2.5 0  20.25 2.5 0  21 2.5 0  21.75 2.5 0  22.5 2.5 0  23.25 2.5 0  24 2.5 0  24.75 2.5 0  25.5 2.5 0  26.25 2.5 0  27 2.5 0  27.75 2.5 0  28.5 2.5 0  29.25 2.5 0  30 2.5 0  30.75 2.5 0  31.5 2.5 0  32.25 2.5 0  33 2.5 0  33.75 2.5 0  34.5 2.5 0  35.25 2.5 0  36 2.5 0  36.75 2.5 0  37.5 2.5 0  38.25 2.5 0  39 2.5 0  39.75 2.5 0  40.5 2.5 0  41.25 2.5 0  42 2.5 0  42.75 2.5 0  43.5 2.5 0  44.25 2.5 0  45 2.5 0  45.75 2.5 0  46.5 2.5 0  47.25 2.5 0  48 2.5 0  48.75 2.5 0  49.5 2.5 0  50.25 2.5 0  51 2.5 0  51.75 2.5 0  52.5 2.5 0  53.25 2.5 0  54 2.5 0  54.75 2.5 0  55.5 2.5 0  56.25 2.5 0  57 2.5 0  57.75 2.5 0  58.5 2.5 0  59.25 2.5 0  60 2.5 0  0 3 0  0.75 3 0  1.5 3 0  2.25 3 0  3 3 0  3.75 3 0  4.5 3 0  5.25 3 0  6 3 0  6.75 3 0  7.5 3 0  8.25 3 0  9 3 0  9.75 3 0  10.5 3 0  11.25 3 0  12 3 0  12.75 3 0  13.5 3 0  14.25 3 0  15 3 0  15.75 3 0  16.5 3 0  17.25 3 0  18 3 0  18.75 3 0  19.5 3 0  20.25 3 0  21 3 0  21.75 3 0  22.5 3 0  23.25 3 0  24 3 0  24.75 3 0  25.5 3 0  26.25 3 0  27 3 0  27.75 3 0  28.5 3 0  29.25 3 0  30 3 0  30.75 3 0  31.5 3 0  32.25 3 0  33 3 0  33.75 3 0  34.5 3 0  35.25 3 0  36 3 0  36.75 3 0  37.5 3 0  38.25 3 0  39 3 0  39.75 3 0  40.5 3 0  41.25 3 0  42 3 0  42.75 3 0  43.5 3 0  44.25 3 0  45 3 0  45.75 3 0  46.5 3 0  47.25 3 0  48 3 0  48.75 3 0  49.5 3 0  50.25 3 0  51 3 0  51.75 3 0  52.5 3 0  53.25 3 0  54 3 0  54.75 3 0  55.5 3 0  56.25 3 0  57 3 0  57.75 3 0  58.5 3 0  59.25 3 0  60 3 0  0 3.5 0  0.75 3.5 0  1.5 3.5 0  2.25 3.5 0  3 3.5 0  3.75 3.5 0  4.5 3.5 0  5.25 3.5 0  6 3.5 0  6.75 3.5 0  7.5 3.5 0  8.25 3.5 0  9 3.5 0  9.75 3.5 0  10.5 3.5 0  11.25 3.5 0  12 3.5 0  12.75 3.5 0  13.5 3.5 0  14.25 3.5 0  15 3.5 0  15.75 3.5 0  16.5 3.5 0  17.25 3.5 0  18 3.5 0  18.75 3.5 0  19.5 3.5 0  20.25 3.5 0  21 3.5 0  21.75 3.5 0  22.5 3.5 0  23.25 3.5 0  24 3.5 0  24.75 3.5 0  25.5 3.5 0  26.25 3.5 0  27 3.5 0  27.75 3.5 0  28.5 3.5 0  29.25 3.5 0  30 3.5 0  30.75 3.5 0  31.5 3.5 0  32.25 3.5 0  33 3.5 0  33.75 3.5 0  34.5 3.5 0  35.25 3.5 0  36 3.5 0  36.75 3.5 0  37.5 3.5 0  38.25 3.5 0  39 3.5 0  39.75 3.5 0  40.5 3.5 0  41.25 3.5 0  42 3.5 0  42.75 3.5 0  43.5 3.5 0  44.25 3.5 0  45 3.5 0  45.75 3.5 0  46.5 3.5 0  47.25 3.5 0  48 3.5 0  48.75 3.5 0  49.5 3.5 0  50.25 3.5 0  51 3.5 0  51.75 3.5 0  52.5 3.5 0  53.25 3.5 0  54 3.5 0  54.75 3.5 0  55.5 3.5 0  56.25 3.5 0  57 3.5 0  57.75 3.5 0  58.5 3.5 0  59.25 3.5 0  60 3.5 0  0 4 0  0.75 4 0  1.5 4 0  2.25 4 0  3 4 0  3.75 4 0  4.5 4 0  5.25 4 0  6 4 0  6.75 4 0  7.5 4 0  8.25 4 0  9 4 0  9.75 4 0  10.5 4 0  11.25 4 0  12 4 0  12.75 4 0  13.5 4 0  14.25 4 0  15 4 0  15.75 4 0  16.5 4 0  17.25 4 0  18 4 0  18.75 4 0  19.5 4 0  20.25 4 0  21 4 0  21.75 4 0  22.5 4 0  23.25 4 0  24 4 0  24.75 4 0  25.5 4 0  26.25 4 0  27 4 0  27.75 4 0  28.5 4 0  29.25 4 0  30 4 0  30.75 4 0  31.5 4 0  32.25 4 0  33 4 0  33.75 4 0  34.5 4 0  35.25 4 0  36 4 0  36.75 4 0  37.5 4 0  38.25 4 0  39 4 0  39.75 4 0  40.5 4 0  41.25 4 0  42 4 0  42.75 4 0  43.5 4 0  44.25 4 0  45 4 0  45.75 4 0  46.5 4 0  47.25 4 0  48 4 0  48.75 4 0  49.5 4 0  50.25 4 0  51 4 0  51.75 4 0  52.5 4 0  53.25 4 0  54 4 0  54.75 4 0  55.5 4 0  56.25 4 0  57 4 0  57.75 4 0  58.5 4 0  59.25 4 0  60 4 0  0.375 0.25 0  1.125 0.25 0  1.875 0.25 0  2.625 0.25 0  3.375 0.25 0  4.125 0.25 0  4.875 0.25 0  5.625 0.25 0  6.375 0.25 0  7.125 0.25 0  7.875 0.25 0  8.625 0.25 0  9.375 0.25 0  10.125 0.25 0  10.875 0.25 0  11.625 0.25 0  12.375 0.25 0  13.125 0.25 0  13.875 0.25 0  14.625 0.25 0  15.375 0.25 0  16.125 0.25 0  16.875 0.25 0  17.625 0.25 0  18.375 0.25 0  19.125 0.25 0  19.875 0.25 0  20.625 0.25 0  21.375 0.25 0  22.125 0.25 0  22.875 0.25 0  23.625 0.25 0  24.375 0.25 0  25.125 0.25 0  25.875 0.25 0  26.625 0.25 0  27.375 0.25 0  28.125 0.25 0  28.875 0.25 0  29.625 0.25 0  30.375 0.25 0  31.125 0.25 0  31.875 0.25 0  32.625 0.25 0  33.375 0.25 0  34.125 0.25 0  34.875 0.25 0  35.625 0.25 0  36.375 0.25 0  37.125 0.25 0  37.875 0.25 0  38.625 0.25 0  39.375 0.25 0  40.125 0.25 0  40.875 0.25 0  41.625 0.25 0  42.375 0.25 0  43.125 0.25 0  43.875 0.25 0  44.625 0.25 0  45.375 0.25 0  46.125 0.25 0  46.875 0.25 0  47.625 0.25 0  48.375 0.25 0  49.125 0.25 0  49.875 0.25 0  50.625 0.25 0  51.375 0.25 0  52.125 0.25 0  52.875 0.25 0  53.625 0.25 0  54.375 0.25 0  55.125 0.25 0  55.875 0.25 0  56.625 0.25 0  57.375 0.25 0  58.125 0.25 0  58.875 0.25 0  59.625 0.25 0  0.375 0.75 0  1.125 0.75 0  1.875 0.75 0  2.625 0.75 0  3.375 0.75 0  4.125 0.75 0  4.875 0.75 0  5.625 0.75 0  6.375 0.75 0  7.125 0.75 0  7.875 0.75 0  8.625 0.75 0  9.375 0.75 0  10.125 0.75 0  10.875 0.75 0  11.625 0.75 0  12.375 0.75 0  13.125 0.75 0  13.875 0.75 0  14.625 0.75 0  15.375 0.75 0  16.125 0.75 0  16.875 0.75 0  17.625 0.75 0  18.375 0.75 0  19.125 0.75 0  19.875 0.75 0  20.625 0.75 0  21.375 0.75 0  22.125 0.75 0  22.875 0.75 0  23.625 0.75 0  24.375 0.75 0  25.125 0.75 0  25.875 0.75 0  26.625 0.75 0  27.375 0.75 0  28.125 0.75 0  28.875 0.75 0  29.625 0.75 0  30.375 0.75 0  31.125 0.75 0  31.875 0.75 0  32.625 0.75 0  33.375 0.75 0  34.125 0.75 0  34.875 0.75 0  35.625 0.75 0  36.375 0.75 0  37.125 0.75 0  37.875 0.75 0  38.625 0.75 0  39.375 0.75 0  40.125 0.75 0  40
[...]
<PointData  Scalars="f_8-1"> 
<DataArray  type="Float64"  Name="f_8-1"  format="ascii">6.0057701939214328e+06  -1.0252924316664476e+07  -6.4881301230337406e+06  6.9534543871148797e+06  7.6251036661272217e+06  -1.4047576501388678e+06  -2.9548855200343900e+06  8.5387983827030323e+06  -5.8781972787192743e+06  -1.1523162064513783e+06  1.8943065691663669e+06  -9.2098504865752102e+05  -1.5348073900199972e+04  1.0318160124591786e+06  4.8228415944360726e+05  1.8940007087358911e+05  2.7353755626910268e+06  5.6407526795079163e+05  -2.9869979818086959e+06  8.4956931970436964e+05  -6.7045167911381088e+06  -6.8381237250152752e+06  2.2893062057735672e+05  -4.7963838560501048e+06  -2.7445288499286398e+06  -2.4424208958067345e+06  -2.6795926988508673e+06  -2.4155076477414314e+06  -1.3726104891633457e+06  -2.0094452746750249e+06  1.9812700711565549e+06  -6.2595779674210178e+04  1.7927074945160991e+06  1.2615937259283809e+06  5.9776047640791663e+05  5.1505112095693807e+05  3.0962367313220986e+05  3.8112687213619164e+05  4.0972320589124999e+05  -3.4282008014515409e+05  -1.7263505246030560e+05  -1.0817412742916695e+05  5.1273257411517279e+05  1.2910519481807807e+06  1.7158324821643712e+05  1.0655729110323556e+06  1.4485936356000486e+05  -8.0050694958394265e+05  -5.0874571860206750e+05  2.7346625782948839e+06  4.6763140419665137e+06  6.9396376099014212e+05  -6.8908478883255986e+04  5.5835043110942340e+05  8.2252312427855353e+05  1.2399519521881991e+05  2.4467858238803680e+05  4.6963448765336402e+05  -5.2894963653208665e+05  5.2974926545836141e+04  -1.2958440834696617e+05  3.6758081178155483e+05  -6.5490670946412247e+03  1.9441239845576082e+05  -7.1694636688554869e+05  2.5743514702596536e+05  -5.0178982341854571e+04  -2.5249089646547264e+05  1.9828356801109470e+05  -9.3513310374897672e+04  3.5210741231539013e+05  -1.4823927346907501e+05  5.7715125366651581e+05  -6.6405663542570185e+05  -1.0213462305743390e+05  8.8068135671910574e+05  3.4041032421506610e+05  4.2097324364529713e+05  4.2598915138234128e+05  -3.7578664656049502e+05  2.4738252624151303e+05  -2.3572918046507975e+06  -1.8880609874886400e+06  -8.9803115953867687e+04  3.3041094568470330e+05  3.3993998422591072e+06  6.7180625831212429e+05  -2.6387686824799241e+06  -1.9068906113846141e+06  2.5600013028471512e+06  5.5228870202062128e+05  -2.7757724670101370e+05  -1.2922275751548525e+05  -8.7778886843397585e+05  -8.2352022428447125e+05  2.6006430541142216e+06  1.0725603987018754e+05  1.4034420722972518e+06  8.7197716616473196e+05  -6.2689252866482129e+05  -1.6876298249833594e+05  -2.6587345919128624e+06  -9.6067506675144322e+06  -1.5900404727739810e+06  -4.4282497252536489e+05  -2.5811884117688523e+06  -2.4071172693572957e+06  -1.9344527921187566e+06  -1.4402912049026787e+06  -2.3415689782552710e+06  -8.0641502484459174e+05  -3.8187291163272446e+05  1.6159868495013826e+06  8.8064728928251402e+05  1.3622009922861918e+06  1.2092778793604854e+06  2.6539937178550317e+05  5.3042465040416131e+05  1.9902730269142153e+05  4.9875293169750410e+04  -1.1104275930561400e+06  -7.9510264338014065e+05  1.1399973437139678e+06  5.2902860968488071e+05  3.7470633305036312e+05  1.3103926433104253e+06  7.9047737115072948e+05  5.1466231884991826e+05  5.4016330602301972e+05  -1.8116277896546144e+06  1.5329809183059481e+06  1.4871701077924937e+06  4.3614523763256107e+05  1.6841200126195094e+05  1.2989910345561700e+06  2.7000707048812695e+05  2.3501818200086046e+05  -4.5858380585480008e+04  -4.7155054494251046e+04  6.3079590146855138e+04  -7.8965125279854663e+04  -5.3167754111988470e+04  8.8639374824775397e+04  4.7386208802888257e+05  4.3688364754754421e+03  -3.5216053244140826e+05  -2.2665118698276809e+05  1.7263662324204875e+05  2.2706213098419506e+04  1.5637429970096186e+05  1.8773138050661137e+05  1.6136388782998256e+05  -9.7738853755401040e+04  -3.8955209396962990e+05  -5.1645504810893798e+05  3.2605714998425334e+04  2.9602909069786174e+05  4.9679443500214856e+05  5.4514835030206777e+04  -1.2802956913390530e+04  5.4198890007460359e+03  1.7018360657393463e+04  -6.5225946203401044e+05  1.5577565020085543e+06  -3.4197489327748111e+06  1.0874949005050254e+06  5.6866865450330348e+04  2.4167158887130455e+06  -8.9418986606547178e+05  6.1954701439960406e+05  -2.3701445740170544e+04  -8.8962509736665443e+05  -2.5914694470713675e+05  -1.1734101741042605e+06  -2.5170687331470661e+05  4.9048770553395100e+05  2.7321105078302184e+05  2.0835333050903319e+06  1.6991877744979123e+06  1.4369306651045317e+06  -6.4447041280934017e+05  -2.4177433914826869e+05  -2.8536441916161575e+06  -7.0169303062719218e+06  -3.0439452582054264e+06  -5.9965622941628762e+05  -2.3834889848326067e+06  -2.9147462121691476e+06  -2.4470203726137411e+06  -7.1171256910067506e+05  -1.6152245490043599e+06  -1.3186330579764848e+06  -2.7679463965900708e+05  -1.6332261698510119e+05  6.9214018717259006e+05  1.2547117802033890e+06  1.9075831367653422e+05  1.2346206651686725e+03  5.3251954131204041e+05  3.0989685112940712e+05  1.9335450008830646e+05  -6.9305899365757592e+05  9.2607231286881282e+05  3.4204344363310444e+05  8.8863614606289752e+05  3.3830797483235243e+05  6.7559630382896797e+05  5.8821970330969163e+05  -8.4460172350228211e+04  1.3322447472284751e+06  -5.8235773178596667e+05  -2.1582436337225018e+06  -7.3138059650914231e+05  1.2566013923405465e+06  9.2415573652319855e+05  1.2819855903195902e+06  1.1179113896804992e+06  -1.2320036787720754e+05  -5.9829857488663656e+04  7.1498214865984721e+05  -3.0967899478076484e+04  1.5420345918525202e+05  -3.4250407787539082e+05  1.0229464875410053e+05  -1.3777848328673191e+05  -3.1721148342395871e+05  -4.3503781676157593e+05  2.1705091347940746e+05  8.1964153306878925e+03  -2.6914314899074880e+05  -3.1691948139971221e+05  -8.4987623157841939e+04  2.6905628196827153e+05  -1.4761947400091693e+05  -2.7935115529867070e+05  -6.6447850755959189e+03  1.2123818589281257e+05  1.2251297973834950e+05  4.0994248434090498e+05  2.6437445003011449e+04  8.7714939775227263e+04  -1.9204035813143250e+05  -2.3457905948899934e+05  -1.0114107387175229e+06  -5.0694822959376173e+06  -3.0208437338641924e+06  -1.1894384325502585e+06  3.3756540278704133e+05  1.4285330589681796e+06  -7.6996669969280949e+05  -1.8866321656271389e+06  1.6450850989268040e+06  -5.3147883461845352e+05  -1.5878532257087938e+04  2.5139355247694039e+05  -4.8951119975416793e+05  -1.4296684023941054e+06  3.9810782149787279e+04  8.1876163527851831e+05  1.1701503069058536e+06  -4.5466762814682181e+05  -6.0073577322469826e+05  -8.9903646678646153e+04  -4.0683988901275783e+06  -1.5301627430884375e+06  -6.4712184507131893e+06  7.4830121339208691e+05  -2.9482945720237461e+06  -1.9638003520720971e+06  -1.6747868500636518e+06  -1.0612767873965469e+06  -3.5744385837790900e+05  -6.3962669186450355e+05  -3.8170427844340663e+05  2.9043237475127308e+05  8.5455303347104904e+05  1.5250111605778993e+06  1.2744423175893683e+05  4.7679969002966105e+05  2.8519459508481907e+05  3.3006044105754385e+05  1.6751656180854616e+05  -4.6585995548631880e+05  -1.9722734247960325e+05  1.0154897838058824e+06  3.4550023116945807e+05  5.4522924729801202e+05  -4.8702667330473793e+02  6.3802131408043252e+05  1.2049450118268828e+05  2.6227142378966101e+06  1.0218541303335886e+06  -1.3345810134309281e+06  -7.5815264037563174e+05  -5.6230704413939721e+05  8.8452145309721725e+05  5.2910468036743673e+05  4.3943837241822109e+05  -3.5717035042040392e+04  4.6962422440838761e+05  -3.1626384649892984e+05  5.3571923522153252e+05  3.0938243109436159e+05  2.2133004105670512e+04  -3.1566388442740159e+05  -7.0101066116377304e+04  -1.8634582597767285e+05  -2.3674564203096839e+05  3.5391466386017337e+05  -9.7517564047365449e+04  -3.0676746462087182e+05  -1.4999139631910011e+03  8.4225323153858641e+04  1.2415250109311662e+05  -1.1465098405277313e+05  -1.9066811700190059e+05  2.2838103279184710e+05  1.1634869813231738e+05  1.2860476083529775e+05  2.8907594333021488e+05  1.2267655625053542e+05  3.0675646707970113e+05  -3.4947389778083970e+05  1.5854108650160176e+05  2.8220224199594365e+05  -4.6866984077528808e+06  -1.7416367415388830e+06  7.3871007734178437e+05  -3.0052131086338735e+06  -1.6408675368585068e+05  -6.7954533060985454e+05  -3.3461126672036201e+05  -9.6421151224824751e+05  1.6726027492490718e+06  1.5322294850327312e+06  -3.4588702763358880e+04  1.8030775855197702e+05  -4.5601878520147735e+06  2.1298330047126315e+06  -9.8121736339407833e+05  9.0021974623789045e+05  5.0471794259271072e+05  4.0833784392337802e+04  -1.2902771395581511e+05  -1.2404179037525690e+05  -2.0608739348847147e+06  -4.7089732173171733e+06  -3.6042556154237320e+06  -1.8345435551906300e+06  -3.3848118139495882e+06  -7.0215284824501141e+05  -1.5603183249714619e+06  -4.3776449666007131e+05  -4.2437721856476396e+05  -1.5767677102829716e+06  2.2116679517556861e+05  3.1133598236108315e+05  7.3520147370255750e+05  6.0144646185278974e+05  1.3467210047467588e+05  -3.8577215788766596e+04  5.1495586902371480e+05  -1.9500675237508825e+05  1.2359046426357726e+05  6.9019674676124414e+04  2.2013398703425756e+05  5.0385754270018864e+05  6.0487622939416335e+05  6.2554234609090316e+05  -3.8451480995048641e+05  2.5500499540041180e+05  1.6520595993793244e+05  1.9769202868992572e+06  4.1022547229046873e+06  -5.2966180625848426e+05  -9.8568702522706450e+05  5.5190958396547334e+05  -2.3300460752043463e+05  4.8991063006249699e+05  3.0742324698140228e+05  -1.3281513135158212e+05  3.1610779073179900e+04  2.9288805064993579e+04  2.9766007113660907e+05  5.9352668042064171e+04  -3.3515252295161312e+05  -4.8454844978107780e+05  1.0809536269778816e+05  -2.7837341439025226e+05  8.9875540944915061e+04  1.2345283130173144e+05  -2.4528999451299020e+05  -4.8863191906305539e+04  -3.4702064207452838e+05  3.6826940051157464e+04  1.2770818866929805e+05  -8.7428133703040119e+04  1.0897564596772242e+05  5.4915380411912722e+05  -2.6498164453535364e+05  -2.6459421711170109e+05  1.6488808654122503e+05  2.1041566554413068e+04  -3.2316861296273408e+04  -1.2303736078883245e+05  -2.4631639741669517e+05  -3.5128617181170252e+04  -3.4085664618305811e+06  3.4483650313319213e+05  -1.3332813029811443e+06  6.8828196519980382e+05  1.8821684417665889e+06  -4.2100572830871894e+05  -1.7715001556361227e+06  -1.6867436954203027e+05  -1.2738916831476472e+06  2.3517258833352258e+05  -1.3487136432894616e+05  -1.9394033017370317e+06  1.1348005870299267e+05  -2.3882274604769936e+05  -1.1476641241857752e+06  2.4424378189799753e+06  -1.3629041957972790e+06  -9.9513488874164422e+05  -1.9303124334405439e+06  -4.7341723155146912e+06  6.2325026997762988e+05  -4.4329469346133221e+04  -3.4468390334307901e+06  -4.1898804351987195e+05  -4.6939766842443235e+06  -2.1132531432646858e+06  -1.1479813982793377e+06  -1.6081264690306480e+06  -1.3176820079341657e+06  -1.9712828553201834e+04  -2.9492353949521558e+05  -8.9819565507473319e+05  3.5973455370150355e+05  3.3496908152946981e+05  3.2088312097082287e+05  2.4351836813836388e+04  8.1964550882647815e+05  1.4508348709075994e+05  2.3224671935935755e+05  -1.7052430051671111e+05  4.4999194977092015e+05  4.1205406759349373e+05  3.2228224026243476e+05  -2.1484091812917421e+05  7.0318239841592370e+05  -9.2772413523786725e+05  1.0466238655835947e+06  2.3020068917796097e+05  -5.1327914060581352e+04  -1.0010971151324097e+06  -4.4015625610787392e+04  3.2840653410985769e+05  2.0246312368036414e+05  2.0759564017261684e+05  5.5061734915173201e+03  -1.5420315087757228e+05  -1.6412122517008358e+05  -8.2804832771402707e+03  -5.5958440140381666e+04  -1.9753604061742610e+05  -1.0999065079438458e+05  7.3877992596966471e+05  2.0993191341972706e+05  -5.3666469767618284e+04  -5.8226617666874015e+04  1.3740648631674700e+05  -1.4790471470976359e+05  -3.9359427884853352e+05  -2.0552515957120367e+05  -2.3580833737968272e+05  -9.9445256189427266e+04  -3.0491363068981253e+05  -2.8273398565230810e+05  4.1500217874516682e+04  -4.8587213304439967e+05  -2.9465835747694102e+04  4.1198367349299631e+05  -1.2365733424766173e+05  6.8670380267640779e+04  -2.6271881524991058e+05  4.3459023019230214e+05  -4.8065281765143108e+05  1.6475414445802355e+06  4.5869818279018672e+06  -1.8290382001447033e+06  -1.2233441747494573e+06  -8.4884748933104658e+05  -1.3582462788502618e+06  -2.2233661667392924e+06  -3.9749967694115435e+05  -1.1007626238308311e+06  -6.8081644364089845e+05  -5.1102451686914107e+06  6.0376951736752852e+05  -1.2385760360521891e+06  -4.0359035553823225e+04  1.5535516822529901e+06  -2.4943036132603773e+05  -1.7234382152246363e+06  -3.5759037821966875e+06  -1.4594497841578361e+06  8.6433048633857816e+05  -2.7326190014628153e+06  -8.3651133494294726e+05  -2.9736065884885578e+06  -2.6062560517253093e+06  -3.3421034568632282e+06  -4.8058277587461140e+05  -1.3014503530151343e+06  -2.9512590879698549e+06  -3.4832365258198505e+05  -8.1522690872987080e+05  -7.3960168951230636e+05  -4.2167225640678208e+05  4.7696727655027824e+05  4.8961890022062362e+03  7.0016703906509292e+05  2.6034852366508252e+05  4.6720973219400196e+05  7.6003308102762167e+03  4.9226522700169089e+05  3.7133575325041695e+05  3.5622796260994900e+05  1.8054569674382205e+05  3.3455389887710910e+04  -2.8609780265423632e+05  4.2403196413348749e+05  5.7731916958489059e+05  2.7758271976939577e+05  1.5461499872287226e+05  5.8854813246962230e+05  6.7399417463784828e+05  2.3561914338563805e+05  -3.6211204736963433e+05  2.6145696131396931e+05  4.9844667416230717e+05  2.9258317718809954e+05  -5.1324163022144465e+04  -2.1115536074851928e+05  -8.6412941865541943e+04  2.5442611627743314e+04  -1.3696988800914789e+05  4.8477309043289628e+04  2.6844728549452149e+05  7.3691980679830755e+04  -5.3000549352078582e+04  -2.2637157705921700e+05  -5.2129683099545847e+05  -2.5512600140181053e+05  1.4518061528623756e+05  7.9714934902096011e+03  -4.5259766781285469e+05  -2.5048958700275316e+05  2.6065091627038157e+04  -3.0820452128199150e+05  -2.6356870050914149e+05  -2.5297239104320543e+05  1.0459118883624658e+05  -5.2346384332326081e+04  1.0771699910310408e+05  3.4964813125217479e+05  -1.1920453725264463e+05  -3.0768006815843401e+05  -1.2090395698223799e+06  -1.3931690156055149e+06  -2.4405519378684536e+06  8.8497488007762725e+05  4.4690831844564748e+05  -1.8014715802351951e+06  -4.8704647973817226e+05  4.7170220820111632e+06  1.2305305854594682e+06  -2.6514683026848915e+06  -8.8283440701120684e+05  4.8139865320882335e+05  4.0676105377998610e+04  -6.2004968125003041e+04  6.1277032182067237e+05  -9.3639561114183052e+03  -4.8888468560873740e+05  -1.3994144045668130e+06  5.7364190275945165e+05  3.2288185024696141e+06  2.1533530942192646e+06  1.4680618125393786e+05  -3.6843608606308949e+05  -1.6068162433600228e+06  -2.3135291173478942e+06  1.5094757102129070e+05  -1.1897553339703309e+06  -9.9799768607672141e+05  2.6710512804671866e+05  1.1560866402213105e+05  -5.3602362009216519e+05  5.0244206686310854e+05  -4.6285100193850131e+05  -4.6349672552814911e+04  2.4087007237700332e+05  1.8530885084660680e+05  1.0272819362811319e+05  5.2934139519858384e+05  4.0532485822436883e+05  -3.1933335846555434e+04  4.0290404950929643e+05  4.5083582981316569e+04  -3.3520547898014169e+05  9.1944429524953524e+05  1.7943810570515221e+05  9.8360641846349626e+05  1.2655019490953608e+05  7.3416086178788450e+05  2.3315130557516139e+05  6.1331175647551066e+05  -9.3871624428154144e+04  -2.4288590169500717e+05  -2.2437469291997404e+04  -1.2609190660943840e+05  1.6011839774970585e+05  -6.5246622391304307e+04  -7.0568542650218209e+04  2.3387739386974456e+05  1.3993272757719303e+05  -3.6384780058073280e+04  1.4841333210039180e+04  -2.6010366603895871e+05  9.3367989993903888e+04  -1.5400348855151248e+05  -2.2720458163163855e+05  -1.5316306692005740e+05  -1.1728184197892668e+05  -2.6032648541279268e+05  -3.8719210729987281e+04  -5.0592417060248053e+05  -2.0150275545146372e+05  2.8560427111332765e+05  -6.1006436396104116e+04  -2.9507454514704924e+05  -1.6152008189827902e+05  3.0600255670725700e+05  6.1855583645039093e+04  1.4960604652645099e+04  -3.2856290531341190e+04  -3.5927660476616165e+05  -4.4820931773557793e+04  -2.6274722852758493e+05  -9.2903155873516575e+05  -4.1841769981578359e+05  -2.6436784758718725e+05  -4.7054355002568517e+05  3.9307876578461548e+05  -3.0050783103946643e+05  1.3637580146037767e+05  2.0877260817866335e+06  -2.3053867263007769e+06  1.0313685172604916e+05  -3.6435206169548561e+05  -6.7054088446665904e+04  -1.8401757886791838e+05  -1.5870055582192075e+06  1.5030486757050280e+06  -3.8156536079011130e+05  -1.0262137490802676e+06  -2.4655844526926320e+05  -1.9505043586026691e+05  1.2055352856698935e+06  -6.9548218182315654e+05  2.4895199316510759e+05  -5.7738849587193236e+05  -5.3680084780729259e+05  -7.6723558647532552e+05  3.8590603802544501e+04  1.3497784422953831e+05  8.9919192323119460e+03  8.5574255296691554e+04  -2.1511321859426369e+05  -1.3762083619380473e+04  5.7980300766941051e+04  -3.4667952406209828e+04  -3.7306875193366526e+04  -8.0051839576635262e+04  -1.7470115533458124e+05  6.6510312883035257e+05  -8.5687236941739829e+04  -1.0694510834201089e+05  1.4045400760768264e+05  1.3508652937364246e+05  1.7461422528479350e+05  -1.0055593858232952e+05  5.1777697080406258e+04  -1.9774946883911759e+05  2.0790987600144454e+04  6.2152870974211697e+05  1.3086227879743064e+05  -5.1884969927566190e+05  1.3388894339731545e+05  5.2561512001109593e+04  5.4440505791192962e+04  1.5995635137121637e+04  4.2368454061161021e+04  1.4199072674834117e+05  -6.0467163684728272e+04  1.3590362594866179e+05  -1.8507607160528828e+05  7.5367847924987494e+04  -1.1612813636199516e+05  2.8880786582617211e+05  -1.7061694489844135e+05  1.8924686281238159e+05  -1.5973601114704934e+05  1.0867187468299642e+05  -5.4519198963326395e+04  2.5618903339865086e+04  9.3431293922238110e+04  1.7886525033038159e+05  2.2232935493139437e+05  1.9510353674817212e+04  -1.3778214566641071e+05  -4.0543178604956411e+04  -3.9158537479625091e+04  3.5625825937976493e+04  -6.3793006300778274e+04  1.1513281973176615e+05  -6.3504750935524181e+06  -4.7598866491447017e+06  -1.0959136741557093e+06  7.5679872611582056e+06  1.6384786205223410e+06  -7.9071494063264998e+06  3.4847290810625041e+06  -6.0706677780766161e+06  -1.4909852828607121e+06  -2.2005854321828200e+06  1.5794922236475870e+06  -3.1911370150884363e+05  -2.2842792205815090e+05  4.6895508544559515e+05  1.5826951266221278e+06  9.1225754673630768e+05  1.5026397465847165e+06  6.4953988396823150e+05  -3.0355332849095156e+06  1.0520794475280500e+06  -9.3348614252574351e+06  -6.7031679293594584e+06  2.5800696987404102e+06  -2.5800040343642780e+06  -2.5844637602677871e+06  -2.6175210593094663e+06  -1.8354914171696333e+06  -1.3122241547542214e+06  -1.4798695675627715e+06  1.7802462924514955e+06  7.0917871651230103e+04  -3.1335276105130586e+05  1.1409739003333906e+06  1.0525617398023310e+06  4.6863554386028234e+05  -1.9120535292982295e+04  3.5916859982075595e+05  4.5394228316928289e+05  3.1330223336828849e+05  1.6565782363325916e+05  -5.6920179090927145e+05  -2.5526695338340514e+05  7.9446195245215739e+05  7.5036637611185457e+05  -4.7013753812236835e+04  4.8558426215376670e+05  -7.5701522637314443e+05  -1.2708260696245807e+06  -5.0712914194415585e+05  -1.1637933222094420e+06  1.4947988491745400e+06  1.5042949339048457e+04  7.6617622850001196e+05  7.4760894535631826e+05  2.7599461983558154e+04  8.7454945015674151e+04  -3.7586711366781854e+05  -5.2069598387652717e+04  -3.3855963351538201e+05  3.1882350822806198e+04  -3.8311142658937437e+05  7.6239031450941911e+04  -1.9849696741516274e+05  -1.5327091190591065e+05  -8.9184328389578237e+04  2.1050708658541189e+05  -1.8820325811100454e+05  5.4391290628462935e+04  3.3150616537961636e+04  3.3692303744758852e+05  9.3708566233487843e+04  3.7580346813834723e+04  -1.7249161912501327e+05  -1.5776771709594113e+05  1.5016703254702597e+05  5.4978199705186102e+05  9.3029514105967211e+05  2.3863844157754240e+05  -1.7088271461355884e+05  -1.8925572637217643e+05  2.6220854795176173e+06  -1.0062516421398919e+07  8.0548555562696551e+04  -1.7413007