<?xml version="1.0"?>
<VTKFile type="UnstructuredGrid"  version="0.1"  >
<UnstructuredGrid>
<Piece  NumberOfPoints="1369" NumberOfCells="2560">
<Points>
<DataArray  type="Float64"  NumberOfComponents="3"  format="ascii">0 0 0  0.75 0 0  1.5 0 0  2.25 0 0  3 0 0  3.75 0 0  4.5 0 0  5.25 0 0  6 0 0  6.75 0 0  7.5 0 0  8.25 0 0  9 0 0  9.75 0 0  10.5 0 0  11.25 0 0  12 0 0  12.75 0 0  13.5 0 0  14.25 0 0  15 0 0  15.75 0 0  16.5 0 0  17.25 0 0  18 0 0  18.75 0 0  19.5 0 0  20.25 0 0  21 0 0  21.75 0 0  22.5 0 0  23.25 0 0  24 0 0  24.75 0 0  25.5 0 0  26.25 0 0  27 0 0  27.75 0 0  28.5 0 0  29.25 0 0  30 0 0  30.75 0 0  31.5 0 0  32.25 0 0  33 0 0  33.75 0 0  34.5 0 0  35.25 0 0  36 0 0  36.75 0 0  37.5 0 0  38.25 0 0  39 0 0  39.75 0 0  40.5 0 0  41.25 0 0  42 0 0  42.75 0 0  43.5 0 0  44.25 0 0  45 0 0  45.75 0 0  46.5 0 0  47.25 0 0  48 0 0  48.75 0 0  49.5 0 0  50.25 0 0  51 0 0  51.75 0 0  52.5 0 0  53.25 0 0  54 0 0  54.75 0 0  55.5 0 0  56.25 0 0  57 0 0  57.75 0 0  58.5 0 0  59.25 0 0  60 0 0  0 0.5 0  0.75 0.5 0  1.5 0.5 0  2.25 0.5 0  3 0.5 0  3.75 0.5 0  4.5 0.5 0  5.25 0.5 0  6 0.5 0  6.75 0.5 0  7.5 0.5 0  8.25 0.5 0  9 0.5 0  9.75 0.5 0  10.5 0.5 0  11.25 0.5 0  12 0.5 0  12.75 0.5 0  13.5 0.5 0  14.25 0.5 0  15 0.5 0  15.75 0.5 0  16.5 0.5 0  17.25 0.5 0  18 0.5 0  18.75 0.5 0  19.5 0.5 0  20.25 0.5 0  21 0.5 0  21.75 0.5 0  22.5 0.5 0  23.25 0.5 0  24 0.5 0  24.75 0.5 0  25.5 0.5 0  26.25 0.5 0  27 0.5 0  27.75 0.5 0  28.5 0.5 0  29.25 0.5 0  30 0.5 0  30.75 0.5 0  31.5 0.5 0  32.25 0.5 0  33 0.5 0  33.75 0.5 0  34.5 0.5 0  35.25 0.5 0  36 0.5 0  36.75 0.5 0  37.5 0.5 0  38.25 0.5 0  39 0.5 0  39.75 0.5 0  40.5 0.5 0  41.25 0.5 0  42 0.5 0  42.75 0.5 0  43.5 0.5 0  44.25 0.5 0  45 0.5 0  45.75 0.5 0  46.5 0.5 0  47.25 0.5 0  48 0.5 0  48.75 0.5 0  49.5 0.5 0  50.25 0.5 0  51 0.5 0  51.75 0.5 0  52.5 0.5 0  53.25 0.5 0  54 0.5 0  54.75 0.5 0  55.5 0.5 0  56.25 0.5 0  57 0.5 0  57.75 0.5 0  58.5 0.5 0  59.25 0.5 0  60 0.5 0  0 1 0  0.75 1 0  1.5 1 0  2.25 1 0  3 1 0  3.75 1 0  4.5 1 0  5.25 1 0  6 1 0  6.75 1 0  7.5 1 0  8.25 1 0  9 1 0  9.75 1 0  10.5 1 0  11.25 1 0  12 1 0  12.75 1 0  13.5 1 0  14.25 1 0  15 1 0  15.75 1 0  16.5 1 0  17.25 1 0  18 1 0  18.75 1 0  19.5 1 0  20.25 1 0  21 1 0  21.75 1 0  22.5 1 0  23.25 1 0  24 1 0  24.75 1 0  25.5 1 0  26.25 1 0  27 1 0  27.75 1 0  28.5 1 0  29.25 1 0  30 1 0  30.75 1 0  31.5 1 0  32.25 1 0  33 1 0  33.75 1 0  34.5 1 0  35.25 1 0  36 1 0  36.75 1 0  37.5 1 0  38.25 1 0  39 1 0  39.75 1 0  40.5 1 0  41.25 1 0  42 1 0  42.75 1 0  43.5 1 0  44.25 1 0  45 1 0  45.75 1 0  46.5 1 0  47.25 1 0  48 1 0  48.75 1 0  49.5 1 0  50.25 1 0  51 1 0  51.75 1 0  52.5 1 0  53.25 1 0  54 1 0  54.75 1 0  55.5 1 0  56.25 1 0  57 1 0  57.75 1 0  58.5 1 0  59.25 1 0  60 1 0  0 1.5 0  0.75 1.5 0  1.5 1.5 0  2.25 1.5 0  3 1.5 0  3.75 1.5 0  4.5 1.5 0  5.25 1.5 0  6 1.5 0  6.75 1.5 0  7.5 1.5 0  8.25 1.5 0  9 1.5 0  9.75 1.5 0  10.5 1.5 0  11.25 1.5 0  12 1.5 0  12.75 1.5 0  13.5 1.5 0  14.25 1.5 0  15 1.5 0  15.75 1.5 0  16.5 1.5 0  17.25 1.5 0  18 1.5 0  18.75 1.5 0  19.5 1.5 0  20.25 1.5 0  21 1.5 0  21.75 1.5 0  22.5 1.5 0  23.25 1.5 0  24 1.5 0  24.75 1.5 0  25.5 1.5 0  26.25 1.5 0  27 1.5 0  27.75 1.5 0  28.5 1.5 0  29.25 1.5 0  30 1.5 0  30.75 1.5 0  31.5 1.5 0  32.25 1.5 0  33 1.5 0  33.75 1.5 0  34.5 1.5 0  35.25 1.5 0  36 1.5 0  36.75 1.5 0  37.5 1.5 0  38.25 1.5 0  39 1.5 0  39.75 1.5 0  40.5 1.5 0  41.25 1.5 0  42 1.5 0  42.75 1.5 0  43.5 1.5 0  44.25 1.5 0  45 1.5 0  45.75 1.5 0  46.5 1.5 0  47.25 1.5 0  48 1.5 0  48.75 1.5 0  49.5 1.5 0  50.25 1.5 0  51 1.5 0  51.75 1.5 0  52.5 1.5 0  53.25 1.5 0  54 1.5 0  54.75 1.5 0  55.5 1.5 0  56.25 1.5 0  57 1.5 0  57.75 1.5 0  58.5 1.5 0  59.25 1.5 0  60 1.5 0  0 2 0  0.75 2 0  1.5 2 0  2.25 2 0  3 2 0  3.75 2 0  4.5 2 0  5.25 2 0  6 2 0  6.75 2 0  7.5 2 0  8.25 2 0  9 2 0  9.75 2 0  10.5 2 0  11.25 2 0  12 2 0  12.75 2 0  13.5 2 0  14.25 2 0  15 2 0  15.75 2 0  16.5 2 0  17.25 2 0  18 2 0  18.75 2 0  19.5 2 0  20.25 2 0  21 2 0  21.75 2 0  22.5 2 0  23.25 2 0  24 2 0  24.75 2 0  25.5 2 0  26.25 2 0  27 2 0  27.75 2 0  28.5 2 0  29.25 2 0  30 2 0  30.75 2 0  31.5 2 0  32.25 2 0  33 2 0  33.75 2 0  34.5 2 0  35.25 2 0  36 2 0  36.75 2 0  37.5 2 0  38.25 2 0  39 2 0  39.75 2 0  40.5 2 0  41.25 2 0  42 2 0  42.75 2 0  43.5 2 0  44.25 2 0  45 2 0  45.75 2 0  46.5 2 0  47.25 2 0  48 2 0  48.75 2 0  49.5 2 0  50.25 2 0  51 2 0  51.75 2 0  52.5 2 0  53.25 2 0  54 2 0  54.75 2 0  55.5 2 0  56.25 2 0  57 2 0  57.75 2 0  58.5 2 0  59.25 2 0  60 2 0  0 2.5 0  0.75 2.5 0  1.5 2.5 0  2.25 2.5 0  3 2.5 0  3.75 2.5 0  4.5 2.5 0  5.25 2.5 0  6 2.5 0  6.75 2.5 0  7.5 2.5 0  8.25 2.5 0  9 2.5 0  9.75 2.5 0  10.5 2.5 0  11.25 2.5 0  12 2.5 0  12.75 2.5 0  13.5 2.5 0  14.25 2.5 0  15 2.5 0  15.75 2.5 0  16.5 2.5 0  17.25 2.5 0  18 2.5 0  18.75 2.5 0  19.5 2.5 0  20.25 2.5 0  21 2.5 0  21.75 2.5 0  22.5 2.5 0  23.25 2.5 0  24 2.5 0  24.75 2.5 0  25.5 2.5 0  26.25 2.5 0  27 2.5 0  27.75 2.5 0  28.5 2.5 0  29.25 2.5 0  30 2.5 0  30.75 2.5 0  31.5 2.5 0  32.25 2.5 0  33 2.5 0  33.75 2.5 0  34.5 2.5 0  35.25 2.5 0  36 2.5 0  36.75 2.5 0  37.5 2.5 0  38.25 2.5 0  39 2.5 0  39.75 2.5 0  40.5 2.5 0  41.25 2.5 0  42 2.5 0  42.75 2.5 0  43.5 2.5 0  44.25 2.5 0  45 2.5 0  45.75 2.5 0  46.5 2.5 0  47.25 2.5 0  48 2.5 0  48.75 2.5 0  49.5 2.5 0  50.25 2.5 0  51 2.5 0  51.75 2.5 0  52.5 2.5 0  53.25 2.5 0  54 2.5 0  54.75 2.5 0  55.5 2.5 0  56.25 2.5 0  57 2.5 0  57.75 2.5 0  58.5 2.5 0  59.25 2.5 0  60 2.5 0  0 3 0  0.75 3 0  1.5 3 0  2.25 3 0  3 3 0  3.75 3 0  4.5 3 0  5.25 3 0  6 3 0  6.75 3 0  7.5 3 0  8.25 3 0  9 3 0  9.75 3 0  10.5 3 0  11.25 3 0  12 3 0  12.75 3 0  13.5 3 0  14.25 3 0  15 3 0  15.75 3 0  16.5 3 0  17.25 3 0  18 3 0  18.75 3 0  19.5 3 0  20.25 3 0  21 3 0  21.75 3 0  22.5 3 0  23.25 3 0  24 3 0  24.75 3 0  25.5 3 0  26.25 3 0  27 3 0  27.75 3 0  28.5 3 0  29.25 3 0  30 3 0  30.75 3 0  31.5 3 0  32.25 3 0  33 3 0  33.75 3 0  34.5 3 0  35.25 3 0  36 3 0  36.75 3 0  37.5 3 0  38.25 3 0  39 3 0  39.75 3 0  40.5 3 0  41.25 3 0  42 3 0  42.75 3 0  43.5 3 0  44.25 3 0  45 3 0  45.75 3 0  46.5 3 0  47.25 3 0  48 3 0  48.75 3 0  49.5 3 0  50.25 3 0  51 3 0  51.75 3 0  52.5 3 0  53.25 3 0  54 3 0  54.75 3 0  55.5 3 0  56.25 3 0  57 3 0  57.75 3 0  58.5 3 0  59.25 3 0  60 3 0  0 3.5 0  0.75 3.5 0  1.5 3.5 0  2.25 3.5 0  3 3.5 0  3.75 3.5 0  4.5 3.5 0  5.25 3.5 0  6 3.5 0  6.75 3.5 0  7.5 3.5 0  8.25 3.5 0  9 3.5 0  9.75 3.5 0  10.5 3.5 0  11.25 3.5 0  12 3.5 0  12.75 3.5 0  13.5 3.5 0  14.25 3.5 0  15 3.5 0  15.75 3.5 0  16.5 3.5 0  17.25 3.5 0  18 3.5 0  18.75 3.5 0  19.5 3.5 0  20.25 3.5 0  21 3.5 0  21.75 3.5 0  22.5 3.5 0  23.25 3.5 0  24 3.5 0  24.75 3.5 0  25.5 3.5 0  26.25 3.5 0  27 3.5 0  27.75 3.5 0  28.5 3.5 0  29.25 3.5 0  30 3.5 0  30.75 3.5 0  31.5 3.5 0  32.25 3.5 0  33 3.5 0  33.75 3.5 0  34.5 3.5 0  35.25 3.5 0  36 3.5 0  36.75 3.5 0  37.5 3.5 0  38.25 3.5 0  39 3.5 0  39.75 3.5 0  40.5 3.5 0  41.25 3.5 0  42 3.5 0  42.75 3.5 0  43.5 3.5 0  44.25 3.5 0  45 3.5 0  45.75 3.5 0  46.5 3.5 0  47.25 3.5 0  48 3.5 0  48.75 3.5 0  49.5 3.5 0  50.25 3.5 0  51 3.5 0  51.75 3.5 0  52.5 3.5 0  53.25 3.5 0  54 3.5 0  54.75 3.5 0  55.5 3.5 0  56.25 3.5 0  57 3.5 0  57.75 3.5 0  58.5 3.5 0  59.25 3.5 0  60 3.5 0  0 4 0  0.75 4 0  1.5 4 0  2.25 4 0  3 4 0  3.75 4 0  4.5 4 0  5.25 4 0  6 4 0  6.75 4 0  7.5 4 0  8.25 4 0  9 4 0  9.75 4 0  10.5 4 0  11.25 4 0  12 4 0  12.75 4 0  13.5 4 0  14.25 4 0  15 4 0  15.75 4 0  16.5 4 0  17.25 4 0  18 4 0  18.75 4 0  19.5 4 0  20.25 4 0  21 4 0  21.75 4 0  22.5 4 0  23.25 4 0  24 4 0  24.75 4 0  25.5 4 0  26.25 4 0  27 4 0  27.75 4 0  28.5 4 0  29.25 4 0  30 4 0  30.75 4 0  31.5 4 0  32.25 4 0  33 4 0  33.75 4 0  34.5 4 0  35.25 4 0  36 4 0  36.75 4 0  37.5 4 0  38.25 4 0  39 4 0  39.75 4 0  40.5 4 0  41.25 4 0  42 4 0  42.75 4 0  43.5 4 0  44.25 4 0  45 4 0  45.75 4 0  46.5 4 0  47.25 4 0  48 4 0  48.75 4 0  49.5 4 0  50.25 4 0  51 4 0  51.75 4 0  52.5 4 0  53.25 4 0  54 4 0  54.75 4 0  55.5 4 0  56.25 4 0  57 4 0  57.75 4 0  58.5 4 0  59.25 4 0  60 4 0  0.375 0.25 0  1.125 0.25 0  1.875 0.25 0  2.625 0.25 0  3.375 0.25 0  4.125 0.25 0  4.875 0.25 0  5.625 0.25 0  6.375 0.25 0  7.125 0.25 0  7.875 0.25 0  8.625 0.25 0  9.375 0.25 0  10.125 0.25 0  10.875 0.25 0  11.625 0.25 0  12.375 0.25 0  13.125 0.25 0  13.875 0.25 0  14.625 0.25 0  15.375 0.25 0  16.125 0.25 0  16.875 0.25 0  17.625 0.25 0  18.375 0.25 0  19.125 0.25 0  19.875 0.25 0  20.625 0.25 0  21.375 0.25 0  22.125 0.25 0  22.875 0.25 0  23.625 0.25 0  24.375 0.25 0  25.125 0.25 0  25.875 0.25 0  26.625 0.25 0  27.375 0.25 0  28.125 0.25 0  28.875 0.25 0  29.625 0.25 0  30.375 0.25 0  31.125 0.25 0  31.875 0.25 0  32.625 0.25 0  33.375 0.25 0  34.125 0.25 0  34.875 0.25 0  35.625 0.25 0  36.375 0.25 0  37.125 0.25 0  37.875 0.25 0  38.625 0.25 0  39.375 0.25 0  40.125 0.25 0  40.875 0.25 0  41.625 0.25 0  42.375 0.25 0  43.125 0.25 0  43.875 0.25 0  44.625 0.25 0  45.375 0.25 0  46.125 0.25 0  46.875 0.25 0  47.625 0.25 0  48.375 0.25 0  49.125 0.25 0  49.875 0.25 0  50.625 0.25 0  51.375 0.25 0  52.125 0.25 0  52.875 0.25 0  53.625 0.25 0  54.375 0.25 0  55.125 0.25 0  55.875 0.25 0  56.625 0.25 0  57.375 0.25 0  58.125 0.25 0  58.875 0.25 0  59.625 0.25 0  0.375 0.75 0  1.125 0.75 0  1.875 0.75 0  2.625 0.75 0  3.375 0.75 0  4.125 0.75 0  4.875 0.75 0  5.625 0.75 0  6.375 0.75 0  7.125 0.75 0  7.875 0.75 0  8.625 0.75 0  9.375 0.75 0  10.125 0.75 0  10.875 0.75 0  11.625 0.75 0  12.375 0.75 0  13.125 0.75 0  13.875 0.75 0  14.625 0.75 0  15.375 0.75 0  16.125 0.75 0  16.875 0.75 0  17.625 0.75 0  18.375 0.75 0  19.125 0.75 0  19.875 0.75 0  20.625 0.75 0  21.375 0.75 0  22.125 0.75 0  22.875 0.75 0  23.625 0.75 0  24.375 0.75 0  25.125 0.75 0  25.875 0.75 0  26.625 0.75 0  27.375 0.75 0  28.125 0.75 0  28.875 0.75 0  29.625 0.75 0  30.375 0.75 0  31.125 0.75 0  31.875 0.75 0  32.625 0.75 0  33.375 0.75 0  34.125 0.75 0  34.875 0.75 0  35.625 0.75 0  36.375 0.75 0  37.125 0.75 0  37.875 0.75 0  38.625 0.75 0  39.375 0.75 0  40.125 0.75 0  40
[...]
<PointData  Scalars="f_8-1"> 
<DataArray  type="Float64"  Name="f_8-1"  format="ascii">-4.0620919497983254e+04  3.6964246484239248e+05  -2.3371546413162482e+05  2.0642424474946468e+05  8.0795406238684617e+05  -9.1112807056425116e+05  -5.7634555836315651e+05  -6.3439606505602726e+05  6.5630382733219746e+05  -5.6912182930074108e+05  -6.6614858262766583e+05  -1.5200023205459805e+06  -1.2406959088681445e+06  -8.7777607110662234e+05  -8.0875812690047640e+05  -8.7966036845012521e+05  -1.0171316594716288e+06  2.5136424108720963e+04  -5.4875644203480810e+05  -9.1465619622465607e+05  -4.1509699226509832e+05  4.9750126340935903e+05  6.9075887642178475e+05  -5.1914151966553030e+05  4.1361807527418772e+05  8.2645359364170276e+04  1.1338449038177234e+05  5.4511364339735184e+05  3.6510775439300301e+05  -5.1119152667557006e+05  -2.0558247027241325e+05  -1.9940404220430052e+05  -2.4878548977371654e+05  -2.7231181558895425e+05  -2.2968419109741680e+05  -1.0457495242605121e+05  -2.6094762259295248e+05  6.8955308341430733e+04  1.4805601741962571e+04  2.5899476577654469e+05  2.7615704083298316e+05  8.1224020812363247e+04  1.7616786445366044e+05  2.6078369277954285e+05  5.2118114777346615e+04  -8.2678503657856883e+04  -9.0211489229814018e+04  1.6504265912098743e+05  -1.7142639772943945e+04  2.0517229992418020e+05  2.4554741276571105e+05  2.2637342058127132e+05  -9.1641953565785079e+04  -1.2306838813250506e+05  -3.0048777767326665e+04  2.6603972810998152e+05  2.2863530421357305e+05  7.2550588785482969e+03  -1.3508157018946204e+05  -1.1660644929354875e+05  5.6034656811735345e+04  -3.0549299909499515e+05  -2.4584439452339450e+05  -8.6393104263021261e+05  -6.7066862362328055e+05  1.8105806402641831e+03  -6.6059200354279776e+05  1.4790232067194558e+05  -4.5700090465995762e+05  8.8207458136555651e+04  4.9507608212237879e+04  -3.7950430741731718e+05  -3.0922851703609334e+05  -9.2720303777066943e+02  -2.5947812297675962e+04  4.1445227856362406e+04  2.2047306984194182e+05  9.7006152882658629e+04  -1.8555945977648113e+04  9.1951883688701389e+04  -2.8095249415195966e+05  -3.7471123538607870e+04  3.7366356820929254e+05  1.6628883114308858e+05  3.1510811766359204e+05  3.7085050938536803e+05  -1.7018187081700619e+06  -7.1746291820169881e+05  -1.0966039287403852e+06  -1.1245432763949640e+06  -3.7633376090684038e+05  -6.3789627415914228e+05  -1.6380206634965113e+06  -1.3932656070377864e+06  -2.8098773690079764e+05  -8.4186042521640973e+05  -9.2502415521172853e+05  -7.7006673395463114e+05  -1.8239053339027791e+05  -5.6138306767275068e+05  -6.7469735000298149e+05  -3.7867964958449756e+05  2.2465143048105303e+04  -2.9550668337164007e+04  -2.4342703281398243e+05  -1.6469918693766362e+05  2.1663918223085268e+04  8.7756189576309072e+04  1.2786553849141439e+05  1.1235605694088370e+04  -1.1549381033391985e+04  -3.7827404197820765e+05  -7.6311498742100215e+04  -2.7411747089570871e+05  -1.5372078912583797e+05  -2.4524538403452997e+05  -2.0686378769169384e+05  8.3880174312215080e+04  -1.6877111455238389e+05  -1.1690867606864723e+05  -1.2702498495328939e+05  2.3172499845043538e+05  1.1450353688476713e+05  9.5211317319941416e+04  2.1237491203483121e+05  6.6541317085179297e+04  -5.8649419169977900e+03  -6.0749988821411243e+04  8.7159047874648357e+04  2.5850827836053859e+05  2.7136233358638076e+05  3.0484117193358316e+05  1.8280093226752241e+05  -9.3018858355022632e+04  -1.4319422056502532e+05  -3.4772660573020672e+04  4.6610319466345441e+04  -2.1700153593647957e+05  -3.8234056560239301e+03  2.4515656554855153e+05  -2.9449053854621609e+05  -1.5331107514845615e+05  -3.1694610931221483e+04  -8.4820504367529662e+04  -7.2453863482562825e+05  -4.4774961079296411e+05  -7.8649888095672941e+04  -4.4670753436127408e+04  1.4915211663293088e+05  -9.3586724439308906e+04  4.6905880122425203e+05  -3.0569812561536190e+05  -3.6271352982599387e+05  -2.2997200589369613e+05  -4.8951513860864776e+04  -6.6025999393528953e+04  5.4854862599514279e+04  1.6973958975762513e+05  -7.1573405201733302e+04  -3.9579570818613458e+04  -7.0138297036133299e+04  5.6986302625335396e+04  -5.9290010741845275e+04  9.3156836399936548e+05  6.2754372278822062e+05  4.6171226745021110e+05  3.3126193691665027e+05  -5.8136290359099070e+05  -1.2125399413641603e+06  -8.1606191105284379e+05  -6.3382342819161993e+05  -1.0231136428898593e+06  -5.4248953525525122e+05  -8.3814860498108505e+05  -1.1631641020568307e+06  -3.7061199633832299e+05  -8.2845665370346792e+05  -7.7507702763976366e+05  -3.3266606213389192e+05  -1.1679206450953893e+05  -2.3437845271871632e+05  -1.8214497503335346e+05  -7.1632693779772473e+05  1.3543520592577048e+04  -2.3953708971078537e+04  -6.2872850880097679e+05  1.4720897287447326e+05  -2.1228866778049854e+05  3.2767845023378348e+04  -8.3893447481773692e+04  2.3437558539386943e+05  5.0517133197569983e+03  -8.9756694599297407e+04  -2.1776711655977785e+05  -3.3056117770915892e+05  -2.8207696282583789e+05  -2.9824395569608116e+05  -1.2379126856027338e+05  3.5259334985360299e+04  -1.8615422586538136e+05  -5.8849145650070852e+04  -1.8584704849295369e+04  -3.4412854656046722e+04  -3.7354652242998411e+04  6.7935447793330735e+04  -4.3012061656459955e+04  -1.9321136074493672e+04  8.0251889425068657e+03  -1.3344926613254688e+05  1.6426691684751355e+05  3.3133725300634420e+05  3.1045207516062917e+05  2.2966795144485240e+05  6.0491423694660305e+04  -2.0070286101991450e+05  -1.2269295935878907e+05  -3.5878686068022348e+03  -5.4719636926405219e+04  -1.1968865076285531e+05  1.6604576322520539e+05  -4.1835731796193717e+05  1.0024900152855752e+05  -1.2514144615406520e+05  1.2281199842693958e+05  1.0042009429834691e+05  -7.6272475532599539e+05  2.0487838216449704e+05  5.3245878266454187e+04  1.8784430080980828e+05  -5.8241198123263050e+04  -3.4630686264218966e+05  -6.4678642683436286e+04  2.1342286772007257e+04  -2.6686456737839413e+05  -2.1959616280043602e+05  -2.2918162313792732e+05  -1.6412727489617764e+05  7.2205149505781126e+04  4.3614162079355185e+04  -3.2439625027960091e+05  -1.8768032905587187e+05  -1.0416167337124379e+05  -3.7102502364636450e+04  1.1315880183833315e+05  5.9032401761275495e+05  9.2577016937509330e+05  5.6743703661528265e+05  4.5319229232952360e+05  1.1950507899504695e+05  -6.0257134237488790e+05  -7.4369484562852560e+05  -1.0405942417263680e+06  -3.8893088613921870e+05  -9.8617301439562259e+04  -7.0122629769235628e+05  -1.4837555960919827e+06  -7.2690085501115897e+05  -5.5774837862872612e+05  -1.0792566116721965e+06  -1.1623358716173490e+05  -1.9506352406581596e+05  -2.2666048478203360e+05  -3.4518279437276162e+05  -1.5745152932709976e+05  -4.7159952133486695e+04  -4.9181742009825248e+04  -2.9278508353043039e+05  -1.1962923383587081e+05  -3.9313340966114309e+04  -1.9131261844218790e+05  1.0375358088558214e+04  -1.4353914935927558e+04  -8.3424690267731174e+04  -1.8427554526079705e+05  -1.4775220288933706e+05  -1.8837272173842482e+05  -1.2131218246481571e+05  -1.5171156903896434e+05  -1.9741698842068869e+05  5.8054903763122718e+04  -1.1094575959135771e+05  9.8366299150586401e+03  -8.1770581862708554e+04  9.7393893540389210e+04  1.9571532063778202e+05  2.4873858324554510e+05  8.4617865797751860e+04  -1.4890220201587470e+04  5.8599669330353114e+04  -3.8608211972668942e+04  4.9191837514627710e+04  3.4016470243315730e+05  2.2475956318473854e+05  9.9162220487923711e+04  2.1325493633066356e+05  6.6203433173284677e+04  -3.5871185490081296e+05  -2.0848400588112549e+05  -1.7947006657194422e+05  9.7809106915061027e+04  3.8170558358108989e+04  -2.4372346777515690e+05  5.6535025842676318e+04  -3.1577152612495219e+05  -3.7888284699126822e+05  -8.0964240543048698e+04  8.8504520994743652e+04  8.2150283943373390e+04  -3.7885160504492925e+05  -6.5264867824173152e+03  -2.7970662410285964e+05  -7.0411853340247617e+04  8.7760679097583081e+04  -1.1430523723564712e+05  -1.0031657598225696e+04  -2.5994639119810038e+05  -2.2874036144794425e+05  -6.5623672522237262e+04  -1.6298412774544180e+05  -1.5221310898535154e+05  -9.5067321507278495e+04  -4.2361652225012454e+05  2.1505168898926437e+04  2.5163392692039833e+04  -4.1534026936102382e+04  2.1683615946030081e+05  2.4710051006008059e+05  6.5911111811355606e+05  -2.5257696871719608e+05  1.6824421383121537e+05  -2.5913411640622350e+05  -1.1942445127037105e+06  -9.9011488329586305e+05  -5.6048592686777178e+05  -3.3288288681341085e+05  -1.3505253499783642e+05  -7.4734539887362206e+05  -8.4459131993708841e+04  -5.6275138194474916e+05  -7.4655337652206629e+02  -1.4909546391148475e+05  6.1263393487995956e+04  -3.9284557960008254e+05  -8.9981602695943744e+04  -4.3634442660480971e+05  -1.1946784048111740e+05  -3.9500125123146881e+05  -2.7565784501467308e+05  3.8813285818474993e+04  1.8375098039936236e+05  1.3536442882342194e+05  -3.3857853485350113e+05  2.1911901666325063e+05  -1.7309432252880160e+05  -2.0488714873219785e+05  -4.7637960599062571e+04  -9.0450193445788871e+04  -2.1519867021119414e+05  -7.8100229508180841e+04  -1.7514215392015746e+05  7.9090034178242000e+04  3.7252110838924928e+04  -5.5750462405314378e+04  3.5829437181812623e+03  -5.7188299368996217e+04  1.1761494586311425e+05  -1.4529205480636994e+04  3.7384178501309943e+05  -8.8928599284075302e+04  1.0274844127863435e+05  -4.0961690649009906e+04  8.4239171282339623e+04  5.3145303318980783e+04  2.2996624109374944e+05  1.8258179170591643e+05  3.6716426373735542e+05  2.6769342801065202e+05  1.5387601468917173e+04  -1.2054727458374421e+05  7.7098705690045463e+04  -1.7689031721242715e+05  1.7875279062016310e+04  4.6866044586925636e+04  -3.4529010438999030e+04  -2.8258057741882384e+05  -2.7303683994399267e+05  6.6029228702717010e+04  -4.5872588077245033e+04  -2.2520740377651941e+05  -2.1204217996514140e+05  -2.4318118850645967e+05  7.9170387153878284e+04  -1.6957244212122969e+05  -2.7283720781762508e+05  -1.9019504344341214e+05  4.5650755658737435e+04  -3.3748241350120696e+05  -1.1341899016923286e+04  -4.8990937567468063e+05  1.4362604422693888e+04  -3.9746346048829053e+05  -4.0065656031627598e+05  2.8579969343708384e+04  -2.3111641724905546e+05  -4.2390757041642828e+04  -2.6650102952209412e+05  -2.2819924452168765e+05  6.1088007280708721e+05  4.8834928055937542e+05  1.2813185312317798e+05  -5.1987545926248938e+04  9.4632787770707393e+05  -6.6773307045145158e+05  -4.5913830555490620e+05  -6.5915895038230508e+05  -4.2582490125339059e+05  -4.2614305061906693e+05  6.8145608364880275e+02  -7.2243496128384385e+05  6.2706252542469429e+05  2.2964330735806268e+05  1.1684698576273298e+04  4.8208821849745051e+04  -2.9813792421968433e+05  -4.3826885850899336e+04  -2.1586365978145896e+05  -2.2749950727797332e+05  -4.9273993000442750e+05  -3.7772349007602752e+05  -2.1252108605534851e+05  -1.0010451994884235e+05  -1.3047563443199954e+03  -3.1254112143236963e+05  -1.7198682220705258e+05  -1.3325394597215287e+05  -5.7868276306933294e+04  -4.3671969512942551e+03  4.2861323520188154e+04  1.0094584344473982e+05  2.8624175534992071e+04  -6.9014384311482048e+04  -9.9712961201184065e+04  3.8082744543220208e+04  7.0358215150809483e+03  -4.4023331988866448e+04  -4.0400240360993856e+04  5.5818859607598988e+03  6.6002134266858280e+04  -4.1886513553591780e+04  -1.4014678477087846e+04  -1.8798907689869337e+05  3.2466386259881347e+04  2.2506357123359390e+04  5.2885347639668282e+04  1.5426014696357533e+05  2.4449840223065994e+05  3.1990937836511899e+05  -6.2646118804515470e+04  -2.3328899268695091e+04  1.3459146225482129e+05  -7.2963405008496542e+04  2.3243635530778949e+05  -1.7121787246911455e+05  1.7433143256535848e+04  1.0429073541787824e+05  1.2725824122142678e+04  -2.9514640034323739e+05  3.2634424735760607e+05  1.1374903950133992e+05  -6.2855144773600274e+04  -1.5050894601729175e+05  -2.0790859428014507e+05  -2.2705726042419697e+04  -1.6863889550590818e+05  -1.8782426174804260e+05  9.3969419700806102e+04  -5.6575396405821946e+05  1.4213919335473169e+05  6.6973610948600435e+03  -1.8163055333450009e+05  -1.3914707670240366e+04  7.5339248530572324e+04  -1.3091628462038076e+05  5.8184111326879420e+03  -3.3247200011214317e+05  3.3989758057527346e+04  1.3455075437877563e+05  1.6190975226559682e+05  -2.7449366079168522e+05  -1.1795078122871302e+05  -2.5959220272044491e+05  6.5922432703346194e+03  4.6218536421783990e+05  -4.8668567274394643e+05  -1.0171286210610747e+06  -3.0134815845575352e+05  -3.4228369671502907e+05  2.1877305520834267e+05  -3.6828719591659168e+05  -6.8237409449208353e+05  -1.4081704467546739e+05  5.7762943687318044e+05  3.6745234647779801e+05  2.7124275798483269e+05  -9.0916528549426555e+04  3.5993151624884704e+04  -2.7177803442665434e+05  -1.8690776305610381e+05  -1.2493082951707397e+05  -1.5697225345938359e+05  -3.4083200349569414e+05  -1.6953243413069533e+05  -3.2315884349175001e+05  -2.3395809602559751e+05  -8.7650216258119617e+04  1.2971659256554788e+05  1.4688966819753256e+05  -3.3060501922648400e+04  1.2240792888011131e+05  5.5694062127166617e+04  -2.9192501435290822e+04  -2.5447701388746122e+04  4.9545239360745851e+04  -8.8621472486113184e+04  1.5491911777393383e+05  -8.6359421330254612e+04  -9.0629634860970502e+04  8.2567323150832730e+04  1.8113338583777324e+05  -2.1976633288447448e+05  1.2403847678323646e+05  -1.0483794953316836e+05  1.5432464032826474e+05  5.8258318808086377e+04  1.4577598225389133e+05  2.2799643320915016e+05  -1.0308958913948563e+04  1.4815179133630914e+05  -6.2343893220200393e+04  1.3786204860474821e+05  8.7010333575237411e+04  -1.4693221861742696e+05  -2.1604676674290479e+05  2.5749068932901300e+05  2.8323922084200638e+05  4.7162924505453091e+04  1.5650775378391429e+05  -3.2157949541050714e+05  1.3615675064606257e+05  -7.6577131686587381e+04  2.9588203704895102e+05  2.8514162867310126e+04  7.8095611943966460e+03  -1.0962655788497694e+04  -1.3005735079680564e+05  -1.1969025673245850e+05  -1.5896520463709699e+05  -5.5798661335179961e+04  -1.3306582917087115e+04  -8.3044221674090859e+03  2.3324219588393622e+05  1.0376716924543290e+05  -2.6167688226508928e+05  -3.1204726618537528e+05  -7.9223442660859146e+04  -1.9323995101115247e+05  5.4563097999148165e+04  -2.8345147062498861e+05  -7.8034451899222110e+05  -8.3875324340784486e+04  -1.2575581157243210e+05  1.0544707278064782e+05  -1.0797961580888208e+06  -4.1270573366088240e+05  -1.1675862745601209e+05  2.2504461049479800e+06  3.2564368009276404e+03  -2.5242346797228168e+05  -2.3074733501453974e+05  -1.8678618485232763e+05  1.2989046955796277e+05  -1.1778427741977843e+05  1.9262983543204539e+05  4.5251407273447898e+05  -2.1062527271096766e+04  3.8456352685302170e+05  -2.2718661325238110e+04  1.0660093534545451e+05  -9.4804110952221570e+04  -8.6721950736908781e+04  -1.4221133427239498e+05  -1.7323220361675788e+05  -3.2568524317287636e+05  7.5794089617390840e+04  3.7943895440705681e+04  2.0219378466110284e+04  -1.3136647397735727e+05  1.0783854443551748e+05  5.5080910012302847e+04  -1.1613668394768196e+04  1.8749671341932913e+04  1.6195496150371402e+04  -2.9203141635586104e+04  1.2354923369313676e+05  -1.8894699297346300e+05  1.1243687357206896e+04  -2.6388444571060165e+04  -1.2627049195489449e+05  7.8464600918660974e+04  -6.2083325001797290e+04  5.1037938742999359e+04  -6.9412014430037336e+04  1.2271168541530016e+05  2.5732131238734975e+04  2.8038632430492715e+04  1.3174250888025883e+05  -1.1531457635500850e+05  2.9446094606516173e+05  -5.1903941731453081e+01  -4.5844543802831642e+04  -1.5775518324515325e+05  2.4318299464636957e+05  -1.3522256116460034e+05  -2.2347043460651362e+03  -1.3411021672264286e+05  2.7454096344150318e+05  -9.1075895306392958e+03  -1.4539509543148259e+05  -2.3997040202170648e+05  1.0178878373395471e+05  -3.3733054485019811e+03  -1.1131720394919173e+04  -8.4072812519646817e+04  8.3999386349718203e+04  -1.2891377511692689e+05  -1.0543094242875546e+05  -8.0792708566990113e+04  -1.2535677065108523e+05  -4.3785225187132030e+05  1.3675554520034857e+05  -4.4634624272965593e+04  2.4045168406558133e+05  7.6612707066335221e+04  -9.1930900501320837e+04  -4.9165642693727539e+04  7.3636018740428583e+04  1.8301708586064633e+04  -1.9266725162291259e+04  -3.5538045326110109e+05  -2.2047023954230921e+04  5.0386182985669315e+04  2.1145229357743758e+05  -6.4266409930031479e+05  -3.2436458125223394e+05  4.9167553064837016e+05  -1.3112379350836657e+05  -1.7157949655777431e+05  4.4104515726028010e+05  -1.6443602074428974e+05  -1.8895577561319401e+05  2.4306862197483407e+05  -1.8012369350346952e+05  3.4314229394856747e+05  -5.7680739535665698e+03  -1.0739706205817069e+05  7.7489700238068530e+04  -8.2820547808662188e+04  4.0448865752535516e+04  4.9198801086284693e+04  -6.3194892219513247e+04  3.1088190397967668e+04  -1.1585587323274017e+05  -1.6003546166115988e+05  6.6419947362067280e+04  -7.2456729407559105e+04  3.3206250463567354e+04  -9.6903933073941444e+04  -1.0044750143068781e+04  -5.7900884339574950e+03  -1.1807981509036367e+05  5.1064223917568561e+04  -3.4589866469125503e+04  7.9091184721771191e+04  -7.1593959144323293e+04  6.0655510871932006e+02  6.3027561099054394e+04  3.4589686222114375e+04  4.0159786347890615e+04  -8.6706417273066472e+04  -1.0513132894934732e+04  -5.4712037349255123e+04  -8.4757674212991860e+03  -3.4654311704000051e+04  -6.0516836930035613e+04  1.1235088891404252e+05  -2.4397645860146222e+04  7.5978948618625418e+03  -8.3049651793509856e+03  -1.8511841350415105e+05  1.9371524454859351e+04  -3.4188151596602853e+04  5.1914106309228162e+04  -5.0560805566260489e+04  3.6866048627172473e+04  -3.1035945914078238e+04  1.5576000763882312e+05  1.9903932114429554e+04  -3.8273470035383449e+04  1.9069877954112333e+04  -7.2870620132735887e+04  4.6421577883730344e+04  -4.1750555812157669e+04  2.5250295915295599e+04  8.3193837469077007e+03  -3.5471132541701038e+04  1.0546000412382044e+05  -1.0131182908957037e+05  1.8154688788865946e+05  1.5694415961887295e+04  -1.1616182966781243e+05  -2.0690702000962826e+05  1.3629891602071727e+05  -3.1224040892218624e+05  2.2379357025447488e+05  -9.2347808872466150e+04  5.8780746039256546e+03  7.3091913114703377e+04  7.3752143164016059e+04  2.0942893506078173e+04  9.3656604753839929e+04  7.8646703197238932e+05  7.4153734721647075e+05  1.8611706653395097e+05  -5.2113394937269046e+05  -1.5529674464957570e+06  -1.0258107002283846e+06  -3.6051125196805119e+05  -1.5230486160020007e+03  -5.3968166119165905e+05  -7.2452049915978289e+05  -5.3216531028112513e+05  -1.1654764014433646e+06  -7.8150557436273771e+05  -8.2764089344136813e+05  -7.0431295149939053e+05  -5.4221159207969927e+05  -1.8217913555358647e+05  -5.9394374298094807e+05  -5.3773415244020917e+05  -1.4408319830184488e+05  3.2105241391853057e+05  -1.2994810968933769e+04  -1.2715934836460790e+05  -1.0843495408700475e+05  1.6763590731734171e+05  3.8673048445985670e+05  1.6429443479151983e+05  6.4548929725576490e+04  1.4606673851564727e+05  -3.0801341707125574e+05  -2.4550111504766927e+05  1.5438469764803405e+05  -2.1103926359278918e+05  -4.1619823426946485e+05  -1.5546236926060225e+05  -3.1525171317688390e+04  1.0864385445154025e+05  2.7399879521250296e+04  1.3154583447164274e+05  3.6076616708255176e+04  -2.7011436582472539e+04  1.5791033083426164e+05  1.5573196679098287e+05  1.8427581622133951e+05  1.4307356365991394e+04  8.3662371744043150e+04  9.9636345793975852e+04  2.1687645114893015e+05  1.2029169592480722e+05  2.2369243693668480e+05  7.9938282230035329e+04  -1.1071679739727103e+05  -9.0109774731066336e+03  1.2258105525801847e+05  1.2125535647871158e+05  2.7853353496570670e+05  8.3660376473502824e+04  -1.0277069711833811e+05  -1.0357909243505925e+05  1.6165594438047544e+05  8.1945364889411768e+05  -1.3073323002036192e+05  -7.1568479339905619e+05  -5.2448636313908861e+05  -2.5141594126738398e+05  5.7462600381680951e+05  -6.6890384125183686e+05  1.4761672689872622e+05  -2.4739254295800769e+05  -2.9457115178495861e+05  -3.4439993359396461e+05  -2.5754415163589350e+04  -2.1091295606646236e+04  5.3060835119989955e+04  6.6435182400861828e+04  1.4684527111293515e+05  1.4842877074478962e+05  2.2668881136038239e+05  -6.5134968695585812e+04  4.41967967791528