<?xml version="1.0"?>
<VTKFile type="UnstructuredGrid"  version="0.1"  >
<UnstructuredGrid>
<Piece  NumberOfPoints="1369" NumberOfCells="2560">
<Points>
<DataArray  type="Float64"  NumberOfComponents="3"  format="ascii">0 0 0  0.75 0 0  1.5 0 0  2.25 0 0  3 0 0  3.75 0 0  4.5 0 0  5.25 0 0  6 0 0  6.75 0 0  7.5 0 0  8.25 0 0  9 0 0  9.75 0 0  10.5 0 0  11.25 0 0  12 0 0  12.75 0 0  13.5 0 0  14.25 0 0  15 0 0  15.75 0 0  16.5 0 0  17.25 0 0  18 0 0  18.75 0 0  19.5 0 0  20.25 0 0  21 0 0  21.75 0 0  22.5 0 0  23.25 0 0  24 0 0  24.75 0 0  25.5 0 0  26.25 0 0  27 0 0  27.75 0 0  28.5 0 0  29.25 0 0  30 0 0  30.75 0 0  31.5 0 0  32.25 0 0  33 0 0  33.75 0 0  34.5 0 0  35.25 0 0  36 0 0  36.75 0 0  37.5 0 0  38.25 0 0  39 0 0  39.75 0 0  40.5 0 0  41.25 0 0  42 0 0  42.75 0 0  43.5 0 0  44.25 0 0  45 0 0  45.75 0 0  46.5 0 0  47.25 0 0  48 0 0  48.75 0 0  49.5 0 0  50.25 0 0  51 0 0  51.75 0 0  52.5 0 0  53.25 0 0  54 0 0  54.75 0 0  55.5 0 0  56.25 0 0  57 0 0  57.75 0 0  58.5 0 0  59.25 0 0  60 0 0  0 0.5 0  0.75 0.5 0  1.5 0.5 0  2.25 0.5 0  3 0.5 0  3.75 0.5 0  4.5 0.5 0  5.25 0.5 0  6 0.5 0  6.75 0.5 0  7.5 0.5 0  8.25 0.5 0  9 0.5 0  9.75 0.5 0  10.5 0.5 0  11.25 0.5 0  12 0.5 0  12.75 0.5 0  13.5 0.5 0  14.25 0.5 0  15 0.5 0  15.75 0.5 0  16.5 0.5 0  17.25 0.5 0  18 0.5 0  18.75 0.5 0  19.5 0.5 0  20.25 0.5 0  21 0.5 0  21.75 0.5 0  22.5 0.5 0  23.25 0.5 0  24 0.5 0  24.75 0.5 0  25.5 0.5 0  26.25 0.5 0  27 0.5 0  27.75 0.5 0  28.5 0.5 0  29.25 0.5 0  30 0.5 0  30.75 0.5 0  31.5 0.5 0  32.25 0.5 0  33 0.5 0  33.75 0.5 0  34.5 0.5 0  35.25 0.5 0  36 0.5 0  36.75 0.5 0  37.5 0.5 0  38.25 0.5 0  39 0.5 0  39.75 0.5 0  40.5 0.5 0  41.25 0.5 0  42 0.5 0  42.75 0.5 0  43.5 0.5 0  44.25 0.5 0  45 0.5 0  45.75 0.5 0  46.5 0.5 0  47.25 0.5 0  48 0.5 0  48.75 0.5 0  49.5 0.5 0  50.25 0.5 0  51 0.5 0  51.75 0.5 0  52.5 0.5 0  53.25 0.5 0  54 0.5 0  54.75 0.5 0  55.5 0.5 0  56.25 0.5 0  57 0.5 0  57.75 0.5 0  58.5 0.5 0  59.25 0.5 0  60 0.5 0  0 1 0  0.75 1 0  1.5 1 0  2.25 1 0  3 1 0  3.75 1 0  4.5 1 0  5.25 1 0  6 1 0  6.75 1 0  7.5 1 0  8.25 1 0  9 1 0  9.75 1 0  10.5 1 0  11.25 1 0  12 1 0  12.75 1 0  13.5 1 0  14.25 1 0  15 1 0  15.75 1 0  16.5 1 0  17.25 1 0  18 1 0  18.75 1 0  19.5 1 0  20.25 1 0  21 1 0  21.75 1 0  22.5 1 0  23.25 1 0  24 1 0  24.75 1 0  25.5 1 0  26.25 1 0  27 1 0  27.75 1 0  28.5 1 0  29.25 1 0  30 1 0  30.75 1 0  31.5 1 0  32.25 1 0  33 1 0  33.75 1 0  34.5 1 0  35.25 1 0  36 1 0  36.75 1 0  37.5 1 0  38.25 1 0  39 1 0  39.75 1 0  40.5 1 0  41.25 1 0  42 1 0  42.75 1 0  43.5 1 0  44.25 1 0  45 1 0  45.75 1 0  46.5 1 0  47.25 1 0  48 1 0  48.75 1 0  49.5 1 0  50.25 1 0  51 1 0  51.75 1 0  52.5 1 0  53.25 1 0  54 1 0  54.75 1 0  55.5 1 0  56.25 1 0  57 1 0  57.75 1 0  58.5 1 0  59.25 1 0  60 1 0  0 1.5 0  0.75 1.5 0  1.5 1.5 0  2.25 1.5 0  3 1.5 0  3.75 1.5 0  4.5 1.5 0  5.25 1.5 0  6 1.5 0  6.75 1.5 0  7.5 1.5 0  8.25 1.5 0  9 1.5 0  9.75 1.5 0  10.5 1.5 0  11.25 1.5 0  12 1.5 0  12.75 1.5 0  13.5 1.5 0  14.25 1.5 0  15 1.5 0  15.75 1.5 0  16.5 1.5 0  17.25 1.5 0  18 1.5 0  18.75 1.5 0  19.5 1.5 0  20.25 1.5 0  21 1.5 0  21.75 1.5 0  22.5 1.5 0  23.25 1.5 0  24 1.5 0  24.75 1.5 0  25.5 1.5 0  26.25 1.5 0  27 1.5 0  27.75 1.5 0  28.5 1.5 0  29.25 1.5 0  30 1.5 0  30.75 1.5 0  31.5 1.5 0  32.25 1.5 0  33 1.5 0  33.75 1.5 0  34.5 1.5 0  35.25 1.5 0  36 1.5 0  36.75 1.5 0  37.5 1.5 0  38.25 1.5 0  39 1.5 0  39.75 1.5 0  40.5 1.5 0  41.25 1.5 0  42 1.5 0  42.75 1.5 0  43.5 1.5 0  44.25 1.5 0  45 1.5 0  45.75 1.5 0  46.5 1.5 0  47.25 1.5 0  48 1.5 0  48.75 1.5 0  49.5 1.5 0  50.25 1.5 0  51 1.5 0  51.75 1.5 0  52.5 1.5 0  53.25 1.5 0  54 1.5 0  54.75 1.5 0  55.5 1.5 0  56.25 1.5 0  57 1.5 0  57.75 1.5 0  58.5 1.5 0  59.25 1.5 0  60 1.5 0  0 2 0  0.75 2 0  1.5 2 0  2.25 2 0  3 2 0  3.75 2 0  4.5 2 0  5.25 2 0  6 2 0  6.75 2 0  7.5 2 0  8.25 2 0  9 2 0  9.75 2 0  10.5 2 0  11.25 2 0  12 2 0  12.75 2 0  13.5 2 0  14.25 2 0  15 2 0  15.75 2 0  16.5 2 0  17.25 2 0  18 2 0  18.75 2 0  19.5 2 0  20.25 2 0  21 2 0  21.75 2 0  22.5 2 0  23.25 2 0  24 2 0  24.75 2 0  25.5 2 0  26.25 2 0  27 2 0  27.75 2 0  28.5 2 0  29.25 2 0  30 2 0  30.75 2 0  31.5 2 0  32.25 2 0  33 2 0  33.75 2 0  34.5 2 0  35.25 2 0  36 2 0  36.75 2 0  37.5 2 0  38.25 2 0  39 2 0  39.75 2 0  40.5 2 0  41.25 2 0  42 2 0  42.75 2 0  43.5 2 0  44.25 2 0  45 2 0  45.75 2 0  46.5 2 0  47.25 2 0  48 2 0  48.75 2 0  49.5 2 0  50.25 2 0  51 2 0  51.75 2 0  52.5 2 0  53.25 2 0  54 2 0  54.75 2 0  55.5 2 0  56.25 2 0  57 2 0  57.75 2 0  58.5 2 0  59.25 2 0  60 2 0  0 2.5 0  0.75 2.5 0  1.5 2.5 0  2.25 2.5 0  3 2.5 0  3.75 2.5 0  4.5 2.5 0  5.25 2.5 0  6 2.5 0  6.75 2.5 0  7.5 2.5 0  8.25 2.5 0  9 2.5 0  9.75 2.5 0  10.5 2.5 0  11.25 2.5 0  12 2.5 0  12.75 2.5 0  13.5 2.5 0  14.25 2.5 0  15 2.5 0  15.75 2.5 0  16.5 2.5 0  17.25 2.5 0  18 2.5 0  18.75 2.5 0  19.5 2.5 0  20.25 2.5 0  21 2.5 0  21.75 2.5 0  22.5 2.5 0  23.25 2.5 0  24 2.5 0  24.75 2.5 0  25.5 2.5 0  26.25 2.5 0  27 2.5 0  27.75 2.5 0  28.5 2.5 0  29.25 2.5 0  30 2.5 0  30.75 2.5 0  31.5 2.5 0  32.25 2.5 0  33 2.5 0  33.75 2.5 0  34.5 2.5 0  35.25 2.5 0  36 2.5 0  36.75 2.5 0  37.5 2.5 0  38.25 2.5 0  39 2.5 0  39.75 2.5 0  40.5 2.5 0  41.25 2.5 0  42 2.5 0  42.75 2.5 0  43.5 2.5 0  44.25 2.5 0  45 2.5 0  45.75 2.5 0  46.5 2.5 0  47.25 2.5 0  48 2.5 0  48.75 2.5 0  49.5 2.5 0  50.25 2.5 0  51 2.5 0  51.75 2.5 0  52.5 2.5 0  53.25 2.5 0  54 2.5 0  54.75 2.5 0  55.5 2.5 0  56.25 2.5 0  57 2.5 0  57.75 2.5 0  58.5 2.5 0  59.25 2.5 0  60 2.5 0  0 3 0  0.75 3 0  1.5 3 0  2.25 3 0  3 3 0  3.75 3 0  4.5 3 0  5.25 3 0  6 3 0  6.75 3 0  7.5 3 0  8.25 3 0  9 3 0  9.75 3 0  10.5 3 0  11.25 3 0  12 3 0  12.75 3 0  13.5 3 0  14.25 3 0  15 3 0  15.75 3 0  16.5 3 0  17.25 3 0  18 3 0  18.75 3 0  19.5 3 0  20.25 3 0  21 3 0  21.75 3 0  22.5 3 0  23.25 3 0  24 3 0  24.75 3 0  25.5 3 0  26.25 3 0  27 3 0  27.75 3 0  28.5 3 0  29.25 3 0  30 3 0  30.75 3 0  31.5 3 0  32.25 3 0  33 3 0  33.75 3 0  34.5 3 0  35.25 3 0  36 3 0  36.75 3 0  37.5 3 0  38.25 3 0  39 3 0  39.75 3 0  40.5 3 0  41.25 3 0  42 3 0  42.75 3 0  43.5 3 0  44.25 3 0  45 3 0  45.75 3 0  46.5 3 0  47.25 3 0  48 3 0  48.75 3 0  49.5 3 0  50.25 3 0  51 3 0  51.75 3 0  52.5 3 0  53.25 3 0  54 3 0  54.75 3 0  55.5 3 0  56.25 3 0  57 3 0  57.75 3 0  58.5 3 0  59.25 3 0  60 3 0  0 3.5 0  0.75 3.5 0  1.5 3.5 0  2.25 3.5 0  3 3.5 0  3.75 3.5 0  4.5 3.5 0  5.25 3.5 0  6 3.5 0  6.75 3.5 0  7.5 3.5 0  8.25 3.5 0  9 3.5 0  9.75 3.5 0  10.5 3.5 0  11.25 3.5 0  12 3.5 0  12.75 3.5 0  13.5 3.5 0  14.25 3.5 0  15 3.5 0  15.75 3.5 0  16.5 3.5 0  17.25 3.5 0  18 3.5 0  18.75 3.5 0  19.5 3.5 0  20.25 3.5 0  21 3.5 0  21.75 3.5 0  22.5 3.5 0  23.25 3.5 0  24 3.5 0  24.75 3.5 0  25.5 3.5 0  26.25 3.5 0  27 3.5 0  27.75 3.5 0  28.5 3.5 0  29.25 3.5 0  30 3.5 0  30.75 3.5 0  31.5 3.5 0  32.25 3.5 0  33 3.5 0  33.75 3.5 0  34.5 3.5 0  35.25 3.5 0  36 3.5 0  36.75 3.5 0  37.5 3.5 0  38.25 3.5 0  39 3.5 0  39.75 3.5 0  40.5 3.5 0  41.25 3.5 0  42 3.5 0  42.75 3.5 0  43.5 3.5 0  44.25 3.5 0  45 3.5 0  45.75 3.5 0  46.5 3.5 0  47.25 3.5 0  48 3.5 0  48.75 3.5 0  49.5 3.5 0  50.25 3.5 0  51 3.5 0  51.75 3.5 0  52.5 3.5 0  53.25 3.5 0  54 3.5 0  54.75 3.5 0  55.5 3.5 0  56.25 3.5 0  57 3.5 0  57.75 3.5 0  58.5 3.5 0  59.25 3.5 0  60 3.5 0  0 4 0  0.75 4 0  1.5 4 0  2.25 4 0  3 4 0  3.75 4 0  4.5 4 0  5.25 4 0  6 4 0  6.75 4 0  7.5 4 0  8.25 4 0  9 4 0  9.75 4 0  10.5 4 0  11.25 4 0  12 4 0  12.75 4 0  13.5 4 0  14.25 4 0  15 4 0  15.75 4 0  16.5 4 0  17.25 4 0  18 4 0  18.75 4 0  19.5 4 0  20.25 4 0  21 4 0  21.75 4 0  22.5 4 0  23.25 4 0  24 4 0  24.75 4 0  25.5 4 0  26.25 4 0  27 4 0  27.75 4 0  28.5 4 0  29.25 4 0  30 4 0  30.75 4 0  31.5 4 0  32.25 4 0  33 4 0  33.75 4 0  34.5 4 0  35.25 4 0  36 4 0  36.75 4 0  37.5 4 0  38.25 4 0  39 4 0  39.75 4 0  40.5 4 0  41.25 4 0  42 4 0  42.75 4 0  43.5 4 0  44.25 4 0  45 4 0  45.75 4 0  46.5 4 0  47.25 4 0  48 4 0  48.75 4 0  49.5 4 0  50.25 4 0  51 4 0  51.75 4 0  52.5 4 0  53.25 4 0  54 4 0  54.75 4 0  55.5 4 0  56.25 4 0  57 4 0  57.75 4 0  58.5 4 0  59.25 4 0  60 4 0  0.375 0.25 0  1.125 0.25 0  1.875 0.25 0  2.625 0.25 0  3.375 0.25 0  4.125 0.25 0  4.875 0.25 0  5.625 0.25 0  6.375 0.25 0  7.125 0.25 0  7.875 0.25 0  8.625 0.25 0  9.375 0.25 0  10.125 0.25 0  10.875 0.25 0  11.625 0.25 0  12.375 0.25 0  13.125 0.25 0  13.875 0.25 0  14.625 0.25 0  15.375 0.25 0  16.125 0.25 0  16.875 0.25 0  17.625 0.25 0  18.375 0.25 0  19.125 0.25 0  19.875 0.25 0  20.625 0.25 0  21.375 0.25 0  22.125 0.25 0  22.875 0.25 0  23.625 0.25 0  24.375 0.25 0  25.125 0.25 0  25.875 0.25 0  26.625 0.25 0  27.375 0.25 0  28.125 0.25 0  28.875 0.25 0  29.625 0.25 0  30.375 0.25 0  31.125 0.25 0  31.875 0.25 0  32.625 0.25 0  33.375 0.25 0  34.125 0.25 0  34.875 0.25 0  35.625 0.25 0  36.375 0.25 0  37.125 0.25 0  37.875 0.25 0  38.625 0.25 0  39.375 0.25 0  40.125 0.25 0  40.875 0.25 0  41.625 0.25 0  42.375 0.25 0  43.125 0.25 0  43.875 0.25 0  44.625 0.25 0  45.375 0.25 0  46.125 0.25 0  46.875 0.25 0  47.625 0.25 0  48.375 0.25 0  49.125 0.25 0  49.875 0.25 0  50.625 0.25 0  51.375 0.25 0  52.125 0.25 0  52.875 0.25 0  53.625 0.25 0  54.375 0.25 0  55.125 0.25 0  55.875 0.25 0  56.625 0.25 0  57.375 0.25 0  58.125 0.25 0  58.875 0.25 0  59.625 0.25 0  0.375 0.75 0  1.125 0.75 0  1.875 0.75 0  2.625 0.75 0  3.375 0.75 0  4.125 0.75 0  4.875 0.75 0  5.625 0.75 0  6.375 0.75 0  7.125 0.75 0  7.875 0.75 0  8.625 0.75 0  9.375 0.75 0  10.125 0.75 0  10.875 0.75 0  11.625 0.75 0  12.375 0.75 0  13.125 0.75 0  13.875 0.75 0  14.625 0.75 0  15.375 0.75 0  16.125 0.75 0  16.875 0.75 0  17.625 0.75 0  18.375 0.75 0  19.125 0.75 0  19.875 0.75 0  20.625 0.75 0  21.375 0.75 0  22.125 0.75 0  22.875 0.75 0  23.625 0.75 0  24.375 0.75 0  25.125 0.75 0  25.875 0.75 0  26.625 0.75 0  27.375 0.75 0  28.125 0.75 0  28.875 0.75 0  29.625 0.75 0  30.375 0.75 0  31.125 0.75 0  31.875 0.75 0  32.625 0.75 0  33.375 0.75 0  34.125 0.75 0  34.875 0.75 0  35.625 0.75 0  36.375 0.75 0  37.125 0.75 0  37.875 0.75 0  38.625 0.75 0  39.375 0.75 0  40.125 0.75 0  40
[...]
<PointData  Scalars="f_8-1"> 
<DataArray  type="Float64"  Name="f_8-1"  format="ascii">7.3544819270358557e+03  -6.0694119019443489e+04  2.3321123511863032e+04  -4.7256302458800463e+04  -3.9682983941222665e+04  -1.2235889880767507e+05  -1.0551127285531833e+05  8.4188411914617216e+04  6.9944987180687633e+04  8.6361564903961233e+04  -5.6379361194814135e+02  5.1583504929620394e+03  9.3899884376941249e+04  5.9583498747396268e+04  9.4965291967583398e+04  1.0245982564560662e+05  -1.5540517957021965e+05  -2.5353435718131726e+05  -1.2568120231026859e+05  -3.4853801584971329e+05  -2.7764050589866017e+05  -2.1595051591216747e+05  -2.7915433508087578e+05  -1.8949483843994504e+05  -1.4347762340006069e+05  9.9842400116255798e+04  5.0771056276194045e+04  -1.5796942804080475e+05  -1.3810089693657186e+04  -1.3557536345385195e+05  1.1741860826377822e+04  4.9598120644148767e+04  3.2745129689453643e+04  -7.7759771739647840e+04  -4.4180343299884997e+04  5.0518031736627381e+04  -9.9187990827814254e+04  -3.0182762062753602e+04  9.6793356749446975e+04  3.6368474158957673e+04  -9.2223766196773620e+04  1.6005570740810508e+05  1.3127686267923046e+05  3.4380521867082993e+04  5.0046493406549111e+04  -6.5141031889614038e+04  9.5875239307348529e+04  9.4767576432661124e+04  3.4913723270642993e+04  -2.2808002296912978e+03  2.5210476156215806e+05  9.1019681991164798e+03  1.4519014749252834e+05  2.0705908534209424e+05  3.0280386456339539e+05  -2.3596681779418598e+05  -1.1841344289566125e+05  5.1797470575488733e+04  7.3799757297332995e+04  3.4065892400929231e+04  -1.2980241166746063e+05  -2.0854135326312770e+05  -7.3193762648611118e+03  2.1324187528958087e+05  -3.6199421794485446e+05  7.4394495741889681e+04  2.1623834353332008e+04  -7.9592119078118034e+04  7.7455845228954335e+04  -1.7987817187381865e+04  6.7874779911664009e+04  -1.5721316775725750e+05  1.4912750572347947e+05  4.3876023075563811e+04  7.1188498478730122e+04  3.0184894009282063e+04  4.3921588802386592e+04  3.5780484279950128e+04  -5.8125962736298330e+04  3.7923948094897942e+03  3.7346653312597678e+04  -9.5252184756274510e+03  -3.1551903263656583e+04  1.4146669247482755e+03  -7.1097904382486604e+03  -4.2811989157203061e+04  -6.8432505003609467e+03  -5.4243541323973215e+04  -6.5463402796983901e+03  -6.9896131092376832e+04  -6.3059165199094437e+04  1.7055242196659045e+04  -5.1074480653642553e+04  3.9928948074642751e+04  -1.1153708314177066e+05  -1.0894392283935669e+04  -1.2727209728016469e+05  -1.6604027729450027e+05  -1.5214530528454535e+05  -2.7535002533044224e+05  -2.5823401514632578e+05  -4.1694569349002774e+05  -2.6163434503094543e+05  -2.7297682833009149e+05  -1.9234741179854155e+05  -8.1989979705068705e+04  -7.0922847800248157e+04  1.0551461076649843e+05  -1.0292414178524974e+05  -1.4159241571548415e+05  -5.8806802147724193e+04  1.2314848338827440e+04  3.1087673698889052e+04  8.7362481342481315e+03  -1.9708078716489523e+04  1.7030455829597329e+03  -2.2664955999439422e+04  -1.3593365007577875e+03  -3.3235437238208702e+04  7.8043984719629501e+04  1.3050100982201322e+05  1.7612316806623394e+03  4.1321139477022574e+04  4.6569728495486415e+04  3.8137949176974776e+04  2.8076562502818146e+04  1.4676587913956380e+05  7.3199347646457070e+04  4.7636966482303724e+04  4.7272694359325898e+04  -5.1708212328775371e+03  4.0996682077245852e+04  2.3693975828432370e+05  8.6310793251495110e+04  1.5075112515218259e+05  2.1167833311146119e+05  -1.3940023454608713e+05  -2.1915836218489290e+05  -1.2395465049307840e+05  -6.9209764518757162e+04  7.6682473777586383e+03  -8.1425241651404052e+04  -9.0910970336843806e+04  -3.3350308032925219e+04  1.3430609244247392e+05  -1.5294002262047445e+05  1.5797795985499257e+05  -2.4127513443186090e+04  -2.5125603706063925e+04  -7.5706849994961376e+04  1.4057262490713884e+05  -6.3644865109999366e+04  -1.2828512663222363e+05  -1.9841691711293542e+05  6.9625233294656005e+04  -4.8451897552907016e+04  6.2176011665973980e+04  3.2505818903436244e+04  2.3280462388918986e+04  1.2530511591210847e+04  2.4619308991898000e+04  -1.1030012974056957e+04  6.1954890157260270e+03  -5.3448456640320772e+04  3.2316579169288962e+04  -6.4324071743889370e+04  -1.2844074742191544e+04  -1.1896484101250717e+05  -4.0407818757075933e+04  -1.4312990064029928e+05  4.3751681078725851e+03  -3.7156567441441621e+04  4.8013070272877143e+04  -7.4974633862060844e+04  -2.3228475772015366e+05  -1.1625218930679843e+05  3.4362709614119944e+04  2.5100495298176476e+04  -1.9452815855127864e+05  -2.4092613876670403e+04  -1.1993743648498031e+05  -1.5097804222483747e+05  -2.7476753484694281e+05  -2.7969359199195448e+05  -2.5269073809462780e+05  -1.9939858930245679e+05  -9.1942038001329944e+04  -1.1037321931511999e+05  -2.8937667805494923e+04  2.2330652895905139e+04  -1.3465482520865928e+05  -6.7640886271231240e+04  -9.1407228539283184e+04  -7.5181211741218474e+04  1.5422217909389776e+04  2.1621689082400932e+05  1.1553144712197753e+05  -8.6290907433770975e+04  5.6114156094833806e+03  1.8766288069096587e+04  8.1975521167985484e+04  6.8417443963778540e+04  1.9897170570175105e+04  7.7164173252265813e+04  4.4469374291345761e+04  1.1963534695876260e+05  3.1023674176549848e+04  1.3593874768341229e+04  9.8979974072238474e+04  8.6128064533718090e+04  -2.1896113447836102e+04  2.2512667386536978e+04  4.3076150711676579e+04  1.1052937028187842e+05  1.8664343612467439e+05  1.9339852301902772e+05  3.8571184668682399e+04  2.8931390969086537e+04  -7.0049106218573390e+04  -1.3002271767547524e+05  1.4678794808412458e+04  -2.4124602816737359e+04  -2.2595571812116716e+04  -5.6327094588645254e+04  2.3424931934639193e+04  9.1809918339650889e+04  7.5600170792001692e+04  -3.8154047918157681e+04  1.7258569161937636e+05  -6.3082793122265510e+04  -1.3329578031985080e+05  -2.6583930855127379e+04  4.7931813247864229e+04  -9.3904094852691327e+04  -8.8539678449137893e+04  -3.0919983325740333e+04  7.1089244644977516e+04  6.1439434354626334e+04  4.1617377589383614e+04  4.4150344939965726e+04  6.5066606946135078e+04  -6.6787243829339495e+04  -3.6223492147884207e+02  2.7183521107838271e+04  1.1681640445984489e+04  -2.8752229128663617e+04  -9.3294124491169932e+04  -1.1829637367158683e+05  4.2198577115101107e+04  -1.6323523427520951e+05  -7.7463038819999318e+04  -5.1660833709838233e+04  -2.6563993026838376e+04  -1.8106208800694269e+04  -1.9223208442892725e+05  -1.8903209627903276e+05  -2.1346679161627351e+04  1.3057665765226078e+05  2.0058299717921810e+05  -1.3859865918875046e+05  2.7458055448795023e+05  -1.9778427734450393e+05  -6.6993392188570258e+04  -1.2707505845789408e+05  -2.1403372389306230e+05  -3.0277432738691662e+05  -1.1922892280987116e+05  -1.1147743502339091e+05  -1.8923880757677180e+05  -6.0670866885951829e+04  -7.4492587211246093e+04  -1.5598955543338746e+05  -1.3752098950626800e+05  -8.5672636106632635e+04  -3.5207452843789775e+04  4.9839808182846333e+04  1.1038349721704875e+04  2.8495729982355454e+02  -3.2896527155437579e+04  -5.7082699870241311e+04  4.3593056782597805e+03  3.5961653900721620e+04  -2.6714199415536299e+04  -5.7614433184793845e+04  2.6015828950066832e+04  1.2048682430480080e+03  5.1262464654808267e+04  6.7191014944954542e+04  -1.6406505274208084e+04  7.6975930399142409e+04  6.7319498133283254e+04  3.5790836675578881e+04  5.5887065221070821e+04  1.5168622547922161e+04  1.9587587220693589e+05  -6.4438304975531055e+03  3.1532668148088316e+04  1.1514947183332819e+05  3.3840533884131537e+03  -8.8846817341922768e+04  -1.2160126632380247e+05  -6.9812170623388329e+03  -3.9687265733707281e+04  -1.5900639173090080e+05  -2.4197539923122545e+03  2.2685432707428995e+03  9.8577598231306081e+04  6.7869026462821843e+04  1.1739821473424467e+04  -1.2172546327229438e+05  -7.9347510897023894e+04  9.8919026741257941e+04  3.7282501689020071e+04  -2.5557188931650588e+04  -1.0644138907779186e+05  -5.9299915855895517e+04  -3.6349977539385247e+04  -4.7443105831795845e+04  3.9015786846444564e+04  1.2774791095985389e+05  5.9839540031211094e+04  -9.5489312031816953e+03  4.0325776757892185e+04  -7.9569057707218690e+03  -5.4568121566232905e+04  6.2348763342251877e+04  -2.6865755838186516e+04  -2.2899975672244141e+05  4.6400699823474592e+04  -1.3362072813490748e+04  8.6809938213014349e+04  -2.5911781319714857e+04  5.8826302300220514e+03  -1.8090634936165478e+05  -1.7730581174234868e+05  -1.8353135299079496e+05  -1.2840341478743480e+05  2.2227613061797732e+04  -1.3988029910561515e+05  -2.0864768749733856e+04  -2.7162608046441496e+05  2.8144126450996567e+05  1.7986780201543856e+05  5.5285175814545604e+04  -1.0302791756414862e+05  -1.2467969685926079e+05  2.5417989577114353e+04  -3.4586643297963659e+05  -1.4429878280636983e+05  -7.3122830260886607e+04  -1.3608155112657879e+05  -6.9389874903603239e+04  -3.5478126795965603e+04  -6.5122336259528878e+04  -6.9208629479170035e+04  -1.1394139715194574e+05  -9.0354403859286263e+04  5.7396364309389064e+04  3.3419740272095107e+04  1.5063441129334462e+04  5.1497386596469723e+03  2.9797365602852487e+03  -1.2822477321695199e+05  -1.9000480666328571e+04  7.2643585155620473e+04  -1.0380592466778771e+05  1.0836231938034191e+05  3.2910072644036205e+04  6.3347149027433348e+04  7.1163050976218410e+03  1.5660890478882236e+04  -5.0781458282465079e+04  5.7817561487835801e+03  3.6164379451565990e+04  1.7667709423981731e+04  2.2300084511591131e+03  2.2663182154353149e+05  6.0071595097579877e+04  9.6322861332836779e+04  8.9182606632152427e+04  -8.6971971004666921e+04  -3.1673170965177764e+04  -8.6284601491997848e+04  1.2417785909989123e+05  -4.2513027929290052e+04  1.0144926399464258e+03  1.4167795996712335e+04  3.7829450537592274e+04  -2.9623338998518368e+04  1.0674709758170860e+05  -1.7988122293288758e+04  -4.3208080434326053e+04  -8.7310778357662639e+03  -1.1132485202603826e+04  -7.7261679361263712e+04  -7.2757397700828282e+04  -5.8600988122599891e+04  -4.1373456203898138e+04  2.0295039435656424e+03  3.0179375288925105e+04  1.0304774665888338e+05  5.6858239314115424e+04  -1.7782600999965753e+03  4.7592521938009988e+04  -1.0492519271818539e+04  -4.8332637028374345e+04  2.4251144369899994e+04  -1.3878684988014711e+05  -1.1038975423347503e+05  -1.3650305954806805e+04  -5.3606348403822347e+04  1.4200783370209465e+05  -6.6339346907275205e+04  8.1072246942083757e+03  -1.8005586370988502e+05  -1.9817060992462063e+05  -1.4325401606913994e+05  -2.0809401766503355e+05  -9.3228061113325544e+04  -8.7406907290063144e+04  -3.5301939154070118e+04  1.4086098914864878e+05  -3.7095165979205100e+04  4.6369346824007160e+04  -1.4260217680371652e+05  9.7211570051599210e+03  -1.5319567459211824e+05  4.2445403489800119e+04  -1.3203620779041445e+05  -3.2300372559805051e+05  -3.7949384416798457e+04  -6.0913370636255831e+03  1.7076548587106514e+04  -3.0667752875764305e+04  -4.4624470011821249e+04  -1.8415691533458677e+04  -9.0989902018501714e+04  -1.0809317700359301e+05  4.5098889794030460e+04  -6.5929751197111604e+04  -9.9453688408895105e+03  -8.0832272113112194e+04  -1.6467477251645520e+04  2.3790728637071614e+04  -8.1976479770933497e+02  -6.7830002720035831e+04  2.7200088731107822e+04  2.9907629368451744e+04  -1.3340625701307238e+05  -1.0624710945994004e+05  -9.2065459243806778e+04  9.8680655243296889e+04  3.3005409186144079e+03  -5.1911393383300885e+04  -5.8892452200743421e+04  -3.7531024118944435e+04  2.6115538815802429e+04  4.9269710293127728e+03  1.0191075672724469e+05  4.6302785146031063e+04  8.9400615305172862e+04  5.3035993827151950e+04  -2.6014948935069215e+03  -5.0589106903681895e+04  -4.7051103330348684e+04  3.8640515005056666e+04  3.2636977349320514e+03  -1.7563869554489900e+03  1.1458208902080174e+04  3.4456735592275727e+04  7.4870195181293995e+04  -2.2078431382862687e+04  -1.3133020490685034e+04  3.1904998763139633e+04  8.2713060006914064e+04  6.1790872818073267e+03  8.3558168603436876e+04  -9.2227165589940807e+04  -3.1570524225219542e+03  3.4059518177650993e+04  3.3334431720879562e+04  5.4099070900063678e+04  -3.2757016294664943e+04  -1.4403330220122674e+04  5.7814689404450713e+04  6.2327831135597265e+01  -2.0867175397129689e+04  1.7845770665335462e+04  -8.3078727727905629e+04  1.8842632722361355e+04  -1.4352489491386196e+05  -9.9450502913682736e+04  2.2317733081659138e+04  1.2052473360527419e+05  -4.1380563275718734e+04  -1.0019326806831149e+05  -2.1861269160491737e+05  -1.7687767646273311e+04  3.3827352833093501e+04  -1.0946304132950179e+05  -1.3445921597975172e+05  -2.2318083662695306e+04  -4.8611889572871049e+04  2.2743676324778321e+05  -5.8688462887043555e+04  -2.7374562551458850e+04  -4.1950576520658316e+04  -3.2187289736475541e+04  -2.1773328832820029e+05  -9.0810501040665418e+04  -2.2848995110946792e+05  -2.0916047968383160e+05  -5.2121047507522846e+04  1.1251931574446453e+04  -1.5586289658010346e+04  -6.6664379341404769e+04  8.6717896236477129e+04  -8.6075274515172030e+04  -4.1400643330775616e+04  -7.0658637110851079e+04  -2.1764878145308852e+04  -2.7114167894898501e+03  -1.1399117064924815e+05  -4.2769994731753344e+04  -1.4877841968055818e+04  -4.0178471925276804e+03  4.9350657279572326e+04  4.7368723341344943e+04  4.9552064229259777e+04  -7.7519750833044411e+04  5.7715802009618437e+03  -5.7806907698976182e+04  3.5127479252805490e+04  3.1749524909657280e+03  -4.3962408541403829e+03  -4.6978700181995649e+04  -1.0867926078031614e+05  -8.5553295169999023e+04  2.5457172036786324e+04  5.1367911072439092e+03  7.4222710026066547e+04  2.8757137567859631e+04  1.0093748560413798e+05  2.9516931829681402e+04  3.0087668874960884e+04  -4.3610761047273823e+04  -2.1235370227503026e+04  2.9502196011355600e+03  -2.3397065024800700e+04  2.2707435352071287e+04  6.0451756672732998e+04  5.0512361260666388e+04  2.5482443155074190e+04  4.1759371397643576e+04  -3.5654853020373754e+04  2.7459248941802201e+02  1.4033690109499135e+04  -5.4984829376546295e+04  7.8172749672563426e+04  -9.1452976965677663e+04  3.8153014226422383e+04  2.9779587203958690e+04  3.5318205574507891e+04  2.8433057915186437e+04  6.3651884267784735e+04  3.6993194888236030e+04  5.3947817009970357e+04  3.3146267558453372e+04  3.4973969033243899e+04  2.6928004017813895e+04  -1.7348319535178173e+05  1.3277282606040523e+05  4.0778456851066614e+04  -1.8105346419594262e+04  1.4243690649265091e+04  -2.8491665440519978e+03  5.9307837378855926e+04  -2.5241540877464216e+05  -2.0395626603345305e+05  -2.1124003975899180e+05  -5.4839784401157500e+04  -9.8887365034044429e+04  -1.2172951119097743e+05  1.1297495810052103e+05  -9.3867155009895971e+04  2.7754726623296217e+04  -1.0451311568986495e+05  -2.8287741515295209e+04  -5.1382949174796042e+04  1.3179976471782257e+05  -2.2427599384442813e+05  -1.6627682097824872e+05  -2.0210743298080321e+04  -7.8082280041056511e+04  3.5299443584720815e+04  -8.3811428945258631e+03  -2.0702616343427973e+04  -4.0081132038096228e+04  8.0343084091289566e+03  -5.3604670955731701e+04  3.0954750883907760e+04  7.1355541420210691e+04  -7.1218519802875860e+04  -4.9395373149425672e+04  -4.1731782039444857e+04  -4.5915986479568048e+04  8.5050463036254514e+04  5.6539020095923996e+04  1.3710196772844420e+05  5.4833321448873583e+04  -7.9203921504501413e+04  -8.3865023976318698e+04  1.2086785719308440e+04  8.0952600584076848e+04  -2.6829945271783617e+04  -3.7775373150073567e+04  -1.1616772572029193e+05  -1.0475352800038962e+05  2.6207539085093809e+04  -1.0623470627424768e+05  6.0978230357757375e+03  3.8391018251538662e+04  5.0917930264756375e+04  2.1713150899912223e+04  3.3816706896266433e+03  -5.3529862296648920e+04  8.1223820474485605e+04  -1.7059127568293409e+03  3.8482538746744501e+02  -2.0224407874005377e+04  -4.1551685391882340e+04  3.5845501037675240e+03  5.7284715190353745e+04  -7.9226447353273843e+03  3.5640026034835522e+04  1.2364430301305127e+04  8.6100178029123563e+03  1.2172656131125386e+04  1.5751963098084076e+04  5.6859893261066529e+04  5.2448887886206052e+04  6.6970996779922580e+03  5.4171945945617153e+03  3.9588356062703439e+04  -7.1445661643117865e+03  5.1600726594714048e+04  -2.4999394018366249e+04  1.5213588768095442e+04  -1.0543386621262893e+04  4.8925233565373383e+04  -7.2152665865039278e+04  3.3846412003089819e+04  -1.7594142560370285e+04  1.9184920213395395e+04  -4.6560291524738150e+03  1.2556795332058911e+04  -2.5373128341313491e+03  5.7445668740847041e+03  8.0698377735952701e+04  -5.8574747933013568e+04  -1.2829510563096298e+05  5.8355163369366880e+02  -7.9633125167378515e+04  5.6362195614886470e+04  -8.4943751228656009e+04  -9.9345489350451695e+04  1.5982086973475691e+04  5.9598467932256735e+03  -1.1646514023073596e+04  2.7228057689574680e+03  2.0812697818749282e+04  1.3151105499408042e+04  -1.3329303530194167e+04  -2.8058959241475361e+04  -1.5952150390376177e+04  1.1716786918274611e+04  2.8016834028540317e+04  3.0408506397707902e+03  -1.3462448807092454e+04  3.6723393412823266e+03  -4.0668059691278810e+04  1.7179081742550181e+04  -6.5351985815049113e+04  7.9781177076068401e+04  -5.5424427722241817e+04  -3.0110459285644065e+03  1.6403454945070521e+03  -6.9345300712485914e+03  1.9389558444906750e+04  -1.8814213533074439e+04  3.9062198538399316e+04  1.7259264507152209e+03  -9.2410094923126726e+03  -3.5906268176748097e+04  5.4773462289913805e+03  5.9108067698951672e+03  9.5643716700446475e+03  -7.7863366792127381e+03  -5.0237520656990040e+04  5.3383727044043037e+04  3.9588588832687651e+03  -2.9941663686014574e+04  2.7517648530498940e+04  -1.5870969315410859e+04  -3.6680651671873584e+03  5.1565010535331152e+04  3.8705260948515184e+04  -1.0841046932431082e+05  2.9125576726463110e+04  -1.3094251693092774e+04  -3.0214624016699836e+03  1.3419607306058400e+04  5.3960211750858274e+04  -2.2897121474333519e+04  1.3001507719632322e+04  1.2201772568995601e+04  -5.1670632640005169e+03  3.6090229857068756e+04  -3.8119503590777487e+04  2.5166995360100311e+04  -2.4437582492789250e+04  -1.4129376973711600e+04  -3.3247560287095876e+04  4.2269938141823714e+03  1.1975911801242858e+03  -7.6788659550145394e+03  1.9705539278842309e+03  7.1660453474609953e+04  -3.4070455201325065e+04  -1.3331905090242617e+04  -2.9146023485306803e+04  1.8630926569282976e+04  -6.7403552505475498e+04  -7.2129436341295805e+04  -8.5549577881542398e+04  -1.3731611460780000e+05  1.4649687439227785e+05  -9.0089567710524989e+03  -3.9990601333826926e+04  -4.6272636717236412e+04  -1.4360706506591920e+04  1.3009264957029716e+05  -1.0152905150493687e+05  -6.0873438498912052e+04  -5.6237808887269042e+04  -8.4461869504880422e+04  -1.6467049298323761e+05  -2.5369163109950701e+05  -3.1812360984306800e+05  -3.1744583780836093e+05  -2.2756428554944211e+05  -1.8224181521336784e+05  -1.3168228059293280e+05  -2.2745407605256181e+05  2.1313825964943706e+04  -6.5903086661926456e+04  -4.5649765018694437e+04  -8.9252494125016558e+04  -1.9901446700103959e+04  4.0767815707682901e+04  6.1871397381253701e+04  -8.0264518460349182e+03  -4.3027735328980751e+04  -9.4320818841567860e+04  -1.1906107577890063e+05  -4.9578479912347939e+04  3.4548653243258018e+03  1.2596359439183488e+05  1.4280320661955539e+04  1.9869210114771093e+05  1.6534503791832784e+05  4.1841399315310286e+04  2.2709124911366700e+04  -3.6868817911017877e+03  5.7789099482204540e+04  1.1379960221311006e+05  5.6823629123013881e+04  4.0169618914259729e+04  1.2309060949265231e+05  1.6794122033001709e+05  4.7620212492948078e+04  1.5536828250066907e+05  2.2282951959512866e+05  -4.5966812182419795e+04  -1.0817889321722827e+05  -1.4964623774353138e+05  8.9283526428215511e+04  1.2594360747967772e+05  5.1563381655565470e+04  -1.0350492129741746e+05  -5.7312033628211655e+04  -6.4525009140305929e+03  9.9509428849155127e+04  -2.1519805520670761e+04  6.7934094115508808e+04  1.7980278690291743e+04  2.5463005002068101e+04  1.8244971974739979e+04  4.4869210630272231e+04  -6.6833664196351107e+04  -1.8657098736816237e+05  9.7529719503182903e+04  8.0885428225538242e+04  2.5108220434342129e+04  6.3189250147412698e+04  1.7848520206652574e+04  -2.3308910334949651e+04  -3.1381662953606847e+04  -6.4764047358723037e+03  8.8632104270560503e+03  1.4710720734491613e+04  -4.1143929463753366e+03