<?xml version="1.0"?>
<VTKFile type="UnstructuredGrid"  version="0.1"  >
<UnstructuredGrid>
<Piece  NumberOfPoints="1369" NumberOfCells="2560">
<Points>
<DataArray  type="Float64"  NumberOfComponents="3"  format="ascii">0 0 0  0.75 0 0  1.5 0 0  2.25 0 0  3 0 0  3.75 0 0  4.5 0 0  5.25 0 0  6 0 0  6.75 0 0  7.5 0 0  8.25 0 0  9 0 0  9.75 0 0  10.5 0 0  11.25 0 0  12 0 0  12.75 0 0  13.5 0 0  14.25 0 0  15 0 0  15.75 0 0  16.5 0 0  17.25 0 0  18 0 0  18.75 0 0  19.5 0 0  20.25 0 0  21 0 0  21.75 0 0  22.5 0 0  23.25 0 0  24 0 0  24.75 0 0  25.5 0 0  26.25 0 0  27 0 0  27.75 0 0  28.5 0 0  29.25 0 0  30 0 0  30.75 0 0  31.5 0 0  32.25 0 0  33 0 0  33.75 0 0  34.5 0 0  35.25 0 0  36 0 0  36.75 0 0  37.5 0 0  38.25 0 0  39 0 0  39.75 0 0  40.5 0 0  41.25 0 0  42 0 0  42.75 0 0  43.5 0 0  44.25 0 0  45 0 0  45.75 0 0  46.5 0 0  47.25 0 0  48 0 0  48.75 0 0  49.5 0 0  50.25 0 0  51 0 0  51.75 0 0  52.5 0 0  53.25 0 0  54 0 0  54.75 0 0  55.5 0 0  56.25 0 0  57 0 0  57.75 0 0  58.5 0 0  59.25 0 0  60 0 0  0 0.5 0  0.75 0.5 0  1.5 0.5 0  2.25 0.5 0  3 0.5 0  3.75 0.5 0  4.5 0.5 0  5.25 0.5 0  6 0.5 0  6.75 0.5 0  7.5 0.5 0  8.25 0.5 0  9 0.5 0  9.75 0.5 0  10.5 0.5 0  11.25 0.5 0  12 0.5 0  12.75 0.5 0  13.5 0.5 0  14.25 0.5 0  15 0.5 0  15.75 0.5 0  16.5 0.5 0  17.25 0.5 0  18 0.5 0  18.75 0.5 0  19.5 0.5 0  20.25 0.5 0  21 0.5 0  21.75 0.5 0  22.5 0.5 0  23.25 0.5 0  24 0.5 0  24.75 0.5 0  25.5 0.5 0  26.25 0.5 0  27 0.5 0  27.75 0.5 0  28.5 0.5 0  29.25 0.5 0  30 0.5 0  30.75 0.5 0  31.5 0.5 0  32.25 0.5 0  33 0.5 0  33.75 0.5 0  34.5 0.5 0  35.25 0.5 0  36 0.5 0  36.75 0.5 0  37.5 0.5 0  38.25 0.5 0  39 0.5 0  39.75 0.5 0  40.5 0.5 0  41.25 0.5 0  42 0.5 0  42.75 0.5 0  43.5 0.5 0  44.25 0.5 0  45 0.5 0  45.75 0.5 0  46.5 0.5 0  47.25 0.5 0  48 0.5 0  48.75 0.5 0  49.5 0.5 0  50.25 0.5 0  51 0.5 0  51.75 0.5 0  52.5 0.5 0  53.25 0.5 0  54 0.5 0  54.75 0.5 0  55.5 0.5 0  56.25 0.5 0  57 0.5 0  57.75 0.5 0  58.5 0.5 0  59.25 0.5 0  60 0.5 0  0 1 0  0.75 1 0  1.5 1 0  2.25 1 0  3 1 0  3.75 1 0  4.5 1 0  5.25 1 0  6 1 0  6.75 1 0  7.5 1 0  8.25 1 0  9 1 0  9.75 1 0  10.5 1 0  11.25 1 0  12 1 0  12.75 1 0  13.5 1 0  14.25 1 0  15 1 0  15.75 1 0  16.5 1 0  17.25 1 0  18 1 0  18.75 1 0  19.5 1 0  20.25 1 0  21 1 0  21.75 1 0  22.5 1 0  23.25 1 0  24 1 0  24.75 1 0  25.5 1 0  26.25 1 0  27 1 0  27.75 1 0  28.5 1 0  29.25 1 0  30 1 0  30.75 1 0  31.5 1 0  32.25 1 0  33 1 0  33.75 1 0  34.5 1 0  35.25 1 0  36 1 0  36.75 1 0  37.5 1 0  38.25 1 0  39 1 0  39.75 1 0  40.5 1 0  41.25 1 0  42 1 0  42.75 1 0  43.5 1 0  44.25 1 0  45 1 0  45.75 1 0  46.5 1 0  47.25 1 0  48 1 0  48.75 1 0  49.5 1 0  50.25 1 0  51 1 0  51.75 1 0  52.5 1 0  53.25 1 0  54 1 0  54.75 1 0  55.5 1 0  56.25 1 0  57 1 0  57.75 1 0  58.5 1 0  59.25 1 0  60 1 0  0 1.5 0  0.75 1.5 0  1.5 1.5 0  2.25 1.5 0  3 1.5 0  3.75 1.5 0  4.5 1.5 0  5.25 1.5 0  6 1.5 0  6.75 1.5 0  7.5 1.5 0  8.25 1.5 0  9 1.5 0  9.75 1.5 0  10.5 1.5 0  11.25 1.5 0  12 1.5 0  12.75 1.5 0  13.5 1.5 0  14.25 1.5 0  15 1.5 0  15.75 1.5 0  16.5 1.5 0  17.25 1.5 0  18 1.5 0  18.75 1.5 0  19.5 1.5 0  20.25 1.5 0  21 1.5 0  21.75 1.5 0  22.5 1.5 0  23.25 1.5 0  24 1.5 0  24.75 1.5 0  25.5 1.5 0  26.25 1.5 0  27 1.5 0  27.75 1.5 0  28.5 1.5 0  29.25 1.5 0  30 1.5 0  30.75 1.5 0  31.5 1.5 0  32.25 1.5 0  33 1.5 0  33.75 1.5 0  34.5 1.5 0  35.25 1.5 0  36 1.5 0  36.75 1.5 0  37.5 1.5 0  38.25 1.5 0  39 1.5 0  39.75 1.5 0  40.5 1.5 0  41.25 1.5 0  42 1.5 0  42.75 1.5 0  43.5 1.5 0  44.25 1.5 0  45 1.5 0  45.75 1.5 0  46.5 1.5 0  47.25 1.5 0  48 1.5 0  48.75 1.5 0  49.5 1.5 0  50.25 1.5 0  51 1.5 0  51.75 1.5 0  52.5 1.5 0  53.25 1.5 0  54 1.5 0  54.75 1.5 0  55.5 1.5 0  56.25 1.5 0  57 1.5 0  57.75 1.5 0  58.5 1.5 0  59.25 1.5 0  60 1.5 0  0 2 0  0.75 2 0  1.5 2 0  2.25 2 0  3 2 0  3.75 2 0  4.5 2 0  5.25 2 0  6 2 0  6.75 2 0  7.5 2 0  8.25 2 0  9 2 0  9.75 2 0  10.5 2 0  11.25 2 0  12 2 0  12.75 2 0  13.5 2 0  14.25 2 0  15 2 0  15.75 2 0  16.5 2 0  17.25 2 0  18 2 0  18.75 2 0  19.5 2 0  20.25 2 0  21 2 0  21.75 2 0  22.5 2 0  23.25 2 0  24 2 0  24.75 2 0  25.5 2 0  26.25 2 0  27 2 0  27.75 2 0  28.5 2 0  29.25 2 0  30 2 0  30.75 2 0  31.5 2 0  32.25 2 0  33 2 0  33.75 2 0  34.5 2 0  35.25 2 0  36 2 0  36.75 2 0  37.5 2 0  38.25 2 0  39 2 0  39.75 2 0  40.5 2 0  41.25 2 0  42 2 0  42.75 2 0  43.5 2 0  44.25 2 0  45 2 0  45.75 2 0  46.5 2 0  47.25 2 0  48 2 0  48.75 2 0  49.5 2 0  50.25 2 0  51 2 0  51.75 2 0  52.5 2 0  53.25 2 0  54 2 0  54.75 2 0  55.5 2 0  56.25 2 0  57 2 0  57.75 2 0  58.5 2 0  59.25 2 0  60 2 0  0 2.5 0  0.75 2.5 0  1.5 2.5 0  2.25 2.5 0  3 2.5 0  3.75 2.5 0  4.5 2.5 0  5.25 2.5 0  6 2.5 0  6.75 2.5 0  7.5 2.5 0  8.25 2.5 0  9 2.5 0  9.75 2.5 0  10.5 2.5 0  11.25 2.5 0  12 2.5 0  12.75 2.5 0  13.5 2.5 0  14.25 2.5 0  15 2.5 0  15.75 2.5 0  16.5 2.5 0  17.25 2.5 0  18 2.5 0  18.75 2.5 0  19.5 2.5 0  20.25 2.5 0  21 2.5 0  21.75 2.5 0  22.5 2.5 0  23.25 2.5 0  24 2.5 0  24.75 2.5 0  25.5 2.5 0  26.25 2.5 0  27 2.5 0  27.75 2.5 0  28.5 2.5 0  29.25 2.5 0  30 2.5 0  30.75 2.5 0  31.5 2.5 0  32.25 2.5 0  33 2.5 0  33.75 2.5 0  34.5 2.5 0  35.25 2.5 0  36 2.5 0  36.75 2.5 0  37.5 2.5 0  38.25 2.5 0  39 2.5 0  39.75 2.5 0  40.5 2.5 0  41.25 2.5 0  42 2.5 0  42.75 2.5 0  43.5 2.5 0  44.25 2.5 0  45 2.5 0  45.75 2.5 0  46.5 2.5 0  47.25 2.5 0  48 2.5 0  48.75 2.5 0  49.5 2.5 0  50.25 2.5 0  51 2.5 0  51.75 2.5 0  52.5 2.5 0  53.25 2.5 0  54 2.5 0  54.75 2.5 0  55.5 2.5 0  56.25 2.5 0  57 2.5 0  57.75 2.5 0  58.5 2.5 0  59.25 2.5 0  60 2.5 0  0 3 0  0.75 3 0  1.5 3 0  2.25 3 0  3 3 0  3.75 3 0  4.5 3 0  5.25 3 0  6 3 0  6.75 3 0  7.5 3 0  8.25 3 0  9 3 0  9.75 3 0  10.5 3 0  11.25 3 0  12 3 0  12.75 3 0  13.5 3 0  14.25 3 0  15 3 0  15.75 3 0  16.5 3 0  17.25 3 0  18 3 0  18.75 3 0  19.5 3 0  20.25 3 0  21 3 0  21.75 3 0  22.5 3 0  23.25 3 0  24 3 0  24.75 3 0  25.5 3 0  26.25 3 0  27 3 0  27.75 3 0  28.5 3 0  29.25 3 0  30 3 0  30.75 3 0  31.5 3 0  32.25 3 0  33 3 0  33.75 3 0  34.5 3 0  35.25 3 0  36 3 0  36.75 3 0  37.5 3 0  38.25 3 0  39 3 0  39.75 3 0  40.5 3 0  41.25 3 0  42 3 0  42.75 3 0  43.5 3 0  44.25 3 0  45 3 0  45.75 3 0  46.5 3 0  47.25 3 0  48 3 0  48.75 3 0  49.5 3 0  50.25 3 0  51 3 0  51.75 3 0  52.5 3 0  53.25 3 0  54 3 0  54.75 3 0  55.5 3 0  56.25 3 0  57 3 0  57.75 3 0  58.5 3 0  59.25 3 0  60 3 0  0 3.5 0  0.75 3.5 0  1.5 3.5 0  2.25 3.5 0  3 3.5 0  3.75 3.5 0  4.5 3.5 0  5.25 3.5 0  6 3.5 0  6.75 3.5 0  7.5 3.5 0  8.25 3.5 0  9 3.5 0  9.75 3.5 0  10.5 3.5 0  11.25 3.5 0  12 3.5 0  12.75 3.5 0  13.5 3.5 0  14.25 3.5 0  15 3.5 0  15.75 3.5 0  16.5 3.5 0  17.25 3.5 0  18 3.5 0  18.75 3.5 0  19.5 3.5 0  20.25 3.5 0  21 3.5 0  21.75 3.5 0  22.5 3.5 0  23.25 3.5 0  24 3.5 0  24.75 3.5 0  25.5 3.5 0  26.25 3.5 0  27 3.5 0  27.75 3.5 0  28.5 3.5 0  29.25 3.5 0  30 3.5 0  30.75 3.5 0  31.5 3.5 0  32.25 3.5 0  33 3.5 0  33.75 3.5 0  34.5 3.5 0  35.25 3.5 0  36 3.5 0  36.75 3.5 0  37.5 3.5 0  38.25 3.5 0  39 3.5 0  39.75 3.5 0  40.5 3.5 0  41.25 3.5 0  42 3.5 0  42.75 3.5 0  43.5 3.5 0  44.25 3.5 0  45 3.5 0  45.75 3.5 0  46.5 3.5 0  47.25 3.5 0  48 3.5 0  48.75 3.5 0  49.5 3.5 0  50.25 3.5 0  51 3.5 0  51.75 3.5 0  52.5 3.5 0  53.25 3.5 0  54 3.5 0  54.75 3.5 0  55.5 3.5 0  56.25 3.5 0  57 3.5 0  57.75 3.5 0  58.5 3.5 0  59.25 3.5 0  60 3.5 0  0 4 0  0.75 4 0  1.5 4 0  2.25 4 0  3 4 0  3.75 4 0  4.5 4 0  5.25 4 0  6 4 0  6.75 4 0  7.5 4 0  8.25 4 0  9 4 0  9.75 4 0  10.5 4 0  11.25 4 0  12 4 0  12.75 4 0  13.5 4 0  14.25 4 0  15 4 0  15.75 4 0  16.5 4 0  17.25 4 0  18 4 0  18.75 4 0  19.5 4 0  20.25 4 0  21 4 0  21.75 4 0  22.5 4 0  23.25 4 0  24 4 0  24.75 4 0  25.5 4 0  26.25 4 0  27 4 0  27.75 4 0  28.5 4 0  29.25 4 0  30 4 0  30.75 4 0  31.5 4 0  32.25 4 0  33 4 0  33.75 4 0  34.5 4 0  35.25 4 0  36 4 0  36.75 4 0  37.5 4 0  38.25 4 0  39 4 0  39.75 4 0  40.5 4 0  41.25 4 0  42 4 0  42.75 4 0  43.5 4 0  44.25 4 0  45 4 0  45.75 4 0  46.5 4 0  47.25 4 0  48 4 0  48.75 4 0  49.5 4 0  50.25 4 0  51 4 0  51.75 4 0  52.5 4 0  53.25 4 0  54 4 0  54.75 4 0  55.5 4 0  56.25 4 0  57 4 0  57.75 4 0  58.5 4 0  59.25 4 0  60 4 0  0.375 0.25 0  1.125 0.25 0  1.875 0.25 0  2.625 0.25 0  3.375 0.25 0  4.125 0.25 0  4.875 0.25 0  5.625 0.25 0  6.375 0.25 0  7.125 0.25 0  7.875 0.25 0  8.625 0.25 0  9.375 0.25 0  10.125 0.25 0  10.875 0.25 0  11.625 0.25 0  12.375 0.25 0  13.125 0.25 0  13.875 0.25 0  14.625 0.25 0  15.375 0.25 0  16.125 0.25 0  16.875 0.25 0  17.625 0.25 0  18.375 0.25 0  19.125 0.25 0  19.875 0.25 0  20.625 0.25 0  21.375 0.25 0  22.125 0.25 0  22.875 0.25 0  23.625 0.25 0  24.375 0.25 0  25.125 0.25 0  25.875 0.25 0  26.625 0.25 0  27.375 0.25 0  28.125 0.25 0  28.875 0.25 0  29.625 0.25 0  30.375 0.25 0  31.125 0.25 0  31.875 0.25 0  32.625 0.25 0  33.375 0.25 0  34.125 0.25 0  34.875 0.25 0  35.625 0.25 0  36.375 0.25 0  37.125 0.25 0  37.875 0.25 0  38.625 0.25 0  39.375 0.25 0  40.125 0.25 0  40.875 0.25 0  41.625 0.25 0  42.375 0.25 0  43.125 0.25 0  43.875 0.25 0  44.625 0.25 0  45.375 0.25 0  46.125 0.25 0  46.875 0.25 0  47.625 0.25 0  48.375 0.25 0  49.125 0.25 0  49.875 0.25 0  50.625 0.25 0  51.375 0.25 0  52.125 0.25 0  52.875 0.25 0  53.625 0.25 0  54.375 0.25 0  55.125 0.25 0  55.875 0.25 0  56.625 0.25 0  57.375 0.25 0  58.125 0.25 0  58.875 0.25 0  59.625 0.25 0  0.375 0.75 0  1.125 0.75 0  1.875 0.75 0  2.625 0.75 0  3.375 0.75 0  4.125 0.75 0  4.875 0.75 0  5.625 0.75 0  6.375 0.75 0  7.125 0.75 0  7.875 0.75 0  8.625 0.75 0  9.375 0.75 0  10.125 0.75 0  10.875 0.75 0  11.625 0.75 0  12.375 0.75 0  13.125 0.75 0  13.875 0.75 0  14.625 0.75 0  15.375 0.75 0  16.125 0.75 0  16.875 0.75 0  17.625 0.75 0  18.375 0.75 0  19.125 0.75 0  19.875 0.75 0  20.625 0.75 0  21.375 0.75 0  22.125 0.75 0  22.875 0.75 0  23.625 0.75 0  24.375 0.75 0  25.125 0.75 0  25.875 0.75 0  26.625 0.75 0  27.375 0.75 0  28.125 0.75 0  28.875 0.75 0  29.625 0.75 0  30.375 0.75 0  31.125 0.75 0  31.875 0.75 0  32.625 0.75 0  33.375 0.75 0  34.125 0.75 0  34.875 0.75 0  35.625 0.75 0  36.375 0.75 0  37.125 0.75 0  37.875 0.75 0  38.625 0.75 0  39.375 0.75 0  40.125 0.75 0  40
[...]
<PointData  Scalars="f_8-1"> 
<DataArray  type="Float64"  Name="f_8-1"  format="ascii">2.2912005347543916e+04  -2.0293219034616704e+04  -1.4524453432045559e+04  -1.8900929335046294e+04  -4.2017308026490697e+04  -6.0225709421482890e+04  -1.5126935776947510e+04  -2.8983165117940229e+04  1.3753823987900046e+03  3.6922760146686698e+04  1.8071876178153881e+04  2.7496177639004150e+03  9.3068733788640584e+03  3.1138760300328115e+04  1.4592990427788462e+04  3.3303514380690132e+04  3.9917498072912778e+04  2.9320736267476535e+04  2.4106526949816915e+04  1.4643643938806790e+04  4.3959633297541543e+04  2.1447986650161198e+04  3.5560002700082732e+04  1.9188791116562652e+03  -1.6271579039863800e+04  -5.2938388492410722e+03  -2.7376939274426568e+03  -2.6008312502055745e+04  -7.1570461127656131e+02  -5.1580421845669844e+03  -1.9421609705106334e+03  -1.5072501433256737e+04  2.4721357959783918e+03  3.2709993424564705e+03  3.8422982962493908e+04  1.0881046245162482e+05  -3.8548179719826105e+04  3.3970231617086152e+04  -6.5458053908431093e+03  -1.3501090685025125e+04  1.6249566793392547e+04  6.5295732420667600e+03  -1.7818652068217067e+04  3.8960009208829189e+02  -2.0352218375710934e+04  -2.1333059061779943e+04  1.0073319179425556e+04  -7.1364797690244786e+03  5.5914072803577046e+03  -1.6786717628554231e+03  1.0034774778390813e+03  -2.6841327641258622e+03  7.4642491454464357e+02  -1.2427207860596975e+03  3.6458446951345036e+02  -6.7535690804265914e+02  9.0411956747599405e+01  -3.9132162119038895e+02  -2.1894977360915771e+01  -2.1427362599760076e+02  -5.0307721279717612e+01  -1.1219681239282424e+02  -4.7217687124254994e+01  -5.7462580300500228e+01  -3.4327241167715890e+01  -3.0067229806552284e+01  -2.1312124778067648e+01  -1.6436981074538547e+01  -1.2190218513945359e+01  -9.1161403490201245e+00  -6.7746360132591477e+00  -5.0256750028345936e+00  -3.7163192785383212e+00  -2.7371220448328581e+00  -2.0030197849699269e+00  -1.4494635578650901e+00  -1.0271709902217363e+00  -6.9820780378684966e-01  -4.3293093102948266e-01  -2.0637385907660818e-01  -5.9488861728444640e-03  -3.9250188307563687e+04  9.6161538737559185e+03  -1.8599522170500775e+04  -7.0925093662207819e+03  -2.2491182886583374e+04  -5.5898530673744744e+03  -3.9220960814546146e+04  -3.8907703190372936e+03  -4.0515127342828600e+04  1.0285829792835470e+03  1.3449037965890173e+02  1.6719575857132022e+04  4.7925980909593482e+03  1.7154521526741675e+04  8.8542716844604583e+03  4.7055772838121797e+04  3.6612190097401472e+04  4.0899227339096011e+04  2.9245330552541182e+04  3.0146068836737984e+04  2.6585669245741425e+04  1.9396360865446251e+04  3.6581090538282297e+04  -2.9278101397088245e+04  -1.3453423271889080e+03  -1.0760326572674350e+04  -1.1442467380258868e+04  -7.3540778550423338e+03  -1.8146755725241150e+04  4.6509383537247786e+03  -9.2746536907175584e+02  2.5187389682502777e+04  -2.5636212517087370e+03  -1.1484259490350930e+03  2.1588753844541963e+04  4.8606431495068260e+04  -3.2505055757256479e+04  3.9268864465187107e+04  -4.7811352834000165e+04  1.4622420591012824e+04  1.5385358337210808e+04  2.2065661354382914e+03  -7.9010941782792552e+03  4.4077866577492259e+03  -3.0412911795933698e+04  -7.2324483271571426e+03  -1.5381615173292976e+04  -3.6275244353605615e+02  -6.9779616141604292e+03  -2.9625166535174230e+02  -2.6146733894608315e+03  3.9960434177821704e+00  -1.5274254876645746e+03  4.0809590862660394e+02  -8.8363362963525958e+02  2.7031422138203476e+02  -6.1453793647870862e+02  1.2304987812013671e+02  -3.8432505967988675e+02  3.0348699808036237e+01  -2.0383881494493684e+02  -2.1914610618734503e+01  -9.3599401505618061e+01  -3.5335594512921304e+01  -4.2581686371041073e+01  -2.6807022440968677e+01  -2.1925832424046643e+01  -1.6031175769424220e+01  -1.2091357833231259e+01  -8.9961462472537814e+00  -6.6927883348773340e+00  -4.9629063628975496e+00  -3.6698197236524699e+00  -2.7026648300474818e+00  -1.9777174139561815e+00  -1.4311062070985912e+00  -1.0141383459396471e+00  -6.8935320247957865e-01  -4.2733399132651900e-01  -2.0464065279319377e-01  1.2714301176299100e-03  1.9199681037221082e+04  1.3347386378467161e+04  2.2627384678039864e+04  -1.9494277470656954e+04  -6.6306823092173090e+03  -1.1363773817870771e+04  -2.1431985253877738e+04  8.4540613502668020e+03  -3.2465829351483233e+04  -1.8401969151142795e+04  8.6186604229349105e+03  4.9793187814562716e+03  5.2103408188461917e+03  -8.4115904627820237e+03  2.8964611442621019e+04  3.7088150986343855e+04  5.8190023802608965e+04  5.8367501644260818e+04  3.5011238952410225e+04  3.4980756592579986e+04  2.2725240121767027e+04  5.6385942062603044e+03  3.6404250638992024e+04  2.1071053075851658e+04  6.6910632715298962e+03  4.4969171999714936e+03  -1.9247809907243220e+04  2.7608642138045925e+03  -2.4317791756187053e+04  3.0849750240335994e+04  8.5671497092722075e+03  1.1626140121865226e+03  1.0144249897680069e+04  -3.9068920171184850e+03  3.9112645280649071e+04  3.6738161267743206e+04  1.1377399287300541e+04  1.4411208386264956e+04  -4.4530594497854863e+03  -1.7819168026866952e+04  4.4483583113297045e+03  1.6918358226453490e+03  -9.5358076120323567e+03  1.2118576777402886e+04  -1.8232680585846898e+04  -4.9837195052918514e+03  -4.8627209397522051e+02  -1.1315946219778923e+04  1.2538567947346867e+03  -6.0996247467940302e+03  1.0089477223018894e+03  -3.6316123326482498e+03  1.4587895670164442e+03  -1.6549858737497602e+03  7.6865386145408354e+02  -9.3192111627935196e+02  3.2332029269866996e+02  -5.4490441106356195e+02  9.9755862471763535e+01  -2.8738098996820054e+02  2.2299942363236394e+00  -1.3576458014120627e+02  -3.0362004369168819e+01  -6.0614199278931245e+01  -3.0198913476555919e+01  -2.8911083431224537e+01  -1.9920380995611922e+01  -1.5441645831800567e+01  -1.1433670975906590e+01  -8.5411779138432067e+00  -6.3446104576423688e+00  -4.7042227984028200e+00  -3.4774949062203211e+00  -2.5605716306546933e+00  -1.8734815217172966e+00  -1.3555503365437274e+00  -9.6053625061558900e-01  -6.5288887999446188e-01  -4.0477061273273746e-01  -1.9354504541344067e-01  1.2186034403835514e-04  5.9322318559570609e+04  1.0202239247994296e+04  -6.2919613878844293e+03  -8.7670015301583339e+02  -9.4402018979876793e+03  -2.4873744174983902e+04  2.4841844927998591e+03  -1.1561833673254019e+04  -5.8599403970709129e+04  1.0535780741719166e+03  1.6239251507851750e+04  4.4215331372147142e+04  2.3984949534338077e+02  -9.3850300850331951e+03  2.7225660003529079e+04  4.6635667759039214e+04  4.6941153341427576e+04  6.8039197901312509e+04  2.8383834078581294e+04  3.2275778620220255e+04  5.2422332653109615e+03  3.5311511219886008e+04  7.6989049107810388e+03  2.2433007746062740e+04  -9.5074581014516225e+03  4.7170544320268571e+04  -3.2535062433485396e+03  -2.5553494632390853e+03  -5.8874417228885904e+03  2.2794040233157689e+03  3.3428234719095353e+03  2.7530022284454575e+04  -2.9903449287061489e+04  3.5799481789624219e+03  -5.1814579857840517e+03  2.6163701237240686e+04  -4.4843682922150052e+04  -2.5780674730727796e+03  1.2343077859456189e+03  -2.7270747361534690e+04  1.6692884111107171e+04  -1.2901490740199722e+04  1.0243214103577146e+04  -6.2794316322398599e+03  -1.0337185414026970e+04  1.6151612584811721e+03  -3.6378874416360424e+02  -4.6908205522215849e+03  -2.7402041517933867e+03  -5.4948329185507919e+03  -7.6902573059529414e+02  -1.8310985718873158e+03  -1.1811857619879852e+03  2.3645956828476002e+02  -4.7512781325621853e+02  1.5851090899806650e+02  -4.6642563534699019e+02  8.0445919756547511e+01  -3.2367424674482533e+02  1.7570171531106219e+01  -1.7836689956907682e+02  -1.9659756200107932e+01  -8.3623431783257828e+01  -2.9659169961117527e+01  -3.7841605204131987e+01  -2.2916137854841207e+01  -1.9059273407286305e+01  -1.3802172205202803e+01  -1.0411882579211154e+01  -7.7317869412782896e+00  -5.7459902028872767e+00  -4.2571970020669179e+00  -3.1459750654941798e+00  -2.3157927135296066e+00  -1.6940415458120586e+00  -1.2255411458247329e+00  -8.6833036639157390e-01  -5.9018662054173021e-01  -3.6588057755620773e-01  -1.7497105771444021e-01  2.5913384846311816e-04  -7.4420721469018186e+04  -3.5013918891649791e+02  1.4068304421986757e+04  -6.7199701783955277e+02  -8.7175052957011794e+03  -1.0668304317316601e+04  -5.4805173066456791e+03  -7.7936129032082832e+01  9.4107200649569113e+03  -8.5391397355890131e+03  -1.4113374089096899e+03  -1.8104209771249163e+04  1.6165693671074743e+04  2.6594641711159999e+04  2.5321793436681161e+04  5.7434305017455074e+04  7.4561299310785456e+04  5.6891141367849246e+04  3.7319017688705120e+04  3.0006344621161294e+04  1.5300040057981918e+04  2.7352233741520347e+04  2.9616997973169982e+04  1.8791955052859889e+03  -1.8896820481626833e+04  -6.3217704540517934e+03  1.6009996154726470e+04  5.2631302448168826e+03  9.9319089182716252e+03  2.4943914142520398e+03  -1.6237706501746923e+04  1.4123955241522088e+04  1.4885492026207325e+04  1.6870694688463842e+04  2.8046347285749118e+04  5.4045533195789603e+03  -8.2828125698634653e+02  -2.5566983471759613e+04  1.1833842371579171e+04  -1.6013133074044477e+04  -1.0978722663647270e+03  -8.5888741561721217e+03  5.1760107741159509e+03  -1.0140239206610180e+04  -1.7592832851198477e+03  -6.7241908982350669e+03  2.0747030395808506e+03  -5.3230621472700732e+03  2.9122809711197756e+03  -3.4270517943336763e+03  -1.9541953188863677e+03  -1.9046267853763400e+03  -5.1181927597609075e+02  -2.9215171989670796e+02  -1.5161755942903477e+02  -8.3301357955829417e+01  -1.4486477542169808e+02  -2.1532784240644480e+02  -4.0909041545686868e+01  -1.7899067823209461e+02  -1.9997564393621175e+01  -1.0338971007004162e+02  -2.5250859729691342e+01  -4.8456717453145039e+01  -2.3557750581172936e+01  -2.2833080887857552e+01  -1.5541994471327715e+01  -1.2044639049248071e+01  -8.8864938332006194e+00  -6.6260147585044296e+00  -4.9140316876751253e+00  -3.6392047766380746e+00  -2.6878235009623221e+00  -1.9778263548839348e+00  -1.4464253173037858e+00  -1.0462098088258178e+00  -7.4117881900487548e-01  -5.0373109481724609e-01  -3.1227924885506236e-01  -1.4933829734774201e-01  1.9959763582771674e-04  2.2914404151687901e+04  5.4980867348975342e+04  1.3986449357137319e+04  -1.9276665953662483e+04  -1.8803227564359753e+04  -1.8026204721583075e+04  -2.2710020690445122e+04  4.4961307333613871e+02  6.1384770730633290e+03  -4.6111086565578671e+03  4.3240925144882813e+03  -7.7789922343525368e+03  1.8528843184527275e+04  3.6052381078988278e+03  5.0794648085362242e+03  4.6799663696824049e+04  7.9098813121302504e+04  6.0201166610856322e+04  3.4669633607309537e+04  1.4078368895504495e+04  1.5112772653610955e+04  1.8489655333338211e+04  1.0221513203468839e+04  3.2994664794846823e+04  -1.0605608946815186e+04  -1.1582311948573532e+02  2.4093466703494210e+04  1.1136516327240051e+04  1.2656281097752862e+04  -6.3900914983076691e+03  -3.5569578760896056e+03  2.2543912410605528e+04  5.7094270517189379e+03  -9.5857581735809376e+01  1.2645843628749748e+04  -7.7784349756920956e+03  -9.2063011726228196e+03  -1.2250671205260744e+03  1.4244045205239549e+04  2.5120862123297138e+04  -1.9502055683700553e+04  -1.2924509519245603e+04  -1.0011263241622730e+04  -1.5469341505510554e+03  -1.3822823242689665e+04  6.8560328481794377e+03  -7.0108087515941443e+03  4.0296051812235169e+03  -4.8037956551767502e+03  2.6518012142503017e+03  -1.4988610216829611e+03  3.5072204331830636e+02  -3.2896457844339229e+03  7.8204484770782528e+02  -7.0646920448387348e+01  -1.0133439204063466e+01  -8.1283134466789093e+01  -1.5347332275299158e+02  -1.2407886203494904e+02  -5.5065589105808527e+01  -1.0068384368899571e+02  -2.4276736111498931e+01  -5.6450311358618364e+01  -2.0937478952198500e+01  -2.6306065402591180e+01  -1.5701158154987818e+01  -1.3055443114863596e+01  -9.4004297858983072e+00  -7.0690333999322279e+00  -5.2357019180122268e+00  -3.8832376233927626e+00  -2.8728155846542140e+00  -2.1205977381422736e+00  -1.5597312224474635e+00  -1.1403002420633552e+00  -8.2460293544772978e-01  -5.8409879628648564e-01  -3.9694441316457219e-01  -2.4607857684312062e-01  -1.1769262819951620e-01  1.5401658978910190e-04  2.6667780779619799e+04  3.7379806805312151e+03  1.5617720844138856e+04  -3.4790883410683229e+04  1.2238495059608224e+04  -2.9005100560995295e+04  3.2953405390786006e+03  -1.1833098282478099e+02  8.3038543534164910e+03  -1.2011042460108103e+04  3.3103182988043427e+03  1.6946009073881603e+04  9.0413514223336933e+03  1.1279269900630939e+04  1.2379927257741218e+04  3.3314852198998240e+04  5.6925012199602177e+04  5.1616555779371505e+04  3.7972820429488325e+04  -2.7165812718480242e+03  -4.0086867635445429e+02  1.8663541169536129e+04  -8.8476212573394332e+03  1.9521751337205867e+04  -9.3813596436915850e+03  1.8157298306606459e+04  2.8872732188918712e+03  -4.5837497846846190e+03  3.2955103921890237e+04  6.4461345434265775e+02  -3.5007232927489487e+04  -6.4687459189831497e+03  2.3003947146042974e+04  2.9656761654465281e+04  -3.1222034073194689e+04  2.0513607316502921e+03  1.1609358015471247e+04  2.0068147552627470e+04  2.8125893882960299e+04  -4.9906821686212024e+03  -8.0131469885606630e+03  1.8233414499354869e+04  -7.2099983245726044e+03  -2.7722449745498175e+03  -8.8114376431026030e+03  -3.0904123096586400e+03  3.0072861725548346e+03  -1.5510077008313357e+02  1.7978903775098536e+03  -3.4809461651677916e+03  -2.9022055427404575e+02  -2.6167731484145052e+03  1.4096958739053446e+03  -2.1738172021002920e+03  9.1092655266704708e+02  -2.7621849945375948e+02  7.5977053349556741e+01  -9.5842426448065424e+01  -7.1413926026866648e+01  -6.3991221014111062e+01  -3.3366428155044709e+01  -5.1103504626273811e+01  -1.6823341172197118e+01  -2.7319092818891274e+01  -1.3134215463872090e+01  -1.2827533511608376e+01  -8.6113957667936738e+00  -6.6551374387423774e+00  -4.8884786409955714e+00  -3.6337560717698452e+00  -2.6886332632764680e+00  -1.9876449194093946e+00  -1.4661249038187147e+00  -1.0778198388018712e+00  -7.8769312511831435e-01  -5.6947252484305666e-01  -4.0331409307135996e-01  -2.7406429426351975e-01  -1.6990288103030554e-01  -8.1284342911696936e-02  1.2542949918496773e-04  -4.2854529106341266e+04  2.8982610570462573e+04  5.9484869978670149e+03  -3.0954676854647518e+04  -1.4126779001650364e+04  -5.9972542475456303e+03  1.1333106203895279e+03  1.0601320377850676e+04  2.4196989667317325e+03  3.7357154119434390e+03  -3.6428304296659867e+03  7.1634976315028425e+03  6.1221519281561086e+03  1.0635218299663658e+04  1.4467813139075745e+03  5.4599265757980211e+03  3.2877434779391791e+04  3.2825532708113496e+04  2.0287629175904371e+04  -1.1034167543126316e+04  -7.4903622440117933e+03  1.7476888359276079e+03  -9.4455584305837983e+03  7.9983277060337387e+03  8.2223316287011276e+03  1.9375870161736948e+04  -7.0822666083428476e+02  1.0891932639415380e+04  3.7787964626250039e+04  -3.0773464954480842e+03  -2.3399126651711806e+04  -2.1047825558349981e+04  -3.0503482696317114e+03  -2.9231069050336053e+04  2.4291920573330368e+04  5.9632862250871049e+03  2.1838701904479953e+04  2.9163816941735571e+04  -2.1203998147314405e+03  -6.2841270379601174e+03  1.1428543370182793e+04  -3.0407833968572600e+03  2.0026735219577957e+04  4.7942660167817521e+03  1.2930710045982247e+04  -4.7042600374408539e+03  2.9788791749161737e+03  9.4852760613963198e+02  4.8514699430670225e+02  3.5825564157258123e+02  4.7787584537208431e+02  1.5068433024721037e+03  -3.1285680788174636e+03  1.2392991832379405e+03  -9.1390855537175548e+02  7.7190029824475857e+02  -3.3865853457802922e+02  6.4327871747766466e+01  -8.4618127170023058e+01  -2.7426133354111915e+01  -3.1486636419434099e+01  -1.3068138116235943e+01  -2.0745619941311691e+01  -7.3456213411490427e+00  -1.0000511444769723e+01  -5.5815526893815282e+00  -4.7463378804586549e+00  -3.3670087898566581e+00  -2.5256012766960962e+00  -1.8630450444247471e+00  -1.3782118357575466e+00  -1.0175441429625129e+00  -7.5000805465193254e-01  -5.5104779989806218e-01  -4.0255244464179712e-01  -2.9094695185327124e-01  -2.0601782645150374e-01  -1.3998230140645479e-01  -8.6788614196318142e-02  -4.1506117104601503e-02  -8.5876609694705600e-05  6.3177706913115304e+04  -3.3902659093773914e+03  -2.4242812422137158e+04  5.4713429433805295e+03  2.0432293687616999e+04  -1.6128134119857812e+04  -4.1077434298785029e+03  -4.7373954630416692e+03  1.0586372221484404e+04  -1.7758848961032199e+03  -3.8774970120277344e+03  9.9276352403987075e+03  -1.0040273115464679e+04  -6.4320817199581898e+03  -1.4164547561605891e+03  -1.2130247279066687e+04  1.3905730538817454e+04  2.1617754287756911e+03  2.6253334158184632e+01  6.0703557142678146e+03  -2.5884694783133342e+04  -6.2579914218421936e+03  -4.5029884734936377e+03  3.7897283729119285e+03  4.9710380745009134e+03  -4.1710518973098706e+03  1.9721501703555896e+03  7.0988260780645069e+03  1.7426136258573661e+04  -1.3833876237091139e+04  1.3916495853765840e+04  1.2235293642029354e+04  -1.1182493395005904e+04  3.0632370413173812e+03  9.7140491377346134e+03  -1.3290932886344739e+04  1.8608253532433875e+04  -4.5565579618623078e+03  2.5023622343328221e+04  -2.5747784522242041e+03  -4.8392369800783736e+03  2.6424169256924401e+03  -8.0708151809230530e+03  -4.3842842852265749e+03  -1.5788943872080619e+04  7.1207413299893888e+03  -6.4194225131561734e+03  5.6365777425248580e+03  -2.4623411902206162e+03  3.4750043418832720e+03  -6.2328766291790782e+02  -1.8920021768758829e+03  2.0197431000432514e+03  -6.9157158622827967e+02  7.2951009506710557e+02  -8.9524799739822345e+02  5.8655487282454533e+02  -3.1186101857853401e+02  1.1843267542945122e+02  -4.4195597439703313e+01  9.1196697561495021e+00  -5.5419424960649204e+00  3.5343291668552128e+00  -2.7756709510438613e+00  1.3102815948346076e+00  -5.4953626604281069e-01  1.3763637657226810e-01  -4.5618033983805872e-02  2.5995293926572558e-03  -4.0021909871657945e-03  -1.2902314088405246e-03  -9.0897782991665043e-04  -5.1674843219791432e-04  -3.2057216275362609e-04  -2.0065670245198683e-04  -1.2833737053292323e-04  -8.2044975687511350e-05  -5.5158362171377642e-05  -1.0582214691279485e-05  -1.6444316945836353e-04  1.1009684340500948e-03  6.3054889719159410e+03  -2.5342822100547557e+04  -7.7026662417828584e+03  -1.4638410954725266e+03  -3.3337093951457078e+04  -4.3592052959641485e+04  -2.5363773270981823e+04  -1.1918500427700708e+04  1.9739996556605038e+04  2.9089843409657893e+04  1.7034310370354313e+04  1.8762453136032942e+04  -1.3286533776322360e+04  1.8851645927642370e+04  4.2812047016552096e+04  3.7181012605922115e+04  3.7424097665234411e+04  2.6932456458567380e+04  8.6894336619024980e+03  2.3485228186690427e+04  2.4118768480358875e+04  4.8601982136074053e+04  2.2282326895592156e+04  7.5645144012450755e+03  -9.6575338703587277e+03  -9.9724277817134553e+03  -1.5183468405733747e+04  -1.3512113741680478e+04  -2.2847851533743600e+04  6.0771401674197741e+03  1.2160107024918281e+04  -5.7246563186765442e+00  5.0728357191142059e+03  7.6423494616894648e+04  5.1577091573490485e+04  4.1549193026193221e+04  -1.1304931817295132e+04  1.1173631940968145e+04  1.7301706724215732e+04  1.0252819436829304e+04  2.9590978572800541e+04  -1.3872970351588345e+04  -1.1111835293238177e+04  -2.3763848046946391e+03  -2.0834986233600514e+04  2.5338601046090544e+03  -6.5117448113402306e+03  9.1760997509812842e+03  -5.9034201839078901e+02  5.0403105639927355e+02  -1.5984172147417323e+03  -6.1929825152591764e+02  -5.4253600677794213e+02  -4.4078176487350271e+02  -1.8338498284917841e+02  -3.1941044414105949e+02  -1.4000690554583301e+02  -2.1626088548782567e+02  -1.1436307856991107e+02  -1.3163819991497022e+02  -8.4135205028333218e+01  -7.6002958296167819e+01  -5.5294587205862044e+01  -4.3893502697060171e+01  -3.3104243151061766e+01  -2.5190679228020603e+01  -1.8935702268580901e+01  -1.4201978935863803e+01  -1.0603160141253754e+01  -7.8953043349917653e+00  -5.8628479240074354e+00  -4.3419629124123569e+00  -3.2047816708152910e+00  -2.3536518602285490e+00  -1.7141308357463929e+00  -1.2295520421360886e+00  -8.5655078612756474e-01  -5.6150397668561491e-01  -3.1760123685312375e-01  -1.0276146795801105e-01  -2.65790567159