<?xml version="1.0"?>
<VTKFile type="UnstructuredGrid"  version="0.1"  >
<UnstructuredGrid>
<Piece  NumberOfPoints="1369" NumberOfCells="2560">
<Points>
<DataArray  type="Float64"  NumberOfComponents="3"  format="ascii">0 0 0  0.75 0 0  1.5 0 0  2.25 0 0  3 0 0  3.75 0 0  4.5 0 0  5.25 0 0  6 0 0  6.75 0 0  7.5 0 0  8.25 0 0  9 0 0  9.75 0 0  10.5 0 0  11.25 0 0  12 0 0  12.75 0 0  13.5 0 0  14.25 0 0  15 0 0  15.75 0 0  16.5 0 0  17.25 0 0  18 0 0  18.75 0 0  19.5 0 0  20.25 0 0  21 0 0  21.75 0 0  22.5 0 0  23.25 0 0  24 0 0  24.75 0 0  25.5 0 0  26.25 0 0  27 0 0  27.75 0 0  28.5 0 0  29.25 0 0  30 0 0  30.75 0 0  31.5 0 0  32.25 0 0  33 0 0  33.75 0 0  34.5 0 0  35.25 0 0  36 0 0  36.75 0 0  37.5 0 0  38.25 0 0  39 0 0  39.75 0 0  40.5 0 0  41.25 0 0  42 0 0  42.75 0 0  43.5 0 0  44.25 0 0  45 0 0  45.75 0 0  46.5 0 0  47.25 0 0  48 0 0  48.75 0 0  49.5 0 0  50.25 0 0  51 0 0  51.75 0 0  52.5 0 0  53.25 0 0  54 0 0  54.75 0 0  55.5 0 0  56.25 0 0  57 0 0  57.75 0 0  58.5 0 0  59.25 0 0  60 0 0  0 0.5 0  0.75 0.5 0  1.5 0.5 0  2.25 0.5 0  3 0.5 0  3.75 0.5 0  4.5 0.5 0  5.25 0.5 0  6 0.5 0  6.75 0.5 0  7.5 0.5 0  8.25 0.5 0  9 0.5 0  9.75 0.5 0  10.5 0.5 0  11.25 0.5 0  12 0.5 0  12.75 0.5 0  13.5 0.5 0  14.25 0.5 0  15 0.5 0  15.75 0.5 0  16.5 0.5 0  17.25 0.5 0  18 0.5 0  18.75 0.5 0  19.5 0.5 0  20.25 0.5 0  21 0.5 0  21.75 0.5 0  22.5 0.5 0  23.25 0.5 0  24 0.5 0  24.75 0.5 0  25.5 0.5 0  26.25 0.5 0  27 0.5 0  27.75 0.5 0  28.5 0.5 0  29.25 0.5 0  30 0.5 0  30.75 0.5 0  31.5 0.5 0  32.25 0.5 0  33 0.5 0  33.75 0.5 0  34.5 0.5 0  35.25 0.5 0  36 0.5 0  36.75 0.5 0  37.5 0.5 0  38.25 0.5 0  39 0.5 0  39.75 0.5 0  40.5 0.5 0  41.25 0.5 0  42 0.5 0  42.75 0.5 0  43.5 0.5 0  44.25 0.5 0  45 0.5 0  45.75 0.5 0  46.5 0.5 0  47.25 0.5 0  48 0.5 0  48.75 0.5 0  49.5 0.5 0  50.25 0.5 0  51 0.5 0  51.75 0.5 0  52.5 0.5 0  53.25 0.5 0  54 0.5 0  54.75 0.5 0  55.5 0.5 0  56.25 0.5 0  57 0.5 0  57.75 0.5 0  58.5 0.5 0  59.25 0.5 0  60 0.5 0  0 1 0  0.75 1 0  1.5 1 0  2.25 1 0  3 1 0  3.75 1 0  4.5 1 0  5.25 1 0  6 1 0  6.75 1 0  7.5 1 0  8.25 1 0  9 1 0  9.75 1 0  10.5 1 0  11.25 1 0  12 1 0  12.75 1 0  13.5 1 0  14.25 1 0  15 1 0  15.75 1 0  16.5 1 0  17.25 1 0  18 1 0  18.75 1 0  19.5 1 0  20.25 1 0  21 1 0  21.75 1 0  22.5 1 0  23.25 1 0  24 1 0  24.75 1 0  25.5 1 0  26.25 1 0  27 1 0  27.75 1 0  28.5 1 0  29.25 1 0  30 1 0  30.75 1 0  31.5 1 0  32.25 1 0  33 1 0  33.75 1 0  34.5 1 0  35.25 1 0  36 1 0  36.75 1 0  37.5 1 0  38.25 1 0  39 1 0  39.75 1 0  40.5 1 0  41.25 1 0  42 1 0  42.75 1 0  43.5 1 0  44.25 1 0  45 1 0  45.75 1 0  46.5 1 0  47.25 1 0  48 1 0  48.75 1 0  49.5 1 0  50.25 1 0  51 1 0  51.75 1 0  52.5 1 0  53.25 1 0  54 1 0  54.75 1 0  55.5 1 0  56.25 1 0  57 1 0  57.75 1 0  58.5 1 0  59.25 1 0  60 1 0  0 1.5 0  0.75 1.5 0  1.5 1.5 0  2.25 1.5 0  3 1.5 0  3.75 1.5 0  4.5 1.5 0  5.25 1.5 0  6 1.5 0  6.75 1.5 0  7.5 1.5 0  8.25 1.5 0  9 1.5 0  9.75 1.5 0  10.5 1.5 0  11.25 1.5 0  12 1.5 0  12.75 1.5 0  13.5 1.5 0  14.25 1.5 0  15 1.5 0  15.75 1.5 0  16.5 1.5 0  17.25 1.5 0  18 1.5 0  18.75 1.5 0  19.5 1.5 0  20.25 1.5 0  21 1.5 0  21.75 1.5 0  22.5 1.5 0  23.25 1.5 0  24 1.5 0  24.75 1.5 0  25.5 1.5 0  26.25 1.5 0  27 1.5 0  27.75 1.5 0  28.5 1.5 0  29.25 1.5 0  30 1.5 0  30.75 1.5 0  31.5 1.5 0  32.25 1.5 0  33 1.5 0  33.75 1.5 0  34.5 1.5 0  35.25 1.5 0  36 1.5 0  36.75 1.5 0  37.5 1.5 0  38.25 1.5 0  39 1.5 0  39.75 1.5 0  40.5 1.5 0  41.25 1.5 0  42 1.5 0  42.75 1.5 0  43.5 1.5 0  44.25 1.5 0  45 1.5 0  45.75 1.5 0  46.5 1.5 0  47.25 1.5 0  48 1.5 0  48.75 1.5 0  49.5 1.5 0  50.25 1.5 0  51 1.5 0  51.75 1.5 0  52.5 1.5 0  53.25 1.5 0  54 1.5 0  54.75 1.5 0  55.5 1.5 0  56.25 1.5 0  57 1.5 0  57.75 1.5 0  58.5 1.5 0  59.25 1.5 0  60 1.5 0  0 2 0  0.75 2 0  1.5 2 0  2.25 2 0  3 2 0  3.75 2 0  4.5 2 0  5.25 2 0  6 2 0  6.75 2 0  7.5 2 0  8.25 2 0  9 2 0  9.75 2 0  10.5 2 0  11.25 2 0  12 2 0  12.75 2 0  13.5 2 0  14.25 2 0  15 2 0  15.75 2 0  16.5 2 0  17.25 2 0  18 2 0  18.75 2 0  19.5 2 0  20.25 2 0  21 2 0  21.75 2 0  22.5 2 0  23.25 2 0  24 2 0  24.75 2 0  25.5 2 0  26.25 2 0  27 2 0  27.75 2 0  28.5 2 0  29.25 2 0  30 2 0  30.75 2 0  31.5 2 0  32.25 2 0  33 2 0  33.75 2 0  34.5 2 0  35.25 2 0  36 2 0  36.75 2 0  37.5 2 0  38.25 2 0  39 2 0  39.75 2 0  40.5 2 0  41.25 2 0  42 2 0  42.75 2 0  43.5 2 0  44.25 2 0  45 2 0  45.75 2 0  46.5 2 0  47.25 2 0  48 2 0  48.75 2 0  49.5 2 0  50.25 2 0  51 2 0  51.75 2 0  52.5 2 0  53.25 2 0  54 2 0  54.75 2 0  55.5 2 0  56.25 2 0  57 2 0  57.75 2 0  58.5 2 0  59.25 2 0  60 2 0  0 2.5 0  0.75 2.5 0  1.5 2.5 0  2.25 2.5 0  3 2.5 0  3.75 2.5 0  4.5 2.5 0  5.25 2.5 0  6 2.5 0  6.75 2.5 0  7.5 2.5 0  8.25 2.5 0  9 2.5 0  9.75 2.5 0  10.5 2.5 0  11.25 2.5 0  12 2.5 0  12.75 2.5 0  13.5 2.5 0  14.25 2.5 0  15 2.5 0  15.75 2.5 0  16.5 2.5 0  17.25 2.5 0  18 2.5 0  18.75 2.5 0  19.5 2.5 0  20.25 2.5 0  21 2.5 0  21.75 2.5 0  22.5 2.5 0  23.25 2.5 0  24 2.5 0  24.75 2.5 0  25.5 2.5 0  26.25 2.5 0  27 2.5 0  27.75 2.5 0  28.5 2.5 0  29.25 2.5 0  30 2.5 0  30.75 2.5 0  31.5 2.5 0  32.25 2.5 0  33 2.5 0  33.75 2.5 0  34.5 2.5 0  35.25 2.5 0  36 2.5 0  36.75 2.5 0  37.5 2.5 0  38.25 2.5 0  39 2.5 0  39.75 2.5 0  40.5 2.5 0  41.25 2.5 0  42 2.5 0  42.75 2.5 0  43.5 2.5 0  44.25 2.5 0  45 2.5 0  45.75 2.5 0  46.5 2.5 0  47.25 2.5 0  48 2.5 0  48.75 2.5 0  49.5 2.5 0  50.25 2.5 0  51 2.5 0  51.75 2.5 0  52.5 2.5 0  53.25 2.5 0  54 2.5 0  54.75 2.5 0  55.5 2.5 0  56.25 2.5 0  57 2.5 0  57.75 2.5 0  58.5 2.5 0  59.25 2.5 0  60 2.5 0  0 3 0  0.75 3 0  1.5 3 0  2.25 3 0  3 3 0  3.75 3 0  4.5 3 0  5.25 3 0  6 3 0  6.75 3 0  7.5 3 0  8.25 3 0  9 3 0  9.75 3 0  10.5 3 0  11.25 3 0  12 3 0  12.75 3 0  13.5 3 0  14.25 3 0  15 3 0  15.75 3 0  16.5 3 0  17.25 3 0  18 3 0  18.75 3 0  19.5 3 0  20.25 3 0  21 3 0  21.75 3 0  22.5 3 0  23.25 3 0  24 3 0  24.75 3 0  25.5 3 0  26.25 3 0  27 3 0  27.75 3 0  28.5 3 0  29.25 3 0  30 3 0  30.75 3 0  31.5 3 0  32.25 3 0  33 3 0  33.75 3 0  34.5 3 0  35.25 3 0  36 3 0  36.75 3 0  37.5 3 0  38.25 3 0  39 3 0  39.75 3 0  40.5 3 0  41.25 3 0  42 3 0  42.75 3 0  43.5 3 0  44.25 3 0  45 3 0  45.75 3 0  46.5 3 0  47.25 3 0  48 3 0  48.75 3 0  49.5 3 0  50.25 3 0  51 3 0  51.75 3 0  52.5 3 0  53.25 3 0  54 3 0  54.75 3 0  55.5 3 0  56.25 3 0  57 3 0  57.75 3 0  58.5 3 0  59.25 3 0  60 3 0  0 3.5 0  0.75 3.5 0  1.5 3.5 0  2.25 3.5 0  3 3.5 0  3.75 3.5 0  4.5 3.5 0  5.25 3.5 0  6 3.5 0  6.75 3.5 0  7.5 3.5 0  8.25 3.5 0  9 3.5 0  9.75 3.5 0  10.5 3.5 0  11.25 3.5 0  12 3.5 0  12.75 3.5 0  13.5 3.5 0  14.25 3.5 0  15 3.5 0  15.75 3.5 0  16.5 3.5 0  17.25 3.5 0  18 3.5 0  18.75 3.5 0  19.5 3.5 0  20.25 3.5 0  21 3.5 0  21.75 3.5 0  22.5 3.5 0  23.25 3.5 0  24 3.5 0  24.75 3.5 0  25.5 3.5 0  26.25 3.5 0  27 3.5 0  27.75 3.5 0  28.5 3.5 0  29.25 3.5 0  30 3.5 0  30.75 3.5 0  31.5 3.5 0  32.25 3.5 0  33 3.5 0  33.75 3.5 0  34.5 3.5 0  35.25 3.5 0  36 3.5 0  36.75 3.5 0  37.5 3.5 0  38.25 3.5 0  39 3.5 0  39.75 3.5 0  40.5 3.5 0  41.25 3.5 0  42 3.5 0  42.75 3.5 0  43.5 3.5 0  44.25 3.5 0  45 3.5 0  45.75 3.5 0  46.5 3.5 0  47.25 3.5 0  48 3.5 0  48.75 3.5 0  49.5 3.5 0  50.25 3.5 0  51 3.5 0  51.75 3.5 0  52.5 3.5 0  53.25 3.5 0  54 3.5 0  54.75 3.5 0  55.5 3.5 0  56.25 3.5 0  57 3.5 0  57.75 3.5 0  58.5 3.5 0  59.25 3.5 0  60 3.5 0  0 4 0  0.75 4 0  1.5 4 0  2.25 4 0  3 4 0  3.75 4 0  4.5 4 0  5.25 4 0  6 4 0  6.75 4 0  7.5 4 0  8.25 4 0  9 4 0  9.75 4 0  10.5 4 0  11.25 4 0  12 4 0  12.75 4 0  13.5 4 0  14.25 4 0  15 4 0  15.75 4 0  16.5 4 0  17.25 4 0  18 4 0  18.75 4 0  19.5 4 0  20.25 4 0  21 4 0  21.75 4 0  22.5 4 0  23.25 4 0  24 4 0  24.75 4 0  25.5 4 0  26.25 4 0  27 4 0  27.75 4 0  28.5 4 0  29.25 4 0  30 4 0  30.75 4 0  31.5 4 0  32.25 4 0  33 4 0  33.75 4 0  34.5 4 0  35.25 4 0  36 4 0  36.75 4 0  37.5 4 0  38.25 4 0  39 4 0  39.75 4 0  40.5 4 0  41.25 4 0  42 4 0  42.75 4 0  43.5 4 0  44.25 4 0  45 4 0  45.75 4 0  46.5 4 0  47.25 4 0  48 4 0  48.75 4 0  49.5 4 0  50.25 4 0  51 4 0  51.75 4 0  52.5 4 0  53.25 4 0  54 4 0  54.75 4 0  55.5 4 0  56.25 4 0  57 4 0  57.75 4 0  58.5 4 0  59.25 4 0  60 4 0  0.375 0.25 0  1.125 0.25 0  1.875 0.25 0  2.625 0.25 0  3.375 0.25 0  4.125 0.25 0  4.875 0.25 0  5.625 0.25 0  6.375 0.25 0  7.125 0.25 0  7.875 0.25 0  8.625 0.25 0  9.375 0.25 0  10.125 0.25 0  10.875 0.25 0  11.625 0.25 0  12.375 0.25 0  13.125 0.25 0  13.875 0.25 0  14.625 0.25 0  15.375 0.25 0  16.125 0.25 0  16.875 0.25 0  17.625 0.25 0  18.375 0.25 0  19.125 0.25 0  19.875 0.25 0  20.625 0.25 0  21.375 0.25 0  22.125 0.25 0  22.875 0.25 0  23.625 0.25 0  24.375 0.25 0  25.125 0.25 0  25.875 0.25 0  26.625 0.25 0  27.375 0.25 0  28.125 0.25 0  28.875 0.25 0  29.625 0.25 0  30.375 0.25 0  31.125 0.25 0  31.875 0.25 0  32.625 0.25 0  33.375 0.25 0  34.125 0.25 0  34.875 0.25 0  35.625 0.25 0  36.375 0.25 0  37.125 0.25 0  37.875 0.25 0  38.625 0.25 0  39.375 0.25 0  40.125 0.25 0  40.875 0.25 0  41.625 0.25 0  42.375 0.25 0  43.125 0.25 0  43.875 0.25 0  44.625 0.25 0  45.375 0.25 0  46.125 0.25 0  46.875 0.25 0  47.625 0.25 0  48.375 0.25 0  49.125 0.25 0  49.875 0.25 0  50.625 0.25 0  51.375 0.25 0  52.125 0.25 0  52.875 0.25 0  53.625 0.25 0  54.375 0.25 0  55.125 0.25 0  55.875 0.25 0  56.625 0.25 0  57.375 0.25 0  58.125 0.25 0  58.875 0.25 0  59.625 0.25 0  0.375 0.75 0  1.125 0.75 0  1.875 0.75 0  2.625 0.75 0  3.375 0.75 0  4.125 0.75 0  4.875 0.75 0  5.625 0.75 0  6.375 0.75 0  7.125 0.75 0  7.875 0.75 0  8.625 0.75 0  9.375 0.75 0  10.125 0.75 0  10.875 0.75 0  11.625 0.75 0  12.375 0.75 0  13.125 0.75 0  13.875 0.75 0  14.625 0.75 0  15.375 0.75 0  16.125 0.75 0  16.875 0.75 0  17.625 0.75 0  18.375 0.75 0  19.125 0.75 0  19.875 0.75 0  20.625 0.75 0  21.375 0.75 0  22.125 0.75 0  22.875 0.75 0  23.625 0.75 0  24.375 0.75 0  25.125 0.75 0  25.875 0.75 0  26.625 0.75 0  27.375 0.75 0  28.125 0.75 0  28.875 0.75 0  29.625 0.75 0  30.375 0.75 0  31.125 0.75 0  31.875 0.75 0  32.625 0.75 0  33.375 0.75 0  34.125 0.75 0  34.875 0.75 0  35.625 0.75 0  36.375 0.75 0  37.125 0.75 0  37.875 0.75 0  38.625 0.75 0  39.375 0.75 0  40.125 0.75 0  40
[...]
<PointData  Scalars="f_8-1"> 
<DataArray  type="Float64"  Name="f_8-1"  format="ascii">3.8029770274077827e+05  -2.7472267030962431e+06  -2.1765724498312414e+05  -1.4612170111242062e+06  1.7598927316821141e+06  2.7724354516283539e+06  -1.1644220294844728e+04  9.1571028834405832e+05  9.9658800554587739e+05  -1.1694704529419614e+06  -1.9372182970083111e+06  -1.5020993815301221e+06  -3.0312999682008973e+06  -1.3774805363425098e+06  1.9931627374712529e+06  -1.0742677952005924e+06  5.0986773440732236e+05  7.4730185926549486e+05  3.1974587054892052e+06  8.6912825530573423e+05  3.5436678996226522e+06  7.4871556371876150e+06  7.5675382347343750e+06  9.9118391585495584e+06  5.8121889343715589e+06  2.9751908164824452e+06  1.2934129820085242e+07  -6.2229628591823205e+06  5.1418066932045333e+06  9.0572965067402110e+05  4.2609310661330243e+05  -1.0536921749382978e+07  -8.5172149310589731e+06  -1.0853975843563299e+06  -1.2710189112045698e+07  -5.3929247470168415e+06  -2.8984766023857379e+05  -3.5242241953015882e+06  2.0532789285573331e+06  -5.2420967705044011e+06  -7.8913688760190355e+06  -1.6525191296617283e+07  -9.9605043789084945e+06  3.3625556827980350e+05  8.3274021093590902e+06  1.3678064725206455e+07  -4.5082992094459236e+06  -2.5249139727629968e+06  -3.9015903636147385e+06  -1.1194819454740423e+06  -6.8444167520390414e+06  -3.6091522449864931e+06  -7.4759836328487946e+06  2.6439426134289992e+06  3.5459462802190157e+06  1.2402844177550506e+06  2.3046677779604925e+05  3.2013223416128163e+06  2.3310203318487771e+05  -2.4346406493558381e+06  -4.4280901027875207e+06  3.3630548194344994e+06  -3.1393964698284650e+06  2.6930579838430812e+06  3.3676838820412792e+06  -1.9511474597636191e+06  2.6284353153628935e+06  1.9029090131223579e+06  2.2939743646190125e+06  -2.6453370594923384e+06  2.0451755692145608e+06  -2.7349325152573083e+06  -8.3459908347247336e+06  -3.3987661600187076e+06  -1.6603909142549618e+06  -1.5007432886661147e+06  -3.6873874936009794e+06  -1.0778047282529159e+06  -1.2919998229987994e+06  -5.5140083174470323e+05  6.6399287907415663e+05  -5.1937601165190368e+04  -1.2659694190384760e+06  1.2409721653640304e+05  4.4206230268450978e+05  1.0236666289561664e+06  -1.9452455277878523e+06  1.4534067059738985e+06  1.1110154070901764e+06  -6.7059198103393265e+05  -5.3260982320849085e+05  -2.9222385188078452e+06  -5.6418687761466415e+05  -3.3553709967034799e+06  -9.8133658197820454e+05  1.2585155803458995e+05  -8.9105462797297933e+05  6.9751294994227996e+04  1.4613812776067241e+06  3.4868569961189376e+06  3.2024141594691700e+06  2.4041554580001724e+06  2.0400681467717746e+06  6.2239098388986103e+06  6.7036907551358957e+06  6.8404172401661174e+06  6.1287659784675753e+06  8.0463709129377576e+06  1.1205910353586383e+07  -2.8035459248685592e+05  2.0999596528804782e+06  -3.8113361120353015e+06  -8.1344897647430683e+06  -2.1817852026091008e+06  1.3888306397390452e+06  -3.2992603189415406e+06  -2.8296956734187802e+05  -1.3400615361298176e+07  -3.6816437258618575e+05  -3.5394388931244062e+06  -7.1368845961329120e+05  -3.1550036035454501e+06  -1.1214538190233814e+07  9.9654113167331018e+05  -2.1394405573204113e+06  5.5656699442582177e+06  -1.0315767224056447e+07  -4.3236095745337475e+06  1.3272369487107771e+06  -7.1838460435970379e+06  -8.7634046335247532e+06  -8.0562842871466978e+05  -2.9469614758656146e+06  -4.2415139785193391e+06  4.1161854340091995e+06  1.9848570824885219e+06  4.3762416329520186e+06  2.4207401858161259e+06  3.1212871526621357e+06  1.4029240161701983e+06  -1.5725586373059102e+06  -4.3975741286543673e+06  -4.6808197678495981e+06  -1.3680901107894965e+06  6.4342349721185805e+05  -1.1395217262373990e+06  -5.0263124224155229e+06  1.4345621640836857e+06  -4.2890390610842570e+05  -1.7054749952051244e+06  -7.3068668891804898e+05  -3.4395985615645135e+06  -4.3910032455615038e+06  -4.4800146249283105e+06  -3.4403067651683385e+06  -3.7511713066635176e+05  -1.5332255970583204e+06  -3.7046821155712814e+06  -8.7676876217254729e+05  7.4031540768676699e+04  -3.5581687217915099e+05  -1.4680221202190878e+05  1.2843311580361599e+05  -3.2724164236585551e+05  -7.0865569656164129e+05  -1.0034960195035105e+05  5.7477104384809325e+05  -1.2689806514892017e+05  -1.6544100294936893e+06  -1.7306874468346097e+05  1.0222893936737990e+06  -2.1233649624644616e+06  -2.0606989555308959e+06  -5.9461222569333762e+05  -2.4028072228303022e+05  -4.2613409180414316e+05  -2.2884689888227852e+06  -3.8733930029739544e+05  -1.2359056145049511e+06  1.9963016791045673e+06  7.5719279284759844e+05  -6.9073655382914731e+04  2.4325794660467473e+06  2.3492873460863195e+06  1.9971379351696726e+06  5.5845603059559269e+06  1.1352548130819825e+07  6.4454744093317725e+06  3.7891380238030008e+06  1.0049409216190953e+07  -2.4217439307994838e+06  -8.8700507455109258e+05  7.0357733043435179e+06  -3.3033401513119689e+06  -9.0193635566365011e+06  -5.9787227546551898e+06  4.8684553902142299e+06  -2.2583162934549209e+06  2.0305759530703914e+06  -9.1893509831962977e+06  3.0911193220743770e+06  -4.0178045370517680e+06  -2.8542484289823789e+06  -4.0526079474583305e+06  -6.6989291621570359e+05  -5.5071600535013294e+06  -1.4499317267320075e+06  -6.1861875748216836e+06  -5.4292264439949431e+06  -9.9413111992655671e+05  -4.2731549240536876e+06  -6.0500094874609429e+06  -2.6317677896247543e+06  -1.3311096563779914e+06  -4.9881373852153346e+06  -1.6376010628661504e+06  5.3440413885704102e+06  3.3519749521902860e+06  1.6919494352180222e+06  9.8005844072173210e+05  -8.9623063108052302e+05  -1.9479328699053298e+06  -4.8714620871983245e+06  -4.4740316767515112e+06  -5.0823981842739340e+06  7.6756939317493408e+05  -5.9210973466821043e+06  -4.7224092997760605e+05  -3.8078917902225708e+06  1.9069694463994591e+06  -7.4165132054439522e+06  6.4742129328383517e+05  -1.2195137622242277e+06  -2.5584381487820358e+06  -4.1624641730918246e+06  -2.5573377488331944e+06  -2.5235641008914795e+05  1.1756784559986377e+06  -4.0479023292035656e+06  2.6562614235833487e+06  -3.2603986886411061e+05  -8.7593200745312124e+05  2.3748063040416370e+05  -7.0979541123351126e+04  1.7567620059585976e+05  -3.8288287439758406e+05  -3.0218754062049655e+05  -1.2910912758533943e+06  -6.7801444690909458e+05  8.6137578185103054e+05  -1.1809767023586072e+06  -1.8258114142624873e+06  -1.2887150807878410e+05  -1.0255122034427169e+06  -1.6118464866691437e+06  2.4952653862900325e+05  -2.6346998426226212e+05  -1.4881487556564014e+06  1.9462809021952674e+06  -1.5213220474710844e+06  7.5639402837877418e+05  1.2903315590408298e+06  4.5492143561805156e+05  1.1000691018250098e+06  2.5311933661095910e+06  5.6206429522893205e+06  -1.1100386489731008e+06  4.6190294949708413e+06  3.9508435022979786e+04  6.4231187440327080e+06  1.6025082490913770e+06  1.3105214110697730e+07  1.8006640553552068e+06  3.6575598775776946e+06  -2.4157901806119629e+06  -1.0025384361758912e+07  -1.0196642298104144e+06  -7.4740931619120138e+06  8.8720812425013073e+05  -1.5880416524219301e+06  -2.9904670237890771e+06  -4.2387383582814196e+06  -3.7743210617762390e+06  -3.4938830950633180e+06  -5.6508806035171021e+06  -9.8927485377200029e+05  -3.0266200617786804e+06  1.2788932241304366e+07  3.8620447484225351e+06  1.2909065131398565e+06  -1.8986571945264651e+06  -7.4924577490239013e+06  -3.5146215201377328e+06  -4.4321273564717714e+06  2.5686566718366472e+06  -1.6441118419461735e+06  -4.5458677415563036e+06  8.8323881265852891e+05  2.6332940105702537e+06  2.6784360623246813e+06  5.8786569279189711e+05  2.9728153210843317e+06  -9.2468340969195543e+05  -2.5473223657955900e+06  -2.8615330707631637e+06  -6.1758420641722875e+06  -3.7980931328507899e+06  -1.2088319444869859e+06  -2.0162325391409828e+06  -1.4092586437661669e+06  -2.1390352547305231e+06  -1.0228413602187197e+06  1.0968320769887350e+06  -5.2414517289843567e+05  -1.3795209496540870e+06  -1.9680502479835886e+06  -1.0221374684689206e+06  -1.7576737409432209e+06  -3.5142480828240784e+06  -5.0142169906478928e+05  -6.2181485986087099e+05  -3.7441104301155847e+05  -1.3943701520378962e+06  -1.0480912988467826e+05  -1.8500879647051718e+05  -2.4318726091509886e+05  2.4790770339964697e+05  8.9437492972292996e+05  -4.8985357909575594e+05  4.6466480291707057e+05  -1.3415860059318104e+05  -4.2609304119459388e+05  -2.8383619825158911e+06  1.1314731554020531e+06  5.4244374381510494e+05  -3.9112261140966584e+05  5.7373436623611848e+05  -1.0199590366754928e+06  -9.0187138948434836e+05  -3.6747291070019797e+05  2.6623439857625198e+06  1.4643249830375002e+06  1.0315052954064159e+06  3.2104539920186731e+06  8.3821312859825091e+05  5.6843165169954756e+06  4.9565350600495178e+04  3.0133604084583544e+06  3.1256924117529774e+06  4.1412929385098531e+06  -2.9343486622341955e+05  4.3829490250237081e+06  9.7723092702999841e+06  4.4771361926132743e+05  2.5011500957787381e+06  -9.8402970425401162e+05  -3.5398390363063035e+06  -1.1332479736210180e+07  9.5858164141697157e+05  -1.0254670819523785e+06  6.5192447123427095e+05  -2.4390021174526401e+05  -3.9966515235841023e+06  -4.2671314245904386e+06  -2.9841109678403586e+06  -5.3352108518393142e+06  -1.2400946207696071e+07  3.8206010130913565e+06  4.2507842236541323e+06  5.5266694668654017e+06  5.0643177106588578e+05  1.8145956233213833e+06  -4.6930480759327002e+06  -3.0724820604126281e+06  -1.8027438474013128e+06  -2.5418491635464402e+06  8.2327281611019326e+05  1.8579759862658980e+06  2.7747550542144026e+06  3.4216079559290083e+05  1.9673140834771444e+06  -3.0308420778004720e+05  -7.1094490547146546e+04  -6.1777881896294160e+06  -6.0531386034959247e+06  -5.2100115006025014e+06  -6.3484300270114020e+06  -5.1532630873815129e+06  -2.3157023257000707e+06  -6.1095653950531560e+05  -1.9013928957665060e+06  1.3366965984623414e+06  -1.8941057936963867e+06  -3.3195092566524502e+06  2.7640248274220567e+05  -7.4515856721254834e+05  -2.5013553094423115e+06  -1.8319016320976688e+05  -2.1549087657619989e+06  -5.9716149523573124e+05  6.4614736913626199e+05  -8.7427963698552712e+05  -8.3879294576566236e+05  -1.2116392977571625e+06  3.4372378054659447e+05  -7.8665154218930064e+05  6.0172305854755442e+05  7.7140345304298797e+05  8.0452943333248305e+05  3.1413640383013216e+05  8.9943268152033779e+04  1.9941181257511224e+06  -4.8510523347737652e+05  -9.5234533056496468e+05  1.0540784408316487e+06  -2.2216750290283374e+06  -3.1193225016560638e+04  1.0777378920527685e+06  -2.3072557011386319e+06  -2.9715276571395290e+06  -2.9778113794236560e+05  1.6557790860016400e+06  -7.0312447539403813e+05  9.7950198175282669e+04  4.0079631722361697e+06  1.5438213295868717e+06  3.5982626264647846e+06  -4.2571780955348313e+06  4.7398091084421715e+06  5.7094487443350926e+06  1.7823479024436355e+06  1.9066960380348996e+06  -2.8676856498552156e+06  4.2998795341059013e+05  5.3926582353992201e+06  3.3795416638758749e+05  1.1558058470847744e+06  -6.3565277964627324e+06  -2.3021080401574410e+06  -5.6423772998479661e+06  -5.2797166425209250e+06  6.2494564363736482e+06  -2.5227944235538635e+06  1.0201466293032920e+05  -1.7565935734762074e+06  -2.6056113238651906e+06  -5.6956618431593888e+06  -2.3152787023523115e+06  -2.0067886783909232e+06  -3.3881668987464660e+05  2.7333752564409846e+06  -9.9129971758537262e+05  -4.1155119916808507e+06  -3.6439540354301557e+06  -1.9318257407792632e+06  -3.1422795305819013e+06  -2.4300849858074118e+06  5.7800009655376459e+06  -4.2780873363081098e+05  2.3692107786042946e+06  -2.6296319828259340e+06  1.5043863574715278e+06  7.3344707797067950e+05  3.1436384718506057e+06  -7.1102979684916837e+06  -4.3310148178113978e+06  -4.4805124575051637e+06  -5.9780473876711605e+06  -2.2601635064681512e+06  -2.3696583481380981e+06  -3.0211706025775089e+06  1.8893407101923148e+06  2.0620113279257568e+06  -6.1321370849530352e+05  1.5401488806132661e+05  -1.8138567354747334e+06  -3.3703575795962848e+06  1.3518669199781439e+06  -2.1487686263979136e+04  -2.3176098125923360e+06  -1.1940360101968714e+06  8.1684051293430175e+05  -4.1741120915478701e+05  1.3956440926596739e+06  -1.9434560062422680e+06  1.0900973228227100e+06  4.0040316389075335e+05  8.8468810173669108e+05  -4.3861838628243626e+04  -5.0567723930517334e+05  -5.7894743068502366e+05  -3.5431375305924955e+05  -3.5338266124669195e+05  1.6181817396908060e+06  -5.2677535900788975e+05  -6.3282297108895530e+05  -7.5629810598047776e+05  5.0156487355999881e+05  -1.0944699652255899e+06  -2.3791134277381138e+06  6.4448216854963929e+05  6.3281308977094875e+05  8.8630579606775381e+05  -4.8518196132737045e+04  -1.1708699592537300e+06  -2.0202916445157679e+06  6.5359898085175641e+06  1.5400775815440065e+06  -7.0975872690632893e+05  1.7196830392370119e+06  5.0331315691513969e+06  2.1638270014803801e+06  3.5396126974929194e+06  -6.6770897075685801e+05  -4.6180523965573440e+04  4.2665813537530787e+06  2.7360315507526328e+06  -1.5579576383512872e+06  -2.1634144246107410e+06  -2.7800702486267411e+06  -1.7895592419909311e+06  -5.6542591624669889e+06  1.1786862440932526e+06  1.5892086874391697e+06  -2.8689549789555096e+06  2.1108405429173592e+06  -6.1626361746348431e+06  -2.2653679287929595e+06  -2.7079292097562627e+05  -4.6730867075060017e+05  1.7843877366673462e+06  5.2055804698353661e+06  1.3078712219035639e+06  -1.0444277698282342e+06  -3.5976931229214086e+06  1.0778477003517207e+06  -2.7450934142859944e+05  3.4357244473977312e+06  -4.5220263117162634e+04  1.6102518017398817e+06  2.3936335229250398e+06  2.3638645654829685e+05  -1.8150822474907206e+06  -1.5765129702477648e+06  -1.1472318246550115e+06  1.1124013196821787e+05  -5.7205268708064249e+06  -5.6843013692512261e+06  -3.5629819747059755e+06  -4.6582812273167418e+06  -4.0970083567728038e+05  -2.5269892041876880e+06  1.0102647360757596e+06  -9.3079078027480550e+05  -5.6729899287081882e+06  7.9381047396902600e+05  5.5577428532939972e+06  -3.3215282708143522e+06  7.3865763188315777e+05  -7.6604668655382760e+05  -3.9217601176728797e+05  5.1720848708332778e+05  -5.1061005696270551e+05  1.3183198978811360e+06  -5.0833275477853560e+04  5.1202018239420495e+05  -2.2743775993013542e+05  8.2777713525608939e+04  -3.0216877907778823e+05  1.6307191542726921e+05  -1.5834370062087764e+05  -8.3497393725323665e+05  -1.2772063112244790e+05  2.0963058826983033e+05  9.8006886149267701e+05  2.4737625173787237e+06  -2.2009232592580752e+06  -5.4576481461302890e+05  -4.3616272229209665e+05  -1.2155508010970191e+06  -7.8783755823397849e+04  -3.2853449894987531e+06  -3.5739682493550209e+06  8.4571766989343462e+05  2.0810787910523240e+06  3.7714923850408068e+05  -1.1771043899840268e+06  -9.2994054351487162e+05  6.9469854754847474e+05  -1.3245064285938160e+06  3.7552405211989181e+06  3.4509564526380701e+06  6.1812778173375111e+06  1.3916144409467860e+06  -2.0592660925911259e+05  -5.1192202065927777e+06  -1.9643769905438385e+05  -3.8256644836495137e+06  -2.1517174925751840e+06  -7.5480400673876260e+05  -1.3886359253941050e+06  -1.7286745800161369e+06  4.2352281430341089e+06  9.4413311770813111e+06  1.8163346967721139e+06  -3.1427148828780819e+06  5.8455810909119658e+06  -4.8016451109969954e+05  -4.4930929571251040e+06  3.8670861897881731e+05  -4.1695462161808071e+05  -2.0794984014784056e+06  7.5374956722415294e+06  -9.4647863008511241e+05  -7.1564667778742663e+05  -6.9244848576585099e+05  -6.1822750377977686e+06  6.7891130352876615e+06  8.5917944146388897e+05  5.0184586784616846e+05  1.5050498215857343e+05  2.7853854054532386e+06  -6.9146220965720282e+05  1.2298318760106429e+06  -1.3566489741370941e+06  -3.4153593671150850e+06  3.0062768482243619e+05  -1.5584731413423799e+06  -3.1770807425720883e+06  -7.0147768894536467e+06  -5.0487532234524107e+06  -3.5471438480341411e+05  -1.4630182260660834e+06  -3.8172439777299517e+05  -1.2008237409292662e+06  1.6841594390897916e+05  -2.6177679085788381e+05  6.4054406610825623e+05  -1.0499829347510363e+06  -8.4566426586119179e+05  1.0581515252816358e+06  1.6327256402728692e+05  -2.3996844473527886e+04  1.1766033380708629e+06  -2.0013071630965275e+05  1.0161826352623371e+05  -7.2461046995194847e+04  -1.7744529446130290e+05  6.2436962592296564e+04  4.6691704221281179e+04  1.2636979359656294e+05  -7.5910657411608007e+05  -2.5063453586694645e+05  6.8788238287066401e+04  5.7653400623015645e+04  -5.3755010475741416e+04  4.6779612640197057e+05  9.5646237341487233e+05  -2.2795016199562495e+05  -2.9421446862783469e+05  3.4014219402122329e+05  4.3569919300135336e+05  4.9737598023244226e+05  9.1784556334775244e+05  1.0439173527428498e+06  2.3167890805807686e+06  -3.9510065345523134e+05  -1.3849057709563025e+06  2.0166284535510757e+06  -1.9208423648898333e+04  -1.1560163890565075e+05  1.6590626587790232e+06  1.6925875858388403e+06  -2.4049221456388813e+06  4.3614241598451277e+06  -2.4045962054406009e+06  -5.9072180984329991e+05  1.1430989686180276e+06  -1.1788747634052690e+04  -9.7385751555663184e+05  -4.0006421795139683e+05  -1.6940133581363664e+06  2.2373174846059652e+06  -1.6503517625701746e+06  -2.3302146735532945e+06  6.3219684533165919e+05  -3.7825781459292192e+06  1.4400344436615403e+06  -1.1316320176151638e+05  -9.7571883835169324e+05  -2.0602158047562710e+06  4.8680989120678947e+05  3.1483795888786875e+06  3.4406801101090619e+06  -1.3797181453102019e+06  -3.0081308816639986e+05  2.4783002469145658e+05  7.8067193916734075e+05  -6.1257760622418039e+06  1.2732521630200339e+06  -2.8165030792799790e+05  -9.1642510895869101e+05  1.0895967438964355e+06  -1.9922809824122203e+05  3.5805110147661512e+05  -6.3153300626470323e+05  -1.5803284949155853e+06  -1.1467921438928944e+05  -9.3814266187290906e+05  1.6891414471147244e+06  -1.0372894835922861e+06  1.6622424182237135e+06  -7.4213149610310839e+05  3.5900989255599543e+06  -1.1201711715954149e+06  -2.1125252682324161e+04  6.1918800280155684e+05  -1.0760870869823049e+06  -2.0240404005033494e+05  6.3448546514943358e+05  2.0525823639692867e+05  5.7037927475399128e+05  -2.6802880686980911e+05  5.5592222851924901e+05  3.2504838614470715e+05  1.0017585853223389e+05  -4.7924308970401291e+05  6.9951104499003734e+05  -3.7341719317319547e+05  -9.8520029188764771e+05  -1.3710475388544693e+06  -3.7125036358218160e+04  1.9318742753560052e+06  3.5573491197336814e+06  -1.0131322884476688e+06  1.6340858159473774e+06  5.9562975280649983e+05  2.9569344702801591e+05  -3.2837224054774176e+06  -3.4685427827932916e+04  -2.1031376255209292e+06  -1.7123268250427477e+06  -4.4243460805116760e+04  -1.2695981722126236e+05  7.7105623226230149e+05  1.0461571158412325e+06  8.9928860316148575e+05  1.9374090515744204e+06  6.2953865703153489e+06  3.1534537186542102e+06  9.6576828424336631e+06  2.8106043241442083e+06  7.4069607655944992e+06  6.4708601867454527e+06  8.7621661318402309e+06  4.5666804319772730e+06  -3.3396318648922713e+06  5.6725142003007317e+06  -4.1480736221296727e+06  -5.4654652168035032e+06  -1.1598456077448634e+07  4.9363018444622997e+06  -3.7356172554024109e+06  1.1691739869337673e+05  -5.5154279469851656e+06  1.4666021429326490e+06  3.9696362967960066e+06  -9.0847455656117038e+05  -5.2987132660674220e+06  -2.7033093893572437e+06  -7.3008451483264267e+06  2.1560964966486343e+06  5.3320161207966702e+06  1.9015019395334367e+07  -4.1038276040160336e+05  -5.9101741370626139e+06  1.3934808845536991e+06  -4.1853760974607291e+05  -4.2326565773756159e+06  -5.0787919508062936e+06  -8.1648033945674570e+06  1.4599187190793334e+06  2.3965244582932396e+06  4.1723546764883068e+06  3.9535529940443992e+05  2.2408630326635484e+06  3.6250505283152551e+05  -4.5762322429504734e+05  -3.4017060090620397e+06  -2.3371104242527178e+06  -7.0082791812868733e+06  -1.2029368655289249e+06  2.3189458766031908e+06  1.0382331841591677e+06  5.0986258059967571e+05  4.4578452490945971e+06  1.7861527731940059e+06  1.2254398062392832e+06  -9.1733470291702473e+05  -2.9870408742433041e+06  -4.6050588903880408e+06  -3.5903913715804252e+06  -2.1725203306482229e+06  6.0315211392943119e+05  -1.3440151121807001e+06  -2.6463774288590224e+06  -1.5155345008822873e+06  -1.5614172309080898e+06  -3.0659138451890589e+05  -5.2306879292303923e+05  -2.78