<?xml version="1.0"?>
<VTKFile type="UnstructuredGrid"  version="0.1"  >
<UnstructuredGrid>
<Piece  NumberOfPoints="1369" NumberOfCells="2560">
<Points>
<DataArray  type="Float64"  NumberOfComponents="3"  format="ascii">0 0 0  0.75 0 0  1.5 0 0  2.25 0 0  3 0 0  3.75 0 0  4.5 0 0  5.25 0 0  6 0 0  6.75 0 0  7.5 0 0  8.25 0 0  9 0 0  9.75 0 0  10.5 0 0  11.25 0 0  12 0 0  12.75 0 0  13.5 0 0  14.25 0 0  15 0 0  15.75 0 0  16.5 0 0  17.25 0 0  18 0 0  18.75 0 0  19.5 0 0  20.25 0 0  21 0 0  21.75 0 0  22.5 0 0  23.25 0 0  24 0 0  24.75 0 0  25.5 0 0  26.25 0 0  27 0 0  27.75 0 0  28.5 0 0  29.25 0 0  30 0 0  30.75 0 0  31.5 0 0  32.25 0 0  33 0 0  33.75 0 0  34.5 0 0  35.25 0 0  36 0 0  36.75 0 0  37.5 0 0  38.25 0 0  39 0 0  39.75 0 0  40.5 0 0  41.25 0 0  42 0 0  42.75 0 0  43.5 0 0  44.25 0 0  45 0 0  45.75 0 0  46.5 0 0  47.25 0 0  48 0 0  48.75 0 0  49.5 0 0  50.25 0 0  51 0 0  51.75 0 0  52.5 0 0  53.25 0 0  54 0 0  54.75 0 0  55.5 0 0  56.25 0 0  57 0 0  57.75 0 0  58.5 0 0  59.25 0 0  60 0 0  0 0.5 0  0.75 0.5 0  1.5 0.5 0  2.25 0.5 0  3 0.5 0  3.75 0.5 0  4.5 0.5 0  5.25 0.5 0  6 0.5 0  6.75 0.5 0  7.5 0.5 0  8.25 0.5 0  9 0.5 0  9.75 0.5 0  10.5 0.5 0  11.25 0.5 0  12 0.5 0  12.75 0.5 0  13.5 0.5 0  14.25 0.5 0  15 0.5 0  15.75 0.5 0  16.5 0.5 0  17.25 0.5 0  18 0.5 0  18.75 0.5 0  19.5 0.5 0  20.25 0.5 0  21 0.5 0  21.75 0.5 0  22.5 0.5 0  23.25 0.5 0  24 0.5 0  24.75 0.5 0  25.5 0.5 0  26.25 0.5 0  27 0.5 0  27.75 0.5 0  28.5 0.5 0  29.25 0.5 0  30 0.5 0  30.75 0.5 0  31.5 0.5 0  32.25 0.5 0  33 0.5 0  33.75 0.5 0  34.5 0.5 0  35.25 0.5 0  36 0.5 0  36.75 0.5 0  37.5 0.5 0  38.25 0.5 0  39 0.5 0  39.75 0.5 0  40.5 0.5 0  41.25 0.5 0  42 0.5 0  42.75 0.5 0  43.5 0.5 0  44.25 0.5 0  45 0.5 0  45.75 0.5 0  46.5 0.5 0  47.25 0.5 0  48 0.5 0  48.75 0.5 0  49.5 0.5 0  50.25 0.5 0  51 0.5 0  51.75 0.5 0  52.5 0.5 0  53.25 0.5 0  54 0.5 0  54.75 0.5 0  55.5 0.5 0  56.25 0.5 0  57 0.5 0  57.75 0.5 0  58.5 0.5 0  59.25 0.5 0  60 0.5 0  0 1 0  0.75 1 0  1.5 1 0  2.25 1 0  3 1 0  3.75 1 0  4.5 1 0  5.25 1 0  6 1 0  6.75 1 0  7.5 1 0  8.25 1 0  9 1 0  9.75 1 0  10.5 1 0  11.25 1 0  12 1 0  12.75 1 0  13.5 1 0  14.25 1 0  15 1 0  15.75 1 0  16.5 1 0  17.25 1 0  18 1 0  18.75 1 0  19.5 1 0  20.25 1 0  21 1 0  21.75 1 0  22.5 1 0  23.25 1 0  24 1 0  24.75 1 0  25.5 1 0  26.25 1 0  27 1 0  27.75 1 0  28.5 1 0  29.25 1 0  30 1 0  30.75 1 0  31.5 1 0  32.25 1 0  33 1 0  33.75 1 0  34.5 1 0  35.25 1 0  36 1 0  36.75 1 0  37.5 1 0  38.25 1 0  39 1 0  39.75 1 0  40.5 1 0  41.25 1 0  42 1 0  42.75 1 0  43.5 1 0  44.25 1 0  45 1 0  45.75 1 0  46.5 1 0  47.25 1 0  48 1 0  48.75 1 0  49.5 1 0  50.25 1 0  51 1 0  51.75 1 0  52.5 1 0  53.25 1 0  54 1 0  54.75 1 0  55.5 1 0  56.25 1 0  57 1 0  57.75 1 0  58.5 1 0  59.25 1 0  60 1 0  0 1.5 0  0.75 1.5 0  1.5 1.5 0  2.25 1.5 0  3 1.5 0  3.75 1.5 0  4.5 1.5 0  5.25 1.5 0  6 1.5 0  6.75 1.5 0  7.5 1.5 0  8.25 1.5 0  9 1.5 0  9.75 1.5 0  10.5 1.5 0  11.25 1.5 0  12 1.5 0  12.75 1.5 0  13.5 1.5 0  14.25 1.5 0  15 1.5 0  15.75 1.5 0  16.5 1.5 0  17.25 1.5 0  18 1.5 0  18.75 1.5 0  19.5 1.5 0  20.25 1.5 0  21 1.5 0  21.75 1.5 0  22.5 1.5 0  23.25 1.5 0  24 1.5 0  24.75 1.5 0  25.5 1.5 0  26.25 1.5 0  27 1.5 0  27.75 1.5 0  28.5 1.5 0  29.25 1.5 0  30 1.5 0  30.75 1.5 0  31.5 1.5 0  32.25 1.5 0  33 1.5 0  33.75 1.5 0  34.5 1.5 0  35.25 1.5 0  36 1.5 0  36.75 1.5 0  37.5 1.5 0  38.25 1.5 0  39 1.5 0  39.75 1.5 0  40.5 1.5 0  41.25 1.5 0  42 1.5 0  42.75 1.5 0  43.5 1.5 0  44.25 1.5 0  45 1.5 0  45.75 1.5 0  46.5 1.5 0  47.25 1.5 0  48 1.5 0  48.75 1.5 0  49.5 1.5 0  50.25 1.5 0  51 1.5 0  51.75 1.5 0  52.5 1.5 0  53.25 1.5 0  54 1.5 0  54.75 1.5 0  55.5 1.5 0  56.25 1.5 0  57 1.5 0  57.75 1.5 0  58.5 1.5 0  59.25 1.5 0  60 1.5 0  0 2 0  0.75 2 0  1.5 2 0  2.25 2 0  3 2 0  3.75 2 0  4.5 2 0  5.25 2 0  6 2 0  6.75 2 0  7.5 2 0  8.25 2 0  9 2 0  9.75 2 0  10.5 2 0  11.25 2 0  12 2 0  12.75 2 0  13.5 2 0  14.25 2 0  15 2 0  15.75 2 0  16.5 2 0  17.25 2 0  18 2 0  18.75 2 0  19.5 2 0  20.25 2 0  21 2 0  21.75 2 0  22.5 2 0  23.25 2 0  24 2 0  24.75 2 0  25.5 2 0  26.25 2 0  27 2 0  27.75 2 0  28.5 2 0  29.25 2 0  30 2 0  30.75 2 0  31.5 2 0  32.25 2 0  33 2 0  33.75 2 0  34.5 2 0  35.25 2 0  36 2 0  36.75 2 0  37.5 2 0  38.25 2 0  39 2 0  39.75 2 0  40.5 2 0  41.25 2 0  42 2 0  42.75 2 0  43.5 2 0  44.25 2 0  45 2 0  45.75 2 0  46.5 2 0  47.25 2 0  48 2 0  48.75 2 0  49.5 2 0  50.25 2 0  51 2 0  51.75 2 0  52.5 2 0  53.25 2 0  54 2 0  54.75 2 0  55.5 2 0  56.25 2 0  57 2 0  57.75 2 0  58.5 2 0  59.25 2 0  60 2 0  0 2.5 0  0.75 2.5 0  1.5 2.5 0  2.25 2.5 0  3 2.5 0  3.75 2.5 0  4.5 2.5 0  5.25 2.5 0  6 2.5 0  6.75 2.5 0  7.5 2.5 0  8.25 2.5 0  9 2.5 0  9.75 2.5 0  10.5 2.5 0  11.25 2.5 0  12 2.5 0  12.75 2.5 0  13.5 2.5 0  14.25 2.5 0  15 2.5 0  15.75 2.5 0  16.5 2.5 0  17.25 2.5 0  18 2.5 0  18.75 2.5 0  19.5 2.5 0  20.25 2.5 0  21 2.5 0  21.75 2.5 0  22.5 2.5 0  23.25 2.5 0  24 2.5 0  24.75 2.5 0  25.5 2.5 0  26.25 2.5 0  27 2.5 0  27.75 2.5 0  28.5 2.5 0  29.25 2.5 0  30 2.5 0  30.75 2.5 0  31.5 2.5 0  32.25 2.5 0  33 2.5 0  33.75 2.5 0  34.5 2.5 0  35.25 2.5 0  36 2.5 0  36.75 2.5 0  37.5 2.5 0  38.25 2.5 0  39 2.5 0  39.75 2.5 0  40.5 2.5 0  41.25 2.5 0  42 2.5 0  42.75 2.5 0  43.5 2.5 0  44.25 2.5 0  45 2.5 0  45.75 2.5 0  46.5 2.5 0  47.25 2.5 0  48 2.5 0  48.75 2.5 0  49.5 2.5 0  50.25 2.5 0  51 2.5 0  51.75 2.5 0  52.5 2.5 0  53.25 2.5 0  54 2.5 0  54.75 2.5 0  55.5 2.5 0  56.25 2.5 0  57 2.5 0  57.75 2.5 0  58.5 2.5 0  59.25 2.5 0  60 2.5 0  0 3 0  0.75 3 0  1.5 3 0  2.25 3 0  3 3 0  3.75 3 0  4.5 3 0  5.25 3 0  6 3 0  6.75 3 0  7.5 3 0  8.25 3 0  9 3 0  9.75 3 0  10.5 3 0  11.25 3 0  12 3 0  12.75 3 0  13.5 3 0  14.25 3 0  15 3 0  15.75 3 0  16.5 3 0  17.25 3 0  18 3 0  18.75 3 0  19.5 3 0  20.25 3 0  21 3 0  21.75 3 0  22.5 3 0  23.25 3 0  24 3 0  24.75 3 0  25.5 3 0  26.25 3 0  27 3 0  27.75 3 0  28.5 3 0  29.25 3 0  30 3 0  30.75 3 0  31.5 3 0  32.25 3 0  33 3 0  33.75 3 0  34.5 3 0  35.25 3 0  36 3 0  36.75 3 0  37.5 3 0  38.25 3 0  39 3 0  39.75 3 0  40.5 3 0  41.25 3 0  42 3 0  42.75 3 0  43.5 3 0  44.25 3 0  45 3 0  45.75 3 0  46.5 3 0  47.25 3 0  48 3 0  48.75 3 0  49.5 3 0  50.25 3 0  51 3 0  51.75 3 0  52.5 3 0  53.25 3 0  54 3 0  54.75 3 0  55.5 3 0  56.25 3 0  57 3 0  57.75 3 0  58.5 3 0  59.25 3 0  60 3 0  0 3.5 0  0.75 3.5 0  1.5 3.5 0  2.25 3.5 0  3 3.5 0  3.75 3.5 0  4.5 3.5 0  5.25 3.5 0  6 3.5 0  6.75 3.5 0  7.5 3.5 0  8.25 3.5 0  9 3.5 0  9.75 3.5 0  10.5 3.5 0  11.25 3.5 0  12 3.5 0  12.75 3.5 0  13.5 3.5 0  14.25 3.5 0  15 3.5 0  15.75 3.5 0  16.5 3.5 0  17.25 3.5 0  18 3.5 0  18.75 3.5 0  19.5 3.5 0  20.25 3.5 0  21 3.5 0  21.75 3.5 0  22.5 3.5 0  23.25 3.5 0  24 3.5 0  24.75 3.5 0  25.5 3.5 0  26.25 3.5 0  27 3.5 0  27.75 3.5 0  28.5 3.5 0  29.25 3.5 0  30 3.5 0  30.75 3.5 0  31.5 3.5 0  32.25 3.5 0  33 3.5 0  33.75 3.5 0  34.5 3.5 0  35.25 3.5 0  36 3.5 0  36.75 3.5 0  37.5 3.5 0  38.25 3.5 0  39 3.5 0  39.75 3.5 0  40.5 3.5 0  41.25 3.5 0  42 3.5 0  42.75 3.5 0  43.5 3.5 0  44.25 3.5 0  45 3.5 0  45.75 3.5 0  46.5 3.5 0  47.25 3.5 0  48 3.5 0  48.75 3.5 0  49.5 3.5 0  50.25 3.5 0  51 3.5 0  51.75 3.5 0  52.5 3.5 0  53.25 3.5 0  54 3.5 0  54.75 3.5 0  55.5 3.5 0  56.25 3.5 0  57 3.5 0  57.75 3.5 0  58.5 3.5 0  59.25 3.5 0  60 3.5 0  0 4 0  0.75 4 0  1.5 4 0  2.25 4 0  3 4 0  3.75 4 0  4.5 4 0  5.25 4 0  6 4 0  6.75 4 0  7.5 4 0  8.25 4 0  9 4 0  9.75 4 0  10.5 4 0  11.25 4 0  12 4 0  12.75 4 0  13.5 4 0  14.25 4 0  15 4 0  15.75 4 0  16.5 4 0  17.25 4 0  18 4 0  18.75 4 0  19.5 4 0  20.25 4 0  21 4 0  21.75 4 0  22.5 4 0  23.25 4 0  24 4 0  24.75 4 0  25.5 4 0  26.25 4 0  27 4 0  27.75 4 0  28.5 4 0  29.25 4 0  30 4 0  30.75 4 0  31.5 4 0  32.25 4 0  33 4 0  33.75 4 0  34.5 4 0  35.25 4 0  36 4 0  36.75 4 0  37.5 4 0  38.25 4 0  39 4 0  39.75 4 0  40.5 4 0  41.25 4 0  42 4 0  42.75 4 0  43.5 4 0  44.25 4 0  45 4 0  45.75 4 0  46.5 4 0  47.25 4 0  48 4 0  48.75 4 0  49.5 4 0  50.25 4 0  51 4 0  51.75 4 0  52.5 4 0  53.25 4 0  54 4 0  54.75 4 0  55.5 4 0  56.25 4 0  57 4 0  57.75 4 0  58.5 4 0  59.25 4 0  60 4 0  0.375 0.25 0  1.125 0.25 0  1.875 0.25 0  2.625 0.25 0  3.375 0.25 0  4.125 0.25 0  4.875 0.25 0  5.625 0.25 0  6.375 0.25 0  7.125 0.25 0  7.875 0.25 0  8.625 0.25 0  9.375 0.25 0  10.125 0.25 0  10.875 0.25 0  11.625 0.25 0  12.375 0.25 0  13.125 0.25 0  13.875 0.25 0  14.625 0.25 0  15.375 0.25 0  16.125 0.25 0  16.875 0.25 0  17.625 0.25 0  18.375 0.25 0  19.125 0.25 0  19.875 0.25 0  20.625 0.25 0  21.375 0.25 0  22.125 0.25 0  22.875 0.25 0  23.625 0.25 0  24.375 0.25 0  25.125 0.25 0  25.875 0.25 0  26.625 0.25 0  27.375 0.25 0  28.125 0.25 0  28.875 0.25 0  29.625 0.25 0  30.375 0.25 0  31.125 0.25 0  31.875 0.25 0  32.625 0.25 0  33.375 0.25 0  34.125 0.25 0  34.875 0.25 0  35.625 0.25 0  36.375 0.25 0  37.125 0.25 0  37.875 0.25 0  38.625 0.25 0  39.375 0.25 0  40.125 0.25 0  40.875 0.25 0  41.625 0.25 0  42.375 0.25 0  43.125 0.25 0  43.875 0.25 0  44.625 0.25 0  45.375 0.25 0  46.125 0.25 0  46.875 0.25 0  47.625 0.25 0  48.375 0.25 0  49.125 0.25 0  49.875 0.25 0  50.625 0.25 0  51.375 0.25 0  52.125 0.25 0  52.875 0.25 0  53.625 0.25 0  54.375 0.25 0  55.125 0.25 0  55.875 0.25 0  56.625 0.25 0  57.375 0.25 0  58.125 0.25 0  58.875 0.25 0  59.625 0.25 0  0.375 0.75 0  1.125 0.75 0  1.875 0.75 0  2.625 0.75 0  3.375 0.75 0  4.125 0.75 0  4.875 0.75 0  5.625 0.75 0  6.375 0.75 0  7.125 0.75 0  7.875 0.75 0  8.625 0.75 0  9.375 0.75 0  10.125 0.75 0  10.875 0.75 0  11.625 0.75 0  12.375 0.75 0  13.125 0.75 0  13.875 0.75 0  14.625 0.75 0  15.375 0.75 0  16.125 0.75 0  16.875 0.75 0  17.625 0.75 0  18.375 0.75 0  19.125 0.75 0  19.875 0.75 0  20.625 0.75 0  21.375 0.75 0  22.125 0.75 0  22.875 0.75 0  23.625 0.75 0  24.375 0.75 0  25.125 0.75 0  25.875 0.75 0  26.625 0.75 0  27.375 0.75 0  28.125 0.75 0  28.875 0.75 0  29.625 0.75 0  30.375 0.75 0  31.125 0.75 0  31.875 0.75 0  32.625 0.75 0  33.375 0.75 0  34.125 0.75 0  34.875 0.75 0  35.625 0.75 0  36.375 0.75 0  37.125 0.75 0  37.875 0.75 0  38.625 0.75 0  39.375 0.75 0  40.125 0.75 0  40
[...]
<PointData  Scalars="f_8-1"> 
<DataArray  type="Float64"  Name="f_8-1"  format="ascii">1.0215866676226642e+05  4.7046269330854426e+04  -1.9554115219551626e+04  -7.7725140761552495e+04  -1.0176231257646633e+05  -1.3882347100997390e+05  1.2511554740313435e+05  1.5977235246552300e+05  2.0645928420529654e+05  6.4129663876623054e+04  2.0590031469352142e+05  1.4623363931836220e+05  1.6782058076742143e+05  3.6203264374888508e+05  3.2402743268214964e+05  4.3833542034890875e+05  4.6287649308046173e+04  1.7213535430346199e+05  2.8068118212352495e+05  1.0600904654997302e+05  -1.0412816277170036e+05  -4.8332070299903606e+05  4.9541987533967994e+05  3.6114083700163546e+05  4.4097392905418732e+05  4.6399135431158188e+05  3.5653001107109827e+04  1.5202838108867678e+05  -5.6704005821276740e+04  -2.1260372385949589e+05  1.3121816346682765e+05  5.4631092047331869e+04  -1.2079455386534038e+05  -1.7872037337540864e+05  -2.1479895699918485e+04  -4.2392814912284855e+04  6.6421522931591069e+04  1.7777973009357930e+05  4.5599097848412879e+04  5.6988343267424782e+04  6.7040536403833059e+04  -2.5453323972249891e+04  9.3353640259546191e+03  -5.2852790768300336e+04  6.3665893569449829e+04  -7.5525876132015137e+03  -2.2488244420028070e+04  1.6911102735473862e+05  3.1553898942294926e+05  1.4557592064425439e+05  3.4382939621870389e+05  -1.0237545812426372e+05  1.0787974613800984e+05  3.0399919864265365e+05  9.7249845417832184e+04  4.8114172120306903e+05  7.3731649459516269e+05  1.2743991024726526e+05  -2.1466951871953852e+05  1.6440819721010750e+04  6.5313982471413416e+04  -3.5046866856548912e+05  2.6363537138310593e+05  1.3573657873558151e+05  -3.0291496012084913e+06  8.8324491692129336e+05  -9.2427609693619408e+04  -2.1087630241534172e+05  6.8843199945499469e+05  1.2349629634333826e+06  4.9219652377539279e+05  -6.1502791522511840e+05  4.3460800637101958e+05  -4.6375454810037976e+05  -2.2097713217952457e+05  -8.8396498895061365e+05  -4.2056786560970335e+05  -6.9873163341702399e+04  2.0986319779427070e+05  -9.9158983851667930e+04  -1.1846192371815890e+05  2.5104265333042320e+04  -9.5432180823285726e+03  -6.6699832263316566e+04  1.5938517596444439e+04  -1.0984480806028053e+05  -5.3459954063596277e+04  -1.6828840129169774e+04  3.4947238927638624e+04  2.3035775208158721e+05  9.4112059670728908e+04  9.2776856452201930e+04  2.2811568695096200e+05  1.7883691411275583e+05  2.4657144655901112e+05  5.3891939629485467e+04  3.6081611206506414e+05  4.0647492312848510e+05  1.1505411763451595e+05  5.8375897391049279e+04  2.9543267281903391e+05  2.2627361350565980e+05  -3.5204707924317679e+05  1.2185427185232136e+05  1.6619108782007811e+02  2.5791683958894090e+05  4.4499020882588055e+05  -3.0004341403277449e+04  3.3983755685042917e+04  -9.7742652995095137e+04  1.7235964627607646e+04  -3.5415170435730353e+04  -1.1426690789254219e+05  -3.1255091788853455e+05  -1.1726688277915576e+05  -2.0749440452463961e+04  7.3893161073160823e+04  2.8799485726241004e+04  1.3261659990831293e+05  4.7864111669195423e+04  1.1393180881415810e+05  1.2527105436888754e+04  2.4296458827608294e+04  7.1996524270335817e+02  7.6403578345686605e+04  -1.2866391486356770e+05  1.5281983254891462e+04  4.5553562545994828e+04  1.5881707710220377e+05  4.0050201805702958e+05  2.0996974680839953e+05  3.8349794822161441e+05  6.0969219281158272e+04  -1.4698304105946035e+05  2.0402675706940040e+05  1.2293492328407441e+05  5.2120221780775540e+05  4.0806422829708084e+05  3.5349994446756627e+05  4.7623656352927683e+04  -5.5986533705428694e+04  8.3984297422661941e+04  4.9118720071049402e+03  6.1620799196285327e+04  -2.2779164133245291e+05  -8.1001127259150008e+05  2.4962231008586171e+05  2.5145131571368765e+05  1.3478212882981575e+05  2.8276028810004372e+05  1.0069984812176968e+06  5.0267079150760930e+05  -5.6376889218285866e+05  -7.3970755179949303e+05  -1.2422550883223658e+05  -3.0176412675403606e+05  -6.8757517924067460e+05  2.7782027534348250e+05  9.7550302898312322e+04  2.5278424342135881e+05  -1.1876583858603195e+05  1.2409643939858372e+05  -3.1675462371702226e+04  1.1028931952795745e+04  -1.1195414687919421e+04  -3.8353705553272506e+04  -9.1919793331054403e+04  -1.5227542693958443e+05  6.8129748569950652e+03  1.0440351833501058e+04  1.5135047311594433e+05  1.4969325311210254e+05  8.3877144327158443e+04  3.1402970092279094e+04  2.7532664627117524e+05  1.9160414640460382e+05  2.2464668849249923e+05  1.3926305901258087e+05  6.6862261933039525e+05  2.5185610061743174e+05  5.4828272977668711e+05  1.7974711704886076e+05  9.0692013534683691e+04  -4.0007791710995101e+04  -6.2237160309289546e+04  -8.3282035565534461e+03  2.2027792765144323e+05  1.6003542326422301e+05  5.6436893659768277e+04  -2.4683963318285058e+05  -3.3881529204828432e+05  1.7665580320130740e+05  -3.7340104298092971e+04  -3.0842769378127559e+05  -1.5364435971994619e+05  1.3720988005640134e+05  1.9772237027055991e+04  6.1733057383066116e+04  9.3036542514270259e+04  8.1742365570249312e+04  7.4558883309045807e+04  4.7947928791010418e+02  -6.1756883162593484e+04  1.3830007392398457e+05  -7.3604885995416567e+04  9.4720604267887284e+03  -1.7959658358105947e+05  -8.3616619777613290e+04  -3.7847535072751448e+01  1.5954013231480244e+05  7.9853839631273513e+04  2.1003479062452324e+05  1.6068847488362939e+04  1.3827434761582167e+05  2.2839365483143614e+05  -3.1711958299081116e+03  6.4113644421933619e+04  2.6240564567563520e+05  2.7692665720123448e+05  1.0771740889703690e+05  -7.5082938728989568e+04  -2.0309296729448554e+05  1.9192979294715921e+05  -1.1483591731195481e+05  -3.1201343294347683e+05  -4.0095698362781812e+05  -4.4765892017879908e+05  -9.0097496454799417e+04  4.9259966413272993e+05  4.3482677535694867e+05  -4.0226050540478714e+05  2.9656649909746594e+05  1.3309763716214097e+06  -1.9899750720491464e+05  -4.2508357734306093e+05  -5.9153674647782859e+05  -2.5036883732971321e+04  -5.3774441723201203e+05  -2.1832256130385786e+05  -8.6268747750028362e+05  2.0774930918045162e+05  -3.5510637088668538e+05  -1.2416987736088687e+05  -1.2171306661635528e+04  -7.2859568484783056e+04  -2.0790710566575901e+04  -7.6472769371970513e+04  1.0896434481401175e+04  -6.2402522367335507e+04  -6.7685514470560476e+04  -1.2892105569099629e+05  2.7153399898751901e+04  9.4804122539090808e+04  -6.9140794606622876e+04  2.7381184957760124e+04  3.4737616117435205e+05  1.5669824427459552e+05  -1.2133629365889690e+05  1.8893042129002383e+05  1.0603062534083477e+05  2.6914391004898353e+05  1.2987474529583397e+05  8.2851394911863856e+04  2.9547977506979933e+04  -1.5271305255602771e+04  -1.7452054491740893e+05  6.0368125553050282e+04  3.6752660933732992e+05  -1.3585443041658273e+05  -1.2886767343521296e+05  -7.1902407044072374e+04  -2.9967345878436131e+05  -9.9142561315059080e+04  -1.0938342753982238e+05  -3.5681588017176349e+04  -5.8913390813903672e+04  -5.0448550099552413e+04  3.6185503923168726e+04  8.1540436527075246e+04  1.2380902290191373e+05  1.3612177143785145e+05  5.7438536169705461e+04  -5.1498583657086747e+04  -5.1460799572007651e+04  -1.0096912611241339e+05  -6.5424172672330489e+04  4.5556934569628611e+04  -1.4725196893818711e+05  -2.6353319677398278e+04  -1.8874075858892448e+05  3.2504924236169813e+05  2.3344588567622419e+05  3.2938020467857114e+05  8.6486847688891823e+04  6.8289537412386984e+04  3.5202233425236140e+04  8.1799830152265436e+04  9.2991034461707877e+03  4.1219749684286641e+05  2.6352241419602247e+04  2.1584404740937619e+05  -1.5488154453299541e+05  7.0166549930367357e+04  -6.2366558785190561e+05  -1.2125933294612976e+04  -2.2542304635411681e+05  -2.2870748490501646e+05  -1.0046971053853181e+05  1.4885255427836941e+05  2.5967417374494177e+05  -1.6732830734510525e+05  2.7313130237317743e+05  -2.4104236995446449e+05  1.0401957603216717e+06  -1.8518501148275568e+05  -2.9339646441592893e+05  -3.9486370110231993e+05  -1.2179349855414170e+05  2.2198759516868836e+05  -6.8151489714025869e+05  1.1327917291553051e+04  6.0935062234341225e+04  -3.2534765953985578e+05  2.3359147203778336e+05  -3.4232249791671657e+03  -5.7238719856708805e+04  2.7475341701168494e+04  -6.7166724937289764e+04  -8.5693734284331731e+04  1.1530265230576681e+05  -1.6085035300767183e+05  -2.7509170638334826e+03  -1.2487106911074171e+05  -1.4106503359102641e+05  6.1739419542994146e+03  -5.2607103304814691e+03  4.1893855295003828e+05  -1.9375113428465331e+04  -4.2547357749157399e+05  1.9592322904686868e+05  -5.7806942479185376e+05  4.2552193082720134e+05  1.7528430346105807e+05  -2.8613777853752454e+04  5.7592203044183116e+04  -1.4180255361909865e+05  5.1636114899547375e+05  2.4979220230838277e+04  -1.6634770416807936e+05  -1.5263358353466676e+04  -2.5361384619622820e+05  -1.3123992421355302e+05  -9.7796572944041793e+04  1.3800476690882703e+05  2.6135751099827522e+05  -7.4302014697629682e+04  -2.4686372349022893e+05  3.8813647086826430e+04  2.8793033728311104e+04  3.0514766148785889e+03  2.5137329185676048e+04  1.4947233870193080e+05  -6.3067155878271857e+04  1.2438481287173857e+05  -9.2017774461855835e+04  -1.0727684289501892e+03  2.4334219032718127e+04  -1.5593342409162057e+05  -8.7003733052449170e+04  -8.8286049939529694e+04  -3.0316324375994026e+05  3.0928342444487942e+04  2.6900955553659471e+05  3.4143415376795916e+05  1.5218490639031064e+05  1.3511961519943574e+05  -1.4608617075158649e+04  -5.8202739074873680e+04  -2.3954841603137867e+05  -5.5421861839650164e+05  -9.2631066305887962e+03  -1.4085406265545523e+05  1.7411428365138220e+05  -1.0746434367873549e+05  -3.0225640284590266e+05  -3.6478550079082767e+05  -7.2422652931094417e+04  -1.7145215958187626e+04  -8.6293525861085636e+03  -6.1081378363339471e+04  1.4294254984767476e+05  -7.1085027372163138e+04  -2.9527218134185363e+05  -2.5249015728443454e+05  1.5029979334395257e+05  -1.7558712239459355e+05  2.3351455247262589e+05  3.7206643321604679e+04  -7.0121809788823931e+05  5.1954483969278066e+04  1.3773507914533175e+05  2.1805141986170705e+05  -2.4816819116459483e+03  -2.2418956199493769e+05  5.9980231077071636e+04  -4.0372313395164841e+04  2.6763732113256960e+04  1.2896531205564772e+04  3.6937950280607496e+04  -1.2861890025901830e+04  3.6676040248578291e+04  8.3985955977527134e+04  -3.4310801705453829e+04  -4.0820909632735253e+04  -6.6868054771906172e+04  -2.3991850577396817e+04  -5.4280214762534351e+03  2.0515868300718041e+04  -6.1786931527782814e+04  -1.6559323474067735e+05  1.5408703615768653e+05  3.5908767576877835e+04  -4.4182388973581971e+05  1.3429065429059649e+05  6.6783474606866424e+04  -1.0094131666315248e+05  -3.7077869510987453e+04  4.4274874817157432e+05  -1.9865072862433409e+05  -2.6690990253320738e+05  1.5524143975614518e+05  3.2203014426463429e+05  -6.9695843368208007e+04  4.9831180742393335e+04  5.8956595607712130e+04  -2.3472720169848268e+04  9.2360148649286741e+04  -1.4586759730444540e+05  4.5502238687002333e+04  -2.5850483442002158e+04  7.7891940483393177e+04  1.4496250575912634e+04  6.7269661567417788e+04  3.4995087918908546e+04  -1.8492542844394156e+04  3.1105391914059604e+04  -2.3092345705562306e+05  5.1080607528666398e+04  -1.4594156854714791e+05  -1.3186391480371662e+05  -7.6195477764673939e+04  -9.7758554016436901e+04  2.9714672293670085e+05  1.2283613566795987e+05  2.0411700465838611e+05  1.0093987510759922e+05  2.2242956646532268e+05  1.8526638373094158e+03  -2.8214719453483407e+05  -1.4061009838390673e+05  -6.9738109350382278e+04  -1.6380406322799934e+05  -3.0233417515174439e+05  -4.1132676063517494e+04  -4.2709858085629305e+04  -3.4096301036991627e+05  -5.8623351115987462e+04  -1.3708371894166071e+05  2.1332605963150319e+04  2.6273847673379158e+05  -1.9221777348982883e+05  -1.7938760791439316e+05  7.2348541241707746e+04  -4.1031403521015821e+05  -4.2163327682471590e+05  4.7713473240122703e+03  1.3700592127859457e+06  -1.2384690918206726e+05  3.3994508360888826e+05  1.1967088260312255e+05  1.2665177608685555e+05  5.1978608221400485e+04  1.7462153454992565e+05  2.3323401301532343e+05  -1.1272992220265896e+05  -1.2297410156886363e+04  3.4619238950642430e+04  -4.9055380025870341e+04  8.4788459559514231e+04  5.7801819252951376e+04  6.9323241457785029e+04  -7.1303683182147342e+03  8.0586990757901702e+04  -6.9184229833674093e+04  -6.6270061802626646e+04  -5.8869905899728299e+04  -7.4221545670839005e+03  -3.7773636778728171e+04  1.0919508925262105e+05  -1.9523952074626388e+05  -3.1822814078333166e+04  3.8844680405717867e+04  4.5884246794050909e+04  -1.6009032844315766e+05  -2.3158739800771837e+04  8.4850875945043605e+04  1.3445696540641834e+05  2.2867386555154833e+04  1.6983108512732151e+05  1.9334578977382006e+05  -2.3483640407763919e+05  -5.0743011081826826e+03  -1.0488810669921673e+05  1.7995723499814441e+05  -1.1130440722993240e+05  2.2145594954198250e+05  -1.7208518290907273e+05  -3.8468916807802649e+04  -5.9090855430672833e+04  -6.5800230071968137e+04  -1.5136256958791814e+05  1.1196819974189310e+05  5.6572000221128919e+03  6.9533334859425022e+03  -9.7375765898802524e+02  -3.8501293055972485e+04  3.1351858621116218e+04  -7.3695180593039477e+04  5.0563576152117321e+03  -1.4120922609943667e+05  1.0003589869940048e+04  -1.3014628259577211e+05  -9.3859016569860614e+03  -2.3139227001467417e+05  7.3932811312647143e+04  4.8562590603424382e+04  5.5245042206527294e+04  1.8317706277397732e+05  -1.5076167885297857e+05  -8.1627992732357496e+04  -4.4018217010693171e+05  -2.6618320202347159e+05  -6.6048314485494629e+03  -4.9422188746733585e+05  3.3750298534632420e+04  -1.7366534972217437e+05  -1.4377011695397415e+05  1.4450614796605150e+04  -2.4922792420980404e+04  2.1736793131488623e+04  -1.3031389778214956e+05  -2.3623293537700688e+05  -3.7669873901155178e+05  -2.9895264486980432e+05  -5.6094450823904190e+05  -1.5668492884534475e+05  1.6753782389371021e+05  1.1511137981587919e+05  6.4790768965021160e+05  -9.8826228307296304e+04  -2.0595220619581427e+05  1.8478491519090999e+05  5.1668895109091842e+04  1.9835000546973490e+05  3.3645248709368869e+05  -1.5541920332063240e+05  4.8755230856088136e+04  -1.0958944973449695e+03  -4.7550183806434943e+03  -4.4625422870666509e+04  3.1091161566295068e+04  -3.8959504456688868e+04  1.0273771796950532e+05  6.3425075335589820e+04  -8.6436891545694409e+04  -4.3759338823070648e+04  -5.7057681940423856e+04  -1.3296430135177076e+05  9.7733481981544915e+04  8.7783794890640551e+04  -4.4017684396457980e+03  -1.3087755185149706e+05  7.3780755803506923e+04  -1.0142166397421373e+05  -5.5499715549336157e+04  -1.0225249816046095e+05  4.8152996060113481e+04  5.7675080450430010e+04  1.7869131896448895e+05  9.8656195176490364e+04  -1.5132253501010877e+04  -2.0733773912835727e+05  1.7331414143238161e+05  -9.3417878626702557e+04  -1.1013767387809567e+05  6.4485817555541573e+04  -4.8486640132263426e+04  4.7011971746856971e+03  -1.3580547786477365e+05  2.4721330930068780e+04  1.9761909063832292e+04  7.7721980257119154e+04  2.5574096343703994e+04  1.5211479017712909e+05  -3.3659750851587087e+04  4.1007071553451206e+04  -9.4731659649857938e+03  1.0539171657370056e+04  -9.9320773962307474e+04  -1.1927381987519719e+05  4.5634266237933167e+04  -3.4379363994045947e+04  1.0269182887921105e+05  -1.2867000881767219e+05  -4.7445471212321572e+04  -7.9160578755352646e+04  1.1691272225775188e+05  -8.5769584819506941e+04  3.6187871203839815e+04  -4.5924703050448996e+04  -2.2449182459998578e+04  2.5635594894795748e+04  -1.9415890459468571e+05  -4.9072019322022745e+04  -6.7208880974290063e+04  -3.1667293709176447e+05  -3.2209480785633432e+05  8.4117177031009869e+03  1.1525196069871219e+04  7.1697850040846955e+04  1.0636492117312818e+05  1.6950817812808711e+05  -1.2610269518463880e+05  -1.8325914584317137e+05  -2.0830753417933514e+05  -2.3196401690754996e+05  3.2112994605802337e+03  -7.7040364951914002e+04  7.1181833406912105e+05  -3.9085090468916547e+05  -8.1657839754707646e+05  -7.4816068229244929e+05  -9.5625357661125323e+04  4.8461469964377786e+04  2.7839045481128906e+04  1.9584102106079095e+05  -3.5102891368222925e+04  5.4273022404678246e+04  -1.3319623021134215e+04  9.8273179098852070e+03  6.2725178792035913e+04  -8.3460967884125581e+04  3.3091349961060660e+04  8.1536277377989272e+03  4.3281595138963030e+03  1.7239605051733583e+04  2.9518277886263145e+03  2.8065985366835932e+04  -3.7209874348190911e+04  3.9514135767233289e+04  -2.6054619597841058e+04  2.1415946978569787e+04  -1.1808877223193478e+04  -3.0872999635509655e+04  3.2660721419088595e+03  -2.1586335872376425e+04  -9.2035549036087250e+04  4.3876106536725769e+04  9.1307039973000443e+04  -1.2396605471494443e+05  9.4330021735168746e+04  7.2449558384651260e+04  -6.3105669474963019e+04  -1.4886444474659293e+05  -9.9630682151825371e+04  3.9130765343177489e+04  5.7335667527125312e+04  8.7592548090099244e+03  5.0371309892206809e+04  -5.5415372009858904e+04  3.1442258294457552e+04  -3.1746983348878384e+03  1.9893398370676707e+03  -1.0042694892410718e+04  5.1481999245302832e+03  9.7008998649064451e+03  -4.4710101105563417e+03  1.0324662904467561e+04  -5.7716070115886723e+03  -1.1704184760466929e+04  -9.6339159967308267e+04  1.1990411197311578e+05  4.9979276367444065e+04  -3.2402086816668099e+04  -2.7575376335408862e+04  4.2850518584957113e+04  7.3022124374489023e+04  1.7729136322057737e+04  -4.7468012889802769e+04  -3.0332456220560325e+04  3.3854621863385175e+04  7.3755335584826811e+04  1.8426352678457952e+04  -6.2752928149461477e+04  -5.7819204112624193e+03  1.0789333812257517e+05  -2.0509314028074179e+05  3.0457298217019765e+05  -2.5989080839723210e+04  -2.7300613160198787e+05  1.0240715149890253e+05  -1.1394427666098438e+05  -2.8899212315893965e+04  -2.4257250803272243e+05  1.2659576519142622e+05  -3.5300792393554890e+04  2.0015459672205034e+05  -6.2875574885924914e+04  -7.8902237055605638e+03  1.1617829979206168e+05  8.4325001405249859e+04  5.9918396996235017e+04  -3.0560526658965748e+04  1.4803059636482759e+05  2.6831877968672525e+04  8.1208083625182644e+03  -7.6537977151552681e+04  9.6258283749266975e+03  1.7099493656164886e+04  6.5238409090627692e+03  -4.3488079313795781e+04  3.2911937890272515e+04  -6.9991336899361544e+04  -1.3598325787752128e+05  -1.0080932767800953e+05  2.2500908948242202e+05  1.0435137365259707e+05  1.7036093344554605e+05  1.2714998417865711e+05  7.3707549753020762e+05  3.1565306390199257e+05  2.2020789787550515e+05  3.6130982189136138e+05  3.6774918489097396e+05  2.9535658318322833e+05  -6.3640336498580553e+04  -7.4147291295918185e+04  -2.4968395000829394e+04  5.0909471107538696e+05  -5.1630914947857376e+05  -5.7246273481340504e+04  2.3082321281839526e+05  1.7670704423152292e+05  1.5091176020907017e+05  1.9783855899178190e+05  -1.1233525287778575e+04  -3.7228600514755344e+03  -1.0162250325022351e+05  -9.6698083145254219e+04  3.6751366997431812e+05  -2.9322775361269389e+04  -6.2826206545871231e+04  -1.2140092944042635e+05  1.4933066383167577e+05  5.8001716456684699e+04  1.0607932785897175e+05  1.7250912804121702e+05  5.3493052595550122e+04  -6.5255004851626734e+04  1.1085048906963691e+05  -1.0938691964553029e+03  3.7088821556440798e+03  -3.4134007758324283e+03  -6.4160394548001685e+04  1.1472428579092497e+05  1.4720161848268492e+05  2.7392093192740023e+05  1.8674306038086314e+05  2.3946809520874874e+05  1.6507456002448563e+05  -1.0047572682378319e+05  -1.0498238675988467e+05  1.7415066398289437e+04  3.5701857811673707e+05  4.2477246068746853e+05  1.9478981014854627e+05  -1.5949769732592496e+05  -1.4597891812000293e+05  6.4094349648156982e+04  -4.7467053409324831e+05  6.1722539209953347e+03  -1.6771317451848648e+05  1.3569918156103601e+05  -8.4735663392606447e+05  3.8337964214184886e+05  -2.1078815226266021e+05  3.5633969053884246e+05  8.8740227667725319e+05  1.1316420640891572e+06  -7.9925127407649590e+04  -8.4162170636127947e+05  -1.4054237958735405e+05  -2.1766033232840936e+05  -4.8448731099790725e+05  -4.0030437711308325e+04  -1.0070667331223353e+05  7.8743652075417194e+04  -4.4022038752617327e+03  -1.9255597097497658e+05  1.7329196113793892e+04  7.0889996710397172e+04  4.5011572684608371e+04  -3.7284983294353100e+04  -1.30883163176756