<?xml version="1.0"?>
<VTKFile type="UnstructuredGrid"  version="0.1"  >
<UnstructuredGrid>
<Piece  NumberOfPoints="1369" NumberOfCells="2560">
<Points>
<DataArray  type="Float64"  NumberOfComponents="3"  format="ascii">0 0 0  0.75 0 0  1.5 0 0  2.25 0 0  3 0 0  3.75 0 0  4.5 0 0  5.25 0 0  6 0 0  6.75 0 0  7.5 0 0  8.25 0 0  9 0 0  9.75 0 0  10.5 0 0  11.25 0 0  12 0 0  12.75 0 0  13.5 0 0  14.25 0 0  15 0 0  15.75 0 0  16.5 0 0  17.25 0 0  18 0 0  18.75 0 0  19.5 0 0  20.25 0 0  21 0 0  21.75 0 0  22.5 0 0  23.25 0 0  24 0 0  24.75 0 0  25.5 0 0  26.25 0 0  27 0 0  27.75 0 0  28.5 0 0  29.25 0 0  30 0 0  30.75 0 0  31.5 0 0  32.25 0 0  33 0 0  33.75 0 0  34.5 0 0  35.25 0 0  36 0 0  36.75 0 0  37.5 0 0  38.25 0 0  39 0 0  39.75 0 0  40.5 0 0  41.25 0 0  42 0 0  42.75 0 0  43.5 0 0  44.25 0 0  45 0 0  45.75 0 0  46.5 0 0  47.25 0 0  48 0 0  48.75 0 0  49.5 0 0  50.25 0 0  51 0 0  51.75 0 0  52.5 0 0  53.25 0 0  54 0 0  54.75 0 0  55.5 0 0  56.25 0 0  57 0 0  57.75 0 0  58.5 0 0  59.25 0 0  60 0 0  0 0.5 0  0.75 0.5 0  1.5 0.5 0  2.25 0.5 0  3 0.5 0  3.75 0.5 0  4.5 0.5 0  5.25 0.5 0  6 0.5 0  6.75 0.5 0  7.5 0.5 0  8.25 0.5 0  9 0.5 0  9.75 0.5 0  10.5 0.5 0  11.25 0.5 0  12 0.5 0  12.75 0.5 0  13.5 0.5 0  14.25 0.5 0  15 0.5 0  15.75 0.5 0  16.5 0.5 0  17.25 0.5 0  18 0.5 0  18.75 0.5 0  19.5 0.5 0  20.25 0.5 0  21 0.5 0  21.75 0.5 0  22.5 0.5 0  23.25 0.5 0  24 0.5 0  24.75 0.5 0  25.5 0.5 0  26.25 0.5 0  27 0.5 0  27.75 0.5 0  28.5 0.5 0  29.25 0.5 0  30 0.5 0  30.75 0.5 0  31.5 0.5 0  32.25 0.5 0  33 0.5 0  33.75 0.5 0  34.5 0.5 0  35.25 0.5 0  36 0.5 0  36.75 0.5 0  37.5 0.5 0  38.25 0.5 0  39 0.5 0  39.75 0.5 0  40.5 0.5 0  41.25 0.5 0  42 0.5 0  42.75 0.5 0  43.5 0.5 0  44.25 0.5 0  45 0.5 0  45.75 0.5 0  46.5 0.5 0  47.25 0.5 0  48 0.5 0  48.75 0.5 0  49.5 0.5 0  50.25 0.5 0  51 0.5 0  51.75 0.5 0  52.5 0.5 0  53.25 0.5 0  54 0.5 0  54.75 0.5 0  55.5 0.5 0  56.25 0.5 0  57 0.5 0  57.75 0.5 0  58.5 0.5 0  59.25 0.5 0  60 0.5 0  0 1 0  0.75 1 0  1.5 1 0  2.25 1 0  3 1 0  3.75 1 0  4.5 1 0  5.25 1 0  6 1 0  6.75 1 0  7.5 1 0  8.25 1 0  9 1 0  9.75 1 0  10.5 1 0  11.25 1 0  12 1 0  12.75 1 0  13.5 1 0  14.25 1 0  15 1 0  15.75 1 0  16.5 1 0  17.25 1 0  18 1 0  18.75 1 0  19.5 1 0  20.25 1 0  21 1 0  21.75 1 0  22.5 1 0  23.25 1 0  24 1 0  24.75 1 0  25.5 1 0  26.25 1 0  27 1 0  27.75 1 0  28.5 1 0  29.25 1 0  30 1 0  30.75 1 0  31.5 1 0  32.25 1 0  33 1 0  33.75 1 0  34.5 1 0  35.25 1 0  36 1 0  36.75 1 0  37.5 1 0  38.25 1 0  39 1 0  39.75 1 0  40.5 1 0  41.25 1 0  42 1 0  42.75 1 0  43.5 1 0  44.25 1 0  45 1 0  45.75 1 0  46.5 1 0  47.25 1 0  48 1 0  48.75 1 0  49.5 1 0  50.25 1 0  51 1 0  51.75 1 0  52.5 1 0  53.25 1 0  54 1 0  54.75 1 0  55.5 1 0  56.25 1 0  57 1 0  57.75 1 0  58.5 1 0  59.25 1 0  60 1 0  0 1.5 0  0.75 1.5 0  1.5 1.5 0  2.25 1.5 0  3 1.5 0  3.75 1.5 0  4.5 1.5 0  5.25 1.5 0  6 1.5 0  6.75 1.5 0  7.5 1.5 0  8.25 1.5 0  9 1.5 0  9.75 1.5 0  10.5 1.5 0  11.25 1.5 0  12 1.5 0  12.75 1.5 0  13.5 1.5 0  14.25 1.5 0  15 1.5 0  15.75 1.5 0  16.5 1.5 0  17.25 1.5 0  18 1.5 0  18.75 1.5 0  19.5 1.5 0  20.25 1.5 0  21 1.5 0  21.75 1.5 0  22.5 1.5 0  23.25 1.5 0  24 1.5 0  24.75 1.5 0  25.5 1.5 0  26.25 1.5 0  27 1.5 0  27.75 1.5 0  28.5 1.5 0  29.25 1.5 0  30 1.5 0  30.75 1.5 0  31.5 1.5 0  32.25 1.5 0  33 1.5 0  33.75 1.5 0  34.5 1.5 0  35.25 1.5 0  36 1.5 0  36.75 1.5 0  37.5 1.5 0  38.25 1.5 0  39 1.5 0  39.75 1.5 0  40.5 1.5 0  41.25 1.5 0  42 1.5 0  42.75 1.5 0  43.5 1.5 0  44.25 1.5 0  45 1.5 0  45.75 1.5 0  46.5 1.5 0  47.25 1.5 0  48 1.5 0  48.75 1.5 0  49.5 1.5 0  50.25 1.5 0  51 1.5 0  51.75 1.5 0  52.5 1.5 0  53.25 1.5 0  54 1.5 0  54.75 1.5 0  55.5 1.5 0  56.25 1.5 0  57 1.5 0  57.75 1.5 0  58.5 1.5 0  59.25 1.5 0  60 1.5 0  0 2 0  0.75 2 0  1.5 2 0  2.25 2 0  3 2 0  3.75 2 0  4.5 2 0  5.25 2 0  6 2 0  6.75 2 0  7.5 2 0  8.25 2 0  9 2 0  9.75 2 0  10.5 2 0  11.25 2 0  12 2 0  12.75 2 0  13.5 2 0  14.25 2 0  15 2 0  15.75 2 0  16.5 2 0  17.25 2 0  18 2 0  18.75 2 0  19.5 2 0  20.25 2 0  21 2 0  21.75 2 0  22.5 2 0  23.25 2 0  24 2 0  24.75 2 0  25.5 2 0  26.25 2 0  27 2 0  27.75 2 0  28.5 2 0  29.25 2 0  30 2 0  30.75 2 0  31.5 2 0  32.25 2 0  33 2 0  33.75 2 0  34.5 2 0  35.25 2 0  36 2 0  36.75 2 0  37.5 2 0  38.25 2 0  39 2 0  39.75 2 0  40.5 2 0  41.25 2 0  42 2 0  42.75 2 0  43.5 2 0  44.25 2 0  45 2 0  45.75 2 0  46.5 2 0  47.25 2 0  48 2 0  48.75 2 0  49.5 2 0  50.25 2 0  51 2 0  51.75 2 0  52.5 2 0  53.25 2 0  54 2 0  54.75 2 0  55.5 2 0  56.25 2 0  57 2 0  57.75 2 0  58.5 2 0  59.25 2 0  60 2 0  0 2.5 0  0.75 2.5 0  1.5 2.5 0  2.25 2.5 0  3 2.5 0  3.75 2.5 0  4.5 2.5 0  5.25 2.5 0  6 2.5 0  6.75 2.5 0  7.5 2.5 0  8.25 2.5 0  9 2.5 0  9.75 2.5 0  10.5 2.5 0  11.25 2.5 0  12 2.5 0  12.75 2.5 0  13.5 2.5 0  14.25 2.5 0  15 2.5 0  15.75 2.5 0  16.5 2.5 0  17.25 2.5 0  18 2.5 0  18.75 2.5 0  19.5 2.5 0  20.25 2.5 0  21 2.5 0  21.75 2.5 0  22.5 2.5 0  23.25 2.5 0  24 2.5 0  24.75 2.5 0  25.5 2.5 0  26.25 2.5 0  27 2.5 0  27.75 2.5 0  28.5 2.5 0  29.25 2.5 0  30 2.5 0  30.75 2.5 0  31.5 2.5 0  32.25 2.5 0  33 2.5 0  33.75 2.5 0  34.5 2.5 0  35.25 2.5 0  36 2.5 0  36.75 2.5 0  37.5 2.5 0  38.25 2.5 0  39 2.5 0  39.75 2.5 0  40.5 2.5 0  41.25 2.5 0  42 2.5 0  42.75 2.5 0  43.5 2.5 0  44.25 2.5 0  45 2.5 0  45.75 2.5 0  46.5 2.5 0  47.25 2.5 0  48 2.5 0  48.75 2.5 0  49.5 2.5 0  50.25 2.5 0  51 2.5 0  51.75 2.5 0  52.5 2.5 0  53.25 2.5 0  54 2.5 0  54.75 2.5 0  55.5 2.5 0  56.25 2.5 0  57 2.5 0  57.75 2.5 0  58.5 2.5 0  59.25 2.5 0  60 2.5 0  0 3 0  0.75 3 0  1.5 3 0  2.25 3 0  3 3 0  3.75 3 0  4.5 3 0  5.25 3 0  6 3 0  6.75 3 0  7.5 3 0  8.25 3 0  9 3 0  9.75 3 0  10.5 3 0  11.25 3 0  12 3 0  12.75 3 0  13.5 3 0  14.25 3 0  15 3 0  15.75 3 0  16.5 3 0  17.25 3 0  18 3 0  18.75 3 0  19.5 3 0  20.25 3 0  21 3 0  21.75 3 0  22.5 3 0  23.25 3 0  24 3 0  24.75 3 0  25.5 3 0  26.25 3 0  27 3 0  27.75 3 0  28.5 3 0  29.25 3 0  30 3 0  30.75 3 0  31.5 3 0  32.25 3 0  33 3 0  33.75 3 0  34.5 3 0  35.25 3 0  36 3 0  36.75 3 0  37.5 3 0  38.25 3 0  39 3 0  39.75 3 0  40.5 3 0  41.25 3 0  42 3 0  42.75 3 0  43.5 3 0  44.25 3 0  45 3 0  45.75 3 0  46.5 3 0  47.25 3 0  48 3 0  48.75 3 0  49.5 3 0  50.25 3 0  51 3 0  51.75 3 0  52.5 3 0  53.25 3 0  54 3 0  54.75 3 0  55.5 3 0  56.25 3 0  57 3 0  57.75 3 0  58.5 3 0  59.25 3 0  60 3 0  0 3.5 0  0.75 3.5 0  1.5 3.5 0  2.25 3.5 0  3 3.5 0  3.75 3.5 0  4.5 3.5 0  5.25 3.5 0  6 3.5 0  6.75 3.5 0  7.5 3.5 0  8.25 3.5 0  9 3.5 0  9.75 3.5 0  10.5 3.5 0  11.25 3.5 0  12 3.5 0  12.75 3.5 0  13.5 3.5 0  14.25 3.5 0  15 3.5 0  15.75 3.5 0  16.5 3.5 0  17.25 3.5 0  18 3.5 0  18.75 3.5 0  19.5 3.5 0  20.25 3.5 0  21 3.5 0  21.75 3.5 0  22.5 3.5 0  23.25 3.5 0  24 3.5 0  24.75 3.5 0  25.5 3.5 0  26.25 3.5 0  27 3.5 0  27.75 3.5 0  28.5 3.5 0  29.25 3.5 0  30 3.5 0  30.75 3.5 0  31.5 3.5 0  32.25 3.5 0  33 3.5 0  33.75 3.5 0  34.5 3.5 0  35.25 3.5 0  36 3.5 0  36.75 3.5 0  37.5 3.5 0  38.25 3.5 0  39 3.5 0  39.75 3.5 0  40.5 3.5 0  41.25 3.5 0  42 3.5 0  42.75 3.5 0  43.5 3.5 0  44.25 3.5 0  45 3.5 0  45.75 3.5 0  46.5 3.5 0  47.25 3.5 0  48 3.5 0  48.75 3.5 0  49.5 3.5 0  50.25 3.5 0  51 3.5 0  51.75 3.5 0  52.5 3.5 0  53.25 3.5 0  54 3.5 0  54.75 3.5 0  55.5 3.5 0  56.25 3.5 0  57 3.5 0  57.75 3.5 0  58.5 3.5 0  59.25 3.5 0  60 3.5 0  0 4 0  0.75 4 0  1.5 4 0  2.25 4 0  3 4 0  3.75 4 0  4.5 4 0  5.25 4 0  6 4 0  6.75 4 0  7.5 4 0  8.25 4 0  9 4 0  9.75 4 0  10.5 4 0  11.25 4 0  12 4 0  12.75 4 0  13.5 4 0  14.25 4 0  15 4 0  15.75 4 0  16.5 4 0  17.25 4 0  18 4 0  18.75 4 0  19.5 4 0  20.25 4 0  21 4 0  21.75 4 0  22.5 4 0  23.25 4 0  24 4 0  24.75 4 0  25.5 4 0  26.25 4 0  27 4 0  27.75 4 0  28.5 4 0  29.25 4 0  30 4 0  30.75 4 0  31.5 4 0  32.25 4 0  33 4 0  33.75 4 0  34.5 4 0  35.25 4 0  36 4 0  36.75 4 0  37.5 4 0  38.25 4 0  39 4 0  39.75 4 0  40.5 4 0  41.25 4 0  42 4 0  42.75 4 0  43.5 4 0  44.25 4 0  45 4 0  45.75 4 0  46.5 4 0  47.25 4 0  48 4 0  48.75 4 0  49.5 4 0  50.25 4 0  51 4 0  51.75 4 0  52.5 4 0  53.25 4 0  54 4 0  54.75 4 0  55.5 4 0  56.25 4 0  57 4 0  57.75 4 0  58.5 4 0  59.25 4 0  60 4 0  0.375 0.25 0  1.125 0.25 0  1.875 0.25 0  2.625 0.25 0  3.375 0.25 0  4.125 0.25 0  4.875 0.25 0  5.625 0.25 0  6.375 0.25 0  7.125 0.25 0  7.875 0.25 0  8.625 0.25 0  9.375 0.25 0  10.125 0.25 0  10.875 0.25 0  11.625 0.25 0  12.375 0.25 0  13.125 0.25 0  13.875 0.25 0  14.625 0.25 0  15.375 0.25 0  16.125 0.25 0  16.875 0.25 0  17.625 0.25 0  18.375 0.25 0  19.125 0.25 0  19.875 0.25 0  20.625 0.25 0  21.375 0.25 0  22.125 0.25 0  22.875 0.25 0  23.625 0.25 0  24.375 0.25 0  25.125 0.25 0  25.875 0.25 0  26.625 0.25 0  27.375 0.25 0  28.125 0.25 0  28.875 0.25 0  29.625 0.25 0  30.375 0.25 0  31.125 0.25 0  31.875 0.25 0  32.625 0.25 0  33.375 0.25 0  34.125 0.25 0  34.875 0.25 0  35.625 0.25 0  36.375 0.25 0  37.125 0.25 0  37.875 0.25 0  38.625 0.25 0  39.375 0.25 0  40.125 0.25 0  40.875 0.25 0  41.625 0.25 0  42.375 0.25 0  43.125 0.25 0  43.875 0.25 0  44.625 0.25 0  45.375 0.25 0  46.125 0.25 0  46.875 0.25 0  47.625 0.25 0  48.375 0.25 0  49.125 0.25 0  49.875 0.25 0  50.625 0.25 0  51.375 0.25 0  52.125 0.25 0  52.875 0.25 0  53.625 0.25 0  54.375 0.25 0  55.125 0.25 0  55.875 0.25 0  56.625 0.25 0  57.375 0.25 0  58.125 0.25 0  58.875 0.25 0  59.625 0.25 0  0.375 0.75 0  1.125 0.75 0  1.875 0.75 0  2.625 0.75 0  3.375 0.75 0  4.125 0.75 0  4.875 0.75 0  5.625 0.75 0  6.375 0.75 0  7.125 0.75 0  7.875 0.75 0  8.625 0.75 0  9.375 0.75 0  10.125 0.75 0  10.875 0.75 0  11.625 0.75 0  12.375 0.75 0  13.125 0.75 0  13.875 0.75 0  14.625 0.75 0  15.375 0.75 0  16.125 0.75 0  16.875 0.75 0  17.625 0.75 0  18.375 0.75 0  19.125 0.75 0  19.875 0.75 0  20.625 0.75 0  21.375 0.75 0  22.125 0.75 0  22.875 0.75 0  23.625 0.75 0  24.375 0.75 0  25.125 0.75 0  25.875 0.75 0  26.625 0.75 0  27.375 0.75 0  28.125 0.75 0  28.875 0.75 0  29.625 0.75 0  30.375 0.75 0  31.125 0.75 0  31.875 0.75 0  32.625 0.75 0  33.375 0.75 0  34.125 0.75 0  34.875 0.75 0  35.625 0.75 0  36.375 0.75 0  37.125 0.75 0  37.875 0.75 0  38.625 0.75 0  39.375 0.75 0  40.125 0.75 0  40
[...]
<PointData  Scalars="f_8-1"> 
<DataArray  type="Float64"  Name="f_8-1"  format="ascii">1.6118896279542489e+05  8.5109057956518105e+05  5.7187048052529781e+05  -1.0879623342710258e+06  2.0486113088090515e+06  2.5838766279716236e+06  6.0985014042861562e+05  3.0329013276737081e+06  1.0951522257734411e+06  1.1852213952840462e+06  2.3553366994969882e+06  1.6499585706842861e+06  2.1076762229804024e+06  5.9605294593854423e+05  -1.1379926612866675e+06  1.2447044193293052e+06  2.5182719927761081e+05  -8.8435655556343298e+05  7.5954112281079532e+05  1.6021841313724967e+06  -9.1446302384120077e+06  6.6728924208065879e+05  2.6755655863173711e+06  3.5381870308859018e+05  5.4973101141935424e+05  -1.2394009127071276e+06  -3.6650933120080183e+05  2.3791217437882191e+06  1.9710407261135051e+05  3.1394760597145621e+05  -2.8364986241278402e+05  7.9857450784781098e+05  -1.4237480688408308e+06  1.5507094866690875e+06  -4.4533807074743934e+05  -5.8585800252569723e+05  8.4300440335242980e+04  6.2480340679275083e+04  1.8675440946654778e+06  -1.7375067273727807e+05  -1.0163047929600233e+06  5.6013820482177369e+05  5.2657232780537114e+05  -2.9079188048160031e+04  -1.3626967899179359e+06  -1.1851424890284265e+05  5.4318663799586962e+05  -4.3068975543238618e+05  1.5049518620643495e+06  -2.1530694906063636e+04  -1.2792117728474326e+05  4.5725147445808380e+05  -9.3257496223426447e+05  -7.9264303505591839e+05  -4.9833532042788109e+05  -2.9777413584145579e+04  8.4048956492201635e+05  7.9027133789611643e+05  6.4007986905533471e+04  -5.1341295675170736e+05  -1.3257753001529022e+05  2.6706157070755265e+06  8.5382765386820014e+04  -5.4058717551414520e+04  -2.0057504914388363e+05  -4.4514110376206296e+05  -8.0384612119560270e+05  1.6314846043052396e+05  4.5403096376136655e+05  8.4977201129945519e+05  1.7805825218428863e+05  4.0614940573971288e+05  -2.1643002179267141e+05  -6.5875407635998607e+04  1.2479981575662055e+05  -1.5555716595867570e+05  -2.9358254763174511e+05  -1.7154883353149091e+05  -6.5208153556526071e+04  4.4276416476795421e+04  -1.6378547489318522e+05  -7.4777617788123945e+05  1.6996773323592944e+06  4.7906987433151377e+05  2.0894816782614170e+05  1.4271837974034015e+06  7.5143985549303389e+05  1.6915410424868236e+05  1.1630797032435103e+06  2.5005649112240112e+05  1.1701796648914786e+06  3.1980896885607517e+06  1.6019523678028223e+06  1.4071832037611594e+06  3.4657440013237332e+05  -5.3981191869511281e+05  9.2288591824658844e+05  -1.2442324307362285e+04  -1.0547899663338691e+04  -2.6753846839206112e+06  1.2082655474110255e+06  5.1094816991071645e+06  -5.2371326258106223e+04  2.0328527674697035e+06  6.4084580949656188e+05  -2.7436967265117159e+06  -2.6766547752741410e+05  -5.9613124830873893e+05  5.3850093512389890e+05  -1.0311527337466909e+06  -3.9790865102618445e+04  4.4731571142874594e+05  6.8525079497619602e+05  1.7020185609023497e+05  -2.4827500793496944e+05  -6.6600516390435747e+05  -1.2950438116797181e+05  2.9680169348723791e+05  3.1089597700937295e+04  1.3542289607917715e+06  9.6124741003822593e+05  1.0804295428454631e+05  8.1990839700076682e+05  3.4660953140386776e+05  2.8814452962929319e+05  -1.8113717401020660e+06  -1.0804012281198115e+06  -5.5732901435398578e+05  -6.3583630015632836e+05  2.5513073473972993e+05  2.4801143788624296e+05  -9.5520246978624418e+03  2.6508174415143084e+05  -2.9206766755071655e+05  -3.9678646664057189e+05  -6.5948867867108888e+05  -2.5042221750475978e+05  4.8363081440744827e+04  8.4933208899808524e+05  9.7894841523847426e+04  1.6420727897055924e+05  1.6578446960925625e+05  6.1055233658676967e+05  3.0141034639014123e+05  -4.4145787180275150e+05  -5.8314994621051522e+05  3.8940889108184980e+04  -9.3423352564047999e+05  -2.3414228925855912e+05  -6.3513726180072526e+03  -2.9844406630837766e+05  3.6043026575939532e+05  1.6962665583072649e+05  8.5440594306126761e+04  -3.8050241968257236e+04  6.5165034732302607e+04  -3.1043996042018913e+05  -3.8331266484016634e+05  -2.7626675766538992e+05  -7.8271366320886838e+04  -8.4048925679727501e+04  7.3946605486499058e+04  -2.1172614160657609e+04  2.4518009061529320e+06  1.4438522652241755e+06  1.2793564568301858e+06  2.8464143381901103e+05  1.7740456515818001e+06  1.9465921747069413e+04  9.9539824543389818e+05  -1.0512238299991011e+06  9.2903041132688534e+05  1.5453174035507860e+06  1.7271919905610955e+06  -4.5165559640435223e+05  -8.6446662974921707e+05  2.2045768180939229e+06  -3.5167116802674154e+05  2.3696273671595827e+06  5.7608252301586012e+05  4.4606480496610934e+06  6.8059175443495577e+05  2.3681104248241591e+06  2.6576072674670955e+06  -6.7893076328501885e+05  -1.3060445567156187e+05  -1.7164359830416541e+05  -1.1584621028527522e+06  -4.3692948418869049e+05  3.5049235212914145e+05  3.8188232586092810e+05  -2.6051640444096643e+05  -9.8413358436408697e+05  1.7890616052748935e+05  -2.6016244328626944e+05  -1.1300056481859188e+06  -1.9043198257826157e+06  1.1794140303935518e+06  -6.7720305592212803e+05  -8.0618128092794400e+05  -5.9457268652488617e+05  2.0359943635728660e+06  -1.8116884759902259e+04  1.8982332713082251e+06  2.4649454635193100e+05  -3.8992060440732230e+05  -1.8988949915298123e+06  -8.4309909079504479e+05  -6.1931762152441428e+05  -5.1711987089482142e+05  -8.4517413084474532e+05  -7.5538624742938334e+05  7.1636255017664388e+05  -7.4542588311650022e+05  -3.7111283904842311e+05  -4.1425380698365654e+05  -1.0596064697199881e+05  2.5674027289323430e+05  -3.7423053302332893e+05  3.3204991555686982e+05  -4.4802163458821340e+05  1.5121542164797557e+05  4.6254219632026559e+05  8.4262826044413564e+05  5.4689660019229120e+05  -2.3343071054944459e+04  -3.5351054613632179e+05  -7.7241712689498276e+05  2.8985931081349787e+05  -8.2091190455688760e+04  2.6824229273766838e+05  4.1565672075873014e+05  3.9201454952374457e+04  2.5910737276493560e+05  -1.9653012975333334e+05  -1.0358544560954002e+05  -7.1303030305942491e+04  5.9147674855202822e+04  -6.2199789694261723e+04  -3.3907276247926510e+05  -1.9386175132118328e+05  -1.0560164318770438e+05  -4.6812734005785882e+04  5.5238668390659895e+05  1.8705777440999453e+06  2.6264260294190156e+06  1.0853255464468390e+05  -3.2151752706041769e+05  -8.0976544240851770e+05  1.9561455236698489e+06  1.7010709661143660e+06  2.7816263076532823e+06  7.3569474317624001e+05  1.6143850380078608e+06  1.2288561030006979e+06  2.3881779346954469e+06  5.9960296860366652e+05  1.6480063013550614e+06  -9.6539386460842157e+05  7.5981422572914814e+05  2.4966003876934610e+06  1.6096584417837246e+06  1.4903380474362199e+06  5.7664711945405905e+05  -5.6904450224990642e+05  -2.2018696346443950e+04  -1.3062867716798888e+05  -1.2741857762744736e+06  -4.7947320194900210e+05  -6.8078771006095654e+05  7.8129961938421486e+05  2.3628081018858362e+05  -1.2153265788013323e+06  -7.4047125761651422e+05  -1.0445259555201523e+06  -1.3468621334187343e+05  -5.8573307473327324e+05  -4.1708358791641053e+05  -5.6683244517104747e+05  -1.2074265470047954e+05  -5.7349567802841042e+05  9.5555580086973350e+04  1.5133739349639681e+06  4.5853176505261072e+05  1.4708942204228295e+06  -5.8406581280355094e+04  -8.3406460738364386e+05  -6.3120586419457686e+05  6.1067372486590757e+05  1.4665029913319107e+06  -3.1408999553362990e+05  5.2511450164733792e+05  -1.1376888283944463e+06  -6.6756536805656168e+05  -1.2320850426780258e+05  -5.7415972312882636e+05  6.0974822826936608e+05  -5.6828643360660084e+04  -4.5155070921954489e+05  -4.8862437965982688e+04  -2.8287680083561921e+05  -7.0236614856355113e+05  -3.8431404879300820e+05  -1.2817023251600440e+06  -1.2306476811064086e+06  -9.9193124323619227e+05  5.7648846550079528e+05  -1.0599717233453875e+06  -2.7772036308332818e+05  -3.0863844818729284e+05  -4.0636944717606669e+05  8.9731646344171686e+05  4.4585245849624992e+05  7.2422625327340560e+04  2.0572722194195743e+04  1.3121461492694981e+05  -5.6377293248555812e+04  -5.2301859717580599e+04  -1.4660202374822434e+05  -2.7266186337506230e+05  -4.2065302908886963e+05  -5.4853200417757333e+04  -3.7595599741494756e+04  -2.3740809073415340e+05  -9.7189667539372167e+04  1.1795931519140389e+06  8.3348231909039372e+05  1.6081795311396729e+05  -1.0189954023887113e+06  2.5774296827867683e+06  1.0314152583795183e+06  2.0172473695814016e+06  2.4855085465213873e+04  7.0407182122511580e+05  -4.3019586678932782e+05  1.7989038918948590e+06  4.1676941350176686e+05  -2.1359343665543199e+06  2.2715079246509762e+05  -4.0972360109818808e+05  -2.2088418847447690e+06  4.3633595844567538e+05  2.1013768247801294e+06  -1.8792719944285564e+05  6.3734840670344618e+05  -6.3838883544828207e+05  2.7536248273370103e+06  2.3963723290228911e+04  -8.2141739598299726e+05  -1.6840723622710661e+06  1.9333511889037101e+06  -1.0601252333151109e+06  1.4899844066077722e+06  1.2416570177709137e+05  -4.0583042693836970e+05  -5.1253284938737401e+05  -7.1599824936461649e+04  1.0909703832212657e+05  -7.2462268444783951e+05  -1.0351180001605356e+06  -1.2721585434711805e+05  -2.1999939416347095e+05  3.9023556107403443e+05  8.2728247696640843e+05  3.5183533509110485e+05  5.6609140878330928e+05  -3.6018493273565511e+05  -1.1944269373632877e+06  -3.7883722863897547e+05  1.3235671742207411e+05  3.8244494280046533e+05  -6.8395760812454903e+05  -9.5286511584513733e+04  -4.1339564275829151e+05  -4.8144034071085230e+05  -2.0688186992696073e+05  -2.8891096592600102e+05  -4.5305935203179007e+05  3.4819440183476248e+05  -4.7981840855257225e+05  6.7770046132722084e+04  -4.2762453395333141e+05  2.3379241122282451e+05  -8.7696206204697432e+05  -2.0614311306465950e+05  -5.3190971430571424e+05  -6.3525562823767657e+05  -3.0087443222020112e+04  -1.0554989337972228e+06  3.2485053131355462e+05  -1.0542040044452275e+05  1.1371930558781561e+06  8.7174590988985321e+05  4.5838525765463896e+05  2.4573796995022395e+05  2.0559444378724924e+05  -1.9072724095652916e+05  -1.1273030015719982e+05  -2.9670016057113995e+05  9.8587374476312019e+04  -4.1919793798308281e+04  -1.4956452611762044e+05  -3.3801767412490014e+05  3.6349784358393350e+04  -1.0382473670898129e+05  -2.3889921890035532e+06  4.8658630870578066e+05  4.5065516744460922e+05  8.7878926472522982e+05  2.2915473439586442e+06  1.1883588843420036e+06  3.6282043048850042e+06  2.2484429617297831e+06  1.4874550654833631e+06  -3.4886351732429361e+05  1.5887801821765106e+06  1.4414636644062516e+06  -4.2126973255960579e+05  -7.7014501757240680e+05  1.5724741631807637e+05  1.0686822334383619e+06  -2.2643923233037279e+06  -1.4434291452388363e+06  -8.6925583108692896e+05  1.4932442836130373e+06  -3.1964924587957328e+05  1.0535757805546664e+06  1.3557706397814937e+06  3.1461286786623980e+05  -1.3360859838333286e+06  -2.3468144110902850e+05  -1.2903012854988491e+06  -3.8914513271751307e+05  1.9158383937970572e+05  -1.0804411138659259e+06  5.7317447565659054e+05  -4.0443995997618936e+05  7.0021915808217099e+05  2.0773627245761242e+06  4.0426254491100711e+05  -1.0871630811032504e+06  -1.9122910429163612e+05  5.8260883587673947e+04  4.2337991234047053e+05  5.7877790130007779e+05  7.7678048756928055e+05  -5.7128667675097880e+05  1.4715750200369423e+06  -1.8845299031420068e+06  4.1199241121477746e+04  1.4636444857618731e+05  4.8420329616228450e+05  -1.0066072008194685e+06  -1.0897412127369133e+04  2.8749309856661828e+05  2.5011722729671665e+05  -3.8598530713724095e+05  3.0378519935208047e+05  3.8834847975760211e+04  1.0249984809911778e+05  -7.3460593406663823e+05  -3.8271560329241860e+04  4.7232766927170465e+04  -6.7018948447615746e+05  -5.3451998771036009e+05  -1.2597706316177890e+05  -1.6504002432818772e+05  -5.2459004133424361e+05  1.0813599382787276e+05  -2.5046844825748869e+05  2.7623717095898226e+05  1.0160687401050220e+06  8.4286986627857623e+04  3.7422638034953777e+05  1.1045790060841013e+05  3.4523173570974323e+05  1.1203196824959645e+05  1.5181015743587250e+05  2.6220431999650646e+04  -4.9385205131549075e+04  -1.1728071208139641e+05  -3.6353701962413739e+04  -2.9129049796497781e+05  -3.4351556126216328e+05  -3.2970265734913835e+05  1.0114904735315482e+05  5.0350928630378126e+05  2.0396354837663898e+06  3.4142513656266785e+05  8.9765872134112602e+05  9.5835507506130461e+05  1.2071741898413985e+06  1.3611292939741053e+04  2.1663963423284339e+06  5.9013043698723463e+05  -9.3206675246000552e+04  1.2938004958676184e+06  1.2761569543885266e+05  -6.0077441103115783e+05  -1.8883089488837461e+06  -1.1626641423219673e+06  7.4917591899499146e+05  -3.5169697085904219e+05  7.2857501819029058e+04  -6.8076578194050025e+05  -1.2143383511881861e+06  -7.8366485267561889e+04  -4.3224987499701721e+05  -1.5388484333206099e+05  -1.4606258053989296e+06  -1.8449631919346235e+05  -2.3309278230688227e+06  -3.6994458397031500e+05  -8.1664914566491882e+05  -2.8827579404956690e+05  -6.7957918176816497e+05  9.8300116628624790e+04  3.9626783630651166e+05  1.6058358840756123e+06  8.8579152376566292e+05  2.3440848297699695e+05  1.2763775097111729e+05  3.6516927580240479e+05  -2.1610769096655509e+05  5.9306941944924730e+05  3.8869957660572516e+05  6.6177369328546245e+05  -7.4204184294069197e+05  -9.3441827274564013e+05  1.3759230513629636e+06  -1.6362274194132127e+06  -2.4687065051461480e+05  -6.7239968723544807e+04  -1.9206282488430315e+05  -1.3891189220269115e+06  -2.8793126603020908e+05  -6.2187263529051468e+05  -4.1697351318999153e+05  1.8514277221104736e+05  2.0991299219853996e+05  4.7747266115940246e+05  2.0643706236544592e+05  -6.4165522771598410e+05  5.0093768828484626e+05  -9.2176843698415416e+05  9.5196625031299700e+04  -4.5728608859644912e+04  -4.8482964997229035e+04  4.5005111875197606e+05  1.7370587526641041e+05  1.5141175395081850e+05  2.4551783897445805e+05  1.5137395154764818e+06  2.3722439355341499e+05  6.3633047004181397e+04  6.0789359354445175e+05  6.8278903807155264e+05  2.8517178851277428e+05  1.2206088062104229e+05  -7.0982160865274564e+04  -3.0952512784997994e+04  1.1277028478390635e+05  -1.4162035433522370e+05  -2.4496994995733708e+05  -1.5168656779371543e+05  -1.1070276375382647e+05  2.0450925022408861e+05  -2.4496711115109190e+05  -8.3046738194518024e+05  -6.2613719069410255e+05  3.1150217115737888e+05  -1.2552168875503703e+06  -1.5264880765876334e+05  -8.3780766535098245e+05  1.4244952577250914e+06  -1.0082802332911162e+05  1.4398441859634318e+06  -1.5314426362798197e+05  7.9725506887184829e+05  -3.6956106160641578e+05  -5.7218458675240581e+04  -6.5295275154524983e+05  -1.2871834026975296e+06  -4.2172326986716862e+05  -7.7407607527265165e+04  -5.3971399339444679e+05  1.2424788576616612e+05  5.3162180323853681e+05  -4.0641138644100149e+05  -9.8879010310979167e+04  -1.0599742908374219e+05  -1.3403440212172649e+06  -8.8635693120029010e+05  1.0303642977738100e+05  -3.0498966918148124e+05  -6.1078551327904977e+05  3.2787136111832480e+05  3.0803625190845336e+05  2.6105716358498883e+05  1.3393144916137911e+06  3.7291142818403058e+05  2.5759223779669966e+05  1.5016185322267545e+05  1.9753430464808876e+05  -3.9861882278107974e+05  5.9570458422071347e+05  -5.2630611077328166e+05  1.0050226577571409e+06  3.2696965386740776e+05  9.7531046123179689e+05  -1.3698946409675714e+06  2.6231743682405511e+06  -2.2139081468687751e+06  -5.1378283168248436e+05  -5.5982694128797681e+05  1.4937533401285569e+05  -5.0278908982973505e+05  5.8409107742957631e+05  -7.0788351359247405e+05  -2.3536118545052921e+05  2.5345342833462558e+05  1.1823741164701970e+05  -1.6922488460322790e+05  -7.2667276849049493e+05  -2.4441807335000887e+05  -4.6822368926149909e+05  -5.9033183615239966e+05  1.8869070126565392e+04  3.6628089520683704e+05  -1.3580002397837915e+05  8.0443414726055006e+05  4.1534273431022081e+05  -2.0466368150167339e+05  2.0695481510006604e+05  2.0547373852262658e+05  -5.0389963645951467e+05  4.2634664304311812e+05  2.9117951679153251e+05  5.2530755967980025e+04  -5.3184539763643887e+04  2.3100005339178751e+05  -3.1989743723280575e+04  3.0506779349601708e+04  -2.6386885714212368e+05  1.5838364894487086e+05  -1.2130734724137146e+04  6.0556778727781020e+04  -7.7602983921848481e+03  8.3873461219680705e+05  -6.0569707145215489e+05  3.8218682716566551e+05  -8.6900438557057374e+05  -2.6946686673516379e+05  -2.5432240852780512e+05  1.6575529318199129e+05  2.0265939549431237e+05  -1.4671608482236986e+06  3.9463971251148905e+05  4.4781081230410410e+05  -3.5273937356801535e+05  -3.4380746530866680e+04  8.8611933846328873e+05  -1.4844837028280566e+06  1.0109983034885114e+06  -1.1125958591463598e+06  -4.4183395279063238e+05  -7.0669940868404403e+04  3.4738090142452152e+05  -5.1790584724584676e+05  -4.4446854040080425e+05  9.0189530528955022e+05  -8.8223975763956900e+05  1.1889763463327428e+06  2.5963284200614435e+05  -1.6020009246861303e+05  -1.2422951179585999e+05  1.6332343654491194e+05  1.7793764586829424e+04  4.8270013202830298e+04  -1.2399777478190164e+05  4.2442372015073948e+05  -5.2973318733515439e+05  5.8918771557174961e+05  -3.5046456342659722e+05  9.6841512458475452e+04  1.3614748230336825e+05  4.1151156578502123e+04  2.0221487723655096e+05  -3.8334063315517560e+05  6.4004479593742802e+05  1.3327506707172117e+04  8.0624042801124277e+05  -6.3532787036291906e+05  5.2336695083830738e+05  -6.3825390456365456e+05  9.0458838240138910e+04  7.7671750840146997e+04  -1.9222290091984335e+05  -4.9861187407112512e+05  2.4300274421795944e+05  -1.9868049816243531e+05  -8.8046522869081004e+04  7.5001860747518134e+04  -1.9353665952181700e+05  -1.3244376850060286e+05  -1.8548565181386322e+04  1.9252489147574164e+05  -8.3852777634374157e+05  1.5308973413880987e+05  -3.3274102611900395e+04  1.6994480614976612e+04  3.6762256388676591e+05  -3.9792443860144680e+05  1.2682538965288347e+05  -6.0888990938602139e+04  3.3723656446244073e+04  3.2059748065822548e+05  6.5566626586652957e+04  -1.1241243707869221e+03  -1.1413570256656427e+04  4.4550220699150785e+04  -3.8063851091623760e+03  -4.3294448871483721e+04  -3.5257072448361723e+04  3.0946388511772875e+04  5.9173682666560664e+04  -5.5253184337737817e+04  1.2728536105199551e+05  -2.8290605434599551e+04  5.4344852526621590e+05  1.3389904015701837e+06  6.9391995868496969e+05  4.9238513269219542e+05  2.5660917023328398e+06  -9.4175463171389571e+05  -2.8057658847449522e+05  1.7571310280743479e+06  9.8094375234504358e+05  5.7976292020955011e+06  9.4928435574092134e+05  7.0426929604794260e+05  2.2313170874863504e+06  -1.3688422839194047e+06  1.0682283922829873e+05  -3.4019681714211509e+05  -3.8218805000054272e+05  3.3411255685848888e+05  1.2016276272329236e+06  -3.8681093924659998e+06  -2.1063554546467722e+06  1.3100015857077946e+06  1.2613848811961575e+06  1.0776287988006587e+06  -2.0765322524423487e+06  -5.4840508376922051e+04  7.4997000510613318e+05  3.6205337559707108e+05  -1.7564090684113991e+04  7.3982253912651469e+05  1.2674824628665193e+06  5.3631989312391018e+05  9.9077610894965637e+05  8.9821044465219649e+05  1.5187832418852660e+05  -4.8907636828909279e+05  9.7269041934612338e+04  6.6025484244300798e+05  2.7110191320850071e+05  1.6263197718279200e+03  9.2209138113759772e+05  4.4820710135214584e+05  5.8780822122590640e+05  -3.4210081559174845e+05  1.9101812235313619e+05  3.8375512888356560e+05  -4.5901503889562923e+05  -6.7391751643551863e+05  1.1750625456123957e+06  3.8086283856469655e+05  1.5475329578295653e+05  4.0244940768992127e+05  -4.4000953838030749e+05  -7.6265300983172352e+05  -4.7841622564000601e+05  -1.0402156343499801e+04  1.1604904486981831e+06  7.4157876826440042e+05  6.6517273593086080e+04  -1.8371207530942856e+05  3.9945416725930502e+05  1.1528869648867426e+06  1.4493945733702683e+06  5.6338120181427963e+04  4.5021086226209917e+05  -6.9428583405570907e+05  -1.3902218860252607e+06  1.2508247540227261e+06  4.2986635315224243e+05  3.7403895204553090e+05  2.7630178108558891e+05  5.5840800510482746e+04  1.8311171136979008e+05  9.6419407302713880e+04  5.4104607679420214e+03  -3.1522461505397351e+05  -3.1358689315664506e+05  -5.6206665230241815e+04  6.5748834519223703e+04  2.6153730243090744e+04  1.1765067241557851e+06  1.0810982549594734e+06  1.0091790014150273e+05  -1.9968925308042989e+05  6.487829469283