<?xml version="1.0"?>
<VTKFile type="UnstructuredGrid"  version="0.1"  >
<UnstructuredGrid>
<Piece  NumberOfPoints="1369" NumberOfCells="2560">
<Points>
<DataArray  type="Float64"  NumberOfComponents="3"  format="ascii">0 0 0  0.75 0 0  1.5 0 0  2.25 0 0  3 0 0  3.75 0 0  4.5 0 0  5.25 0 0  6 0 0  6.75 0 0  7.5 0 0  8.25 0 0  9 0 0  9.75 0 0  10.5 0 0  11.25 0 0  12 0 0  12.75 0 0  13.5 0 0  14.25 0 0  15 0 0  15.75 0 0  16.5 0 0  17.25 0 0  18 0 0  18.75 0 0  19.5 0 0  20.25 0 0  21 0 0  21.75 0 0  22.5 0 0  23.25 0 0  24 0 0  24.75 0 0  25.5 0 0  26.25 0 0  27 0 0  27.75 0 0  28.5 0 0  29.25 0 0  30 0 0  30.75 0 0  31.5 0 0  32.25 0 0  33 0 0  33.75 0 0  34.5 0 0  35.25 0 0  36 0 0  36.75 0 0  37.5 0 0  38.25 0 0  39 0 0  39.75 0 0  40.5 0 0  41.25 0 0  42 0 0  42.75 0 0  43.5 0 0  44.25 0 0  45 0 0  45.75 0 0  46.5 0 0  47.25 0 0  48 0 0  48.75 0 0  49.5 0 0  50.25 0 0  51 0 0  51.75 0 0  52.5 0 0  53.25 0 0  54 0 0  54.75 0 0  55.5 0 0  56.25 0 0  57 0 0  57.75 0 0  58.5 0 0  59.25 0 0  60 0 0  0 0.5 0  0.75 0.5 0  1.5 0.5 0  2.25 0.5 0  3 0.5 0  3.75 0.5 0  4.5 0.5 0  5.25 0.5 0  6 0.5 0  6.75 0.5 0  7.5 0.5 0  8.25 0.5 0  9 0.5 0  9.75 0.5 0  10.5 0.5 0  11.25 0.5 0  12 0.5 0  12.75 0.5 0  13.5 0.5 0  14.25 0.5 0  15 0.5 0  15.75 0.5 0  16.5 0.5 0  17.25 0.5 0  18 0.5 0  18.75 0.5 0  19.5 0.5 0  20.25 0.5 0  21 0.5 0  21.75 0.5 0  22.5 0.5 0  23.25 0.5 0  24 0.5 0  24.75 0.5 0  25.5 0.5 0  26.25 0.5 0  27 0.5 0  27.75 0.5 0  28.5 0.5 0  29.25 0.5 0  30 0.5 0  30.75 0.5 0  31.5 0.5 0  32.25 0.5 0  33 0.5 0  33.75 0.5 0  34.5 0.5 0  35.25 0.5 0  36 0.5 0  36.75 0.5 0  37.5 0.5 0  38.25 0.5 0  39 0.5 0  39.75 0.5 0  40.5 0.5 0  41.25 0.5 0  42 0.5 0  42.75 0.5 0  43.5 0.5 0  44.25 0.5 0  45 0.5 0  45.75 0.5 0  46.5 0.5 0  47.25 0.5 0  48 0.5 0  48.75 0.5 0  49.5 0.5 0  50.25 0.5 0  51 0.5 0  51.75 0.5 0  52.5 0.5 0  53.25 0.5 0  54 0.5 0  54.75 0.5 0  55.5 0.5 0  56.25 0.5 0  57 0.5 0  57.75 0.5 0  58.5 0.5 0  59.25 0.5 0  60 0.5 0  0 1 0  0.75 1 0  1.5 1 0  2.25 1 0  3 1 0  3.75 1 0  4.5 1 0  5.25 1 0  6 1 0  6.75 1 0  7.5 1 0  8.25 1 0  9 1 0  9.75 1 0  10.5 1 0  11.25 1 0  12 1 0  12.75 1 0  13.5 1 0  14.25 1 0  15 1 0  15.75 1 0  16.5 1 0  17.25 1 0  18 1 0  18.75 1 0  19.5 1 0  20.25 1 0  21 1 0  21.75 1 0  22.5 1 0  23.25 1 0  24 1 0  24.75 1 0  25.5 1 0  26.25 1 0  27 1 0  27.75 1 0  28.5 1 0  29.25 1 0  30 1 0  30.75 1 0  31.5 1 0  32.25 1 0  33 1 0  33.75 1 0  34.5 1 0  35.25 1 0  36 1 0  36.75 1 0  37.5 1 0  38.25 1 0  39 1 0  39.75 1 0  40.5 1 0  41.25 1 0  42 1 0  42.75 1 0  43.5 1 0  44.25 1 0  45 1 0  45.75 1 0  46.5 1 0  47.25 1 0  48 1 0  48.75 1 0  49.5 1 0  50.25 1 0  51 1 0  51.75 1 0  52.5 1 0  53.25 1 0  54 1 0  54.75 1 0  55.5 1 0  56.25 1 0  57 1 0  57.75 1 0  58.5 1 0  59.25 1 0  60 1 0  0 1.5 0  0.75 1.5 0  1.5 1.5 0  2.25 1.5 0  3 1.5 0  3.75 1.5 0  4.5 1.5 0  5.25 1.5 0  6 1.5 0  6.75 1.5 0  7.5 1.5 0  8.25 1.5 0  9 1.5 0  9.75 1.5 0  10.5 1.5 0  11.25 1.5 0  12 1.5 0  12.75 1.5 0  13.5 1.5 0  14.25 1.5 0  15 1.5 0  15.75 1.5 0  16.5 1.5 0  17.25 1.5 0  18 1.5 0  18.75 1.5 0  19.5 1.5 0  20.25 1.5 0  21 1.5 0  21.75 1.5 0  22.5 1.5 0  23.25 1.5 0  24 1.5 0  24.75 1.5 0  25.5 1.5 0  26.25 1.5 0  27 1.5 0  27.75 1.5 0  28.5 1.5 0  29.25 1.5 0  30 1.5 0  30.75 1.5 0  31.5 1.5 0  32.25 1.5 0  33 1.5 0  33.75 1.5 0  34.5 1.5 0  35.25 1.5 0  36 1.5 0  36.75 1.5 0  37.5 1.5 0  38.25 1.5 0  39 1.5 0  39.75 1.5 0  40.5 1.5 0  41.25 1.5 0  42 1.5 0  42.75 1.5 0  43.5 1.5 0  44.25 1.5 0  45 1.5 0  45.75 1.5 0  46.5 1.5 0  47.25 1.5 0  48 1.5 0  48.75 1.5 0  49.5 1.5 0  50.25 1.5 0  51 1.5 0  51.75 1.5 0  52.5 1.5 0  53.25 1.5 0  54 1.5 0  54.75 1.5 0  55.5 1.5 0  56.25 1.5 0  57 1.5 0  57.75 1.5 0  58.5 1.5 0  59.25 1.5 0  60 1.5 0  0 2 0  0.75 2 0  1.5 2 0  2.25 2 0  3 2 0  3.75 2 0  4.5 2 0  5.25 2 0  6 2 0  6.75 2 0  7.5 2 0  8.25 2 0  9 2 0  9.75 2 0  10.5 2 0  11.25 2 0  12 2 0  12.75 2 0  13.5 2 0  14.25 2 0  15 2 0  15.75 2 0  16.5 2 0  17.25 2 0  18 2 0  18.75 2 0  19.5 2 0  20.25 2 0  21 2 0  21.75 2 0  22.5 2 0  23.25 2 0  24 2 0  24.75 2 0  25.5 2 0  26.25 2 0  27 2 0  27.75 2 0  28.5 2 0  29.25 2 0  30 2 0  30.75 2 0  31.5 2 0  32.25 2 0  33 2 0  33.75 2 0  34.5 2 0  35.25 2 0  36 2 0  36.75 2 0  37.5 2 0  38.25 2 0  39 2 0  39.75 2 0  40.5 2 0  41.25 2 0  42 2 0  42.75 2 0  43.5 2 0  44.25 2 0  45 2 0  45.75 2 0  46.5 2 0  47.25 2 0  48 2 0  48.75 2 0  49.5 2 0  50.25 2 0  51 2 0  51.75 2 0  52.5 2 0  53.25 2 0  54 2 0  54.75 2 0  55.5 2 0  56.25 2 0  57 2 0  57.75 2 0  58.5 2 0  59.25 2 0  60 2 0  0 2.5 0  0.75 2.5 0  1.5 2.5 0  2.25 2.5 0  3 2.5 0  3.75 2.5 0  4.5 2.5 0  5.25 2.5 0  6 2.5 0  6.75 2.5 0  7.5 2.5 0  8.25 2.5 0  9 2.5 0  9.75 2.5 0  10.5 2.5 0  11.25 2.5 0  12 2.5 0  12.75 2.5 0  13.5 2.5 0  14.25 2.5 0  15 2.5 0  15.75 2.5 0  16.5 2.5 0  17.25 2.5 0  18 2.5 0  18.75 2.5 0  19.5 2.5 0  20.25 2.5 0  21 2.5 0  21.75 2.5 0  22.5 2.5 0  23.25 2.5 0  24 2.5 0  24.75 2.5 0  25.5 2.5 0  26.25 2.5 0  27 2.5 0  27.75 2.5 0  28.5 2.5 0  29.25 2.5 0  30 2.5 0  30.75 2.5 0  31.5 2.5 0  32.25 2.5 0  33 2.5 0  33.75 2.5 0  34.5 2.5 0  35.25 2.5 0  36 2.5 0  36.75 2.5 0  37.5 2.5 0  38.25 2.5 0  39 2.5 0  39.75 2.5 0  40.5 2.5 0  41.25 2.5 0  42 2.5 0  42.75 2.5 0  43.5 2.5 0  44.25 2.5 0  45 2.5 0  45.75 2.5 0  46.5 2.5 0  47.25 2.5 0  48 2.5 0  48.75 2.5 0  49.5 2.5 0  50.25 2.5 0  51 2.5 0  51.75 2.5 0  52.5 2.5 0  53.25 2.5 0  54 2.5 0  54.75 2.5 0  55.5 2.5 0  56.25 2.5 0  57 2.5 0  57.75 2.5 0  58.5 2.5 0  59.25 2.5 0  60 2.5 0  0 3 0  0.75 3 0  1.5 3 0  2.25 3 0  3 3 0  3.75 3 0  4.5 3 0  5.25 3 0  6 3 0  6.75 3 0  7.5 3 0  8.25 3 0  9 3 0  9.75 3 0  10.5 3 0  11.25 3 0  12 3 0  12.75 3 0  13.5 3 0  14.25 3 0  15 3 0  15.75 3 0  16.5 3 0  17.25 3 0  18 3 0  18.75 3 0  19.5 3 0  20.25 3 0  21 3 0  21.75 3 0  22.5 3 0  23.25 3 0  24 3 0  24.75 3 0  25.5 3 0  26.25 3 0  27 3 0  27.75 3 0  28.5 3 0  29.25 3 0  30 3 0  30.75 3 0  31.5 3 0  32.25 3 0  33 3 0  33.75 3 0  34.5 3 0  35.25 3 0  36 3 0  36.75 3 0  37.5 3 0  38.25 3 0  39 3 0  39.75 3 0  40.5 3 0  41.25 3 0  42 3 0  42.75 3 0  43.5 3 0  44.25 3 0  45 3 0  45.75 3 0  46.5 3 0  47.25 3 0  48 3 0  48.75 3 0  49.5 3 0  50.25 3 0  51 3 0  51.75 3 0  52.5 3 0  53.25 3 0  54 3 0  54.75 3 0  55.5 3 0  56.25 3 0  57 3 0  57.75 3 0  58.5 3 0  59.25 3 0  60 3 0  0 3.5 0  0.75 3.5 0  1.5 3.5 0  2.25 3.5 0  3 3.5 0  3.75 3.5 0  4.5 3.5 0  5.25 3.5 0  6 3.5 0  6.75 3.5 0  7.5 3.5 0  8.25 3.5 0  9 3.5 0  9.75 3.5 0  10.5 3.5 0  11.25 3.5 0  12 3.5 0  12.75 3.5 0  13.5 3.5 0  14.25 3.5 0  15 3.5 0  15.75 3.5 0  16.5 3.5 0  17.25 3.5 0  18 3.5 0  18.75 3.5 0  19.5 3.5 0  20.25 3.5 0  21 3.5 0  21.75 3.5 0  22.5 3.5 0  23.25 3.5 0  24 3.5 0  24.75 3.5 0  25.5 3.5 0  26.25 3.5 0  27 3.5 0  27.75 3.5 0  28.5 3.5 0  29.25 3.5 0  30 3.5 0  30.75 3.5 0  31.5 3.5 0  32.25 3.5 0  33 3.5 0  33.75 3.5 0  34.5 3.5 0  35.25 3.5 0  36 3.5 0  36.75 3.5 0  37.5 3.5 0  38.25 3.5 0  39 3.5 0  39.75 3.5 0  40.5 3.5 0  41.25 3.5 0  42 3.5 0  42.75 3.5 0  43.5 3.5 0  44.25 3.5 0  45 3.5 0  45.75 3.5 0  46.5 3.5 0  47.25 3.5 0  48 3.5 0  48.75 3.5 0  49.5 3.5 0  50.25 3.5 0  51 3.5 0  51.75 3.5 0  52.5 3.5 0  53.25 3.5 0  54 3.5 0  54.75 3.5 0  55.5 3.5 0  56.25 3.5 0  57 3.5 0  57.75 3.5 0  58.5 3.5 0  59.25 3.5 0  60 3.5 0  0 4 0  0.75 4 0  1.5 4 0  2.25 4 0  3 4 0  3.75 4 0  4.5 4 0  5.25 4 0  6 4 0  6.75 4 0  7.5 4 0  8.25 4 0  9 4 0  9.75 4 0  10.5 4 0  11.25 4 0  12 4 0  12.75 4 0  13.5 4 0  14.25 4 0  15 4 0  15.75 4 0  16.5 4 0  17.25 4 0  18 4 0  18.75 4 0  19.5 4 0  20.25 4 0  21 4 0  21.75 4 0  22.5 4 0  23.25 4 0  24 4 0  24.75 4 0  25.5 4 0  26.25 4 0  27 4 0  27.75 4 0  28.5 4 0  29.25 4 0  30 4 0  30.75 4 0  31.5 4 0  32.25 4 0  33 4 0  33.75 4 0  34.5 4 0  35.25 4 0  36 4 0  36.75 4 0  37.5 4 0  38.25 4 0  39 4 0  39.75 4 0  40.5 4 0  41.25 4 0  42 4 0  42.75 4 0  43.5 4 0  44.25 4 0  45 4 0  45.75 4 0  46.5 4 0  47.25 4 0  48 4 0  48.75 4 0  49.5 4 0  50.25 4 0  51 4 0  51.75 4 0  52.5 4 0  53.25 4 0  54 4 0  54.75 4 0  55.5 4 0  56.25 4 0  57 4 0  57.75 4 0  58.5 4 0  59.25 4 0  60 4 0  0.375 0.25 0  1.125 0.25 0  1.875 0.25 0  2.625 0.25 0  3.375 0.25 0  4.125 0.25 0  4.875 0.25 0  5.625 0.25 0  6.375 0.25 0  7.125 0.25 0  7.875 0.25 0  8.625 0.25 0  9.375 0.25 0  10.125 0.25 0  10.875 0.25 0  11.625 0.25 0  12.375 0.25 0  13.125 0.25 0  13.875 0.25 0  14.625 0.25 0  15.375 0.25 0  16.125 0.25 0  16.875 0.25 0  17.625 0.25 0  18.375 0.25 0  19.125 0.25 0  19.875 0.25 0  20.625 0.25 0  21.375 0.25 0  22.125 0.25 0  22.875 0.25 0  23.625 0.25 0  24.375 0.25 0  25.125 0.25 0  25.875 0.25 0  26.625 0.25 0  27.375 0.25 0  28.125 0.25 0  28.875 0.25 0  29.625 0.25 0  30.375 0.25 0  31.125 0.25 0  31.875 0.25 0  32.625 0.25 0  33.375 0.25 0  34.125 0.25 0  34.875 0.25 0  35.625 0.25 0  36.375 0.25 0  37.125 0.25 0  37.875 0.25 0  38.625 0.25 0  39.375 0.25 0  40.125 0.25 0  40.875 0.25 0  41.625 0.25 0  42.375 0.25 0  43.125 0.25 0  43.875 0.25 0  44.625 0.25 0  45.375 0.25 0  46.125 0.25 0  46.875 0.25 0  47.625 0.25 0  48.375 0.25 0  49.125 0.25 0  49.875 0.25 0  50.625 0.25 0  51.375 0.25 0  52.125 0.25 0  52.875 0.25 0  53.625 0.25 0  54.375 0.25 0  55.125 0.25 0  55.875 0.25 0  56.625 0.25 0  57.375 0.25 0  58.125 0.25 0  58.875 0.25 0  59.625 0.25 0  0.375 0.75 0  1.125 0.75 0  1.875 0.75 0  2.625 0.75 0  3.375 0.75 0  4.125 0.75 0  4.875 0.75 0  5.625 0.75 0  6.375 0.75 0  7.125 0.75 0  7.875 0.75 0  8.625 0.75 0  9.375 0.75 0  10.125 0.75 0  10.875 0.75 0  11.625 0.75 0  12.375 0.75 0  13.125 0.75 0  13.875 0.75 0  14.625 0.75 0  15.375 0.75 0  16.125 0.75 0  16.875 0.75 0  17.625 0.75 0  18.375 0.75 0  19.125 0.75 0  19.875 0.75 0  20.625 0.75 0  21.375 0.75 0  22.125 0.75 0  22.875 0.75 0  23.625 0.75 0  24.375 0.75 0  25.125 0.75 0  25.875 0.75 0  26.625 0.75 0  27.375 0.75 0  28.125 0.75 0  28.875 0.75 0  29.625 0.75 0  30.375 0.75 0  31.125 0.75 0  31.875 0.75 0  32.625 0.75 0  33.375 0.75 0  34.125 0.75 0  34.875 0.75 0  35.625 0.75 0  36.375 0.75 0  37.125 0.75 0  37.875 0.75 0  38.625 0.75 0  39.375 0.75 0  40.125 0.75 0  40
[...]
<PointData  Scalars="f_8-1"> 
<DataArray  type="Float64"  Name="f_8-1"  format="ascii">2.8031421691825072e+05  1.4410161568539741e+05  1.0135510549290819e+05  2.0196099570263113e+05  2.1881602521644832e+05  1.1131970682009967e+05  2.0768580081948751e+05  3.4908926856655465e+05  5.5998946003710711e+05  5.6425139798768924e+05  -1.2608546649486566e+05  3.6852602562183316e+05  -1.0914176384198213e+05  1.5358187767488832e+05  -4.4923470817971515e+05  -2.8505808893908525e+05  -3.4855603140937674e+04  -7.2980865338973526e+04  -1.1620666385009380e+05  3.8900151538584742e+05  -3.8664868532948603e+04  -2.9548467004088667e+04  -6.8935131004848541e+05  -1.9576761378983234e+05  1.4538831322743354e+05  1.7624781732642575e+05  -1.3448648196819195e+05  -6.6220739173535001e+05  6.6749808211530821e+04  -6.8641458801246758e+04  1.1243892405210654e+05  -1.1462395194208872e+05  -3.9722585562340028e+04  -2.8640428456501267e+05  -4.4929475670404511e+05  5.4096599532697146e+04  -1.9766154975561498e+05  -3.9805606972844223e+05  -1.6487532978598864e+05  4.2937209489795914e+03  -1.0962921326357061e+05  1.2584192508868720e+05  -7.8170584743285304e+04  -1.8071715852630921e+05  1.5487321945657145e+05  -2.2176952614467865e+05  -6.0433115962575277e+04  -5.8320183621116179e+04  -6.8549356443108802e+04  5.8400533844877478e+04  -2.7411036558415348e+04  4.8324919871669430e+04  -1.9034753778215751e+05  -1.2418874434030843e+05  -1.8285627720231278e+05  -1.0396642671240175e+05  -1.3174838480268026e+05  4.9635801610918250e+04  1.6110923335507570e+04  -2.7098764786468301e+05  -1.2303905996509612e+05  -1.6121957554690767e+05  -6.1109727667292282e+04  1.1846679755610711e+05  -8.8475879586805659e+03  -2.4139831337711137e+04  -1.0796130365886918e+05  -1.0432490237560387e+05  -2.5121348291714260e+05  -7.7554710653679591e+04  -1.8124485857119286e+05  2.9913934859451198e+05  -2.2529451411236674e+05  9.5853793135860396e+04  -2.5173835265618013e+05  -1.5607663058876252e+05  -3.9460552138828667e+05  -6.0639942161267635e+05  1.7906505701276660e+05  1.5894527526408760e+05  2.5643940285839963e+04  5.2964399480947366e+04  1.8991438663984434e+05  8.8453969100287795e+03  2.7459226871118380e+05  9.9712933515701065e+04  3.0471106191711273e+05  1.9827575971280743e+05  3.4778751053322409e+05  -1.5779394489466466e+05  -5.6533333442694180e+04  1.0848257353511454e+05  1.5383561113504929e+05  3.8562949493211490e+04  -8.3818209136870137e+04  -2.2674777730975332e+05  -3.2389704076919134e+05  1.5051927080979742e+04  -2.1233271257018266e+05  -4.7301562214753190e+04  7.2513369240274897e+05  -2.2632836922406254e+05  4.0210120974277517e+04  -3.9933714135342037e+04  -4.4457822940456987e+04  1.3754634651679912e+05  -1.8450039921206859e+05  9.2423616029884797e+04  -4.2151335426310328e+05  3.3457547998889924e+04  -1.6616692682157140e+05  1.6913222439939075e+05  2.7677548087771214e+05  -3.6222894838198519e+05  -1.1104223944101563e+05  -2.3945789434213145e+05  -1.8729314140998185e+05  -1.9249713304943559e+05  -2.1963466229626344e+05  -3.3849667081030260e+05  7.0196237442246493e+04  -7.4761812818655162e+04  -5.0627546886486547e+04  1.0135187314421234e+05  -6.9276350820472973e+04  5.8324329105830999e+04  2.2196327989813748e+04  -2.0282334381893332e+04  -1.3693304047173270e+05  -5.8168475427037039e+04  2.7588753539975511e+04  -1.0116356145248590e+04  2.0833502886669728e+04  -1.0549125585626594e+05  -1.4361535737911554e+05  -1.6044709610453379e+05  -1.0840300746540457e+05  -1.2636785869184275e+05  -8.5566741783558813e+04  -1.4078999866772437e+05  -1.0664664787648086e+05  -1.3261903253425233e+05  -1.3909774681011416e+05  3.6631160173596377e+03  -5.7063108606581096e+04  9.0104721744947674e+04  -1.9583148197248131e+04  -6.7857113330784035e+04  -1.2296269330346922e+05  -1.5351261382775765e+05  1.2742156949399953e+05  1.8434779377057604e+05  -6.4795596712602157e+04  7.9076714333111071e+04  2.0352668481596022e+04  -2.4170582287304409e+05  -1.7171980078823373e+05  -8.4296506546122269e+04  -1.4914613809739071e+05  -3.7568701212238775e+04  5.8637973390738603e+04  1.0959146343985012e+05  -4.0999970389330985e+04  6.6914126825396379e+04  3.7909259204241440e+04  3.6975349878576650e+04  2.1432279614265466e+04  2.4886062758728271e+05  2.4888322487910252e+05  2.0919773646377621e+05  7.7852471124083022e+04  -8.4435908042099705e+04  -1.1555479762880655e+05  -5.8124338721890177e+04  -1.5448545244478577e+05  3.0291029051451542e+05  -1.2256317994312708e+05  -1.4891735894819896e+05  1.7919929493646603e+04  -2.6692182817688212e+04  -8.8395303318748644e+04  1.2685135509993987e+05  -2.3743213770563563e+05  1.1257795201782208e+05  -2.7289674936078710e+05  -4.6078091253886647e+04  -3.2514647590398877e+03  4.5113478318678739e+05  1.7629741955192867e+05  -2.0422359646387841e+05  -2.6321880590830817e+04  -1.7749795555789807e+05  -3.0595046965000831e+05  -2.3237614253116431e+05  5.8450213207508932e+04  -7.4173167555133376e+04  -1.9367491477702564e+05  -2.5050152118940972e+05  -2.5485912537753271e+05  -1.9667381064239243e+05  -2.6766814165203838e+05  -6.3537091546772448e+04  -1.9785717414190080e+04  -2.4653548304060361e+05  5.7399043483403366e+04  -9.5768111875053539e+04  3.7331554303294659e+04  1.7144458441906350e+04  -7.5878203252774751e+04  -7.4296591158769937e+04  -3.8400267535160609e+04  -4.9818468330884301e+04  -1.0438818745538219e+04  -2.0433955344661869e+05  3.3056116159184172e+05  -9.8364702453811435e+04  -7.5112118323224830e+04  -1.0052768113385537e+05  3.3593822400479934e+04  -9.9019934646899972e+04  9.2005646359840284e+03  -1.7251335813391581e+05  -1.5575756312834990e+05  -7.9166967493202304e+04  -8.1949970871030600e+04  5.0848852681365526e+04  -2.8578859493466172e+02  5.4458451379485705e+04  1.2946809677782094e+04  -2.7757213744218450e+05  -1.0246055967918886e+04  -8.2669849526954175e+04  1.6307352729043688e+05  -3.4191107763132917e+04  1.6541030335569129e+05  -5.0438098776881532e+04  8.9505510516241440e+04  3.3684699055397679e+05  -4.0450715694207395e+05  -1.4653264422605195e+05  9.8018664342919757e+04  -1.5762723533991804e+04  -7.3281670213777601e+04  6.2847374294595895e+04  4.6626102458827918e+04  -9.2611156826694933e+04  6.0132651707445402e+04  -1.9846075580667311e+04  8.8934453051183576e+04  1.3154393469127369e+05  1.1811617590118441e+05  1.9132796054168217e+05  -1.9255738486537643e+05  -1.6006659222200631e+04  -1.5038265182756586e+05  -5.8215072188519793e+04  6.4866749587295941e+04  -2.8471375833611186e+04  -3.8381587806778116e+05  -4.9814125796287146e+05  -6.0895492459671812e+04  -1.4259760022273337e+05  2.0190583797511729e+05  -8.6867361805606270e+04  -3.1173084380528663e+05  -3.2030001454694062e+04  4.0186871063572027e+04  2.2313381002974004e+05  -2.6151800918735877e+04  -1.0465591267509865e+05  1.1403114953157773e+05  -2.7897885883026174e+05  -1.7857390708464105e+05  -1.1974390716342564e+05  -3.8186526521217078e+05  -2.8594667769227776e+05  1.5364609719799539e+04  -1.6455654715581264e+05  -8.5619102906862405e+04  -3.8197306309066899e+05  -2.0834712032445095e+04  -2.6762689050999517e+05  -5.3322203090023533e+04  6.9765509733094019e+04  -1.9310846060265056e+04  -1.4480243033254441e+05  -5.9965686414053547e+04  2.1826123574744954e+05  1.0215990505897305e+05  -1.0040228911641268e+05  -9.3472567142250118e+04  -3.5513839162203323e+04  -5.1298655282960099e+04  -6.4341696255689996e+04  -3.5350055467456303e+04  -1.0468065784162185e+05  1.8550097423375226e+05  -6.1223779322182185e+04  -1.1737889258810373e+05  -1.6626141562330551e+05  7.3535029334696737e+04  -4.0897849315482192e+04  -1.9417517545245752e+04  2.3173828708584551e+05  -1.7929161528039028e+03  -1.0762562302015220e+04  -1.0062022925935713e+05  1.4658802225282954e+05  1.5719610154475734e+05  -3.5687653732605380e+04  -8.0461233665184307e+04  -4.3521705187098967e+04  6.4796017738031085e+04  9.3881774685188939e+04  1.2651248856349073e+05  6.9093444341748851e+04  7.0433426657237360e+04  -1.6706372192225850e+05  5.5653542033899575e+04  2.4177355335532245e+05  -1.5362487614833636e+05  3.0303966952108825e+04  1.6420527586127087e+05  -6.6996696599567349e+03  5.0865359394378524e+04  -3.0765750808322216e+04  2.4941427122300483e+04  4.7004006390602604e+04  1.7501430199663845e+05  -2.1631064917453288e+04  -1.0379014532972602e+04  2.0590564531806676e+05  -5.4352531835005910e+04  -4.4059524877324824e+04  -3.7347368903917476e+05  3.7469034681304527e+05  4.1160278157617860e+04  -1.5055507542640166e+05  -1.1861516556296170e+05  2.2951127486795176e+04  -1.1046431769627736e+04  -4.1267605231381900e+05  1.5639449332022501e+05  1.2525887042776587e+03  -1.6361429096793060e+05  -5.6250646775806986e+05  4.1365604457301623e+05  -1.9689546468497950e+05  1.0239492702164473e+05  4.0840248635254538e+05  -4.8684996687349812e+03  -8.5236361574941169e+04  9.5068028406043537e+04  3.3585300502334925e+04  -2.2287914680761041e+05  -2.0630103017756459e+05  -3.7052107331924036e+05  2.2711525062473220e+05  -2.0805339679828484e+05  -2.6975191788105847e+05  1.5457911847105948e+05  -2.2007471547518508e+04  -1.1754570634837466e+05  -1.9427481240819875e+05  -6.6133796106853362e+04  5.3388456360234370e+04  -1.9933274269099016e+05  9.5341336358681059e+04  1.5923696855087086e+05  6.0507313247684404e+04  5.7470136432897161e+04  -2.3100193863669867e+05  -2.0495594920180309e+04  4.1806188535702340e+03  1.9135984551317317e+04  -6.6118585583391672e+04  -4.1051515178488793e+04  -1.5691936892649370e+04  1.1714725133800560e+05  9.6931589848701318e+04  -9.3122227807722942e+04  2.1459711511883803e+05  2.0260687054172051e+05  5.8985807271835671e+04  -7.0002080290493861e+04  8.3833694411866891e+04  -1.9449952104878477e+04  1.5172390791041893e+04  1.6937070856689537e+05  1.2629016153395925e+05  2.8795236760121661e+03  6.2439130540516548e+04  7.0314765072272421e+04  1.9045271487677298e+05  4.5988870681231449e+04  -1.0896572292301316e+05  -1.8158612208217917e+04  -8.7623127632230171e+04  -2.3698005545627821e+04  -3.3677745389849006e+04  7.9032205240052659e+04  1.2350143996528913e+05  1.1469443721961563e+04  1.1397205041382083e+05  -7.0282183738511259e+04  -2.1076734878817701e+04  1.0581769210726598e+05  -9.3175088346196746e+04  9.8647230897435220e+04  8.0230752637630882e+04  -2.3566151489469474e+04  -1.4446239236989657e+04  8.5724962256891828e+04  -1.3642662881392347e+04  5.1672020673540974e+04  -1.4034060386788062e+05  3.4946743198694504e+05  6.2914307876084978e+05  1.1358658769460728e+05  1.9677097553036982e+05  -5.4664198820634316e+04  -7.2791386785253490e+04  -1.6523638536413448e+05  -1.3787271789464095e+05  -1.5609735333881510e+05  -1.7462052996552159e+05  -2.9047809204106710e+04  1.0566408273498803e+05  -3.9115067904139718e+05  2.1667704986576617e+05  1.8344553766092344e+05  7.1961685190725268e+05  3.1056604847620276e+05  4.4065115916072135e+05  -1.3689311772767085e+05  1.0572807920314423e+05  -2.8622946139721689e+05  6.1699882572105991e+04  -1.8113815688047354e+05  -6.3596802428385956e+04  -4.1036358285209688e+05  -6.4687795204513772e+04  -7.3181234366635210e+04  2.1543061495055317e+03  -2.0665698219533519e+04  -3.4611252360268700e+04  -5.7916082261614210e+04  9.3866293115380045e+04  9.8903284991411434e+04  1.3089407718913075e+05  -2.7630985218224007e+04  -2.6209535743008328e+04  -9.3124958690063097e+04  -4.1328066014158241e+04  9.3544470080338680e+04  -9.8082410802978076e+04  -4.6834007751259036e+04  -9.1426784975876464e+04  1.9926075475205238e+04  1.3004152371450073e+05  -8.6186384024196508e+04  6.9407924307990266e+04  -2.4600219979990416e+05  1.3266550188986509e+05  -2.8456314218716700e+04  6.1765538603603396e+04  1.8300593900353964e+04  -2.7600188039356544e+04  3.1120720023713436e+05  2.0098276035582403e+04  3.5914030124465688e+04  1.9469597907189811e+04  -2.5734331685578895e+03  1.3628536285311665e+05  1.6298976019163176e+04  1.6146475232801936e+05  4.2638842452983005e+05  1.1676524982136162e+05  9.0421226581405048e+04  4.1633181945155229e+04  8.0775361881966615e+04  -2.7992365838078935e+04  -1.7344884540876123e+04  4.9041422208755452e+04  1.6710992227304980e+05  3.3654355390676632e+04  -1.7488490265071171e+03  -3.0530898603076050e+04  9.5347753895177942e+04  1.2787969466537504e+03  -1.3071752273769414e+04  3.3545265320475788e+04  4.5320787930374710e+04  6.6184581527174145e+04  3.1645121081365582e+04  1.3910877489654103e+05  7.1036279675726046e+03  -7.9524414612105711e+03  3.0721218487621751e+05  -7.3605314358579417e+04  7.4650309535535634e+04  1.7615041224025426e+04  -1.9393111212675364e+05  1.0685017662020153e+05  1.3602368362191255e+05  -3.0269006364230358e+05  -5.1097703265999895e+04  -1.2134112623482157e+05  -2.4646172923919276e+05  2.0251886608294491e+05  1.3284342448294896e+05  8.0388073864759514e+04  6.3064302233766776e+05  4.4267050018802116e+05  5.2673279767527165e+04  8.3614414216031815e+04  -9.7711901054485119e+04  2.4046776074170676e+05  -1.2297876096863736e+05  -1.5066196554648648e+04  -1.3591529194368367e+05  -1.9920921612560222e+05  -6.7242171452334705e+03  -1.0773405875622720e+05  -9.6553200773842575e+04  -1.0743233834641441e+05  -3.4042188084840868e+03  2.6091863430436195e+04  1.0487910803528463e+05  8.8956807220601782e+04  5.3470410725489644e+04  1.1197197697336333e+04  -2.9319728595047225e+04  4.3073188686449939e+03  -1.1524815916884985e+04  -1.8910339863708541e+04  4.7975787867722865e+04  -5.4297347052713612e+03  3.0184761627027325e+04  -2.4634021388579673e+04  6.1311202183058296e+04  -1.2251702513052187e+04  -9.0944266567224367e+03  6.6118986845399806e+04  -6.0279525992405206e+03  5.5564203784661739e+04  2.1099292911865210e+04  -8.1509207930106149e+03  -4.7058289182285162e+03  -1.8783783791902424e+04  -5.2614278295108845e+04  2.8739894930015656e+04  8.3527004880171298e+03  -1.1408435550649131e+05  -2.6939573281455774e+04  -3.4037071590144798e+04  6.8924547814069578e+04  4.9305815404925513e+05  1.3092404730523207e+05  -3.1527314133328005e+03  4.3624957424951914e+04  7.1350813791137363e+04  -6.0312547828167706e+04  5.3884584113368619e+04  -1.4180269549750278e+05  1.5175918611843241e+05  -1.0323355241228415e+05  -1.7533208317501263e+04  -2.3446745267770617e+04  -4.2901251179282881e+03  -5.5992501221876650e+04  -9.9076385903083428e+03  -6.4328197156588913e+03  1.1800648863879678e+04  1.3898944454400902e+05  -1.1440756115460799e+04  -5.1819873435523652e+04  6.2780787500348772e+04  -5.6320487187746367e+04  9.2911173740189435e+04  -2.0753104750816611e+05  -9.2831898888726850e+04  7.1324403085232352e+03  2.0579219537240770e+05  2.9672079788927874e+05  -9.1791526259916078e+04  8.4997315266968057e+04  2.5054000389034220e+04  -1.9121094403519711e+05  -5.5760198643216328e+05  7.7385726996496014e+04  3.5456449922012375e+05  2.6499674446811172e+04  4.9845714608458022e+05  -4.4076251327851911e+04  1.6228622143348976e+05  -1.0614362114912114e+05  6.5969144156056616e+04  -1.4301566507351268e+05  -6.5167034430644766e+04  -2.3962263374757345e+05  7.7928356363677536e+04  -1.4227359270411378e+05  -5.8897307505460092e+04  -1.1044152068689169e+05  -3.0691019511812046e+04  -2.8236397057611721e+04  -4.4766198047148930e+04  1.4200516559789763e+05  -6.6121686819278184e+04  1.5518267358291191e+03  3.9091999682340429e+04  -6.2777943601308783e+04  -3.2100338524304418e+04  -3.8802983191821382e+04  -7.7567956507323897e+03  5.5020331500922519e+04  -5.0319031948256634e+04  3.7226630799442260e+03  -5.7350884056680748e+04  -3.6709066762753588e+04  3.7138059424775645e+04  3.1996158413162913e+04  -2.4131857379829951e+04  3.9554316186059019e+04  3.4892118467668988e+04  3.5202528979723815e+04  8.1977261883402098e+03  6.1233609848386812e+04  -6.5142349163049636e+04  -1.1732571465809348e+05  -8.8062186508307961e+04  1.3438722041811151e+05  -1.0557051775369732e+05  3.9538219476412007e+04  -9.9702268064872915e+03  -1.0048312551978623e+05  5.7743137185317726e+04  1.4972211141398334e+05  -1.2715034961894629e+05  -1.8510170474966212e+03  2.2575806984944193e+04  7.2856329110505167e+03  5.9250125446361017e+04  2.4068327420932865e+03  -4.4963160876114191e+04  1.8680422531595046e+05  3.4431783331035636e+04  5.4108740444452575e+04  -1.7087909701229100e+02  2.3557150577053467e+03  2.0034053178317085e+04  9.1297406286411133e+03  1.6955965090485875e+04  -1.9092437834457993e+04  3.1801781784199695e+04  2.7570533335457974e+04  -8.9572608377857287e+03  -5.0554830272398794e+03  -7.1858481257347476e+03  1.4975123730983301e+04  -2.7978285673391238e+04  6.7504956017123870e+04  3.0285982789565300e+04  -1.6786269708346976e+04  1.1575273835823449e+05  7.6540633697894646e+02  4.6132204695622699e+04  -1.1686515613035193e+05  7.3211301217751989e+03  -1.5235174676263359e+05  6.6537709175281334e+03  2.0842246884738933e+05  2.2637071512212689e+04  1.6945685358538656e+05  1.7139529798593212e+04  -2.7046071261561668e+05  6.6821330259173614e+04  -1.3055259506254629e+05  9.9135996016296776e+04  -9.5068371207873119e+04  -8.1156212051136317e+04  -6.0725972700863429e+04  1.4393918314901321e+04  -1.1983658640246114e+05  1.8023594707480661e+03  -1.5085392362791481e+04  -1.1219633160958318e+04  2.2007046397359332e+04  -6.9688693644347250e+03  2.1763069819069937e+04  -3.4635157271401993e+04  6.3295568167005091e+04  -5.9732499648562924e+04  -1.8660508115686507e+03  -1.7669461026334830e+04  -2.1636469179321116e+03  2.2464224475001331e+04  -5.9170275111811507e+03  -2.0933846151839651e+04  -9.6314912864889175e+03  -2.2750569874111134e+04  1.9446582004222353e+04  2.8194990107387719e+04  -1.1174316501796809e+04  3.2172609124124101e+04  -9.4508435262840125e+04  3.7401742964410470e+04  3.6839438584070296e+04  -2.6734480013605204e+04  -9.7846391425896472e+03  3.4545872862941971e+04  6.0587929478536462e+04  1.4596111326366743e+04  2.8545029555579920e+04  -2.1941134902658898e+04  7.3248432593294492e+04  8.6784707272709929e+03  8.8400481095859926e+04  -6.6162393218610639e+04  4.2721659272477104e+04  3.2400438780460736e+04  -3.4329452917124549e+03  4.2396002380043545e+04  -6.2901249438544059e+04  2.3870695422433448e+04  7.2127212505767238e+03  1.8118263654677994e+04  9.9825701930685477e+02  1.2025570979208684e+05  4.7990983856290804e+04  1.1732730845018373e+05  2.0146029968965432e+05  1.8073432207177507e+05  1.3526352602436434e+05  1.7979135695022548e+05  5.3871846421475115e+05  3.0817885336451943e+05  -1.9975232267554163e+05  -6.2264008290955157e+04  1.0131749670244451e+05  -6.9883724911365944e+03  2.2145065416300007e+04  -4.1767204302926868e+05  -6.0492977417591680e+05  -1.6885685009581409e+05  -2.3918286540127421e+04  1.5098917014351347e+05  5.4606792986176501e+05  -7.8590305637229219e+04  -5.9527487738194619e+05  -4.1022301260243019e+05  9.1615762828176055e+04  -3.2902566394654341e+05  -7.4005466374632306e+04  -5.7087848825182940e+05  -2.5807991229151483e+05  6.4754023113591269e+04  -5.6181330234942572e+04  1.5635428728500355e+05  -2.6493608050931984e+05  -2.8187683650442335e+05  -3.1539077561141679e+05  -5.7231857362419984e+05  -2.2475083545297012e+05  -2.4124849193170457e+05  -9.1692442533375739e+04  -2.1987951619488705e+05  -1.2823226943018773e+05  -2.2735264681174737e+05  1.9929241550051469e+04  -9.5400301972721674e+04  6.7084494910020876e+04  7.0197234562540005e+04  -1.3281024553818480e+05  -1.9703858047313624e+04  -6.0850259687051548e+04  -2.7304862148809923e+04  -2.9873830580307014e+04  9.4228797219738522e+02  -9.9191366538284652e+04  -1.3217366699447104e+05  -6.1693115356180708e+04  -2.1870351885272952e+05  -6.3733932223812197e+04  -2.2380467482821870e+05  1.2094646053411624e+05  4.6377862487811100e+04  -2.8759906389688584e+05  -1.7180958090061249e+05  -2.1980348835951299e+04  -1.0705070177957017e+04  2.7259025460712433e+04  -9.6389474037458320e+04  -7.5401073838657670e+04  -6.8440401185901326e+04  -8.6312088193515781e+04  -2.6137323856493281e+05  -1.2428121799832003e+05  -1.2112590413278747e+04  3.1348946904517157e+05  -2.6112119117966580e+05  -1.7612286730679785e+05  -1.6573555818976599e+05  -5.0073366756615142e+04  -6.1329767800717067e+05  6.0427279596069515e+04  3.3577823090099881e+05  4.9668225923310412e+04  4.4063733048067406e+04  -3.0069020985969473e+04  