<?xml version="1.0"?>
<VTKFile type="UnstructuredGrid"  version="0.1"  >
<UnstructuredGrid>
<Piece  NumberOfPoints="1369" NumberOfCells="2560">
<Points>
<DataArray  type="Float64"  NumberOfComponents="3"  format="ascii">0 0 0  0.75 0 0  1.5 0 0  2.25 0 0  3 0 0  3.75 0 0  4.5 0 0  5.25 0 0  6 0 0  6.75 0 0  7.5 0 0  8.25 0 0  9 0 0  9.75 0 0  10.5 0 0  11.25 0 0  12 0 0  12.75 0 0  13.5 0 0  14.25 0 0  15 0 0  15.75 0 0  16.5 0 0  17.25 0 0  18 0 0  18.75 0 0  19.5 0 0  20.25 0 0  21 0 0  21.75 0 0  22.5 0 0  23.25 0 0  24 0 0  24.75 0 0  25.5 0 0  26.25 0 0  27 0 0  27.75 0 0  28.5 0 0  29.25 0 0  30 0 0  30.75 0 0  31.5 0 0  32.25 0 0  33 0 0  33.75 0 0  34.5 0 0  35.25 0 0  36 0 0  36.75 0 0  37.5 0 0  38.25 0 0  39 0 0  39.75 0 0  40.5 0 0  41.25 0 0  42 0 0  42.75 0 0  43.5 0 0  44.25 0 0  45 0 0  45.75 0 0  46.5 0 0  47.25 0 0  48 0 0  48.75 0 0  49.5 0 0  50.25 0 0  51 0 0  51.75 0 0  52.5 0 0  53.25 0 0  54 0 0  54.75 0 0  55.5 0 0  56.25 0 0  57 0 0  57.75 0 0  58.5 0 0  59.25 0 0  60 0 0  0 0.5 0  0.75 0.5 0  1.5 0.5 0  2.25 0.5 0  3 0.5 0  3.75 0.5 0  4.5 0.5 0  5.25 0.5 0  6 0.5 0  6.75 0.5 0  7.5 0.5 0  8.25 0.5 0  9 0.5 0  9.75 0.5 0  10.5 0.5 0  11.25 0.5 0  12 0.5 0  12.75 0.5 0  13.5 0.5 0  14.25 0.5 0  15 0.5 0  15.75 0.5 0  16.5 0.5 0  17.25 0.5 0  18 0.5 0  18.75 0.5 0  19.5 0.5 0  20.25 0.5 0  21 0.5 0  21.75 0.5 0  22.5 0.5 0  23.25 0.5 0  24 0.5 0  24.75 0.5 0  25.5 0.5 0  26.25 0.5 0  27 0.5 0  27.75 0.5 0  28.5 0.5 0  29.25 0.5 0  30 0.5 0  30.75 0.5 0  31.5 0.5 0  32.25 0.5 0  33 0.5 0  33.75 0.5 0  34.5 0.5 0  35.25 0.5 0  36 0.5 0  36.75 0.5 0  37.5 0.5 0  38.25 0.5 0  39 0.5 0  39.75 0.5 0  40.5 0.5 0  41.25 0.5 0  42 0.5 0  42.75 0.5 0  43.5 0.5 0  44.25 0.5 0  45 0.5 0  45.75 0.5 0  46.5 0.5 0  47.25 0.5 0  48 0.5 0  48.75 0.5 0  49.5 0.5 0  50.25 0.5 0  51 0.5 0  51.75 0.5 0  52.5 0.5 0  53.25 0.5 0  54 0.5 0  54.75 0.5 0  55.5 0.5 0  56.25 0.5 0  57 0.5 0  57.75 0.5 0  58.5 0.5 0  59.25 0.5 0  60 0.5 0  0 1 0  0.75 1 0  1.5 1 0  2.25 1 0  3 1 0  3.75 1 0  4.5 1 0  5.25 1 0  6 1 0  6.75 1 0  7.5 1 0  8.25 1 0  9 1 0  9.75 1 0  10.5 1 0  11.25 1 0  12 1 0  12.75 1 0  13.5 1 0  14.25 1 0  15 1 0  15.75 1 0  16.5 1 0  17.25 1 0  18 1 0  18.75 1 0  19.5 1 0  20.25 1 0  21 1 0  21.75 1 0  22.5 1 0  23.25 1 0  24 1 0  24.75 1 0  25.5 1 0  26.25 1 0  27 1 0  27.75 1 0  28.5 1 0  29.25 1 0  30 1 0  30.75 1 0  31.5 1 0  32.25 1 0  33 1 0  33.75 1 0  34.5 1 0  35.25 1 0  36 1 0  36.75 1 0  37.5 1 0  38.25 1 0  39 1 0  39.75 1 0  40.5 1 0  41.25 1 0  42 1 0  42.75 1 0  43.5 1 0  44.25 1 0  45 1 0  45.75 1 0  46.5 1 0  47.25 1 0  48 1 0  48.75 1 0  49.5 1 0  50.25 1 0  51 1 0  51.75 1 0  52.5 1 0  53.25 1 0  54 1 0  54.75 1 0  55.5 1 0  56.25 1 0  57 1 0  57.75 1 0  58.5 1 0  59.25 1 0  60 1 0  0 1.5 0  0.75 1.5 0  1.5 1.5 0  2.25 1.5 0  3 1.5 0  3.75 1.5 0  4.5 1.5 0  5.25 1.5 0  6 1.5 0  6.75 1.5 0  7.5 1.5 0  8.25 1.5 0  9 1.5 0  9.75 1.5 0  10.5 1.5 0  11.25 1.5 0  12 1.5 0  12.75 1.5 0  13.5 1.5 0  14.25 1.5 0  15 1.5 0  15.75 1.5 0  16.5 1.5 0  17.25 1.5 0  18 1.5 0  18.75 1.5 0  19.5 1.5 0  20.25 1.5 0  21 1.5 0  21.75 1.5 0  22.5 1.5 0  23.25 1.5 0  24 1.5 0  24.75 1.5 0  25.5 1.5 0  26.25 1.5 0  27 1.5 0  27.75 1.5 0  28.5 1.5 0  29.25 1.5 0  30 1.5 0  30.75 1.5 0  31.5 1.5 0  32.25 1.5 0  33 1.5 0  33.75 1.5 0  34.5 1.5 0  35.25 1.5 0  36 1.5 0  36.75 1.5 0  37.5 1.5 0  38.25 1.5 0  39 1.5 0  39.75 1.5 0  40.5 1.5 0  41.25 1.5 0  42 1.5 0  42.75 1.5 0  43.5 1.5 0  44.25 1.5 0  45 1.5 0  45.75 1.5 0  46.5 1.5 0  47.25 1.5 0  48 1.5 0  48.75 1.5 0  49.5 1.5 0  50.25 1.5 0  51 1.5 0  51.75 1.5 0  52.5 1.5 0  53.25 1.5 0  54 1.5 0  54.75 1.5 0  55.5 1.5 0  56.25 1.5 0  57 1.5 0  57.75 1.5 0  58.5 1.5 0  59.25 1.5 0  60 1.5 0  0 2 0  0.75 2 0  1.5 2 0  2.25 2 0  3 2 0  3.75 2 0  4.5 2 0  5.25 2 0  6 2 0  6.75 2 0  7.5 2 0  8.25 2 0  9 2 0  9.75 2 0  10.5 2 0  11.25 2 0  12 2 0  12.75 2 0  13.5 2 0  14.25 2 0  15 2 0  15.75 2 0  16.5 2 0  17.25 2 0  18 2 0  18.75 2 0  19.5 2 0  20.25 2 0  21 2 0  21.75 2 0  22.5 2 0  23.25 2 0  24 2 0  24.75 2 0  25.5 2 0  26.25 2 0  27 2 0  27.75 2 0  28.5 2 0  29.25 2 0  30 2 0  30.75 2 0  31.5 2 0  32.25 2 0  33 2 0  33.75 2 0  34.5 2 0  35.25 2 0  36 2 0  36.75 2 0  37.5 2 0  38.25 2 0  39 2 0  39.75 2 0  40.5 2 0  41.25 2 0  42 2 0  42.75 2 0  43.5 2 0  44.25 2 0  45 2 0  45.75 2 0  46.5 2 0  47.25 2 0  48 2 0  48.75 2 0  49.5 2 0  50.25 2 0  51 2 0  51.75 2 0  52.5 2 0  53.25 2 0  54 2 0  54.75 2 0  55.5 2 0  56.25 2 0  57 2 0  57.75 2 0  58.5 2 0  59.25 2 0  60 2 0  0 2.5 0  0.75 2.5 0  1.5 2.5 0  2.25 2.5 0  3 2.5 0  3.75 2.5 0  4.5 2.5 0  5.25 2.5 0  6 2.5 0  6.75 2.5 0  7.5 2.5 0  8.25 2.5 0  9 2.5 0  9.75 2.5 0  10.5 2.5 0  11.25 2.5 0  12 2.5 0  12.75 2.5 0  13.5 2.5 0  14.25 2.5 0  15 2.5 0  15.75 2.5 0  16.5 2.5 0  17.25 2.5 0  18 2.5 0  18.75 2.5 0  19.5 2.5 0  20.25 2.5 0  21 2.5 0  21.75 2.5 0  22.5 2.5 0  23.25 2.5 0  24 2.5 0  24.75 2.5 0  25.5 2.5 0  26.25 2.5 0  27 2.5 0  27.75 2.5 0  28.5 2.5 0  29.25 2.5 0  30 2.5 0  30.75 2.5 0  31.5 2.5 0  32.25 2.5 0  33 2.5 0  33.75 2.5 0  34.5 2.5 0  35.25 2.5 0  36 2.5 0  36.75 2.5 0  37.5 2.5 0  38.25 2.5 0  39 2.5 0  39.75 2.5 0  40.5 2.5 0  41.25 2.5 0  42 2.5 0  42.75 2.5 0  43.5 2.5 0  44.25 2.5 0  45 2.5 0  45.75 2.5 0  46.5 2.5 0  47.25 2.5 0  48 2.5 0  48.75 2.5 0  49.5 2.5 0  50.25 2.5 0  51 2.5 0  51.75 2.5 0  52.5 2.5 0  53.25 2.5 0  54 2.5 0  54.75 2.5 0  55.5 2.5 0  56.25 2.5 0  57 2.5 0  57.75 2.5 0  58.5 2.5 0  59.25 2.5 0  60 2.5 0  0 3 0  0.75 3 0  1.5 3 0  2.25 3 0  3 3 0  3.75 3 0  4.5 3 0  5.25 3 0  6 3 0  6.75 3 0  7.5 3 0  8.25 3 0  9 3 0  9.75 3 0  10.5 3 0  11.25 3 0  12 3 0  12.75 3 0  13.5 3 0  14.25 3 0  15 3 0  15.75 3 0  16.5 3 0  17.25 3 0  18 3 0  18.75 3 0  19.5 3 0  20.25 3 0  21 3 0  21.75 3 0  22.5 3 0  23.25 3 0  24 3 0  24.75 3 0  25.5 3 0  26.25 3 0  27 3 0  27.75 3 0  28.5 3 0  29.25 3 0  30 3 0  30.75 3 0  31.5 3 0  32.25 3 0  33 3 0  33.75 3 0  34.5 3 0  35.25 3 0  36 3 0  36.75 3 0  37.5 3 0  38.25 3 0  39 3 0  39.75 3 0  40.5 3 0  41.25 3 0  42 3 0  42.75 3 0  43.5 3 0  44.25 3 0  45 3 0  45.75 3 0  46.5 3 0  47.25 3 0  48 3 0  48.75 3 0  49.5 3 0  50.25 3 0  51 3 0  51.75 3 0  52.5 3 0  53.25 3 0  54 3 0  54.75 3 0  55.5 3 0  56.25 3 0  57 3 0  57.75 3 0  58.5 3 0  59.25 3 0  60 3 0  0 3.5 0  0.75 3.5 0  1.5 3.5 0  2.25 3.5 0  3 3.5 0  3.75 3.5 0  4.5 3.5 0  5.25 3.5 0  6 3.5 0  6.75 3.5 0  7.5 3.5 0  8.25 3.5 0  9 3.5 0  9.75 3.5 0  10.5 3.5 0  11.25 3.5 0  12 3.5 0  12.75 3.5 0  13.5 3.5 0  14.25 3.5 0  15 3.5 0  15.75 3.5 0  16.5 3.5 0  17.25 3.5 0  18 3.5 0  18.75 3.5 0  19.5 3.5 0  20.25 3.5 0  21 3.5 0  21.75 3.5 0  22.5 3.5 0  23.25 3.5 0  24 3.5 0  24.75 3.5 0  25.5 3.5 0  26.25 3.5 0  27 3.5 0  27.75 3.5 0  28.5 3.5 0  29.25 3.5 0  30 3.5 0  30.75 3.5 0  31.5 3.5 0  32.25 3.5 0  33 3.5 0  33.75 3.5 0  34.5 3.5 0  35.25 3.5 0  36 3.5 0  36.75 3.5 0  37.5 3.5 0  38.25 3.5 0  39 3.5 0  39.75 3.5 0  40.5 3.5 0  41.25 3.5 0  42 3.5 0  42.75 3.5 0  43.5 3.5 0  44.25 3.5 0  45 3.5 0  45.75 3.5 0  46.5 3.5 0  47.25 3.5 0  48 3.5 0  48.75 3.5 0  49.5 3.5 0  50.25 3.5 0  51 3.5 0  51.75 3.5 0  52.5 3.5 0  53.25 3.5 0  54 3.5 0  54.75 3.5 0  55.5 3.5 0  56.25 3.5 0  57 3.5 0  57.75 3.5 0  58.5 3.5 0  59.25 3.5 0  60 3.5 0  0 4 0  0.75 4 0  1.5 4 0  2.25 4 0  3 4 0  3.75 4 0  4.5 4 0  5.25 4 0  6 4 0  6.75 4 0  7.5 4 0  8.25 4 0  9 4 0  9.75 4 0  10.5 4 0  11.25 4 0  12 4 0  12.75 4 0  13.5 4 0  14.25 4 0  15 4 0  15.75 4 0  16.5 4 0  17.25 4 0  18 4 0  18.75 4 0  19.5 4 0  20.25 4 0  21 4 0  21.75 4 0  22.5 4 0  23.25 4 0  24 4 0  24.75 4 0  25.5 4 0  26.25 4 0  27 4 0  27.75 4 0  28.5 4 0  29.25 4 0  30 4 0  30.75 4 0  31.5 4 0  32.25 4 0  33 4 0  33.75 4 0  34.5 4 0  35.25 4 0  36 4 0  36.75 4 0  37.5 4 0  38.25 4 0  39 4 0  39.75 4 0  40.5 4 0  41.25 4 0  42 4 0  42.75 4 0  43.5 4 0  44.25 4 0  45 4 0  45.75 4 0  46.5 4 0  47.25 4 0  48 4 0  48.75 4 0  49.5 4 0  50.25 4 0  51 4 0  51.75 4 0  52.5 4 0  53.25 4 0  54 4 0  54.75 4 0  55.5 4 0  56.25 4 0  57 4 0  57.75 4 0  58.5 4 0  59.25 4 0  60 4 0  0.375 0.25 0  1.125 0.25 0  1.875 0.25 0  2.625 0.25 0  3.375 0.25 0  4.125 0.25 0  4.875 0.25 0  5.625 0.25 0  6.375 0.25 0  7.125 0.25 0  7.875 0.25 0  8.625 0.25 0  9.375 0.25 0  10.125 0.25 0  10.875 0.25 0  11.625 0.25 0  12.375 0.25 0  13.125 0.25 0  13.875 0.25 0  14.625 0.25 0  15.375 0.25 0  16.125 0.25 0  16.875 0.25 0  17.625 0.25 0  18.375 0.25 0  19.125 0.25 0  19.875 0.25 0  20.625 0.25 0  21.375 0.25 0  22.125 0.25 0  22.875 0.25 0  23.625 0.25 0  24.375 0.25 0  25.125 0.25 0  25.875 0.25 0  26.625 0.25 0  27.375 0.25 0  28.125 0.25 0  28.875 0.25 0  29.625 0.25 0  30.375 0.25 0  31.125 0.25 0  31.875 0.25 0  32.625 0.25 0  33.375 0.25 0  34.125 0.25 0  34.875 0.25 0  35.625 0.25 0  36.375 0.25 0  37.125 0.25 0  37.875 0.25 0  38.625 0.25 0  39.375 0.25 0  40.125 0.25 0  40.875 0.25 0  41.625 0.25 0  42.375 0.25 0  43.125 0.25 0  43.875 0.25 0  44.625 0.25 0  45.375 0.25 0  46.125 0.25 0  46.875 0.25 0  47.625 0.25 0  48.375 0.25 0  49.125 0.25 0  49.875 0.25 0  50.625 0.25 0  51.375 0.25 0  52.125 0.25 0  52.875 0.25 0  53.625 0.25 0  54.375 0.25 0  55.125 0.25 0  55.875 0.25 0  56.625 0.25 0  57.375 0.25 0  58.125 0.25 0  58.875 0.25 0  59.625 0.25 0  0.375 0.75 0  1.125 0.75 0  1.875 0.75 0  2.625 0.75 0  3.375 0.75 0  4.125 0.75 0  4.875 0.75 0  5.625 0.75 0  6.375 0.75 0  7.125 0.75 0  7.875 0.75 0  8.625 0.75 0  9.375 0.75 0  10.125 0.75 0  10.875 0.75 0  11.625 0.75 0  12.375 0.75 0  13.125 0.75 0  13.875 0.75 0  14.625 0.75 0  15.375 0.75 0  16.125 0.75 0  16.875 0.75 0  17.625 0.75 0  18.375 0.75 0  19.125 0.75 0  19.875 0.75 0  20.625 0.75 0  21.375 0.75 0  22.125 0.75 0  22.875 0.75 0  23.625 0.75 0  24.375 0.75 0  25.125 0.75 0  25.875 0.75 0  26.625 0.75 0  27.375 0.75 0  28.125 0.75 0  28.875 0.75 0  29.625 0.75 0  30.375 0.75 0  31.125 0.75 0  31.875 0.75 0  32.625 0.75 0  33.375 0.75 0  34.125 0.75 0  34.875 0.75 0  35.625 0.75 0  36.375 0.75 0  37.125 0.75 0  37.875 0.75 0  38.625 0.75 0  39.375 0.75 0  40.125 0.75 0  40
[...]
<PointData  Scalars="f_8-1"> 
<DataArray  type="Float64"  Name="f_8-1"  format="ascii">-3.1952300930108159e+05  -1.5110321367396417e+06  -1.6037645597256969e+06  -2.8890710724998605e+06  -1.5172301794203536e+06  1.1734487083667864e+06  1.6492466363018660e+06  1.6593616479781754e+06  -4.0058856964844809e+05  2.6085706181342611e+06  5.1868011790874967e+05  1.4113764509436686e+06  5.2535807044987357e+05  -5.8034316906054248e+05  5.9836045406354428e+05  -9.3957752024638921e+05  8.6567839608657546e+05  5.1906086947190779e+05  1.4987417896295390e+06  -1.2539376976457431e+06  5.5412807696095353e+05  -6.0915752356452937e+05  6.3917635780370608e+05  8.5738661449131230e+05  1.0960737197155567e+05  -8.7280050919672896e+04  -4.6655297750022553e+05  2.7539011863120284e+05  4.1771243581261125e+05  3.8824649428919278e+05  3.7302872531443235e+05  2.1788901767336851e+05  -2.3633506509143190e+04  4.1350126926548022e+05  2.1629785214658693e+05  2.3271439876651924e+05  -6.3986164259619014e+04  4.8929380043681653e+05  -3.8581102808785660e+05  1.3866242472148230e+05  9.1866531997416262e+05  6.0850529242724436e+05  -9.5830806367530065e+04  -1.6646633325995776e+05  -4.6934980173780344e+05  -3.8612207478000486e+05  -3.9833070258990146e+05  -4.2524503661575308e+05  2.2983634710432438e+04  -1.4348909141286705e+06  -2.2247961119206523e+05  -1.2380196514818358e+05  -1.1524561216100529e+05  -1.0772668630560153e+05  8.4605609900589206e+05  1.5612609808065806e+05  -3.3321616455640813e+05  1.0285068986764909e+06  5.0717835074762767e+05  1.7813467043931589e+06  1.6947573807055519e+06  4.6572592285400787e+06  7.8998251430682675e+05  -5.0722741523243301e+05  2.8761082469779011e+06  2.2165336911558709e+06  3.1708034351993049e+06  7.2577879466479644e+06  2.1017106835683384e+06  -1.2172501394829569e+05  2.4239443181426791e+06  -1.3715706854281093e+06  -1.0553472465711856e+07  -4.1716820399746620e+06  -6.5492133898498188e+05  1.9682210801363441e+06  2.2394877721081623e+06  -3.3497389054576769e+06  -5.9789110250749209e+03  -8.9160710290512384e+05  4.3478506830046512e+05  5.4586116169744753e+05  -2.0366284834267206e+06  -1.0068724781594477e+06  -1.6561763245715508e+06  -4.9263429465242650e+05  3.0197423680606927e+06  1.6078357693033039e+06  2.4583073918598206e+06  2.0777684271018880e+06  9.4815263183139428e+05  6.8005024736843375e+05  1.1924825095899862e+06  7.3309381726375423e+03  -1.2722488183305648e+06  5.0298051816760167e+05  -3.3584062321778073e+05  1.4663945792509876e+06  -3.7215784641167396e+04  2.7313996615748624e+06  2.0589792315073070e+05  -3.1509281675145461e+05  9.5095277970362920e+05  6.7146296718804073e+05  8.7780585360624490e+05  -2.9987774100646994e+05  2.9140592968797404e+05  3.9493638040677062e+05  2.7978370652644581e+05  1.3766907991474326e+05  6.8697390570234251e+05  2.0790314518889773e+05  1.6446064759613381e+05  2.3310656113836114e+05  1.8804849897790796e+05  2.5918752178001218e+05  3.6164315709872346e+05  -8.3506335019708094e+03  2.6231184235823463e+05  1.9669896415424519e+05  -1.0427071277031497e+05  2.7051137334097875e+05  1.6409226141990424e+05  -2.4201108812942571e+05  -1.9108251019095891e+05  -2.5344688272505160e+05  -1.8197196571594090e+05  -1.1313966290664465e+05  2.0384664924062101e+04  5.2001205745453975e+05  9.4505359724733164e+05  -2.5239177875837145e+05  -3.9035955978334056e+02  -3.9084344516209909e+05  -1.9692049992558414e+03  4.4296539021843317e+05  2.0081307145208216e+05  -2.4422023296000189e+05  6.8542661822550965e+05  5.1080372882673331e+05  2.8939319674608177e+06  3.0302756469008592e+06  2.8022242639898639e+06  8.3666009038058063e+05  5.7594247251800913e+05  2.6068895450919187e+06  1.9985325297985990e+06  4.0547084688287890e+06  1.9102023489705757e+06  3.7906462776467735e+06  -1.1657463857265057e+06  -5.7431124801954534e+05  -1.1789593364189507e+06  -4.0092362487597689e+06  -2.2261151774517614e+06  7.8051234735831444e+05  2.8105541341557954e+06  1.2627911473719261e+06  2.5725599209417603e+06  -5.6241694925311413e+06  5.6551833812540805e+05  2.8626002959413937e+05  -1.5138618943818388e+04  -3.8806897061509802e+05  -1.5145624876555186e+05  -2.3309674774206226e+05  -8.9315236067722563e+05  1.0440686204908018e+06  3.5268611928170971e+06  2.2283274802075974e+06  2.7535392489984590e+06  1.2679096082311193e+06  8.2748916810524452e+05  1.5878957251961989e+05  1.6630716972834610e+06  -1.0145532827985103e+06  -1.5555082731103674e+06  -1.0032594346819845e+03  -2.2450544320923390e+05  2.0196189467804630e+06  -1.1538295495678433e+06  -5.3301948050922062e+05  -2.2601320777734220e+06  3.5007478961409652e+05  8.0865710648314166e+05  2.0185525179494437e+05  -7.0143931301780301e+05  4.1511741770319280e+05  -1.0402692165428666e+05  -2.1534173675492877e+05  4.7704606331464864e+05  5.7816765190457075e+05  4.7513517104737204e+05  6.2250927734711739e+04  3.1745973652357259e+05  5.7528335050142824e+05  4.4203679369762185e+05  4.4345808262206439e+05  -3.4991561871693702e+05  3.4614582702210330e+05  -3.6246735513311269e+05  3.2863413364881708e+05  -7.9072157192858838e+04  -2.6088021238723825e+05  1.1119834313257843e+05  3.3059089532957465e+05  2.8343542898513330e+05  -3.9056181527395354e+04  6.6439315835880087e+04  -4.7690946942266275e+05  4.3039937452838574e+04  -6.7813964419155486e+05  -4.9817921974914998e+05  -4.4517091834117447e+04  -1.5190597531375629e+05  -1.5731071868441862e+05  3.5497988096271432e+05  4.3887952435611963e+05  -1.4612771789510653e+05  8.8758596149995667e+05  1.7778798038817469e+06  1.8921736463250890e+06  3.0540280828954903e+06  1.6883551915178010e+06  -1.1881805037581238e+05  1.2050501041785468e+05  -8.9696174588387110e+05  3.4987174381785346e+06  2.9946242765442053e+04  3.2993258244472905e+06  2.8295738640466467e+06  2.7389350439514476e+05  -1.4761966177260862e+06  -6.8230670361306740e+05  -1.0731134170590844e+06  1.0385260106516354e+06  1.1616365122297821e+06  2.8281148098222907e+06  1.8644122939705860e+05  -5.4983784397908789e+05  -1.3972528026504777e+06  -2.2973539306866420e+06  1.8458115139283481e+05  -1.3378254951641810e+05  -4.1149267539157683e+05  -1.5583962500385232e+06  -2.5535340324432091e+05  2.3444665893718731e+05  -1.0655105094710928e+06  2.6564216547670225e+06  2.5650310563924192e+06  1.5744258703884154e+06  5.4071317909291002e+05  1.0716411908713132e+06  4.7039666928866791e+05  2.0818758452200757e+06  2.3536144372239834e+05  -1.3933761357055523e+05  -3.1024732626970832e+04  -4.9498136227898402e+04  6.8022762463132164e+05  5.7065037674124622e+04  -1.2943771708828416e+06  -1.2467715988354413e+06  -5.5394197829647572e+05  3.5873106712285377e+05  -1.2412425146988357e+05  2.1694144174470269e+05  -7.0265625449188927e+05  -2.5028523822757670e+03  5.0617346932134114e+05  4.1024878592408536e+05  3.6063123266865767e+05  1.5396962302168828e+05  3.6275219999044907e+05  8.3049228245444698e+04  2.4610377261769184e+05  1.9402962757557444e+05  3.8647916198074725e+05  -1.6731084919604505e+05  7.8688242886374137e+04  -1.4379620247493783e+05  1.1194369974896939e+05  8.1261422528707859e+04  1.0125120760099617e+05  -1.0821730164243787e+05  4.7262470782010141e+05  4.1312351533164496e+04  3.7627773257430847e+05  -4.1172711723159881e+02  -4.6145895325650275e+05  -1.1483290686223819e+06  -1.5608499076034589e+05  3.4977841037812253e+05  5.5659174329318909e+05  1.3269898753376163e+06  -7.7611711164688086e+05  -1.6336597878717049e+05  3.1963616975179286e+05  7.2192310511824803e+05  3.7316044390925590e+05  1.2228864884166715e+06  8.1060785280630807e+05  -1.9642020045080784e+05  7.9837204843494250e+05  4.8340366129269183e+05  1.3323611657393165e+06  2.7933529760250044e+06  -2.9801346636370406e+06  2.9794681446861518e+06  4.7378071596282506e+06  3.7297399057948343e+06  2.2390871025331417e+05  -3.2050902725445462e+05  1.3790583313967767e+06  -2.8849588149949429e+06  2.6323435915300488e+06  -2.8388617168643442e+06  2.1183122445197599e+06  -1.1264872677975218e+06  1.5849257527529676e+06  -7.8854257461913291e+05  1.9656681639761443e+05  1.4415372175120006e+06  -4.7009382011624315e+04  -2.1097630416067573e+06  -9.4589907243179344e+05  1.8379124754400025e+06  1.1366708021651525e+06  -7.5921257562095858e+05  2.1635899825834599e+06  3.9400100211251224e+06  6.0617724786996050e+05  2.0652121228441007e+06  3.7241816087564832e+05  1.0897422972213670e+05  1.0510050909393446e+06  1.3048524044209992e+05  -4.0279879016965104e+05  -4.4885853846448805e+05  -1.4381363747566771e+06  1.0080672562740800e+05  -6.4639651332030515e+05  -5.4514333745920088e+05  -1.0081197052199595e+06  -7.9394525698876742e+05  -4.0711592138413776e+05  2.4285684254722303e+05  -4.8115404786936473e+05  -8.5015771010699507e+05  -1.1507781727554982e+05  2.2138203481536152e+05  3.6497301677863655e+05  9.8430840340381337e+05  1.2588539643446202e+04  1.2550379900721906e+05  3.3016401457553811e+05  -6.9540310251270726e+04  -2.4151342896745271e+04  1.3776390527549526e+05  7.9040392462603064e+04  2.9157990796556365e+04  -5.1651137098682293e+05  9.3894241801105396e+04  -1.8172942453171362e+05  -3.8441687865114318e+03  1.0107530784863350e+05  1.2104881401973765e+05  1.5915300166838590e+05  3.1440239575382609e+04  2.5065770231330553e+04  1.0956552488909379e+05  -3.4204395080603112e+05  -3.7197735107310390e+05  9.2279479433710710e+05  8.7621671573004837e+05  7.5790213125843718e+05  1.1823760179210980e+06  -1.6123952688839479e+04  2.8230350642846152e+05  -2.6046827790197771e+05  3.4415852343278832e+05  9.8705417734034930e+05  -2.3423298480441456e+05  -9.7328860200857406e+05  -1.5439013116259982e+06  8.5847168494268833e+05  -1.2679956599035696e+06  3.0821965961781624e+06  -1.9060249775448041e+06  2.3675009652417107e+06  2.4237472139678366e+05  2.8091405230740565e+06  -3.0087597024133976e+05  1.8349465391364796e+06  -2.6039720936128763e+06  2.5243916410881300e+06  6.2413218003425398e+05  -2.5293611247929381e+05  1.7679392453507136e+05  -4.0015209329559485e+05  8.0051358041883272e+05  -2.0292935674307537e+06  1.1771143381532426e+06  -6.3504555509706400e+05  -5.7201072867873199e+06  -4.0554007928880677e+06  2.3947063733137045e+06  -3.8684243350807534e+04  -1.6667334436843703e+06  -1.0301421046960949e+05  -3.3151743072301135e+06  -4.6279136312693724e+05  6.1050017235850438e+05  2.5047901751550689e+05  5.2283635254612530e+05  7.0753277047213376e+05  -1.4581846414001768e+06  -5.0086516825183580e+05  3.9636302557900536e+05  2.0074111557089372e+06  -1.5034376405416680e+06  -6.7636623588612024e+05  -1.4671079663280974e+05  3.2606632977119250e+04  4.6901092169230396e+04  5.9168906217732518e+04  -1.3812293136025826e+05  6.2930403100402583e+05  8.1681657185183911e+04  -2.1677075375461637e+05  -6.4049297339825207e+04  4.9529171458851144e+05  4.9721869297482143e+05  -1.2276307403310529e+05  2.2944435780176357e+05  3.2649096706590068e+05  5.8792402396100853e+05  1.1699688093992147e+05  -1.3543786581900346e+05  3.3298450552720163e+05  -8.0906730986681257e+04  -1.8939138641034247e+05  -1.2171755590356512e+05  -1.8537156134736215e+05  1.5400997681374353e+05  -2.1125203337787287e+05  2.0428532390979829e+05  3.2312780866335763e+05  2.6896799485988420e+05  3.6728399961033859e+05  -4.3743597997204430e+04  1.7725482672574435e+05  -3.9737895493768679e+05  -7.2053583844889421e+05  3.6536283549179177e+05  6.7115939706155250e+05  -2.1344245640443027e+04  5.1613061359255097e+05  7.1870582714766718e+05  -1.5099656135308810e+06  1.5699507677230246e+06  -2.4138183881342050e+05  -6.3019625525359123e+05  6.9129083543119323e+05  1.1467029707677932e+06  -5.9807166099246300e+05  -5.3717184248903336e+05  -2.2152777123858038e+05  -2.1267247873920648e+05  3.2718391882810532e+06  7.0274647268525197e+05  1.2808729272345454e+06  3.9395111819168571e+06  1.4608467114218071e+06  -3.6074446075123437e+06  1.1212208471825726e+06  1.1291603605817230e+06  4.2157229502435098e+05  3.6927102063880088e+06  2.1132766182475421e+06  -7.7378874862247414e+05  1.9720068229497459e+06  -1.0255776889290665e+06  -5.2490783167142060e+05  -4.7594136205735803e+05  8.8499085070584819e+05  2.9765245268569788e+05  -4.3298574823622243e+05  -4.6138384189202415e+05  -1.4714497746955245e+06  8.0359887989916629e+05  -2.3905820094905067e+06  1.6278581972239288e+06  1.0984515338007272e+06  -4.1962132706234808e+05  2.0807696217365083e+05  1.2302660755638617e+05  7.5267377726773417e+05  1.0177127037370673e+06  -2.7461898510198790e+05  9.0973011727367586e+05  -6.9883613659809250e+05  -9.5425744475108309e+04  -7.1583818789961969e+05  -6.6298729824172694e+05  6.7931508436087135e+05  4.0491052970957034e+05  4.9125577870373556e+05  -4.4760151455158863e+05  6.2816423134557449e+05  1.2061696901140842e+05  1.3024292327098480e+05  2.0521366154500761e+05  2.8193037561884924e+05  3.4518523378695943e+04  1.6170214098794773e+05  3.4685118562693184e+05  3.0472870883632480e+05  -1.2877794287431991e+05  2.0311081645224191e+05  -3.5921918831273640e+05  5.3406433710234909e+04  -4.1424631355410093e+05  -2.5001514064766432e+05  -1.2685607664918418e+05  5.5286701877789652e+04  -3.4134296001963934e+05  2.4652950993523700e+05  3.0913834820696682e+05  1.3271763985581783e+05  1.4084027741599240e+05  -1.8373460894383243e+05  -5.5517474967148453e+04  2.0993157088474687e+04  1.7567833922136048e+05  -2.5953875760780084e+04  -6.5232143144740281e+05  1.7626153135515121e+05  -2.3504642424985414e+05  1.2489814262620785e+05  4.4941129316019542e+04  2.7286883312669996e+05  3.2540079981984635e+05  -2.8368449736641621e+05  5.3145719181013526e+05  1.5978703182475832e+06  6.2754516707789269e+05  4.0004615936609678e+05  -1.9694775304188537e+06  4.2430616739686287e+05  2.9816974897903862e+05  3.4577923770093820e+06  1.6239041604132126e+06  2.0262393415426444e+06  1.9162918740560941e+05  2.5720781269782111e+06  2.3607623102323646e+06  -7.0261777304967830e+05  1.9021927499486874e+06  6.9583577259862737e+05  5.3252360023602122e+05  3.4239585579635003e+06  -1.0332304078465736e+06  -8.4078184487423871e+05  -1.4191282525843659e+06  7.6379225975817244e+05  -3.1484857355013391e+04  6.9343469990978669e+05  -2.6737886214390397e+05  -8.7607135419626790e+05  -2.3055931171019548e+06  3.0115662942800457e+06  8.3461792509322159e+05  -1.2640497676923573e+06  -5.1159544854016593e+06  -1.3425721715225070e+06  -4.3900341168322680e+04  3.5071244243097876e+05  8.4686759748308535e+05  5.2910661622186808e+05  -2.5938925414378199e+05  -1.7962588963371541e+03  2.4567552343264170e+05  -9.8378304095658037e+04  -2.7262986285851785e+05  2.3090678052158805e+05  2.9381318930708605e+05  8.1487540076265740e+05  3.6288686225816765e+05  4.1438361102966836e+05  -4.1496715115107462e+05  3.4572654853883502e+05  7.6164327798024620e+04  2.2729905280959679e+05  -2.0621331860292581e+05  -3.8059875179433184e+04  2.1933606095980061e+05  1.7448872775884702e+04  1.9625010544720339e+05  9.8571862441777106e+04  -4.5443410812433249e+04  1.8081732147433568e+05  -4.0107627419598502e+04  7.4763173203368395e+04  -1.5479275870973064e+05  -1.2480413803586386e+05  -1.2961237991510054e+05  -1.0133413824270022e+05  -6.0269946051299332e+04  3.1920142831550760e+05  -1.0111842307002262e+05  -2.2243905260667505e+05  -1.6702473152807772e+04  -2.3920950892633951e+05  6.3466396385793341e+04  3.3155415060182690e+05  -6.3852798407040413e+04  -8.8859158556492675e+03  -2.0257041138268021e+05  2.1729393687393321e+05  -1.9996982240675509e+05  1.1004947807216503e+05  5.0925922395602631e+05  1.4484716650954608e+06  -8.4453642235247931e+05  2.9681146521732432e+05  9.0448050760884478e+05  6.1816707382444816e+05  1.4625077996990988e+06  9.7872094386471657e+05  -6.6449588346941711e+05  1.3917711774163735e+06  1.2112736139416615e+06  -1.6049490689322697e+06  5.6692183963596439e+06  -1.0318914011617677e+06  -6.4585387381116860e+05  2.9220247082103346e+06  2.5718920362503547e+06  -4.8400162607966556e+05  2.5297650684124283e+06  1.3730974723547853e+06  1.0930164281932942e+06  -5.2742094267917506e+05  -4.1725101188022632e+05  -1.2885622837567467e+06  5.5898706414430623e+05  2.9582727851162391e+05  -9.7383446293269331e+05  1.8307328052383318e+05  -1.1944834755722862e+06  1.5327932540052275e+06  1.1126356295693635e+06  -1.0396767391011642e+06  6.7668378237932659e+04  2.1769506792448866e+05  -4.1801596963302913e+05  6.2863135743108869e+04  2.1779125722182373e+05  -2.5903488872705516e+05  3.4689363074168825e+05  -8.0579898334406884e+04  6.1648966810348583e+05  -2.5536401618006270e+05  2.9656501693080255e+05  -4.0530037547784456e+05  5.6062226860589297e+04  2.3153971750094907e+05  2.2945073989402875e+05  -2.1048816825326908e+05  2.5542837668253263e+05  5.7430807342215127e+05  2.3488790442248061e+05  1.3804617623619831e+05  -1.1634267814947717e+05  9.8720039960618393e+04  -1.8874329337649819e+05  2.2202072578467356e+05  -6.5156005685153708e+04  1.6494921991226354e+04  -1.8451430482957506e+05  2.1582028237629359e+05  -1.7526197601299986e+05  3.4211277159485559e+05  1.1310833321936261e+04  -6.9396208904705592e+04  -1.1235947957147793e+04  -8.8412289503488078e+04  7.9942920137002202e+03  7.3832592953601881e+04  5.9202934074432291e+04  5.6883587124272672e+04  -2.7861979210036754e+05  2.9219206871481136e+04  1.3629413866468196e+05  -5.9690063770900160e+04  1.0765795541863813e+05  -2.8912699793856218e+05  -2.4329948111621506e+05  2.5832314079892654e+04  -1.6703781355100451e+05  3.9973497142659049e+04  -2.2396473006349680e+05  2.2438442773509657e+05  5.7680652742645680e+05  -1.6890569816188538e+05  -2.7104125402128173e+05  5.4460987292186619e+04  4.7400992833309327e+04  1.7915613066441205e+05  3.2007300498848240e+05  -3.3116117650672770e+05  -8.8555023171432456e+05  -8.5540533250950009e+05  9.2441512317470799e+05  -2.7676221920010378e+06  3.3897770771085616e+05  -5.0613324510433531e+05  1.4236507984228274e+06  1.3767941393391762e+05  -5.8203329902309191e+05  1.0934417379943508e+04  1.3954496666887645e+06  -7.1290262323090597e+05  -6.4332391269903246e+05  1.1142506267185200e+06  3.9659369117962132e+05  -5.1166771961764421e+05  -1.1344115163717454e+06  -1.9790524272041344e+06  -1.7290888313377104e+06  -1.8872328292672674e+06  -6.7476696906435536e+05  3.0020394651674465e+06  1.8291924876917456e+06  9.5816208745724033e+05  1.5179523598268547e+06  -8.7292723026289325e+05  9.2024203119701473e+05  3.3661647095410631e+05  1.9691533841706868e+06  5.6934524904849695e+05  -3.7541876899184968e+05  1.4439527320704302e+06  1.3455977096979634e+06  2.4231879258570942e+05  2.4815462539756915e+05  1.3553646698522377e+06  3.4235863078600133e+05  1.6021494542015151e+06  4.1061553007149568e+05  5.9608712395613303e+05  -1.2100216531264946e+05  -2.2589466216255337e+05  -2.1715318025151626e+05  4.0230609381794930e+05  4.4005337357865484e+05  3.6243516323038889e+05  3.5095509905071685e+05  1.9684144616260906e+05  5.9477219584201666e+04  4.7743880461315723e+05  1.7981753424353202e+05  2.9424237389910500e+05  2.4925711319322436e+05  1.2969253822501247e+05  7.1589853611573446e+04  5.0459625242127985e+05  1.6491010098615612e+05  3.1217037712305522e+05  -2.0685541731769542e+05  -2.1179622553438571e+05  -1.7287755903101247e+05  -3.6019861814700277e+05  -7.3681820627626975e+05  -4.1381424334413442e+05  -8.1767652069166780e+05  1.4214790918101842e+05  -7.3244294822030305e+05  1.5731938801547940e+05  2.5298390623136150e+05  6.2761550179091934e+05  3.3663689792789373e+05  1.3239359323375611e+05  5.1809098716919188e+05  8.3568626717218559e+05  1.9222724987125690e+06  1.7775235373946165e+06  2.8914097186943572e+06  1.3772417200101151e+06  -6.7236455954548661e+06  2.3239686676596757e+06  1.1939992482149315e+06  2.8378213063364136e+06  9.6227234957513362e+06  4.6722231085292054e+06  2.7587766909565646e+06  2.8720934180168179e+05  8.1114266743387911e+04  -4.0748616515279156e+06  -4.2817561499340357e+06  -1.1323161263103937e+06  -3.0786488953060876e+06  -1.1637468588377679e+05  1.0227384720435679e+06  -3.3525889912613900e+06  -2.9627868659203928e+06  2.4080363169202269e+06  -1.4900811572485329e+06  -1.0621138312474766e+06  -4.8591885267212300e+05  -1.1414998973003842e+06  1.7807831763940540e+06  1.9864699981874973e+06  3.5719894443350867e+0