<?xml version="1.0"?>
<VTKFile type="UnstructuredGrid"  version="0.1"  >
<UnstructuredGrid>
<Piece  NumberOfPoints="1369" NumberOfCells="2560">
<Points>
<DataArray  type="Float64"  NumberOfComponents="3"  format="ascii">0 0 0  0.75 0 0  1.5 0 0  2.25 0 0  3 0 0  3.75 0 0  4.5 0 0  5.25 0 0  6 0 0  6.75 0 0  7.5 0 0  8.25 0 0  9 0 0  9.75 0 0  10.5 0 0  11.25 0 0  12 0 0  12.75 0 0  13.5 0 0  14.25 0 0  15 0 0  15.75 0 0  16.5 0 0  17.25 0 0  18 0 0  18.75 0 0  19.5 0 0  20.25 0 0  21 0 0  21.75 0 0  22.5 0 0  23.25 0 0  24 0 0  24.75 0 0  25.5 0 0  26.25 0 0  27 0 0  27.75 0 0  28.5 0 0  29.25 0 0  30 0 0  30.75 0 0  31.5 0 0  32.25 0 0  33 0 0  33.75 0 0  34.5 0 0  35.25 0 0  36 0 0  36.75 0 0  37.5 0 0  38.25 0 0  39 0 0  39.75 0 0  40.5 0 0  41.25 0 0  42 0 0  42.75 0 0  43.5 0 0  44.25 0 0  45 0 0  45.75 0 0  46.5 0 0  47.25 0 0  48 0 0  48.75 0 0  49.5 0 0  50.25 0 0  51 0 0  51.75 0 0  52.5 0 0  53.25 0 0  54 0 0  54.75 0 0  55.5 0 0  56.25 0 0  57 0 0  57.75 0 0  58.5 0 0  59.25 0 0  60 0 0  0 0.5 0  0.75 0.5 0  1.5 0.5 0  2.25 0.5 0  3 0.5 0  3.75 0.5 0  4.5 0.5 0  5.25 0.5 0  6 0.5 0  6.75 0.5 0  7.5 0.5 0  8.25 0.5 0  9 0.5 0  9.75 0.5 0  10.5 0.5 0  11.25 0.5 0  12 0.5 0  12.75 0.5 0  13.5 0.5 0  14.25 0.5 0  15 0.5 0  15.75 0.5 0  16.5 0.5 0  17.25 0.5 0  18 0.5 0  18.75 0.5 0  19.5 0.5 0  20.25 0.5 0  21 0.5 0  21.75 0.5 0  22.5 0.5 0  23.25 0.5 0  24 0.5 0  24.75 0.5 0  25.5 0.5 0  26.25 0.5 0  27 0.5 0  27.75 0.5 0  28.5 0.5 0  29.25 0.5 0  30 0.5 0  30.75 0.5 0  31.5 0.5 0  32.25 0.5 0  33 0.5 0  33.75 0.5 0  34.5 0.5 0  35.25 0.5 0  36 0.5 0  36.75 0.5 0  37.5 0.5 0  38.25 0.5 0  39 0.5 0  39.75 0.5 0  40.5 0.5 0  41.25 0.5 0  42 0.5 0  42.75 0.5 0  43.5 0.5 0  44.25 0.5 0  45 0.5 0  45.75 0.5 0  46.5 0.5 0  47.25 0.5 0  48 0.5 0  48.75 0.5 0  49.5 0.5 0  50.25 0.5 0  51 0.5 0  51.75 0.5 0  52.5 0.5 0  53.25 0.5 0  54 0.5 0  54.75 0.5 0  55.5 0.5 0  56.25 0.5 0  57 0.5 0  57.75 0.5 0  58.5 0.5 0  59.25 0.5 0  60 0.5 0  0 1 0  0.75 1 0  1.5 1 0  2.25 1 0  3 1 0  3.75 1 0  4.5 1 0  5.25 1 0  6 1 0  6.75 1 0  7.5 1 0  8.25 1 0  9 1 0  9.75 1 0  10.5 1 0  11.25 1 0  12 1 0  12.75 1 0  13.5 1 0  14.25 1 0  15 1 0  15.75 1 0  16.5 1 0  17.25 1 0  18 1 0  18.75 1 0  19.5 1 0  20.25 1 0  21 1 0  21.75 1 0  22.5 1 0  23.25 1 0  24 1 0  24.75 1 0  25.5 1 0  26.25 1 0  27 1 0  27.75 1 0  28.5 1 0  29.25 1 0  30 1 0  30.75 1 0  31.5 1 0  32.25 1 0  33 1 0  33.75 1 0  34.5 1 0  35.25 1 0  36 1 0  36.75 1 0  37.5 1 0  38.25 1 0  39 1 0  39.75 1 0  40.5 1 0  41.25 1 0  42 1 0  42.75 1 0  43.5 1 0  44.25 1 0  45 1 0  45.75 1 0  46.5 1 0  47.25 1 0  48 1 0  48.75 1 0  49.5 1 0  50.25 1 0  51 1 0  51.75 1 0  52.5 1 0  53.25 1 0  54 1 0  54.75 1 0  55.5 1 0  56.25 1 0  57 1 0  57.75 1 0  58.5 1 0  59.25 1 0  60 1 0  0 1.5 0  0.75 1.5 0  1.5 1.5 0  2.25 1.5 0  3 1.5 0  3.75 1.5 0  4.5 1.5 0  5.25 1.5 0  6 1.5 0  6.75 1.5 0  7.5 1.5 0  8.25 1.5 0  9 1.5 0  9.75 1.5 0  10.5 1.5 0  11.25 1.5 0  12 1.5 0  12.75 1.5 0  13.5 1.5 0  14.25 1.5 0  15 1.5 0  15.75 1.5 0  16.5 1.5 0  17.25 1.5 0  18 1.5 0  18.75 1.5 0  19.5 1.5 0  20.25 1.5 0  21 1.5 0  21.75 1.5 0  22.5 1.5 0  23.25 1.5 0  24 1.5 0  24.75 1.5 0  25.5 1.5 0  26.25 1.5 0  27 1.5 0  27.75 1.5 0  28.5 1.5 0  29.25 1.5 0  30 1.5 0  30.75 1.5 0  31.5 1.5 0  32.25 1.5 0  33 1.5 0  33.75 1.5 0  34.5 1.5 0  35.25 1.5 0  36 1.5 0  36.75 1.5 0  37.5 1.5 0  38.25 1.5 0  39 1.5 0  39.75 1.5 0  40.5 1.5 0  41.25 1.5 0  42 1.5 0  42.75 1.5 0  43.5 1.5 0  44.25 1.5 0  45 1.5 0  45.75 1.5 0  46.5 1.5 0  47.25 1.5 0  48 1.5 0  48.75 1.5 0  49.5 1.5 0  50.25 1.5 0  51 1.5 0  51.75 1.5 0  52.5 1.5 0  53.25 1.5 0  54 1.5 0  54.75 1.5 0  55.5 1.5 0  56.25 1.5 0  57 1.5 0  57.75 1.5 0  58.5 1.5 0  59.25 1.5 0  60 1.5 0  0 2 0  0.75 2 0  1.5 2 0  2.25 2 0  3 2 0  3.75 2 0  4.5 2 0  5.25 2 0  6 2 0  6.75 2 0  7.5 2 0  8.25 2 0  9 2 0  9.75 2 0  10.5 2 0  11.25 2 0  12 2 0  12.75 2 0  13.5 2 0  14.25 2 0  15 2 0  15.75 2 0  16.5 2 0  17.25 2 0  18 2 0  18.75 2 0  19.5 2 0  20.25 2 0  21 2 0  21.75 2 0  22.5 2 0  23.25 2 0  24 2 0  24.75 2 0  25.5 2 0  26.25 2 0  27 2 0  27.75 2 0  28.5 2 0  29.25 2 0  30 2 0  30.75 2 0  31.5 2 0  32.25 2 0  33 2 0  33.75 2 0  34.5 2 0  35.25 2 0  36 2 0  36.75 2 0  37.5 2 0  38.25 2 0  39 2 0  39.75 2 0  40.5 2 0  41.25 2 0  42 2 0  42.75 2 0  43.5 2 0  44.25 2 0  45 2 0  45.75 2 0  46.5 2 0  47.25 2 0  48 2 0  48.75 2 0  49.5 2 0  50.25 2 0  51 2 0  51.75 2 0  52.5 2 0  53.25 2 0  54 2 0  54.75 2 0  55.5 2 0  56.25 2 0  57 2 0  57.75 2 0  58.5 2 0  59.25 2 0  60 2 0  0 2.5 0  0.75 2.5 0  1.5 2.5 0  2.25 2.5 0  3 2.5 0  3.75 2.5 0  4.5 2.5 0  5.25 2.5 0  6 2.5 0  6.75 2.5 0  7.5 2.5 0  8.25 2.5 0  9 2.5 0  9.75 2.5 0  10.5 2.5 0  11.25 2.5 0  12 2.5 0  12.75 2.5 0  13.5 2.5 0  14.25 2.5 0  15 2.5 0  15.75 2.5 0  16.5 2.5 0  17.25 2.5 0  18 2.5 0  18.75 2.5 0  19.5 2.5 0  20.25 2.5 0  21 2.5 0  21.75 2.5 0  22.5 2.5 0  23.25 2.5 0  24 2.5 0  24.75 2.5 0  25.5 2.5 0  26.25 2.5 0  27 2.5 0  27.75 2.5 0  28.5 2.5 0  29.25 2.5 0  30 2.5 0  30.75 2.5 0  31.5 2.5 0  32.25 2.5 0  33 2.5 0  33.75 2.5 0  34.5 2.5 0  35.25 2.5 0  36 2.5 0  36.75 2.5 0  37.5 2.5 0  38.25 2.5 0  39 2.5 0  39.75 2.5 0  40.5 2.5 0  41.25 2.5 0  42 2.5 0  42.75 2.5 0  43.5 2.5 0  44.25 2.5 0  45 2.5 0  45.75 2.5 0  46.5 2.5 0  47.25 2.5 0  48 2.5 0  48.75 2.5 0  49.5 2.5 0  50.25 2.5 0  51 2.5 0  51.75 2.5 0  52.5 2.5 0  53.25 2.5 0  54 2.5 0  54.75 2.5 0  55.5 2.5 0  56.25 2.5 0  57 2.5 0  57.75 2.5 0  58.5 2.5 0  59.25 2.5 0  60 2.5 0  0 3 0  0.75 3 0  1.5 3 0  2.25 3 0  3 3 0  3.75 3 0  4.5 3 0  5.25 3 0  6 3 0  6.75 3 0  7.5 3 0  8.25 3 0  9 3 0  9.75 3 0  10.5 3 0  11.25 3 0  12 3 0  12.75 3 0  13.5 3 0  14.25 3 0  15 3 0  15.75 3 0  16.5 3 0  17.25 3 0  18 3 0  18.75 3 0  19.5 3 0  20.25 3 0  21 3 0  21.75 3 0  22.5 3 0  23.25 3 0  24 3 0  24.75 3 0  25.5 3 0  26.25 3 0  27 3 0  27.75 3 0  28.5 3 0  29.25 3 0  30 3 0  30.75 3 0  31.5 3 0  32.25 3 0  33 3 0  33.75 3 0  34.5 3 0  35.25 3 0  36 3 0  36.75 3 0  37.5 3 0  38.25 3 0  39 3 0  39.75 3 0  40.5 3 0  41.25 3 0  42 3 0  42.75 3 0  43.5 3 0  44.25 3 0  45 3 0  45.75 3 0  46.5 3 0  47.25 3 0  48 3 0  48.75 3 0  49.5 3 0  50.25 3 0  51 3 0  51.75 3 0  52.5 3 0  53.25 3 0  54 3 0  54.75 3 0  55.5 3 0  56.25 3 0  57 3 0  57.75 3 0  58.5 3 0  59.25 3 0  60 3 0  0 3.5 0  0.75 3.5 0  1.5 3.5 0  2.25 3.5 0  3 3.5 0  3.75 3.5 0  4.5 3.5 0  5.25 3.5 0  6 3.5 0  6.75 3.5 0  7.5 3.5 0  8.25 3.5 0  9 3.5 0  9.75 3.5 0  10.5 3.5 0  11.25 3.5 0  12 3.5 0  12.75 3.5 0  13.5 3.5 0  14.25 3.5 0  15 3.5 0  15.75 3.5 0  16.5 3.5 0  17.25 3.5 0  18 3.5 0  18.75 3.5 0  19.5 3.5 0  20.25 3.5 0  21 3.5 0  21.75 3.5 0  22.5 3.5 0  23.25 3.5 0  24 3.5 0  24.75 3.5 0  25.5 3.5 0  26.25 3.5 0  27 3.5 0  27.75 3.5 0  28.5 3.5 0  29.25 3.5 0  30 3.5 0  30.75 3.5 0  31.5 3.5 0  32.25 3.5 0  33 3.5 0  33.75 3.5 0  34.5 3.5 0  35.25 3.5 0  36 3.5 0  36.75 3.5 0  37.5 3.5 0  38.25 3.5 0  39 3.5 0  39.75 3.5 0  40.5 3.5 0  41.25 3.5 0  42 3.5 0  42.75 3.5 0  43.5 3.5 0  44.25 3.5 0  45 3.5 0  45.75 3.5 0  46.5 3.5 0  47.25 3.5 0  48 3.5 0  48.75 3.5 0  49.5 3.5 0  50.25 3.5 0  51 3.5 0  51.75 3.5 0  52.5 3.5 0  53.25 3.5 0  54 3.5 0  54.75 3.5 0  55.5 3.5 0  56.25 3.5 0  57 3.5 0  57.75 3.5 0  58.5 3.5 0  59.25 3.5 0  60 3.5 0  0 4 0  0.75 4 0  1.5 4 0  2.25 4 0  3 4 0  3.75 4 0  4.5 4 0  5.25 4 0  6 4 0  6.75 4 0  7.5 4 0  8.25 4 0  9 4 0  9.75 4 0  10.5 4 0  11.25 4 0  12 4 0  12.75 4 0  13.5 4 0  14.25 4 0  15 4 0  15.75 4 0  16.5 4 0  17.25 4 0  18 4 0  18.75 4 0  19.5 4 0  20.25 4 0  21 4 0  21.75 4 0  22.5 4 0  23.25 4 0  24 4 0  24.75 4 0  25.5 4 0  26.25 4 0  27 4 0  27.75 4 0  28.5 4 0  29.25 4 0  30 4 0  30.75 4 0  31.5 4 0  32.25 4 0  33 4 0  33.75 4 0  34.5 4 0  35.25 4 0  36 4 0  36.75 4 0  37.5 4 0  38.25 4 0  39 4 0  39.75 4 0  40.5 4 0  41.25 4 0  42 4 0  42.75 4 0  43.5 4 0  44.25 4 0  45 4 0  45.75 4 0  46.5 4 0  47.25 4 0  48 4 0  48.75 4 0  49.5 4 0  50.25 4 0  51 4 0  51.75 4 0  52.5 4 0  53.25 4 0  54 4 0  54.75 4 0  55.5 4 0  56.25 4 0  57 4 0  57.75 4 0  58.5 4 0  59.25 4 0  60 4 0  0.375 0.25 0  1.125 0.25 0  1.875 0.25 0  2.625 0.25 0  3.375 0.25 0  4.125 0.25 0  4.875 0.25 0  5.625 0.25 0  6.375 0.25 0  7.125 0.25 0  7.875 0.25 0  8.625 0.25 0  9.375 0.25 0  10.125 0.25 0  10.875 0.25 0  11.625 0.25 0  12.375 0.25 0  13.125 0.25 0  13.875 0.25 0  14.625 0.25 0  15.375 0.25 0  16.125 0.25 0  16.875 0.25 0  17.625 0.25 0  18.375 0.25 0  19.125 0.25 0  19.875 0.25 0  20.625 0.25 0  21.375 0.25 0  22.125 0.25 0  22.875 0.25 0  23.625 0.25 0  24.375 0.25 0  25.125 0.25 0  25.875 0.25 0  26.625 0.25 0  27.375 0.25 0  28.125 0.25 0  28.875 0.25 0  29.625 0.25 0  30.375 0.25 0  31.125 0.25 0  31.875 0.25 0  32.625 0.25 0  33.375 0.25 0  34.125 0.25 0  34.875 0.25 0  35.625 0.25 0  36.375 0.25 0  37.125 0.25 0  37.875 0.25 0  38.625 0.25 0  39.375 0.25 0  40.125 0.25 0  40.875 0.25 0  41.625 0.25 0  42.375 0.25 0  43.125 0.25 0  43.875 0.25 0  44.625 0.25 0  45.375 0.25 0  46.125 0.25 0  46.875 0.25 0  47.625 0.25 0  48.375 0.25 0  49.125 0.25 0  49.875 0.25 0  50.625 0.25 0  51.375 0.25 0  52.125 0.25 0  52.875 0.25 0  53.625 0.25 0  54.375 0.25 0  55.125 0.25 0  55.875 0.25 0  56.625 0.25 0  57.375 0.25 0  58.125 0.25 0  58.875 0.25 0  59.625 0.25 0  0.375 0.75 0  1.125 0.75 0  1.875 0.75 0  2.625 0.75 0  3.375 0.75 0  4.125 0.75 0  4.875 0.75 0  5.625 0.75 0  6.375 0.75 0  7.125 0.75 0  7.875 0.75 0  8.625 0.75 0  9.375 0.75 0  10.125 0.75 0  10.875 0.75 0  11.625 0.75 0  12.375 0.75 0  13.125 0.75 0  13.875 0.75 0  14.625 0.75 0  15.375 0.75 0  16.125 0.75 0  16.875 0.75 0  17.625 0.75 0  18.375 0.75 0  19.125 0.75 0  19.875 0.75 0  20.625 0.75 0  21.375 0.75 0  22.125 0.75 0  22.875 0.75 0  23.625 0.75 0  24.375 0.75 0  25.125 0.75 0  25.875 0.75 0  26.625 0.75 0  27.375 0.75 0  28.125 0.75 0  28.875 0.75 0  29.625 0.75 0  30.375 0.75 0  31.125 0.75 0  31.875 0.75 0  32.625 0.75 0  33.375 0.75 0  34.125 0.75 0  34.875 0.75 0  35.625 0.75 0  36.375 0.75 0  37.125 0.75 0  37.875 0.75 0  38.625 0.75 0  39.375 0.75 0  40.125 0.75 0  40
[...]
<PointData  Scalars="f_8-1"> 
<DataArray  type="Float64"  Name="f_8-1"  format="ascii">4.9547933162635352e+04  2.8011724889884581e+03  6.0481266075059248e+04  3.1340653404849832e+04  1.0586298130849301e+05  -3.2525802986487391e+05  -1.6572874535964837e+05  -4.0982573829498724e+05  -6.7597041952944201e+04  -5.9375813635208749e+05  -3.3578894846712839e+05  6.2042205259201772e+04  4.2023022876674804e+05  5.3169663315874881e+04  -1.9209218292016673e+05  1.1763798219966913e+05  -6.9616461873770948e+05  4.6395445117582282e+05  -5.4918559321233397e+05  5.0364126789650531e+05  -2.8099773078101396e+05  7.6811057924610766e+04  -4.2450737298928353e+05  -4.6402341086156567e+05  -6.0506553200389317e+04  -9.9458737834516534e+04  -1.6733659646292130e+05  -4.6211971473176812e+05  -1.5613679378670163e+05  -3.4236083820171532e+05  5.0445207155727250e+04  1.2780575918656564e+05  -4.8590492446756578e+05  -1.5445531389980763e+05  -1.3213978612191012e+05  -1.1587004363623682e+05  3.5419076860538720e+04  -4.2002570371897670e+05  1.4395577333115169e+05  -7.1407182361122384e+05  -4.4464898737591662e+05  2.0980963441381292e+05  2.8872574469884512e+04  -1.8786338247910063e+05  -5.7461379408954701e+05  -6.2703962740199862e+05  4.8247826232812193e+05  -6.4179933077645558e+05  1.0998417708189281e+05  1.2755358616865599e+05  4.1800129735371011e+04  5.0018119344697036e+04  -1.8490157197713631e+05  5.9254148300616449e+04  9.9004324543801922e+04  1.0424174979142542e+05  4.0572623417029390e+05  -3.0026105899573075e+04  5.2690495747754874e+05  2.4394000902056746e+05  -6.4345465883150639e+05  1.5415713228081497e+06  -8.2727563512768224e+05  6.8047836149459239e+04  -1.7047851870643481e+05  -9.8639204046731617e+05  9.3230373507016315e+05  1.4278641624904538e+06  -4.2900777165701531e+05  -8.9211894210906548e+05  5.2962801717871567e+05  5.3291154790327384e+05  -7.3907825646428787e+05  1.5302699267689169e+06  7.2386304464243130e+03  7.2147186935414684e+03  5.0513046086777491e+05  2.2216985699285808e+05  8.0494268940824713e+05  1.8318730192679295e+05  -9.3446010602160910e+04  -3.5497781294972439e+04  5.5777962190573402e+04  -1.4350386703713028e+04  1.1123473066545041e+05  -1.1089873766089718e+05  -3.5423871524305439e+04  -6.7549094660946634e+05  -6.2377718933659885e+05  -5.3952970502219535e+05  -3.5057391219819640e+05  -5.0110425722543948e+05  1.5941084141778873e+05  3.9459820756057190e+05  -3.1690137721578486e+05  8.2716233277815802e+04  2.3865680783504315e+04  -1.1355981117270545e+05  3.5464409674753284e+05  -4.3704405837062502e+05  3.1858185239935038e+05  6.5941739839014801e+04  -1.2106713415110898e+04  -3.0362912965976796e+05  -3.8963300916865701e+05  4.6925412576801078e+04  -2.3276018048165354e+05  -1.5368680796455886e+05  -1.5286272384402793e+04  -1.5040133515645306e+04  -1.5555853218993352e+05  -8.3036719939510745e+04  2.6947972217920376e+05  -2.6279506522591243e+05  -8.2809728194776818e+05  -1.1167411878797301e+05  5.4019753184437897e+04  -3.9352795356449019e+05  -2.5216115387636065e+05  1.3357955147957182e+05  -9.6446539564335020e+04  -5.5861159133969375e+05  -1.7095414299770920e+04  -6.4169355644052986e+04  -2.4984160771847391e+05  -6.1934354287490295e+05  -1.9674906680591279e+05  -3.2877032345276489e+05  -4.0106024978210387e+05  -6.3713515094150476e+04  3.7051124970594151e+03  2.5527348700903665e+05  -1.9052925796408247e+05  -5.7924204725901051e+04  1.5410832987073925e+04  -2.3345690844749872e+04  4.3263595694331671e+04  3.3118481477747130e+05  3.4036021787853335e+05  3.1291305084489088e+05  6.8091816982712480e+05  -3.0284257972238938e+04  -1.6308503776183762e+05  -1.0166133205012472e+06  -4.1739778563419415e+05  -1.2950486968520915e+06  -2.2561105463534815e+05  -9.1517581215482252e+05  3.1886912546549318e+05  -2.7318106051413319e+05  -5.0915286044867057e+05  -7.5222089581142867e+05  2.0015318168974476e+05  6.2403625348357282e+03  2.2851081377718796e+05  3.3051264640245173e+05  3.1464533535190014e+05  1.4758993814992498e+04  5.2475649856833601e+05  -3.8626183825209993e+05  3.6593956387904653e+05  2.5197873649164930e+05  5.9615000048261172e+03  -1.0828892844198915e+03  -3.9691490776473393e+03  4.4046700701308670e+04  1.1961430078639681e+05  -4.6117296337861997e+04  -6.6928544689891045e+05  -3.9313325331421435e+05  -6.4422016388633789e+05  -4.4010670715350547e+05  -4.5898242259870557e+05  -3.9390562401436438e+05  7.5980340986480922e+04  -2.7325825663421705e+05  3.5713339127898316e+03  1.4501618385362142e+05  -3.4801736247390124e+05  -6.4709038405817270e+05  7.3896573490228620e+05  -3.7235124430096366e+04  1.7948838468833824e+05  -1.9323550122146361e+05  2.5371436123412022e+04  -2.1307455742667970e+05  -1.0266984087071205e+05  -1.3541449741226024e+04  -1.2163136506320152e+05  -1.4255005310023107e+05  -4.2209700353516448e+04  1.2955690186492584e+05  1.3975589139952612e+05  -1.2432700100807135e+04  -3.7159136940786382e+05  -2.6885634609815525e+05  -6.4573384798930230e+04  -2.4471418120609644e+04  -2.8318336662973958e+05  -1.1498901481798684e+05  -1.2855610942807754e+05  -6.9458356795897635e+04  -1.7529856312312651e+05  1.3994153222546200e+05  7.6101118012502571e+04  -2.1167460353836714e+05  -3.2510733532210620e+05  -2.9462740803031944e+05  -2.4431695497636439e+05  -3.1429050056925567e+05  -2.3704456205927988e+05  -1.5920542517542400e+05  2.2089270527911131e+05  -5.2825949413027309e+04  7.8984910219527694e+04  -7.8959055261526330e+04  3.8409139883043870e+04  2.0901848496446403e+05  2.0905744801139890e+03  -3.1170298312854592e+05  -1.4352436578221971e+05  -2.0474438758063552e+05  -3.7305381444503198e+05  -3.5561181071211671e+05  -7.9996433542772278e+05  -3.9830276100327482e+05  -1.4315962126405856e+06  -1.2263907772331829e+06  -3.7121353287129576e+05  2.5204001320684858e+05  4.9968577465885802e+05  3.2720741397437721e+05  2.9705446174526220e+04  -2.9332779597159079e+05  -2.0235891344718452e+05  4.2427266096449288e+05  7.7812686831248261e+05  5.7605443923346698e+05  -8.0263040336155146e+05  -2.8045722201885289e+05  -1.3098159594550020e+05  -7.5577136444398366e+03  -1.4957085659620745e+05  1.7214007526760552e+03  1.0380944626135855e+04  5.3907478849840314e+04  -2.0516983451884444e+04  -2.8239445978559630e+04  8.2159332259094444e+03  -3.1212155465051736e+05  -4.8246711857102800e+05  -1.3691659259725609e+05  -2.5313628670549282e+05  -3.9364445719561813e+05  -9.4542479855382888e+04  1.3749504527592864e+04  -3.3079590276357027e+04  -2.7204710573586059e+05  -2.9886096841191355e+05  1.8099208873335808e+05  8.4270391442031512e+04  -3.7498556118207081e+05  -3.8263646274943219e+05  1.5149131837239902e+05  2.0302876104199386e+05  9.8098162780695231e+04  -8.0723891848638872e+04  -2.1175477866433439e+05  -1.0839635311823159e+05  -2.0215949248216063e+05  7.6289508248276752e+03  -6.6238174449451486e+04  -5.8192282566991009e+04  -5.8728691624501507e+03  -2.1311564383982177e+05  -5.6236027427142981e+04  -5.2584649069844210e+05  -2.3079205999924988e+05  -1.2110165442355044e+05  -7.0425266682977352e+04  -4.1015471924208081e+05  1.2500928519498592e+05  -1.9482695373904164e+05  -3.4518035647440687e+04  -8.8098619810431250e+04  -3.7639878477121099e+04  -1.2972007677280528e+04  4.7478277174651748e+03  -6.3031469147030548e+04  -4.2637198712377962e+04  6.0227413962600396e+04  -8.6457013077845215e+04  4.3848451895573555e+04  2.2372039879617639e+05  1.3005870644032932e+05  -1.7615903544657250e+05  1.1238831012996584e+05  -6.5044327299983379e+04  7.9844891147050323e+04  -2.4286759493626512e+04  -2.1083104611969778e+04  8.3645245883602253e+05  -5.6208480867750919e+05  -6.6889645472635934e+05  -8.5273144945122569e+05  -9.6586496367069811e+05  -8.7414197032524226e+05  -1.3476357782544526e+06  -8.4804414536932448e+05  -3.3173418885689805e+05  -5.2382441843707522e+05  4.5227792006207170e+05  1.4232007843724408e+05  7.1541983557140236e+04  2.8037570272519905e+05  1.4209204802787374e+06  -5.1854828004713199e+04  1.4232925682812002e+06  -8.7464143974460356e+04  1.0373241673712393e+05  1.5462117865213040e+04  3.1584489390585688e+05  -1.5275658748933027e+05  -7.0480887326040043e+04  3.7932825433285238e+04  2.1454497430270194e+05  9.2020912314456873e+04  -2.1439564761590672e+05  -1.0068960844206248e+05  8.4476710226658368e+04  -1.3958576996248879e+05  -3.8071733134014852e+05  -2.8614690714287170e+05  -6.0575760541810677e+05  -4.1425390451765771e+05  -3.1472132837766828e+05  -4.5976256393507606e+05  -4.3934475360304612e+05  -4.0504134315680276e+05  -5.2704670272926116e+04  4.8938367896556389e+04  2.3412458694399722e+05  -3.1392429661053384e+05  -1.3980682823143079e+05  -1.3339953670196026e+05  -1.1906190379144224e+05  -1.1895809640536818e+05  4.4039981133560061e+04  1.5142945796305683e+05  -1.0552035149653295e+05  -2.2995755752598558e+04  2.7586579030597444e+04  -1.0437929394132235e+05  -1.0382390185866444e+05  -1.1007889287642993e+05  -7.9820299750044083e+04  8.2745469687921926e+04  -6.5094995704172039e+05  -3.6809067152789055e+05  1.7741666993344773e+05  -8.9325892942625534e+04  -9.1189421043845214e+04  -3.0614364021303639e+05  -2.1191474327843844e+04  1.8180814304361155e+05  2.1666156941211646e+05  -2.6950234292309341e+05  -1.0990278578322828e+05  -2.8813064907338528e+05  2.4124744510489832e+04  -1.0552715913913840e+05  1.3219871308241165e+05  -1.5969844931892559e+05  1.0571776611258484e+05  1.1859700566777510e+05  4.3962364928418456e+05  -1.3398048646310161e+05  2.9640933122710884e+05  -2.6762064191396785e+05  -3.0474404098515108e+05  -2.1763145755910143e+05  -8.4032478997660204e+04  -9.5511771977033245e+05  -2.1087034833407379e+06  -8.2178930764445569e+05  -2.7837176943199651e+05  -4.7351046441234241e+05  -7.6424643601385760e+05  -1.3347083273316445e+06  -9.8437686578854686e+05  -2.8792512283864192e+05  4.3460293483309267e+05  5.8385826308836935e+04  3.6590368515730006e+02  4.0041802325643686e+05  8.7111561867972312e+05  5.9810216200796294e+05  -1.0104930816544047e+05  3.0123428612837876e+05  5.7149549707882557e+04  -1.5167276806776386e+05  -1.1856098539790511e+05  3.2110614185646860e+04  -7.8478141400220164e+04  1.2219528250252795e+05  5.4945260041670536e+05  4.4435027918260643e+05  -2.4895574706312129e+05  -6.3806474978925165e+04  1.1874096114369783e+05  6.6893491708279427e+04  1.2242270830662487e+05  1.1870491092402006e+05  -8.4810824710595640e+04  -5.7644771472179506e+05  -2.0427323315289154e+05  -2.6377708099814667e+05  -9.3002896750823280e+05  -3.4955452636290470e+05  -5.1713597826904501e+05  -4.1113794895121187e+05  -2.1860533147493869e+05  -3.0248304151245960e+04  1.0970794316275239e+05  -5.0809538274575787e+05  -1.1910212876118186e+05  9.7791311362494962e+04  -7.1067171630646189e+04  -4.1833468279795765e+04  1.6718198035072917e+05  1.1048296869257421e+05  -1.1891195730796727e+05  -8.0677506094714976e+04  -5.5167386706869416e+04  -1.7966781437727966e+05  -1.9107088674500995e+05  -4.4411093829041842e+04  1.5448480178994787e+05  2.5234586431725093e+04  -4.4535716998551728e+05  1.3364402240449103e+05  -2.9385872546036949e+05  -3.5731984440530516e+05  1.5828532551314949e+04  -2.8434323339000961e+05  3.0253565091983706e+05  2.9924015812883361e+04  -3.9484170618598332e+05  3.8822947989456763e+04  -1.2874226741478359e+05  -1.2264038633466304e+05  1.0834022562405218e+04  9.4254385881248032e+04  -4.5864317308663231e+04  6.2337528102450400e+04  5.1452791143070150e+04  7.6900075046397367e+04  -3.6291883680876117e+05  8.1465305731143249e+04  5.7840533994784870e+05  -5.3466244464709947e+05  -6.5378742276600655e+05  -1.0588216287728220e+05  -2.3108808817527804e+05  -7.1722323090827488e+05  -6.6205712164743035e+05  -3.1381283717767795e+05  -7.3516988305141231e+03  -5.6504540484821738e+05  -2.5828503987419556e+05  4.6343338772519538e+05  1.3470127950587927e+05  3.3019090224300744e+05  -2.0645395258226362e+05  8.0400686222392600e+05  1.0424207776007681e+05  6.3917830415370245e+05  -4.3779124518091798e+04  -2.1165175160152564e+05  -5.8730051649790746e+05  -2.0405177664408501e+05  3.2971656772772584e+05  -2.3630876702257185e+05  -3.3433789188772114e+05  1.6010349190037145e+05  3.5224743783405342e+05  -1.0605302993263429e+05  6.3607328596526560e+04  1.1305764873970098e+05  1.7141705566618548e+05  4.3782755789437411e+04  4.0455082058561704e+04  8.6132061394099466e+04  2.6163738608935010e+05  -4.4097373692489389e+04  -1.6945152526197600e+05  -1.0062358241975812e+05  -3.5839442389349664e+04  3.1014571561429021e+05  2.8808426947116217e+05  1.7583803948335696e+05  -6.8002490660568420e+05  -6.8001061456265871e+05  -4.4008909712212204e+04  -2.7460774608511891e+05  -9.7450610885137212e+03  -3.4911449045246607e+05  1.6923616654556216e+05  5.5590585738008155e+05  7.1938206424035074e+04  -2.2021227364726128e+04  1.8739997784563169e+04  -2.2971533605970058e+05  7.2043829467091753e+04  -1.1917373660260141e+05  -1.4759667809549102e+05  -3.5045683693424379e+05  2.8104182190128992e+05  -6.4956468682608785e+04  -3.0065227359619521e+05  1.4714109909006116e+04  -1.4425774106374066e+05  -1.1686237630011889e+05  -5.9022229467384319e+05  -7.6360292220933290e+04  -1.1508017114377888e+05  1.6909650129815834e+05  -3.4505659043356980e+04  -6.1399969510288897e+05  -1.5602007896944685e+05  2.3307789905418022e+05  -2.4502703781955256e+05  9.2694837676034222e+04  1.0867224106427675e+05  7.7074612293537284e+04  1.9067114920102767e+05  8.3424301102553538e+04  -2.2654154383059804e+05  -2.2968910128903470e+05  -2.7534996804188745e+05  -1.8613652846919678e+05  -7.5394287217048486e+03  -9.9044571314104585e+04  -8.7989870732207538e+05  -4.6838170793059171e+05  -9.0591651905484818e+04  -1.5121236749538633e+06  1.6878260876527103e+05  -3.3524094257738919e+05  6.5655284480112256e+05  9.5535133694593271e+05  3.5034182238783367e+05  4.0022865721054428e+05  -1.7320777998217690e+05  2.4878105872572877e+05  3.0208260430687392e+05  -7.5199654850837437e+05  3.3340568149956316e+05  -2.5641071202656344e+05  -1.4560599422815556e+04  6.2856638215931063e+05  -2.8193702935370588e+05  -8.4008247422475333e+05  -4.2986072222509276e+05  2.2138433249914201e+05  2.8029487266537210e+05  4.4786482540733361e+05  -1.0963531524176135e+04  -1.8232952097355179e+05  1.2953643057978305e+05  2.2165267575880582e+05  1.2505322463981305e+05  2.8739725287716468e+04  -1.8722053584507873e+05  1.9291023874019674e+05  7.9824851366413001e+04  5.8459243232463405e+03  8.8370433692660426e+03  9.1968669794619331e+04  -3.7278612838166606e+04  1.2176171411392663e+05  -1.0085279590515493e+05  -5.1526072502734874e+04  -6.3039721014038729e+05  -2.0411844687782999e+05  -5.9579550909626158e+05  2.9100821425718885e+04  1.1400852850940226e+04  -3.0293141199921980e+05  1.1376698295062911e+05  1.5989615652776643e+05  4.3775817461507766e+04  -1.1028937919789040e+05  4.5712724502436045e+04  -7.8283215757405969e+03  8.6288862743926620e+03  -1.7917289977718040e+05  -1.5693448453069968e+04  6.0529714537507462e+04  1.6776489260950513e+05  -2.7376016140952898e+05  -1.2798078698708420e+05  1.1556354705313446e+05  -1.0225641982507361e+05  -1.5923203190217374e+05  -5.0548995779926619e+04  -8.6340169519014598e+04  -9.8084115194160022e+03  3.2064245170265523e+05  2.5622005310091670e+05  -3.2538332686027139e+05  8.3335941251268261e+04  7.7961444999283020e+04  -9.6109945731624364e+04  1.6370624443041108e+05  5.3481415303835100e+04  -1.4897380048725377e+03  -3.3913561113776790e+05  2.8793720600113401e+05  2.9170157653052587e+05  1.4835279123524370e+05  1.3174743838530815e+03  -2.4125326922570495e+05  2.5161808708179544e+05  9.4359727335872754e+04  2.9151977999203641e+05  3.6349014608519117e+05  3.9439795497920633e+04  -1.7215482477237631e+04  -4.5998729246417544e+05  5.0396983034293551e+05  1.7181565032000796e+05  -7.1052951967486029e+05  1.6493545523066327e+05  -1.4497461973008912e+05  3.5511831778493023e+05  6.9423030424530979e+05  2.7546093658571644e+05  -4.3405848173765065e+04  -3.0869202519852598e+05  1.4782253227160964e+05  -2.2156653025758895e+05  4.4732525418244186e+05  -4.4580693752396409e+05  3.6727369428030500e+05  -3.8904949682168860e+05  6.1204756670287554e+05  -3.3754289435458049e+05  -1.2142130931988519e+05  1.6658301860634043e+05  2.1747937243906788e+04  -4.9476354792428472e+04  5.8364346791726224e+04  -3.9248157253696401e+04  5.1665236343156816e+04  1.4155460217215239e+04  -3.8055528670797561e+04  -8.4454272349991254e+04  5.3877697041297492e+04  9.0340872589807259e+04  -1.4317638491799854e+05  7.6557666946829186e+03  -1.7605565042160481e+05  1.1772613664311012e+05  1.1472316232747305e+05  -2.9482697341750184e+05  1.5050321399794833e+05  4.4206332210310778e+04  -3.0438857125620975e+05  1.2306194638404912e+05  1.5253162419092016e+03  -1.1734228089773538e+04  -1.0062215125842036e+04  -1.2933395029673002e+04  1.3383629761439891e+05  -9.2810559822599374e+04  1.2305125425816422e+05  -1.2008833137887636e+05  1.7225878327696980e+05  3.3634654307258927e+04  4.7065937533213801e+04  -1.6204071102025948e+05  1.1593735980602466e+05  -1.4983213525146857e+05  3.5092388550894929e+05  -5.9939652342889181e+04  6.8723766556605056e+04  -8.6615916368507926e+04  -8.4201576780649644e+04  1.5914685791180507e+05  1.0995395661704295e+05  1.4114862054069736e+05  -6.4232461427610098e+04  3.5804412241336111e+04  8.0230388982411969e+04  -8.7436215843913844e+04  4.6639649142166396e+04  -1.8146492922983636e+05  3.0812522424121381e+05  -1.0907451519107017e+05  1.6385742517043100e+05  1.1553500756097431e+05  -1.2876120889422318e+05  1.7570370972044868e+05  -6.4198472311083708e+04  -6.0904239966615634e+04  -1.3274167210315581e+05  -2.5303028162311992e+04  -2.7859595672435360e+04  -1.3910750708171188e+04  -8.0580218905612215e+04  1.4241108927424406e+05  -2.8318345249890765e+04  9.4018536362710976e+04  -2.7272659795703401e+05  2.2436230215421514e+05  -2.0451275218307565e+04  -2.3316472679997832e+05  9.3651995416098536e+04  -1.4125130833318972e+05  -1.8135069861483679e+05  3.7096888576256919e+04  -7.8385387646340620e+04  1.3218031259407196e+05  -4.9899962054479765e+04  -8.8670770258457080e+04  8.9328480278629577e+04  -3.2214043737854168e+05  2.2740160893846296e+04  7.9961403040694626e+04  2.7869732030580184e+04  6.7401395140687498e+04  1.5369137382782141e+04  -2.9173458460156899e+05  -4.4036803425583494e+05  -4.8290556838196429e+05  -3.8163884376314131e+05  -4.2623106015227822e+05  -5.2078369236911077e+05  -8.9501871920868958e+04  2.2303412835889301e+05  4.0205836972933705e+05  1.9000296038951509e+05  -1.4454123139558555e+04  -3.4745668451604433e+05  -1.7497644978282083e+05  -1.3279054821628475e+05  3.6915218021951133e+05  -1.9614901299183862e+05  -7.1406498351601957e+04  -4.0494318438273761e+05  -2.3482096859771054e+05  -3.7302038386097999e+05  -2.0310972988207251e+05  -1.5964753320711508e+05  -2.5242446458384019e+05  -2.6488873704235151e+05  -4.3390467098282202e+05  1.3587802787192390e+05  -2.2064848006675602e+05  2.7145239255768509e+04  -9.7696609668347610e+03  -2.3244036898603447e+05  5.5691768122926587e+05  -2.8364307400896103e+05  -2.5909172342187451e+05  -3.7320066843189730e+05  -3.8700423708091275e+05  -5.3949230712297920e+05  -1.1916194029369140e+05  3.1491352019868902e+05  -1.8793335283305545e+05  -4.3708544308482029e+05  -1.6382899243134205e+05  -2.0901170807511569e+05  -1.1068268760930614e+05  -1.3845908909084482e+05  4.4775508531184890e+05  2.1240220761004259e+05  4.0975531520308708e+04  -6.5180882330338041e+04  1.0543146473434631e+05  1.4476314819545770e+05  2.0944651947237679e+05  5.0316679543120001e+04  1.0635028403100683e+05  1.0894535822804067e+05  8.5547555449808482e+04  -1.9688514415720731e+05  -1.1368076497647259e+05  -8.3758061872895411e+05  2.5743949452200983e+05  -1.8270239351390617e+05  -2.0490644071790639e+06  -3.3023185064180632e+05  7.0170883303518966e+05  1.1770829512317216e+06  -7.7368508950970077e+05  1.4330797468852377e+05  -4.6688404360394838e+04  2.1778378075507269e+05  -3.5888236221749726e+05  -6.8565663078305573e+04  1.4531877832696805e+05  4.4695808882225771e+04  1.6617058175280556e+05  -1.2012263272288881e+05  2.8005680499960226e+05  3.9793135168075305e+05  2.2004764916322896e+04  -1.541