<?xml version="1.0"?>
<VTKFile type="UnstructuredGrid"  version="0.1"  >
<UnstructuredGrid>
<Piece  NumberOfPoints="1369" NumberOfCells="2560">
<Points>
<DataArray  type="Float64"  NumberOfComponents="3"  format="ascii">0 0 0  0.75 0 0  1.5 0 0  2.25 0 0  3 0 0  3.75 0 0  4.5 0 0  5.25 0 0  6 0 0  6.75 0 0  7.5 0 0  8.25 0 0  9 0 0  9.75 0 0  10.5 0 0  11.25 0 0  12 0 0  12.75 0 0  13.5 0 0  14.25 0 0  15 0 0  15.75 0 0  16.5 0 0  17.25 0 0  18 0 0  18.75 0 0  19.5 0 0  20.25 0 0  21 0 0  21.75 0 0  22.5 0 0  23.25 0 0  24 0 0  24.75 0 0  25.5 0 0  26.25 0 0  27 0 0  27.75 0 0  28.5 0 0  29.25 0 0  30 0 0  30.75 0 0  31.5 0 0  32.25 0 0  33 0 0  33.75 0 0  34.5 0 0  35.25 0 0  36 0 0  36.75 0 0  37.5 0 0  38.25 0 0  39 0 0  39.75 0 0  40.5 0 0  41.25 0 0  42 0 0  42.75 0 0  43.5 0 0  44.25 0 0  45 0 0  45.75 0 0  46.5 0 0  47.25 0 0  48 0 0  48.75 0 0  49.5 0 0  50.25 0 0  51 0 0  51.75 0 0  52.5 0 0  53.25 0 0  54 0 0  54.75 0 0  55.5 0 0  56.25 0 0  57 0 0  57.75 0 0  58.5 0 0  59.25 0 0  60 0 0  0 0.5 0  0.75 0.5 0  1.5 0.5 0  2.25 0.5 0  3 0.5 0  3.75 0.5 0  4.5 0.5 0  5.25 0.5 0  6 0.5 0  6.75 0.5 0  7.5 0.5 0  8.25 0.5 0  9 0.5 0  9.75 0.5 0  10.5 0.5 0  11.25 0.5 0  12 0.5 0  12.75 0.5 0  13.5 0.5 0  14.25 0.5 0  15 0.5 0  15.75 0.5 0  16.5 0.5 0  17.25 0.5 0  18 0.5 0  18.75 0.5 0  19.5 0.5 0  20.25 0.5 0  21 0.5 0  21.75 0.5 0  22.5 0.5 0  23.25 0.5 0  24 0.5 0  24.75 0.5 0  25.5 0.5 0  26.25 0.5 0  27 0.5 0  27.75 0.5 0  28.5 0.5 0  29.25 0.5 0  30 0.5 0  30.75 0.5 0  31.5 0.5 0  32.25 0.5 0  33 0.5 0  33.75 0.5 0  34.5 0.5 0  35.25 0.5 0  36 0.5 0  36.75 0.5 0  37.5 0.5 0  38.25 0.5 0  39 0.5 0  39.75 0.5 0  40.5 0.5 0  41.25 0.5 0  42 0.5 0  42.75 0.5 0  43.5 0.5 0  44.25 0.5 0  45 0.5 0  45.75 0.5 0  46.5 0.5 0  47.25 0.5 0  48 0.5 0  48.75 0.5 0  49.5 0.5 0  50.25 0.5 0  51 0.5 0  51.75 0.5 0  52.5 0.5 0  53.25 0.5 0  54 0.5 0  54.75 0.5 0  55.5 0.5 0  56.25 0.5 0  57 0.5 0  57.75 0.5 0  58.5 0.5 0  59.25 0.5 0  60 0.5 0  0 1 0  0.75 1 0  1.5 1 0  2.25 1 0  3 1 0  3.75 1 0  4.5 1 0  5.25 1 0  6 1 0  6.75 1 0  7.5 1 0  8.25 1 0  9 1 0  9.75 1 0  10.5 1 0  11.25 1 0  12 1 0  12.75 1 0  13.5 1 0  14.25 1 0  15 1 0  15.75 1 0  16.5 1 0  17.25 1 0  18 1 0  18.75 1 0  19.5 1 0  20.25 1 0  21 1 0  21.75 1 0  22.5 1 0  23.25 1 0  24 1 0  24.75 1 0  25.5 1 0  26.25 1 0  27 1 0  27.75 1 0  28.5 1 0  29.25 1 0  30 1 0  30.75 1 0  31.5 1 0  32.25 1 0  33 1 0  33.75 1 0  34.5 1 0  35.25 1 0  36 1 0  36.75 1 0  37.5 1 0  38.25 1 0  39 1 0  39.75 1 0  40.5 1 0  41.25 1 0  42 1 0  42.75 1 0  43.5 1 0  44.25 1 0  45 1 0  45.75 1 0  46.5 1 0  47.25 1 0  48 1 0  48.75 1 0  49.5 1 0  50.25 1 0  51 1 0  51.75 1 0  52.5 1 0  53.25 1 0  54 1 0  54.75 1 0  55.5 1 0  56.25 1 0  57 1 0  57.75 1 0  58.5 1 0  59.25 1 0  60 1 0  0 1.5 0  0.75 1.5 0  1.5 1.5 0  2.25 1.5 0  3 1.5 0  3.75 1.5 0  4.5 1.5 0  5.25 1.5 0  6 1.5 0  6.75 1.5 0  7.5 1.5 0  8.25 1.5 0  9 1.5 0  9.75 1.5 0  10.5 1.5 0  11.25 1.5 0  12 1.5 0  12.75 1.5 0  13.5 1.5 0  14.25 1.5 0  15 1.5 0  15.75 1.5 0  16.5 1.5 0  17.25 1.5 0  18 1.5 0  18.75 1.5 0  19.5 1.5 0  20.25 1.5 0  21 1.5 0  21.75 1.5 0  22.5 1.5 0  23.25 1.5 0  24 1.5 0  24.75 1.5 0  25.5 1.5 0  26.25 1.5 0  27 1.5 0  27.75 1.5 0  28.5 1.5 0  29.25 1.5 0  30 1.5 0  30.75 1.5 0  31.5 1.5 0  32.25 1.5 0  33 1.5 0  33.75 1.5 0  34.5 1.5 0  35.25 1.5 0  36 1.5 0  36.75 1.5 0  37.5 1.5 0  38.25 1.5 0  39 1.5 0  39.75 1.5 0  40.5 1.5 0  41.25 1.5 0  42 1.5 0  42.75 1.5 0  43.5 1.5 0  44.25 1.5 0  45 1.5 0  45.75 1.5 0  46.5 1.5 0  47.25 1.5 0  48 1.5 0  48.75 1.5 0  49.5 1.5 0  50.25 1.5 0  51 1.5 0  51.75 1.5 0  52.5 1.5 0  53.25 1.5 0  54 1.5 0  54.75 1.5 0  55.5 1.5 0  56.25 1.5 0  57 1.5 0  57.75 1.5 0  58.5 1.5 0  59.25 1.5 0  60 1.5 0  0 2 0  0.75 2 0  1.5 2 0  2.25 2 0  3 2 0  3.75 2 0  4.5 2 0  5.25 2 0  6 2 0  6.75 2 0  7.5 2 0  8.25 2 0  9 2 0  9.75 2 0  10.5 2 0  11.25 2 0  12 2 0  12.75 2 0  13.5 2 0  14.25 2 0  15 2 0  15.75 2 0  16.5 2 0  17.25 2 0  18 2 0  18.75 2 0  19.5 2 0  20.25 2 0  21 2 0  21.75 2 0  22.5 2 0  23.25 2 0  24 2 0  24.75 2 0  25.5 2 0  26.25 2 0  27 2 0  27.75 2 0  28.5 2 0  29.25 2 0  30 2 0  30.75 2 0  31.5 2 0  32.25 2 0  33 2 0  33.75 2 0  34.5 2 0  35.25 2 0  36 2 0  36.75 2 0  37.5 2 0  38.25 2 0  39 2 0  39.75 2 0  40.5 2 0  41.25 2 0  42 2 0  42.75 2 0  43.5 2 0  44.25 2 0  45 2 0  45.75 2 0  46.5 2 0  47.25 2 0  48 2 0  48.75 2 0  49.5 2 0  50.25 2 0  51 2 0  51.75 2 0  52.5 2 0  53.25 2 0  54 2 0  54.75 2 0  55.5 2 0  56.25 2 0  57 2 0  57.75 2 0  58.5 2 0  59.25 2 0  60 2 0  0 2.5 0  0.75 2.5 0  1.5 2.5 0  2.25 2.5 0  3 2.5 0  3.75 2.5 0  4.5 2.5 0  5.25 2.5 0  6 2.5 0  6.75 2.5 0  7.5 2.5 0  8.25 2.5 0  9 2.5 0  9.75 2.5 0  10.5 2.5 0  11.25 2.5 0  12 2.5 0  12.75 2.5 0  13.5 2.5 0  14.25 2.5 0  15 2.5 0  15.75 2.5 0  16.5 2.5 0  17.25 2.5 0  18 2.5 0  18.75 2.5 0  19.5 2.5 0  20.25 2.5 0  21 2.5 0  21.75 2.5 0  22.5 2.5 0  23.25 2.5 0  24 2.5 0  24.75 2.5 0  25.5 2.5 0  26.25 2.5 0  27 2.5 0  27.75 2.5 0  28.5 2.5 0  29.25 2.5 0  30 2.5 0  30.75 2.5 0  31.5 2.5 0  32.25 2.5 0  33 2.5 0  33.75 2.5 0  34.5 2.5 0  35.25 2.5 0  36 2.5 0  36.75 2.5 0  37.5 2.5 0  38.25 2.5 0  39 2.5 0  39.75 2.5 0  40.5 2.5 0  41.25 2.5 0  42 2.5 0  42.75 2.5 0  43.5 2.5 0  44.25 2.5 0  45 2.5 0  45.75 2.5 0  46.5 2.5 0  47.25 2.5 0  48 2.5 0  48.75 2.5 0  49.5 2.5 0  50.25 2.5 0  51 2.5 0  51.75 2.5 0  52.5 2.5 0  53.25 2.5 0  54 2.5 0  54.75 2.5 0  55.5 2.5 0  56.25 2.5 0  57 2.5 0  57.75 2.5 0  58.5 2.5 0  59.25 2.5 0  60 2.5 0  0 3 0  0.75 3 0  1.5 3 0  2.25 3 0  3 3 0  3.75 3 0  4.5 3 0  5.25 3 0  6 3 0  6.75 3 0  7.5 3 0  8.25 3 0  9 3 0  9.75 3 0  10.5 3 0  11.25 3 0  12 3 0  12.75 3 0  13.5 3 0  14.25 3 0  15 3 0  15.75 3 0  16.5 3 0  17.25 3 0  18 3 0  18.75 3 0  19.5 3 0  20.25 3 0  21 3 0  21.75 3 0  22.5 3 0  23.25 3 0  24 3 0  24.75 3 0  25.5 3 0  26.25 3 0  27 3 0  27.75 3 0  28.5 3 0  29.25 3 0  30 3 0  30.75 3 0  31.5 3 0  32.25 3 0  33 3 0  33.75 3 0  34.5 3 0  35.25 3 0  36 3 0  36.75 3 0  37.5 3 0  38.25 3 0  39 3 0  39.75 3 0  40.5 3 0  41.25 3 0  42 3 0  42.75 3 0  43.5 3 0  44.25 3 0  45 3 0  45.75 3 0  46.5 3 0  47.25 3 0  48 3 0  48.75 3 0  49.5 3 0  50.25 3 0  51 3 0  51.75 3 0  52.5 3 0  53.25 3 0  54 3 0  54.75 3 0  55.5 3 0  56.25 3 0  57 3 0  57.75 3 0  58.5 3 0  59.25 3 0  60 3 0  0 3.5 0  0.75 3.5 0  1.5 3.5 0  2.25 3.5 0  3 3.5 0  3.75 3.5 0  4.5 3.5 0  5.25 3.5 0  6 3.5 0  6.75 3.5 0  7.5 3.5 0  8.25 3.5 0  9 3.5 0  9.75 3.5 0  10.5 3.5 0  11.25 3.5 0  12 3.5 0  12.75 3.5 0  13.5 3.5 0  14.25 3.5 0  15 3.5 0  15.75 3.5 0  16.5 3.5 0  17.25 3.5 0  18 3.5 0  18.75 3.5 0  19.5 3.5 0  20.25 3.5 0  21 3.5 0  21.75 3.5 0  22.5 3.5 0  23.25 3.5 0  24 3.5 0  24.75 3.5 0  25.5 3.5 0  26.25 3.5 0  27 3.5 0  27.75 3.5 0  28.5 3.5 0  29.25 3.5 0  30 3.5 0  30.75 3.5 0  31.5 3.5 0  32.25 3.5 0  33 3.5 0  33.75 3.5 0  34.5 3.5 0  35.25 3.5 0  36 3.5 0  36.75 3.5 0  37.5 3.5 0  38.25 3.5 0  39 3.5 0  39.75 3.5 0  40.5 3.5 0  41.25 3.5 0  42 3.5 0  42.75 3.5 0  43.5 3.5 0  44.25 3.5 0  45 3.5 0  45.75 3.5 0  46.5 3.5 0  47.25 3.5 0  48 3.5 0  48.75 3.5 0  49.5 3.5 0  50.25 3.5 0  51 3.5 0  51.75 3.5 0  52.5 3.5 0  53.25 3.5 0  54 3.5 0  54.75 3.5 0  55.5 3.5 0  56.25 3.5 0  57 3.5 0  57.75 3.5 0  58.5 3.5 0  59.25 3.5 0  60 3.5 0  0 4 0  0.75 4 0  1.5 4 0  2.25 4 0  3 4 0  3.75 4 0  4.5 4 0  5.25 4 0  6 4 0  6.75 4 0  7.5 4 0  8.25 4 0  9 4 0  9.75 4 0  10.5 4 0  11.25 4 0  12 4 0  12.75 4 0  13.5 4 0  14.25 4 0  15 4 0  15.75 4 0  16.5 4 0  17.25 4 0  18 4 0  18.75 4 0  19.5 4 0  20.25 4 0  21 4 0  21.75 4 0  22.5 4 0  23.25 4 0  24 4 0  24.75 4 0  25.5 4 0  26.25 4 0  27 4 0  27.75 4 0  28.5 4 0  29.25 4 0  30 4 0  30.75 4 0  31.5 4 0  32.25 4 0  33 4 0  33.75 4 0  34.5 4 0  35.25 4 0  36 4 0  36.75 4 0  37.5 4 0  38.25 4 0  39 4 0  39.75 4 0  40.5 4 0  41.25 4 0  42 4 0  42.75 4 0  43.5 4 0  44.25 4 0  45 4 0  45.75 4 0  46.5 4 0  47.25 4 0  48 4 0  48.75 4 0  49.5 4 0  50.25 4 0  51 4 0  51.75 4 0  52.5 4 0  53.25 4 0  54 4 0  54.75 4 0  55.5 4 0  56.25 4 0  57 4 0  57.75 4 0  58.5 4 0  59.25 4 0  60 4 0  0.375 0.25 0  1.125 0.25 0  1.875 0.25 0  2.625 0.25 0  3.375 0.25 0  4.125 0.25 0  4.875 0.25 0  5.625 0.25 0  6.375 0.25 0  7.125 0.25 0  7.875 0.25 0  8.625 0.25 0  9.375 0.25 0  10.125 0.25 0  10.875 0.25 0  11.625 0.25 0  12.375 0.25 0  13.125 0.25 0  13.875 0.25 0  14.625 0.25 0  15.375 0.25 0  16.125 0.25 0  16.875 0.25 0  17.625 0.25 0  18.375 0.25 0  19.125 0.25 0  19.875 0.25 0  20.625 0.25 0  21.375 0.25 0  22.125 0.25 0  22.875 0.25 0  23.625 0.25 0  24.375 0.25 0  25.125 0.25 0  25.875 0.25 0  26.625 0.25 0  27.375 0.25 0  28.125 0.25 0  28.875 0.25 0  29.625 0.25 0  30.375 0.25 0  31.125 0.25 0  31.875 0.25 0  32.625 0.25 0  33.375 0.25 0  34.125 0.25 0  34.875 0.25 0  35.625 0.25 0  36.375 0.25 0  37.125 0.25 0  37.875 0.25 0  38.625 0.25 0  39.375 0.25 0  40.125 0.25 0  40.875 0.25 0  41.625 0.25 0  42.375 0.25 0  43.125 0.25 0  43.875 0.25 0  44.625 0.25 0  45.375 0.25 0  46.125 0.25 0  46.875 0.25 0  47.625 0.25 0  48.375 0.25 0  49.125 0.25 0  49.875 0.25 0  50.625 0.25 0  51.375 0.25 0  52.125 0.25 0  52.875 0.25 0  53.625 0.25 0  54.375 0.25 0  55.125 0.25 0  55.875 0.25 0  56.625 0.25 0  57.375 0.25 0  58.125 0.25 0  58.875 0.25 0  59.625 0.25 0  0.375 0.75 0  1.125 0.75 0  1.875 0.75 0  2.625 0.75 0  3.375 0.75 0  4.125 0.75 0  4.875 0.75 0  5.625 0.75 0  6.375 0.75 0  7.125 0.75 0  7.875 0.75 0  8.625 0.75 0  9.375 0.75 0  10.125 0.75 0  10.875 0.75 0  11.625 0.75 0  12.375 0.75 0  13.125 0.75 0  13.875 0.75 0  14.625 0.75 0  15.375 0.75 0  16.125 0.75 0  16.875 0.75 0  17.625 0.75 0  18.375 0.75 0  19.125 0.75 0  19.875 0.75 0  20.625 0.75 0  21.375 0.75 0  22.125 0.75 0  22.875 0.75 0  23.625 0.75 0  24.375 0.75 0  25.125 0.75 0  25.875 0.75 0  26.625 0.75 0  27.375 0.75 0  28.125 0.75 0  28.875 0.75 0  29.625 0.75 0  30.375 0.75 0  31.125 0.75 0  31.875 0.75 0  32.625 0.75 0  33.375 0.75 0  34.125 0.75 0  34.875 0.75 0  35.625 0.75 0  36.375 0.75 0  37.125 0.75 0  37.875 0.75 0  38.625 0.75 0  39.375 0.75 0  40.125 0.75 0  40
[...]
<PointData  Scalars="f_8-1"> 
<DataArray  type="Float64"  Name="f_8-1"  format="ascii">5.7750966672172079e+04  1.4020133973329257e+04  -1.8581131468161333e+04  3.2726932461993110e+04  5.8945269719576529e+04  1.8625866746934154e+05  -1.0175958516660937e+03  1.7672548298719175e+04  5.5704062920518662e+05  2.0438504991005859e+05  5.0133285885188077e+05  4.0897599732929270e+05  1.0851118996014826e+05  8.1904430367745692e+05  2.5272971234825181e+05  -1.1427921218590139e+05  -7.9374116379385578e+03  -4.2926288799028902e+05  7.1449903789243035e+04  1.2335756853091130e+04  1.6936943690405757e+05  7.7804788196562533e+05  3.8990426964025632e+04  7.7480976057479071e+04  2.2053913521922201e+04  -1.5442975474929129e+05  -5.2275492179511790e+05  -2.3928895663729424e+05  -2.8872880056402128e+05  1.9752038654873351e+05  -3.9923927380869526e+05  1.6710169768683088e+05  -3.6758738209053306e+04  -3.2291069687014690e+05  4.2534732932706381e+05  1.5862861684191067e+05  -4.7329187452066503e+05  4.0050591918477888e+05  1.1615154511391019e+05  2.7421729381177793e+04  -2.1623019132918166e+05  3.6130239492812671e+05  -1.1279028464660866e+05  2.0886671378078713e+05  -7.2287211171892952e+04  2.9151106539350597e+05  5.7012179960393254e+05  4.2553208931991481e+05  3.5148946846047189e+05  -1.8246747160626232e+05  -2.5199068813282563e+05  -2.1220505332366613e+05  3.8852008730568091e+05  -1.0161126307793177e+05  1.0677379300580877e+05  3.3083277514573315e+05  1.2602584727709131e+05  -9.6961034828836704e+05  7.9927040813925152e+04  -1.9646866617468942e+05  8.4064019357385894e+05  8.1798877875939826e+05  -4.9455017106973589e+05  -3.1624789876942080e+05  -4.0326393880728621e+05  -8.1001607753244345e+05  -7.4458530644135235e+05  1.6037253370081813e+06  -1.4949984097675653e+06  -1.4548257365197039e+06  -2.5823468379847556e+06  8.2872569041225361e+05  1.0844940456171473e+06  -1.7134621699692497e+06  2.6925982094642537e+05  7.0639473010462685e+05  5.2894276886546204e+05  8.8995798314230808e+04  6.6932082903113065e+05  -1.7651863804812052e+04  4.9431205753999436e+05  -8.1752977202392694e+03  -1.0779409144035757e+04  -8.6980571477759120e+04  7.2875340166186288e+04  -1.0267992373200087e+05  5.3090949913438759e+05  -1.2168544980427880e+04  1.3115179606469788e+05  3.2657849371400359e+05  2.2562199189208986e+05  5.6821909933297569e+05  -6.1220007011475733e+04  2.5868416283049242e+05  2.2281542731989067e+05  6.5978807355449928e+04  -2.0619805842659052e+05  -4.6319631252360949e+05  -2.6133694338611790e+05  -2.4149773990872636e+05  2.1051604719183725e+05  2.9078910500067909e+05  6.5021285362155875e+05  2.9185241024900367e+05  1.3122546522402931e+03  1.2445844680229537e+05  -2.6305256942245318e+05  -2.8381094974217255e+05  -4.8380567137920990e+05  -5.1709669169114257e+05  3.0547237243930482e+04  -1.2462557641667280e+05  1.0054430344712376e+05  -8.7615542020944602e+04  5.9881865028955252e+05  -6.0974340090869940e+04  4.5374995126747875e+04  7.0149864114932832e+04  1.1398411320911857e+05  2.4049784332849210e+05  -2.6794871361487545e+05  -2.2558679439391915e+05  2.4016655706815308e+05  -8.4119184881281035e+04  -3.2212260814443915e+04  -2.2856014691991333e+05  5.6708959179668585e+04  4.4378990680448175e+05  3.6073845650806645e+05  -9.0169093450164451e+04  -2.8428791942899715e+05  -1.3948399142925777e+04  -1.2013457109229478e+05  2.1333233479746204e+05  1.0203450854419889e+05  -2.9563256012620579e+05  -2.4017689821966199e+05  -2.1545369209455073e+05  -6.5228754672628955e+05  -4.7554302966580370e+04  -2.8330878122306307e+05  4.0170038611421094e+05  -6.8836573162807268e+04  1.4653906483114831e+05  -6.9098335928318207e+05  -1.3485381527990950e+06  -1.0241018908970861e+06  -7.2259936058201978e+05  -1.6732365203851285e+04  7.7498617619173066e+05  5.2072953787123348e+05  -2.0720880239575529e+06  1.0666091250214785e+05  7.2405188700666477e+04  -1.0824379877014619e+06  3.6274416645528044e+05  5.3401472545621952e+05  4.2202072366980073e+05  -3.6441898766005319e+05  9.3332228826803228e+04  1.3232875885159888e+06  3.3649583282864612e+05  2.6921782875135556e+04  -8.2818336537464165e+03  9.4866726938687221e+04  -6.3830372064685995e+04  1.0197330357780961e+05  5.4760716822338768e+05  4.0231861231115449e+05  1.7813159985827256e+05  -4.2335708622690552e+04  1.2336017298295532e+05  3.1033984691467154e+04  4.0970774940645869e+05  3.9402512691814289e+05  3.8728206305324897e+05  2.9653124555789074e+05  -3.7310245069868368e+05  -4.3416320670413849e+05  9.8529797408560044e+04  -2.2432898810875493e+04  2.5219112736495564e+05  4.6321034177699930e+05  2.9038955605444986e+04  4.1762896810361167e+05  -1.7230920655794832e+05  3.6220071618862254e+04  -3.9308298474126955e+05  1.2169994218589218e+04  5.7801009631506960e+04  -5.7370664348208345e+05  4.1947399952269909e+04  -3.3019153263444273e+05  3.6941846164463792e+05  1.2326773909687658e+04  -8.9393530809670938e+03  -3.4212807344806759e+05  -2.4946094933333943e+05  -7.3985095952911579e+04  1.0434239441657969e+05  1.5667406940669313e+05  -3.2011684357194632e+05  -2.7834121507348702e+05  3.5864944721478321e+04  -2.9400899782967888e+05  -3.9968186294537206e+05  -4.8377273319281236e+05  -9.6607870803975372e+05  8.4280300024130571e+04  1.3314065097433128e+05  -5.6889311720137754e+04  5.4809890486110977e+04  -4.9836567160055849e+04  1.0449542806340246e+05  -1.2832033949124854e+05  -1.7319831969583558e+05  -1.4987628655995938e+05  -2.0499031686966922e+05  -4.8234644143345486e+05  -5.2385842424264573e+05  -1.3279932505105369e+05  6.3219617498690830e+04  3.6327425561202149e+05  1.7461101674335825e+05  -5.7350264569232741e+05  -1.1988816336176270e+06  -9.5862404478750844e+05  -1.8263520309495769e+05  -5.3235202891640202e+05  4.7889443469314705e+04  9.0269693376834400e+05  3.3123354991360859e+05  -7.5555384175592184e+05  -7.0951595970710646e+05  -4.5915569420581934e+05  6.8259073507458868e+05  1.3434911591960944e+05  1.2251163310353504e+06  7.7460672357037279e+05  5.4316390895861294e+05  -1.1960903179814268e+05  8.5173261648999422e+05  -2.8090159428890038e+05  3.8601259623443264e+04  -5.1253444427847999e+03  -5.8323901366716185e+04  -1.2447032817479287e+05  1.3035678708649313e+04  4.1317595952195558e+05  6.4191609749258100e+05  6.0614991086477449e+05  1.7273873483459521e+05  8.9222669534674977e+04  3.0954541912694625e+05  6.7151150589093275e+05  -1.6520896637841448e+05  1.6678409739188614e+05  -8.1011805348748194e+03  -2.9829039808675012e+05  -3.2597602403441817e+05  -5.8960870921214977e+04  -1.4015106983175108e+05  3.3651559495275113e+04  8.2278036856977749e+04  -1.3188245817267575e+05  -1.1073117672503324e+04  3.3400021450038941e+04  1.3473587982399022e+05  -8.2665221678248869e+04  -1.2289861973654341e+05  -9.6331912631919360e+04  1.5713591984772513e+05  -4.3734889972644288e+05  -5.6958576416471938e+05  -2.7367385679783119e+05  -3.3182474659119139e+05  -2.7539377688230976e+05  1.9912239186152513e+05  1.1042422313452036e+05  -4.7518671296607383e+04  1.5146930741967243e+05  2.6030636290475947e+05  -1.4180145718473711e+05  -1.7170116321521805e+05  3.7677167273234772e+03  -8.4877044538307426e+04  -2.6305475966880156e+05  -1.1885286261160288e+05  -1.4536494940933268e+05  1.0013068813859681e+06  -1.7943391676326323e+05  1.6946136168452070e+05  -8.3726130316421404e+04  4.2694610495266847e+04  -6.5971485528913418e+03  7.7931063856933361e+03  -8.9604258088456641e+04  -2.3090559861302035e+05  -5.0004348063403806e+04  -2.8097417109817389e+05  -3.0278097520091856e+05  -4.7586596455533872e+05  5.5725600948349421e+05  4.1237083314617741e+05  -1.9113212887391620e+05  -1.4631562981155436e+05  -1.9111277450908795e+06  -1.1743376624407349e+06  -9.7285579198716488e+05  -2.4018026072972705e+04  -1.0771022589773613e+06  1.3469959416476943e+05  5.0753023706085345e+05  -6.7384846766096388e+05  -6.3263903946026973e+05  -8.2942707799771742e+05  4.5897215432976850e+05  1.3672579071929331e+06  2.4397103323050030e+06  9.4187805348735000e+05  5.7807378360244795e+05  -2.7487941613897460e+05  1.9970038184234942e+05  6.4072246212177168e+04  -5.7460754254572479e+04  -8.5039185668850187e+03  -5.5359420222416076e+04  2.2562648551122013e+04  8.8362715443170309e+03  5.5411179938031586e+04  4.4647898965832358e+05  3.8572316382291383e+05  -3.8138085478270159e+05  2.8938051722506329e+05  -1.6041859329332871e+05  2.1659863003224909e+05  3.6082669528799153e+04  2.1080309853346882e+05  -3.6333843630761962e+05  -3.4829525463963492e+05  -3.6957769854175433e+05  -5.4469429871617707e+04  -6.7002725272586526e+04  9.9429399411871709e+04  9.4396868565091150e+04  1.5618093561603469e+05  1.7736460262466478e+05  1.7481159877969313e+05  -1.7168577254717634e+05  1.0863793955546766e+05  -8.9309847145092310e+04  6.3483721947864840e+04  -1.1865214883285554e+05  -6.2247888119523697e+04  -3.5694386131448246e+05  -4.3599178442716715e+04  -2.4387640900467060e+05  2.4750916160180458e+05  -5.7061409339349651e+04  1.4801165960354845e+04  2.0875926090371190e+05  4.8435738321007602e+05  2.5151990305478300e+05  -1.2373690760720840e+04  -1.2286127752028737e+04  2.4659428530952451e+05  -3.4388013149301507e+04  -9.1039888680167453e+04  1.0004408422850160e+05  1.7954989500961354e+04  1.2988263626040494e+05  1.5453222899988457e+05  4.4144977633361341e+04  -8.9924946627456193e+03  -1.4798466510639977e+05  3.9283530552445227e+04  5.6808103128254572e+02  1.9999219872615748e+05  -1.2812945928982293e+05  2.1034875427146886e+04  -2.5286482158842977e+04  -2.2288145534689724e+05  -9.9564931291163506e+04  2.5969824952664890e+05  3.7271496132800472e+05  -2.6140200393261982e+05  -2.5770734256145547e+05  -7.0756265431322344e+05  -1.6910712995131921e+06  -1.0297183283630733e+06  -2.4458256818523779e+05  -6.8766074784470873e+05  -3.5257664098757447e+05  1.3079011734976491e+04  -1.0582451713164025e+06  -5.0252124546799937e+05  -7.1777033946630673e+05  1.8909510815728621e+06  1.4481539822994755e+06  1.3406702912197709e+06  -5.8862588209801354e+05  6.1896567236354994e+05  -4.3045323562214017e+05  1.5194895711755944e+04  3.7649070548860345e+05  2.4695940074249389e+04  -2.0184484611587884e+05  1.0928984302627116e+05  -3.0814584977354603e+04  2.2814501016653288e+05  6.4477087938713725e+05  3.6371456269475439e+05  -1.1753708280456874e+05  -1.1613038525604295e+05  1.2512881862501281e+05  -1.3435760803767608e+05  2.9854393759441219e+05  1.2820667068290745e+03  -3.1218009274545277e+05  -1.6493219563123985e+05  -3.2237417198327871e+05  -2.2738230214399533e+05  -9.5052107395496336e+04  -3.0651825093412485e+03  1.0514248224658980e+05  1.2858081685417806e+05  -4.2338094634032663e+04  -6.9714964168980019e+04  5.8789112001910784e+04  5.2851449330516305e+04  -1.7328576959073133e+05  2.5254776184252062e+05  1.8355925224403909e+05  -1.7624546324823308e+05  1.8160942534239608e+05  -5.4256475385808044e+04  -3.6265962495486136e+05  1.3901784034483411e+05  1.8100744037545731e+05  -1.7036211129301923e+05  1.9509910772177586e+05  4.7018118684692244e+05  1.7833715021654099e+05  1.9998387780023986e+05  -7.5838958531939003e+04  5.1152252546459662e+04  1.2139938767911233e+05  1.0816396147403269e+05  -4.1994332360807771e+05  -2.3095446529358689e+05  1.0783108504594832e+05  2.9908905247612408e+05  3.9279068016004004e+05  2.6069864980865773e+05  -4.4205740705938457e+04  1.0339025548704682e+05  7.6180889170754162e+04  -8.8677514453624273e+04  3.7667365815382109e+04  -1.1408032640697093e+04  -1.5134200958341875e+05  1.1925172139430027e+05  2.7169643692539888e+05  -9.1884704543738611e+04  -6.7504354665276478e+05  -3.8280644110599754e+05  -3.2862740730911517e+05  1.7541505274903469e+04  -1.1443672208950885e+06  -1.0643354761580969e+06  -7.5726147413563938e+05  -1.5743363212481283e+06  -1.2757174954233451e+06  -5.7546459373968048e+05  8.3125565000448574e+05  -6.7576187515071454e+05  -1.0851380309656078e+06  2.7373154808491422e+05  2.0097426506232729e+06  -1.0413086735465984e+06  -2.3201989778152292e+05  3.9809297913988773e+05  2.6853175034832075e+05  9.1993121956572853e+04  -4.7792080790008261e+05  3.7439438625165838e+05  4.7236056431142642e+04  1.2546027088094060e+05  -4.1052867855284327e+04  2.1184145343658864e+05  1.7143470693636464e+05  1.5164579801559489e+05  1.3105794479685581e+05  -1.6929637730428253e+05  -7.2156735018667392e+05  1.8068299670050124e+05  -1.8311478670519314e+05  5.2965995293789892e+05  4.0600067021889589e+05  1.0077958595134661e+05  -2.1634057787179016e+05  -1.5905714258716151e+05  -2.7941349817308504e+05  7.5356964347665955e+04  3.3222640590431035e+05  1.7238286287792522e+05  -1.5866196950798078e+04  -1.2929808382791941e+05  -1.1641951240620048e+04  -2.0949507330254095e+04  -2.9483704751909532e+04  -3.0236284837078500e+04  -4.2527397969285368e+04  6.0929043977906571e+04  3.1455963646465923e+04  2.6289761911488680e+04  -1.7664556365177664e+05  -1.8193818595776689e+05  -7.2066785702291629e+04  -5.4881764778148085e+04  -5.9911350229620504e+04  1.5276560132374091e+05  7.9933114254681088e+04  -1.2585905607447837e+05  5.7023535804534113e+04  7.5060694652108330e+04  -5.8740126200595158e+04  1.2846570917696034e+05  -5.7269768418331303e+04  -1.4765615779859346e+05  -3.1182100995900034e+05  7.9712417354078512e+04  1.0204511826905278e+05  3.6429261286253337e+05  3.7656126097633722e+04  2.4255257191171713e+04  -6.2830155906765634e+04  1.1749062433044566e+05  -4.3374086862131175e+04  -9.3304542215595502e+04  -1.2397172503139052e+05  9.3854241908975673e+04  5.1540582289306491e+04  1.0749535386287037e+05  -3.4028167716411443e+05  -3.0456178297881113e+05  -1.5996692900333448e+04  -3.9000660217938729e+05  4.6076266561846726e+05  -7.2310673392354290e+05  -6.5444971924885688e+05  -6.8636960296100099e+05  -1.9216606905352038e+06  1.8502416714237335e+06  1.3377174428221930e+06  6.7814958934034058e+05  1.0974919196851761e+05  -1.0605349540964924e+06  -5.6887849147263251e+05  2.5850934375324351e+05  -5.4571053644398809e+05  -5.8259951038672135e+05  -4.9987004976068396e+05  5.8900566794546985e+05  -2.4742752217678874e+05  7.1256463432430741e+04  -1.6857131846866297e+05  -4.0580481139784555e+04  -1.5971518095343933e+05  1.0036926116779653e+05  -1.1984350838290583e+05  -6.1895491737785509e+04  -1.7140071328631448e+05  9.5321806153936646e+04  -1.4179439618451660e+05  -8.5536318446036210e+04  -1.3385069357173151e+05  7.6276269607132883e+04  2.3939925050140356e+05  2.7201748768773110e+05  -7.9350613546892913e+04  4.0080180011158096e+04  -4.8512010354311948e+04  3.0212403148385609e+05  6.9618974597466164e+04  5.2522932478148978e+04  5.0371598848114154e+04  -9.6327529163064537e+04  -8.1730246144264340e+04  9.9051137079062937e+03  -1.9029935270605140e+05  -7.0077083539143394e+04  -4.6851010107228882e+04  7.5675183753385776e+04  2.0474398745198126e+05  1.0361698033463191e+05  1.8597709786673499e+03  1.3238333564548052e+05  -6.0347332030305313e+05  4.3102807788534998e+05  1.9363218236279779e+05  -2.9176091778934561e+05  -6.7996484292556721e+04  1.1283802567433090e+05  -1.4265729620330065e+05  1.9851749646962696e+05  -1.0909988639210418e+04  -6.1402482373962870e+04  4.7284267846666706e+04  3.7612582788856133e+04  -2.5663537382941405e+05  6.3585312850872069e+04  -2.6699871524307877e+05  1.1133735310209305e+05  -1.7469263581886617e+05  -3.8067945747563941e+05  3.7469349492407659e+04  1.1475811411376984e+05  -1.2922599470828742e+04  -1.3848197621427200e+05  1.4333068162862639e+05  -1.1171096572742047e+05  1.5769034065808292e+05  5.3410678205770400e+03  2.0343410038411672e+04  -8.2716873417848939e+04  8.4706678491847750e+04  -5.5914271728033877e+04  2.9780587433200201e+05  4.7340694646518103e+04  2.1439413826577485e+05  8.6603826365689616e+04  -4.0813438601026253e+05  -9.9045824190608715e+05  -2.9388871913707128e+05  1.2636769697315828e+06  5.7444437899303593e+03  -1.4231769840500990e+05  1.2966308432934522e+06  -7.9639192912063003e+05  5.8669648768405453e+05  -5.5994666489637643e+05  -2.9092540696646052e+05  -6.8276461596679088e+04  1.8736653258660669e+05  -9.4563339750703090e+04  -2.3863718229927792e+05  4.3439102000903469e+04  1.3367651207182846e+04  -3.8483786160981901e+04  -1.6719068203020310e+04  4.4178661130984816e+04  -2.6591833374629659e+05  -4.7763470860049136e+04  4.4770299177056622e+04  -1.7191550634505777e+05  1.7227651865163472e+04  -6.5348407650598987e+04  -1.5430952482460465e+04  1.7520062021457133e+05  -1.2733050223625453e+05  7.9228955758452546e+04  -3.2325158084285312e+05  -3.7578964267958763e+04  -2.0954340060471779e+04  -9.4532405663861118e+03  -4.2520518747657610e+04  -1.0918649539133990e+04  -2.4221218136905081e+04  3.3611632764731403e+04  -4.5166195111480491e+04  2.6363318065280375e+04  -1.9082083761375194e+05  8.9798573156205995e+04  1.6726716884579349e+04  -1.1262415422863532e+05  1.1465773471856912e+05  -7.6572411338764548e+04  -3.0234080450568399e+04  -7.5134098172322789e+04  -3.0431523653978478e+04  -7.8686032493867868e+04  2.7064369722585200e+05  1.3725489363776319e+05  -7.4035477958614501e+04  9.5628248735839923e+04  -1.2861047937213353e+05  4.3630533626410812e+04  -2.6391238858302913e+04  -3.4909226781853999e+03  6.3527232344489184e+03  1.9324884237448004e+05  -1.0914608353123139e+05  1.8369680965097874e+05  -2.5688644588111674e+04  -2.1580912115526831e+05  6.6755914016565410e+04  1.0622713977252763e+04  -3.1057344315482726e+04  2.4736201698350200e+04  4.1450049104350874e+04  4.8207495538669900e+04  1.0405403234821575e+04  -2.9660189369320731e+04  5.6961450173387027e+04  -7.8381945268839729e+04  9.5379803536556810e+03  1.6811430970395464e+05  1.5589383804243233e+05  2.5495666300585814e+04  -1.4602271885043854e+05  3.8292107675769432e+04  3.4516933466766233e+05  -4.8108687222812255e+05  -7.3683894586768118e+04  5.7276252859916522e+03  3.3616569144619309e+04  4.8307321919104538e+05  2.8508698650866013e+05  -2.9762495964757254e+05  -7.5154990191006789e+05  1.8083845290161698e+05  -1.3184964713862701e+05  4.5688141811581307e+04  8.0244970348834002e+04  1.9532208445671233e+05  4.6289800173926429e+04  -7.5165880840241289e+03  8.7054562697166679e+04  5.6098383789789244e+04  3.0688690861648927e+04  -1.4659562989531501e+04  -9.4760925176328907e+04  1.5080994669748718e+05  7.0779843039793102e+05  3.0550054343718896e+05  1.8252573871532711e+05  5.0479940616008878e+05  1.4096161823761952e+06  2.6169969102636762e+04  2.0172650801001617e+05  3.1833183415464667e+05  1.5191080642153273e+05  3.8545765098365908e+05  -4.5670333545204543e+05  -3.1465964787322225e+05  3.5100308722721143e+03  1.1165703635179314e+04  2.8944741292250314e+05  2.7482681797521928e+05  1.8522047007617189e+05  1.6073634121139025e+05  1.6664783477306759e+05  -8.4434339033729193e+04  -4.1651194547420664e+05  -3.1153916419855034e+05  -1.0772922134486814e+05  8.9727494346649532e+04  -1.3204987315820466e+05  4.8806599903102076e+04  -5.0754034238222070e+04  1.8616052552277810e+05  4.4232715813684382e+05  -2.6944455418728822e+05  1.6796338729178527e+05  -2.2164741907352168e+05  -3.0130178605534928e+05  -2.7331281100755220e+05  1.7778764670386052e+04  -2.4614760704994798e+05  3.6906534774599735e+04  2.4682860518916626e+05  -6.7536891318125898e+04  2.7272868931860925e+04  3.3886928100677271e+05  3.4062743901404843e+05  3.4619687239429232e+05  6.0517993492380090e+04  -3.1915466847321281e+05  -1.9291106346138284e+05  6.0145423796373907e+04  2.0542194857829111e+05  2.8733390471703424e+03  2.3583144094596818e+05  2.3888950909827638e+05  -1.0352677907526607e+06  -6.6887138903148845e+05  -1.2702220610183288e+05  -3.0889822463352561e+04  5.7128662419611774e+05  9.2317902303821305e+04  -5.6039618797220371e+05  -7.9887608120918134e+05  -1.0092124185671920e+06  -8.9640231907896034e+05  -5.4172808927159698e+05  1.8696607289239301e+05  2.7273974407172156e+05  -1.7307346316959134e+06  -3.6033359284798768e+06  -2.3911619237327532e+05  1.4292258229058557e+06  6.9351278776792009e+04  1.1605572598459427e+06  2.8213895060102519e+05  2.6999911867422808e+05  2.9009224458466662e+05  7.3440296919157635e+05  6.8202130171312572e+04  2.2933746365833238e+04  -6.3164837169200064e+03  1.0136131668307948e+05  4.8306779493117931e+04  3.071065