<?xml version="1.0"?>
<VTKFile type="UnstructuredGrid"  version="0.1"  >
<UnstructuredGrid>
<Piece  NumberOfPoints="1369" NumberOfCells="2560">
<Points>
<DataArray  type="Float64"  NumberOfComponents="3"  format="ascii">0 0 0  0.75 0 0  1.5 0 0  2.25 0 0  3 0 0  3.75 0 0  4.5 0 0  5.25 0 0  6 0 0  6.75 0 0  7.5 0 0  8.25 0 0  9 0 0  9.75 0 0  10.5 0 0  11.25 0 0  12 0 0  12.75 0 0  13.5 0 0  14.25 0 0  15 0 0  15.75 0 0  16.5 0 0  17.25 0 0  18 0 0  18.75 0 0  19.5 0 0  20.25 0 0  21 0 0  21.75 0 0  22.5 0 0  23.25 0 0  24 0 0  24.75 0 0  25.5 0 0  26.25 0 0  27 0 0  27.75 0 0  28.5 0 0  29.25 0 0  30 0 0  30.75 0 0  31.5 0 0  32.25 0 0  33 0 0  33.75 0 0  34.5 0 0  35.25 0 0  36 0 0  36.75 0 0  37.5 0 0  38.25 0 0  39 0 0  39.75 0 0  40.5 0 0  41.25 0 0  42 0 0  42.75 0 0  43.5 0 0  44.25 0 0  45 0 0  45.75 0 0  46.5 0 0  47.25 0 0  48 0 0  48.75 0 0  49.5 0 0  50.25 0 0  51 0 0  51.75 0 0  52.5 0 0  53.25 0 0  54 0 0  54.75 0 0  55.5 0 0  56.25 0 0  57 0 0  57.75 0 0  58.5 0 0  59.25 0 0  60 0 0  0 0.5 0  0.75 0.5 0  1.5 0.5 0  2.25 0.5 0  3 0.5 0  3.75 0.5 0  4.5 0.5 0  5.25 0.5 0  6 0.5 0  6.75 0.5 0  7.5 0.5 0  8.25 0.5 0  9 0.5 0  9.75 0.5 0  10.5 0.5 0  11.25 0.5 0  12 0.5 0  12.75 0.5 0  13.5 0.5 0  14.25 0.5 0  15 0.5 0  15.75 0.5 0  16.5 0.5 0  17.25 0.5 0  18 0.5 0  18.75 0.5 0  19.5 0.5 0  20.25 0.5 0  21 0.5 0  21.75 0.5 0  22.5 0.5 0  23.25 0.5 0  24 0.5 0  24.75 0.5 0  25.5 0.5 0  26.25 0.5 0  27 0.5 0  27.75 0.5 0  28.5 0.5 0  29.25 0.5 0  30 0.5 0  30.75 0.5 0  31.5 0.5 0  32.25 0.5 0  33 0.5 0  33.75 0.5 0  34.5 0.5 0  35.25 0.5 0  36 0.5 0  36.75 0.5 0  37.5 0.5 0  38.25 0.5 0  39 0.5 0  39.75 0.5 0  40.5 0.5 0  41.25 0.5 0  42 0.5 0  42.75 0.5 0  43.5 0.5 0  44.25 0.5 0  45 0.5 0  45.75 0.5 0  46.5 0.5 0  47.25 0.5 0  48 0.5 0  48.75 0.5 0  49.5 0.5 0  50.25 0.5 0  51 0.5 0  51.75 0.5 0  52.5 0.5 0  53.25 0.5 0  54 0.5 0  54.75 0.5 0  55.5 0.5 0  56.25 0.5 0  57 0.5 0  57.75 0.5 0  58.5 0.5 0  59.25 0.5 0  60 0.5 0  0 1 0  0.75 1 0  1.5 1 0  2.25 1 0  3 1 0  3.75 1 0  4.5 1 0  5.25 1 0  6 1 0  6.75 1 0  7.5 1 0  8.25 1 0  9 1 0  9.75 1 0  10.5 1 0  11.25 1 0  12 1 0  12.75 1 0  13.5 1 0  14.25 1 0  15 1 0  15.75 1 0  16.5 1 0  17.25 1 0  18 1 0  18.75 1 0  19.5 1 0  20.25 1 0  21 1 0  21.75 1 0  22.5 1 0  23.25 1 0  24 1 0  24.75 1 0  25.5 1 0  26.25 1 0  27 1 0  27.75 1 0  28.5 1 0  29.25 1 0  30 1 0  30.75 1 0  31.5 1 0  32.25 1 0  33 1 0  33.75 1 0  34.5 1 0  35.25 1 0  36 1 0  36.75 1 0  37.5 1 0  38.25 1 0  39 1 0  39.75 1 0  40.5 1 0  41.25 1 0  42 1 0  42.75 1 0  43.5 1 0  44.25 1 0  45 1 0  45.75 1 0  46.5 1 0  47.25 1 0  48 1 0  48.75 1 0  49.5 1 0  50.25 1 0  51 1 0  51.75 1 0  52.5 1 0  53.25 1 0  54 1 0  54.75 1 0  55.5 1 0  56.25 1 0  57 1 0  57.75 1 0  58.5 1 0  59.25 1 0  60 1 0  0 1.5 0  0.75 1.5 0  1.5 1.5 0  2.25 1.5 0  3 1.5 0  3.75 1.5 0  4.5 1.5 0  5.25 1.5 0  6 1.5 0  6.75 1.5 0  7.5 1.5 0  8.25 1.5 0  9 1.5 0  9.75 1.5 0  10.5 1.5 0  11.25 1.5 0  12 1.5 0  12.75 1.5 0  13.5 1.5 0  14.25 1.5 0  15 1.5 0  15.75 1.5 0  16.5 1.5 0  17.25 1.5 0  18 1.5 0  18.75 1.5 0  19.5 1.5 0  20.25 1.5 0  21 1.5 0  21.75 1.5 0  22.5 1.5 0  23.25 1.5 0  24 1.5 0  24.75 1.5 0  25.5 1.5 0  26.25 1.5 0  27 1.5 0  27.75 1.5 0  28.5 1.5 0  29.25 1.5 0  30 1.5 0  30.75 1.5 0  31.5 1.5 0  32.25 1.5 0  33 1.5 0  33.75 1.5 0  34.5 1.5 0  35.25 1.5 0  36 1.5 0  36.75 1.5 0  37.5 1.5 0  38.25 1.5 0  39 1.5 0  39.75 1.5 0  40.5 1.5 0  41.25 1.5 0  42 1.5 0  42.75 1.5 0  43.5 1.5 0  44.25 1.5 0  45 1.5 0  45.75 1.5 0  46.5 1.5 0  47.25 1.5 0  48 1.5 0  48.75 1.5 0  49.5 1.5 0  50.25 1.5 0  51 1.5 0  51.75 1.5 0  52.5 1.5 0  53.25 1.5 0  54 1.5 0  54.75 1.5 0  55.5 1.5 0  56.25 1.5 0  57 1.5 0  57.75 1.5 0  58.5 1.5 0  59.25 1.5 0  60 1.5 0  0 2 0  0.75 2 0  1.5 2 0  2.25 2 0  3 2 0  3.75 2 0  4.5 2 0  5.25 2 0  6 2 0  6.75 2 0  7.5 2 0  8.25 2 0  9 2 0  9.75 2 0  10.5 2 0  11.25 2 0  12 2 0  12.75 2 0  13.5 2 0  14.25 2 0  15 2 0  15.75 2 0  16.5 2 0  17.25 2 0  18 2 0  18.75 2 0  19.5 2 0  20.25 2 0  21 2 0  21.75 2 0  22.5 2 0  23.25 2 0  24 2 0  24.75 2 0  25.5 2 0  26.25 2 0  27 2 0  27.75 2 0  28.5 2 0  29.25 2 0  30 2 0  30.75 2 0  31.5 2 0  32.25 2 0  33 2 0  33.75 2 0  34.5 2 0  35.25 2 0  36 2 0  36.75 2 0  37.5 2 0  38.25 2 0  39 2 0  39.75 2 0  40.5 2 0  41.25 2 0  42 2 0  42.75 2 0  43.5 2 0  44.25 2 0  45 2 0  45.75 2 0  46.5 2 0  47.25 2 0  48 2 0  48.75 2 0  49.5 2 0  50.25 2 0  51 2 0  51.75 2 0  52.5 2 0  53.25 2 0  54 2 0  54.75 2 0  55.5 2 0  56.25 2 0  57 2 0  57.75 2 0  58.5 2 0  59.25 2 0  60 2 0  0 2.5 0  0.75 2.5 0  1.5 2.5 0  2.25 2.5 0  3 2.5 0  3.75 2.5 0  4.5 2.5 0  5.25 2.5 0  6 2.5 0  6.75 2.5 0  7.5 2.5 0  8.25 2.5 0  9 2.5 0  9.75 2.5 0  10.5 2.5 0  11.25 2.5 0  12 2.5 0  12.75 2.5 0  13.5 2.5 0  14.25 2.5 0  15 2.5 0  15.75 2.5 0  16.5 2.5 0  17.25 2.5 0  18 2.5 0  18.75 2.5 0  19.5 2.5 0  20.25 2.5 0  21 2.5 0  21.75 2.5 0  22.5 2.5 0  23.25 2.5 0  24 2.5 0  24.75 2.5 0  25.5 2.5 0  26.25 2.5 0  27 2.5 0  27.75 2.5 0  28.5 2.5 0  29.25 2.5 0  30 2.5 0  30.75 2.5 0  31.5 2.5 0  32.25 2.5 0  33 2.5 0  33.75 2.5 0  34.5 2.5 0  35.25 2.5 0  36 2.5 0  36.75 2.5 0  37.5 2.5 0  38.25 2.5 0  39 2.5 0  39.75 2.5 0  40.5 2.5 0  41.25 2.5 0  42 2.5 0  42.75 2.5 0  43.5 2.5 0  44.25 2.5 0  45 2.5 0  45.75 2.5 0  46.5 2.5 0  47.25 2.5 0  48 2.5 0  48.75 2.5 0  49.5 2.5 0  50.25 2.5 0  51 2.5 0  51.75 2.5 0  52.5 2.5 0  53.25 2.5 0  54 2.5 0  54.75 2.5 0  55.5 2.5 0  56.25 2.5 0  57 2.5 0  57.75 2.5 0  58.5 2.5 0  59.25 2.5 0  60 2.5 0  0 3 0  0.75 3 0  1.5 3 0  2.25 3 0  3 3 0  3.75 3 0  4.5 3 0  5.25 3 0  6 3 0  6.75 3 0  7.5 3 0  8.25 3 0  9 3 0  9.75 3 0  10.5 3 0  11.25 3 0  12 3 0  12.75 3 0  13.5 3 0  14.25 3 0  15 3 0  15.75 3 0  16.5 3 0  17.25 3 0  18 3 0  18.75 3 0  19.5 3 0  20.25 3 0  21 3 0  21.75 3 0  22.5 3 0  23.25 3 0  24 3 0  24.75 3 0  25.5 3 0  26.25 3 0  27 3 0  27.75 3 0  28.5 3 0  29.25 3 0  30 3 0  30.75 3 0  31.5 3 0  32.25 3 0  33 3 0  33.75 3 0  34.5 3 0  35.25 3 0  36 3 0  36.75 3 0  37.5 3 0  38.25 3 0  39 3 0  39.75 3 0  40.5 3 0  41.25 3 0  42 3 0  42.75 3 0  43.5 3 0  44.25 3 0  45 3 0  45.75 3 0  46.5 3 0  47.25 3 0  48 3 0  48.75 3 0  49.5 3 0  50.25 3 0  51 3 0  51.75 3 0  52.5 3 0  53.25 3 0  54 3 0  54.75 3 0  55.5 3 0  56.25 3 0  57 3 0  57.75 3 0  58.5 3 0  59.25 3 0  60 3 0  0 3.5 0  0.75 3.5 0  1.5 3.5 0  2.25 3.5 0  3 3.5 0  3.75 3.5 0  4.5 3.5 0  5.25 3.5 0  6 3.5 0  6.75 3.5 0  7.5 3.5 0  8.25 3.5 0  9 3.5 0  9.75 3.5 0  10.5 3.5 0  11.25 3.5 0  12 3.5 0  12.75 3.5 0  13.5 3.5 0  14.25 3.5 0  15 3.5 0  15.75 3.5 0  16.5 3.5 0  17.25 3.5 0  18 3.5 0  18.75 3.5 0  19.5 3.5 0  20.25 3.5 0  21 3.5 0  21.75 3.5 0  22.5 3.5 0  23.25 3.5 0  24 3.5 0  24.75 3.5 0  25.5 3.5 0  26.25 3.5 0  27 3.5 0  27.75 3.5 0  28.5 3.5 0  29.25 3.5 0  30 3.5 0  30.75 3.5 0  31.5 3.5 0  32.25 3.5 0  33 3.5 0  33.75 3.5 0  34.5 3.5 0  35.25 3.5 0  36 3.5 0  36.75 3.5 0  37.5 3.5 0  38.25 3.5 0  39 3.5 0  39.75 3.5 0  40.5 3.5 0  41.25 3.5 0  42 3.5 0  42.75 3.5 0  43.5 3.5 0  44.25 3.5 0  45 3.5 0  45.75 3.5 0  46.5 3.5 0  47.25 3.5 0  48 3.5 0  48.75 3.5 0  49.5 3.5 0  50.25 3.5 0  51 3.5 0  51.75 3.5 0  52.5 3.5 0  53.25 3.5 0  54 3.5 0  54.75 3.5 0  55.5 3.5 0  56.25 3.5 0  57 3.5 0  57.75 3.5 0  58.5 3.5 0  59.25 3.5 0  60 3.5 0  0 4 0  0.75 4 0  1.5 4 0  2.25 4 0  3 4 0  3.75 4 0  4.5 4 0  5.25 4 0  6 4 0  6.75 4 0  7.5 4 0  8.25 4 0  9 4 0  9.75 4 0  10.5 4 0  11.25 4 0  12 4 0  12.75 4 0  13.5 4 0  14.25 4 0  15 4 0  15.75 4 0  16.5 4 0  17.25 4 0  18 4 0  18.75 4 0  19.5 4 0  20.25 4 0  21 4 0  21.75 4 0  22.5 4 0  23.25 4 0  24 4 0  24.75 4 0  25.5 4 0  26.25 4 0  27 4 0  27.75 4 0  28.5 4 0  29.25 4 0  30 4 0  30.75 4 0  31.5 4 0  32.25 4 0  33 4 0  33.75 4 0  34.5 4 0  35.25 4 0  36 4 0  36.75 4 0  37.5 4 0  38.25 4 0  39 4 0  39.75 4 0  40.5 4 0  41.25 4 0  42 4 0  42.75 4 0  43.5 4 0  44.25 4 0  45 4 0  45.75 4 0  46.5 4 0  47.25 4 0  48 4 0  48.75 4 0  49.5 4 0  50.25 4 0  51 4 0  51.75 4 0  52.5 4 0  53.25 4 0  54 4 0  54.75 4 0  55.5 4 0  56.25 4 0  57 4 0  57.75 4 0  58.5 4 0  59.25 4 0  60 4 0  0.375 0.25 0  1.125 0.25 0  1.875 0.25 0  2.625 0.25 0  3.375 0.25 0  4.125 0.25 0  4.875 0.25 0  5.625 0.25 0  6.375 0.25 0  7.125 0.25 0  7.875 0.25 0  8.625 0.25 0  9.375 0.25 0  10.125 0.25 0  10.875 0.25 0  11.625 0.25 0  12.375 0.25 0  13.125 0.25 0  13.875 0.25 0  14.625 0.25 0  15.375 0.25 0  16.125 0.25 0  16.875 0.25 0  17.625 0.25 0  18.375 0.25 0  19.125 0.25 0  19.875 0.25 0  20.625 0.25 0  21.375 0.25 0  22.125 0.25 0  22.875 0.25 0  23.625 0.25 0  24.375 0.25 0  25.125 0.25 0  25.875 0.25 0  26.625 0.25 0  27.375 0.25 0  28.125 0.25 0  28.875 0.25 0  29.625 0.25 0  30.375 0.25 0  31.125 0.25 0  31.875 0.25 0  32.625 0.25 0  33.375 0.25 0  34.125 0.25 0  34.875 0.25 0  35.625 0.25 0  36.375 0.25 0  37.125 0.25 0  37.875 0.25 0  38.625 0.25 0  39.375 0.25 0  40.125 0.25 0  40.875 0.25 0  41.625 0.25 0  42.375 0.25 0  43.125 0.25 0  43.875 0.25 0  44.625 0.25 0  45.375 0.25 0  46.125 0.25 0  46.875 0.25 0  47.625 0.25 0  48.375 0.25 0  49.125 0.25 0  49.875 0.25 0  50.625 0.25 0  51.375 0.25 0  52.125 0.25 0  52.875 0.25 0  53.625 0.25 0  54.375 0.25 0  55.125 0.25 0  55.875 0.25 0  56.625 0.25 0  57.375 0.25 0  58.125 0.25 0  58.875 0.25 0  59.625 0.25 0  0.375 0.75 0  1.125 0.75 0  1.875 0.75 0  2.625 0.75 0  3.375 0.75 0  4.125 0.75 0  4.875 0.75 0  5.625 0.75 0  6.375 0.75 0  7.125 0.75 0  7.875 0.75 0  8.625 0.75 0  9.375 0.75 0  10.125 0.75 0  10.875 0.75 0  11.625 0.75 0  12.375 0.75 0  13.125 0.75 0  13.875 0.75 0  14.625 0.75 0  15.375 0.75 0  16.125 0.75 0  16.875 0.75 0  17.625 0.75 0  18.375 0.75 0  19.125 0.75 0  19.875 0.75 0  20.625 0.75 0  21.375 0.75 0  22.125 0.75 0  22.875 0.75 0  23.625 0.75 0  24.375 0.75 0  25.125 0.75 0  25.875 0.75 0  26.625 0.75 0  27.375 0.75 0  28.125 0.75 0  28.875 0.75 0  29.625 0.75 0  30.375 0.75 0  31.125 0.75 0  31.875 0.75 0  32.625 0.75 0  33.375 0.75 0  34.125 0.75 0  34.875 0.75 0  35.625 0.75 0  36.375 0.75 0  37.125 0.75 0  37.875 0.75 0  38.625 0.75 0  39.375 0.75 0  40.125 0.75 0  40
[...]
<PointData  Scalars="f_8-1"> 
<DataArray  type="Float64"  Name="f_8-1"  format="ascii">8.1496705574623469e+04  7.0306406406554757e+04  -1.8612464306075715e+04  1.9976257860411520e+05  2.2588685879686815e+04  2.0393912371255399e+05  -5.9412033098353138e+04  4.1657582203430671e+05  -1.0239014317255198e+05  -1.8033659204965916e+04  1.4528878769272933e+05  1.8184327618576688e+05  3.5183252846731637e+04  -1.5856099967326223e+04  7.5812782896969991e+04  -1.8358867943098402e+05  8.3981625579540967e+04  2.2695573153337755e+04  -1.3292956012002309e+05  -1.1978635629060923e+05  -3.1235669377640927e+04  -2.7410271123086521e+05  -7.7004752512874326e+05  8.4141291289920569e+04  -1.2040140851098600e+05  4.3170104078471333e+04  -1.8327861644179252e+05  1.7291047216954216e+05  -9.1174130517291051e+04  8.2216328063681096e+04  -2.4051964740823454e+05  -5.5372063544803252e+05  -1.1582465903909206e+05  -1.3798657809350677e+05  -8.5977193824221467e+04  -1.2588488757926172e+05  -4.6591996938480309e+05  -2.2274322599473721e+05  -6.7951357962327322e+05  -1.5699104729395523e+05  -6.0956065385904443e+05  -6.0517577780406794e+05  1.0337105411919237e+06  4.5253583227642236e+05  -1.9490265359312989e+05  1.9148726723992528e+05  1.6496232738403103e+05  1.1867417260477523e+05  1.3668963897543738e+05  2.2517140532891080e+05  1.2798541667290147e+05  -3.4508280426453312e+04  3.6345811887215092e+02  7.2066350732433653e+04  9.7060671938647603e+04  -1.1499561210723181e+05  -2.4793163913000395e+05  -2.5188681676382187e+05  8.2215464438191266e+04  -3.0281039119755174e+05  -2.2032138140869836e+05  -2.3174648157231754e+05  -1.7922486583714970e+05  2.1524363377026998e+05  -4.5893721757488762e+05  -2.8281843625621754e+05  -3.9855946746837988e+05  -6.3027744169253827e+04  -2.3311258986635119e+05  6.1704624391442921e+05  3.4907673563171545e+05  5.5730311711458417e+04  6.2466637963599921e+05  1.5948645026063174e+05  3.3204963681138569e+05  1.7890857194244899e+05  2.4331409258759752e+05  3.0096925737419271e+04  3.3740272903286654e+05  1.5596055465760725e+05  4.4143948992911188e+04  1.0712214445232419e+04  5.9604415005730107e+03  7.6276324135834191e+04  1.0418945920760780e+05  8.8625593838989647e+04  -5.9113406916972563e+04  3.0144220360131777e+05  1.0673399387693554e+05  -3.7604060103873408e+03  1.7086368199357926e+05  -1.4334075469317316e+05  -1.0082741297419695e+05  -2.9257222148412060e+04  1.6094588133456386e+05  -2.0066114440533231e+05  -3.1821749466782410e+04  -1.2477663938310609e+05  -8.7001625552592319e+04  -1.2092711325538192e+05  -1.7723869277394580e+05  -2.7941288572709874e+05  -7.7020910209790673e+04  -1.7703878033567258e+05  1.0789676091944828e+02  -6.1737468285701238e+04  1.4959964556087565e+05  -1.2209543742908690e+05  6.0833581254394048e+04  2.4293920297923556e+05  -5.4160396727954743e+04  -3.4310419832731283e+05  -8.0016571474679594e+05  -1.6500299000913530e+05  -1.5137222597262994e+05  7.4283358739498653e+04  -1.9818323251588637e+05  -4.8699536982312048e+05  -3.6358010164327035e+05  -1.1036243997659746e+06  -2.1853588940515652e+04  -6.7878681725819653e+05  3.6979436355240241e+05  3.6204079474157532e+05  1.9665426750928100e+05  -8.5249592421531837e+04  2.1561464710215633e+05  1.2477926568963156e+05  1.1760846412016304e+05  1.9056428042259908e+05  8.8897673675714323e+04  1.4266589143442959e+05  1.9284191039413743e+05  -1.0416765557495150e+05  8.3766108272088517e+04  1.4388440515567237e+05  -2.7713323517067369e+04  2.6692695898537775e+04  1.4077686652901841e+05  1.9534788523137027e+04  -3.9954369618868351e+05  -5.0386706306021026e+05  -2.1717396460323894e+05  -1.9242468758330782e+05  -2.0516103046285058e+05  -1.4071630044179001e+04  8.5538210588529342e+04  -1.2209260526953731e+05  1.2538900792238687e+05  2.3284756067646030e+05  -1.2513581279450332e+05  4.4563768023377837e+05  5.4498990250879673e+04  1.7657310539192011e+05  3.0289459089740034e+05  2.2416137685627866e+05  1.9272107562748887e+05  1.0086537734832321e+05  2.2889070650757567e+05  3.4270996822767827e+05  -1.0034661374894790e+05  1.6609379836142951e+05  -1.0095987925206416e+05  2.2595468522486750e+04  1.8859480303769078e+05  1.6437108991857336e+05  -3.6031784065633590e+04  -8.5500814487765965e+03  4.6672596803360706e+04  -5.1107586157842481e+04  -2.9399182944803317e+04  1.0925048868163217e+05  -4.1274867108607854e+04  2.5526828969569502e+04  -9.5759903607073429e+04  -1.9833332274774199e+04  1.8369337299032183e+05  2.6785607107533291e+04  -1.0341361920503705e+04  -4.7657433507784139e+04  -6.9272882193691301e+04  -4.7530989856322536e+04  -6.4105075999564971e+04  -2.0697383624956605e+05  -1.2214301385013048e+04  -9.4061361056969909e+04  7.2203457190390051e+04  -1.1784471873514520e+05  6.7066385502731719e+04  2.0410024097854362e+05  -1.2635570124412228e+04  3.8520105180498467e+04  -7.1461536076923250e+04  -2.1233865117210833e+04  -1.9038073550109498e+05  -4.0071158835075237e+05  -3.4215676064828411e+05  3.1858393955017946e+04  -3.5583593937790365e+05  -1.6247476483335535e+05  -3.6373049260221986e+05  2.6519493759426352e+05  1.9409842263281255e+05  8.9199763366860326e+05  3.0536644001414801e+05  -1.4301976905896405e+04  4.4716858932458133e+04  5.0886642112705849e+04  -1.3900661529854575e+04  2.2654371849934923e+05  1.1397967833261128e+05  1.5424985380498652e+05  4.1264738419482819e+04  1.2540740858005446e+05  3.6213977453755180e+05  -7.2518526139242545e+04  7.2096046317032771e+04  -1.4273536593659903e+05  -1.0998597993328602e+04  -7.0693497334671221e+04  -1.5913930790400549e+05  -8.9285018048030426e+04  -7.3796187156480167e+05  -2.2719284805504503e+05  -1.9868220543175453e+05  -2.4125228972186273e+05  3.5647353112815955e+05  5.4422683491529373e+04  -5.9729498283829074e+05  -6.4615709446964443e+04  9.2835878413267219e+03  1.3121831290886737e+05  3.7918347008021876e+04  1.5018500532611497e+05  1.2762925011603032e+05  2.0270360863753583e+05  3.9421349524705316e+05  2.2988209431040499e+05  4.8369797250881325e+05  5.3278599211006309e+04  5.1511011197396059e+04  1.9509703128196128e+04  -1.6620506970128982e+05  1.0653597107729326e+05  1.6828154739044886e+05  1.4120082065993545e+05  1.4603251077097308e+05  7.6259463090650868e+04  -1.1977481475203219e+05  2.2229093148230726e+05  -4.9828835403121549e+04  9.1488747365094223e+03  7.3816748321706109e+04  2.7930492418996379e+05  -4.6468682942208623e+04  -1.3080116176042234e+05  7.0758236189646908e+04  1.0525691184146814e+05  7.7138939348559361e+04  -6.7484670761015892e+04  3.2813685412808038e+04  3.0917543327093208e+03  1.6666192972118608e+05  -1.0617968082996755e+05  -2.7970968319657864e+05  -7.0501307520184171e+04  -1.5822372590766693e+05  5.5752532477644163e+04  -2.9814520504768869e+04  -1.8244544674681712e+05  4.2154987801431234e+03  5.5956331018532590e+04  4.1586315024523216e+05  1.7325616011846499e+05  -1.9906709657442738e+04  -1.6550993974023333e+05  -3.1290453555541986e+05  4.2230619845179732e+04  -1.8369733211661744e+05  -5.7815118528457737e+04  -6.6158553947133711e+04  -4.2275298906645324e+05  -1.5240885153841091e+05  1.1306656231204049e+05  7.3064069315099018e+05  5.0409324899753323e+05  3.9881051558571617e+05  -8.6189378856753930e+04  1.0944568705098718e+05  1.8012614201186170e+05  2.1969769591662785e+05  -8.0673748954332095e+03  -3.0881279632619258e+04  1.4225637363444813e+05  1.7022013051868627e+04  3.1000303637740103e+05  4.5862604549954733e+04  -2.3708499556777140e+05  -1.0409006501280813e+05  -4.2862829930008232e+05  -1.1331540227345833e+05  -1.0850137171197638e+05  -3.3446410535638256e+05  -2.3729230475241487e+05  -1.6692137597409665e+05  -5.3378014057048934e+05  1.0005330456814512e+05  3.3345032930156085e+04  -2.1987311155556413e+05  -3.9392027945521043e+05  -2.1270737945619700e+05  -3.3895534227965446e+05  4.0332054286994715e+05  -2.2398334576051772e+05  1.5778961305957541e+05  2.8353386440550465e+04  1.0965137496781147e+05  1.7996747691288509e+05  4.2138279497759405e+05  6.1951030777213666e+04  1.3419656925200848e+05  1.4845124498785319e+05  2.8943371269157727e+05  -2.5167266394497000e+05  -1.0122384269242635e+05  1.5435645075568557e+05  1.5385103945580882e+05  1.0427882617628200e+05  5.7397994684453464e+04  7.7777835083989121e+04  -3.8640337172105821e+05  -1.8191746976631632e+05  -2.1935249008036585e+05  1.3427360020018852e+05  -2.6066590800200771e+04  1.2944676521297818e+05  -1.9216333521039301e+05  -1.5613227522508663e+05  1.2459592336053020e+05  5.9559653323036895e+04  1.5087446080106957e+05  -1.3058264634844771e+04  1.5190969945924421e+05  5.2380384410822386e+04  2.1668871742150845e+04  -2.0452776778969032e+05  -1.1377770367168398e+05  -9.7116639588745384e+04  2.1870416086233183e+05  -1.2455343657953290e+04  6.9049912537364697e+04  9.4625855428506329e+03  1.1226822819201380e+05  -1.4606298106834668e+05  -3.4363629618539801e+05  3.8411922802381938e+04  1.3361824626809554e+04  -7.1268309419631711e+04  -5.3402504308498779e+05  -5.8155532710743253e+04  9.1066531618538007e+04  -1.3342073130388759e+05  -2.2710771252669801e+05  2.1754311493677349e+05  5.4698211580560869e+05  4.8908304242566018e+05  6.7387224535374960e+05  1.4842278475134156e+05  -1.2132936666527115e+05  -2.7442752523810388e+04  -2.3913078768217322e+05  9.1656194320973504e+04  -1.2713938388469288e+05  3.3700982301115460e+05  2.2501775144843436e+04  -4.1370435331810040e+04  2.3053844993815135e+04  -4.5060680928896196e+04  -1.2314053532469962e+05  -9.7244357369715392e+04  -2.4220614194805780e+05  -3.2266244090822246e+05  -9.6869077474408419e+04  -5.6666637457290148e+04  -6.7627879095474340e+05  -3.0817345982233284e+05  -9.2701790974527015e+04  -4.2481458734631771e+05  2.4511936344044766e+05  3.0171201489785024e+04  -1.4492924428397091e+05  -1.3681791089741568e+05  -2.1947355237000631e+05  -3.1766024766025855e+05  -2.7045327902526571e+05  3.6831660566766397e+04  3.0031537054695451e+05  3.0333497157158639e+05  3.5184908631933964e+05  3.5241187059789232e+05  2.5812447587360325e+05  3.6219542513533391e+05  9.4545026759844332e+03  3.4140599066621118e+05  -1.5738433720361907e+05  -6.1139437884857740e+04  1.2040728632183264e+05  -1.4259363456603924e+04  -6.3912896480818010e+04  1.8185075976665720e+05  8.6527632099468130e+04  1.8386687691075425e+05  7.4755882924361431e+04  -1.5566630598993344e+04  -3.7778889861696152e+04  -1.6763136380574034e+05  5.7571892238678418e+04  -6.3588904066751511e+03  -1.3628239233499236e+05  -2.0816448179915278e+04  2.6012969336231516e+04  -6.1110301123119316e+04  2.3311376652472143e+05  -4.2509847200903117e+04  1.2469647593006228e+04  1.8865921446616494e+05  -4.0039873166956119e+02  -2.1788527452948713e+05  1.3639243124115473e+05  1.3348966176120707e+05  1.8800885995417408e+05  -1.3221236742408460e+04  1.9555754052279636e+05  1.2998755361274381e+05  9.5384048585533295e+04  -2.1233349578978034e+05  9.3234696318187111e+04  1.1291571588148168e+05  1.4819485919210489e+05  -1.0377586071494251e+05  5.6996961888460058e+05  -7.1386872758688536e+04  -1.1730061752916205e+05  -1.1590440943399226e+05  1.4244570386497752e+05  2.3416177852714885e+05  4.2183454634102754e+05  -2.5022310220540512e+04  1.5666523691851311e+05  -7.3676872941169376e+05  -1.1766205760404652e+05  -1.4392258667264270e+05  1.8238325226054486e+05  7.7156015826026880e+04  1.4806752321312838e+05  1.7652756211336024e+05  -9.0127379443515529e+04  8.1564179515047668e+04  -1.1580109860134761e+05  -1.6716334086557961e+05  -7.4710387744373220e+04  -7.3975749100377143e+04  -4.4573218574886538e+04  -1.4198635096734576e+05  9.2964527627676391e+04  -2.1198474202928660e+05  1.4349519307936767e+04  -2.2268778480640947e+05  -7.4887584072597849e+05  -4.2805323016587168e+05  -3.5583061921298031e+04  6.7879542567313503e+04  -2.5381473197660636e+05  8.1040541645793244e+04  1.7524653003420137e+05  -1.5406411061493380e+05  4.8882109077677986e+05  3.8703283652718290e+05  1.9219179519851500e+05  1.4496664078989069e+05  2.9883883049513871e+05  1.2235940260660094e+05  4.8806252391344409e+04  -4.5480552441403393e+04  3.0970086948925938e+04  -7.3282590541678699e+04  3.0427048727784349e+04  -1.1543017092142658e+04  8.4480672830031675e+04  3.6268845753706375e+05  -2.4848257632968581e+05  7.9527956062208032e+04  -3.8844486706671079e+04  -3.2866224867689698e+03  -1.1759399584308949e+05  -1.7327480817416450e+04  -3.9662260941122731e+04  1.0138696678293971e+04  1.0289946349698929e+05  1.0229478209986998e+05  4.4544630929436702e+04  1.6108470332353347e+05  -1.6948953845053236e+05  1.1767382233368012e+05  1.8225430346060297e+04  1.8695837251317446e+05  4.6147958707510566e+04  9.9360301335252196e+04  1.3983398773469729e+05  -1.0596800688650213e+05  1.5178651722094978e+05  2.3594283281560719e+05  1.1286121707457812e+05  -3.8138088394101815e+03  2.6378921967788041e+05  -7.5369530739647875e+04  -3.6365449686275642e+04  8.2039440155501652e+03  3.2081599589289399e+05  -1.3363642613805627e+05  1.2835077998783370e+05  -2.4500673181719074e+05  1.5814357776720545e+05  4.0914930716979979e+04  -9.3243007080266063e+04  -4.9953611654418666e+04  3.4926578844512539e+05  3.5608560674138670e+05  8.4654034495364831e+04  1.4846199440445390e+05  3.5075910386566428e+05  -2.5004130737422843e+05  -3.4783564993562875e+05  -2.8884103487528344e+04  3.9967843043549289e+05  -1.7158490418408030e+04  1.6901387949349650e+05  -3.7452898933419463e+05  -2.3634403821202484e+05  2.1646795086126313e+04  -6.6999595142752113e+01  6.1119876881586701e+04  1.9223718397849843e+04  6.0035796515252216e+04  -1.6581429565621458e+05  -1.6142473641996481e+05  -6.6626292201916358e+03  -1.3591840339792910e+05  -2.7567958801886992e+05  -1.8189848588255752e+05  -3.2893900341289275e+05  -1.0714075513298421e+05  1.4221752316980355e+05  -1.6012819740422486e+05  5.5316184085157067e+04  -1.0104916554410632e+05  1.0517836141784980e+05  1.9798040067101931e+05  -6.7584815278568756e+04  -4.0117288126597814e+04  4.6584329559272755e+05  4.7461850746949458e+04  1.1092946051618533e+05  -8.5589750916627236e+04  4.4907898212951797e+04  -9.6995749441223219e+04  -9.0716243270294581e+04  -7.2580509307400835e+03  2.7023493847702892e+04  6.2328143125631126e+04  -1.1018373963194128e+05  9.2619753876899296e+04  -2.3958151828934690e+04  7.8145779759050463e+04  -5.0135417389337184e+04  -1.1670932818478928e+05  3.6331200816070908e+04  3.5870478979748063e+04  -9.2866071318532107e+04  1.0441179575304000e+05  -1.3657932385275859e+05  2.1645444354104777e+05  1.5556140952431786e+04  9.4641336527128631e+04  7.4255081488563810e+04  9.1567194920468944e+04  8.4225197325552785e+04  2.3314475012716772e+04  1.5382334249027274e+05  -2.8466936774982656e+04  -8.0893138956216790e+04  1.0863670091961253e+05  2.2393515056185488e+05  -1.2066878535177872e+05  1.6023405343708897e+05  -6.6879490892714559e+04  1.5533968974507405e+05  -2.3196332932880049e+05  1.7580893468066546e+05  4.7671752731554407e+04  1.1896164704402527e+05  -5.7901264340814305e+04  -2.5279933995522180e+05  1.7241007396162246e+05  1.9796095040288696e+05  1.5489443321120634e+05  2.1259145876876413e+05  3.0462471625207626e+05  1.4432829497606249e+05  2.5732802816772205e+05  1.3727216459323696e+05  9.9282623266650233e+04  2.9201272044790321e+05  -5.5612489835866683e+04  4.9452145095686696e+05  3.1849953656896250e+05  2.3164380662220853e+05  -2.4760525681150577e+05  -2.0356969316229041e+05  -3.3324219828484050e+05  2.9873037791666666e+04  -8.3838058251717419e+04  5.6581665808832353e+04  1.2576468197059428e+05  2.7009284539653658e+04  -2.1573726958210824e+04  -4.7363462783713767e+04  -3.8770168204737260e+04  -1.7796427316664200e+05  -1.6131897861846449e+05  -1.2358388436983011e+05  9.3033140990535947e+04  2.8596075646052294e+05  -2.4654127042677283e+04  4.6308882761724689e+05  2.2815710306525641e+05  1.5975828373646727e+05  -1.6422685684967833e+05  1.5754006253476423e+05  9.5815091201610499e+04  1.7254411304653442e+05  -4.6357049492621234e+04  3.1511640174859035e+05  1.3778273570486195e+04  2.4757342405526855e+04  -3.7887880865694984e+04  -3.2441800202626455e+04  8.7642874961844384e+04  2.4455344127298114e+04  5.2058636801935441e+04  -5.5413960705001744e+04  -2.1794467985145548e+04  3.4571453234475724e+04  -1.7374088686238538e+04  -3.3186112948274880e+04  4.3915504811887331e+04  -1.1949710111498789e+04  8.9715255239198598e+02  -4.2584006898388827e+04  3.8550518117365551e+04  -4.5753670130989958e+04  1.1071293532553370e+05  -9.2584029835543377e+04  3.4715279686977912e+04  -4.2007479463556941e+04  4.3962626671966980e+04  -7.0250325185622642e+04  4.1557980767554858e+04  -1.9081941664260103e+04  7.6723487191069071e+04  -7.3542807467852021e+04  -1.9769692622756385e+04  -2.8938834054515752e+04  3.7570738013863906e+04  -3.7116849380792737e+04  -1.3082273308619109e+04  9.1720872328675308e+04  -6.5749466006931398e+04  1.0984779095934880e+05  -1.8954498147236587e+04  -3.8923342782479674e+04  1.3032236131664438e+05  1.0333619932443107e+04  -1.5803918076717432e+05  -2.4216151923193775e+04  -9.3068859760904106e+03  5.3039238477085433e+04  -2.0497528627172782e+04  5.2548026625948674e+04  1.0024121651108205e+05  -1.4918165680624972e+04  -1.1598661654066893e+05  2.7864815887288318e+05  -2.1063684772531944e+05  8.6332241680654552e+04  -3.9827168452809863e+04  -1.5447782958908216e+05  1.4250943032513012e+04  -2.9614167864879641e+04  -6.5867772943809337e+04  -1.6514138746698824e+05  3.3242981738660259e+04  1.5824860445359069e+04  4.6334491649227355e+04  7.6195083398308721e+04  2.5892352766160708e+04  7.9340404244743972e+04  -1.0002311432973530e+05  2.3168797336299025e+05  -1.0219109180032540e+05  1.2501770463462418e+05  -1.5413856533107010e+05  -1.0847977984757889e+05  4.3285851335374522e+04  5.2341991541148054e+04  2.4723735262380767e+04  -1.0261397985895386e+05  -5.7827809284487041e+04  -1.5469721654906665e+04  3.9889213941353628e+04  4.6931875540364992e+04  8.6279067927256688e+02  6.8991459881363655e+04  1.4652837098537409e+04  -3.5717545126181663e+04  2.1293715786769277e+04  -5.2433408859034527e+04  1.3709478788976680e+05  -2.9858751494170072e+04  -1.6339889353091696e+04  7.2689670631007888e+04  4.5843629693688112e+04  1.5964093153872792e+05  1.6081368683407147e+05  3.7907186359995780e+04  4.4014046504483873e+05  4.4111910390186223e+05  -1.7538568025368339e+05  -2.3934073216446472e+05  2.5178259179154102e+05  -5.6016736958638976e+04  -1.4264383964941722e+04  6.6658519237352622e+04  7.5152358598629493e+04  1.9683636635536214e+05  -1.2223672896967195e+05  -1.3687437358695557e+05  -1.1232944315780648e+05  5.5156619728488959e+03  -1.0469360310566572e+05  -3.5151837382155808e+05  -2.1559390425912928e+05  1.7449007689318725e+04  -5.5315776947030029e+05  9.8830251773061886e+04  -9.9862309394065567e+04  -7.0385647255827178e+04  -1.1219713428564598e+05  -3.1141459127697715e+05  -1.9832456227865382e+05  -4.6817016214843548e+04  -4.6616303509649035e+04  -1.1240589700224044e+05  -7.6696660187342946e+04  1.9726617454937292e+05  -2.5535569246500797e+05  1.2746981001511522e+05  -5.1271595661931991e+05  -7.1620881334245543e+05  -1.0255605428182404e+05  1.1225429187922454e+06  5.3749955882594152e+05  5.4526547126529449e+03  3.2719313415492239e+05  3.1380594636007422e+05  1.3447657035407238e+05  1.0980460190925833e+05  1.9117043942471113e+05  2.4528218251708933e+05  1.8398045328538015e+05  -1.7815031430133028e+05  1.7547069595387795e+03  1.7082573811579013e+05  2.6102374554919625e+04  -4.8732188291282910e+04  -2.5655166853168313e+05  -1.9935879179294026e+05  5.5285008302637172e+04  -3.5040732527400256e+05  -5.8408064743001433e+05  -2.7854248863780347e+05  -7.2044460398219249e+04  3.0884080847712967e+05  -5.3254925124900474e+05  -6.7782953560683259e+05  -5.7604560235329182e+05  -2.6435764156977949e+05  -2.3457509346493799e+05  5.9462631310494372e+05  5.8789591250842367e+05  1.6040954324999807e+05  2.8860216600051121e+05  2.8987889172008826e+05  4.7486187027705811e+04  2.1239397373936971e+05  1.8838437034567221e+05  1.0994819213096570e+05  5.4336358757751070e+04  1.2283025026244113e+05  6.0876590204654894e+04  -3.4304597136373006e+04  9.8390317821931647e+04  1.8086773093251104e+04  2.63988355882532