<?xml version="1.0"?>
<VTKFile type="UnstructuredGrid"  version="0.1"  >
<UnstructuredGrid>
<Piece  NumberOfPoints="1369" NumberOfCells="2560">
<Points>
<DataArray  type="Float64"  NumberOfComponents="3"  format="ascii">0 0 0  0.75 0 0  1.5 0 0  2.25 0 0  3 0 0  3.75 0 0  4.5 0 0  5.25 0 0  6 0 0  6.75 0 0  7.5 0 0  8.25 0 0  9 0 0  9.75 0 0  10.5 0 0  11.25 0 0  12 0 0  12.75 0 0  13.5 0 0  14.25 0 0  15 0 0  15.75 0 0  16.5 0 0  17.25 0 0  18 0 0  18.75 0 0  19.5 0 0  20.25 0 0  21 0 0  21.75 0 0  22.5 0 0  23.25 0 0  24 0 0  24.75 0 0  25.5 0 0  26.25 0 0  27 0 0  27.75 0 0  28.5 0 0  29.25 0 0  30 0 0  30.75 0 0  31.5 0 0  32.25 0 0  33 0 0  33.75 0 0  34.5 0 0  35.25 0 0  36 0 0  36.75 0 0  37.5 0 0  38.25 0 0  39 0 0  39.75 0 0  40.5 0 0  41.25 0 0  42 0 0  42.75 0 0  43.5 0 0  44.25 0 0  45 0 0  45.75 0 0  46.5 0 0  47.25 0 0  48 0 0  48.75 0 0  49.5 0 0  50.25 0 0  51 0 0  51.75 0 0  52.5 0 0  53.25 0 0  54 0 0  54.75 0 0  55.5 0 0  56.25 0 0  57 0 0  57.75 0 0  58.5 0 0  59.25 0 0  60 0 0  0 0.5 0  0.75 0.5 0  1.5 0.5 0  2.25 0.5 0  3 0.5 0  3.75 0.5 0  4.5 0.5 0  5.25 0.5 0  6 0.5 0  6.75 0.5 0  7.5 0.5 0  8.25 0.5 0  9 0.5 0  9.75 0.5 0  10.5 0.5 0  11.25 0.5 0  12 0.5 0  12.75 0.5 0  13.5 0.5 0  14.25 0.5 0  15 0.5 0  15.75 0.5 0  16.5 0.5 0  17.25 0.5 0  18 0.5 0  18.75 0.5 0  19.5 0.5 0  20.25 0.5 0  21 0.5 0  21.75 0.5 0  22.5 0.5 0  23.25 0.5 0  24 0.5 0  24.75 0.5 0  25.5 0.5 0  26.25 0.5 0  27 0.5 0  27.75 0.5 0  28.5 0.5 0  29.25 0.5 0  30 0.5 0  30.75 0.5 0  31.5 0.5 0  32.25 0.5 0  33 0.5 0  33.75 0.5 0  34.5 0.5 0  35.25 0.5 0  36 0.5 0  36.75 0.5 0  37.5 0.5 0  38.25 0.5 0  39 0.5 0  39.75 0.5 0  40.5 0.5 0  41.25 0.5 0  42 0.5 0  42.75 0.5 0  43.5 0.5 0  44.25 0.5 0  45 0.5 0  45.75 0.5 0  46.5 0.5 0  47.25 0.5 0  48 0.5 0  48.75 0.5 0  49.5 0.5 0  50.25 0.5 0  51 0.5 0  51.75 0.5 0  52.5 0.5 0  53.25 0.5 0  54 0.5 0  54.75 0.5 0  55.5 0.5 0  56.25 0.5 0  57 0.5 0  57.75 0.5 0  58.5 0.5 0  59.25 0.5 0  60 0.5 0  0 1 0  0.75 1 0  1.5 1 0  2.25 1 0  3 1 0  3.75 1 0  4.5 1 0  5.25 1 0  6 1 0  6.75 1 0  7.5 1 0  8.25 1 0  9 1 0  9.75 1 0  10.5 1 0  11.25 1 0  12 1 0  12.75 1 0  13.5 1 0  14.25 1 0  15 1 0  15.75 1 0  16.5 1 0  17.25 1 0  18 1 0  18.75 1 0  19.5 1 0  20.25 1 0  21 1 0  21.75 1 0  22.5 1 0  23.25 1 0  24 1 0  24.75 1 0  25.5 1 0  26.25 1 0  27 1 0  27.75 1 0  28.5 1 0  29.25 1 0  30 1 0  30.75 1 0  31.5 1 0  32.25 1 0  33 1 0  33.75 1 0  34.5 1 0  35.25 1 0  36 1 0  36.75 1 0  37.5 1 0  38.25 1 0  39 1 0  39.75 1 0  40.5 1 0  41.25 1 0  42 1 0  42.75 1 0  43.5 1 0  44.25 1 0  45 1 0  45.75 1 0  46.5 1 0  47.25 1 0  48 1 0  48.75 1 0  49.5 1 0  50.25 1 0  51 1 0  51.75 1 0  52.5 1 0  53.25 1 0  54 1 0  54.75 1 0  55.5 1 0  56.25 1 0  57 1 0  57.75 1 0  58.5 1 0  59.25 1 0  60 1 0  0 1.5 0  0.75 1.5 0  1.5 1.5 0  2.25 1.5 0  3 1.5 0  3.75 1.5 0  4.5 1.5 0  5.25 1.5 0  6 1.5 0  6.75 1.5 0  7.5 1.5 0  8.25 1.5 0  9 1.5 0  9.75 1.5 0  10.5 1.5 0  11.25 1.5 0  12 1.5 0  12.75 1.5 0  13.5 1.5 0  14.25 1.5 0  15 1.5 0  15.75 1.5 0  16.5 1.5 0  17.25 1.5 0  18 1.5 0  18.75 1.5 0  19.5 1.5 0  20.25 1.5 0  21 1.5 0  21.75 1.5 0  22.5 1.5 0  23.25 1.5 0  24 1.5 0  24.75 1.5 0  25.5 1.5 0  26.25 1.5 0  27 1.5 0  27.75 1.5 0  28.5 1.5 0  29.25 1.5 0  30 1.5 0  30.75 1.5 0  31.5 1.5 0  32.25 1.5 0  33 1.5 0  33.75 1.5 0  34.5 1.5 0  35.25 1.5 0  36 1.5 0  36.75 1.5 0  37.5 1.5 0  38.25 1.5 0  39 1.5 0  39.75 1.5 0  40.5 1.5 0  41.25 1.5 0  42 1.5 0  42.75 1.5 0  43.5 1.5 0  44.25 1.5 0  45 1.5 0  45.75 1.5 0  46.5 1.5 0  47.25 1.5 0  48 1.5 0  48.75 1.5 0  49.5 1.5 0  50.25 1.5 0  51 1.5 0  51.75 1.5 0  52.5 1.5 0  53.25 1.5 0  54 1.5 0  54.75 1.5 0  55.5 1.5 0  56.25 1.5 0  57 1.5 0  57.75 1.5 0  58.5 1.5 0  59.25 1.5 0  60 1.5 0  0 2 0  0.75 2 0  1.5 2 0  2.25 2 0  3 2 0  3.75 2 0  4.5 2 0  5.25 2 0  6 2 0  6.75 2 0  7.5 2 0  8.25 2 0  9 2 0  9.75 2 0  10.5 2 0  11.25 2 0  12 2 0  12.75 2 0  13.5 2 0  14.25 2 0  15 2 0  15.75 2 0  16.5 2 0  17.25 2 0  18 2 0  18.75 2 0  19.5 2 0  20.25 2 0  21 2 0  21.75 2 0  22.5 2 0  23.25 2 0  24 2 0  24.75 2 0  25.5 2 0  26.25 2 0  27 2 0  27.75 2 0  28.5 2 0  29.25 2 0  30 2 0  30.75 2 0  31.5 2 0  32.25 2 0  33 2 0  33.75 2 0  34.5 2 0  35.25 2 0  36 2 0  36.75 2 0  37.5 2 0  38.25 2 0  39 2 0  39.75 2 0  40.5 2 0  41.25 2 0  42 2 0  42.75 2 0  43.5 2 0  44.25 2 0  45 2 0  45.75 2 0  46.5 2 0  47.25 2 0  48 2 0  48.75 2 0  49.5 2 0  50.25 2 0  51 2 0  51.75 2 0  52.5 2 0  53.25 2 0  54 2 0  54.75 2 0  55.5 2 0  56.25 2 0  57 2 0  57.75 2 0  58.5 2 0  59.25 2 0  60 2 0  0 2.5 0  0.75 2.5 0  1.5 2.5 0  2.25 2.5 0  3 2.5 0  3.75 2.5 0  4.5 2.5 0  5.25 2.5 0  6 2.5 0  6.75 2.5 0  7.5 2.5 0  8.25 2.5 0  9 2.5 0  9.75 2.5 0  10.5 2.5 0  11.25 2.5 0  12 2.5 0  12.75 2.5 0  13.5 2.5 0  14.25 2.5 0  15 2.5 0  15.75 2.5 0  16.5 2.5 0  17.25 2.5 0  18 2.5 0  18.75 2.5 0  19.5 2.5 0  20.25 2.5 0  21 2.5 0  21.75 2.5 0  22.5 2.5 0  23.25 2.5 0  24 2.5 0  24.75 2.5 0  25.5 2.5 0  26.25 2.5 0  27 2.5 0  27.75 2.5 0  28.5 2.5 0  29.25 2.5 0  30 2.5 0  30.75 2.5 0  31.5 2.5 0  32.25 2.5 0  33 2.5 0  33.75 2.5 0  34.5 2.5 0  35.25 2.5 0  36 2.5 0  36.75 2.5 0  37.5 2.5 0  38.25 2.5 0  39 2.5 0  39.75 2.5 0  40.5 2.5 0  41.25 2.5 0  42 2.5 0  42.75 2.5 0  43.5 2.5 0  44.25 2.5 0  45 2.5 0  45.75 2.5 0  46.5 2.5 0  47.25 2.5 0  48 2.5 0  48.75 2.5 0  49.5 2.5 0  50.25 2.5 0  51 2.5 0  51.75 2.5 0  52.5 2.5 0  53.25 2.5 0  54 2.5 0  54.75 2.5 0  55.5 2.5 0  56.25 2.5 0  57 2.5 0  57.75 2.5 0  58.5 2.5 0  59.25 2.5 0  60 2.5 0  0 3 0  0.75 3 0  1.5 3 0  2.25 3 0  3 3 0  3.75 3 0  4.5 3 0  5.25 3 0  6 3 0  6.75 3 0  7.5 3 0  8.25 3 0  9 3 0  9.75 3 0  10.5 3 0  11.25 3 0  12 3 0  12.75 3 0  13.5 3 0  14.25 3 0  15 3 0  15.75 3 0  16.5 3 0  17.25 3 0  18 3 0  18.75 3 0  19.5 3 0  20.25 3 0  21 3 0  21.75 3 0  22.5 3 0  23.25 3 0  24 3 0  24.75 3 0  25.5 3 0  26.25 3 0  27 3 0  27.75 3 0  28.5 3 0  29.25 3 0  30 3 0  30.75 3 0  31.5 3 0  32.25 3 0  33 3 0  33.75 3 0  34.5 3 0  35.25 3 0  36 3 0  36.75 3 0  37.5 3 0  38.25 3 0  39 3 0  39.75 3 0  40.5 3 0  41.25 3 0  42 3 0  42.75 3 0  43.5 3 0  44.25 3 0  45 3 0  45.75 3 0  46.5 3 0  47.25 3 0  48 3 0  48.75 3 0  49.5 3 0  50.25 3 0  51 3 0  51.75 3 0  52.5 3 0  53.25 3 0  54 3 0  54.75 3 0  55.5 3 0  56.25 3 0  57 3 0  57.75 3 0  58.5 3 0  59.25 3 0  60 3 0  0 3.5 0  0.75 3.5 0  1.5 3.5 0  2.25 3.5 0  3 3.5 0  3.75 3.5 0  4.5 3.5 0  5.25 3.5 0  6 3.5 0  6.75 3.5 0  7.5 3.5 0  8.25 3.5 0  9 3.5 0  9.75 3.5 0  10.5 3.5 0  11.25 3.5 0  12 3.5 0  12.75 3.5 0  13.5 3.5 0  14.25 3.5 0  15 3.5 0  15.75 3.5 0  16.5 3.5 0  17.25 3.5 0  18 3.5 0  18.75 3.5 0  19.5 3.5 0  20.25 3.5 0  21 3.5 0  21.75 3.5 0  22.5 3.5 0  23.25 3.5 0  24 3.5 0  24.75 3.5 0  25.5 3.5 0  26.25 3.5 0  27 3.5 0  27.75 3.5 0  28.5 3.5 0  29.25 3.5 0  30 3.5 0  30.75 3.5 0  31.5 3.5 0  32.25 3.5 0  33 3.5 0  33.75 3.5 0  34.5 3.5 0  35.25 3.5 0  36 3.5 0  36.75 3.5 0  37.5 3.5 0  38.25 3.5 0  39 3.5 0  39.75 3.5 0  40.5 3.5 0  41.25 3.5 0  42 3.5 0  42.75 3.5 0  43.5 3.5 0  44.25 3.5 0  45 3.5 0  45.75 3.5 0  46.5 3.5 0  47.25 3.5 0  48 3.5 0  48.75 3.5 0  49.5 3.5 0  50.25 3.5 0  51 3.5 0  51.75 3.5 0  52.5 3.5 0  53.25 3.5 0  54 3.5 0  54.75 3.5 0  55.5 3.5 0  56.25 3.5 0  57 3.5 0  57.75 3.5 0  58.5 3.5 0  59.25 3.5 0  60 3.5 0  0 4 0  0.75 4 0  1.5 4 0  2.25 4 0  3 4 0  3.75 4 0  4.5 4 0  5.25 4 0  6 4 0  6.75 4 0  7.5 4 0  8.25 4 0  9 4 0  9.75 4 0  10.5 4 0  11.25 4 0  12 4 0  12.75 4 0  13.5 4 0  14.25 4 0  15 4 0  15.75 4 0  16.5 4 0  17.25 4 0  18 4 0  18.75 4 0  19.5 4 0  20.25 4 0  21 4 0  21.75 4 0  22.5 4 0  23.25 4 0  24 4 0  24.75 4 0  25.5 4 0  26.25 4 0  27 4 0  27.75 4 0  28.5 4 0  29.25 4 0  30 4 0  30.75 4 0  31.5 4 0  32.25 4 0  33 4 0  33.75 4 0  34.5 4 0  35.25 4 0  36 4 0  36.75 4 0  37.5 4 0  38.25 4 0  39 4 0  39.75 4 0  40.5 4 0  41.25 4 0  42 4 0  42.75 4 0  43.5 4 0  44.25 4 0  45 4 0  45.75 4 0  46.5 4 0  47.25 4 0  48 4 0  48.75 4 0  49.5 4 0  50.25 4 0  51 4 0  51.75 4 0  52.5 4 0  53.25 4 0  54 4 0  54.75 4 0  55.5 4 0  56.25 4 0  57 4 0  57.75 4 0  58.5 4 0  59.25 4 0  60 4 0  0.375 0.25 0  1.125 0.25 0  1.875 0.25 0  2.625 0.25 0  3.375 0.25 0  4.125 0.25 0  4.875 0.25 0  5.625 0.25 0  6.375 0.25 0  7.125 0.25 0  7.875 0.25 0  8.625 0.25 0  9.375 0.25 0  10.125 0.25 0  10.875 0.25 0  11.625 0.25 0  12.375 0.25 0  13.125 0.25 0  13.875 0.25 0  14.625 0.25 0  15.375 0.25 0  16.125 0.25 0  16.875 0.25 0  17.625 0.25 0  18.375 0.25 0  19.125 0.25 0  19.875 0.25 0  20.625 0.25 0  21.375 0.25 0  22.125 0.25 0  22.875 0.25 0  23.625 0.25 0  24.375 0.25 0  25.125 0.25 0  25.875 0.25 0  26.625 0.25 0  27.375 0.25 0  28.125 0.25 0  28.875 0.25 0  29.625 0.25 0  30.375 0.25 0  31.125 0.25 0  31.875 0.25 0  32.625 0.25 0  33.375 0.25 0  34.125 0.25 0  34.875 0.25 0  35.625 0.25 0  36.375 0.25 0  37.125 0.25 0  37.875 0.25 0  38.625 0.25 0  39.375 0.25 0  40.125 0.25 0  40.875 0.25 0  41.625 0.25 0  42.375 0.25 0  43.125 0.25 0  43.875 0.25 0  44.625 0.25 0  45.375 0.25 0  46.125 0.25 0  46.875 0.25 0  47.625 0.25 0  48.375 0.25 0  49.125 0.25 0  49.875 0.25 0  50.625 0.25 0  51.375 0.25 0  52.125 0.25 0  52.875 0.25 0  53.625 0.25 0  54.375 0.25 0  55.125 0.25 0  55.875 0.25 0  56.625 0.25 0  57.375 0.25 0  58.125 0.25 0  58.875 0.25 0  59.625 0.25 0  0.375 0.75 0  1.125 0.75 0  1.875 0.75 0  2.625 0.75 0  3.375 0.75 0  4.125 0.75 0  4.875 0.75 0  5.625 0.75 0  6.375 0.75 0  7.125 0.75 0  7.875 0.75 0  8.625 0.75 0  9.375 0.75 0  10.125 0.75 0  10.875 0.75 0  11.625 0.75 0  12.375 0.75 0  13.125 0.75 0  13.875 0.75 0  14.625 0.75 0  15.375 0.75 0  16.125 0.75 0  16.875 0.75 0  17.625 0.75 0  18.375 0.75 0  19.125 0.75 0  19.875 0.75 0  20.625 0.75 0  21.375 0.75 0  22.125 0.75 0  22.875 0.75 0  23.625 0.75 0  24.375 0.75 0  25.125 0.75 0  25.875 0.75 0  26.625 0.75 0  27.375 0.75 0  28.125 0.75 0  28.875 0.75 0  29.625 0.75 0  30.375 0.75 0  31.125 0.75 0  31.875 0.75 0  32.625 0.75 0  33.375 0.75 0  34.125 0.75 0  34.875 0.75 0  35.625 0.75 0  36.375 0.75 0  37.125 0.75 0  37.875 0.75 0  38.625 0.75 0  39.375 0.75 0  40.125 0.75 0  40
[...]
<PointData  Scalars="f_8-1"> 
<DataArray  type="Float64"  Name="f_8-1"  format="ascii">-1.3108316977662829e+05  -4.6689978926747420e+05  -1.5327765811755338e+06  7.5268559549014771e+05  -1.1448998288154627e+05  -3.5493490236417309e+05  -4.6592903779426077e+05  -1.3056099553363740e+06  9.2852330907913856e+03  -8.0507443277432525e+05  -1.2166452153504114e+06  2.4856290671405909e+06  -2.6981501658970150e+06  5.4791102209507371e+05  -2.1683659072979926e+06  -1.3746256396687939e+06  -1.4024759106363950e+06  -3.3451719294507853e+06  -1.1833635912569703e+06  -2.4077379817908793e+06  -1.0029434393641542e+06  1.4721695381328671e+06  -7.4448165113021911e+05  -2.3598432923194589e+05  -5.6439877350710391e+05  -5.2671572489557171e+05  1.7819226111724705e+06  9.1069241287294717e+04  8.3153951199865260e+05  4.9283157467830379e+05  -3.2629242968113156e+05  2.3506043590442417e+05  1.4714599171366098e+06  -5.0542875178558257e+05  1.3077073937258038e+05  -6.4213865476235689e+05  1.1472780623892104e+04  4.9669023419285397e+05  -1.3480748808568048e+06  -4.0911162927953660e+05  -3.8937615125652443e+05  9.9588672994793963e+05  -4.3465881305966352e+05  -8.6520863615145488e+05  1.2421858754867192e+06  -8.8001181630970142e+05  -4.3676894385014288e+06  -2.8938379643156840e+06  1.3710648824892009e+06  1.8930516853668899e+06  -1.4701900497057717e+06  9.2217152944919013e+05  1.0589176360106359e+06  -1.7403454842310265e+05  6.5401959860596585e+05  -1.3039453296224321e+06  2.7137997429019917e+05  -1.9453185462811642e+05  3.0192876549802721e+05  -1.8196225782123682e+05  -1.7529947145596246e+05  2.5144581931126066e+06  2.2343262509419196e+06  -3.5561263454716757e+05  1.3223047205128076e+06  1.2889500167154204e+06  -1.1962219805807811e+06  9.3389810587966116e+05  4.5058195785046235e+05  -4.6708120529922418e+05  1.8960694941749121e+05  3.8890571944067610e+05  -8.3094304777483005e+04  2.8683146601848315e+04  -7.1810465982948896e+05  1.1559095502667953e+05  -2.2111499029104521e+04  1.6674134535433719e+05  -5.2578981582641711e+04  -2.0900869171638964e+05  -1.0236941000292767e+05  2.2421166351079723e+05  -8.5174567705893039e+05  -3.5460787482019135e+05  2.6385386570900498e+05  -1.4032546210248061e+05  -3.4959179666284658e+05  -8.7359840857373236e+05  -6.7044751201224269e+05  -4.1253559558429086e+05  -3.9872991061748494e+05  -7.4389787554443174e+05  1.9974306802596434e+06  -2.9903346241676556e+06  -1.2229053535894486e+06  -1.5737016835805411e+06  -1.7087458621697379e+06  -2.4080215953625832e+06  -3.6061101198375849e+06  -2.5339219411908234e+06  -2.0594400114927692e+06  -1.0368872521305128e+06  -1.5343371253990224e+06  -5.1456736249154242e+05  8.0112410352171282e+05  -9.6390863669010310e+05  -1.4084345654744403e+06  1.2626462870579874e+05  1.3284891444236953e+06  -6.9007240383498778e+05  4.4077983218550548e+05  9.3679558938727045e+04  1.2959231304029157e+05  8.5845752103667939e+05  6.1662791091313178e+05  -3.9903598693819396e+05  8.9225392561336106e+04  9.8525339838795713e+05  -3.4127808160623646e+05  -3.3383647260475250e+03  -4.0404915214751812e+05  -2.3377620297040118e+05  9.3699100542540289e+05  3.3824604386457597e+05  4.5606676436071174e+05  8.3044723489168100e+05  1.6093601216200043e+06  -5.8044737517702230e+05  -6.7858010810047225e+05  1.4013989896072011e+05  1.1322920683029033e+06  -4.1731225011821621e+05  5.3575460851805599e+05  1.9490469644689355e+06  9.7001698637531756e+05  -6.1469191525985766e+05  1.5619194132906350e+05  -8.9951195183105953e+05  2.7870653620202199e+05  -3.6206233472924738e+05  -2.5401116368774377e+05  -3.9737589515388536e+05  1.1682388375045855e+06  9.9356568916665018e+05  -2.2162824172734196e+05  9.5154315021209023e+05  -6.7468734502392949e+05  3.4547006855914718e+05  1.0859350511512787e+06  -5.1176328107357167e+03  -1.2507997563713549e+06  4.2601597274536296e+05  4.3538881466008886e+05  -7.9991785797658900e+05  5.2311145616202860e+05  -2.6231452184741094e+05  -2.4909447407810861e+05  9.8086718055255638e+04  1.0765932506103595e+05  6.2923348826570054e+03  -2.0645235708283482e+05  -1.6189174893697107e+05  -7.6463253413572747e+04  -2.5240077151120050e+05  7.7479658506984694e+05  8.1654021309982182e+05  3.0358486779806338e+05  2.0613023118925889e+05  -4.0181074187179845e+04  -1.1411893258843084e+06  -3.4114271703097440e+05  -5.0022530508480326e+05  -6.4938091434939438e+05  -1.6994044215437812e+06  -2.1387418970448434e+05  -2.2945243401184515e+06  -1.7411745595178851e+06  -1.1678827700074727e+06  3.9436928431967608e+04  -6.8544302727166878e+05  -2.0628796570013328e+06  -1.4343457573566381e+06  -1.3623531427750788e+06  3.1771491214072349e+05  8.5829131574469060e+05  -3.5043138066064939e+05  -1.5004427307783389e+06  1.6152086003506120e+05  4.9774111809738690e+05  8.2382094765484123e+05  3.9309774975268828e+05  8.1385158689288597e+05  1.2351824804872337e+06  7.4806144158951344e+05  2.4805010096927205e+05  1.1529816973828031e+06  -6.1437205247674393e+05  2.9406408682087238e+05  3.2092594899861485e+05  -4.0019460854474653e+05  -1.1115783757185668e+05  -4.8100894901379477e+05  7.7917297773159179e+05  -5.6708403761873178e+03  2.0770883049575519e+05  -3.0086176471405575e+05  5.7928593922365969e+05  2.3523638342056340e+04  -2.3327398261756156e+05  -1.6997396985947206e+06  1.2762529078290297e+06  6.5313094758128142e+05  -4.3952679960966008e+04  6.7623871807634679e+05  1.0290653449668289e+06  -2.4800036933410115e+05  -8.9723369248680247e+05  1.6932647473227014e+05  -6.1698205226670376e+04  -3.9051187526079762e+05  -5.7593285230983561e+05  -4.0634727155946032e+05  -5.0085605901289603e+05  4.9639500326634006e+05  -6.8340605499706697e+05  -6.7859701547834172e+05  4.8823178816511511e+05  6.1088228616600647e+05  -2.3550795642688850e+05  6.8124660930114775e+05  1.6036589922579506e+05  -7.0465571579253220e+05  -4.4012037783855177e+05  -3.7090125967940046e+04  6.7319633667331876e+05  1.0485042620398549e+05  -3.3495916737655253e+05  -4.6445502462948556e+05  3.9186294557607580e+04  -5.7489483242345821e+04  7.1913324507644371e+04  -4.2297199387054978e+05  1.0032499427024118e+05  -3.2136428913325220e+04  -1.8869517942908770e+05  2.7431606494368432e+05  9.5886484901235125e+05  1.3849195331715373e+05  3.3650280693410488e+05  1.2376234982435510e+06  -2.4564187768105321e+05  -1.7947958798140625e+06  5.9973103291093989e+05  2.0107091214722249e+05  -7.6254006751394342e+05  1.5234861544089561e+05  -2.1689395675938991e+06  -1.4490779495432894e+06  1.9942011791653285e+05  -4.6579002898624906e+05  -1.0018351267824832e+06  -2.1671510625743857e+06  -6.3090385318475601e+05  8.8039182353312615e+05  7.2810864636998554e+05  -5.2502449017724569e+05  -1.1275608862183935e+06  -1.1902439529965182e+06  -3.3321312736231775e+05  -2.6719318844651524e+05  -5.8341547209979163e+05  8.4607254629210522e+05  4.2703227552527841e+05  7.5622906676109985e+05  4.4763844426707510e+05  5.0493765892619448e+05  -4.3207421517738221e+04  -7.2813265746594639e+04  3.9362578442194813e+05  -4.0154597447752586e+05  -1.2504189506879245e+05  -2.4619424216414519e+05  -2.5054108838537405e+05  -4.3491718437414971e+05  3.6272671864715440e+05  4.8051621645215474e+05  -7.4337707100259559e+05  7.0446597556716215e+05  -1.6047226363470597e+05  -7.4388865919303859e+05  4.7187740151427529e+05  -6.3985118776757771e+05  1.3374090830056188e+06  1.0431054594021966e+06  8.2178785956435825e+05  4.2424787758563930e+05  3.5737750119206472e+05  8.6162245704891684e+05  4.9961363897412794e+05  3.2910835064617754e+05  5.8149643750807887e+05  -3.8211194684940326e+05  -3.2801450689471595e+05  -1.0833623186389403e+06  -3.0286310811555944e+05  -5.6463834616174875e+05  5.4793666252226976e+05  -9.8724454930707067e+05  -1.1161971988570211e+06  4.8490225800308122e+04  -1.0576321312522738e+05  5.1416601175587554e+05  -2.2579550587114727e+05  1.9911458060440476e+04  -1.5434804091580017e+05  1.8680578825107389e+05  -1.9053957248679837e+05  5.3472453202901030e+04  -2.5071900136444398e+05  -2.8054535556686000e+05  8.7583852746452303e+03  8.6058822210501967e+04  -2.4291081653424269e+04  9.4894585808781252e+04  -2.3389441934022182e+05  -1.0561752748944508e+05  -3.1867840329553752e+05  5.4811158349070814e+05  -2.3694595620336804e+04  2.5731211063226650e+05  1.6921937387577342e+05  1.1013529942723393e+04  5.2294791812856932e+05  -9.1779646585719183e+05  -2.0790749272620733e+03  -9.4071699308213161e+05  -1.7512810423241525e+06  -1.1689629912609339e+06  -2.0638395385180353e+06  -2.1805564089198695e+06  -1.2378537814443184e+06  -1.7001646202233250e+06  -5.1837080526151980e+05  -2.9962797433743179e+06  -1.5769407403212304e+06  -2.1603289709579892e+05  -1.7336558969805527e+06  1.0977709165698261e+05  -8.8144153745557007e+04  -9.4942884493814970e+04  -8.3371470951947197e+05  -4.1486977565024327e+05  5.5101707499358850e+05  9.1330423686690585e+04  1.4982969784000303e+05  9.9696560614593304e+05  3.6958512079877715e+05  -6.3024738620444469e+05  3.5944433735684486e+05  -6.8519119116710371e+05  4.7410335547593504e+05  -1.6047400165499971e+05  4.8718065032222454e+05  -2.1241579221105765e+05  -1.6384479091521309e+05  1.5323421012515496e+05  5.9819798458250915e+05  4.5129048996870796e+05  -7.3719815148304065e+05  -4.3094488842925010e+05  -6.6112396352479758e+05  2.1070800485106168e+05  4.3068179952481543e+04  -8.0553189192722703e+05  1.5153048354797822e+05  8.5216951205214160e+05  7.3245441749451600e+05  1.6778031588034146e+05  -6.5058865807837306e+05  3.6255058995315590e+05  -3.0330470025524223e+05  4.8396175598370413e+04  -4.8166945989744936e+05  8.1030557085457069e+04  -1.5829269162221893e+06  -3.9395569091833272e+05  9.6385922472175863e+05  -3.3869732898771024e+05  -1.2284241419844422e+05  -7.4273918266681291e+05  1.7300783922152294e+05  5.5183680575465888e+05  2.6888981149957253e+05  -3.2311663495087356e+05  3.1570118076662841e+05  -5.5284036640101240e+05  1.8476918168692102e+05  -5.8682341151472309e+05  -1.0010743636896971e+06  4.2726483708993721e+04  -3.6849285173291096e+05  -5.5535735299372827e+03  6.2958492420995963e+03  -6.0496928933633732e+04  -3.2947184124426196e+04  1.2705908896422981e+05  -2.4768795007199619e+05  4.8419740308344399e+05  4.9377466199546389e+05  -1.0427770281756090e+05  8.8001441785801179e+05  -4.7588649430147512e+05  -7.7574069802659831e+05  -7.9560936844775337e+05  -6.6769799477580970e+05  -5.3173073412234546e+05  -7.5298646412316500e+05  -8.0660403696366050e+05  -1.3985668093433906e+06  -4.6956342085697781e+06  1.3925659098867415e+06  -8.6524832801216538e+05  -8.0429880447936279e+05  -3.3597594460064115e+05  2.3508099158393985e+05  -3.4026113053605752e+05  -5.9356147989258275e+05  -2.7248228702838742e+05  -6.9124036801759794e+04  -1.1040505386139944e+05  -4.2295932181516464e+05  -2.7836669221329765e+04  4.4516329999627353e+05  4.1201607883195928e+05  2.3723300525738750e+05  5.0310332463671401e+05  6.1871640273271489e+05  6.8229966719277087e+04  3.8857451713952528e+03  3.6702999383972987e+04  -9.1856779963520297e+05  -4.2316783988730563e+05  -9.6183478247514635e+04  1.3762473418689400e+05  1.0757279312549322e+05  -5.4180276740112451e+04  2.1481452268563569e+05  -5.9428560808119702e+05  8.5310701155140041e+05  -4.1470108770431153e+05  -2.2478704816629441e+05  -2.2084905725632102e+05  -7.9648153105717548e+05  -2.6990407768216560e+05  -6.5834821460419893e+05  -3.7160911690082488e+05  -4.4650378153497161e+05  8.5368860661381957e+04  1.7923957822558928e+04  -2.4983131733091362e+05  -2.1799565043771794e+05  -1.1607728025721984e+05  -8.8816458539219297e+04  9.0319769493391586e+05  -4.3711257341952441e+05  2.3478709402477136e+05  8.3023757200457319e+05  6.5574850011685549e+05  -4.8738432064333587e+05  -1.1574139184773380e+06  -5.9596731711529056e+05  3.1949614320005712e+04  7.5211014242577759e+04  2.8588786303995294e+05  1.0536016876799255e+05  -1.6215573464607639e+05  3.3882682741307351e+05  4.0913355716606969e+05  -8.6584498789337371e+05  -1.3144903039288794e+05  -2.2175541363689007e+05  -2.4041855624392992e+04  -9.9334599100057749e+04  -1.7856348187916327e+05  3.3111100420775503e+04  -1.1767433889871560e+04  -1.0074866376817418e+05  8.3924786910804803e+05  2.4542443457872934e+04  -1.0591346259851921e+05  1.7264884044048475e+05  1.7266749894829968e+05  4.0431848239864846e+05  -9.6243371376452105e+03  -5.7941755965247971e+05  7.6164063518135983e+05  -5.5584043116607517e+05  6.6553583781309309e+04  -4.2491051293056901e+05  -3.7293407737343141e+05  -3.6186207722132305e+04  -9.3141814123319229e+05  -7.3468015941122512e+05  -3.9971357358488132e+05  -1.6134838488604117e+06  -1.1569484454162773e+06  6.7283214047118218e+05  4.8144297631372733e+05  -4.4787384347095381e+05  5.9903891069717880e+05  3.3521368908659315e+04  4.2086688846375106e+05  7.9576317481312715e+05  1.2784628583743835e+06  4.9722258148865617e+05  3.2118567423075531e+05  6.8459412765669206e+05  4.9663770939553779e+05  -1.1221382089866251e+05  4.5217194284566469e+05  -1.4467472397243569e+05  7.7535525025087809e+03  -8.4313271852162771e+05  -7.2671946639436675e+04  4.3941467393004999e+05  -2.0372865359556521e+05  -7.4377170503853908e+04  -4.5275985887382191e+05  5.3097907916895219e+05  -5.8419315975842159e+05  9.9086879070886978e+04  -9.3535124300299457e+05  -9.7180894975359406e+04  -2.4413764921322855e+05  1.6749153539629618e+06  2.4550051585273727e+05  -6.9750745347086922e+05  -3.8689033120224968e+05  5.5941916754575621e+05  -2.4817885027702490e+05  1.4994175925683491e+06  -4.0226017925112355e+04  -2.2164743199244599e+05  5.8304444869126414e+05  -2.4131664680230099e+05  -8.7146957381285634e+05  2.0639987366013107e+05  2.9805328632643545e+05  1.6546167667997404e+05  1.4185736405035298e+05  -9.1858573873061196e+03  1.2195692889262352e+06  4.7576723969102511e+05  4.4259247816756845e+05  7.3554291673550813e+05  -1.6912266870403337e+03  3.3724322710638377e+05  5.6696302998276986e+05  -1.2926787827430760e+05  -1.9325186522706324e+05  2.2316992359069648e+05  8.7709224825585858e+04  -1.1116746356525198e+05  -3.6928485117275304e+04  -1.8504527408407381e+05  -1.4851538238358538e+04  -2.0668490956509082e+04  -8.5789346417803274e+04  -7.2318033578233537e+05  -2.0587438358880466e+05  -2.3026450734383857e+05  -5.5411269208747544e+05  2.0361860976998293e+05  7.3769262037808041e+05  -8.8882220971573191e+05  -4.1646912922395341e+05  -3.2912771006299340e+05  1.1001363618655186e+06  -1.0830787511328375e+06  -6.5475355125952658e+04  -3.5191399742628139e+05  4.2296530627851182e+05  -1.6489232283829006e+06  -1.0017465518768720e+06  -6.2499223278451141e+05  -1.4159065760699133e+05  4.2170768581545469e+05  3.3457718342103576e+05  4.9340960068242921e+05  -4.0275496996149141e+05  1.0400212869417220e+06  2.3491181774949763e+05  -2.0527539567996230e+05  4.1543145427615667e+05  1.4655859946152025e+06  1.6306552702501917e+06  1.0024017987278501e+06  2.8044619300082879e+05  2.0868601393593228e+05  5.4178896367143060e+05  2.3049708556764890e+05  1.0111701518965754e+05  -3.6123519842852483e+05  -5.3597243956150068e+05  -2.0051210814870591e+05  2.0976820757557926e+05  -3.5260361069105304e+05  -3.6148035882096388e+04  -4.9904618227984430e+05  6.4821291805841622e+05  2.6264865569746459e+05  5.9765521720403899e+05  -2.1010580650127837e+06  -3.6139207782931003e+05  4.9606639345505612e+05  9.5915537919945444e+05  -1.4853170811581094e+05  -1.0699299859341711e+06  5.6879841653245545e+04  -6.1681634322079844e+04  5.3798299383206444e+05  2.0626864870415411e+06  3.3829164091652964e+05  3.2509064313391777e+05  6.9495617118169810e+05  -5.1538475786765193e+05  4.1266679299617762e+05  5.0503240622580379e+03  -7.7829251474637003e+05  -3.5700900319632282e+05  -7.1555300608072244e+05  3.8283865790172922e+05  1.2867037168694293e+05  -4.6814895182606902e+04  5.7734492221263458e+05  -4.3528595416547774e+04  4.0393348979410285e+05  -9.8542670500159534e+02  -1.9017246573756033e+05  -2.0238636487885917e+05  -4.4535620577996020e+05  2.6769403045862768e+05  2.8317811642140692e+04  3.3035224353679470e+04  -1.8208692047929336e+05  -1.9163748723802733e+05  -3.7395527665961425e+04  5.0695793861656661e+04  -7.5839675431506432e+04  -2.7825999688337044e+04  1.7498515784294999e+04  6.5350706823625289e+04  -2.4101859836320352e+05  2.9388805311468292e+04  -1.8703578770556257e+05  -4.2979533840185657e+04  -1.9282483596335235e+05  3.8494138701957581e+05  -4.0946064714322751e+05  3.8539773057626421e+05  -5.0641279928593442e+05  -3.5237184055745661e+02  -7.4324451858121646e+05  -3.4644889010169412e+04  -3.2683536481834017e+05  -5.6734920535790629e+05  5.2541893837912916e+05  2.0805429186905656e+05  5.1605418470238656e+05  -2.6877669029122021e+05  -5.8278321486968198e+05  -6.2663642859548061e+04  1.6652301627678153e+05  -1.4194231409384002e+05  8.6759495108889372e+04  2.2925409131445317e+05  -6.5629445553137222e+05  9.2332713135049649e+04  -4.4177687548858696e+05  2.9531957064923260e+05  -2.5797902136026588e+05  2.4223744600742817e+05  -2.8310299912450986e+05  -4.1861699976705080e+04  -2.1659827099357356e+05  -3.0133167920025636e+05  -2.4331113787635736e+05  3.1439373710625130e+05  -1.3090077667512529e+05  2.4108394841123046e+05  1.6930103458858730e+05  2.4247842197007343e+04  -6.7003160703936228e+04  -2.4834937980518999e+05  -2.5194909562008653e+05  -1.1217154861677407e+05  1.5319455809802959e+04  -2.6035827464604157e+04  3.2566692460953607e+05  -4.1147266820635981e+04  3.5490177788328065e+05  4.9362448541728192e+05  8.5476286413849727e+05  2.9397269829730736e+04  -1.5124334449787007e+05  7.5354686542999023e+05  -7.6042985082453612e+04  5.7014583203555434e+05  -1.6203962083339718e+04  2.1810518554846680e+05  -2.2090660782172493e+05  1.8221683903216515e+05  1.0871350088240522e+05  -2.9680327686657209e+05  2.1684061246674915e+04  -1.8597396626636788e+05  -1.2236055658656229e+05  -2.3848975603248048e+05  1.2089299496037682e+05  1.0898566311193927e+05  -2.6431915030488680e+05  -4.3822429982534682e+04  -2.0927922426722679e+05  -6.1620814684196848e+04  7.0024511529108990e+04  -1.1253774425645827e+03  4.3025321818259799e+04  5.3003506837956984e+03  4.6653013988483413e+04  -4.8647308882993931e+05  -5.9699549114591442e+05  2.1505525729422274e+05  -3.2937688351608586e+05  -1.4316293758614033e+06  3.3144877216978144e+05  -3.3233090671961114e+05  -1.2153044661893989e+06  -2.8218525786693423e+05  -1.9388906527957981e+06  1.7543433234254885e+06  -3.1180350502130589e+06  7.0415149003936141e+05  1.4350246557148272e+05  -1.5754295235278234e+06  -1.3676959430489780e+06  -1.6871413845360249e+06  -2.2420569319732245e+06  -2.5165961482897522e+06  -7.3495579692734149e+05  -5.0291213973824587e+05  -2.9716568964215927e+06  1.6957398958596599e+06  -2.4161901035392098e+06  -4.7890778844073327e+05  1.1969253992312760e+06  6.6132393542488851e+05  -6.3700675085904810e+05  3.7044196125562652e+05  4.4775403130797110e+05  1.7812499995058848e+05  3.3793887979842792e+05  1.3992317043413701e+06  -1.6427530457100982e+06  -4.8297468387567578e+05  1.9980244021971984e+05  -4.5710862433350994e+05  -6.1787440143900400e+05  2.0175316017014662e+04  -7.2795043932714290e+05  -2.3208561385541083e+05  -1.9261566824603931e+05  5.9126510281035153e+05  2.5287810936718439e+06  2.0944361908990587e+06  -1.6363379955527803e+06  -3.4741502716524042e+06  -2.0533099189211400e+06  -3.4231019472338451e+05  6.2031475881606231e+04  -2.1715716394953380e+05  2.8957472382939432e+05  1.4152478250913054e+06  2.8672533313001809e+05  -1.5212272926487165e+05  -6.7286866206276929e+05  -3.2190729171724175e+05  -1.7589277008734143e+05  1.1433243937330424e+05  -8.8557929985681351e+05  2.7431831715180655e+05  1.6651772124703794e+06  6.9294826125841995e+05  6.7649594361940899e+05  6.5264283901351574e+05  3.0571319254171796e+05  2.3494046070214706e+06  9.6176788243435531e+03  -9.1271358666207886e+05  -1.8817143684442804e+05  6.3390855903209466e+05  4.3102892104811064e+04  1.9532224424213797e+05  -5.1541578902138507e+00  -1.0891427302201570e+05  8.4510823032045533e+04  8.0221417367839837e+04  1.9439924558550083e+04  -2.1636210390738939e+05  -1.9998318237932984e+05  -4.6725513303782104e+05  -5.8164142956259463e+05  5.