<?xml version="1.0"?>
<VTKFile type="UnstructuredGrid"  version="0.1"  >
<UnstructuredGrid>
<Piece  NumberOfPoints="1369" NumberOfCells="2560">
<Points>
<DataArray  type="Float64"  NumberOfComponents="3"  format="ascii">0 0 0  0.75 0 0  1.5 0 0  2.25 0 0  3 0 0  3.75 0 0  4.5 0 0  5.25 0 0  6 0 0  6.75 0 0  7.5 0 0  8.25 0 0  9 0 0  9.75 0 0  10.5 0 0  11.25 0 0  12 0 0  12.75 0 0  13.5 0 0  14.25 0 0  15 0 0  15.75 0 0  16.5 0 0  17.25 0 0  18 0 0  18.75 0 0  19.5 0 0  20.25 0 0  21 0 0  21.75 0 0  22.5 0 0  23.25 0 0  24 0 0  24.75 0 0  25.5 0 0  26.25 0 0  27 0 0  27.75 0 0  28.5 0 0  29.25 0 0  30 0 0  30.75 0 0  31.5 0 0  32.25 0 0  33 0 0  33.75 0 0  34.5 0 0  35.25 0 0  36 0 0  36.75 0 0  37.5 0 0  38.25 0 0  39 0 0  39.75 0 0  40.5 0 0  41.25 0 0  42 0 0  42.75 0 0  43.5 0 0  44.25 0 0  45 0 0  45.75 0 0  46.5 0 0  47.25 0 0  48 0 0  48.75 0 0  49.5 0 0  50.25 0 0  51 0 0  51.75 0 0  52.5 0 0  53.25 0 0  54 0 0  54.75 0 0  55.5 0 0  56.25 0 0  57 0 0  57.75 0 0  58.5 0 0  59.25 0 0  60 0 0  0 0.5 0  0.75 0.5 0  1.5 0.5 0  2.25 0.5 0  3 0.5 0  3.75 0.5 0  4.5 0.5 0  5.25 0.5 0  6 0.5 0  6.75 0.5 0  7.5 0.5 0  8.25 0.5 0  9 0.5 0  9.75 0.5 0  10.5 0.5 0  11.25 0.5 0  12 0.5 0  12.75 0.5 0  13.5 0.5 0  14.25 0.5 0  15 0.5 0  15.75 0.5 0  16.5 0.5 0  17.25 0.5 0  18 0.5 0  18.75 0.5 0  19.5 0.5 0  20.25 0.5 0  21 0.5 0  21.75 0.5 0  22.5 0.5 0  23.25 0.5 0  24 0.5 0  24.75 0.5 0  25.5 0.5 0  26.25 0.5 0  27 0.5 0  27.75 0.5 0  28.5 0.5 0  29.25 0.5 0  30 0.5 0  30.75 0.5 0  31.5 0.5 0  32.25 0.5 0  33 0.5 0  33.75 0.5 0  34.5 0.5 0  35.25 0.5 0  36 0.5 0  36.75 0.5 0  37.5 0.5 0  38.25 0.5 0  39 0.5 0  39.75 0.5 0  40.5 0.5 0  41.25 0.5 0  42 0.5 0  42.75 0.5 0  43.5 0.5 0  44.25 0.5 0  45 0.5 0  45.75 0.5 0  46.5 0.5 0  47.25 0.5 0  48 0.5 0  48.75 0.5 0  49.5 0.5 0  50.25 0.5 0  51 0.5 0  51.75 0.5 0  52.5 0.5 0  53.25 0.5 0  54 0.5 0  54.75 0.5 0  55.5 0.5 0  56.25 0.5 0  57 0.5 0  57.75 0.5 0  58.5 0.5 0  59.25 0.5 0  60 0.5 0  0 1 0  0.75 1 0  1.5 1 0  2.25 1 0  3 1 0  3.75 1 0  4.5 1 0  5.25 1 0  6 1 0  6.75 1 0  7.5 1 0  8.25 1 0  9 1 0  9.75 1 0  10.5 1 0  11.25 1 0  12 1 0  12.75 1 0  13.5 1 0  14.25 1 0  15 1 0  15.75 1 0  16.5 1 0  17.25 1 0  18 1 0  18.75 1 0  19.5 1 0  20.25 1 0  21 1 0  21.75 1 0  22.5 1 0  23.25 1 0  24 1 0  24.75 1 0  25.5 1 0  26.25 1 0  27 1 0  27.75 1 0  28.5 1 0  29.25 1 0  30 1 0  30.75 1 0  31.5 1 0  32.25 1 0  33 1 0  33.75 1 0  34.5 1 0  35.25 1 0  36 1 0  36.75 1 0  37.5 1 0  38.25 1 0  39 1 0  39.75 1 0  40.5 1 0  41.25 1 0  42 1 0  42.75 1 0  43.5 1 0  44.25 1 0  45 1 0  45.75 1 0  46.5 1 0  47.25 1 0  48 1 0  48.75 1 0  49.5 1 0  50.25 1 0  51 1 0  51.75 1 0  52.5 1 0  53.25 1 0  54 1 0  54.75 1 0  55.5 1 0  56.25 1 0  57 1 0  57.75 1 0  58.5 1 0  59.25 1 0  60 1 0  0 1.5 0  0.75 1.5 0  1.5 1.5 0  2.25 1.5 0  3 1.5 0  3.75 1.5 0  4.5 1.5 0  5.25 1.5 0  6 1.5 0  6.75 1.5 0  7.5 1.5 0  8.25 1.5 0  9 1.5 0  9.75 1.5 0  10.5 1.5 0  11.25 1.5 0  12 1.5 0  12.75 1.5 0  13.5 1.5 0  14.25 1.5 0  15 1.5 0  15.75 1.5 0  16.5 1.5 0  17.25 1.5 0  18 1.5 0  18.75 1.5 0  19.5 1.5 0  20.25 1.5 0  21 1.5 0  21.75 1.5 0  22.5 1.5 0  23.25 1.5 0  24 1.5 0  24.75 1.5 0  25.5 1.5 0  26.25 1.5 0  27 1.5 0  27.75 1.5 0  28.5 1.5 0  29.25 1.5 0  30 1.5 0  30.75 1.5 0  31.5 1.5 0  32.25 1.5 0  33 1.5 0  33.75 1.5 0  34.5 1.5 0  35.25 1.5 0  36 1.5 0  36.75 1.5 0  37.5 1.5 0  38.25 1.5 0  39 1.5 0  39.75 1.5 0  40.5 1.5 0  41.25 1.5 0  42 1.5 0  42.75 1.5 0  43.5 1.5 0  44.25 1.5 0  45 1.5 0  45.75 1.5 0  46.5 1.5 0  47.25 1.5 0  48 1.5 0  48.75 1.5 0  49.5 1.5 0  50.25 1.5 0  51 1.5 0  51.75 1.5 0  52.5 1.5 0  53.25 1.5 0  54 1.5 0  54.75 1.5 0  55.5 1.5 0  56.25 1.5 0  57 1.5 0  57.75 1.5 0  58.5 1.5 0  59.25 1.5 0  60 1.5 0  0 2 0  0.75 2 0  1.5 2 0  2.25 2 0  3 2 0  3.75 2 0  4.5 2 0  5.25 2 0  6 2 0  6.75 2 0  7.5 2 0  8.25 2 0  9 2 0  9.75 2 0  10.5 2 0  11.25 2 0  12 2 0  12.75 2 0  13.5 2 0  14.25 2 0  15 2 0  15.75 2 0  16.5 2 0  17.25 2 0  18 2 0  18.75 2 0  19.5 2 0  20.25 2 0  21 2 0  21.75 2 0  22.5 2 0  23.25 2 0  24 2 0  24.75 2 0  25.5 2 0  26.25 2 0  27 2 0  27.75 2 0  28.5 2 0  29.25 2 0  30 2 0  30.75 2 0  31.5 2 0  32.25 2 0  33 2 0  33.75 2 0  34.5 2 0  35.25 2 0  36 2 0  36.75 2 0  37.5 2 0  38.25 2 0  39 2 0  39.75 2 0  40.5 2 0  41.25 2 0  42 2 0  42.75 2 0  43.5 2 0  44.25 2 0  45 2 0  45.75 2 0  46.5 2 0  47.25 2 0  48 2 0  48.75 2 0  49.5 2 0  50.25 2 0  51 2 0  51.75 2 0  52.5 2 0  53.25 2 0  54 2 0  54.75 2 0  55.5 2 0  56.25 2 0  57 2 0  57.75 2 0  58.5 2 0  59.25 2 0  60 2 0  0 2.5 0  0.75 2.5 0  1.5 2.5 0  2.25 2.5 0  3 2.5 0  3.75 2.5 0  4.5 2.5 0  5.25 2.5 0  6 2.5 0  6.75 2.5 0  7.5 2.5 0  8.25 2.5 0  9 2.5 0  9.75 2.5 0  10.5 2.5 0  11.25 2.5 0  12 2.5 0  12.75 2.5 0  13.5 2.5 0  14.25 2.5 0  15 2.5 0  15.75 2.5 0  16.5 2.5 0  17.25 2.5 0  18 2.5 0  18.75 2.5 0  19.5 2.5 0  20.25 2.5 0  21 2.5 0  21.75 2.5 0  22.5 2.5 0  23.25 2.5 0  24 2.5 0  24.75 2.5 0  25.5 2.5 0  26.25 2.5 0  27 2.5 0  27.75 2.5 0  28.5 2.5 0  29.25 2.5 0  30 2.5 0  30.75 2.5 0  31.5 2.5 0  32.25 2.5 0  33 2.5 0  33.75 2.5 0  34.5 2.5 0  35.25 2.5 0  36 2.5 0  36.75 2.5 0  37.5 2.5 0  38.25 2.5 0  39 2.5 0  39.75 2.5 0  40.5 2.5 0  41.25 2.5 0  42 2.5 0  42.75 2.5 0  43.5 2.5 0  44.25 2.5 0  45 2.5 0  45.75 2.5 0  46.5 2.5 0  47.25 2.5 0  48 2.5 0  48.75 2.5 0  49.5 2.5 0  50.25 2.5 0  51 2.5 0  51.75 2.5 0  52.5 2.5 0  53.25 2.5 0  54 2.5 0  54.75 2.5 0  55.5 2.5 0  56.25 2.5 0  57 2.5 0  57.75 2.5 0  58.5 2.5 0  59.25 2.5 0  60 2.5 0  0 3 0  0.75 3 0  1.5 3 0  2.25 3 0  3 3 0  3.75 3 0  4.5 3 0  5.25 3 0  6 3 0  6.75 3 0  7.5 3 0  8.25 3 0  9 3 0  9.75 3 0  10.5 3 0  11.25 3 0  12 3 0  12.75 3 0  13.5 3 0  14.25 3 0  15 3 0  15.75 3 0  16.5 3 0  17.25 3 0  18 3 0  18.75 3 0  19.5 3 0  20.25 3 0  21 3 0  21.75 3 0  22.5 3 0  23.25 3 0  24 3 0  24.75 3 0  25.5 3 0  26.25 3 0  27 3 0  27.75 3 0  28.5 3 0  29.25 3 0  30 3 0  30.75 3 0  31.5 3 0  32.25 3 0  33 3 0  33.75 3 0  34.5 3 0  35.25 3 0  36 3 0  36.75 3 0  37.5 3 0  38.25 3 0  39 3 0  39.75 3 0  40.5 3 0  41.25 3 0  42 3 0  42.75 3 0  43.5 3 0  44.25 3 0  45 3 0  45.75 3 0  46.5 3 0  47.25 3 0  48 3 0  48.75 3 0  49.5 3 0  50.25 3 0  51 3 0  51.75 3 0  52.5 3 0  53.25 3 0  54 3 0  54.75 3 0  55.5 3 0  56.25 3 0  57 3 0  57.75 3 0  58.5 3 0  59.25 3 0  60 3 0  0 3.5 0  0.75 3.5 0  1.5 3.5 0  2.25 3.5 0  3 3.5 0  3.75 3.5 0  4.5 3.5 0  5.25 3.5 0  6 3.5 0  6.75 3.5 0  7.5 3.5 0  8.25 3.5 0  9 3.5 0  9.75 3.5 0  10.5 3.5 0  11.25 3.5 0  12 3.5 0  12.75 3.5 0  13.5 3.5 0  14.25 3.5 0  15 3.5 0  15.75 3.5 0  16.5 3.5 0  17.25 3.5 0  18 3.5 0  18.75 3.5 0  19.5 3.5 0  20.25 3.5 0  21 3.5 0  21.75 3.5 0  22.5 3.5 0  23.25 3.5 0  24 3.5 0  24.75 3.5 0  25.5 3.5 0  26.25 3.5 0  27 3.5 0  27.75 3.5 0  28.5 3.5 0  29.25 3.5 0  30 3.5 0  30.75 3.5 0  31.5 3.5 0  32.25 3.5 0  33 3.5 0  33.75 3.5 0  34.5 3.5 0  35.25 3.5 0  36 3.5 0  36.75 3.5 0  37.5 3.5 0  38.25 3.5 0  39 3.5 0  39.75 3.5 0  40.5 3.5 0  41.25 3.5 0  42 3.5 0  42.75 3.5 0  43.5 3.5 0  44.25 3.5 0  45 3.5 0  45.75 3.5 0  46.5 3.5 0  47.25 3.5 0  48 3.5 0  48.75 3.5 0  49.5 3.5 0  50.25 3.5 0  51 3.5 0  51.75 3.5 0  52.5 3.5 0  53.25 3.5 0  54 3.5 0  54.75 3.5 0  55.5 3.5 0  56.25 3.5 0  57 3.5 0  57.75 3.5 0  58.5 3.5 0  59.25 3.5 0  60 3.5 0  0 4 0  0.75 4 0  1.5 4 0  2.25 4 0  3 4 0  3.75 4 0  4.5 4 0  5.25 4 0  6 4 0  6.75 4 0  7.5 4 0  8.25 4 0  9 4 0  9.75 4 0  10.5 4 0  11.25 4 0  12 4 0  12.75 4 0  13.5 4 0  14.25 4 0  15 4 0  15.75 4 0  16.5 4 0  17.25 4 0  18 4 0  18.75 4 0  19.5 4 0  20.25 4 0  21 4 0  21.75 4 0  22.5 4 0  23.25 4 0  24 4 0  24.75 4 0  25.5 4 0  26.25 4 0  27 4 0  27.75 4 0  28.5 4 0  29.25 4 0  30 4 0  30.75 4 0  31.5 4 0  32.25 4 0  33 4 0  33.75 4 0  34.5 4 0  35.25 4 0  36 4 0  36.75 4 0  37.5 4 0  38.25 4 0  39 4 0  39.75 4 0  40.5 4 0  41.25 4 0  42 4 0  42.75 4 0  43.5 4 0  44.25 4 0  45 4 0  45.75 4 0  46.5 4 0  47.25 4 0  48 4 0  48.75 4 0  49.5 4 0  50.25 4 0  51 4 0  51.75 4 0  52.5 4 0  53.25 4 0  54 4 0  54.75 4 0  55.5 4 0  56.25 4 0  57 4 0  57.75 4 0  58.5 4 0  59.25 4 0  60 4 0  0.375 0.25 0  1.125 0.25 0  1.875 0.25 0  2.625 0.25 0  3.375 0.25 0  4.125 0.25 0  4.875 0.25 0  5.625 0.25 0  6.375 0.25 0  7.125 0.25 0  7.875 0.25 0  8.625 0.25 0  9.375 0.25 0  10.125 0.25 0  10.875 0.25 0  11.625 0.25 0  12.375 0.25 0  13.125 0.25 0  13.875 0.25 0  14.625 0.25 0  15.375 0.25 0  16.125 0.25 0  16.875 0.25 0  17.625 0.25 0  18.375 0.25 0  19.125 0.25 0  19.875 0.25 0  20.625 0.25 0  21.375 0.25 0  22.125 0.25 0  22.875 0.25 0  23.625 0.25 0  24.375 0.25 0  25.125 0.25 0  25.875 0.25 0  26.625 0.25 0  27.375 0.25 0  28.125 0.25 0  28.875 0.25 0  29.625 0.25 0  30.375 0.25 0  31.125 0.25 0  31.875 0.25 0  32.625 0.25 0  33.375 0.25 0  34.125 0.25 0  34.875 0.25 0  35.625 0.25 0  36.375 0.25 0  37.125 0.25 0  37.875 0.25 0  38.625 0.25 0  39.375 0.25 0  40.125 0.25 0  40.875 0.25 0  41.625 0.25 0  42.375 0.25 0  43.125 0.25 0  43.875 0.25 0  44.625 0.25 0  45.375 0.25 0  46.125 0.25 0  46.875 0.25 0  47.625 0.25 0  48.375 0.25 0  49.125 0.25 0  49.875 0.25 0  50.625 0.25 0  51.375 0.25 0  52.125 0.25 0  52.875 0.25 0  53.625 0.25 0  54.375 0.25 0  55.125 0.25 0  55.875 0.25 0  56.625 0.25 0  57.375 0.25 0  58.125 0.25 0  58.875 0.25 0  59.625 0.25 0  0.375 0.75 0  1.125 0.75 0  1.875 0.75 0  2.625 0.75 0  3.375 0.75 0  4.125 0.75 0  4.875 0.75 0  5.625 0.75 0  6.375 0.75 0  7.125 0.75 0  7.875 0.75 0  8.625 0.75 0  9.375 0.75 0  10.125 0.75 0  10.875 0.75 0  11.625 0.75 0  12.375 0.75 0  13.125 0.75 0  13.875 0.75 0  14.625 0.75 0  15.375 0.75 0  16.125 0.75 0  16.875 0.75 0  17.625 0.75 0  18.375 0.75 0  19.125 0.75 0  19.875 0.75 0  20.625 0.75 0  21.375 0.75 0  22.125 0.75 0  22.875 0.75 0  23.625 0.75 0  24.375 0.75 0  25.125 0.75 0  25.875 0.75 0  26.625 0.75 0  27.375 0.75 0  28.125 0.75 0  28.875 0.75 0  29.625 0.75 0  30.375 0.75 0  31.125 0.75 0  31.875 0.75 0  32.625 0.75 0  33.375 0.75 0  34.125 0.75 0  34.875 0.75 0  35.625 0.75 0  36.375 0.75 0  37.125 0.75 0  37.875 0.75 0  38.625 0.75 0  39.375 0.75 0  40.125 0.75 0  40
[...]
<PointData  Scalars="f_8-1"> 
<DataArray  type="Float64"  Name="f_8-1"  format="ascii">-1.8438293878807570e+05  -1.3715885363661329e+05  -1.0469014683335973e+06  -7.1952073988100266e+04  4.4743821889462772e+04  -4.8693864271766099e+04  -3.8898916091382864e+05  -4.4050483291287656e+05  -7.5916566707931552e+05  3.0767544406353845e+04  -1.0940402082072351e+04  -5.8934010213420889e+05  -7.8262177444385607e+03  -1.2450874708907008e+05  9.5737886730938312e+05  8.5475034009841911e+05  -1.0782548031696254e+05  9.5136548535356519e+05  4.2121743569536792e+05  7.9201239941805869e+05  -1.8668546852153814e+06  1.9959797102308582e+05  -2.1885192201417213e+05  -7.9455932226338002e+04  6.4480145706576563e+05  -2.8170348108537637e+04  -4.2138403096308192e+05  -9.6669532743399858e+05  -3.5843754687603365e+05  -3.9061429038836207e+05  1.9173915209648106e+06  -6.1192453927898360e+05  -3.0786164086672519e+06  4.8247238578594336e+06  3.8955236955645271e+06  1.5506932749666437e+06  -1.7056955303118706e+06  6.2154352962964319e+05  -2.2720110863937163e+06  -1.9202318861157505e+06  -1.1963629620947344e+06  7.7163940841744930e+04  -4.9022673809868499e+05  -8.1680907265557582e+05  -2.6542773595981766e+06  -3.2052119803649057e+06  1.8534180147447279e+06  -2.1848264967456823e+06  8.4250811703286564e+05  -1.0416848720236847e+06  3.9489659899475439e+06  4.0835818644332461e+05  5.5476913582499186e+05  5.7156010144219571e+05  -3.9121179610580713e+06  -3.8506037295403304e+06  -3.8668452909634090e+06  -2.4864670178930862e+06  -2.2589249830001593e+05  -1.4834513767264723e+06  -1.2773191280580538e+06  4.5913600627936125e+06  3.4640070873340585e+04  7.8721363199424772e+06  1.3613599601548680e+05  -2.1090718751639640e+06  -6.2775814779314981e+05  1.6167815372059171e+05  5.7798193285275207e+04  1.1954427262435814e+05  5.0603661772370187e+05  7.9957714998212820e+06  -7.1427670542930672e+05  1.1704054709636939e+06  -2.4944486868717349e+06  -5.7216557690122968e+05  5.9328974992773659e+05  -1.4866959768689850e+06  -1.5654346831246284e+06  -2.6534432345619914e+06  -1.2701115389858612e+06  1.5320701153169954e+05  -5.2537343719321734e+05  -3.2388870316537947e+05  -3.5926457096962194e+05  -6.6962620202197024e+04  -1.2594514293611560e+05  -3.0911281503419037e+05  -5.5325812686092174e+05  -4.2120762384013500e+05  -2.8931292269835650e+05  -1.3664266268602601e+05  -6.9518458723437495e+05  4.4700656285012228e+05  2.0121137762924249e+05  6.5912923781755997e+05  8.6234383826199884e+05  6.6038548757981299e+05  4.9834953972637834e+05  1.2712217944457314e+06  -3.1504926856784907e+04  2.4324565705165459e+05  -1.5602479175455684e+06  2.2864925770747234e+05  -2.7290648343175009e+05  -2.6509548493313376e+05  4.4302644867471798e+05  -4.0185873884215485e+05  -2.0166812028059561e+06  2.2186290071946362e+05  -3.2070568217693298e+05  1.5678019115599098e+06  6.1890552489569830e+05  -1.5497966704542998e+06  1.2612114372182239e+06  2.6860645018567983e+06  -1.4019357606963196e+05  -1.9206473402992468e+06  -1.6164304611363146e+06  -5.1274766619320046e+06  3.0508897218035319e+05  -2.5171754847558864e+05  -1.4537741701083723e+06  -2.8402676655622018e+06  6.2698184528940974e+05  -2.2266960002302499e+06  -1.1596716624778695e+06  -4.3616119940465601e+05  7.7889711626594508e+04  -2.4155113876317623e+06  9.9270403580924659e+05  2.2579325443931195e+05  1.2950351866337871e+06  -4.7314733513369793e+06  -3.3844013841232918e+06  -3.1767016807419490e+06  -2.6208217207309701e+06  -1.2292797437139556e+06  -3.4144176016284209e+06  -4.0393831426791684e+06  -3.4299775210273038e+06  -1.6555720234222457e+05  -7.7434961260167668e+06  6.7378639947343878e+06  1.8712479951859508e+06  4.0454343345776905e+05  -2.3357069980307738e+06  -1.3799295334143217e+06  -1.9495376773838638e+06  3.1572138056836813e+05  -6.2167585679941280e+06  1.9590423521610554e+06  2.0988332825144241e+06  3.2580836018029442e+06  -1.9244560196461254e+06  -8.5861677740942233e+05  -1.7905007657097382e+06  2.5705329183964562e+05  -1.4120213029626459e+06  -1.0307563431756486e+06  -6.2247654522226621e+04  -1.1236997366791172e+06  -3.0247451846033004e+04  -2.2137316235261291e+05  7.4163375956599237e+04  -3.8590078096746071e+05  -3.8677595879739866e+05  -5.2018352172891685e+05  -1.9041246415596537e+05  -3.0268730519294942e+05  -4.0055598724908225e+05  -2.8929209232308122e+05  6.7925060429456862e+04  4.4205341046495916e+05  -3.0537972522726144e+04  3.2070986434859363e+05  1.5158189629021121e+05  1.0359524284204273e+05  3.0391097144461953e+05  2.8785413304049807e+05  -5.9463833973258894e+04  -9.6047118325524591e+05  -1.1986753630464109e+05  -7.1250349389287387e+05  -5.1794558138842630e+05  1.0158333089484224e+06  -8.2758024641638622e+05  1.2049792957958630e+06  3.4016077540964220e+05  -1.4745913819416640e+06  -2.1501637705360239e+05  -4.0627988007408613e+05  3.7460084814963228e+05  -1.5937849862525607e+06  -1.4126008783441089e+05  -1.1988032214806215e+06  1.1746386751455541e+06  3.2314238758768657e+04  1.1375686973949815e+06  -1.3609056876187613e+06  -3.1857276183776348e+06  2.6853380903076259e+06  -9.3794783199198500e+04  -1.4504962474736960e+06  -3.0241260304971895e+05  -4.8790460552088777e+06  -2.9300148215033673e+06  -1.8044134044978877e+06  -8.5671372369181452e+04  -1.1775378418929765e+06  1.9338447703706112e+06  1.9188529440619476e+05  7.8412977124899556e+05  6.0812661579757500e+04  -1.6868739168786381e+06  -2.3223972069064891e+06  -3.7114599925128822e+06  -2.5078254481516667e+06  -2.5328152150036703e+05  -2.1198875642418442e+06  -2.7871576673392444e+06  -4.0474219156775705e+05  -4.3038739993099282e+06  -8.5668162786993256e+05  -7.2935472365084162e+05  2.9647202555470122e+06  4.8367647106339531e+06  -5.2814923027129553e+05  -9.1916019270122121e+05  -2.3287911730795302e+06  -1.2594155464622497e+06  -2.1066701109208628e+06  -4.4928119938549018e+06  3.1704854951913492e+05  -1.1282584959396900e+05  -2.1279977091121040e+06  4.4950265839569690e+05  -7.3285216394303110e+05  -1.4186649720977822e+06  -5.7879873657863063e+05  -8.1225087580193765e+05  -2.8184739276509290e+06  6.7317012971213844e+05  -1.2727512691858983e+05  -6.0841550443625322e+05  -9.7402353212356832e+02  -4.0338870806996577e+05  -8.8411849167913635e+04  -8.5615084908980608e+05  -1.8053221860109142e+05  7.4129314810581403e+04  -2.2414605930803058e+05  2.1646930062586127e+05  1.4167275716474364e+05  1.8446568526200877e+05  1.9583130612711006e+05  -2.1331272980022503e+05  4.3996311787717615e+05  2.3387171615767124e+05  1.4054271301104108e+05  6.3832929765742773e+05  7.3332737616017216e+05  1.3647821287098061e+05  3.5068437668391562e+05  -2.3894497901155357e+05  -1.0985863051774926e+06  -1.7760535606714684e+05  -7.3469822400274104e+05  1.2193518623841587e+06  2.1169707616487737e+06  1.7284765828827652e+06  5.3704865759197006e+05  8.6606586351542705e+04  -9.0300399321928096e+05  -2.1142624732925874e+05  -3.7279870021583379e+05  -9.8028746016220277e+04  7.5272692889650387e+05  5.4817417393478542e+05  -1.5696351572782738e+05  -2.4508316886869809e+05  -3.3153967413668223e+06  2.3029695071381156e+05  -2.1220676532439236e+06  6.5277819480327214e+05  2.9192902155068001e+04  -1.0488409014065003e+06  2.3018248629820873e+06  -1.0901489186218672e+06  -2.3144009614863279e+06  -2.0259936003886443e+06  -4.4599944333706507e+06  -6.0158250645559060e+05  -3.1291620709864853e+05  -7.3603442728050135e+05  -1.8893714052806254e+06  -2.5281270741958641e+06  -3.1689122860867255e+06  -2.9994776410654155e+06  -6.1381368504882022e+05  -2.9324846808358706e+06  -3.6453621022505192e+06  -3.3581281396640711e+06  -8.8315560061270301e+05  -1.8040253229224046e+06  2.2667088276163568e+06  4.9588488835735880e+06  -1.0631957483828897e+06  -2.3033505416814852e+05  -1.6536860619905421e+06  -1.5786568276626477e+06  1.4013781197837032e+06  -1.4536909823918622e+05  3.5026375362989685e+05  -7.5492895879096480e+05  1.3806950212188759e+06  -1.5539094120926613e+06  -2.4526620371619053e+05  -2.5458175809157381e+05  -2.0926368318299481e+06  -5.8332767902379984e+05  2.0304375049405629e+05  -3.3147195240400225e+05  1.1612921286177810e+06  1.2575310905124068e+04  -3.5438857225484232e+05  -5.0426267079209141e+05  -2.1344803701268730e+05  1.6135860346005461e+05  -4.7870585029038886e+05  -2.2878503006262728e+05  -4.4167989948354472e+04  -3.5157253723611665e+05  2.0849005157827970e+05  -9.2960938580808332e+04  -1.7353950710370590e+05  1.9783284214023125e+05  -1.8628024946598223e+05  -6.5365781456121236e+04  2.9866031154568882e+04  1.0821499467266493e+06  5.8781702654397883e+05  1.0220032375013737e+06  1.7649505814491201e+05  8.1911586976186978e+05  5.9920698362241703e+04  -4.0607415600505314e+05  -4.7457611847365985e+05  -2.4823998778241573e+05  -1.8890036414140253e+05  1.4138381599709950e+06  1.5999506509016980e+06  -9.2937437384180259e+05  -1.4093265771586797e+06  -2.9779110072063886e+04  -4.0902684968018823e+05  -1.9018845210599783e+06  1.2487163390352665e+06  6.0420383496620227e+05  -5.8116447285488679e+05  -1.7293045745923647e+06  -5.9224527587207244e+05  -2.6371298756896020e+06  -7.5867925396913823e+04  -1.8835137181706023e+06  4.7160526920336636e+05  -2.0416397976931717e+05  1.3349581237492382e+06  1.2889295474304748e+06  -5.0265593244914635e+05  -3.5400600700422199e+06  -5.5097093260908993e+06  1.9726552382760376e+06  -2.3347756362011353e+06  6.8267651114812924e+05  -1.3352065821369917e+06  -2.2930665632361877e+06  -1.2512160566265283e+06  -2.4331770118160602e+06  -1.1097419790663386e+06  -1.8108993606264854e+06  -2.1713323293857877e+06  -1.6158515261480024e+06  8.4330703177797550e+05  -1.1114342460179646e+06  1.0733630295745570e+06  1.9738625351826437e+06  2.3075956069212654e+06  2.6331139778358187e+06  -1.1121372931332737e+06  7.5210817025188415e+04  8.2156780252017931e+05  -1.9210414321389250e+05  -1.7254393460925268e+06  -1.0108939089225939e+06  -2.4559163035886688e+06  1.1856951143600736e+06  -1.1022214420022888e+06  -2.1253427026095185e+06  -2.4325738140564649e+06  -2.7672050514774588e+06  -1.0567788520359951e+06  -2.5199638909905693e+06  -2.0354663270519313e+05  -5.0724048253418099e+04  1.0247813562366380e+04  -5.7917901458128332e+05  -1.7312050978718567e+05  -4.1308808609924576e+05  -5.8766252146686905e+05  -2.1066669258165179e+05  -1.8443865818091959e+05  -1.0387958231259434e+05  3.0456663357396672e+04  -7.1647934165210914e+04  -8.3879035646536286e+04  1.1217364299165619e+05  -7.6414175974602718e+05  1.3394592215994393e+05  -7.8956320297733042e+05  -9.9188073198824204e+04  4.2300342478170746e+05  -1.3921591443975220e+05  6.6250479953133978e+05  4.0398097406634560e+05  5.7104523608037783e+05  -4.1093416262577765e+05  3.8353304552282199e+04  -5.9246044998967613e+05  -4.4356083151024004e+05  1.6154784453153133e+05  1.0460926288333209e+06  -5.3953567061873293e+05  -1.7617587762244332e+06  -4.3896115244252584e+05  1.1046258566845919e+06  -1.6384443381461764e+06  -1.1442367291599880e+06  -9.9858140746334486e+05  -5.7173388971463253e+05  1.2252572962183962e+06  -1.6487461536301866e+06  3.0465229365910002e+05  -1.4386503154686822e+06  -1.1863384972244094e+06  -2.2447296167890853e+06  -2.5291184011086504e+05  -6.2493661490105325e+05  5.0340639526210207e+05  -9.6318438776771573e+05  -1.4025887631569763e+06  -1.1523076828632113e+06  -2.6860676656982414e+06  -1.4337061390461368e+06  -1.2960044103805519e+05  -6.4622503504969063e+05  -2.6932286958020604e+06  2.5208343799522231e+05  -1.1633583899120647e+06  -1.3075215221804506e+06  -3.8075102413930749e+06  -2.1165610397329675e+06  -1.6519587425319389e+06  -1.1872725625714490e+06  -1.3307389675393887e+05  1.3328152687357700e+04  2.7429820406304870e+05  1.2657576911507037e+06  2.7490448135125460e+06  4.9724680805856007e+05  -5.3035877267291816e+05  -1.5714456247926485e+06  -6.1869652660120185e+05  5.8595524908010289e+05  -1.5440870853765793e+06  3.2047986590112001e+05  3.0816519367250949e+06  6.4326187203726347e+05  -1.1927730481320224e+06  -2.5685849862893415e+06  -1.5446382307037474e+06  -1.7443805623484456e+06  -1.0096892994524392e+06  -2.6154290251803198e+06  -1.0797553558242803e+06  3.4947308721807471e+05  8.1663290253831947e+04  3.9977115011084429e+05  -2.3647941598237996e+05  -2.0866294104980049e+05  1.3779231930825356e+05  -4.5873405155577947e+05  5.6138738203038711e+03  2.7524483476088124e+04  2.6432146742016597e+04  4.6328176825247874e+05  5.9628214270328148e+05  3.4082152424350550e+05  1.3817369952676396e+06  3.3263013735815231e+05  8.3282428794677008e+05  -3.6104007074154954e+05  -6.9090870969404595e+05  3.5684260476896097e+05  9.0008471651473286e+04  4.4248998514277849e+05  4.4527317157985718e+05  8.6739133476344985e+05  -1.8809613574977496e+05  6.0051809013493359e+04  -4.2844686977490125e+05  -2.2690226148340048e+05  6.6706457453388697e+05  -5.9880912425007240e+05  -6.6512573754369467e+05  -9.3024689265539899e+04  -1.1254549979256906e+06  -8.1803565184586984e+05  -1.5081561483792407e+06  2.1750013820643486e+04  1.0381251145771651e+05  5.4280156660638715e+05  -9.0166943417734103e+04  -3.3292722329138611e+04  -6.7540849787830049e+05  3.1721294011246291e+05  -5.1931554066278244e+05  6.8121714836574870e+05  1.5505876686585660e+06  -1.4597875545223390e+06  2.4342895196841488e+05  -1.7526862560388376e+06  1.1216535868889214e+06  2.4271873565528812e+06  -4.0364271121898964e+06  -1.1811254899956640e+06  -3.2346514214722859e+06  7.6533011404711450e+05  -2.9267814357887406e+05  -1.3893820800062206e+06  -4.6703281812566420e+05  -6.3860577170799731e+05  4.8902005059220923e+04  -6.8682190101603256e+05  1.6758382351209479e+06  -2.1387106592976777e+06  3.6340356667011033e+05  -1.5563316782139812e+05  4.0859620934223710e+05  1.6011320346703893e+06  1.8622851808953146e+06  7.8011116447665065e+05  9.5558291892258299e+05  6.6310182307564199e+05  -2.1149857894764005e+05  -1.3200765230002713e+06  8.4431114070717443e+05  2.1687463293438707e+06  5.4925813304197462e+05  -1.1265461785582383e+06  1.3958459226825547e+06  -8.0375760903537017e+05  7.4916746760341851e+05  -7.9826085788247979e+05  -2.7602330871273711e+05  -2.5234106224283049e+04  -3.0413807067125256e+05  1.0513257750396157e+04  -1.7039094118133740e+05  1.0778168511076689e+05  -1.1305449047637940e+05  2.7082614162538009e+05  -2.8746733300027094e+05  2.4054524118875517e+04  2.7360688664633723e+05  2.8251516307869035e+04  5.4625527642160130e+05  5.5725165070351819e+05  6.0474568048725650e+05  -2.5010823525869678e+05  6.9904380152260640e+05  -1.8794322611187509e+05  -1.1866364010800866e+06  -2.9098286033208924e+05  1.8347426892482294e+05  1.4250938117034284e+06  -1.2986044028275969e+05  5.0849864514587226e+05  7.7657155238519877e+05  -4.5902869106588652e+05  -5.1892933290656947e+04  -2.7121801970518008e+05  -4.4228352290535701e+05  1.3218796792851630e+04  -4.4056333423751179e+05  7.6279347181894293e+05  -3.9731923292526929e+05  -2.9704092987363657e+05  2.1813067511048436e+05  -2.5880533955823339e+05  -1.1459505464766223e+06  -7.7682170901907390e+04  1.3071569731597816e+05  -8.5575964206910110e+05  8.6391535565082787e+05  -8.8713810849745583e+05  -1.5533940554424806e+06  2.0264617950092216e+06  5.9271443864824518e+05  1.7128518607169199e+06  4.8984652269354410e+04  -1.0003783669437529e+06  -1.6869741556059276e+06  6.4710410787789129e+04  -5.8897485511250363e+05  2.0688447860300431e+06  -3.8694823832287226e+05  -3.0254910511152801e+05  -3.5653928576090297e+05  -6.7482044489308714e+05  -7.2213010430612171e+05  7.7897876900929445e+05  2.8649330334847450e+03  -1.6637759201927976e+04  -8.7428409683536354e+05  3.9480174522018572e+05  3.2247874891177745e+05  -9.7344245097529376e+05  -1.6804568633720354e+05  -1.5435258684682173e+06  6.1978543969840219e+05  9.1338355727764370e+05  3.2157522258571745e+05  -7.8738698353680829e+05  -2.4762301862219878e+05  4.0371986018447258e+05  3.7665289580861194e+05  7.9638799886085431e+05  -6.6447096721082029e+05  2.4000528606790132e+05  -2.0449095290083895e+06  2.4757830647688458e+05  -9.2958756894323487e+03  -8.8429051230226515e+05  1.9006664062726431e+05  -2.6544848526551353e+05  -4.2095170212121133e+05  -3.8138460635568172e+05  -2.2500757546991230e+04  5.9813980202235114e+04  -8.0229767232376093e+04  -1.2227253975805138e+05  -1.3854974671060895e+05  -3.7531512196434724e+03  9.9526637566763267e+04  9.9668225474597304e+04  5.7173641342757735e+04  3.7400774419363757e+05  1.7979532740787856e+05  -1.8941205820385228e+04  -4.1997063949628337e+05  4.2346126802674262e+04  6.5410300535817503e+05  -2.5606723144227100e+05  -4.1881508436026867e+05  2.8507816895391332e+05  1.5301326268829431e+04  1.4590778164073849e+04  5.8399532531992438e+04  -4.6981098281131388e+04  -6.0170430401603386e+04  2.7746817162276327e+05  -3.2108281089063827e+05  9.0692996075977528e+04  -6.4952813967349313e+04  -5.1242343963406653e+04  1.0239427228297944e+05  -1.8942310504735005e+05  5.0019937790332729e+05  -6.3253650977204088e+05  -1.9344527014795004e+05  3.4969663131364854e+05  -3.9924636298658763e+05  -3.6981779532005632e+05  9.3277765566828276e+05  -4.6971369340848178e+05  -5.1022325672806631e+05  -1.3430574167548589e+05  -6.7829098067409906e+05  5.4594311050312151e+05  -2.4078582778443574e+05  1.0921349191678627e+06  -1.8467515238516868e+05  -9.1212920962991170e+05  5.6571268422461650e+05  -8.1496189335939416e+05  6.2788004442032566e+05  -1.1926680480918486e+06  -1.3793132801762284e+06  -5.3172981839789206e+05  4.9726916352375085e+05  -1.3965284063130565e+05  4.5013951272410748e+05  -4.1974876945866714e+05  -4.5738261098173039e+05  4.9137645169348054e+05  -2.8123233593882067e+05  3.4582652763712464e+05  -9.7716540048825773e+04  1.4625855275681490e+05  8.2544574156227100e+04  -1.3200677979914568e+05  -5.8434100245036150e+05  1.9398752268693922e+05  1.6123560574056234e+05  -5.4104260255591874e+05  -6.6547223547689617e+05  8.1146204843207472e+05  -3.4655859806233039e+05  -8.1309521728621027e+05  -6.3824373544293980e+05  -2.2410307678005955e+05  -3.3855634157380654e+05  1.6078209399403547e+05  1.9010319551700851e+05  1.8215725465170026e+05  -5.3156913384202158e+05  5.3361141926709749e+05  8.0880955467845150e+05  -2.5949586163482364e+05  -5.1350879830886371e+05  -1.9974737250913479e+05  -2.2269544169724072e+05  2.6079177947528614e+05  -7.7653483909076967e+04  -4.2741350242204720e+05  -4.5424637536511925e+05  -2.1181902833585651e+05  6.4480498181526456e+05  -2.2959477295407944e+05  5.3947680184242781e+05  -1.3387461447926397e+06  2.2823529336716954e+05  8.0387492886552401e+05  6.4139667573687958e+05  6.1948689385091641e+05  4.4730418469134223e+05  7.4610927794065606e+05  1.1567256606827159e+04  -1.0309748350475550e+06  -6.6244647838816757e+05  6.7682190281394566e+05  -1.3772535650858021e+05  -5.5283126531428665e+04  -5.5378723033085698e+05  -1.6954216965797115e+06  -1.1034616248877381e+06  -6.7875686673010013e+05  1.4196819760635635e+05  2.3930964357775114e+06  -4.0664191007155686e+05  -6.2298436385790063e+06  8.5668649413595460e+06  4.4941968593299109e+06  1.1020809780575649e+06  7.7257285916311259e+05  -1.4220350015131370e+06  -7.8098953578203241e+05  -5.2324560123929130e+06  1.5996892972035056e+06  3.2547051487916219e+06  -6.2073037069751846e+05  3.7113615397891066e+04  1.0613667141847007e+06  -2.9371575588308289e+06  1.7132090271911444e+06  -3.1217699803521419e+06  3.1944855059915062e+04  2.4131274996756625e+05  1.3338226487095207e+06  1.7704006771528479e+06  -1.1032771138124445e+06  -1.6183873910653826e+06  -4.5601480364103429e+06  -3.5492333796662395e+06  -3.6448561196516422e+06  -4.6283099846997607e+05  -3.7103494099325645e+06  -5.3022828352531614e+06  8.4359688357374002e+05  1.1549362162780477e+07  3.2922310498330137e+06  6.4414762412294596e+06  -3.0484369193270995e+05  -3.7700267858885261e+06  -7.1567734513004012e+06  -1.6055949018644728e+06  -2.6736267086497894e+06  2.6296789523380022e+06  -1.1739023947968748e+06  3.7454266614973377e+06  2.9326347096738233e+06  -1.3496822325982030e+06  -3.2894337574670254e+06  -2.9876070528310299e+05  -1.4742928386529360e+06  -1.4880245272379955e+06  -2.0044363197610341e+06  -2.2501912947867950e+06  -3.176181