<?xml version="1.0"?>
<VTKFile type="UnstructuredGrid"  version="0.1"  >
<UnstructuredGrid>
<Piece  NumberOfPoints="1369" NumberOfCells="2560">
<Points>
<DataArray  type="Float64"  NumberOfComponents="3"  format="ascii">0 0 0  0.75 0 0  1.5 0 0  2.25 0 0  3 0 0  3.75 0 0  4.5 0 0  5.25 0 0  6 0 0  6.75 0 0  7.5 0 0  8.25 0 0  9 0 0  9.75 0 0  10.5 0 0  11.25 0 0  12 0 0  12.75 0 0  13.5 0 0  14.25 0 0  15 0 0  15.75 0 0  16.5 0 0  17.25 0 0  18 0 0  18.75 0 0  19.5 0 0  20.25 0 0  21 0 0  21.75 0 0  22.5 0 0  23.25 0 0  24 0 0  24.75 0 0  25.5 0 0  26.25 0 0  27 0 0  27.75 0 0  28.5 0 0  29.25 0 0  30 0 0  30.75 0 0  31.5 0 0  32.25 0 0  33 0 0  33.75 0 0  34.5 0 0  35.25 0 0  36 0 0  36.75 0 0  37.5 0 0  38.25 0 0  39 0 0  39.75 0 0  40.5 0 0  41.25 0 0  42 0 0  42.75 0 0  43.5 0 0  44.25 0 0  45 0 0  45.75 0 0  46.5 0 0  47.25 0 0  48 0 0  48.75 0 0  49.5 0 0  50.25 0 0  51 0 0  51.75 0 0  52.5 0 0  53.25 0 0  54 0 0  54.75 0 0  55.5 0 0  56.25 0 0  57 0 0  57.75 0 0  58.5 0 0  59.25 0 0  60 0 0  0 0.5 0  0.75 0.5 0  1.5 0.5 0  2.25 0.5 0  3 0.5 0  3.75 0.5 0  4.5 0.5 0  5.25 0.5 0  6 0.5 0  6.75 0.5 0  7.5 0.5 0  8.25 0.5 0  9 0.5 0  9.75 0.5 0  10.5 0.5 0  11.25 0.5 0  12 0.5 0  12.75 0.5 0  13.5 0.5 0  14.25 0.5 0  15 0.5 0  15.75 0.5 0  16.5 0.5 0  17.25 0.5 0  18 0.5 0  18.75 0.5 0  19.5 0.5 0  20.25 0.5 0  21 0.5 0  21.75 0.5 0  22.5 0.5 0  23.25 0.5 0  24 0.5 0  24.75 0.5 0  25.5 0.5 0  26.25 0.5 0  27 0.5 0  27.75 0.5 0  28.5 0.5 0  29.25 0.5 0  30 0.5 0  30.75 0.5 0  31.5 0.5 0  32.25 0.5 0  33 0.5 0  33.75 0.5 0  34.5 0.5 0  35.25 0.5 0  36 0.5 0  36.75 0.5 0  37.5 0.5 0  38.25 0.5 0  39 0.5 0  39.75 0.5 0  40.5 0.5 0  41.25 0.5 0  42 0.5 0  42.75 0.5 0  43.5 0.5 0  44.25 0.5 0  45 0.5 0  45.75 0.5 0  46.5 0.5 0  47.25 0.5 0  48 0.5 0  48.75 0.5 0  49.5 0.5 0  50.25 0.5 0  51 0.5 0  51.75 0.5 0  52.5 0.5 0  53.25 0.5 0  54 0.5 0  54.75 0.5 0  55.5 0.5 0  56.25 0.5 0  57 0.5 0  57.75 0.5 0  58.5 0.5 0  59.25 0.5 0  60 0.5 0  0 1 0  0.75 1 0  1.5 1 0  2.25 1 0  3 1 0  3.75 1 0  4.5 1 0  5.25 1 0  6 1 0  6.75 1 0  7.5 1 0  8.25 1 0  9 1 0  9.75 1 0  10.5 1 0  11.25 1 0  12 1 0  12.75 1 0  13.5 1 0  14.25 1 0  15 1 0  15.75 1 0  16.5 1 0  17.25 1 0  18 1 0  18.75 1 0  19.5 1 0  20.25 1 0  21 1 0  21.75 1 0  22.5 1 0  23.25 1 0  24 1 0  24.75 1 0  25.5 1 0  26.25 1 0  27 1 0  27.75 1 0  28.5 1 0  29.25 1 0  30 1 0  30.75 1 0  31.5 1 0  32.25 1 0  33 1 0  33.75 1 0  34.5 1 0  35.25 1 0  36 1 0  36.75 1 0  37.5 1 0  38.25 1 0  39 1 0  39.75 1 0  40.5 1 0  41.25 1 0  42 1 0  42.75 1 0  43.5 1 0  44.25 1 0  45 1 0  45.75 1 0  46.5 1 0  47.25 1 0  48 1 0  48.75 1 0  49.5 1 0  50.25 1 0  51 1 0  51.75 1 0  52.5 1 0  53.25 1 0  54 1 0  54.75 1 0  55.5 1 0  56.25 1 0  57 1 0  57.75 1 0  58.5 1 0  59.25 1 0  60 1 0  0 1.5 0  0.75 1.5 0  1.5 1.5 0  2.25 1.5 0  3 1.5 0  3.75 1.5 0  4.5 1.5 0  5.25 1.5 0  6 1.5 0  6.75 1.5 0  7.5 1.5 0  8.25 1.5 0  9 1.5 0  9.75 1.5 0  10.5 1.5 0  11.25 1.5 0  12 1.5 0  12.75 1.5 0  13.5 1.5 0  14.25 1.5 0  15 1.5 0  15.75 1.5 0  16.5 1.5 0  17.25 1.5 0  18 1.5 0  18.75 1.5 0  19.5 1.5 0  20.25 1.5 0  21 1.5 0  21.75 1.5 0  22.5 1.5 0  23.25 1.5 0  24 1.5 0  24.75 1.5 0  25.5 1.5 0  26.25 1.5 0  27 1.5 0  27.75 1.5 0  28.5 1.5 0  29.25 1.5 0  30 1.5 0  30.75 1.5 0  31.5 1.5 0  32.25 1.5 0  33 1.5 0  33.75 1.5 0  34.5 1.5 0  35.25 1.5 0  36 1.5 0  36.75 1.5 0  37.5 1.5 0  38.25 1.5 0  39 1.5 0  39.75 1.5 0  40.5 1.5 0  41.25 1.5 0  42 1.5 0  42.75 1.5 0  43.5 1.5 0  44.25 1.5 0  45 1.5 0  45.75 1.5 0  46.5 1.5 0  47.25 1.5 0  48 1.5 0  48.75 1.5 0  49.5 1.5 0  50.25 1.5 0  51 1.5 0  51.75 1.5 0  52.5 1.5 0  53.25 1.5 0  54 1.5 0  54.75 1.5 0  55.5 1.5 0  56.25 1.5 0  57 1.5 0  57.75 1.5 0  58.5 1.5 0  59.25 1.5 0  60 1.5 0  0 2 0  0.75 2 0  1.5 2 0  2.25 2 0  3 2 0  3.75 2 0  4.5 2 0  5.25 2 0  6 2 0  6.75 2 0  7.5 2 0  8.25 2 0  9 2 0  9.75 2 0  10.5 2 0  11.25 2 0  12 2 0  12.75 2 0  13.5 2 0  14.25 2 0  15 2 0  15.75 2 0  16.5 2 0  17.25 2 0  18 2 0  18.75 2 0  19.5 2 0  20.25 2 0  21 2 0  21.75 2 0  22.5 2 0  23.25 2 0  24 2 0  24.75 2 0  25.5 2 0  26.25 2 0  27 2 0  27.75 2 0  28.5 2 0  29.25 2 0  30 2 0  30.75 2 0  31.5 2 0  32.25 2 0  33 2 0  33.75 2 0  34.5 2 0  35.25 2 0  36 2 0  36.75 2 0  37.5 2 0  38.25 2 0  39 2 0  39.75 2 0  40.5 2 0  41.25 2 0  42 2 0  42.75 2 0  43.5 2 0  44.25 2 0  45 2 0  45.75 2 0  46.5 2 0  47.25 2 0  48 2 0  48.75 2 0  49.5 2 0  50.25 2 0  51 2 0  51.75 2 0  52.5 2 0  53.25 2 0  54 2 0  54.75 2 0  55.5 2 0  56.25 2 0  57 2 0  57.75 2 0  58.5 2 0  59.25 2 0  60 2 0  0 2.5 0  0.75 2.5 0  1.5 2.5 0  2.25 2.5 0  3 2.5 0  3.75 2.5 0  4.5 2.5 0  5.25 2.5 0  6 2.5 0  6.75 2.5 0  7.5 2.5 0  8.25 2.5 0  9 2.5 0  9.75 2.5 0  10.5 2.5 0  11.25 2.5 0  12 2.5 0  12.75 2.5 0  13.5 2.5 0  14.25 2.5 0  15 2.5 0  15.75 2.5 0  16.5 2.5 0  17.25 2.5 0  18 2.5 0  18.75 2.5 0  19.5 2.5 0  20.25 2.5 0  21 2.5 0  21.75 2.5 0  22.5 2.5 0  23.25 2.5 0  24 2.5 0  24.75 2.5 0  25.5 2.5 0  26.25 2.5 0  27 2.5 0  27.75 2.5 0  28.5 2.5 0  29.25 2.5 0  30 2.5 0  30.75 2.5 0  31.5 2.5 0  32.25 2.5 0  33 2.5 0  33.75 2.5 0  34.5 2.5 0  35.25 2.5 0  36 2.5 0  36.75 2.5 0  37.5 2.5 0  38.25 2.5 0  39 2.5 0  39.75 2.5 0  40.5 2.5 0  41.25 2.5 0  42 2.5 0  42.75 2.5 0  43.5 2.5 0  44.25 2.5 0  45 2.5 0  45.75 2.5 0  46.5 2.5 0  47.25 2.5 0  48 2.5 0  48.75 2.5 0  49.5 2.5 0  50.25 2.5 0  51 2.5 0  51.75 2.5 0  52.5 2.5 0  53.25 2.5 0  54 2.5 0  54.75 2.5 0  55.5 2.5 0  56.25 2.5 0  57 2.5 0  57.75 2.5 0  58.5 2.5 0  59.25 2.5 0  60 2.5 0  0 3 0  0.75 3 0  1.5 3 0  2.25 3 0  3 3 0  3.75 3 0  4.5 3 0  5.25 3 0  6 3 0  6.75 3 0  7.5 3 0  8.25 3 0  9 3 0  9.75 3 0  10.5 3 0  11.25 3 0  12 3 0  12.75 3 0  13.5 3 0  14.25 3 0  15 3 0  15.75 3 0  16.5 3 0  17.25 3 0  18 3 0  18.75 3 0  19.5 3 0  20.25 3 0  21 3 0  21.75 3 0  22.5 3 0  23.25 3 0  24 3 0  24.75 3 0  25.5 3 0  26.25 3 0  27 3 0  27.75 3 0  28.5 3 0  29.25 3 0  30 3 0  30.75 3 0  31.5 3 0  32.25 3 0  33 3 0  33.75 3 0  34.5 3 0  35.25 3 0  36 3 0  36.75 3 0  37.5 3 0  38.25 3 0  39 3 0  39.75 3 0  40.5 3 0  41.25 3 0  42 3 0  42.75 3 0  43.5 3 0  44.25 3 0  45 3 0  45.75 3 0  46.5 3 0  47.25 3 0  48 3 0  48.75 3 0  49.5 3 0  50.25 3 0  51 3 0  51.75 3 0  52.5 3 0  53.25 3 0  54 3 0  54.75 3 0  55.5 3 0  56.25 3 0  57 3 0  57.75 3 0  58.5 3 0  59.25 3 0  60 3 0  0 3.5 0  0.75 3.5 0  1.5 3.5 0  2.25 3.5 0  3 3.5 0  3.75 3.5 0  4.5 3.5 0  5.25 3.5 0  6 3.5 0  6.75 3.5 0  7.5 3.5 0  8.25 3.5 0  9 3.5 0  9.75 3.5 0  10.5 3.5 0  11.25 3.5 0  12 3.5 0  12.75 3.5 0  13.5 3.5 0  14.25 3.5 0  15 3.5 0  15.75 3.5 0  16.5 3.5 0  17.25 3.5 0  18 3.5 0  18.75 3.5 0  19.5 3.5 0  20.25 3.5 0  21 3.5 0  21.75 3.5 0  22.5 3.5 0  23.25 3.5 0  24 3.5 0  24.75 3.5 0  25.5 3.5 0  26.25 3.5 0  27 3.5 0  27.75 3.5 0  28.5 3.5 0  29.25 3.5 0  30 3.5 0  30.75 3.5 0  31.5 3.5 0  32.25 3.5 0  33 3.5 0  33.75 3.5 0  34.5 3.5 0  35.25 3.5 0  36 3.5 0  36.75 3.5 0  37.5 3.5 0  38.25 3.5 0  39 3.5 0  39.75 3.5 0  40.5 3.5 0  41.25 3.5 0  42 3.5 0  42.75 3.5 0  43.5 3.5 0  44.25 3.5 0  45 3.5 0  45.75 3.5 0  46.5 3.5 0  47.25 3.5 0  48 3.5 0  48.75 3.5 0  49.5 3.5 0  50.25 3.5 0  51 3.5 0  51.75 3.5 0  52.5 3.5 0  53.25 3.5 0  54 3.5 0  54.75 3.5 0  55.5 3.5 0  56.25 3.5 0  57 3.5 0  57.75 3.5 0  58.5 3.5 0  59.25 3.5 0  60 3.5 0  0 4 0  0.75 4 0  1.5 4 0  2.25 4 0  3 4 0  3.75 4 0  4.5 4 0  5.25 4 0  6 4 0  6.75 4 0  7.5 4 0  8.25 4 0  9 4 0  9.75 4 0  10.5 4 0  11.25 4 0  12 4 0  12.75 4 0  13.5 4 0  14.25 4 0  15 4 0  15.75 4 0  16.5 4 0  17.25 4 0  18 4 0  18.75 4 0  19.5 4 0  20.25 4 0  21 4 0  21.75 4 0  22.5 4 0  23.25 4 0  24 4 0  24.75 4 0  25.5 4 0  26.25 4 0  27 4 0  27.75 4 0  28.5 4 0  29.25 4 0  30 4 0  30.75 4 0  31.5 4 0  32.25 4 0  33 4 0  33.75 4 0  34.5 4 0  35.25 4 0  36 4 0  36.75 4 0  37.5 4 0  38.25 4 0  39 4 0  39.75 4 0  40.5 4 0  41.25 4 0  42 4 0  42.75 4 0  43.5 4 0  44.25 4 0  45 4 0  45.75 4 0  46.5 4 0  47.25 4 0  48 4 0  48.75 4 0  49.5 4 0  50.25 4 0  51 4 0  51.75 4 0  52.5 4 0  53.25 4 0  54 4 0  54.75 4 0  55.5 4 0  56.25 4 0  57 4 0  57.75 4 0  58.5 4 0  59.25 4 0  60 4 0  0.375 0.25 0  1.125 0.25 0  1.875 0.25 0  2.625 0.25 0  3.375 0.25 0  4.125 0.25 0  4.875 0.25 0  5.625 0.25 0  6.375 0.25 0  7.125 0.25 0  7.875 0.25 0  8.625 0.25 0  9.375 0.25 0  10.125 0.25 0  10.875 0.25 0  11.625 0.25 0  12.375 0.25 0  13.125 0.25 0  13.875 0.25 0  14.625 0.25 0  15.375 0.25 0  16.125 0.25 0  16.875 0.25 0  17.625 0.25 0  18.375 0.25 0  19.125 0.25 0  19.875 0.25 0  20.625 0.25 0  21.375 0.25 0  22.125 0.25 0  22.875 0.25 0  23.625 0.25 0  24.375 0.25 0  25.125 0.25 0  25.875 0.25 0  26.625 0.25 0  27.375 0.25 0  28.125 0.25 0  28.875 0.25 0  29.625 0.25 0  30.375 0.25 0  31.125 0.25 0  31.875 0.25 0  32.625 0.25 0  33.375 0.25 0  34.125 0.25 0  34.875 0.25 0  35.625 0.25 0  36.375 0.25 0  37.125 0.25 0  37.875 0.25 0  38.625 0.25 0  39.375 0.25 0  40.125 0.25 0  40.875 0.25 0  41.625 0.25 0  42.375 0.25 0  43.125 0.25 0  43.875 0.25 0  44.625 0.25 0  45.375 0.25 0  46.125 0.25 0  46.875 0.25 0  47.625 0.25 0  48.375 0.25 0  49.125 0.25 0  49.875 0.25 0  50.625 0.25 0  51.375 0.25 0  52.125 0.25 0  52.875 0.25 0  53.625 0.25 0  54.375 0.25 0  55.125 0.25 0  55.875 0.25 0  56.625 0.25 0  57.375 0.25 0  58.125 0.25 0  58.875 0.25 0  59.625 0.25 0  0.375 0.75 0  1.125 0.75 0  1.875 0.75 0  2.625 0.75 0  3.375 0.75 0  4.125 0.75 0  4.875 0.75 0  5.625 0.75 0  6.375 0.75 0  7.125 0.75 0  7.875 0.75 0  8.625 0.75 0  9.375 0.75 0  10.125 0.75 0  10.875 0.75 0  11.625 0.75 0  12.375 0.75 0  13.125 0.75 0  13.875 0.75 0  14.625 0.75 0  15.375 0.75 0  16.125 0.75 0  16.875 0.75 0  17.625 0.75 0  18.375 0.75 0  19.125 0.75 0  19.875 0.75 0  20.625 0.75 0  21.375 0.75 0  22.125 0.75 0  22.875 0.75 0  23.625 0.75 0  24.375 0.75 0  25.125 0.75 0  25.875 0.75 0  26.625 0.75 0  27.375 0.75 0  28.125 0.75 0  28.875 0.75 0  29.625 0.75 0  30.375 0.75 0  31.125 0.75 0  31.875 0.75 0  32.625 0.75 0  33.375 0.75 0  34.125 0.75 0  34.875 0.75 0  35.625 0.75 0  36.375 0.75 0  37.125 0.75 0  37.875 0.75 0  38.625 0.75 0  39.375 0.75 0  40.125 0.75 0  40
[...]
<PointData  Scalars="f_8-1"> 
<DataArray  type="Float64"  Name="f_8-1"  format="ascii">-1.4572360382010585e+04  5.9369908919420057e+04  1.2172547134777149e+04  3.0808497394142562e+05  4.8833158411409648e+04  -1.0145365346688895e+05  3.5683511630828405e+04  -2.1157586571664194e+05  4.7510119158001407e+05  -6.5536976354630815e+05  5.0504977512592962e+05  -7.8667296961055661e+05  -3.8557501327216433e+05  -1.4130771225594247e+06  2.2477556010062457e+05  7.6764499314767029e+05  -2.6895876740848686e+05  -6.2212776730056052e+04  -3.0230191630507616e+05  -8.0928577947496506e+05  2.7082081068165938e+05  -4.3888190821135659e+06  -3.5082035597050088e+06  -1.3556207648764716e+06  -1.6803824071350391e+06  2.0025681004551647e+06  3.3184484890341414e+06  6.8685552251033357e+05  1.5964354658572001e+06  -2.6606584766021804e+06  1.6183832682554550e+06  2.1650206070152153e+06  1.2959460753732072e+06  -3.1847923902327563e+06  -3.2422221126566606e+05  2.1940027854428389e+06  -1.0645764595451481e+06  2.7094198675905536e+06  -1.6652073383202639e+06  -4.0861814398789774e+06  -1.2018702825127814e+06  -3.3212150886519174e+06  -1.7186444764121256e+06  -1.8268582484339669e+06  5.4655022643919860e+05  1.1252664656821978e+06  1.5185742177460329e+06  2.7667458981360933e+06  1.9003667227465182e+06  5.9713640926576045e+05  4.9762006008561264e+05  5.5566373958574026e+05  3.7311514032301651e+06  -3.2616852007280814e+05  5.0965258210693148e+05  3.1974615410299558e+05  5.8145789981821428e+04  1.9110622461139448e+06  4.8567294662792172e+05  7.5639166205617040e+05  5.8880478337221686e+05  2.9172466285182344e+05  4.5318317108867370e+05  3.5853445926512918e+05  2.3432491567048867e+05  1.1608581797913390e+04  4.4060093713465286e+05  -1.4476874778699593e+06  1.7618997034033135e+05  3.5700130899946921e+05  6.9078956966395141e+05  -4.5112519746472972e+05  -9.9279261938567870e+04  4.1001343301379506e+05  -1.4613579369282953e+06  -8.2144180293960427e+05  -2.9754185501982918e+05  -7.4125093336437218e+04  5.8830156162195746e+05  6.9017104368812311e+05  -1.6928123179433029e+05  -4.5253856752695487e+04  5.3974896977293487e+04  1.0825250410846024e+05  8.3726945096165175e+04  3.2978568183573871e+05  -4.7301869143678079e+05  1.8466921647946944e+05  -2.8968951954349002e+05  -7.6603193082884012e+04  1.5577488547712004e+04  -1.6715053111459484e+05  2.8200423233886546e+05  -3.7587979403078882e+05  -6.5448385583163134e+05  2.3799648896780601e+05  -2.1613068277115883e+04  5.3913063969106937e+05  -2.5431074963596524e+05  -8.3215885854959476e+05  -5.8416755538830115e+05  -9.4943030324177200e+05  -3.6923785942289759e+06  -3.0644121911607110e+06  -1.4117469413913160e+06  -2.0001284156001371e+06  5.9393788727801689e+05  2.3972848758230815e+06  2.9190327526627481e+06  -9.3607266043026885e+05  -1.2929839200743330e+06  3.0339203544726333e+05  5.9123347506448423e+04  -1.6162491933355557e+06  6.1394013996601338e+06  -3.7459923849392039e+03  -5.6161724420259625e+05  2.3739903312969054e+06  -2.5093152537408183e+05  5.2112764699424169e+05  -2.1083818215083657e+06  -5.7052367065911030e+05  -9.7325035404985829e+05  -2.0812903827147486e+05  3.6459005936392897e+05  9.0175447285673814e+05  2.8625664903585892e+05  2.2319681063050986e+06  1.4109765355299178e+06  1.0058333741413923e+03  -9.3256937491886423e+05  1.8525182558293261e+06  1.3903092380519998e+06  2.3770337777172010e+06  1.8448059817377266e+06  1.3312586543728674e+06  1.3580427984684384e+06  8.6640082268108602e+05  1.3903985191883708e+06  5.7821280904837651e+05  3.4338793195152021e+05  6.0113428158135107e+05  6.2937977255389828e+05  -2.0632833978137848e+05  6.0414926699893479e+05  6.0225454469273856e+05  5.3215311642980727e+05  8.1307815284042576e+04  -6.4040815841996788e+04  -8.1237272760035004e+05  -1.7329072240196276e+05  2.0232132695209319e+05  -5.4157360558475705e+05  -3.9991853590851373e+04  1.4301439705201189e+05  -1.3439032024934560e+06  -7.5279192540643865e+05  -5.6648651746180933e+05  1.0909315071882993e+05  4.7516894598223100e+05  -1.1828876546529001e+05  2.4510521339287894e+05  1.2828526586420432e+05  5.8591055310195166e+04  6.2319786998440999e+04  1.4834148008661071e+05  -3.0955042798852784e+04  -1.0171283107370037e+06  -1.1810240851169487e+05  -2.7639191024547890e+04  -2.0685428514474450e+05  -4.2583275056066155e+05  -2.9444307637060940e+05  -4.2555608535919304e+05  -4.1142476697633258e+05  3.3466497880848627e+04  -1.5713481637197776e+03  2.8354133866173227e+05  4.2852228803371964e+05  -7.7094416882962920e+05  -4.9753826910696167e+05  -5.9966582801172743e+05  -1.5848860074196348e+06  -5.4422352774337085e+05  -2.5034690945788263e+06  -8.1818393489996798e+05  3.4020346914931033e+04  1.9932521972220582e+06  7.8705054293718451e+04  -8.8000069017928385e+05  -1.1824030201982935e+06  1.8038711224170713e+05  1.1862209591663643e+06  1.1961680887713828e+06  2.5848828147769831e+06  -2.0626750129956456e+06  -1.9140910012799487e+06  -7.5424238978778571e+05  7.5814493348674034e+05  4.1366999961702101e+05  -1.1853093124335494e+06  -1.6502930840193084e+06  4.8113663030751358e+05  -2.7901607236844124e+06  -2.7196043794778897e+05  -1.7219586442848921e+06  -9.0796301831484563e+05  1.0295116227149992e+03  8.6894359336369752e+05  1.8516440354140734e+06  2.7229986478434992e+05  1.2540118889698444e+06  -6.3191290538466448e+04  1.3023411498546663e+06  1.1702974397674375e+06  1.6627928641172738e+06  8.5348624418358190e+05  1.2736058769109796e+06  8.2848474581469223e+05  9.4334969510258932e+05  4.9824510262257815e+05  6.8269799122773355e+05  2.2245808522169336e+05  6.4745534522025788e+05  1.1493889020726630e+06  1.0996609004949790e+06  7.3583234836986626e+05  -6.1108239979648759e+04  2.6987725208896713e+05  -5.3664646033561858e+05  -4.4445713249898108e+05  -2.0122328635201056e+05  1.7155884258507239e+05  1.9037643919774584e+05  -2.5829128266033839e+05  -4.6838868689044338e+05  -1.7869538695941260e+05  -5.0791450945800444e+05  -4.4686372364180209e+05  -1.3771367446741142e+05  3.1089199282753683e+05  3.0795891924864374e+05  -9.8033991909041360e+04  -3.4376318501883266e+04  3.2091050434063282e+05  -5.4885609074709304e+04  -4.4646397725111390e+04  3.2436803582923027e+05  -2.0022492581665691e+05  -8.4421847337717761e+05  -8.6256168763095804e+05  -7.6727820049575297e+05  -1.7674457757484185e+05  -3.8806419287823304e+05  -5.6852530651194206e+05  5.3929363052097883e+05  -4.8609088767837657e+05  1.2305412198994929e+05  -3.0726902043773257e+05  7.6503971119200025e+04  -4.5859853704256844e+05  -9.8434431790416507e+04  -5.7000343060815963e+05  -2.7269591005635815e+05  -2.3526984674029177e+05  -6.5771376400973974e+05  -8.3076418224805582e+05  5.8600292921623553e+05  1.2344004877022333e+06  8.8935955594398620e+04  5.6524792113005137e+05  7.1175476323930454e+05  -2.0072494421574408e+06  -2.8758079167493233e+06  -1.1948600173106121e+06  1.2030112433991942e+06  -6.5262415646768059e+05  2.3702379139907556e+06  1.9209722443813505e+05  1.7071290267424801e+05  1.0878175263637635e+04  4.9087034132217185e+05  -2.3711560007826583e+06  -1.1000713424042338e+06  -7.2978763757025474e+05  -1.2891180474027980e+06  1.4991944849001418e+05  -5.5624718763328754e+04  -1.3368987655650366e+06  2.5701687131682942e+06  -2.5259969069106350e+05  1.6251402699367091e+05  7.8727128802830842e+05  -3.4823641856003989e+05  4.6362396424954839e+05  1.2925819594978916e+06  1.1704888122206654e+06  1.0409301494711738e+06  6.8020924055626907e+05  9.4375904872779816e+05  1.0013260569432796e+06  7.2932449634631805e+05  5.7688186743391899e+05  -5.4376170188513258e+05  -5.3156275579548028e+03  1.6272681850281582e+05  1.1636441409465226e+06  4.1523016950404522e+05  2.5760695002143097e+05  -2.5014053573104957e+05  -5.8938023078480226e+04  -1.6989190388279603e+05  -3.3944345392250869e+05  4.8024587760776412e+04  -5.6530383408778824e+05  -3.0724373629733827e+05  1.7473320764661001e+05  1.5522963692279754e+05  6.6935324490398620e+04  -3.2905035689748916e+03  -5.2080440015764034e+05  3.0619465206998018e+04  7.4278914272162714e+04  7.8685519133934984e+04  1.8150686558803183e+05  -1.2163417324940792e+05  -1.0547960366638705e+04  1.1549452445589098e+05  4.1435576913836115e+05  3.4666590544844005e+05  -3.1962848518314690e+05  -4.4374203497007795e+04  5.9249333681671310e+05  -2.6297854255830718e+05  -2.0337008088086205e+05  -1.9410780278607339e+05  -3.2445208810806868e+05  1.4668502943604719e+05  -3.7048842182286602e+05  -5.9203251436343358e+04  -8.4041141504166357e+04  -5.1988043843721616e+05  -3.1790751959179301e+05  -3.9134246553189144e+05  -6.4846268829540117e+05  -2.9012075772534718e+05  -1.9649068273624475e+05  5.0986543686052540e+05  -7.1389220461825863e+05  -4.6316516754108795e+05  1.6911604957095049e+06  7.0662417175927467e+05  -1.4659527803175843e+06  1.0229795792911511e+06  -2.9894324612947735e+06  8.4247676274283160e+05  1.5609761218678141e+06  -8.3063260324400297e+04  -1.1121643264614285e+06  -1.9850707979527330e+06  9.3658187374919318e+04  -2.4297605914147609e+05  -9.0338729331842798e+05  -1.2135463897120296e+06  -2.0296463398854001e+06  5.8300720450590563e+05  -6.0536978951334313e+05  -9.6126997167840588e+05  1.4390378828618578e+06  1.6410207877727554e+05  -7.5983422028722474e+05  4.2065955476317518e+04  -3.6921712820052722e+05  3.0506515104900859e+05  -1.6450785292679002e+05  8.6647324428558012e+05  1.5418521124379144e+06  1.3300595607327356e+06  1.4045556300991527e+06  8.6270000997539645e+05  7.0089059683257772e+05  6.1012664075035497e+05  6.6225653797037783e+05  3.8773892944367870e+05  3.2899801779753773e+05  -2.6891104051645769e+04  1.7694219376854706e+05  -2.8036459593627055e+05  -3.6355174939777949e+04  1.5543534868571474e+05  -3.7854879009933575e+04  -3.5427789062490563e+04  -5.5431817546368041e+05  -4.0487343256961007e+05  -1.8240630913846035e+05  3.8278638724765880e+05  -2.0485768531971987e+05  -4.5061945573897487e+04  -1.0915366032887250e+05  -3.9902634555497306e+05  6.8061608878239337e+05  -5.0775354054800083e+05  7.6047508504012797e+05  1.3734615716392137e+05  -3.1377208501005819e+05  -8.8836751263476894e+04  1.3548741140014745e+05  1.5460020521846315e+05  -1.6676214758520171e+04  -4.2730539636129024e+05  -5.0720787686165131e+05  -3.0723447923565534e+05  4.4634329578632064e+05  -6.1837002683122635e+04  -4.1778086632303591e+05  6.9534033778634563e+04  -2.2342057839072566e+05  -4.3953718782140611e+05  -3.1084763376031723e+05  -2.5669637841515313e+05  6.0820388083133861e+04  -1.1974363687475088e+05  -5.7328193689102086e+05  -7.4787807619829386e+04  -5.1081723137804173e+05  -2.4231633667145111e+05  3.2321155081588356e+05  5.1159706333295756e+05  -6.1637107708909047e+04  -5.4468414325261267e+05  -6.2114703656523849e+05  2.6318213058489477e+06  -3.1146563581928960e+05  -8.3158674901575083e+05  9.0283236384858435e+04  8.7191293496308941e+05  -6.0955628514822177e+05  -5.6988395289209357e+05  7.2812615745374875e+05  -3.8667452328870697e+06  -6.1108934207766107e+05  -2.8194766505028371e+05  9.6790818976113701e+05  -3.1850257157281012e+05  -4.9210322301385971e+06  -1.2023421677985438e+06  -2.3561953604259514e+06  4.0495161960482429e+05  -7.5066063986149034e+05  -1.3185664664442159e+05  -3.2280823301782697e+04  4.5834603393867139e+04  -5.7082772088352358e+05  2.3045259409676018e+05  3.7307829479121207e+05  5.3827416759672284e+05  8.5350549805682048e+05  1.2404557999125961e+06  3.3159203831010911e+05  1.7168526707479132e+06  1.3060682952419173e+06  7.7594056697789009e+05  5.2385959501203685e+05  5.3920614873690042e+05  1.1485933978901084e+06  -5.7587396522251365e+05  9.0194435379722214e+04  -3.2324245536046114e+05  -6.3898174719032936e+05  8.3884192528447064e+04  -2.9053307343995536e+05  -1.1910684183914664e+04  2.4964257939813205e+05  3.1728029076002684e+05  -6.3000954211482336e+05  1.6962788553438129e+05  -1.3864087254959100e+05  -3.4013243026781292e+05  -2.4974663049570390e+05  -7.0838377586735971e+05  -1.2726804085330044e+05  -5.7030448104909519e+04  -2.2752331842679175e+05  -4.6683558821591025e+05  5.8739292469713069e+05  -2.9847205508455698e+05  7.4336105582748351e+04  -5.9384712993047993e+04  1.3636921639154828e+05  -1.1911971351683410e+05  -3.2473358819997398e+05  -1.4737059434377711e+05  -1.3651870168107786e+05  2.5074620508968021e+05  7.9038672942228056e+05  3.9027672156209813e+05  4.4235507539977421e+04  -5.7092526782834984e+05  -2.8965212324830401e+05  6.4516266450854178e+04  9.5727942829256324e+04  5.1880119273205748e+05  -8.0880570801402529e+04  -5.1663877016175236e+05  -9.4243331171163276e+05  -7.8764838688508247e+05  2.1513615899154305e+04  9.6300802699493489e+05  -2.7572333789368707e+05  5.1749407875633938e+05  -1.5819357643952651e+06  -7.0804640108444740e+05  -1.2262718107420651e+06  -6.7157005203179608e+04  -5.6744020134259830e+05  -1.9250199583405328e+06  -3.4422111753269602e+06  8.1005094675578177e+05  2.0828248314057169e+06  1.7775354266992391e+06  -2.0150262209087145e+06  6.7738453920332016e+05  -2.0757930853935205e+06  -8.2393807525365695e+05  -3.1699290646150392e+06  -5.2159641255861660e+06  -2.4071589066417525e+06  7.4912640477264253e+05  -4.3203861953891278e+05  -9.5979554910987045e+05  -2.7782400540746824e+05  9.5101041803745742e+04  -4.0496333321881347e+05  5.7184918196844857e+05  3.3436951734126004e+05  5.4185496847544576e+05  6.1019616469064879e+05  1.2813820387066528e+06  6.8703830682000262e+05  1.2461753335545370e+06  7.1090880539365963e+05  9.5904811365492130e+05  7.3230966837767733e+05  1.1229638669190586e+05  9.4366770210525207e+05  3.9562680944251764e+05  2.7071044008420082e+05  3.0754275981429394e+05  -7.9244582698582602e+05  -1.4328444761614362e+05  -5.6932083412305033e+05  8.0888900849202502e+04  4.5737125807711011e+05  -1.0678889358423857e+06  -1.0960484123179144e+06  -5.7485454771611746e+05  -1.0459360599146334e+05  -1.5491184895560308e+05  1.5588455512831136e+05  -8.6781410569954154e+04  3.6441044905279495e+05  -1.5987731727003379e+05  3.1571087608447880e+05  -1.9775389718001420e+05  -1.4797341330879793e+05  -1.0775899161488809e+05  3.0545694081840653e+05  -3.5306109220672421e+04  4.4202541264246822e+04  -1.7774572060648400e+03  6.2480228565645390e+04  2.3760511647184318e+05  2.1162847880239988e+05  -2.4366184091524666e+05  -2.0584056320313559e+05  1.4342442691834894e+05  2.9066234708049538e+05  -1.8982782123922399e+05  -6.0922958260477950e+04  -2.9172634361176362e+05  6.9548601688505313e+05  -2.4422119644468036e+05  5.1761113445715094e+05  -9.5544282856243919e+05  -6.3823363195751852e+05  -5.3134292965905333e+05  -3.2122261580065812e+05  4.0196102841542911e+05  -3.9335777670253621e+04  3.7828520028673964e+04  -2.4533353613966054e+05  -5.5778857014183370e+04  -6.3946455700489145e+05  2.5451839159653825e+05  7.6689373779154115e+05  -4.3448149765477085e+05  -1.1186353634578490e+06  6.4451414687358738e+04  -5.6947298796226899e+05  2.9067823521666895e+06  7.3758866939796414e+05  -3.5403458422373603e+06  -6.6946628287066787e+05  -5.2436565971308332e+06  -2.6959392894801577e+06  -1.6490953849318794e+06  -6.2242033294950658e+05  -6.3307836796141323e+05  -1.0710243163477774e+06  -9.8285165623876604e+05  -8.2704290692091209e+05  8.5310805980433105e+05  5.7566166609188571e+04  -5.0976249264041020e+05  2.7113735019779278e+03  3.3958865669706883e+05  5.1270608175478777e+05  4.9044838086266356e+05  4.1849887803395060e+04  9.2151231589629827e+05  -2.0203265903616237e+04  7.8442736647503497e+05  -2.0811640525220361e+05  1.8539856435963811e+05  1.6853203325432111e+05  1.8017271836249839e+05  6.3958530977628520e+05  4.0552194437803689e+05  2.6807091352901531e+04  5.5460715345555283e+04  -3.4749750368914698e+04  -1.7737447871980953e+05  -5.2494309026719956e+05  -2.1364323136209784e+05  -6.9061379525072523e+05  -8.0810375112266641e+05  -1.2133174393105242e+04  5.6569325046867528e+05  -3.5069817183139629e+05  4.6471533108199725e+05  9.7209533121929431e+04  1.0889082169404061e+04  -5.0181770248623514e+04  -1.5823298610887333e+05  6.3956541701907539e+04  -4.2025494965635415e+05  -7.2612037886538717e+04  -6.7237972124342079e+04  9.1774888870088271e+03  -2.9623429129454264e+04  5.2258810272749099e+04  -6.4910056536503274e+04  4.0443261967107718e+05  8.3062852462924260e+04  -2.9559759239749143e+04  -9.6500270757196457e+04  -1.2471770187141915e+05  -1.0849471790629793e+05  2.6461920989422357e+04  -6.7947441406913116e+04  2.4517690756730843e+05  -4.1009154206097231e+05  7.3937804291698453e+05  7.3753131284114657e+04  6.5543535795428194e+04  -2.8224086632576032e+05  2.4795554398306797e+05  2.2056240177902571e+05  1.2121329816897979e+05  -3.6130731235456522e+04  9.7420432700939637e+03  1.5443589635472035e+05  -4.2139905449213082e+05  6.4561660163814388e+05  -3.8119507257551403e+05  -5.1125613022586226e+05  1.3352363528404550e+06  -7.6253555620608735e+05  5.9582005940016708e+05  -5.2364408262149274e+05  -5.1839674430474278e+05  -3.2443055331759504e+05  8.1966764457067731e+05  6.8428392314704764e+05  -3.6516653894191398e+05  -3.1880839376158435e+06  -3.2092701964513998e+05  2.4518641097301428e+05  -3.2538411561768927e+05  -1.7916258737512559e+05  -5.2021380898986186e+04  -1.7641326234795648e+05  1.5485614003331985e+05  2.0773918267879519e+05  -1.7689440714117888e+05  7.1829118873993793e+04  1.9039723952610997e+05  2.3780017222489635e+05  4.7273621302271804e+03  -1.7261777755682124e+05  -1.7811436196260780e+05  -2.2524552149135561e+04  1.4552473867679559e+05  3.6205421301121637e+05  1.3197005579344736e+05  1.6057955519390281e+05  -4.7330948471524738e+04  -5.7136800267529150e+04  -2.4637261471787438e+05  5.0416121370364432e+04  3.9247047521181731e+05  4.9846101461873068e+03  -5.7282847642670816e+05  1.3490694421734050e+05  2.2562090571450739e+05  -1.1913962618566066e+05  1.5405266344621989e+04  4.4619159259758089e+04  -1.3706029616948034e+05  -6.5590338265979401e+04  1.6962489461665778e+05  6.0741208792571078e+03  2.5189153110202911e+05  -1.0045025744759085e+05  -2.4107515253269710e+04  -1.3098545205399937e+05  -1.3343735978722594e+04  4.8995346220119631e+04  -5.0879063352436744e+04  3.8825562177108324e+04  2.6144041664155720e+04  7.0172603774735442e+04  7.7826448442102992e+04  -2.1690579391214542e+04  1.1071809414756000e+05  7.7932401543626780e+04  -2.7837970801152074e+05  -1.2894052740981306e+06  8.5376849544469360e+05  -1.8294732470558250e+04  -5.3703405547227175e+05  -7.8288165546501311e+05  -3.7570347689157422e+05  5.1635565597066603e+05  6.8104709027435596e+05  5.3788507961720880e+05  -3.2285279676838656e+05  -6.4885923944556492e+05  -1.1714241203230964e+06  -1.9161210162114534e+06  -1.9155090780218407e+06  -2.2549191960401493e+06  -2.4836533477419466e+06  -2.4234165250206445e+06  3.1844967668249947e+06  2.5621799605900138e+06  -1.1648862625797752e+06  -2.4001756731201746e+06  -2.7218165710184989e+06  1.2891230326112288e+06  -1.3705392998587200e+06  -1.7304378858547644e+06  -5.8331995119064837e+05  3.0253050782963153e+04  2.1713643533404325e+06  1.1255208773426062e+06  1.3685135354303892e+06  -2.2116658197191334e+06  -2.7154117218632312e+06  -1.3503559430901611e+06  -3.2282418236571378e+06  -2.5983422699422259e+06  -3.1735011085607974e+04  4.4334421165211918e+05  1.5132579499394204e+06  1.7811256652396098e+06  1.6580430855139475e+06  1.1304418790069600e+06  2.8197552698710926e+04  1.0184025361830390e+06  1.8604277226915855e+06  2.8576954058580743e+06  3.8196146304494774e+04  6.3587774602617021e+05  2.5872549973622212e+05  2.1180572565859300e+06  1.7060008535451062e+06  7.9518633954517136e+05  3.7353348269407242e+05  4.7389026535125490e+05  1.3132926293441272e+05  8.7507180041428935e+05  1.0039792632567600e+06  4.5849635393216793e+05  -9.2017411113050075e+03  -2.7889511884260125e+05  -3.2547567061036924e+05  3.7403887059863342e+05  6.4619619419968012e+05  1.1794778580329760e+06  -1.6143423051783745e+05  -2.2233306167011254e+05  -8.4369080272949918e+05  -1.7040753034594823e+06  -3.6819748854838411e+05  -3.5558552789666521e+05  2.4016764012420134e+05  6.6426588594427914e+05  4.5934680828532286e+05  9.6237326974663709e+04  2.5518308979530676e+05  2.4259359058592870e+05  2.228845060229