<?xml version="1.0"?>
<VTKFile type="UnstructuredGrid"  version="0.1"  >
<UnstructuredGrid>
<Piece  NumberOfPoints="1369" NumberOfCells="2560">
<Points>
<DataArray  type="Float64"  NumberOfComponents="3"  format="ascii">0 0 0  0.75 0 0  1.5 0 0  2.25 0 0  3 0 0  3.75 0 0  4.5 0 0  5.25 0 0  6 0 0  6.75 0 0  7.5 0 0  8.25 0 0  9 0 0  9.75 0 0  10.5 0 0  11.25 0 0  12 0 0  12.75 0 0  13.5 0 0  14.25 0 0  15 0 0  15.75 0 0  16.5 0 0  17.25 0 0  18 0 0  18.75 0 0  19.5 0 0  20.25 0 0  21 0 0  21.75 0 0  22.5 0 0  23.25 0 0  24 0 0  24.75 0 0  25.5 0 0  26.25 0 0  27 0 0  27.75 0 0  28.5 0 0  29.25 0 0  30 0 0  30.75 0 0  31.5 0 0  32.25 0 0  33 0 0  33.75 0 0  34.5 0 0  35.25 0 0  36 0 0  36.75 0 0  37.5 0 0  38.25 0 0  39 0 0  39.75 0 0  40.5 0 0  41.25 0 0  42 0 0  42.75 0 0  43.5 0 0  44.25 0 0  45 0 0  45.75 0 0  46.5 0 0  47.25 0 0  48 0 0  48.75 0 0  49.5 0 0  50.25 0 0  51 0 0  51.75 0 0  52.5 0 0  53.25 0 0  54 0 0  54.75 0 0  55.5 0 0  56.25 0 0  57 0 0  57.75 0 0  58.5 0 0  59.25 0 0  60 0 0  0 0.5 0  0.75 0.5 0  1.5 0.5 0  2.25 0.5 0  3 0.5 0  3.75 0.5 0  4.5 0.5 0  5.25 0.5 0  6 0.5 0  6.75 0.5 0  7.5 0.5 0  8.25 0.5 0  9 0.5 0  9.75 0.5 0  10.5 0.5 0  11.25 0.5 0  12 0.5 0  12.75 0.5 0  13.5 0.5 0  14.25 0.5 0  15 0.5 0  15.75 0.5 0  16.5 0.5 0  17.25 0.5 0  18 0.5 0  18.75 0.5 0  19.5 0.5 0  20.25 0.5 0  21 0.5 0  21.75 0.5 0  22.5 0.5 0  23.25 0.5 0  24 0.5 0  24.75 0.5 0  25.5 0.5 0  26.25 0.5 0  27 0.5 0  27.75 0.5 0  28.5 0.5 0  29.25 0.5 0  30 0.5 0  30.75 0.5 0  31.5 0.5 0  32.25 0.5 0  33 0.5 0  33.75 0.5 0  34.5 0.5 0  35.25 0.5 0  36 0.5 0  36.75 0.5 0  37.5 0.5 0  38.25 0.5 0  39 0.5 0  39.75 0.5 0  40.5 0.5 0  41.25 0.5 0  42 0.5 0  42.75 0.5 0  43.5 0.5 0  44.25 0.5 0  45 0.5 0  45.75 0.5 0  46.5 0.5 0  47.25 0.5 0  48 0.5 0  48.75 0.5 0  49.5 0.5 0  50.25 0.5 0  51 0.5 0  51.75 0.5 0  52.5 0.5 0  53.25 0.5 0  54 0.5 0  54.75 0.5 0  55.5 0.5 0  56.25 0.5 0  57 0.5 0  57.75 0.5 0  58.5 0.5 0  59.25 0.5 0  60 0.5 0  0 1 0  0.75 1 0  1.5 1 0  2.25 1 0  3 1 0  3.75 1 0  4.5 1 0  5.25 1 0  6 1 0  6.75 1 0  7.5 1 0  8.25 1 0  9 1 0  9.75 1 0  10.5 1 0  11.25 1 0  12 1 0  12.75 1 0  13.5 1 0  14.25 1 0  15 1 0  15.75 1 0  16.5 1 0  17.25 1 0  18 1 0  18.75 1 0  19.5 1 0  20.25 1 0  21 1 0  21.75 1 0  22.5 1 0  23.25 1 0  24 1 0  24.75 1 0  25.5 1 0  26.25 1 0  27 1 0  27.75 1 0  28.5 1 0  29.25 1 0  30 1 0  30.75 1 0  31.5 1 0  32.25 1 0  33 1 0  33.75 1 0  34.5 1 0  35.25 1 0  36 1 0  36.75 1 0  37.5 1 0  38.25 1 0  39 1 0  39.75 1 0  40.5 1 0  41.25 1 0  42 1 0  42.75 1 0  43.5 1 0  44.25 1 0  45 1 0  45.75 1 0  46.5 1 0  47.25 1 0  48 1 0  48.75 1 0  49.5 1 0  50.25 1 0  51 1 0  51.75 1 0  52.5 1 0  53.25 1 0  54 1 0  54.75 1 0  55.5 1 0  56.25 1 0  57 1 0  57.75 1 0  58.5 1 0  59.25 1 0  60 1 0  0 1.5 0  0.75 1.5 0  1.5 1.5 0  2.25 1.5 0  3 1.5 0  3.75 1.5 0  4.5 1.5 0  5.25 1.5 0  6 1.5 0  6.75 1.5 0  7.5 1.5 0  8.25 1.5 0  9 1.5 0  9.75 1.5 0  10.5 1.5 0  11.25 1.5 0  12 1.5 0  12.75 1.5 0  13.5 1.5 0  14.25 1.5 0  15 1.5 0  15.75 1.5 0  16.5 1.5 0  17.25 1.5 0  18 1.5 0  18.75 1.5 0  19.5 1.5 0  20.25 1.5 0  21 1.5 0  21.75 1.5 0  22.5 1.5 0  23.25 1.5 0  24 1.5 0  24.75 1.5 0  25.5 1.5 0  26.25 1.5 0  27 1.5 0  27.75 1.5 0  28.5 1.5 0  29.25 1.5 0  30 1.5 0  30.75 1.5 0  31.5 1.5 0  32.25 1.5 0  33 1.5 0  33.75 1.5 0  34.5 1.5 0  35.25 1.5 0  36 1.5 0  36.75 1.5 0  37.5 1.5 0  38.25 1.5 0  39 1.5 0  39.75 1.5 0  40.5 1.5 0  41.25 1.5 0  42 1.5 0  42.75 1.5 0  43.5 1.5 0  44.25 1.5 0  45 1.5 0  45.75 1.5 0  46.5 1.5 0  47.25 1.5 0  48 1.5 0  48.75 1.5 0  49.5 1.5 0  50.25 1.5 0  51 1.5 0  51.75 1.5 0  52.5 1.5 0  53.25 1.5 0  54 1.5 0  54.75 1.5 0  55.5 1.5 0  56.25 1.5 0  57 1.5 0  57.75 1.5 0  58.5 1.5 0  59.25 1.5 0  60 1.5 0  0 2 0  0.75 2 0  1.5 2 0  2.25 2 0  3 2 0  3.75 2 0  4.5 2 0  5.25 2 0  6 2 0  6.75 2 0  7.5 2 0  8.25 2 0  9 2 0  9.75 2 0  10.5 2 0  11.25 2 0  12 2 0  12.75 2 0  13.5 2 0  14.25 2 0  15 2 0  15.75 2 0  16.5 2 0  17.25 2 0  18 2 0  18.75 2 0  19.5 2 0  20.25 2 0  21 2 0  21.75 2 0  22.5 2 0  23.25 2 0  24 2 0  24.75 2 0  25.5 2 0  26.25 2 0  27 2 0  27.75 2 0  28.5 2 0  29.25 2 0  30 2 0  30.75 2 0  31.5 2 0  32.25 2 0  33 2 0  33.75 2 0  34.5 2 0  35.25 2 0  36 2 0  36.75 2 0  37.5 2 0  38.25 2 0  39 2 0  39.75 2 0  40.5 2 0  41.25 2 0  42 2 0  42.75 2 0  43.5 2 0  44.25 2 0  45 2 0  45.75 2 0  46.5 2 0  47.25 2 0  48 2 0  48.75 2 0  49.5 2 0  50.25 2 0  51 2 0  51.75 2 0  52.5 2 0  53.25 2 0  54 2 0  54.75 2 0  55.5 2 0  56.25 2 0  57 2 0  57.75 2 0  58.5 2 0  59.25 2 0  60 2 0  0 2.5 0  0.75 2.5 0  1.5 2.5 0  2.25 2.5 0  3 2.5 0  3.75 2.5 0  4.5 2.5 0  5.25 2.5 0  6 2.5 0  6.75 2.5 0  7.5 2.5 0  8.25 2.5 0  9 2.5 0  9.75 2.5 0  10.5 2.5 0  11.25 2.5 0  12 2.5 0  12.75 2.5 0  13.5 2.5 0  14.25 2.5 0  15 2.5 0  15.75 2.5 0  16.5 2.5 0  17.25 2.5 0  18 2.5 0  18.75 2.5 0  19.5 2.5 0  20.25 2.5 0  21 2.5 0  21.75 2.5 0  22.5 2.5 0  23.25 2.5 0  24 2.5 0  24.75 2.5 0  25.5 2.5 0  26.25 2.5 0  27 2.5 0  27.75 2.5 0  28.5 2.5 0  29.25 2.5 0  30 2.5 0  30.75 2.5 0  31.5 2.5 0  32.25 2.5 0  33 2.5 0  33.75 2.5 0  34.5 2.5 0  35.25 2.5 0  36 2.5 0  36.75 2.5 0  37.5 2.5 0  38.25 2.5 0  39 2.5 0  39.75 2.5 0  40.5 2.5 0  41.25 2.5 0  42 2.5 0  42.75 2.5 0  43.5 2.5 0  44.25 2.5 0  45 2.5 0  45.75 2.5 0  46.5 2.5 0  47.25 2.5 0  48 2.5 0  48.75 2.5 0  49.5 2.5 0  50.25 2.5 0  51 2.5 0  51.75 2.5 0  52.5 2.5 0  53.25 2.5 0  54 2.5 0  54.75 2.5 0  55.5 2.5 0  56.25 2.5 0  57 2.5 0  57.75 2.5 0  58.5 2.5 0  59.25 2.5 0  60 2.5 0  0 3 0  0.75 3 0  1.5 3 0  2.25 3 0  3 3 0  3.75 3 0  4.5 3 0  5.25 3 0  6 3 0  6.75 3 0  7.5 3 0  8.25 3 0  9 3 0  9.75 3 0  10.5 3 0  11.25 3 0  12 3 0  12.75 3 0  13.5 3 0  14.25 3 0  15 3 0  15.75 3 0  16.5 3 0  17.25 3 0  18 3 0  18.75 3 0  19.5 3 0  20.25 3 0  21 3 0  21.75 3 0  22.5 3 0  23.25 3 0  24 3 0  24.75 3 0  25.5 3 0  26.25 3 0  27 3 0  27.75 3 0  28.5 3 0  29.25 3 0  30 3 0  30.75 3 0  31.5 3 0  32.25 3 0  33 3 0  33.75 3 0  34.5 3 0  35.25 3 0  36 3 0  36.75 3 0  37.5 3 0  38.25 3 0  39 3 0  39.75 3 0  40.5 3 0  41.25 3 0  42 3 0  42.75 3 0  43.5 3 0  44.25 3 0  45 3 0  45.75 3 0  46.5 3 0  47.25 3 0  48 3 0  48.75 3 0  49.5 3 0  50.25 3 0  51 3 0  51.75 3 0  52.5 3 0  53.25 3 0  54 3 0  54.75 3 0  55.5 3 0  56.25 3 0  57 3 0  57.75 3 0  58.5 3 0  59.25 3 0  60 3 0  0 3.5 0  0.75 3.5 0  1.5 3.5 0  2.25 3.5 0  3 3.5 0  3.75 3.5 0  4.5 3.5 0  5.25 3.5 0  6 3.5 0  6.75 3.5 0  7.5 3.5 0  8.25 3.5 0  9 3.5 0  9.75 3.5 0  10.5 3.5 0  11.25 3.5 0  12 3.5 0  12.75 3.5 0  13.5 3.5 0  14.25 3.5 0  15 3.5 0  15.75 3.5 0  16.5 3.5 0  17.25 3.5 0  18 3.5 0  18.75 3.5 0  19.5 3.5 0  20.25 3.5 0  21 3.5 0  21.75 3.5 0  22.5 3.5 0  23.25 3.5 0  24 3.5 0  24.75 3.5 0  25.5 3.5 0  26.25 3.5 0  27 3.5 0  27.75 3.5 0  28.5 3.5 0  29.25 3.5 0  30 3.5 0  30.75 3.5 0  31.5 3.5 0  32.25 3.5 0  33 3.5 0  33.75 3.5 0  34.5 3.5 0  35.25 3.5 0  36 3.5 0  36.75 3.5 0  37.5 3.5 0  38.25 3.5 0  39 3.5 0  39.75 3.5 0  40.5 3.5 0  41.25 3.5 0  42 3.5 0  42.75 3.5 0  43.5 3.5 0  44.25 3.5 0  45 3.5 0  45.75 3.5 0  46.5 3.5 0  47.25 3.5 0  48 3.5 0  48.75 3.5 0  49.5 3.5 0  50.25 3.5 0  51 3.5 0  51.75 3.5 0  52.5 3.5 0  53.25 3.5 0  54 3.5 0  54.75 3.5 0  55.5 3.5 0  56.25 3.5 0  57 3.5 0  57.75 3.5 0  58.5 3.5 0  59.25 3.5 0  60 3.5 0  0 4 0  0.75 4 0  1.5 4 0  2.25 4 0  3 4 0  3.75 4 0  4.5 4 0  5.25 4 0  6 4 0  6.75 4 0  7.5 4 0  8.25 4 0  9 4 0  9.75 4 0  10.5 4 0  11.25 4 0  12 4 0  12.75 4 0  13.5 4 0  14.25 4 0  15 4 0  15.75 4 0  16.5 4 0  17.25 4 0  18 4 0  18.75 4 0  19.5 4 0  20.25 4 0  21 4 0  21.75 4 0  22.5 4 0  23.25 4 0  24 4 0  24.75 4 0  25.5 4 0  26.25 4 0  27 4 0  27.75 4 0  28.5 4 0  29.25 4 0  30 4 0  30.75 4 0  31.5 4 0  32.25 4 0  33 4 0  33.75 4 0  34.5 4 0  35.25 4 0  36 4 0  36.75 4 0  37.5 4 0  38.25 4 0  39 4 0  39.75 4 0  40.5 4 0  41.25 4 0  42 4 0  42.75 4 0  43.5 4 0  44.25 4 0  45 4 0  45.75 4 0  46.5 4 0  47.25 4 0  48 4 0  48.75 4 0  49.5 4 0  50.25 4 0  51 4 0  51.75 4 0  52.5 4 0  53.25 4 0  54 4 0  54.75 4 0  55.5 4 0  56.25 4 0  57 4 0  57.75 4 0  58.5 4 0  59.25 4 0  60 4 0  0.375 0.25 0  1.125 0.25 0  1.875 0.25 0  2.625 0.25 0  3.375 0.25 0  4.125 0.25 0  4.875 0.25 0  5.625 0.25 0  6.375 0.25 0  7.125 0.25 0  7.875 0.25 0  8.625 0.25 0  9.375 0.25 0  10.125 0.25 0  10.875 0.25 0  11.625 0.25 0  12.375 0.25 0  13.125 0.25 0  13.875 0.25 0  14.625 0.25 0  15.375 0.25 0  16.125 0.25 0  16.875 0.25 0  17.625 0.25 0  18.375 0.25 0  19.125 0.25 0  19.875 0.25 0  20.625 0.25 0  21.375 0.25 0  22.125 0.25 0  22.875 0.25 0  23.625 0.25 0  24.375 0.25 0  25.125 0.25 0  25.875 0.25 0  26.625 0.25 0  27.375 0.25 0  28.125 0.25 0  28.875 0.25 0  29.625 0.25 0  30.375 0.25 0  31.125 0.25 0  31.875 0.25 0  32.625 0.25 0  33.375 0.25 0  34.125 0.25 0  34.875 0.25 0  35.625 0.25 0  36.375 0.25 0  37.125 0.25 0  37.875 0.25 0  38.625 0.25 0  39.375 0.25 0  40.125 0.25 0  40.875 0.25 0  41.625 0.25 0  42.375 0.25 0  43.125 0.25 0  43.875 0.25 0  44.625 0.25 0  45.375 0.25 0  46.125 0.25 0  46.875 0.25 0  47.625 0.25 0  48.375 0.25 0  49.125 0.25 0  49.875 0.25 0  50.625 0.25 0  51.375 0.25 0  52.125 0.25 0  52.875 0.25 0  53.625 0.25 0  54.375 0.25 0  55.125 0.25 0  55.875 0.25 0  56.625 0.25 0  57.375 0.25 0  58.125 0.25 0  58.875 0.25 0  59.625 0.25 0  0.375 0.75 0  1.125 0.75 0  1.875 0.75 0  2.625 0.75 0  3.375 0.75 0  4.125 0.75 0  4.875 0.75 0  5.625 0.75 0  6.375 0.75 0  7.125 0.75 0  7.875 0.75 0  8.625 0.75 0  9.375 0.75 0  10.125 0.75 0  10.875 0.75 0  11.625 0.75 0  12.375 0.75 0  13.125 0.75 0  13.875 0.75 0  14.625 0.75 0  15.375 0.75 0  16.125 0.75 0  16.875 0.75 0  17.625 0.75 0  18.375 0.75 0  19.125 0.75 0  19.875 0.75 0  20.625 0.75 0  21.375 0.75 0  22.125 0.75 0  22.875 0.75 0  23.625 0.75 0  24.375 0.75 0  25.125 0.75 0  25.875 0.75 0  26.625 0.75 0  27.375 0.75 0  28.125 0.75 0  28.875 0.75 0  29.625 0.75 0  30.375 0.75 0  31.125 0.75 0  31.875 0.75 0  32.625 0.75 0  33.375 0.75 0  34.125 0.75 0  34.875 0.75 0  35.625 0.75 0  36.375 0.75 0  37.125 0.75 0  37.875 0.75 0  38.625 0.75 0  39.375 0.75 0  40.125 0.75 0  40
[...]
<PointData  Vectors="f_8-0"> 
<DataArray  type="Float64"  Name="f_8-0"  NumberOfComponents="3" format="ascii">1.3290783484956036e-10 -9.5986897290661970e-11 0.0000000000000000e+00  0.0000000000000000e+00 -6.6851569848117370e-11 0.0000000000000000e+00  5.6232834359883234e-09 4.6036142877498080e-09 0.0000000000000000e+00  5.8835865024327908e-09 -2.7279187559214541e-09 0.0000000000000000e+00  -4.3998716157915381e-08 1.6091273208562007e-08 0.0000000000000000e+00  2.6926971156308089e-08 3.7177681683914444e-10 0.0000000000000000e+00  3.9211049978600502e-08 -1.4437430039476852e-07 0.0000000000000000e+00  0.0000000000000000e+00 0.0000000000000000e+00 0.0000000000000000e+00  0.0000000000000000e+00 0.0000000000000000e+00 0.0000000000000000e+00  0.0000000000000000e+00 0.0000000000000000e+00 0.0000000000000000e+00  -4.0786194888749692e-08 1.2186886183199745e-08 0.0000000000000000e+00  -9.0336901968098726e-09 1.5253996167646598e-08 0.0000000000000000e+00  0.0000000000000000e+00 -2.0554530572170604e-10 0.0000000000000000e+00  0.0000000000000000e+00 -5.3142403647781509e-09 0.0000000000000000e+00  -2.6146793461775902e-09 4.9656025167155466e-10 0.0000000000000000e+00  1.4218185099203777e-07 -8.2599322704385043e-08 0.0000000000000000e+00  -1.3793102693681494e-08 -4.7559213310127650e-09 0.0000000000000000e+00  2.5646193502951877e-08 -4.1828855563557672e-10 0.0000000000000000e+00  5.3363349731799200e-09 1.4308927629471774e-09 0.0000000000000000e+00  0.0000000000000000e+00 0.0000000000000000e+00 0.0000000000000000e+00  0.0000000000000000e+00 -5.9055045899026039e-10 0.0000000000000000e+00  4.2310820097169441e-09 1.2764066873343349e-09 0.0000000000000000e+00  0.0000000000000000e+00 0.0000000000000000e+00 0.0000000000000000e+00  -1.3265695836899034e-07 4.5153573427575457e-08 0.0000000000000000e+00  -9.2070291469271314e-08 -1.1689167331661182e-08 0.0000000000000000e+00  3.2717368560434862e-08 2.9717349644466010e-08 0.0000000000000000e+00  -5.4673417454005901e-08 1.5316567060295454e-09 0.0000000000000000e+00  0.0000000000000000e+00 0.0000000000000000e+00 0.0000000000000000e+00  0.0000000000000000e+00 -6.2731229612824464e-10 0.0000000000000000e+00  0.0000000000000000e+00 0.0000000000000000e+00 0.0000000000000000e+00  -8.2281983831501321e-09 1.1302970429443312e-09 0.0000000000000000e+00  5.3472231363576324e-10 -1.4941283666866697e-10 0.0000000000000000e+00  -1.1687813504690862e-08 -4.2042042488085458e-08 0.0000000000000000e+00  5.1340060602602484e-09 9.4744846030656206e-09 0.0000000000000000e+00  0.0000000000000000e+00 1.3470619211919666e-08 0.0000000000000000e+00  1.0821167568344869e-08 2.7260610738445914e-08 0.0000000000000000e+00  7.5540942392400565e-09 2.9999110077164309e-08 0.0000000000000000e+00  1.7118047928622761e-08 7.3326216201752098e-08 0.0000000000000000e+00  0.0000000000000000e+00 0.0000000000000000e+00 0.0000000000000000e+00  0.0000000000000000e+00 7.0080185714422585e-11 0.0000000000000000e+00  3.4798144033584020e-09 1.0450049862804617e-09 0.0000000000000000e+00  2.9439931508566104e-08 -4.8805072689105490e-08 0.0000000000000000e+00  -4.5816724134440860e-07 -2.5248498172889108e-07 0.0000000000000000e+00  5.7712363680076064e-08 2.4512965499907683e-11 0.0000000000000000e+00  -3.0966555994342501e-08 1.2691233983334620e-08 0.0000000000000000e+00  -5.0176600344866022e-09 2.3823273859442147e-08 0.0000000000000000e+00  7.1945520589726460e-08 1.7134675217105995e-07 0.0000000000000000e+00  4.1200016919783370e-09 -1.2373192896676996e-09 0.0000000000000000e+00  5.3563035039374236e-08 -5.0813841650346199e-09 0.0000000000000000e+00  0.0000000000000000e+00 0.0000000000000000e+00 0.0000000000000000e+00  0.0000000000000000e+00 0.0000000000000000e+00 0.0000000000000000e+00  3.2240038518847046e-09 3.7548013362870998e-09 0.0000000000000000e+00  9.4293325063382215e-08 -7.9092319352803956e-09 0.0000000000000000e+00  0.0000000000000000e+00 0.0000000000000000e+00 0.0000000000000000e+00  7.7628297572777640e-10 5.9169652642039284e-09 0.0000000000000000e+00  -4.2068119234873878e-10 -8.3546578479592694e-10 0.0000000000000000e+00  -1.6467396753483685e-08 4.3605881882236972e-09 0.0000000000000000e+00  -2.1918979715514955e-08 5.9291185562810002e-09 0.0000000000000000e+00  0.0000000000000000e+00 0.0000000000000000e+00 0.0000000000000000e+00  0.0000000000000000e+00 0.0000000000000000e+00 0.0000000000000000e+00  3.4100263271882028e-07 1.5755132934895189e-08 0.0000000000000000e+00  0.0000000000000000e+00 2.1094061119572486e-10 0.0000000000000000e+00  -2.8480839558386053e-08 6.8701876252115733e-09 0.0000000000000000e+00  1.3839545807173346e-09 3.7028197215616035e-09 0.0000000000000000e+00  0.0000000000000000e+00 0.0000000000000000e+00 0.0000000000000000e+00  -2.6548839903460108e-07 9.5703431779339843e-08 0.0000000000000000e+00  0.0000000000000000e+00 2.0258009797035602e-11 0.0000000000000000e+00  -7.8543894643813609e-10 -3.2841444379946596e-09 0.0000000000000000e+00  -8.0995336401113014e-09 5.7617541084458656e-09 0.0000000000000000e+00  -1.1681881364527665e-08 1.0132850253126634e-07 0.0000000000000000e+00  0.0000000000000000e+00 4.7860916933354956e-10 0.0000000000000000e+00  -5.4833003576860026e-09 -7.3162186176623091e-10 0.0000000000000000e+00  -8.0496447976538477e-08 6.3321474714580182e-08 0.0000000000000000e+00  2.1040103168557642e-08 1.6484447600837881e-09 0.0000000000000000e+00  0.0000000000000000e+00 0.0000000000000000e+00 0.0000000000000000e+00  0.0000000000000000e+00 0.0000000000000000e+00 0.0000000000000000e+00  4.5930175468683627e-08 -1.2058684319370614e-07 0.0000000000000000e+00  0.0000000000000000e+00 0.0000000000000000e+00 0.0000000000000000e+00  0.0000000000000000e+00 0.0000000000000000e+00 0.0000000000000000e+00  0.0000000000000000e+00 -5.1213757153670423e-11 0.0000000000000000e+00  4.1510132363998645e-10 3.9638727821266313e-10 0.0000000000000000e+00  5.8084583859811199e+05 0.0000000000000000e+00 0.0000000000000000e+00  -4.2801333801506786e+04 -1.7173315384268292e+05 0.0000000000000000e+00  -8.8187898712307346e+04 -1.1026601394909632e+06 0.0000000000000000e+00  -1.5837007685916076e+05 9.6817980867912760e+05 0.0000000000000000e+00  5.9644970734950606e+04 1.0350612386356663e+06 0.0000000000000000e+00  -1.4149301929628495e+06 8.8086266507989727e+05 0.0000000000000000e+00  -5.6813370473499771e+05 5.0629431740935124e+05 0.0000000000000000e+00  -4.9600863831605139e+05 -4.9668427944341215e+05 0.0000000000000000e+00  1.6584730505651658e+05 -1.7421752879799800e+06 0.0000000000000000e+00  -1.2615762157483390e+06 -6.6318528502892295e+05 0.0000000000000000e+00  -7.6597349389396643e+05 2.6930640834278176e+04 0.0000000000000000e+00  -2.4191621743805674e+05 -1.0634761944598057e+05 0.0000000000000000e+00  6.4208760998912447e+05 -7.0529735601967829e+05 0.0000000000000000e+00  5.2812097049172851e+05 -8.3075516086062253e+05 0.0000000000000000e+00  -6.1280684776979673e+05 3.7938013171074766e+05 0.0000000000000000e+00  -2.5697146319738266e+05 -3.1677508439024468e+05 0.0000000000000000e+00  -1.2800825176400319e+06 -1.6795539744202634e+06 0.0000000000000000e+00  -5.1772454523149034e+05 -4.3127011205385398e+05 0.0000000000000000e+00  9.3911237060259248e+05 7.8851880321191787e+05 0.0000000000000000e+00  4.7232791338981129e+05 8.0865455533354881e+05 0.0000000000000000e+00  2.6587009418398439e+05 4.3066798792937159e+05 0.0000000000000000e+00  -5.3996040916912034e+03 -5.3380951291679626e+05 0.0000000000000000e+00  -5.0656492131776368e+05 -2.4017276073212081e+05 0.0000000000000000e+00  -1.0976242573206069e+04 -1.2751975038347818e+05 0.0000000000000000e+00  -6.6499882390349434e+04 2.7282640441408468e+05 0.0000000000000000e+00  3.8576322471188958e+05 1.2137214424030751e+06 0.0000000000000000e+00  1.7194505457127487e+05 -5.1845479993663251e+05 0.0000000000000000e+00  1.0388226021173061e+05 -2.8186745054670644e+05 0.0000000000000000e+00  1.0909509381651359e+06 1.7116031772835206e+04 0.0000000000000000e+00  -5.3185300189932098e+05 1.3297239040280454e+04 0.0000000000000000e+00  -6.2894950659242086e+05 1.2899777382489633e+05 0.0000000000000000e+00  1.3799543233655184e+05 1.8898259165350531e+05 0.0000000000000000e+00  1.8738771436829426e+05 6.3535549711248343e+04 0.0000000000000000e+00  -2.1485888695329145e+05 -4.9524097491829138e+05 0.0000000000000000e+00  -9.9766260569730087e+05 -6.5390339731201495e+05 0.0000000000000000e+00  -6.3660988674455567e+05 -7.5555395059405931e+05 0.0000000000000000e+00  6.8054099591943994e+05 -1.0336608299758958e+05 0.0000000000000000e+00  -1.0165538830282724e+06 -3.3979769157573028e+05 0.0000000000000000e+00  -1.5226356437637918e+06 -9.0157574898274906e+05 0.0000000000000000e+00  -1.3589987279039852e+06 -5.2477703628233157e+05 0.0000000000000000e+00  -2.0050567715020454e+06 -9.7430381593140587e+05 0.0000000000000000e+00  -1.2338597576980568e+06 4.0070223660090490e+05 0.0000000000000000e+00  -1.5788109774302188e+06 5.6768898359526822e+05 0.0000000000000000e+00  -5.2089873747169331e+05 -1.1030554151564708e+05 0.0000000000000000e+00  -5.0883605150737218e+05 -1.0609186957645658e+06 0.0000000000000000e+00  3.9770066173745005e+05 -3.2962428250055661e+05 0.0000000000000000e+00  2.3745018412182180e+05 -2.4189206865205721e+05 0.0000000000000000e+00  2.6447880634297821e+05 6.8285394415769877e+05 0.0000000000000000e+00  4.1173851972120814e+05 -7.4909143053646933e+05 0.0000000000000000e+00  -4.6109917901444173e+05 4.6082248287204636e+05 0.0000000000000000e+00  -6.4314477530100534e+05 -1.3157943138609242e+06 0.0000000000000000e+00  -8.1903343471344176e+05 -1.1261903631234323e+05 0.0000000000000000e+00  1.3064790244822830e+05 7.2146305122083123e+05 0.0000000000000000e+00  4.3770118082179880e+05 8.3957014970371709e+05 0.0000000000000000e+00  8.1590324886028294e+05 -2.2198645936269732e+05 0.0000000000000000e+00  -1.2707264471282813e+05 4.0868697052242432e+05 0.0000000000000000e+00  1.9299827649847893e+06 1.1236055973627521e+06 0.0000000000000000e+00  1.4782953884221296e+05 -1.0456468146057478e+05 0.0000000000000000e+00  -1.4942512697485145e+05 -7.5367122763298673e+05 0.0000000000000000e+00  3.6347792848577490e+05 -1.1796982376320822e+05 0.0000000000000000e+00  -8.6532507271336450e+05 -4.7241854321084375e+05 0.0000000000000000e+00  -5.0690687907471304e+05 5.7059660708379830e+04 0.0000000000000000e+00  -5.6088071621461026e+05 -2.0396861609176887e+05 0.0000000000000000e+00  1.0502527986659391e+06 8.8411280995676891e+04 0.0000000000000000e+00  -4.0137965017602182e+04 3.1416663565158127e+04 0.0000000000000000e+00  -1.0148773657154916e+06 4.8243465373872453e+05 0.0000000000000000e+00  -1.0678757911646368e+06 5.1447776414515293e+05 0.0000000000000000e+00  4.9631291154485615e+05 1.9588233864135793e+05 0.0000000000000000e+00  3.0776579708816350e+05 5.5501607251174131e+05 0.0000000000000000e+00  -1.6014134836851589e+06 -2.0660013591233543e+06 0.0000000000000000e+00  -4.9624313998097269e+05 2.5112284132922938e+05 0.0000000000000000e+00  -7.6570358561440441e+05 -7.0100462249569071e+05 0.0000000000000000e+00  8.0292288903142908e+05 6.8211229735947752e+04 0.0000000000000000e+00  1.3810708695533737e+06 -2.2522009628306758e+06 0.0000000000000000e+00  3.6596770330717496e+05 -2.8568742316933250e+05 0.0000000000000000e+00  -6.2948971474899421e+05 -1.9598778709266195e+05 0.0000000000000000e+00  1.0288600583679981e+05 -2.0279991528234936e+05 0.0000000000000000e+00  4.6935803041130782e+05 8.8232700217432011e+02 0.0000000000000000e+00  -7.9393162969594845e+05 1.7714488372586347e+05 0.0000000000000000e+00  -3.5356060935171542e+05 1.8720307776575853e+04 0.0000000000000000e+00  3.0203178842096339e+05 0.0000000000000000e+00 0.0000000000000000e+00  -5.6444551489148580e+05 -8.8838661187394116e-12 0.0000000000000000e+00  1.4360629922982333e+06 4.6156670627057040e+05 0.0000000000000000e+00  -1.2396743140082478e+06 -1.0974060383760014e+04 0.0000000000000000e+00  -2.9680952756066312e+05 1.2815230845643205e+06 0.0000000000000000e+00  -1.7373054039206279e+06 1.0031501056093350e+06 0.0000000000000000e+00  -9.4951358354996587e+05 4.3125549896057331e+04 0.0000000000000000e+00  -7.5117856626247789e+05 -3.2277992655452847e+04 0.0000000000000000e+00  8.1295406924519542e+04 1.7629494901941231e+05 0.0000000000000000e+00  -6.6958448909455865e+03 3.5067855910799658e+05 0.0000000000000000e+00  5.2809257889128174e+05 -7.7806203191375511e+05 0.0000000000000000e+00  -5.4413103805888875e+05 -1.3614455104889799e+05 0.0000000000000000e+00  -6.4812580380173895e+04 2.0771116627627707e+05 0.0000000000000000e+00  -4.8542979144474131e+05 -1.3223628652450496e+06 0.0000000000000000e+00  1.6056714046056400e+05 7.7090644814124273e+05 0.0000000000000000e+00  -4.3610519214341737e+05 3.1202217731332063e+05 0.0000000000000000e+00  -8.0059394136677275e+05 -1.0803995938193856e+06 0.0000000000000000e+00  1.0470050828124828e+06 -8.1275823124545312e+05 0.0000000000000000e+00  4.5955991962389916e+05 -2.1442067120395985e+05 0.0000000000000000e+00  9.9715243462741695e+04 3.9601417852881982e+05 0.0000000000000000e+00  -2.9183929957527708e+05 -4.7391940324584348e+05 0.0000000000000000e+00  -5.6428042433314130e+05 9.4589374687691787e+04 0.0000000000000000e+00  -2.1582295461022476e+05 3.7079936692237452e+05 0.0000000000000000e+00  4.1027496755496121e+05 -4.2702900746929593e+05 0.0000000000000000e+00  2.8918595761303095e+04 1.8524800135905269e+05 0.0000000000000000e+00  6.6869949726012448e+04 7.6499637531841733e+05 0.0000000000000000e+00  -7.8365882793089258e+04 -2.2394391115671393e+05 0.0000000000000000e+00  3.9987388539768133e+05 -3.7411918056008246e+04 0.0000000000000000e+00  2.7627460247162794e+05 4.4986565217029169e+05 0.0000000000000000e+00  7.5990963710896409e+04 -9.5687071267876949e+04 0.0000000000000000e+00  7.3596097317426326e+05 4.0590938827045204e+05 0.0000000000000000e+00  -9.1532761116711795e+05 -2.9931798530702869e+05 0.0000000000000000e+00  -1.1596587443136673e+05 -5.5186842053445138e+05 0.0000000000000000e+00  -9.1783657015312766e+05 3.8738089163306420e+05 0.0000000000000000e+00  -5.7826823477024352e+05 3.9449855806688860e+05 0.0000000000000000e+00  -1.2749944090036107e+06 -2.5937991932609675e+04 0.0000000000000000e+00  -1.6087747115916183e+05 -1.0269719480944225e+06 0.0000000000000000e+00  9.1918528844175089e+04 3.2757970956538309e+04 0.0000000000000000e+00  2.0361965963008706e+05 -7.0666693482431016e+04 0.0000000000000000e+00  -1.2595065941148535e+06 -2.7958638224510988e+05 0.0000000000000000e+00  9.0263525411118302e+04 -1.0390494549427107e+06 0.0000000000000000e+00  -6.9940118601371569e+05 -7.6838855192908231e+04 0.0000000000000000e+00  -1.0528941777377978e+06 -5.8434972479638550e+05 0.0000000000000000e+00  4.9790595583680720e+05 -7.1509684606345242e+05 0.0000000000000000e+00  8.7035128903035482e+05 -4.3539366840979393e+05 0.0000000000000000e+00  -4.9968896484396479e+05 1.7625521829857047e+04 0.0000000000000000e+00  4.5129598476917512e+04 -1.3028470089368233e+06 0.0000000000000000e+00  7.8152645674105047e+05 8.8706016489920521e+05 0.0000000000000000e+00  -1.0003725367535106e+05 -1.6095151855996964e+05 0.0000000000000000e+00  -4.1160361788398569e+05 1.0545734785277329e+06 0.0000000000000000e+00  -1.0666506687302117e+06 -4.1291982656267151e+05 0.0000000000000000e+00  -1.3798970114185310e+06 -5.9759270514403493e+05 0.0000000000000000e+00  3.1318716862507345e+05 8.2190494788919765e+04 0.0000000000000000e+00  -4.6266509607668809e+05 -5.8920905117156915e+05 0.0000000000000000e+00  9.4426186247948534e+05 -2.6730079857969307e+05 0.0000000000000000e+00  1.0767343291897574e+06 6.4264777885338430e+04 0.0000000000000000e+00  3.1833052475352638e+05 4.7757017731800937e+05 0.0000000000000000e+00  6.3674743271730875e+05 9.3992145105705853e+05 0.0000000000000000e+00  -3.0337083096365287e+05 2.1267944453682606e+06 0.0000000000000000e+00  3.4783977971603669e+05 -4.9253853618381912e+05 0.0000000000000000e+00  5.3868384525011665e+04 1.2498632280950069e+06 0.0000000000000000e+00  2.3415474637259412e+05 -1.0430956250099492e+06 0.0000000000000000e+00  -1.1896070284001522e+05 8.2928447306826129e+04 0.0000000000000000e+00  -1.2524665010135749e+06 1.0114104957853116e+06 0.0000000000000000e+00  -1.7960724482887634e+05 1.6584249706276579e+05 0.0000000000000000e+00  -3.2985636876596999e+05 1.6405688636993247e+06 0.0000000000000000e+00  4.7306204858332197e+05 1.0571348713109950e+06 0.0000000000000000e+00  -1.3791647753297517e+06 6.6609507134003937e+05 0.0000000000000000e+00  9.0273263133256510e+05 -1.6823235880596738e+04 0.0000000000000000e+00  1.2757288505141039e+06 -5.0480323222422105e+05 0.0000000000000000e+00  1.2987096089175159e+05 5.4977811298552864e+04 0.0000000000000000e+00  1.4555938629201546e+05 -1.3512280406712194e+06 0.0000000000000000e+00  2.8650973954211164e+05 3.9070208942097158e+05 0.0000000000000000e+00  2.0865289860521352e+06 -1.7276127645702730e+06 0.0000000000000000e+00  7.2794457769157004e+05 1.6466018018070874e+04 0.0000000000000000e+00  1.8086048064880155e+06 7.9056568607800116e+05 0.0000000000000000e+00  -8.3021260871388018e+05 1.3205166725341419e+06 0.0000000000000000e+00  -2.1099508991143745e+05 1.2146652520330234e+06 0.0000000000000000e+00  -5.1387966720460169e+05 -4.6411503660380939e+05 0.0000000000000000e+00  -5.6975417639348318e+05 3.8174692125493463e+05 0.0000000000000000e+00  -1.3127840209430289e+06 -3.8376477700922010e+05 0.0000000000000000e+00  -8.7370491350707540e+05 -2.8118991672667286e-10 0.0000000000000000e+00  5.4088375796817185e+04 0.0000000000000000e+00 0.0000000000000000e+00  8.1431006500451826e+05 1.2051700694079371e+06 0.0000000000000000e+00  1.3410369345789715e+06 -2.0299591562756986e+05 0.0000000000000000e+00  -2.2331890480800639e+06 1.0247403724238980e+06 0.0000000000000000e+00  4.1615809099600121e+05 1.0964836733625915e+06 0.0000000000000000e+00  -1.5412052457147843e+05 1.0600263552072414e+06 0.0000000000000000e+00  -7.8481507512599800e+05 1.1054887188294381e+06 0.0000000000000000e+00  -3.6218953281671437e+05 6.5522349143541662e+05 0.0000000000000000e+00  -1.0133705121871954e+06 -8.6386061643238470e+04 0.0000000000000000e+00  -5.4023411055497499e+05 -6.7879520483625273e+05 0.0000000000000000e+00  3.9366226593925606e+05 1.1127804228579770e+06 0.0000000000000000e+00  1.5762606173125471e+05 1.5076586124594302e+06 0.0000000000000000e+00  -6.1243554015932395e+05 -2.5365792013133477e+05 0.0000000000000000e+00  -2.1826549469433850e+05 2.3323314903863339e+05 0.0000000000000000e+00  8.2907671312448234e+04 3.8735343003905198e+05 0.0000000000000000e+00  4.8081501483054797e+05 -1.5899361318458826e+05 0.0000000000000000e+00  3.6769939123410452e+05 -3.9184903086251637e+05 0.0000000000000000e+00  6.3082138763796317e+05 -1.8876695964281276e+05 0.0000000000000000e+00  -3.0343022741741221e+05 1.1675494160593983e+06 0.0000000000000000e+00  -9.4950415891653160e+05 -3.1739611829419453e+04 0.0000000000000000e+00  9.9136317399557470e+05 -3.1632299744258047e+05 0.0000000000000000e+00  5.2335158738921286e+05 -2.8346140112341407e+04 0.0000000000000000e+00  -3.1181914203216871e+04 -8.6182627398962475e+04 0.0000000000000000e+00  1.1258110331207998e+06 -7.8835542099532089e+05 0.0000000000000000e+00  -6.3014399622927711e+05 1.4305110691576046e+06 0.0000000000000000e+00  2.4149337101885417e+05 1.7236472093206292e+05 0.0000000000000000e+00  2.8618493329345644e+05 -5.9876030555535003e+05 0.0000000000000000e+00  9.4508447620546758e+03 3.9017560602709075e+05 0.0000000000000000e+00  -1.0241146323730726e+06 -6.2479390176206257e+05 0.0000000000000000e+00  -6.8133604793409246e+05 3.0754939810740296e+05 0.0000000000000000e+00  -1.4620225087851883e+05 -8.0904237249530922e+05 0.0000000000000000e+00  -1.9337567940095165e+06 -7.5999840129994252e+05 0.0000000000000000e+00  -7.9106540063244104e+05 -2.2032208204014681e+05 0.0000000000000000e+00  3.2234279435090750e+04 -2.8965885149256606e+05 0.0000000000000000e+00  -5.7916333563350570e+04 -3.6723188095115981e+05 0.0000000000000000e+00  -3.5966023926140752e+05 1.9715114282686770e+05 0.0000000000000000e+00  2.0723660976680461e+05 -3.5312598550879338e+05 0.0000000000000000e+00  -6.6049681573846683e+04 3.62099