<?xml version="1.0"?>
<VTKFile type="UnstructuredGrid"  version="0.1"  >
<UnstructuredGrid>
<Piece  NumberOfPoints="1369" NumberOfCells="2560">
<Points>
<DataArray  type="Float64"  NumberOfComponents="3"  format="ascii">0 0 0  0.75 0 0  1.5 0 0  2.25 0 0  3 0 0  3.75 0 0  4.5 0 0  5.25 0 0  6 0 0  6.75 0 0  7.5 0 0  8.25 0 0  9 0 0  9.75 0 0  10.5 0 0  11.25 0 0  12 0 0  12.75 0 0  13.5 0 0  14.25 0 0  15 0 0  15.75 0 0  16.5 0 0  17.25 0 0  18 0 0  18.75 0 0  19.5 0 0  20.25 0 0  21 0 0  21.75 0 0  22.5 0 0  23.25 0 0  24 0 0  24.75 0 0  25.5 0 0  26.25 0 0  27 0 0  27.75 0 0  28.5 0 0  29.25 0 0  30 0 0  30.75 0 0  31.5 0 0  32.25 0 0  33 0 0  33.75 0 0  34.5 0 0  35.25 0 0  36 0 0  36.75 0 0  37.5 0 0  38.25 0 0  39 0 0  39.75 0 0  40.5 0 0  41.25 0 0  42 0 0  42.75 0 0  43.5 0 0  44.25 0 0  45 0 0  45.75 0 0  46.5 0 0  47.25 0 0  48 0 0  48.75 0 0  49.5 0 0  50.25 0 0  51 0 0  51.75 0 0  52.5 0 0  53.25 0 0  54 0 0  54.75 0 0  55.5 0 0  56.25 0 0  57 0 0  57.75 0 0  58.5 0 0  59.25 0 0  60 0 0  0 0.5 0  0.75 0.5 0  1.5 0.5 0  2.25 0.5 0  3 0.5 0  3.75 0.5 0  4.5 0.5 0  5.25 0.5 0  6 0.5 0  6.75 0.5 0  7.5 0.5 0  8.25 0.5 0  9 0.5 0  9.75 0.5 0  10.5 0.5 0  11.25 0.5 0  12 0.5 0  12.75 0.5 0  13.5 0.5 0  14.25 0.5 0  15 0.5 0  15.75 0.5 0  16.5 0.5 0  17.25 0.5 0  18 0.5 0  18.75 0.5 0  19.5 0.5 0  20.25 0.5 0  21 0.5 0  21.75 0.5 0  22.5 0.5 0  23.25 0.5 0  24 0.5 0  24.75 0.5 0  25.5 0.5 0  26.25 0.5 0  27 0.5 0  27.75 0.5 0  28.5 0.5 0  29.25 0.5 0  30 0.5 0  30.75 0.5 0  31.5 0.5 0  32.25 0.5 0  33 0.5 0  33.75 0.5 0  34.5 0.5 0  35.25 0.5 0  36 0.5 0  36.75 0.5 0  37.5 0.5 0  38.25 0.5 0  39 0.5 0  39.75 0.5 0  40.5 0.5 0  41.25 0.5 0  42 0.5 0  42.75 0.5 0  43.5 0.5 0  44.25 0.5 0  45 0.5 0  45.75 0.5 0  46.5 0.5 0  47.25 0.5 0  48 0.5 0  48.75 0.5 0  49.5 0.5 0  50.25 0.5 0  51 0.5 0  51.75 0.5 0  52.5 0.5 0  53.25 0.5 0  54 0.5 0  54.75 0.5 0  55.5 0.5 0  56.25 0.5 0  57 0.5 0  57.75 0.5 0  58.5 0.5 0  59.25 0.5 0  60 0.5 0  0 1 0  0.75 1 0  1.5 1 0  2.25 1 0  3 1 0  3.75 1 0  4.5 1 0  5.25 1 0  6 1 0  6.75 1 0  7.5 1 0  8.25 1 0  9 1 0  9.75 1 0  10.5 1 0  11.25 1 0  12 1 0  12.75 1 0  13.5 1 0  14.25 1 0  15 1 0  15.75 1 0  16.5 1 0  17.25 1 0  18 1 0  18.75 1 0  19.5 1 0  20.25 1 0  21 1 0  21.75 1 0  22.5 1 0  23.25 1 0  24 1 0  24.75 1 0  25.5 1 0  26.25 1 0  27 1 0  27.75 1 0  28.5 1 0  29.25 1 0  30 1 0  30.75 1 0  31.5 1 0  32.25 1 0  33 1 0  33.75 1 0  34.5 1 0  35.25 1 0  36 1 0  36.75 1 0  37.5 1 0  38.25 1 0  39 1 0  39.75 1 0  40.5 1 0  41.25 1 0  42 1 0  42.75 1 0  43.5 1 0  44.25 1 0  45 1 0  45.75 1 0  46.5 1 0  47.25 1 0  48 1 0  48.75 1 0  49.5 1 0  50.25 1 0  51 1 0  51.75 1 0  52.5 1 0  53.25 1 0  54 1 0  54.75 1 0  55.5 1 0  56.25 1 0  57 1 0  57.75 1 0  58.5 1 0  59.25 1 0  60 1 0  0 1.5 0  0.75 1.5 0  1.5 1.5 0  2.25 1.5 0  3 1.5 0  3.75 1.5 0  4.5 1.5 0  5.25 1.5 0  6 1.5 0  6.75 1.5 0  7.5 1.5 0  8.25 1.5 0  9 1.5 0  9.75 1.5 0  10.5 1.5 0  11.25 1.5 0  12 1.5 0  12.75 1.5 0  13.5 1.5 0  14.25 1.5 0  15 1.5 0  15.75 1.5 0  16.5 1.5 0  17.25 1.5 0  18 1.5 0  18.75 1.5 0  19.5 1.5 0  20.25 1.5 0  21 1.5 0  21.75 1.5 0  22.5 1.5 0  23.25 1.5 0  24 1.5 0  24.75 1.5 0  25.5 1.5 0  26.25 1.5 0  27 1.5 0  27.75 1.5 0  28.5 1.5 0  29.25 1.5 0  30 1.5 0  30.75 1.5 0  31.5 1.5 0  32.25 1.5 0  33 1.5 0  33.75 1.5 0  34.5 1.5 0  35.25 1.5 0  36 1.5 0  36.75 1.5 0  37.5 1.5 0  38.25 1.5 0  39 1.5 0  39.75 1.5 0  40.5 1.5 0  41.25 1.5 0  42 1.5 0  42.75 1.5 0  43.5 1.5 0  44.25 1.5 0  45 1.5 0  45.75 1.5 0  46.5 1.5 0  47.25 1.5 0  48 1.5 0  48.75 1.5 0  49.5 1.5 0  50.25 1.5 0  51 1.5 0  51.75 1.5 0  52.5 1.5 0  53.25 1.5 0  54 1.5 0  54.75 1.5 0  55.5 1.5 0  56.25 1.5 0  57 1.5 0  57.75 1.5 0  58.5 1.5 0  59.25 1.5 0  60 1.5 0  0 2 0  0.75 2 0  1.5 2 0  2.25 2 0  3 2 0  3.75 2 0  4.5 2 0  5.25 2 0  6 2 0  6.75 2 0  7.5 2 0  8.25 2 0  9 2 0  9.75 2 0  10.5 2 0  11.25 2 0  12 2 0  12.75 2 0  13.5 2 0  14.25 2 0  15 2 0  15.75 2 0  16.5 2 0  17.25 2 0  18 2 0  18.75 2 0  19.5 2 0  20.25 2 0  21 2 0  21.75 2 0  22.5 2 0  23.25 2 0  24 2 0  24.75 2 0  25.5 2 0  26.25 2 0  27 2 0  27.75 2 0  28.5 2 0  29.25 2 0  30 2 0  30.75 2 0  31.5 2 0  32.25 2 0  33 2 0  33.75 2 0  34.5 2 0  35.25 2 0  36 2 0  36.75 2 0  37.5 2 0  38.25 2 0  39 2 0  39.75 2 0  40.5 2 0  41.25 2 0  42 2 0  42.75 2 0  43.5 2 0  44.25 2 0  45 2 0  45.75 2 0  46.5 2 0  47.25 2 0  48 2 0  48.75 2 0  49.5 2 0  50.25 2 0  51 2 0  51.75 2 0  52.5 2 0  53.25 2 0  54 2 0  54.75 2 0  55.5 2 0  56.25 2 0  57 2 0  57.75 2 0  58.5 2 0  59.25 2 0  60 2 0  0 2.5 0  0.75 2.5 0  1.5 2.5 0  2.25 2.5 0  3 2.5 0  3.75 2.5 0  4.5 2.5 0  5.25 2.5 0  6 2.5 0  6.75 2.5 0  7.5 2.5 0  8.25 2.5 0  9 2.5 0  9.75 2.5 0  10.5 2.5 0  11.25 2.5 0  12 2.5 0  12.75 2.5 0  13.5 2.5 0  14.25 2.5 0  15 2.5 0  15.75 2.5 0  16.5 2.5 0  17.25 2.5 0  18 2.5 0  18.75 2.5 0  19.5 2.5 0  20.25 2.5 0  21 2.5 0  21.75 2.5 0  22.5 2.5 0  23.25 2.5 0  24 2.5 0  24.75 2.5 0  25.5 2.5 0  26.25 2.5 0  27 2.5 0  27.75 2.5 0  28.5 2.5 0  29.25 2.5 0  30 2.5 0  30.75 2.5 0  31.5 2.5 0  32.25 2.5 0  33 2.5 0  33.75 2.5 0  34.5 2.5 0  35.25 2.5 0  36 2.5 0  36.75 2.5 0  37.5 2.5 0  38.25 2.5 0  39 2.5 0  39.75 2.5 0  40.5 2.5 0  41.25 2.5 0  42 2.5 0  42.75 2.5 0  43.5 2.5 0  44.25 2.5 0  45 2.5 0  45.75 2.5 0  46.5 2.5 0  47.25 2.5 0  48 2.5 0  48.75 2.5 0  49.5 2.5 0  50.25 2.5 0  51 2.5 0  51.75 2.5 0  52.5 2.5 0  53.25 2.5 0  54 2.5 0  54.75 2.5 0  55.5 2.5 0  56.25 2.5 0  57 2.5 0  57.75 2.5 0  58.5 2.5 0  59.25 2.5 0  60 2.5 0  0 3 0  0.75 3 0  1.5 3 0  2.25 3 0  3 3 0  3.75 3 0  4.5 3 0  5.25 3 0  6 3 0  6.75 3 0  7.5 3 0  8.25 3 0  9 3 0  9.75 3 0  10.5 3 0  11.25 3 0  12 3 0  12.75 3 0  13.5 3 0  14.25 3 0  15 3 0  15.75 3 0  16.5 3 0  17.25 3 0  18 3 0  18.75 3 0  19.5 3 0  20.25 3 0  21 3 0  21.75 3 0  22.5 3 0  23.25 3 0  24 3 0  24.75 3 0  25.5 3 0  26.25 3 0  27 3 0  27.75 3 0  28.5 3 0  29.25 3 0  30 3 0  30.75 3 0  31.5 3 0  32.25 3 0  33 3 0  33.75 3 0  34.5 3 0  35.25 3 0  36 3 0  36.75 3 0  37.5 3 0  38.25 3 0  39 3 0  39.75 3 0  40.5 3 0  41.25 3 0  42 3 0  42.75 3 0  43.5 3 0  44.25 3 0  45 3 0  45.75 3 0  46.5 3 0  47.25 3 0  48 3 0  48.75 3 0  49.5 3 0  50.25 3 0  51 3 0  51.75 3 0  52.5 3 0  53.25 3 0  54 3 0  54.75 3 0  55.5 3 0  56.25 3 0  57 3 0  57.75 3 0  58.5 3 0  59.25 3 0  60 3 0  0 3.5 0  0.75 3.5 0  1.5 3.5 0  2.25 3.5 0  3 3.5 0  3.75 3.5 0  4.5 3.5 0  5.25 3.5 0  6 3.5 0  6.75 3.5 0  7.5 3.5 0  8.25 3.5 0  9 3.5 0  9.75 3.5 0  10.5 3.5 0  11.25 3.5 0  12 3.5 0  12.75 3.5 0  13.5 3.5 0  14.25 3.5 0  15 3.5 0  15.75 3.5 0  16.5 3.5 0  17.25 3.5 0  18 3.5 0  18.75 3.5 0  19.5 3.5 0  20.25 3.5 0  21 3.5 0  21.75 3.5 0  22.5 3.5 0  23.25 3.5 0  24 3.5 0  24.75 3.5 0  25.5 3.5 0  26.25 3.5 0  27 3.5 0  27.75 3.5 0  28.5 3.5 0  29.25 3.5 0  30 3.5 0  30.75 3.5 0  31.5 3.5 0  32.25 3.5 0  33 3.5 0  33.75 3.5 0  34.5 3.5 0  35.25 3.5 0  36 3.5 0  36.75 3.5 0  37.5 3.5 0  38.25 3.5 0  39 3.5 0  39.75 3.5 0  40.5 3.5 0  41.25 3.5 0  42 3.5 0  42.75 3.5 0  43.5 3.5 0  44.25 3.5 0  45 3.5 0  45.75 3.5 0  46.5 3.5 0  47.25 3.5 0  48 3.5 0  48.75 3.5 0  49.5 3.5 0  50.25 3.5 0  51 3.5 0  51.75 3.5 0  52.5 3.5 0  53.25 3.5 0  54 3.5 0  54.75 3.5 0  55.5 3.5 0  56.25 3.5 0  57 3.5 0  57.75 3.5 0  58.5 3.5 0  59.25 3.5 0  60 3.5 0  0 4 0  0.75 4 0  1.5 4 0  2.25 4 0  3 4 0  3.75 4 0  4.5 4 0  5.25 4 0  6 4 0  6.75 4 0  7.5 4 0  8.25 4 0  9 4 0  9.75 4 0  10.5 4 0  11.25 4 0  12 4 0  12.75 4 0  13.5 4 0  14.25 4 0  15 4 0  15.75 4 0  16.5 4 0  17.25 4 0  18 4 0  18.75 4 0  19.5 4 0  20.25 4 0  21 4 0  21.75 4 0  22.5 4 0  23.25 4 0  24 4 0  24.75 4 0  25.5 4 0  26.25 4 0  27 4 0  27.75 4 0  28.5 4 0  29.25 4 0  30 4 0  30.75 4 0  31.5 4 0  32.25 4 0  33 4 0  33.75 4 0  34.5 4 0  35.25 4 0  36 4 0  36.75 4 0  37.5 4 0  38.25 4 0  39 4 0  39.75 4 0  40.5 4 0  41.25 4 0  42 4 0  42.75 4 0  43.5 4 0  44.25 4 0  45 4 0  45.75 4 0  46.5 4 0  47.25 4 0  48 4 0  48.75 4 0  49.5 4 0  50.25 4 0  51 4 0  51.75 4 0  52.5 4 0  53.25 4 0  54 4 0  54.75 4 0  55.5 4 0  56.25 4 0  57 4 0  57.75 4 0  58.5 4 0  59.25 4 0  60 4 0  0.375 0.25 0  1.125 0.25 0  1.875 0.25 0  2.625 0.25 0  3.375 0.25 0  4.125 0.25 0  4.875 0.25 0  5.625 0.25 0  6.375 0.25 0  7.125 0.25 0  7.875 0.25 0  8.625 0.25 0  9.375 0.25 0  10.125 0.25 0  10.875 0.25 0  11.625 0.25 0  12.375 0.25 0  13.125 0.25 0  13.875 0.25 0  14.625 0.25 0  15.375 0.25 0  16.125 0.25 0  16.875 0.25 0  17.625 0.25 0  18.375 0.25 0  19.125 0.25 0  19.875 0.25 0  20.625 0.25 0  21.375 0.25 0  22.125 0.25 0  22.875 0.25 0  23.625 0.25 0  24.375 0.25 0  25.125 0.25 0  25.875 0.25 0  26.625 0.25 0  27.375 0.25 0  28.125 0.25 0  28.875 0.25 0  29.625 0.25 0  30.375 0.25 0  31.125 0.25 0  31.875 0.25 0  32.625 0.25 0  33.375 0.25 0  34.125 0.25 0  34.875 0.25 0  35.625 0.25 0  36.375 0.25 0  37.125 0.25 0  37.875 0.25 0  38.625 0.25 0  39.375 0.25 0  40.125 0.25 0  40.875 0.25 0  41.625 0.25 0  42.375 0.25 0  43.125 0.25 0  43.875 0.25 0  44.625 0.25 0  45.375 0.25 0  46.125 0.25 0  46.875 0.25 0  47.625 0.25 0  48.375 0.25 0  49.125 0.25 0  49.875 0.25 0  50.625 0.25 0  51.375 0.25 0  52.125 0.25 0  52.875 0.25 0  53.625 0.25 0  54.375 0.25 0  55.125 0.25 0  55.875 0.25 0  56.625 0.25 0  57.375 0.25 0  58.125 0.25 0  58.875 0.25 0  59.625 0.25 0  0.375 0.75 0  1.125 0.75 0  1.875 0.75 0  2.625 0.75 0  3.375 0.75 0  4.125 0.75 0  4.875 0.75 0  5.625 0.75 0  6.375 0.75 0  7.125 0.75 0  7.875 0.75 0  8.625 0.75 0  9.375 0.75 0  10.125 0.75 0  10.875 0.75 0  11.625 0.75 0  12.375 0.75 0  13.125 0.75 0  13.875 0.75 0  14.625 0.75 0  15.375 0.75 0  16.125 0.75 0  16.875 0.75 0  17.625 0.75 0  18.375 0.75 0  19.125 0.75 0  19.875 0.75 0  20.625 0.75 0  21.375 0.75 0  22.125 0.75 0  22.875 0.75 0  23.625 0.75 0  24.375 0.75 0  25.125 0.75 0  25.875 0.75 0  26.625 0.75 0  27.375 0.75 0  28.125 0.75 0  28.875 0.75 0  29.625 0.75 0  30.375 0.75 0  31.125 0.75 0  31.875 0.75 0  32.625 0.75 0  33.375 0.75 0  34.125 0.75 0  34.875 0.75 0  35.625 0.75 0  36.375 0.75 0  37.125 0.75 0  37.875 0.75 0  38.625 0.75 0  39.375 0.75 0  40.125 0.75 0  40
[...]
<PointData  Vectors="f_8-0"> 
<DataArray  type="Float64"  Name="f_8-0"  NumberOfComponents="3" format="ascii">1.5190820175924906e-10 -5.3773755567340385e-11 0.0000000000000000e+00  0.0000000000000000e+00 0.0000000000000000e+00 0.0000000000000000e+00  -5.1531900816433587e-08 4.8379244585897726e-09 0.0000000000000000e+00  0.0000000000000000e+00 0.0000000000000000e+00 0.0000000000000000e+00  -3.0719272887901730e-09 3.8687381343105632e-09 0.0000000000000000e+00  0.0000000000000000e+00 0.0000000000000000e+00 0.0000000000000000e+00  4.9719361104368689e-08 -1.0343841035130144e-07 0.0000000000000000e+00  2.8723536114334992e-10 -1.8256457450256586e-10 0.0000000000000000e+00  0.0000000000000000e+00 0.0000000000000000e+00 0.0000000000000000e+00  0.0000000000000000e+00 0.0000000000000000e+00 0.0000000000000000e+00  0.0000000000000000e+00 0.0000000000000000e+00 0.0000000000000000e+00  1.5632393286114322e-09 9.9453258314426033e-10 0.0000000000000000e+00  -2.9693034071991468e-09 7.9787033721962161e-10 0.0000000000000000e+00  1.6686610122986250e-09 9.3605137421253364e-09 0.0000000000000000e+00  0.0000000000000000e+00 0.0000000000000000e+00 0.0000000000000000e+00  0.0000000000000000e+00 0.0000000000000000e+00 0.0000000000000000e+00  0.0000000000000000e+00 0.0000000000000000e+00 0.0000000000000000e+00  3.2516515971378158e-09 -3.7534659430024968e-08 0.0000000000000000e+00  2.1521378235065019e-09 4.1371804960237450e-09 0.0000000000000000e+00  1.4375472771238424e-08 4.7111595426094457e-08 0.0000000000000000e+00  0.0000000000000000e+00 7.7163427339653700e-11 0.0000000000000000e+00  -1.5285818429272595e-09 -7.8988262945829792e-12 0.0000000000000000e+00  -7.9468794243735928e-11 0.0000000000000000e+00 0.0000000000000000e+00  -5.4021685175685557e-10 -1.4499489618160524e-09 0.0000000000000000e+00  0.0000000000000000e+00 0.0000000000000000e+00 0.0000000000000000e+00  -1.5040745389063731e-10 0.0000000000000000e+00 0.0000000000000000e+00  0.0000000000000000e+00 0.0000000000000000e+00 0.0000000000000000e+00  -6.3237091974115494e-10 -1.1159838009246893e-08 0.0000000000000000e+00  -6.2370818804513625e-09 -7.1768225853009063e-10 0.0000000000000000e+00  -2.7944216095324534e-09 7.4517819916643317e-09 0.0000000000000000e+00  0.0000000000000000e+00 0.0000000000000000e+00 0.0000000000000000e+00  0.0000000000000000e+00 -1.0871446840648772e-09 0.0000000000000000e+00  -4.6805587170769657e-11 2.9115143251500493e-12 0.0000000000000000e+00  -9.0964037355401729e-09 2.8607739931059987e-09 0.0000000000000000e+00  -6.9789382918888673e-09 -1.3920670123204706e-08 0.0000000000000000e+00  0.0000000000000000e+00 0.0000000000000000e+00 0.0000000000000000e+00  0.0000000000000000e+00 8.5832498467007016e-11 0.0000000000000000e+00  0.0000000000000000e+00 -2.5973530265422378e-10 0.0000000000000000e+00  -6.1248977140149227e-09 3.2820627853972544e-09 0.0000000000000000e+00  -7.2499943478810994e-09 -9.9140993105776123e-09 0.0000000000000000e+00  0.0000000000000000e+00 0.0000000000000000e+00 0.0000000000000000e+00  0.0000000000000000e+00 0.0000000000000000e+00 0.0000000000000000e+00  -4.6105181076364308e-10 0.0000000000000000e+00 0.0000000000000000e+00  0.0000000000000000e+00 8.7780816591283836e-10 0.0000000000000000e+00  -3.9898142816459161e-09 -1.6763039969842568e-10 0.0000000000000000e+00  0.0000000000000000e+00 0.0000000000000000e+00 0.0000000000000000e+00  0.0000000000000000e+00 6.5093768495583343e-09 0.0000000000000000e+00  -4.7042885055286303e-08 -4.7375345251227818e-09 0.0000000000000000e+00  -1.3982760953796308e-08 -3.4039167417405496e-08 0.0000000000000000e+00  0.0000000000000000e+00 -5.2342953699504613e-09 0.0000000000000000e+00  2.4951361316109513e-09 6.2466574667685115e-09 0.0000000000000000e+00  -4.0527216927641745e-09 -1.9879708740245359e-08 0.0000000000000000e+00  0.0000000000000000e+00 -2.7160723310652438e-10 0.0000000000000000e+00  -5.0306675842858411e-09 -4.2303899441311503e-10 0.0000000000000000e+00  2.0565510611704976e-08 3.7428050589271630e-09 0.0000000000000000e+00  1.4123499894982543e-08 -8.7149416071633043e-10 0.0000000000000000e+00  0.0000000000000000e+00 0.0000000000000000e+00 0.0000000000000000e+00  0.0000000000000000e+00 0.0000000000000000e+00 0.0000000000000000e+00  -4.4376187841842594e-09 -9.5785387514149473e-09 0.0000000000000000e+00  -4.1232484802963425e-09 -3.4381590956163970e-09 0.0000000000000000e+00  -1.2185983357750242e-08 -9.5955313977432890e-09 0.0000000000000000e+00  -2.8887720408279873e-09 -1.1139682820230430e-08 0.0000000000000000e+00  0.0000000000000000e+00 0.0000000000000000e+00 0.0000000000000000e+00  1.7302159537610766e-10 4.5747739173068024e-11 0.0000000000000000e+00  0.0000000000000000e+00 0.0000000000000000e+00 0.0000000000000000e+00  4.7662823408581175e-09 -3.5930711089203782e-08 0.0000000000000000e+00  4.6445162099554876e-09 -1.2267110330810053e-08 0.0000000000000000e+00  -1.5760766812572321e-08 -1.1571947873850131e-09 0.0000000000000000e+00  0.0000000000000000e+00 0.0000000000000000e+00 0.0000000000000000e+00  0.0000000000000000e+00 0.0000000000000000e+00 0.0000000000000000e+00  0.0000000000000000e+00 0.0000000000000000e+00 0.0000000000000000e+00  -1.9470084269254566e-09 1.0401945207569325e-09 0.0000000000000000e+00  0.0000000000000000e+00 0.0000000000000000e+00 0.0000000000000000e+00  -3.1332869441416630e-08 7.4947615611513395e-08 0.0000000000000000e+00  0.0000000000000000e+00 0.0000000000000000e+00 0.0000000000000000e+00  2.9387226693232348e-09 -3.3321405538067904e-09 0.0000000000000000e+00  6.9432560139681071e-09 2.7238248442916350e-09 0.0000000000000000e+00  -1.1405928913037763e-08 -1.0902717678408159e-08 0.0000000000000000e+00  0.0000000000000000e+00 1.1229276773541619e-09 0.0000000000000000e+00  0.0000000000000000e+00 0.0000000000000000e+00 0.0000000000000000e+00  0.0000000000000000e+00 -9.2293906194633793e-12 0.0000000000000000e+00  3.0862870689948679e+04 0.0000000000000000e+00 0.0000000000000000e+00  -7.8316969576014162e+04 6.6489209614390362e+04 0.0000000000000000e+00  1.4057751805062543e+05 -3.3200119002633764e+04 0.0000000000000000e+00  2.0884426949849611e+04 -2.9176758700624871e+05 0.0000000000000000e+00  -8.2227763822630135e+04 6.6854613794147270e+04 0.0000000000000000e+00  9.3914306502308266e+05 1.1438244483467242e+05 0.0000000000000000e+00  -4.0157381033776364e+04 2.5540342535273306e+05 0.0000000000000000e+00  9.9979712559174674e+04 5.4445667355060030e+05 0.0000000000000000e+00  2.5075210734164147e+05 7.5872736570624227e+05 0.0000000000000000e+00  4.7731037116700294e+05 2.0111257481295822e+05 0.0000000000000000e+00  2.6231018397868599e+05 -2.3270570445854211e+05 0.0000000000000000e+00  3.2982323083934741e+05 -3.4203525360406966e+04 0.0000000000000000e+00  1.2896469347260772e+05 -2.1713247182910203e+05 0.0000000000000000e+00  2.1708077761513073e+05 -9.5779381733561895e+04 0.0000000000000000e+00  2.5083810372074263e+05 1.0457924361805331e+05 0.0000000000000000e+00  1.2723700360112207e+05 -1.1456729817011488e+05 0.0000000000000000e+00  3.8061551438177295e+05 3.5716779157614236e+05 0.0000000000000000e+00  2.8349745950594785e+04 4.7714001187001209e+04 0.0000000000000000e+00  1.2078234080445613e+03 -9.0235731532689271e+04 0.0000000000000000e+00  2.0294034521453097e+05 -1.6565976797168260e+05 0.0000000000000000e+00  2.0545769137465081e+05 -1.8873128276110737e+05 0.0000000000000000e+00  2.0875351256190409e+05 7.8967704578425342e+04 0.0000000000000000e+00  1.3997778323170432e+05 2.3566892511836212e+05 0.0000000000000000e+00  3.5762956517554796e+05 -3.4743434471001360e+05 0.0000000000000000e+00  3.0868643678059865e+05 3.7109330718424928e+04 0.0000000000000000e+00  -4.0033072766252258e+03 -2.8562415535578149e+05 0.0000000000000000e+00  6.8492321181686333e+04 3.0077698890752060e+05 0.0000000000000000e+00  3.2262961138817784e+05 1.0824344716796308e+05 0.0000000000000000e+00  -3.5024243906675267e+05 -5.6758159949225505e+04 0.0000000000000000e+00  -3.2186606409977358e+04 5.0464250112351488e+04 0.0000000000000000e+00  5.9591442978272782e+04 -1.6664634226706446e+05 0.0000000000000000e+00  -1.1751519495803484e+05 7.2197221955173896e+04 0.0000000000000000e+00  3.4180237590546510e+05 -3.3234624296366418e+05 0.0000000000000000e+00  -9.9269432887001822e+04 1.8866075944774560e+05 0.0000000000000000e+00  1.3653782715114541e+05 1.6779146789491331e+05 0.0000000000000000e+00  8.9692554529134213e+04 1.1238259011390526e+05 0.0000000000000000e+00  -1.1101040495392955e+05 6.4376005456744417e+04 0.0000000000000000e+00  3.2341416909638135e+05 3.4878025285766730e+03 0.0000000000000000e+00  2.1107508494882630e+04 2.4602563056907538e+05 0.0000000000000000e+00  1.3469398554778748e+05 1.5256873789079723e+05 0.0000000000000000e+00  -7.7063272117255794e+04 4.6431252714495838e+05 0.0000000000000000e+00  -1.0964038845534131e+04 -5.0689563915620116e+05 0.0000000000000000e+00  -1.0801101335560135e+05 2.1913579704015268e+05 0.0000000000000000e+00  -1.7108106871156828e+05 -3.3097380833179828e+04 0.0000000000000000e+00  9.1168029589068305e+04 6.6702119773340470e+04 0.0000000000000000e+00  -9.2860666990237631e+04 3.3771207153780316e+05 0.0000000000000000e+00  -1.1061799327152463e+05 3.6534291729558585e+05 0.0000000000000000e+00  2.1570769161967171e+05 1.1102990591463381e+05 0.0000000000000000e+00  -2.6707986274490255e+05 2.1435432397707060e+05 0.0000000000000000e+00  1.0421397837070430e+05 -2.5564563720856360e+05 0.0000000000000000e+00  3.4163491576809762e+05 1.7826214700424985e+05 0.0000000000000000e+00  4.8859901943132200e+05 -2.1566114457215753e+05 0.0000000000000000e+00  -3.3277770593320456e+05 -2.9764976778423053e+05 0.0000000000000000e+00  -1.5283140965947058e+05 -1.0726951153637959e+05 0.0000000000000000e+00  2.4778461771681803e+05 -1.9341337832863166e+05 0.0000000000000000e+00  4.6136138130565768e+05 -1.0640146190847852e+05 0.0000000000000000e+00  -1.0626275476349221e+05 -4.3086960765230277e+05 0.0000000000000000e+00  -1.4289795795122016e+05 -1.5438219405726090e+05 0.0000000000000000e+00  -1.2358260218934517e+05 -2.7745851393979217e+05 0.0000000000000000e+00  -2.2069615399606005e+05 4.3116526705844532e+04 0.0000000000000000e+00  1.0930235032109804e+05 -2.4163425254853241e+05 0.0000000000000000e+00  -1.2371377969695299e+05 -3.5445416072544554e+05 0.0000000000000000e+00  2.6500299325120857e+05 -2.8606356163677276e+05 0.0000000000000000e+00  -3.1292282445259107e+05 5.7031669846467127e+05 0.0000000000000000e+00  -1.0919192717541868e+05 1.4684455568518004e+05 0.0000000000000000e+00  5.8146850904556643e+05 1.0221465364397289e+04 0.0000000000000000e+00  5.6124102693670150e+05 2.5732027373078509e+05 0.0000000000000000e+00  -6.0323604202988138e+05 2.0158657097920432e+05 0.0000000000000000e+00  -1.1273503387104010e+05 -2.5155391393719317e+05 0.0000000000000000e+00  8.1797706619741744e+05 1.3840720084184487e+05 0.0000000000000000e+00  6.2246663854386413e+05 -1.3066054816510376e+05 0.0000000000000000e+00  1.4026549060355723e+05 -1.0741921068198073e+04 0.0000000000000000e+00  2.5378130782572573e+05 -4.6081643561857280e+04 0.0000000000000000e+00  -4.4224052594241628e+04 3.1578687988496537e+05 0.0000000000000000e+00  1.2702580639014537e+05 -6.9101483323857246e+04 0.0000000000000000e+00  -7.3952482948604709e+04 -3.6963520846457552e+05 0.0000000000000000e+00  -1.4221045025836068e+05 -1.2344606446648108e+05 0.0000000000000000e+00  -2.6863508028525830e+05 6.2236937899590834e+04 0.0000000000000000e+00  1.9003515659761606e+05 2.4369436181070626e+05 0.0000000000000000e+00  2.1022128283040953e+05 9.3430220406184453e+03 0.0000000000000000e+00  -2.6504323298690459e+04 -1.7999960197783313e-11 0.0000000000000000e+00  1.7812837264737551e+05 -1.9131013096494011e-11 0.0000000000000000e+00  5.7491702272557130e+04 2.3771822285325575e+05 0.0000000000000000e+00  4.9129162632065732e+05 -1.2434425155342809e+04 0.0000000000000000e+00  -2.1767897036345737e+04 -2.5702599551671438e+05 0.0000000000000000e+00  4.0364895047446969e+05 6.6657407342399587e+04 0.0000000000000000e+00  4.4635288052408613e+05 2.2164079136504943e+05 0.0000000000000000e+00  -1.4765233032556312e+05 -1.8979145165931984e+05 0.0000000000000000e+00  -5.5212024210883724e+05 3.7554399892201480e+04 0.0000000000000000e+00  -8.0651450026417733e+04 2.2572233337287727e+05 0.0000000000000000e+00  -6.5108342412306221e+04 1.4093701317599244e+05 0.0000000000000000e+00  3.0258563040924323e+05 2.1366676105605869e+05 0.0000000000000000e+00  -2.3811097647711504e+05 1.5970469118837884e+05 0.0000000000000000e+00  1.4419372529855742e+04 4.4776914813279273e+05 0.0000000000000000e+00  7.1589169347098112e+04 -1.2996866200759995e+05 0.0000000000000000e+00  -6.1545285703823010e+03 1.0906680091826007e+05 0.0000000000000000e+00  4.8648058712952520e+05 7.0679561626722175e+05 0.0000000000000000e+00  -2.7312483618523920e+05 -2.5782491926877457e+05 0.0000000000000000e+00  -1.6526803845239014e+05 -3.4875085459317022e+05 0.0000000000000000e+00  -6.1683842222219355e+04 -7.6312640207003815e+03 0.0000000000000000e+00  2.2337350651179222e+05 3.2808780870038312e+05 0.0000000000000000e+00  -6.9373046834703491e+03 -7.0066985775130990e+04 0.0000000000000000e+00  1.3217329033002388e+05 1.7162328355443527e+05 0.0000000000000000e+00  3.5512486078916315e+05 4.5908477198591005e+04 0.0000000000000000e+00  3.3671282549507171e+05 4.9670871757145520e+04 0.0000000000000000e+00  -8.0718680987206084e+04 1.6063700941306139e+04 0.0000000000000000e+00  -1.9247700935343030e+05 5.9280942587845173e+04 0.0000000000000000e+00  -1.0939810414953114e+05 5.7842255222779175e+05 0.0000000000000000e+00  -1.4460969252333915e+05 -1.1614916193327552e+05 0.0000000000000000e+00  -4.9130184111073489e+04 2.9717384194441129e+04 0.0000000000000000e+00  -8.2597266779649435e+04 -2.0088687751504502e+05 0.0000000000000000e+00  -1.3748412757094114e+05 -1.7057788134795867e+05 0.0000000000000000e+00  1.2479002819590228e+05 1.4614316372082945e+04 0.0000000000000000e+00  1.5834283946925547e+05 -2.9576058006456762e+05 0.0000000000000000e+00  3.1316932991613809e+05 -2.2139588682564339e+05 0.0000000000000000e+00  3.1751626706979162e+05 -2.2320573456156516e+05 0.0000000000000000e+00  2.3737300035317213e+05 7.1617455859665715e+04 0.0000000000000000e+00  2.3312556584999419e+05 1.3918626027337552e+05 0.0000000000000000e+00  1.8147870960559079e+05 -6.0151130327639239e+03 0.0000000000000000e+00  1.7832507689058763e+05 4.1613670239885701e+04 0.0000000000000000e+00  -7.6313434919986234e+04 4.1562685455150704e+05 0.0000000000000000e+00  3.5787449278804845e+04 3.1904696595769428e+05 0.0000000000000000e+00  3.1513536580161333e+04 6.5169606768446160e+04 0.0000000000000000e+00  -3.5516102793541603e+05 4.7787326328429081e+04 0.0000000000000000e+00  -8.4674498752254367e+04 -6.6111784651530703e+04 0.0000000000000000e+00  1.1093095815845250e+05 -1.0874382516376705e+05 0.0000000000000000e+00  9.0562247828568507e+04 7.3843576163730177e+04 0.0000000000000000e+00  -1.4288451732335336e+05 -3.1399508925111149e+05 0.0000000000000000e+00  -1.1073371540810657e+05 1.8139889744193741e+05 0.0000000000000000e+00  1.5997405738884539e+05 -1.4426259231931320e+05 0.0000000000000000e+00  5.2015102221627574e+04 -5.9678691835938676e+04 0.0000000000000000e+00  -3.0063650107193531e+04 -7.6068892120465698e+03 0.0000000000000000e+00  1.0623239727159923e+05 -6.4764920482986752e+04 0.0000000000000000e+00  -2.7133260648161679e+05 3.8638962334316823e+05 0.0000000000000000e+00  -5.5041340657919180e+05 1.0863406845585415e+05 0.0000000000000000e+00  9.3871384087581639e+04 3.2940393652023078e+04 0.0000000000000000e+00  1.0531221455194371e+04 -2.3198408733802574e+05 0.0000000000000000e+00  1.6399219973808242e+05 1.2956820870588321e+05 0.0000000000000000e+00  1.1791414453677753e+05 -2.7147309910740185e+05 0.0000000000000000e+00  -1.9013249060741131e+05 8.5441079295141462e+04 0.0000000000000000e+00  1.6321019111455718e+05 -3.0328432525727083e+05 0.0000000000000000e+00  -1.9853282863152018e+05 1.5519962476729712e+05 0.0000000000000000e+00  3.7626110907295416e+05 -2.2290593751535227e+05 0.0000000000000000e+00  2.4388696879154950e+05 -1.4822745209473901e+05 0.0000000000000000e+00  4.8709530651475093e+05 -1.2522064407129248e+05 0.0000000000000000e+00  4.3917451098420052e+05 -4.9669943891129980e+05 0.0000000000000000e+00  9.5922900061013584e+04 -6.6347416296292352e+05 0.0000000000000000e+00  5.4125007332947361e+05 7.8657930940516366e+04 0.0000000000000000e+00  7.1607155773967656e+05 1.0950058139892334e+05 0.0000000000000000e+00  -1.0011912840310434e+06 -2.0021631488672423e+05 0.0000000000000000e+00  4.7364566420797011e+04 -2.0738480392962904e+05 0.0000000000000000e+00  -1.6696909426352853e+05 1.3011409126820411e+05 0.0000000000000000e+00  6.8931559695863351e+05 -4.7847461071650579e+05 0.0000000000000000e+00  -1.1244242700947497e+05 2.2182750522560457e+05 0.0000000000000000e+00  2.6176558158974571e+05 8.4317708361782134e+04 0.0000000000000000e+00  -2.8415752838775940e+05 -1.2131870178314166e+05 0.0000000000000000e+00  2.4496668670453510e+05 -2.0771452124966093e+05 0.0000000000000000e+00  -2.1337717586080663e+05 -4.3475483993184869e+05 0.0000000000000000e+00  1.3485648020899422e+04 -1.2349140217765803e+05 0.0000000000000000e+00  1.6892532337675287e+05 2.8649656085411529e+05 0.0000000000000000e+00  2.3630050781807575e+04 2.0126957651870800e+05 0.0000000000000000e+00  7.7736139840954740e+04 0.0000000000000000e+00 0.0000000000000000e+00  -4.2652124176665128e+05 0.0000000000000000e+00 0.0000000000000000e+00  2.0501745276559982e+05 -2.1070580899737001e+05 0.0000000000000000e+00  -4.1384716526985768e+05 7.9411535003459605e+04 0.0000000000000000e+00  5.4971635442068975e+05 -1.9062677877321490e+05 0.0000000000000000e+00  -1.2751458967194014e+05 -1.2396105755869469e+05 0.0000000000000000e+00  2.7385810154069844e+05 4.1558178919601669e+04 0.0000000000000000e+00  -1.4505972992098832e+05 5.7285756753917649e+03 0.0000000000000000e+00  5.4814704450658173e+05 -7.3823001758469956e+05 0.0000000000000000e+00  3.4794022349838453e+05 2.5223126958784086e+05 0.0000000000000000e+00  -4.3623383956377211e+03 3.1855482538984503e+04 0.0000000000000000e+00  -4.2238495465157559e+05 -7.3746599887549120e+04 0.0000000000000000e+00  -1.1230516949579139e+05 -2.2236809670906665e+05 0.0000000000000000e+00  1.1533771043672631e+05 6.3402125820767287e+04 0.0000000000000000e+00  -4.2100326647185997e+04 5.3319218629625057e+03 0.0000000000000000e+00  -1.4169050253441944e+05 -2.9373393620184902e+05 0.0000000000000000e+00  2.2610895448005930e+05 8.1767836400605709e+04 0.0000000000000000e+00  3.6853652332162496e+05 6.8829572513709631e+04 0.0000000000000000e+00  -4.1993155250428460e+05 -2.6660627251772478e+05 0.0000000000000000e+00  1.5112513363967161e+05 -2.3433694378329540e+05 0.0000000000000000e+00  5.8333051922657149e+04 1.7473838982992072e+05 0.0000000000000000e+00  2.9318172260235657e+05 -5.6769008767744519e+04 0.0000000000000000e+00  9.1636559014158673e+04 -1.8823129834536440e+05 0.0000000000000000e+00  6.3343104339224468e+04 -1.3042347326559514e+05 0.0000000000000000e+00  1.7271606713251088e+03 2.6598865150367218e+05 0.0000000000000000e+00  -1.2780400963794319e+05 -2.4717299787901615e+05 0.0000000000000000e+00  5.5303384866884378e+04 -1.1878744970406825e+05 0.0000000000000000e+00  -2.6552222956805315e+05 3.2909027432228194e+05 0.0000000000000000e+00  3.5217081206893112e+04 7.7867188224734666e+04 0.0000000000000000e+00  1.9018927516177011e+05 3.9874543418896332e+05 0.0000000000000000e+00  -3.2497173809689126e+05 -2.7126468077350309e+05 0.0000000000000000e+00  7.5021676234946193e+04 6.0676681246715591e+04 0.0000000000000000e+00  8.8474721281686274e+04 -1.4915832969867150e+05 0.0000000000000000e+00  1.5000501631135115e+05 1.1223040647933036e+05 0.0000000000000000e+00  8.4420214563787114e+04 -1.2195627038170025e+05 0.0000000000000000e+00  1.3002920876087421e+05 -7.1039069026060213e+04 0.0000000000000000e+00  6.4935333828827475e+04 -6.5892310468645213e+04 0.0000000000000000e+00  2.4959228814614960e+05 1.9523138205953824e+05 0.0000000000000000e+00  3.8996047874663433e+05 1.3431742774825930e+05 0.00000000000