<?xml version="1.0"?>
<VTKFile type="UnstructuredGrid"  version="0.1"  >
<UnstructuredGrid>
<Piece  NumberOfPoints="1369" NumberOfCells="2560">
<Points>
<DataArray  type="Float64"  NumberOfComponents="3"  format="ascii">0 0 0  0.75 0 0  1.5 0 0  2.25 0 0  3 0 0  3.75 0 0  4.5 0 0  5.25 0 0  6 0 0  6.75 0 0  7.5 0 0  8.25 0 0  9 0 0  9.75 0 0  10.5 0 0  11.25 0 0  12 0 0  12.75 0 0  13.5 0 0  14.25 0 0  15 0 0  15.75 0 0  16.5 0 0  17.25 0 0  18 0 0  18.75 0 0  19.5 0 0  20.25 0 0  21 0 0  21.75 0 0  22.5 0 0  23.25 0 0  24 0 0  24.75 0 0  25.5 0 0  26.25 0 0  27 0 0  27.75 0 0  28.5 0 0  29.25 0 0  30 0 0  30.75 0 0  31.5 0 0  32.25 0 0  33 0 0  33.75 0 0  34.5 0 0  35.25 0 0  36 0 0  36.75 0 0  37.5 0 0  38.25 0 0  39 0 0  39.75 0 0  40.5 0 0  41.25 0 0  42 0 0  42.75 0 0  43.5 0 0  44.25 0 0  45 0 0  45.75 0 0  46.5 0 0  47.25 0 0  48 0 0  48.75 0 0  49.5 0 0  50.25 0 0  51 0 0  51.75 0 0  52.5 0 0  53.25 0 0  54 0 0  54.75 0 0  55.5 0 0  56.25 0 0  57 0 0  57.75 0 0  58.5 0 0  59.25 0 0  60 0 0  0 0.5 0  0.75 0.5 0  1.5 0.5 0  2.25 0.5 0  3 0.5 0  3.75 0.5 0  4.5 0.5 0  5.25 0.5 0  6 0.5 0  6.75 0.5 0  7.5 0.5 0  8.25 0.5 0  9 0.5 0  9.75 0.5 0  10.5 0.5 0  11.25 0.5 0  12 0.5 0  12.75 0.5 0  13.5 0.5 0  14.25 0.5 0  15 0.5 0  15.75 0.5 0  16.5 0.5 0  17.25 0.5 0  18 0.5 0  18.75 0.5 0  19.5 0.5 0  20.25 0.5 0  21 0.5 0  21.75 0.5 0  22.5 0.5 0  23.25 0.5 0  24 0.5 0  24.75 0.5 0  25.5 0.5 0  26.25 0.5 0  27 0.5 0  27.75 0.5 0  28.5 0.5 0  29.25 0.5 0  30 0.5 0  30.75 0.5 0  31.5 0.5 0  32.25 0.5 0  33 0.5 0  33.75 0.5 0  34.5 0.5 0  35.25 0.5 0  36 0.5 0  36.75 0.5 0  37.5 0.5 0  38.25 0.5 0  39 0.5 0  39.75 0.5 0  40.5 0.5 0  41.25 0.5 0  42 0.5 0  42.75 0.5 0  43.5 0.5 0  44.25 0.5 0  45 0.5 0  45.75 0.5 0  46.5 0.5 0  47.25 0.5 0  48 0.5 0  48.75 0.5 0  49.5 0.5 0  50.25 0.5 0  51 0.5 0  51.75 0.5 0  52.5 0.5 0  53.25 0.5 0  54 0.5 0  54.75 0.5 0  55.5 0.5 0  56.25 0.5 0  57 0.5 0  57.75 0.5 0  58.5 0.5 0  59.25 0.5 0  60 0.5 0  0 1 0  0.75 1 0  1.5 1 0  2.25 1 0  3 1 0  3.75 1 0  4.5 1 0  5.25 1 0  6 1 0  6.75 1 0  7.5 1 0  8.25 1 0  9 1 0  9.75 1 0  10.5 1 0  11.25 1 0  12 1 0  12.75 1 0  13.5 1 0  14.25 1 0  15 1 0  15.75 1 0  16.5 1 0  17.25 1 0  18 1 0  18.75 1 0  19.5 1 0  20.25 1 0  21 1 0  21.75 1 0  22.5 1 0  23.25 1 0  24 1 0  24.75 1 0  25.5 1 0  26.25 1 0  27 1 0  27.75 1 0  28.5 1 0  29.25 1 0  30 1 0  30.75 1 0  31.5 1 0  32.25 1 0  33 1 0  33.75 1 0  34.5 1 0  35.25 1 0  36 1 0  36.75 1 0  37.5 1 0  38.25 1 0  39 1 0  39.75 1 0  40.5 1 0  41.25 1 0  42 1 0  42.75 1 0  43.5 1 0  44.25 1 0  45 1 0  45.75 1 0  46.5 1 0  47.25 1 0  48 1 0  48.75 1 0  49.5 1 0  50.25 1 0  51 1 0  51.75 1 0  52.5 1 0  53.25 1 0  54 1 0  54.75 1 0  55.5 1 0  56.25 1 0  57 1 0  57.75 1 0  58.5 1 0  59.25 1 0  60 1 0  0 1.5 0  0.75 1.5 0  1.5 1.5 0  2.25 1.5 0  3 1.5 0  3.75 1.5 0  4.5 1.5 0  5.25 1.5 0  6 1.5 0  6.75 1.5 0  7.5 1.5 0  8.25 1.5 0  9 1.5 0  9.75 1.5 0  10.5 1.5 0  11.25 1.5 0  12 1.5 0  12.75 1.5 0  13.5 1.5 0  14.25 1.5 0  15 1.5 0  15.75 1.5 0  16.5 1.5 0  17.25 1.5 0  18 1.5 0  18.75 1.5 0  19.5 1.5 0  20.25 1.5 0  21 1.5 0  21.75 1.5 0  22.5 1.5 0  23.25 1.5 0  24 1.5 0  24.75 1.5 0  25.5 1.5 0  26.25 1.5 0  27 1.5 0  27.75 1.5 0  28.5 1.5 0  29.25 1.5 0  30 1.5 0  30.75 1.5 0  31.5 1.5 0  32.25 1.5 0  33 1.5 0  33.75 1.5 0  34.5 1.5 0  35.25 1.5 0  36 1.5 0  36.75 1.5 0  37.5 1.5 0  38.25 1.5 0  39 1.5 0  39.75 1.5 0  40.5 1.5 0  41.25 1.5 0  42 1.5 0  42.75 1.5 0  43.5 1.5 0  44.25 1.5 0  45 1.5 0  45.75 1.5 0  46.5 1.5 0  47.25 1.5 0  48 1.5 0  48.75 1.5 0  49.5 1.5 0  50.25 1.5 0  51 1.5 0  51.75 1.5 0  52.5 1.5 0  53.25 1.5 0  54 1.5 0  54.75 1.5 0  55.5 1.5 0  56.25 1.5 0  57 1.5 0  57.75 1.5 0  58.5 1.5 0  59.25 1.5 0  60 1.5 0  0 2 0  0.75 2 0  1.5 2 0  2.25 2 0  3 2 0  3.75 2 0  4.5 2 0  5.25 2 0  6 2 0  6.75 2 0  7.5 2 0  8.25 2 0  9 2 0  9.75 2 0  10.5 2 0  11.25 2 0  12 2 0  12.75 2 0  13.5 2 0  14.25 2 0  15 2 0  15.75 2 0  16.5 2 0  17.25 2 0  18 2 0  18.75 2 0  19.5 2 0  20.25 2 0  21 2 0  21.75 2 0  22.5 2 0  23.25 2 0  24 2 0  24.75 2 0  25.5 2 0  26.25 2 0  27 2 0  27.75 2 0  28.5 2 0  29.25 2 0  30 2 0  30.75 2 0  31.5 2 0  32.25 2 0  33 2 0  33.75 2 0  34.5 2 0  35.25 2 0  36 2 0  36.75 2 0  37.5 2 0  38.25 2 0  39 2 0  39.75 2 0  40.5 2 0  41.25 2 0  42 2 0  42.75 2 0  43.5 2 0  44.25 2 0  45 2 0  45.75 2 0  46.5 2 0  47.25 2 0  48 2 0  48.75 2 0  49.5 2 0  50.25 2 0  51 2 0  51.75 2 0  52.5 2 0  53.25 2 0  54 2 0  54.75 2 0  55.5 2 0  56.25 2 0  57 2 0  57.75 2 0  58.5 2 0  59.25 2 0  60 2 0  0 2.5 0  0.75 2.5 0  1.5 2.5 0  2.25 2.5 0  3 2.5 0  3.75 2.5 0  4.5 2.5 0  5.25 2.5 0  6 2.5 0  6.75 2.5 0  7.5 2.5 0  8.25 2.5 0  9 2.5 0  9.75 2.5 0  10.5 2.5 0  11.25 2.5 0  12 2.5 0  12.75 2.5 0  13.5 2.5 0  14.25 2.5 0  15 2.5 0  15.75 2.5 0  16.5 2.5 0  17.25 2.5 0  18 2.5 0  18.75 2.5 0  19.5 2.5 0  20.25 2.5 0  21 2.5 0  21.75 2.5 0  22.5 2.5 0  23.25 2.5 0  24 2.5 0  24.75 2.5 0  25.5 2.5 0  26.25 2.5 0  27 2.5 0  27.75 2.5 0  28.5 2.5 0  29.25 2.5 0  30 2.5 0  30.75 2.5 0  31.5 2.5 0  32.25 2.5 0  33 2.5 0  33.75 2.5 0  34.5 2.5 0  35.25 2.5 0  36 2.5 0  36.75 2.5 0  37.5 2.5 0  38.25 2.5 0  39 2.5 0  39.75 2.5 0  40.5 2.5 0  41.25 2.5 0  42 2.5 0  42.75 2.5 0  43.5 2.5 0  44.25 2.5 0  45 2.5 0  45.75 2.5 0  46.5 2.5 0  47.25 2.5 0  48 2.5 0  48.75 2.5 0  49.5 2.5 0  50.25 2.5 0  51 2.5 0  51.75 2.5 0  52.5 2.5 0  53.25 2.5 0  54 2.5 0  54.75 2.5 0  55.5 2.5 0  56.25 2.5 0  57 2.5 0  57.75 2.5 0  58.5 2.5 0  59.25 2.5 0  60 2.5 0  0 3 0  0.75 3 0  1.5 3 0  2.25 3 0  3 3 0  3.75 3 0  4.5 3 0  5.25 3 0  6 3 0  6.75 3 0  7.5 3 0  8.25 3 0  9 3 0  9.75 3 0  10.5 3 0  11.25 3 0  12 3 0  12.75 3 0  13.5 3 0  14.25 3 0  15 3 0  15.75 3 0  16.5 3 0  17.25 3 0  18 3 0  18.75 3 0  19.5 3 0  20.25 3 0  21 3 0  21.75 3 0  22.5 3 0  23.25 3 0  24 3 0  24.75 3 0  25.5 3 0  26.25 3 0  27 3 0  27.75 3 0  28.5 3 0  29.25 3 0  30 3 0  30.75 3 0  31.5 3 0  32.25 3 0  33 3 0  33.75 3 0  34.5 3 0  35.25 3 0  36 3 0  36.75 3 0  37.5 3 0  38.25 3 0  39 3 0  39.75 3 0  40.5 3 0  41.25 3 0  42 3 0  42.75 3 0  43.5 3 0  44.25 3 0  45 3 0  45.75 3 0  46.5 3 0  47.25 3 0  48 3 0  48.75 3 0  49.5 3 0  50.25 3 0  51 3 0  51.75 3 0  52.5 3 0  53.25 3 0  54 3 0  54.75 3 0  55.5 3 0  56.25 3 0  57 3 0  57.75 3 0  58.5 3 0  59.25 3 0  60 3 0  0 3.5 0  0.75 3.5 0  1.5 3.5 0  2.25 3.5 0  3 3.5 0  3.75 3.5 0  4.5 3.5 0  5.25 3.5 0  6 3.5 0  6.75 3.5 0  7.5 3.5 0  8.25 3.5 0  9 3.5 0  9.75 3.5 0  10.5 3.5 0  11.25 3.5 0  12 3.5 0  12.75 3.5 0  13.5 3.5 0  14.25 3.5 0  15 3.5 0  15.75 3.5 0  16.5 3.5 0  17.25 3.5 0  18 3.5 0  18.75 3.5 0  19.5 3.5 0  20.25 3.5 0  21 3.5 0  21.75 3.5 0  22.5 3.5 0  23.25 3.5 0  24 3.5 0  24.75 3.5 0  25.5 3.5 0  26.25 3.5 0  27 3.5 0  27.75 3.5 0  28.5 3.5 0  29.25 3.5 0  30 3.5 0  30.75 3.5 0  31.5 3.5 0  32.25 3.5 0  33 3.5 0  33.75 3.5 0  34.5 3.5 0  35.25 3.5 0  36 3.5 0  36.75 3.5 0  37.5 3.5 0  38.25 3.5 0  39 3.5 0  39.75 3.5 0  40.5 3.5 0  41.25 3.5 0  42 3.5 0  42.75 3.5 0  43.5 3.5 0  44.25 3.5 0  45 3.5 0  45.75 3.5 0  46.5 3.5 0  47.25 3.5 0  48 3.5 0  48.75 3.5 0  49.5 3.5 0  50.25 3.5 0  51 3.5 0  51.75 3.5 0  52.5 3.5 0  53.25 3.5 0  54 3.5 0  54.75 3.5 0  55.5 3.5 0  56.25 3.5 0  57 3.5 0  57.75 3.5 0  58.5 3.5 0  59.25 3.5 0  60 3.5 0  0 4 0  0.75 4 0  1.5 4 0  2.25 4 0  3 4 0  3.75 4 0  4.5 4 0  5.25 4 0  6 4 0  6.75 4 0  7.5 4 0  8.25 4 0  9 4 0  9.75 4 0  10.5 4 0  11.25 4 0  12 4 0  12.75 4 0  13.5 4 0  14.25 4 0  15 4 0  15.75 4 0  16.5 4 0  17.25 4 0  18 4 0  18.75 4 0  19.5 4 0  20.25 4 0  21 4 0  21.75 4 0  22.5 4 0  23.25 4 0  24 4 0  24.75 4 0  25.5 4 0  26.25 4 0  27 4 0  27.75 4 0  28.5 4 0  29.25 4 0  30 4 0  30.75 4 0  31.5 4 0  32.25 4 0  33 4 0  33.75 4 0  34.5 4 0  35.25 4 0  36 4 0  36.75 4 0  37.5 4 0  38.25 4 0  39 4 0  39.75 4 0  40.5 4 0  41.25 4 0  42 4 0  42.75 4 0  43.5 4 0  44.25 4 0  45 4 0  45.75 4 0  46.5 4 0  47.25 4 0  48 4 0  48.75 4 0  49.5 4 0  50.25 4 0  51 4 0  51.75 4 0  52.5 4 0  53.25 4 0  54 4 0  54.75 4 0  55.5 4 0  56.25 4 0  57 4 0  57.75 4 0  58.5 4 0  59.25 4 0  60 4 0  0.375 0.25 0  1.125 0.25 0  1.875 0.25 0  2.625 0.25 0  3.375 0.25 0  4.125 0.25 0  4.875 0.25 0  5.625 0.25 0  6.375 0.25 0  7.125 0.25 0  7.875 0.25 0  8.625 0.25 0  9.375 0.25 0  10.125 0.25 0  10.875 0.25 0  11.625 0.25 0  12.375 0.25 0  13.125 0.25 0  13.875 0.25 0  14.625 0.25 0  15.375 0.25 0  16.125 0.25 0  16.875 0.25 0  17.625 0.25 0  18.375 0.25 0  19.125 0.25 0  19.875 0.25 0  20.625 0.25 0  21.375 0.25 0  22.125 0.25 0  22.875 0.25 0  23.625 0.25 0  24.375 0.25 0  25.125 0.25 0  25.875 0.25 0  26.625 0.25 0  27.375 0.25 0  28.125 0.25 0  28.875 0.25 0  29.625 0.25 0  30.375 0.25 0  31.125 0.25 0  31.875 0.25 0  32.625 0.25 0  33.375 0.25 0  34.125 0.25 0  34.875 0.25 0  35.625 0.25 0  36.375 0.25 0  37.125 0.25 0  37.875 0.25 0  38.625 0.25 0  39.375 0.25 0  40.125 0.25 0  40.875 0.25 0  41.625 0.25 0  42.375 0.25 0  43.125 0.25 0  43.875 0.25 0  44.625 0.25 0  45.375 0.25 0  46.125 0.25 0  46.875 0.25 0  47.625 0.25 0  48.375 0.25 0  49.125 0.25 0  49.875 0.25 0  50.625 0.25 0  51.375 0.25 0  52.125 0.25 0  52.875 0.25 0  53.625 0.25 0  54.375 0.25 0  55.125 0.25 0  55.875 0.25 0  56.625 0.25 0  57.375 0.25 0  58.125 0.25 0  58.875 0.25 0  59.625 0.25 0  0.375 0.75 0  1.125 0.75 0  1.875 0.75 0  2.625 0.75 0  3.375 0.75 0  4.125 0.75 0  4.875 0.75 0  5.625 0.75 0  6.375 0.75 0  7.125 0.75 0  7.875 0.75 0  8.625 0.75 0  9.375 0.75 0  10.125 0.75 0  10.875 0.75 0  11.625 0.75 0  12.375 0.75 0  13.125 0.75 0  13.875 0.75 0  14.625 0.75 0  15.375 0.75 0  16.125 0.75 0  16.875 0.75 0  17.625 0.75 0  18.375 0.75 0  19.125 0.75 0  19.875 0.75 0  20.625 0.75 0  21.375 0.75 0  22.125 0.75 0  22.875 0.75 0  23.625 0.75 0  24.375 0.75 0  25.125 0.75 0  25.875 0.75 0  26.625 0.75 0  27.375 0.75 0  28.125 0.75 0  28.875 0.75 0  29.625 0.75 0  30.375 0.75 0  31.125 0.75 0  31.875 0.75 0  32.625 0.75 0  33.375 0.75 0  34.125 0.75 0  34.875 0.75 0  35.625 0.75 0  36.375 0.75 0  37.125 0.75 0  37.875 0.75 0  38.625 0.75 0  39.375 0.75 0  40.125 0.75 0  40
[...]
<PointData  Vectors="f_8-0"> 
<DataArray  type="Float64"  Name="f_8-0"  NumberOfComponents="3" format="ascii">2.0476121091433129e-10 -2.3447080092251216e-10 0.0000000000000000e+00  0.0000000000000000e+00 -1.6468792096643806e-10 0.0000000000000000e+00  -5.5621635310575628e-09 1.3368662288592043e-08 0.0000000000000000e+00  0.0000000000000000e+00 0.0000000000000000e+00 0.0000000000000000e+00  -1.3955434576885771e-08 -2.5777067514274391e-09 0.0000000000000000e+00  0.0000000000000000e+00 -9.8065995940031453e-11 0.0000000000000000e+00  0.0000000000000000e+00 2.3154033352824608e-10 0.0000000000000000e+00  0.0000000000000000e+00 0.0000000000000000e+00 0.0000000000000000e+00  0.0000000000000000e+00 0.0000000000000000e+00 0.0000000000000000e+00  0.0000000000000000e+00 0.0000000000000000e+00 0.0000000000000000e+00  0.0000000000000000e+00 -5.4733874718076965e-10 0.0000000000000000e+00  0.0000000000000000e+00 0.0000000000000000e+00 0.0000000000000000e+00  7.6886610257156147e-10 -5.3045192910427349e-10 0.0000000000000000e+00  -3.3780687983887372e-08 2.5016486922603993e-09 0.0000000000000000e+00  1.6779783096822486e-08 1.5651560475745453e-09 0.0000000000000000e+00  8.7730667530297219e-09 8.8633847627390570e-09 0.0000000000000000e+00  9.8412197426886697e-10 1.4708049686837976e-09 0.0000000000000000e+00  -4.2013775690239508e-09 -3.7139461356919745e-09 0.0000000000000000e+00  -8.6673748088184612e-09 -9.1059442018992524e-09 0.0000000000000000e+00  -1.3189494628984096e-08 3.8993530474635058e-08 0.0000000000000000e+00  0.0000000000000000e+00 -1.9265720812515049e-10 0.0000000000000000e+00  -1.2260679530435292e-09 6.3385889306798088e-10 0.0000000000000000e+00  -1.0315170313960941e-09 1.6029852532043186e-09 0.0000000000000000e+00  0.0000000000000000e+00 0.0000000000000000e+00 0.0000000000000000e+00  3.3506760179139054e-10 -2.5836005264930485e-11 0.0000000000000000e+00  0.0000000000000000e+00 8.1328169746609862e-11 0.0000000000000000e+00  -6.8275206379020801e-09 4.0827669904070032e-08 0.0000000000000000e+00  4.5639991038791292e-10 3.3017334379989053e-09 0.0000000000000000e+00  -5.7469164840851765e-09 -3.3351308447016731e-10 0.0000000000000000e+00  4.5252028799566706e-08 7.0845802207463364e-08 0.0000000000000000e+00  2.6488393515666523e-09 9.7473679556493526e-09 0.0000000000000000e+00  3.5250888395248694e-08 -3.8135012078911059e-08 0.0000000000000000e+00  1.1840077345279810e-09 -3.0847233547883538e-08 0.0000000000000000e+00  4.9234451745621134e-09 3.5025615257859122e-09 0.0000000000000000e+00  -1.5563510307422126e-09 -5.2138174430836951e-10 0.0000000000000000e+00  0.0000000000000000e+00 0.0000000000000000e+00 0.0000000000000000e+00  -5.7778160323192185e-09 2.4794447688741052e-08 0.0000000000000000e+00  4.9073152759231836e-08 2.6212174071919380e-10 0.0000000000000000e+00  3.4167014697658612e-10 2.3268394196259858e-09 0.0000000000000000e+00  1.4399256558409984e-09 1.5615042637577481e-09 0.0000000000000000e+00  0.0000000000000000e+00 2.0962625385155771e-10 0.0000000000000000e+00  5.8210174281058091e-09 2.4890455970954269e-09 0.0000000000000000e+00  7.2029549533175038e-10 2.7220762180653208e-09 0.0000000000000000e+00  0.0000000000000000e+00 0.0000000000000000e+00 0.0000000000000000e+00  0.0000000000000000e+00 -8.6334276708574946e-11 0.0000000000000000e+00  -3.1007454489142488e-09 -1.3763100541452682e-09 0.0000000000000000e+00  -1.6809309673993385e-09 0.0000000000000000e+00 0.0000000000000000e+00  6.3134393082414284e-10 -5.3227953932506722e-10 0.0000000000000000e+00  2.9515179447393711e-09 6.6383680564366614e-10 0.0000000000000000e+00  5.0180079625762893e-09 -4.8892826958315581e-10 0.0000000000000000e+00  1.3121766974097196e-10 0.0000000000000000e+00 0.0000000000000000e+00  0.0000000000000000e+00 0.0000000000000000e+00 0.0000000000000000e+00  1.5646468323509763e-09 -1.4356581720132543e-09 0.0000000000000000e+00  7.9183462736481248e-09 5.0717807036205053e-09 0.0000000000000000e+00  3.6193776340552698e-10 -3.3938959951614240e-09 0.0000000000000000e+00  0.0000000000000000e+00 0.0000000000000000e+00 0.0000000000000000e+00  3.8571744418694896e-10 3.2627003817349559e-10 0.0000000000000000e+00  8.4330127175948571e-09 -2.4264031562287792e-08 0.0000000000000000e+00  -8.1536485681580832e-08 9.7016432996184433e-09 0.0000000000000000e+00  -2.3666337399409230e-09 -2.8971681651351636e-09 0.0000000000000000e+00  -1.0273931294370160e-08 -4.6164584622771155e-10 0.0000000000000000e+00  0.0000000000000000e+00 0.0000000000000000e+00 0.0000000000000000e+00  1.2059887623024164e-10 0.0000000000000000e+00 0.0000000000000000e+00  0.0000000000000000e+00 0.0000000000000000e+00 0.0000000000000000e+00  0.0000000000000000e+00 0.0000000000000000e+00 0.0000000000000000e+00  9.5455973765122468e-09 5.4712855805511539e-09 0.0000000000000000e+00  2.3571176962317796e-10 7.8659100444366233e-11 0.0000000000000000e+00  6.7617770670114754e-08 2.0121284372525930e-08 0.0000000000000000e+00  0.0000000000000000e+00 0.0000000000000000e+00 0.0000000000000000e+00  0.0000000000000000e+00 0.0000000000000000e+00 0.0000000000000000e+00  0.0000000000000000e+00 0.0000000000000000e+00 0.0000000000000000e+00  0.0000000000000000e+00 1.0338333692182769e-09 0.0000000000000000e+00  0.0000000000000000e+00 0.0000000000000000e+00 0.0000000000000000e+00  1.1808011265069726e-09 1.0826140457888294e-09 0.0000000000000000e+00  8.9384881156276942e-10 -2.0901046479973977e-09 0.0000000000000000e+00  -3.8142295722331539e-09 1.4164673710941753e-09 0.0000000000000000e+00  0.0000000000000000e+00 0.0000000000000000e+00 0.0000000000000000e+00  0.0000000000000000e+00 0.0000000000000000e+00 0.0000000000000000e+00  0.0000000000000000e+00 -2.5190492259967981e-08 0.0000000000000000e+00  -7.3656732105443538e-10 4.0528118107240157e-10 0.0000000000000000e+00  0.0000000000000000e+00 2.2456322414583060e-10 0.0000000000000000e+00  3.8290382537394783e+02 2.2977279505444406e-10 0.0000000000000000e+00  3.6598158621647250e+04 -8.4833758756383133e+04 0.0000000000000000e+00  -9.5129859339977134e+04 9.8537668628052979e+03 0.0000000000000000e+00  -6.1153815049730511e+04 2.9373930635194242e+05 0.0000000000000000e+00  1.0080210542211616e+05 -2.2873877509066861e+03 0.0000000000000000e+00  -5.2409918831244379e+05 -1.6257899546874105e+05 0.0000000000000000e+00  3.5319635817223426e+05 -4.3692981106908228e+04 0.0000000000000000e+00  -6.5135005379424583e+04 -3.6317874803765333e+05 0.0000000000000000e+00  -2.7548164125040622e+05 -7.1764216718126857e+05 0.0000000000000000e+00  -4.2260823036681936e+05 -3.2169195643553010e+05 0.0000000000000000e+00  -2.4652275295695773e+05 1.6643305148720354e+05 0.0000000000000000e+00  -2.8202477733448340e+05 -4.5990169407237063e+03 0.0000000000000000e+00  -1.2031619858275948e+05 1.9236552854353189e+05 0.0000000000000000e+00  -2.9711332665359508e+05 1.6527420629808708e+05 0.0000000000000000e+00  -3.1937961090118001e+05 -5.4744879014852704e+04 0.0000000000000000e+00  -1.7954258367243988e+05 1.6759810493448263e+05 0.0000000000000000e+00  -4.3081921942320454e+05 -2.8272686533572630e+05 0.0000000000000000e+00  -4.6508695388623390e+04 -1.6216431524062717e+04 0.0000000000000000e+00  3.8201944013864515e+04 2.9765026528122315e+04 0.0000000000000000e+00  -1.7368893960864018e+05 2.5828731727323501e+05 0.0000000000000000e+00  -1.4065571978896574e+05 1.6731491359057438e+05 0.0000000000000000e+00  -1.6745952579064938e+05 -1.4817406518076826e+05 0.0000000000000000e+00  -9.4113426165113633e+04 -3.0621511606329714e+05 0.0000000000000000e+00  -3.3373586722136638e+05 3.9753206287027436e+05 0.0000000000000000e+00  -2.6275804138361372e+05 -1.0390042256134402e+04 0.0000000000000000e+00  2.8736029274847002e+04 1.1690313107335397e+05 0.0000000000000000e+00  -4.0338254333918994e+04 -2.4879909596663868e+05 0.0000000000000000e+00  -4.1282598181145679e+05 -1.8698220542031419e+05 0.0000000000000000e+00  2.4162536366503552e+05 -6.0981250562524622e+02 0.0000000000000000e+00  9.5063004800203547e+04 1.1890690723659062e+05 0.0000000000000000e+00  -1.0320591510119180e+05 4.5599794834642460e+04 0.0000000000000000e+00  1.4830306125337628e+05 -1.9898321473142827e+04 0.0000000000000000e+00  -2.7129055055225873e+05 3.8188978063960152e+05 0.0000000000000000e+00  1.4951792604445131e+05 -1.7457632398621779e+05 0.0000000000000000e+00  -1.0999019712946663e+04 -1.9255977763124526e+05 0.0000000000000000e+00  7.9791277922713189e+03 -9.8217258271013299e+04 0.0000000000000000e+00  5.8744947297178325e+04 -8.0594110684654006e+04 0.0000000000000000e+00  -2.6013498488502624e+05 1.7480309767432769e+04 0.0000000000000000e+00  -7.6358312321022080e+04 -2.2259932878760854e+05 0.0000000000000000e+00  -2.0442758602251374e+05 -1.4832491398750144e+05 0.0000000000000000e+00  -7.8970003133021200e+03 -3.1624815862228425e+05 0.0000000000000000e+00  -1.3277710929880175e+04 4.2455769486173464e+05 0.0000000000000000e+00  9.3004693257395993e+04 -1.6997020793397797e+05 0.0000000000000000e+00  5.3143980011720771e+04 -6.7249416156638152e+04 0.0000000000000000e+00  -2.1751746030322629e+04 -4.3503559359040621e+04 0.0000000000000000e+00  5.4415792877415559e+04 -2.3864293409532617e+05 0.0000000000000000e+00  5.8633797792633333e+04 -2.7645035106726998e+05 0.0000000000000000e+00  -2.9755684206225783e+03 -1.0938412852290679e+05 0.0000000000000000e+00  2.9698682621903921e+05 -2.1386052788141937e+05 0.0000000000000000e+00  -9.0979076204664336e+04 2.2816875351437455e+05 0.0000000000000000e+00  -4.2319936622792506e+05 8.0950467872932313e+03 0.0000000000000000e+00  -5.5408831229554478e+05 2.7055113711410557e+05 0.0000000000000000e+00  3.6749161818262591e+05 1.0846071763454290e+05 0.0000000000000000e+00  1.5912851521965931e+05 3.9914846225535694e+04 0.0000000000000000e+00  -2.4399725534433202e+05 1.4140152044289856e+05 0.0000000000000000e+00  -5.5637136980701250e+05 1.5954507694416071e+05 0.0000000000000000e+00  9.9101700003001868e+04 3.8171559096238681e+05 0.0000000000000000e+00  1.3119988207334158e+05 1.1006232594083501e+05 0.0000000000000000e+00  1.0257311316424572e+05 2.6856943689001550e+05 0.0000000000000000e+00  2.2560035871069622e+05 -2.8670274766557442e+04 0.0000000000000000e+00  -1.5986225160210294e+05 2.0859428379732560e+05 0.0000000000000000e+00  1.7940840496383441e+05 3.7813499584676168e+05 0.0000000000000000e+00  -3.0034783003741736e+05 2.7317173405632057e+05 0.0000000000000000e+00  3.0567934907917510e+05 -5.7187849266440084e+05 0.0000000000000000e+00  1.1037628902664591e+05 -1.5414790470306785e+05 0.0000000000000000e+00  -5.7177754826373444e+05 -4.2186018439811218e+04 0.0000000000000000e+00  -5.9608769645408716e+05 -2.3141642173504242e+05 0.0000000000000000e+00  5.8014499353685114e+05 -1.9282240584358684e+05 0.0000000000000000e+00  6.5145086748461035e+04 1.9756300546513486e+05 0.0000000000000000e+00  -7.8227868821080425e+05 -1.0287295862267561e+05 0.0000000000000000e+00  -5.7966769460497552e+05 1.4721643034808978e+05 0.0000000000000000e+00  -1.3838387525729532e+05 1.7781979013391458e+04 0.0000000000000000e+00  -2.3817207127126341e+05 6.2476439360923716e+04 0.0000000000000000e+00  1.4225027627507972e+04 -3.0920051967629261e+05 0.0000000000000000e+00  -9.6222476838095259e+04 6.9015660520686797e+04 0.0000000000000000e+00  4.2995542027474905e+04 3.3558387875114405e+05 0.0000000000000000e+00  1.1513843119861455e+05 1.3131733901586206e+05 0.0000000000000000e+00  2.4612966584499757e+05 -5.8175603453513722e+04 0.0000000000000000e+00  -1.6897331967984649e+05 -2.4904360677129074e+05 0.0000000000000000e+00  -2.3571294266612016e+05 -1.7285083318317051e+04 0.0000000000000000e+00  1.1764128212331178e+04 -1.7473415315293283e-11 0.0000000000000000e+00  -1.5415847722829820e+05 -1.1347188713551487e-10 0.0000000000000000e+00  -1.6404394173976273e+05 -2.2024347903975550e+05 0.0000000000000000e+00  -5.0766773935116746e+05 1.0283169401780274e+05 0.0000000000000000e+00  4.1712372666293239e+04 3.0082638234515488e+05 0.0000000000000000e+00  -3.8954748528198211e+05 -8.2409043498921645e+04 0.0000000000000000e+00  -1.7546122806332473e+05 -2.1912326259486575e+05 0.0000000000000000e+00  3.7760279323214731e+04 1.3762338305100510e+05 0.0000000000000000e+00  4.8208647436476947e+05 -1.1188099603677019e+05 0.0000000000000000e+00  6.3605002097289675e+04 -9.1092569893332577e+04 0.0000000000000000e+00  5.0597751649292113e+04 -1.3480949447318812e+04 0.0000000000000000e+00  -1.8938391647920434e+05 -1.0382803229243627e+05 0.0000000000000000e+00  2.8076063048143260e+05 -5.8718855959282875e+04 0.0000000000000000e+00  9.7364335895609081e+04 -4.6109815373147640e+05 0.0000000000000000e+00  -1.1503180847651852e+05 2.4271537921431474e+05 0.0000000000000000e+00  -1.9214063415731449e+04 -4.1305171720423903e+04 0.0000000000000000e+00  -5.2346961488298979e+05 -8.2196411722758273e+05 0.0000000000000000e+00  2.6015646795913085e+05 2.9230665559870616e+05 0.0000000000000000e+00  1.5674068000219087e+05 1.5204782047351520e+05 0.0000000000000000e+00  1.3143614127553516e+04 9.4331256479600605e+04 0.0000000000000000e+00  -3.2959343815948418e+05 -2.2873986704790450e+05 0.0000000000000000e+00  -3.8498071703440954e+04 6.3511471401224126e+03 0.0000000000000000e+00  -1.5337521203242562e+05 -1.6370734895001797e+05 0.0000000000000000e+00  -2.6629228024782427e+05 -1.9863439556746347e+04 0.0000000000000000e+00  -2.7664408019125729e+05 -9.9885821426340859e+04 0.0000000000000000e+00  1.0996325883250480e+05 3.6030217068881575e+04 0.0000000000000000e+00  9.2162426325916385e+04 -1.6305151036551487e+05 0.0000000000000000e+00  5.4128910795768599e+04 -3.9222621323547722e+05 0.0000000000000000e+00  7.4918678009302457e+04 4.8875405255352183e+04 0.0000000000000000e+00  1.3789414953686131e+05 -6.6792654090378957e+04 0.0000000000000000e+00  1.3612988770541022e+05 2.1960697237343047e+05 0.0000000000000000e+00  6.3722362243594762e+04 1.5805997494835089e+05 0.0000000000000000e+00  -5.5598520115407162e+04 -1.9178100609199017e+04 0.0000000000000000e+00  -1.7837948661771233e+05 2.9312380856180284e+05 0.0000000000000000e+00  -2.8051856747300091e+05 2.0649527541135187e+05 0.0000000000000000e+00  -2.2863627695107204e+05 2.0309586864312904e+05 0.0000000000000000e+00  -1.4096717663753883e+05 -5.1513753146674797e+04 0.0000000000000000e+00  -8.8456040354852666e+04 -1.0913502696607531e+05 0.0000000000000000e+00  -7.5532017752038882e+04 1.9347617679684390e+04 0.0000000000000000e+00  -1.0912818059889151e+05 -1.9490491435330699e+04 0.0000000000000000e+00  5.4058109876091461e+04 -3.4081511841328826e+05 0.0000000000000000e+00  -4.7229319383454982e+04 -8.3090543193028949e+04 0.0000000000000000e+00  -9.3626814744289324e+04 -1.3298042411683110e+02 0.0000000000000000e+00  3.6946323601124220e+05 -7.8582115612587688e+04 0.0000000000000000e+00  -5.2785272464599284e+03 2.4723998860389998e+04 0.0000000000000000e+00  -9.0628952425968950e+04 -1.0759161094000288e+04 0.0000000000000000e+00  -3.8090561052984267e+04 -2.4879058510977520e+04 0.0000000000000000e+00  2.4617199365918656e+05 2.2178827264362897e+05 0.0000000000000000e+00  1.7529581413802854e+05 -2.2801523700652370e+05 0.0000000000000000e+00  -1.0809084847103473e+05 1.7057241899240497e+05 0.0000000000000000e+00  -3.3003408486708162e+04 8.0152826934291545e+04 0.0000000000000000e+00  4.5294550415212376e+04 1.1425657068135331e+04 0.0000000000000000e+00  -1.8676084372060424e+04 1.0542515660392887e+05 0.0000000000000000e+00  2.2159087558999841e+05 -4.2502506973078230e+05 0.0000000000000000e+00  4.3849108816231822e+05 -6.3670544481651617e+04 0.0000000000000000e+00  -1.0040468130859663e+05 -6.9087244409978866e+03 0.0000000000000000e+00  -9.1352325812008537e+04 2.0665144956208568e+05 0.0000000000000000e+00  -2.0873607068780108e+05 -2.1254306109323903e+05 0.0000000000000000e+00  -5.8422580738494071e+04 1.9037947256474959e+05 0.0000000000000000e+00  1.8157677733889149e+05 -1.5303672373286795e+05 0.0000000000000000e+00  -1.3829141510562933e+05 2.7597280808994541e+05 0.0000000000000000e+00  1.3791645409657192e+05 -2.0437815323941340e+05 0.0000000000000000e+00  -3.9269735092348378e+05 2.3910878272956845e+05 0.0000000000000000e+00  -2.4973362305585158e+05 1.4836963521623437e+05 0.0000000000000000e+00  -5.0158865176629729e+05 1.3616664185936950e+05 0.0000000000000000e+00  -4.3806036823006888e+05 4.9306157476580224e+05 0.0000000000000000e+00  -9.9229576117671255e+04 6.2601564394034306e+05 0.0000000000000000e+00  -5.5070283814487245e+05 -1.1281035111271054e+05 0.0000000000000000e+00  -7.5085271631522884e+05 -7.3359270445121307e+04 0.0000000000000000e+00  9.2506393129642901e+05 1.2715925068136661e+05 0.0000000000000000e+00  -3.9570055474854300e+04 2.6490320542966510e+05 0.0000000000000000e+00  2.0573101193163678e+05 -1.1727946977001657e+05 0.0000000000000000e+00  -6.6420222428531153e+05 4.8152910999052430e+05 0.0000000000000000e+00  1.0110765609348190e+05 -2.1511114447586026e+05 0.0000000000000000e+00  -2.3857132813058773e+05 -6.4882134414375556e+04 0.0000000000000000e+00  2.6428032920365507e+05 1.1944596639374919e+05 0.0000000000000000e+00  -2.8847585798179638e+05 1.7261834154000977e+05 0.0000000000000000e+00  1.9279137370677767e+05 3.9856412939494144e+05 0.0000000000000000e+00  -1.4893638964371135e+04 1.7600635998783828e+05 0.0000000000000000e+00  -1.2124707637934596e+05 -3.0202942344574141e+05 0.0000000000000000e+00  -1.0587845858593049e+04 -2.6112378060269245e+05 0.0000000000000000e+00  -6.0199040700117155e+04 0.0000000000000000e+00 0.0000000000000000e+00  3.9278857304677780e+05 0.0000000000000000e+00 0.0000000000000000e+00  -1.5044357797404655e+05 2.5339704859902902e+05 0.0000000000000000e+00  4.1344614909034903e+05 -8.8601848055991228e+04 0.0000000000000000e+00  -4.7534400025126676e+05 2.3366229672067784e+05 0.0000000000000000e+00  1.5600610377227553e+05 1.0333717703877017e+05 0.0000000000000000e+00  -3.0549761316754285e+05 1.0710388199847650e+04 0.0000000000000000e+00  2.6133361800152058e+05 4.2216624792677219e+04 0.0000000000000000e+00  -4.9341288892361411e+05 6.9398033642185503e+05 0.0000000000000000e+00  -3.0391011162265070e+05 -2.7706902404634864e+05 0.0000000000000000e+00  1.1319599397620209e+05 6.0126987600179549e+04 0.0000000000000000e+00  3.8689901941287890e+05 1.7642067246542043e+04 0.0000000000000000e+00  2.1283205955774779e+05 1.7336236518314801e+05 0.0000000000000000e+00  -1.1858865340570643e+05 2.8989894046906418e+04 0.0000000000000000e+00  1.1480781910205430e+05 5.6559345915615042e+04 0.0000000000000000e+00  1.6042331723521178e+05 3.2733377519513917e+05 0.0000000000000000e+00  -2.3555271203128155e+05 -7.5579094313006586e+04 0.0000000000000000e+00  -3.5932724391005153e+05 -4.3562529767041335e+04 0.0000000000000000e+00  4.2863409890365985e+05 1.8567933883286416e+05 0.0000000000000000e+00  -3.5980703922494140e+05 2.3707320151792187e+05 0.0000000000000000e+00  -1.7088651040318812e+05 -1.8329333387043540e+05 0.0000000000000000e+00  -1.7689012697432304e+05 5.1729533178530117e+04 0.0000000000000000e+00  -1.3236083551583427e+05 1.5143640291567863e+05 0.0000000000000000e+00  -2.5444324621043406e+03 9.7927624737301710e+04 0.0000000000000000e+00  -1.0497465985551119e+05 -3.6621948839000671e+05 0.0000000000000000e+00  1.1297014592800230e+05 1.6963864958646777e+05 0.0000000000000000e+00  -7.3413033279226554e+04 1.5752705023667164e+05 0.0000000000000000e+00  2.4603434368239355e+05 -3.2426357855877187e+05 0.0000000000000000e+00  -4.0015539185331974e+04 -1.2946040346863939e+05 0.0000000000000000e+00  -2.4859628429872432e+05 -3.9276488383990148e+05 0.0000000000000000e+00  6.3811664364480974e+04 2.0682145619865743e+05 0.0000000000000000e+00  7.6240712157566340e+03 -1.2492563940506570e+02 0.0000000000000000e+00  -8.3343690575033732e+04 2.4417096004438834e+05 0.0000000000000000e+00  -1.0210464360802689e+05 -8.8583259166417280e+04 0.0000000000000000e+00  7.5801788021526363e+03 1.0086793113768224e+05 0.0000000000000000e+00  -9.8134848862702478e+04 4.3460272645274301e+04 0.0000000000000000e+00  -5.1866963759585116e+04 6.6563466934104596e+04 0.0000000000000000e+00  -1.4107662930870120e+05 -2.2259068954851272e+05 0.0000000000000000e+00  -3.0112557233399677e+05 -8.