<?xml version="1.0"?>
<VTKFile type="UnstructuredGrid"  version="0.1"  >
<UnstructuredGrid>
<Piece  NumberOfPoints="1369" NumberOfCells="2560">
<Points>
<DataArray  type="Float64"  NumberOfComponents="3"  format="ascii">0 0 0  0.75 0 0  1.5 0 0  2.25 0 0  3 0 0  3.75 0 0  4.5 0 0  5.25 0 0  6 0 0  6.75 0 0  7.5 0 0  8.25 0 0  9 0 0  9.75 0 0  10.5 0 0  11.25 0 0  12 0 0  12.75 0 0  13.5 0 0  14.25 0 0  15 0 0  15.75 0 0  16.5 0 0  17.25 0 0  18 0 0  18.75 0 0  19.5 0 0  20.25 0 0  21 0 0  21.75 0 0  22.5 0 0  23.25 0 0  24 0 0  24.75 0 0  25.5 0 0  26.25 0 0  27 0 0  27.75 0 0  28.5 0 0  29.25 0 0  30 0 0  30.75 0 0  31.5 0 0  32.25 0 0  33 0 0  33.75 0 0  34.5 0 0  35.25 0 0  36 0 0  36.75 0 0  37.5 0 0  38.25 0 0  39 0 0  39.75 0 0  40.5 0 0  41.25 0 0  42 0 0  42.75 0 0  43.5 0 0  44.25 0 0  45 0 0  45.75 0 0  46.5 0 0  47.25 0 0  48 0 0  48.75 0 0  49.5 0 0  50.25 0 0  51 0 0  51.75 0 0  52.5 0 0  53.25 0 0  54 0 0  54.75 0 0  55.5 0 0  56.25 0 0  57 0 0  57.75 0 0  58.5 0 0  59.25 0 0  60 0 0  0 0.5 0  0.75 0.5 0  1.5 0.5 0  2.25 0.5 0  3 0.5 0  3.75 0.5 0  4.5 0.5 0  5.25 0.5 0  6 0.5 0  6.75 0.5 0  7.5 0.5 0  8.25 0.5 0  9 0.5 0  9.75 0.5 0  10.5 0.5 0  11.25 0.5 0  12 0.5 0  12.75 0.5 0  13.5 0.5 0  14.25 0.5 0  15 0.5 0  15.75 0.5 0  16.5 0.5 0  17.25 0.5 0  18 0.5 0  18.75 0.5 0  19.5 0.5 0  20.25 0.5 0  21 0.5 0  21.75 0.5 0  22.5 0.5 0  23.25 0.5 0  24 0.5 0  24.75 0.5 0  25.5 0.5 0  26.25 0.5 0  27 0.5 0  27.75 0.5 0  28.5 0.5 0  29.25 0.5 0  30 0.5 0  30.75 0.5 0  31.5 0.5 0  32.25 0.5 0  33 0.5 0  33.75 0.5 0  34.5 0.5 0  35.25 0.5 0  36 0.5 0  36.75 0.5 0  37.5 0.5 0  38.25 0.5 0  39 0.5 0  39.75 0.5 0  40.5 0.5 0  41.25 0.5 0  42 0.5 0  42.75 0.5 0  43.5 0.5 0  44.25 0.5 0  45 0.5 0  45.75 0.5 0  46.5 0.5 0  47.25 0.5 0  48 0.5 0  48.75 0.5 0  49.5 0.5 0  50.25 0.5 0  51 0.5 0  51.75 0.5 0  52.5 0.5 0  53.25 0.5 0  54 0.5 0  54.75 0.5 0  55.5 0.5 0  56.25 0.5 0  57 0.5 0  57.75 0.5 0  58.5 0.5 0  59.25 0.5 0  60 0.5 0  0 1 0  0.75 1 0  1.5 1 0  2.25 1 0  3 1 0  3.75 1 0  4.5 1 0  5.25 1 0  6 1 0  6.75 1 0  7.5 1 0  8.25 1 0  9 1 0  9.75 1 0  10.5 1 0  11.25 1 0  12 1 0  12.75 1 0  13.5 1 0  14.25 1 0  15 1 0  15.75 1 0  16.5 1 0  17.25 1 0  18 1 0  18.75 1 0  19.5 1 0  20.25 1 0  21 1 0  21.75 1 0  22.5 1 0  23.25 1 0  24 1 0  24.75 1 0  25.5 1 0  26.25 1 0  27 1 0  27.75 1 0  28.5 1 0  29.25 1 0  30 1 0  30.75 1 0  31.5 1 0  32.25 1 0  33 1 0  33.75 1 0  34.5 1 0  35.25 1 0  36 1 0  36.75 1 0  37.5 1 0  38.25 1 0  39 1 0  39.75 1 0  40.5 1 0  41.25 1 0  42 1 0  42.75 1 0  43.5 1 0  44.25 1 0  45 1 0  45.75 1 0  46.5 1 0  47.25 1 0  48 1 0  48.75 1 0  49.5 1 0  50.25 1 0  51 1 0  51.75 1 0  52.5 1 0  53.25 1 0  54 1 0  54.75 1 0  55.5 1 0  56.25 1 0  57 1 0  57.75 1 0  58.5 1 0  59.25 1 0  60 1 0  0 1.5 0  0.75 1.5 0  1.5 1.5 0  2.25 1.5 0  3 1.5 0  3.75 1.5 0  4.5 1.5 0  5.25 1.5 0  6 1.5 0  6.75 1.5 0  7.5 1.5 0  8.25 1.5 0  9 1.5 0  9.75 1.5 0  10.5 1.5 0  11.25 1.5 0  12 1.5 0  12.75 1.5 0  13.5 1.5 0  14.25 1.5 0  15 1.5 0  15.75 1.5 0  16.5 1.5 0  17.25 1.5 0  18 1.5 0  18.75 1.5 0  19.5 1.5 0  20.25 1.5 0  21 1.5 0  21.75 1.5 0  22.5 1.5 0  23.25 1.5 0  24 1.5 0  24.75 1.5 0  25.5 1.5 0  26.25 1.5 0  27 1.5 0  27.75 1.5 0  28.5 1.5 0  29.25 1.5 0  30 1.5 0  30.75 1.5 0  31.5 1.5 0  32.25 1.5 0  33 1.5 0  33.75 1.5 0  34.5 1.5 0  35.25 1.5 0  36 1.5 0  36.75 1.5 0  37.5 1.5 0  38.25 1.5 0  39 1.5 0  39.75 1.5 0  40.5 1.5 0  41.25 1.5 0  42 1.5 0  42.75 1.5 0  43.5 1.5 0  44.25 1.5 0  45 1.5 0  45.75 1.5 0  46.5 1.5 0  47.25 1.5 0  48 1.5 0  48.75 1.5 0  49.5 1.5 0  50.25 1.5 0  51 1.5 0  51.75 1.5 0  52.5 1.5 0  53.25 1.5 0  54 1.5 0  54.75 1.5 0  55.5 1.5 0  56.25 1.5 0  57 1.5 0  57.75 1.5 0  58.5 1.5 0  59.25 1.5 0  60 1.5 0  0 2 0  0.75 2 0  1.5 2 0  2.25 2 0  3 2 0  3.75 2 0  4.5 2 0  5.25 2 0  6 2 0  6.75 2 0  7.5 2 0  8.25 2 0  9 2 0  9.75 2 0  10.5 2 0  11.25 2 0  12 2 0  12.75 2 0  13.5 2 0  14.25 2 0  15 2 0  15.75 2 0  16.5 2 0  17.25 2 0  18 2 0  18.75 2 0  19.5 2 0  20.25 2 0  21 2 0  21.75 2 0  22.5 2 0  23.25 2 0  24 2 0  24.75 2 0  25.5 2 0  26.25 2 0  27 2 0  27.75 2 0  28.5 2 0  29.25 2 0  30 2 0  30.75 2 0  31.5 2 0  32.25 2 0  33 2 0  33.75 2 0  34.5 2 0  35.25 2 0  36 2 0  36.75 2 0  37.5 2 0  38.25 2 0  39 2 0  39.75 2 0  40.5 2 0  41.25 2 0  42 2 0  42.75 2 0  43.5 2 0  44.25 2 0  45 2 0  45.75 2 0  46.5 2 0  47.25 2 0  48 2 0  48.75 2 0  49.5 2 0  50.25 2 0  51 2 0  51.75 2 0  52.5 2 0  53.25 2 0  54 2 0  54.75 2 0  55.5 2 0  56.25 2 0  57 2 0  57.75 2 0  58.5 2 0  59.25 2 0  60 2 0  0 2.5 0  0.75 2.5 0  1.5 2.5 0  2.25 2.5 0  3 2.5 0  3.75 2.5 0  4.5 2.5 0  5.25 2.5 0  6 2.5 0  6.75 2.5 0  7.5 2.5 0  8.25 2.5 0  9 2.5 0  9.75 2.5 0  10.5 2.5 0  11.25 2.5 0  12 2.5 0  12.75 2.5 0  13.5 2.5 0  14.25 2.5 0  15 2.5 0  15.75 2.5 0  16.5 2.5 0  17.25 2.5 0  18 2.5 0  18.75 2.5 0  19.5 2.5 0  20.25 2.5 0  21 2.5 0  21.75 2.5 0  22.5 2.5 0  23.25 2.5 0  24 2.5 0  24.75 2.5 0  25.5 2.5 0  26.25 2.5 0  27 2.5 0  27.75 2.5 0  28.5 2.5 0  29.25 2.5 0  30 2.5 0  30.75 2.5 0  31.5 2.5 0  32.25 2.5 0  33 2.5 0  33.75 2.5 0  34.5 2.5 0  35.25 2.5 0  36 2.5 0  36.75 2.5 0  37.5 2.5 0  38.25 2.5 0  39 2.5 0  39.75 2.5 0  40.5 2.5 0  41.25 2.5 0  42 2.5 0  42.75 2.5 0  43.5 2.5 0  44.25 2.5 0  45 2.5 0  45.75 2.5 0  46.5 2.5 0  47.25 2.5 0  48 2.5 0  48.75 2.5 0  49.5 2.5 0  50.25 2.5 0  51 2.5 0  51.75 2.5 0  52.5 2.5 0  53.25 2.5 0  54 2.5 0  54.75 2.5 0  55.5 2.5 0  56.25 2.5 0  57 2.5 0  57.75 2.5 0  58.5 2.5 0  59.25 2.5 0  60 2.5 0  0 3 0  0.75 3 0  1.5 3 0  2.25 3 0  3 3 0  3.75 3 0  4.5 3 0  5.25 3 0  6 3 0  6.75 3 0  7.5 3 0  8.25 3 0  9 3 0  9.75 3 0  10.5 3 0  11.25 3 0  12 3 0  12.75 3 0  13.5 3 0  14.25 3 0  15 3 0  15.75 3 0  16.5 3 0  17.25 3 0  18 3 0  18.75 3 0  19.5 3 0  20.25 3 0  21 3 0  21.75 3 0  22.5 3 0  23.25 3 0  24 3 0  24.75 3 0  25.5 3 0  26.25 3 0  27 3 0  27.75 3 0  28.5 3 0  29.25 3 0  30 3 0  30.75 3 0  31.5 3 0  32.25 3 0  33 3 0  33.75 3 0  34.5 3 0  35.25 3 0  36 3 0  36.75 3 0  37.5 3 0  38.25 3 0  39 3 0  39.75 3 0  40.5 3 0  41.25 3 0  42 3 0  42.75 3 0  43.5 3 0  44.25 3 0  45 3 0  45.75 3 0  46.5 3 0  47.25 3 0  48 3 0  48.75 3 0  49.5 3 0  50.25 3 0  51 3 0  51.75 3 0  52.5 3 0  53.25 3 0  54 3 0  54.75 3 0  55.5 3 0  56.25 3 0  57 3 0  57.75 3 0  58.5 3 0  59.25 3 0  60 3 0  0 3.5 0  0.75 3.5 0  1.5 3.5 0  2.25 3.5 0  3 3.5 0  3.75 3.5 0  4.5 3.5 0  5.25 3.5 0  6 3.5 0  6.75 3.5 0  7.5 3.5 0  8.25 3.5 0  9 3.5 0  9.75 3.5 0  10.5 3.5 0  11.25 3.5 0  12 3.5 0  12.75 3.5 0  13.5 3.5 0  14.25 3.5 0  15 3.5 0  15.75 3.5 0  16.5 3.5 0  17.25 3.5 0  18 3.5 0  18.75 3.5 0  19.5 3.5 0  20.25 3.5 0  21 3.5 0  21.75 3.5 0  22.5 3.5 0  23.25 3.5 0  24 3.5 0  24.75 3.5 0  25.5 3.5 0  26.25 3.5 0  27 3.5 0  27.75 3.5 0  28.5 3.5 0  29.25 3.5 0  30 3.5 0  30.75 3.5 0  31.5 3.5 0  32.25 3.5 0  33 3.5 0  33.75 3.5 0  34.5 3.5 0  35.25 3.5 0  36 3.5 0  36.75 3.5 0  37.5 3.5 0  38.25 3.5 0  39 3.5 0  39.75 3.5 0  40.5 3.5 0  41.25 3.5 0  42 3.5 0  42.75 3.5 0  43.5 3.5 0  44.25 3.5 0  45 3.5 0  45.75 3.5 0  46.5 3.5 0  47.25 3.5 0  48 3.5 0  48.75 3.5 0  49.5 3.5 0  50.25 3.5 0  51 3.5 0  51.75 3.5 0  52.5 3.5 0  53.25 3.5 0  54 3.5 0  54.75 3.5 0  55.5 3.5 0  56.25 3.5 0  57 3.5 0  57.75 3.5 0  58.5 3.5 0  59.25 3.5 0  60 3.5 0  0 4 0  0.75 4 0  1.5 4 0  2.25 4 0  3 4 0  3.75 4 0  4.5 4 0  5.25 4 0  6 4 0  6.75 4 0  7.5 4 0  8.25 4 0  9 4 0  9.75 4 0  10.5 4 0  11.25 4 0  12 4 0  12.75 4 0  13.5 4 0  14.25 4 0  15 4 0  15.75 4 0  16.5 4 0  17.25 4 0  18 4 0  18.75 4 0  19.5 4 0  20.25 4 0  21 4 0  21.75 4 0  22.5 4 0  23.25 4 0  24 4 0  24.75 4 0  25.5 4 0  26.25 4 0  27 4 0  27.75 4 0  28.5 4 0  29.25 4 0  30 4 0  30.75 4 0  31.5 4 0  32.25 4 0  33 4 0  33.75 4 0  34.5 4 0  35.25 4 0  36 4 0  36.75 4 0  37.5 4 0  38.25 4 0  39 4 0  39.75 4 0  40.5 4 0  41.25 4 0  42 4 0  42.75 4 0  43.5 4 0  44.25 4 0  45 4 0  45.75 4 0  46.5 4 0  47.25 4 0  48 4 0  48.75 4 0  49.5 4 0  50.25 4 0  51 4 0  51.75 4 0  52.5 4 0  53.25 4 0  54 4 0  54.75 4 0  55.5 4 0  56.25 4 0  57 4 0  57.75 4 0  58.5 4 0  59.25 4 0  60 4 0  0.375 0.25 0  1.125 0.25 0  1.875 0.25 0  2.625 0.25 0  3.375 0.25 0  4.125 0.25 0  4.875 0.25 0  5.625 0.25 0  6.375 0.25 0  7.125 0.25 0  7.875 0.25 0  8.625 0.25 0  9.375 0.25 0  10.125 0.25 0  10.875 0.25 0  11.625 0.25 0  12.375 0.25 0  13.125 0.25 0  13.875 0.25 0  14.625 0.25 0  15.375 0.25 0  16.125 0.25 0  16.875 0.25 0  17.625 0.25 0  18.375 0.25 0  19.125 0.25 0  19.875 0.25 0  20.625 0.25 0  21.375 0.25 0  22.125 0.25 0  22.875 0.25 0  23.625 0.25 0  24.375 0.25 0  25.125 0.25 0  25.875 0.25 0  26.625 0.25 0  27.375 0.25 0  28.125 0.25 0  28.875 0.25 0  29.625 0.25 0  30.375 0.25 0  31.125 0.25 0  31.875 0.25 0  32.625 0.25 0  33.375 0.25 0  34.125 0.25 0  34.875 0.25 0  35.625 0.25 0  36.375 0.25 0  37.125 0.25 0  37.875 0.25 0  38.625 0.25 0  39.375 0.25 0  40.125 0.25 0  40.875 0.25 0  41.625 0.25 0  42.375 0.25 0  43.125 0.25 0  43.875 0.25 0  44.625 0.25 0  45.375 0.25 0  46.125 0.25 0  46.875 0.25 0  47.625 0.25 0  48.375 0.25 0  49.125 0.25 0  49.875 0.25 0  50.625 0.25 0  51.375 0.25 0  52.125 0.25 0  52.875 0.25 0  53.625 0.25 0  54.375 0.25 0  55.125 0.25 0  55.875 0.25 0  56.625 0.25 0  57.375 0.25 0  58.125 0.25 0  58.875 0.25 0  59.625 0.25 0  0.375 0.75 0  1.125 0.75 0  1.875 0.75 0  2.625 0.75 0  3.375 0.75 0  4.125 0.75 0  4.875 0.75 0  5.625 0.75 0  6.375 0.75 0  7.125 0.75 0  7.875 0.75 0  8.625 0.75 0  9.375 0.75 0  10.125 0.75 0  10.875 0.75 0  11.625 0.75 0  12.375 0.75 0  13.125 0.75 0  13.875 0.75 0  14.625 0.75 0  15.375 0.75 0  16.125 0.75 0  16.875 0.75 0  17.625 0.75 0  18.375 0.75 0  19.125 0.75 0  19.875 0.75 0  20.625 0.75 0  21.375 0.75 0  22.125 0.75 0  22.875 0.75 0  23.625 0.75 0  24.375 0.75 0  25.125 0.75 0  25.875 0.75 0  26.625 0.75 0  27.375 0.75 0  28.125 0.75 0  28.875 0.75 0  29.625 0.75 0  30.375 0.75 0  31.125 0.75 0  31.875 0.75 0  32.625 0.75 0  33.375 0.75 0  34.125 0.75 0  34.875 0.75 0  35.625 0.75 0  36.375 0.75 0  37.125 0.75 0  37.875 0.75 0  38.625 0.75 0  39.375 0.75 0  40.125 0.75 0  40
[...]
<PointData  Vectors="f_8-0"> 
<DataArray  type="Float64"  Name="f_8-0"  NumberOfComponents="3" format="ascii">0.0000000000000000e+00 -2.0823305353369774e-11 0.0000000000000000e+00  0.0000000000000000e+00 0.0000000000000000e+00 0.0000000000000000e+00  0.0000000000000000e+00 0.0000000000000000e+00 0.0000000000000000e+00  -2.3826956261659613e-08 -2.7737637584723361e-08 0.0000000000000000e+00  4.1623771181101123e-08 -7.6254878715281523e-08 0.0000000000000000e+00  -9.5183428897349964e-08 9.8098383419117721e-08 0.0000000000000000e+00  -1.4293707495682566e-09 0.0000000000000000e+00 0.0000000000000000e+00  0.0000000000000000e+00 0.0000000000000000e+00 0.0000000000000000e+00  0.0000000000000000e+00 3.9697893834723932e-11 0.0000000000000000e+00  0.0000000000000000e+00 0.0000000000000000e+00 0.0000000000000000e+00  -3.5345099483979821e-08 -3.9379893265471278e-08 0.0000000000000000e+00  2.3379296644046344e-08 -7.4945702651955243e-08 0.0000000000000000e+00  8.0403390132506228e-08 -4.7294809049822678e-10 0.0000000000000000e+00  -9.5844121465438341e-09 8.5401153090611410e-09 0.0000000000000000e+00  0.0000000000000000e+00 1.3175082603637777e-09 0.0000000000000000e+00  -6.8476341669786132e-08 3.9827655525946280e-07 0.0000000000000000e+00  0.0000000000000000e+00 0.0000000000000000e+00 0.0000000000000000e+00  0.0000000000000000e+00 2.2815553347590941e-09 0.0000000000000000e+00  0.0000000000000000e+00 3.3852837803580575e-09 0.0000000000000000e+00  -1.0116280757564062e-10 5.0168957772437462e-09 0.0000000000000000e+00  0.0000000000000000e+00 0.0000000000000000e+00 0.0000000000000000e+00  0.0000000000000000e+00 0.0000000000000000e+00 0.0000000000000000e+00  2.4651767549793735e-09 9.6690118999829494e-10 0.0000000000000000e+00  2.3736079568350569e-09 -9.1914405247786268e-10 0.0000000000000000e+00  0.0000000000000000e+00 0.0000000000000000e+00 0.0000000000000000e+00  1.7378053524984281e-09 -2.5649932347694074e-08 0.0000000000000000e+00  -3.0339423760600112e-09 2.8187849757986896e-09 0.0000000000000000e+00  -4.0798315031147661e-10 0.0000000000000000e+00 0.0000000000000000e+00  0.0000000000000000e+00 -2.6835958584259559e-10 0.0000000000000000e+00  0.0000000000000000e+00 0.0000000000000000e+00 0.0000000000000000e+00  0.0000000000000000e+00 -4.5980831807154922e-10 0.0000000000000000e+00  3.2868762282330592e-09 8.6602431508756998e-09 0.0000000000000000e+00  0.0000000000000000e+00 0.0000000000000000e+00 0.0000000000000000e+00  -3.7849649856959570e-09 -1.3224267141946318e-09 0.0000000000000000e+00  -8.7981565199226474e-08 2.8738336645982835e-08 0.0000000000000000e+00  0.0000000000000000e+00 -1.3637410615404448e-11 0.0000000000000000e+00  0.0000000000000000e+00 0.0000000000000000e+00 0.0000000000000000e+00  0.0000000000000000e+00 0.0000000000000000e+00 0.0000000000000000e+00  0.0000000000000000e+00 0.0000000000000000e+00 0.0000000000000000e+00  9.2914598929216960e-09 -3.5661720007042214e-08 0.0000000000000000e+00  0.0000000000000000e+00 0.0000000000000000e+00 0.0000000000000000e+00  6.7044036379184459e-10 0.0000000000000000e+00 0.0000000000000000e+00  0.0000000000000000e+00 0.0000000000000000e+00 0.0000000000000000e+00  1.8679939872697188e-09 -3.9405446333076391e-09 0.0000000000000000e+00  0.0000000000000000e+00 6.3824078862530002e-10 0.0000000000000000e+00  0.0000000000000000e+00 -1.5621026856387387e-10 0.0000000000000000e+00  0.0000000000000000e+00 0.0000000000000000e+00 0.0000000000000000e+00  0.0000000000000000e+00 0.0000000000000000e+00 0.0000000000000000e+00  0.0000000000000000e+00 0.0000000000000000e+00 0.0000000000000000e+00  -9.7275998383204734e-10 8.5425446676633191e-09 0.0000000000000000e+00  2.0473830887979038e-09 -2.5090774327536335e-08 0.0000000000000000e+00  9.8870457139061890e-09 -1.2009552103496303e-09 0.0000000000000000e+00  1.0051338078147217e-08 -9.0245150623423949e-09 0.0000000000000000e+00  -1.2298647874418614e-08 -4.3452717787863386e-09 0.0000000000000000e+00  5.7974924780959732e-09 -3.2791679502791930e-09 0.0000000000000000e+00  5.8214279850924383e-08 5.6012005775170343e-09 0.0000000000000000e+00  9.8911685859831597e-09 -6.0076232903975024e-09 0.0000000000000000e+00  0.0000000000000000e+00 0.0000000000000000e+00 0.0000000000000000e+00  -6.3853403067116334e-09 -2.6328666744285998e-09 0.0000000000000000e+00  0.0000000000000000e+00 0.0000000000000000e+00 0.0000000000000000e+00  -2.1167866204237430e-08 -2.5148854774832926e-09 0.0000000000000000e+00  -6.9836306793442434e-09 0.0000000000000000e+00 0.0000000000000000e+00  0.0000000000000000e+00 -2.6448712838699675e-09 0.0000000000000000e+00  -3.8440286779691532e-09 -1.4685824793071905e-09 0.0000000000000000e+00  0.0000000000000000e+00 0.0000000000000000e+00 0.0000000000000000e+00  -5.1056363172157108e-09 1.2971342102201837e-07 0.0000000000000000e+00  0.0000000000000000e+00 -5.2111728668711588e-10 0.0000000000000000e+00  0.0000000000000000e+00 0.0000000000000000e+00 0.0000000000000000e+00  9.7052411072787467e-09 4.5357723700461211e-09 0.0000000000000000e+00  0.0000000000000000e+00 0.0000000000000000e+00 0.0000000000000000e+00  0.0000000000000000e+00 0.0000000000000000e+00 0.0000000000000000e+00  0.0000000000000000e+00 0.0000000000000000e+00 0.0000000000000000e+00  -7.6075151923724769e-08 3.4304474075948990e-08 0.0000000000000000e+00  0.0000000000000000e+00 0.0000000000000000e+00 0.0000000000000000e+00  -1.1317827867924032e-08 2.2454361727932313e-08 0.0000000000000000e+00  -8.0720125776353512e-10 0.0000000000000000e+00 0.0000000000000000e+00  0.0000000000000000e+00 0.0000000000000000e+00 0.0000000000000000e+00  0.0000000000000000e+00 -9.1345843499763501e-10 0.0000000000000000e+00  0.0000000000000000e+00 0.0000000000000000e+00 0.0000000000000000e+00  0.0000000000000000e+00 0.0000000000000000e+00 0.0000000000000000e+00  5.9534734479911237e-11 1.0019428482303101e-10 0.0000000000000000e+00  -4.9697626629881904e+05 5.0337938140774291e-10 0.0000000000000000e+00  1.2987664461550207e+05 2.4459837196781923e+05 0.0000000000000000e+00  -4.2824455034181643e+04 9.5490917439389741e+05 0.0000000000000000e+00  7.7586463498421610e+04 -9.6706096346923104e+05 0.0000000000000000e+00  -2.8686311897168780e+04 -9.3406381568434462e+05 0.0000000000000000e+00  1.4400412780976221e+06 -8.3402113470965566e+05 0.0000000000000000e+00  3.9224409482986329e+05 -4.3477496737316635e+05 0.0000000000000000e+00  2.6338368405563477e+05 6.3977961303382402e+05 0.0000000000000000e+00  9.6246809638200022e+04 1.7182940337914710e+06 0.0000000000000000e+00  1.6664711254254731e+06 6.1255500042750582e+05 0.0000000000000000e+00  6.6956536211770528e+05 -4.1337515129235509e+05 0.0000000000000000e+00  7.7671284564009332e+05 2.8737098074660846e+05 0.0000000000000000e+00  2.9667362861471623e+05 3.8140424801285367e+05 0.0000000000000000e+00  6.1476140592535274e+04 1.6429210936132792e+05 0.0000000000000000e+00  5.3024987836033659e+04 1.3077370104603090e+05 0.0000000000000000e+00  -1.1720299809237810e+05 3.6000147431506647e+05 0.0000000000000000e+00  4.9351056666171999e+05 1.4713501242423023e+06 0.0000000000000000e+00  -2.1644648986556864e+05 -7.8295818927268338e+04 0.0000000000000000e+00  -8.5442910711740563e+05 -5.8465270952103182e+05 0.0000000000000000e+00  -3.7777895605880895e+05 -8.6334362493691873e+05 0.0000000000000000e+00  1.5766468818189144e+03 -3.6151471985294664e+05 0.0000000000000000e+00  5.1615017488644674e+05 4.3808522831168352e+05 0.0000000000000000e+00  3.1846082497765269e+05 7.8942767165259225e+05 0.0000000000000000e+00  4.6986400213275163e+05 -3.7367671916281962e+05 0.0000000000000000e+00  3.2790551164712955e+05 3.3523130201643500e+04 0.0000000000000000e+00  1.3252051912357530e+05 -5.8657604707907559e+05 0.0000000000000000e+00  -1.2856578909272068e+05 3.8561489459758345e+05 0.0000000000000000e+00  -4.8746601911224780e+05 2.7543782047798543e+05 0.0000000000000000e+00  -5.5728201707773854e+05 3.3425534910319996e+05 0.0000000000000000e+00  2.0615067074447498e+05 1.0133547115466885e+05 0.0000000000000000e+00  -2.1382068424346761e+05 5.0244435474462545e+04 0.0000000000000000e+00  -2.8965912550153537e+05 5.6945079101849924e+03 0.0000000000000000e+00  5.6248152183253143e+04 4.7484940043408664e+04 0.0000000000000000e+00  1.0086957907290613e+05 5.2566846682404983e+05 0.0000000000000000e+00  2.3210613060337774e+05 4.5863313430531940e+05 0.0000000000000000e+00  3.8926566368007014e+04 2.5724011264647794e+05 0.0000000000000000e+00  -1.3963573271119673e+05 1.2621654924461620e+05 0.0000000000000000e+00  4.5387876104489673e+05 -1.0654727331720847e+05 0.0000000000000000e+00  -5.1550443856089143e+04 4.5988087407007761e+05 0.0000000000000000e+00  8.3190942536288479e+04 4.9607509720077243e+05 0.0000000000000000e+00  -1.5523465191636002e+05 5.5653261039302655e+04 0.0000000000000000e+00  8.4994375565198468e+04 -6.1874156828687969e+05 0.0000000000000000e+00  1.4470618440577766e+05 1.5793209826179745e+05 0.0000000000000000e+00  -7.8563317722398811e+05 1.7992150003646853e+05 0.0000000000000000e+00  -1.3451548947802719e+05 3.4516463963307923e+05 0.0000000000000000e+00  -8.6516607181894593e+04 9.4049569256621748e+04 0.0000000000000000e+00  -2.0866664331518981e+05 4.5901805354982865e+05 0.0000000000000000e+00  1.6352280417472491e+05 5.8090132167683376e+04 0.0000000000000000e+00  -2.0271979577685616e+05 3.6930784404401056e+05 0.0000000000000000e+00  1.0234448301393511e+05 -3.0261579091099434e+05 0.0000000000000000e+00  2.3944586444961533e+05 3.8394814467213850e+05 0.0000000000000000e+00  7.1859920161844091e+05 -1.3077811499888431e+05 0.0000000000000000e+00  -2.1260417897125214e+05 -5.9642550547515030e+05 0.0000000000000000e+00  -3.7069168763344741e+05 -2.0973062499661010e+05 0.0000000000000000e+00  -5.3921954193726403e+05 6.2092026456665437e+04 0.0000000000000000e+00  4.6651093880257668e+05 -1.5490167645700899e+05 0.0000000000000000e+00  -1.7732540290599854e+06 -7.4561149749601725e+05 0.0000000000000000e+00  -1.4104551179858437e+05 -5.9550365160104178e+04 0.0000000000000000e+00  -2.6144207957414954e+04 7.9944593856894725e+05 0.0000000000000000e+00  -2.7499461998319876e+05 1.1275603423220420e+05 0.0000000000000000e+00  7.2650607631454570e+05 1.9045034230836136e+04 0.0000000000000000e+00  5.9426129408417118e+05 -2.2198760091713522e+05 0.0000000000000000e+00  8.3253919046728010e+05 1.8742855972668054e+05 0.0000000000000000e+00  -1.1898426248268951e+06 -2.7090248043822654e+05 0.0000000000000000e+00  5.2565883546554236e+04 -5.4113951362390467e+05 0.0000000000000000e+00  7.5479405683635559e+05 -5.6762309294598002e+05 0.0000000000000000e+00  9.1417315178115445e+05 -1.6023171591055152e+05 0.0000000000000000e+00  -4.5792603348515613e+05 -2.3557918490939852e+05 0.0000000000000000e+00  -4.5594365284610953e+05 -2.8004274371108541e+05 0.0000000000000000e+00  1.4682674477223326e+06 1.7205634539250287e+06 0.0000000000000000e+00  4.1504996346434561e+05 1.4471176118517129e+05 0.0000000000000000e+00  1.4538403334996591e+06 9.2239071443898487e+05 0.0000000000000000e+00  -9.2595799862455088e+05 -3.1417974051161157e+05 0.0000000000000000e+00  -7.5534157274124748e+05 2.1348907554314854e+06 0.0000000000000000e+00  -3.1085745069161162e+05 -1.5054625817612049e+05 0.0000000000000000e+00  4.0134140020416019e+05 -3.0056408042902377e+05 0.0000000000000000e+00  -3.6478790573620686e+05 -2.2526309357408513e+03 0.0000000000000000e+00  -4.0733189144058712e+05 5.1216476164157072e+05 0.0000000000000000e+00  6.3018104088853183e+05 -1.8504608811843506e+05 0.0000000000000000e+00  -3.3291713201811502e+05 -2.1529414519144564e+04 0.0000000000000000e+00  -9.4456463650178150e+04 -5.3751969343407457e-11 0.0000000000000000e+00  2.8972037295459461e+05 -4.3840923131310297e-10 0.0000000000000000e+00  -1.4332971502990066e+06 -6.4102655735579366e+05 0.0000000000000000e+00  9.9057770714335842e+05 -2.9853652382801106e+05 0.0000000000000000e+00  3.3556260052696458e+05 -1.1694174033704291e+06 0.0000000000000000e+00  1.5988098162122862e+06 -1.0049939618175575e+06 0.0000000000000000e+00  1.0167495253288001e+06 -6.4015910329190781e+04 0.0000000000000000e+00  6.7977351446021337e+05 3.1380622345266838e+04 0.0000000000000000e+00  -3.6141647067977057e+05 1.7302475826608556e+05 0.0000000000000000e+00  2.7768705800990196e+05 5.5351546148732037e+05 0.0000000000000000e+00  -1.9425648623582852e+05 8.1816027746982209e+05 0.0000000000000000e+00  1.0260364926132371e+06 -1.6303521647952279e+04 0.0000000000000000e+00  2.2987046450116317e+05 1.2747864906980679e+05 0.0000000000000000e+00  9.7844226086537668e+05 1.1680830076821717e+06 0.0000000000000000e+00  1.8243328493636972e+05 -3.5057175230807438e+05 0.0000000000000000e+00  1.4204396223217007e+05 -5.7732628331240783e+04 0.0000000000000000e+00  1.2339764538839201e+06 1.0595901821720945e+06 0.0000000000000000e+00  -1.1447181141215509e+06 7.1453856341697869e+05 0.0000000000000000e+00  -6.9158322308517597e+05 1.8057981481747041e+05 0.0000000000000000e+00  -3.0284793125783978e+05 -6.9095981185940560e+05 0.0000000000000000e+00  6.6806046593449882e+05 3.3803654120427981e+05 0.0000000000000000e+00  4.3280569768923038e+05 -2.8144128658845171e+05 0.0000000000000000e+00  2.7165842062430468e+05 1.7030395402554740e+05 0.0000000000000000e+00  2.5436131293172171e+05 5.4786242329153558e+05 0.0000000000000000e+00  2.8233135604723333e+05 -1.8070393418427836e+05 0.0000000000000000e+00  1.8329130550888009e+05 -1.3926107022228773e+05 0.0000000000000000e+00  5.5457852729609434e+05 1.0561380462553051e+05 0.0000000000000000e+00  -2.7580857140107086e+05 5.5502608488525497e+05 0.0000000000000000e+00  -4.8557624865505175e+05 -1.1358412086501464e+05 0.0000000000000000e+00  -1.9041710607295975e+05 -2.4213192085787488e+05 0.0000000000000000e+00  -2.4038753352704589e+05 -2.4644775689252676e+05 0.0000000000000000e+00  2.1377512867323507e+05 1.8475572957928668e+05 0.0000000000000000e+00  1.2073769632033320e+05 3.1271514396320336e+05 0.0000000000000000e+00  6.4882655271672073e+05 -7.5774996641741111e+05 0.0000000000000000e+00  2.7885168002785236e+05 -3.0949832886891474e+05 0.0000000000000000e+00  6.2707925896738307e+05 -3.9678013442245603e+05 0.0000000000000000e+00  -7.4459068313594049e+04 6.3067980510294787e+05 0.0000000000000000e+00  1.6980309699168347e+05 -3.7470250287072522e+04 0.0000000000000000e+00  2.5999309539155316e+05 -4.1994904035657666e+04 0.0000000000000000e+00  3.3712896331611671e+05 1.0412353182227790e+05 0.0000000000000000e+00  2.6800336260310729e+05 9.0532729723359225e+05 0.0000000000000000e+00  2.8315403488937271e+05 -5.5681426674959227e+05 0.0000000000000000e+00  2.5398383506037280e+05 7.7026529261591379e+04 0.0000000000000000e+00  -8.1751610154417067e+04 -1.8886809218553943e+04 0.0000000000000000e+00  -4.0356834350486594e+05 -2.6302510058651365e+04 0.0000000000000000e+00  1.7955175457521813e+05 -2.8208608420469605e+04 0.0000000000000000e+00  1.4536613181812890e+05 2.1792893730930198e+05 0.0000000000000000e+00  2.2313659679001488e+04 -4.1232384308863798e+05 0.0000000000000000e+00  -2.9239914000899438e+05 1.2851406331342549e+05 0.0000000000000000e+00  3.3587583161858594e+04 -4.1400599409695988e+05 0.0000000000000000e+00  6.5969143084500742e+04 3.4793166386585339e+05 0.0000000000000000e+00  2.5406897453190637e+05 2.3024841042720553e+05 0.0000000000000000e+00  -5.3454538397876348e+05 -3.3370043741446536e+05 0.0000000000000000e+00  -1.2202090175779093e+05 8.3532807675971917e+05 0.0000000000000000e+00  -5.6304347989087366e+05 1.2608128341224846e+05 0.0000000000000000e+00  -4.8244960752952745e+05 9.8905216733732406e+04 0.0000000000000000e+00  -4.1382155023516429e+05 -3.8675502356846724e+05 0.0000000000000000e+00  -5.0167034200991504e+05 -1.1287295451511135e+06 0.0000000000000000e+00  4.2612038846911618e+05 -1.5501614515651083e+06 0.0000000000000000e+00  -2.7788168124886771e+05 5.1855664571173402e+05 0.0000000000000000e+00  1.2876367368299925e+04 -8.9345077691410726e+05 0.0000000000000000e+00  1.6541683237635018e+05 1.3514192891373187e+06 0.0000000000000000e+00  -3.8986748515796389e+04 -7.0583417621914065e+04 0.0000000000000000e+00  1.3399501420895848e+06 -1.0257135907798058e+06 0.0000000000000000e+00  2.9481492560374504e+05 -2.2514476570731174e+05 0.0000000000000000e+00  2.0296350709043819e+05 -1.5493765874405655e+06 0.0000000000000000e+00  2.6313788767453119e+04 -1.8741141528115610e+06 0.0000000000000000e+00  9.0036955281221773e+05 -5.4123073668309127e+05 0.0000000000000000e+00  -4.4017762239590712e+05 -1.0798439771244701e+05 0.0000000000000000e+00  -1.3188082619067575e+06 1.4318802921561192e+05 0.0000000000000000e+00  3.8278490756867320e+05 1.3937161706783741e+04 0.0000000000000000e+00  -4.4856586528534739e+05 9.1460285875352682e+05 0.0000000000000000e+00  2.6644275509447226e+05 -1.4198168334077744e+05 0.0000000000000000e+00  -1.6474264488952893e+06 1.4686367525401115e+06 0.0000000000000000e+00  -4.4184766533512471e+05 -1.0370218932188790e+05 0.0000000000000000e+00  -1.3719457268141939e+06 -2.3972739828199777e+05 0.0000000000000000e+00  8.8420533954303479e+05 -1.2650589668375452e+06 0.0000000000000000e+00  -2.3557307297375731e+05 -8.9717292506495770e+05 0.0000000000000000e+00  2.9095191365636559e+05 7.0638203925090347e+04 0.0000000000000000e+00  4.8934509708936431e+05 -8.1676553817657754e+05 0.0000000000000000e+00  7.1274844199486217e+05 4.7241449462147598e+05 0.0000000000000000e+00  3.9313810832514358e+05 -4.7153967754651267e-11 0.0000000000000000e+00  -3.5426937388276478e+05 -7.8216885468767913e-11 0.0000000000000000e+00  -7.0737647194574063e+05 -1.2099613129063859e+06 0.0000000000000000e+00  -1.2709437348747784e+06 1.0368519222486300e+04 0.0000000000000000e+00  2.0063488823271918e+06 -1.0528330763021500e+06 0.0000000000000000e+00  -3.7142171579114441e+05 -7.5040276231755444e+05 0.0000000000000000e+00  3.9568802236727235e+05 -1.1192976892723644e+06 0.0000000000000000e+00  5.5887383678172086e+05 -6.6811194342330436e+05 0.0000000000000000e+00  2.2340302184509233e+05 -5.6568371500701971e+04 0.0000000000000000e+00  9.6698219544789230e+05 2.8833401528464496e+05 0.0000000000000000e+00  6.6206271784975508e+05 6.9834303378279100e+05 0.0000000000000000e+00  -6.6569579109224305e+05 -3.5736766631857696e+05 0.0000000000000000e+00  1.4657428831668053e+05 -8.9081008036596864e+05 0.0000000000000000e+00  6.4067974856292328e+05 5.2520093252755818e+05 0.0000000000000000e+00  3.0090760304018331e+05 1.7405885496552513e+05 0.0000000000000000e+00  1.8775758132893426e+05 -9.0008749862846814e+05 0.0000000000000000e+00  1.4147280056897009e+05 -5.9054489340683813e+03 0.0000000000000000e+00  2.7038338164612290e+05 6.5844526509739528e+05 0.0000000000000000e+00  -3.8741496330165159e+05 -2.2279309697187887e+05 0.0000000000000000e+00  1.7463763716645859e+05 -9.7749456805983814e+05 0.0000000000000000e+00  4.8637485315331566e+05 2.3883379801928959e+05 0.0000000000000000e+00  5.4865380165143084e+04 -1.1797540421323742e+05 0.0000000000000000e+00  -2.1506880615115524e+05 -1.6454097853169398e+05 0.0000000000000000e+00  2.7788834465038904e+05 1.3421684575755286e+05 0.0000000000000000e+00  -1.2159774176145541e+05 2.1611044858471767e+05 0.0000000000000000e+00  5.7079109899663494e+05 -6.9603101807093376e+05 0.0000000000000000e+00  1.3414636327938191e+05 -4.5251561101081094e+05 0.0000000000000000e+00  -3.0358543553403416e+05 7.2743224993570382e+05 0.0000000000000000e+00  -2.2697543324555355e+05 -2.4451516211385529e+04 0.0000000000000000e+00  7.1410934848635120e+05 3.2860975807031809e+05 0.0000000000000000e+00  6.0360085869588156e+05 -3.4168441913284361e+05 0.0000000000000000e+00  3.4185698385536805e+05 2.1083543316160206e+05 0.0000000000000000e+00  5.2212012499545075e+04 -2.3882183890821930e+05 0.0000000000000000e+00  2.0242386047879339e+04 3.5205057714668615e+05 0.0000000000000000e+00  1.4739459082086408e+05 -3.4868228159788711e+05 0.0000000000000000e+00  -2.9906091731747519e+05 3.1342781142308406e+05 0.0000000000000000e+00  2.0113138067499359e+05 1.2259026587647069e+05 0.0000000000000000e+00  -1.8700021241082734e+05 3.6578259627423901e+05 0.0000000000000000e+00  5.3629564211353438e+05 4.0478135052818739e+04 0.000000000000000