<?xml version="1.0"?>
<VTKFile type="UnstructuredGrid"  version="0.1"  >
<UnstructuredGrid>
<Piece  NumberOfPoints="1369" NumberOfCells="2560">
<Points>
<DataArray  type="Float64"  NumberOfComponents="3"  format="ascii">0 0 0  0.75 0 0  1.5 0 0  2.25 0 0  3 0 0  3.75 0 0  4.5 0 0  5.25 0 0  6 0 0  6.75 0 0  7.5 0 0  8.25 0 0  9 0 0  9.75 0 0  10.5 0 0  11.25 0 0  12 0 0  12.75 0 0  13.5 0 0  14.25 0 0  15 0 0  15.75 0 0  16.5 0 0  17.25 0 0  18 0 0  18.75 0 0  19.5 0 0  20.25 0 0  21 0 0  21.75 0 0  22.5 0 0  23.25 0 0  24 0 0  24.75 0 0  25.5 0 0  26.25 0 0  27 0 0  27.75 0 0  28.5 0 0  29.25 0 0  30 0 0  30.75 0 0  31.5 0 0  32.25 0 0  33 0 0  33.75 0 0  34.5 0 0  35.25 0 0  36 0 0  36.75 0 0  37.5 0 0  38.25 0 0  39 0 0  39.75 0 0  40.5 0 0  41.25 0 0  42 0 0  42.75 0 0  43.5 0 0  44.25 0 0  45 0 0  45.75 0 0  46.5 0 0  47.25 0 0  48 0 0  48.75 0 0  49.5 0 0  50.25 0 0  51 0 0  51.75 0 0  52.5 0 0  53.25 0 0  54 0 0  54.75 0 0  55.5 0 0  56.25 0 0  57 0 0  57.75 0 0  58.5 0 0  59.25 0 0  60 0 0  0 0.5 0  0.75 0.5 0  1.5 0.5 0  2.25 0.5 0  3 0.5 0  3.75 0.5 0  4.5 0.5 0  5.25 0.5 0  6 0.5 0  6.75 0.5 0  7.5 0.5 0  8.25 0.5 0  9 0.5 0  9.75 0.5 0  10.5 0.5 0  11.25 0.5 0  12 0.5 0  12.75 0.5 0  13.5 0.5 0  14.25 0.5 0  15 0.5 0  15.75 0.5 0  16.5 0.5 0  17.25 0.5 0  18 0.5 0  18.75 0.5 0  19.5 0.5 0  20.25 0.5 0  21 0.5 0  21.75 0.5 0  22.5 0.5 0  23.25 0.5 0  24 0.5 0  24.75 0.5 0  25.5 0.5 0  26.25 0.5 0  27 0.5 0  27.75 0.5 0  28.5 0.5 0  29.25 0.5 0  30 0.5 0  30.75 0.5 0  31.5 0.5 0  32.25 0.5 0  33 0.5 0  33.75 0.5 0  34.5 0.5 0  35.25 0.5 0  36 0.5 0  36.75 0.5 0  37.5 0.5 0  38.25 0.5 0  39 0.5 0  39.75 0.5 0  40.5 0.5 0  41.25 0.5 0  42 0.5 0  42.75 0.5 0  43.5 0.5 0  44.25 0.5 0  45 0.5 0  45.75 0.5 0  46.5 0.5 0  47.25 0.5 0  48 0.5 0  48.75 0.5 0  49.5 0.5 0  50.25 0.5 0  51 0.5 0  51.75 0.5 0  52.5 0.5 0  53.25 0.5 0  54 0.5 0  54.75 0.5 0  55.5 0.5 0  56.25 0.5 0  57 0.5 0  57.75 0.5 0  58.5 0.5 0  59.25 0.5 0  60 0.5 0  0 1 0  0.75 1 0  1.5 1 0  2.25 1 0  3 1 0  3.75 1 0  4.5 1 0  5.25 1 0  6 1 0  6.75 1 0  7.5 1 0  8.25 1 0  9 1 0  9.75 1 0  10.5 1 0  11.25 1 0  12 1 0  12.75 1 0  13.5 1 0  14.25 1 0  15 1 0  15.75 1 0  16.5 1 0  17.25 1 0  18 1 0  18.75 1 0  19.5 1 0  20.25 1 0  21 1 0  21.75 1 0  22.5 1 0  23.25 1 0  24 1 0  24.75 1 0  25.5 1 0  26.25 1 0  27 1 0  27.75 1 0  28.5 1 0  29.25 1 0  30 1 0  30.75 1 0  31.5 1 0  32.25 1 0  33 1 0  33.75 1 0  34.5 1 0  35.25 1 0  36 1 0  36.75 1 0  37.5 1 0  38.25 1 0  39 1 0  39.75 1 0  40.5 1 0  41.25 1 0  42 1 0  42.75 1 0  43.5 1 0  44.25 1 0  45 1 0  45.75 1 0  46.5 1 0  47.25 1 0  48 1 0  48.75 1 0  49.5 1 0  50.25 1 0  51 1 0  51.75 1 0  52.5 1 0  53.25 1 0  54 1 0  54.75 1 0  55.5 1 0  56.25 1 0  57 1 0  57.75 1 0  58.5 1 0  59.25 1 0  60 1 0  0 1.5 0  0.75 1.5 0  1.5 1.5 0  2.25 1.5 0  3 1.5 0  3.75 1.5 0  4.5 1.5 0  5.25 1.5 0  6 1.5 0  6.75 1.5 0  7.5 1.5 0  8.25 1.5 0  9 1.5 0  9.75 1.5 0  10.5 1.5 0  11.25 1.5 0  12 1.5 0  12.75 1.5 0  13.5 1.5 0  14.25 1.5 0  15 1.5 0  15.75 1.5 0  16.5 1.5 0  17.25 1.5 0  18 1.5 0  18.75 1.5 0  19.5 1.5 0  20.25 1.5 0  21 1.5 0  21.75 1.5 0  22.5 1.5 0  23.25 1.5 0  24 1.5 0  24.75 1.5 0  25.5 1.5 0  26.25 1.5 0  27 1.5 0  27.75 1.5 0  28.5 1.5 0  29.25 1.5 0  30 1.5 0  30.75 1.5 0  31.5 1.5 0  32.25 1.5 0  33 1.5 0  33.75 1.5 0  34.5 1.5 0  35.25 1.5 0  36 1.5 0  36.75 1.5 0  37.5 1.5 0  38.25 1.5 0  39 1.5 0  39.75 1.5 0  40.5 1.5 0  41.25 1.5 0  42 1.5 0  42.75 1.5 0  43.5 1.5 0  44.25 1.5 0  45 1.5 0  45.75 1.5 0  46.5 1.5 0  47.25 1.5 0  48 1.5 0  48.75 1.5 0  49.5 1.5 0  50.25 1.5 0  51 1.5 0  51.75 1.5 0  52.5 1.5 0  53.25 1.5 0  54 1.5 0  54.75 1.5 0  55.5 1.5 0  56.25 1.5 0  57 1.5 0  57.75 1.5 0  58.5 1.5 0  59.25 1.5 0  60 1.5 0  0 2 0  0.75 2 0  1.5 2 0  2.25 2 0  3 2 0  3.75 2 0  4.5 2 0  5.25 2 0  6 2 0  6.75 2 0  7.5 2 0  8.25 2 0  9 2 0  9.75 2 0  10.5 2 0  11.25 2 0  12 2 0  12.75 2 0  13.5 2 0  14.25 2 0  15 2 0  15.75 2 0  16.5 2 0  17.25 2 0  18 2 0  18.75 2 0  19.5 2 0  20.25 2 0  21 2 0  21.75 2 0  22.5 2 0  23.25 2 0  24 2 0  24.75 2 0  25.5 2 0  26.25 2 0  27 2 0  27.75 2 0  28.5 2 0  29.25 2 0  30 2 0  30.75 2 0  31.5 2 0  32.25 2 0  33 2 0  33.75 2 0  34.5 2 0  35.25 2 0  36 2 0  36.75 2 0  37.5 2 0  38.25 2 0  39 2 0  39.75 2 0  40.5 2 0  41.25 2 0  42 2 0  42.75 2 0  43.5 2 0  44.25 2 0  45 2 0  45.75 2 0  46.5 2 0  47.25 2 0  48 2 0  48.75 2 0  49.5 2 0  50.25 2 0  51 2 0  51.75 2 0  52.5 2 0  53.25 2 0  54 2 0  54.75 2 0  55.5 2 0  56.25 2 0  57 2 0  57.75 2 0  58.5 2 0  59.25 2 0  60 2 0  0 2.5 0  0.75 2.5 0  1.5 2.5 0  2.25 2.5 0  3 2.5 0  3.75 2.5 0  4.5 2.5 0  5.25 2.5 0  6 2.5 0  6.75 2.5 0  7.5 2.5 0  8.25 2.5 0  9 2.5 0  9.75 2.5 0  10.5 2.5 0  11.25 2.5 0  12 2.5 0  12.75 2.5 0  13.5 2.5 0  14.25 2.5 0  15 2.5 0  15.75 2.5 0  16.5 2.5 0  17.25 2.5 0  18 2.5 0  18.75 2.5 0  19.5 2.5 0  20.25 2.5 0  21 2.5 0  21.75 2.5 0  22.5 2.5 0  23.25 2.5 0  24 2.5 0  24.75 2.5 0  25.5 2.5 0  26.25 2.5 0  27 2.5 0  27.75 2.5 0  28.5 2.5 0  29.25 2.5 0  30 2.5 0  30.75 2.5 0  31.5 2.5 0  32.25 2.5 0  33 2.5 0  33.75 2.5 0  34.5 2.5 0  35.25 2.5 0  36 2.5 0  36.75 2.5 0  37.5 2.5 0  38.25 2.5 0  39 2.5 0  39.75 2.5 0  40.5 2.5 0  41.25 2.5 0  42 2.5 0  42.75 2.5 0  43.5 2.5 0  44.25 2.5 0  45 2.5 0  45.75 2.5 0  46.5 2.5 0  47.25 2.5 0  48 2.5 0  48.75 2.5 0  49.5 2.5 0  50.25 2.5 0  51 2.5 0  51.75 2.5 0  52.5 2.5 0  53.25 2.5 0  54 2.5 0  54.75 2.5 0  55.5 2.5 0  56.25 2.5 0  57 2.5 0  57.75 2.5 0  58.5 2.5 0  59.25 2.5 0  60 2.5 0  0 3 0  0.75 3 0  1.5 3 0  2.25 3 0  3 3 0  3.75 3 0  4.5 3 0  5.25 3 0  6 3 0  6.75 3 0  7.5 3 0  8.25 3 0  9 3 0  9.75 3 0  10.5 3 0  11.25 3 0  12 3 0  12.75 3 0  13.5 3 0  14.25 3 0  15 3 0  15.75 3 0  16.5 3 0  17.25 3 0  18 3 0  18.75 3 0  19.5 3 0  20.25 3 0  21 3 0  21.75 3 0  22.5 3 0  23.25 3 0  24 3 0  24.75 3 0  25.5 3 0  26.25 3 0  27 3 0  27.75 3 0  28.5 3 0  29.25 3 0  30 3 0  30.75 3 0  31.5 3 0  32.25 3 0  33 3 0  33.75 3 0  34.5 3 0  35.25 3 0  36 3 0  36.75 3 0  37.5 3 0  38.25 3 0  39 3 0  39.75 3 0  40.5 3 0  41.25 3 0  42 3 0  42.75 3 0  43.5 3 0  44.25 3 0  45 3 0  45.75 3 0  46.5 3 0  47.25 3 0  48 3 0  48.75 3 0  49.5 3 0  50.25 3 0  51 3 0  51.75 3 0  52.5 3 0  53.25 3 0  54 3 0  54.75 3 0  55.5 3 0  56.25 3 0  57 3 0  57.75 3 0  58.5 3 0  59.25 3 0  60 3 0  0 3.5 0  0.75 3.5 0  1.5 3.5 0  2.25 3.5 0  3 3.5 0  3.75 3.5 0  4.5 3.5 0  5.25 3.5 0  6 3.5 0  6.75 3.5 0  7.5 3.5 0  8.25 3.5 0  9 3.5 0  9.75 3.5 0  10.5 3.5 0  11.25 3.5 0  12 3.5 0  12.75 3.5 0  13.5 3.5 0  14.25 3.5 0  15 3.5 0  15.75 3.5 0  16.5 3.5 0  17.25 3.5 0  18 3.5 0  18.75 3.5 0  19.5 3.5 0  20.25 3.5 0  21 3.5 0  21.75 3.5 0  22.5 3.5 0  23.25 3.5 0  24 3.5 0  24.75 3.5 0  25.5 3.5 0  26.25 3.5 0  27 3.5 0  27.75 3.5 0  28.5 3.5 0  29.25 3.5 0  30 3.5 0  30.75 3.5 0  31.5 3.5 0  32.25 3.5 0  33 3.5 0  33.75 3.5 0  34.5 3.5 0  35.25 3.5 0  36 3.5 0  36.75 3.5 0  37.5 3.5 0  38.25 3.5 0  39 3.5 0  39.75 3.5 0  40.5 3.5 0  41.25 3.5 0  42 3.5 0  42.75 3.5 0  43.5 3.5 0  44.25 3.5 0  45 3.5 0  45.75 3.5 0  46.5 3.5 0  47.25 3.5 0  48 3.5 0  48.75 3.5 0  49.5 3.5 0  50.25 3.5 0  51 3.5 0  51.75 3.5 0  52.5 3.5 0  53.25 3.5 0  54 3.5 0  54.75 3.5 0  55.5 3.5 0  56.25 3.5 0  57 3.5 0  57.75 3.5 0  58.5 3.5 0  59.25 3.5 0  60 3.5 0  0 4 0  0.75 4 0  1.5 4 0  2.25 4 0  3 4 0  3.75 4 0  4.5 4 0  5.25 4 0  6 4 0  6.75 4 0  7.5 4 0  8.25 4 0  9 4 0  9.75 4 0  10.5 4 0  11.25 4 0  12 4 0  12.75 4 0  13.5 4 0  14.25 4 0  15 4 0  15.75 4 0  16.5 4 0  17.25 4 0  18 4 0  18.75 4 0  19.5 4 0  20.25 4 0  21 4 0  21.75 4 0  22.5 4 0  23.25 4 0  24 4 0  24.75 4 0  25.5 4 0  26.25 4 0  27 4 0  27.75 4 0  28.5 4 0  29.25 4 0  30 4 0  30.75 4 0  31.5 4 0  32.25 4 0  33 4 0  33.75 4 0  34.5 4 0  35.25 4 0  36 4 0  36.75 4 0  37.5 4 0  38.25 4 0  39 4 0  39.75 4 0  40.5 4 0  41.25 4 0  42 4 0  42.75 4 0  43.5 4 0  44.25 4 0  45 4 0  45.75 4 0  46.5 4 0  47.25 4 0  48 4 0  48.75 4 0  49.5 4 0  50.25 4 0  51 4 0  51.75 4 0  52.5 4 0  53.25 4 0  54 4 0  54.75 4 0  55.5 4 0  56.25 4 0  57 4 0  57.75 4 0  58.5 4 0  59.25 4 0  60 4 0  0.375 0.25 0  1.125 0.25 0  1.875 0.25 0  2.625 0.25 0  3.375 0.25 0  4.125 0.25 0  4.875 0.25 0  5.625 0.25 0  6.375 0.25 0  7.125 0.25 0  7.875 0.25 0  8.625 0.25 0  9.375 0.25 0  10.125 0.25 0  10.875 0.25 0  11.625 0.25 0  12.375 0.25 0  13.125 0.25 0  13.875 0.25 0  14.625 0.25 0  15.375 0.25 0  16.125 0.25 0  16.875 0.25 0  17.625 0.25 0  18.375 0.25 0  19.125 0.25 0  19.875 0.25 0  20.625 0.25 0  21.375 0.25 0  22.125 0.25 0  22.875 0.25 0  23.625 0.25 0  24.375 0.25 0  25.125 0.25 0  25.875 0.25 0  26.625 0.25 0  27.375 0.25 0  28.125 0.25 0  28.875 0.25 0  29.625 0.25 0  30.375 0.25 0  31.125 0.25 0  31.875 0.25 0  32.625 0.25 0  33.375 0.25 0  34.125 0.25 0  34.875 0.25 0  35.625 0.25 0  36.375 0.25 0  37.125 0.25 0  37.875 0.25 0  38.625 0.25 0  39.375 0.25 0  40.125 0.25 0  40.875 0.25 0  41.625 0.25 0  42.375 0.25 0  43.125 0.25 0  43.875 0.25 0  44.625 0.25 0  45.375 0.25 0  46.125 0.25 0  46.875 0.25 0  47.625 0.25 0  48.375 0.25 0  49.125 0.25 0  49.875 0.25 0  50.625 0.25 0  51.375 0.25 0  52.125 0.25 0  52.875 0.25 0  53.625 0.25 0  54.375 0.25 0  55.125 0.25 0  55.875 0.25 0  56.625 0.25 0  57.375 0.25 0  58.125 0.25 0  58.875 0.25 0  59.625 0.25 0  0.375 0.75 0  1.125 0.75 0  1.875 0.75 0  2.625 0.75 0  3.375 0.75 0  4.125 0.75 0  4.875 0.75 0  5.625 0.75 0  6.375 0.75 0  7.125 0.75 0  7.875 0.75 0  8.625 0.75 0  9.375 0.75 0  10.125 0.75 0  10.875 0.75 0  11.625 0.75 0  12.375 0.75 0  13.125 0.75 0  13.875 0.75 0  14.625 0.75 0  15.375 0.75 0  16.125 0.75 0  16.875 0.75 0  17.625 0.75 0  18.375 0.75 0  19.125 0.75 0  19.875 0.75 0  20.625 0.75 0  21.375 0.75 0  22.125 0.75 0  22.875 0.75 0  23.625 0.75 0  24.375 0.75 0  25.125 0.75 0  25.875 0.75 0  26.625 0.75 0  27.375 0.75 0  28.125 0.75 0  28.875 0.75 0  29.625 0.75 0  30.375 0.75 0  31.125 0.75 0  31.875 0.75 0  32.625 0.75 0  33.375 0.75 0  34.125 0.75 0  34.875 0.75 0  35.625 0.75 0  36.375 0.75 0  37.125 0.75 0  37.875 0.75 0  38.625 0.75 0  39.375 0.75 0  40.125 0.75 0  40
[...]
<PointData  Vectors="f_8-0"> 
<DataArray  type="Float64"  Name="f_8-0"  NumberOfComponents="3" format="ascii">-8.8615172219605794e-11 0.0000000000000000e+00 0.0000000000000000e+00  0.0000000000000000e+00 -1.9081861664692787e-11 0.0000000000000000e+00  9.4003100898843498e-09 3.9867541846283034e-10 0.0000000000000000e+00  1.4415190379211132e-09 7.3999428725250029e-10 0.0000000000000000e+00  -9.1188601519610170e-08 -2.7402393079492552e-07 0.0000000000000000e+00  -1.2419807980956922e-07 1.3551555295845637e-07 0.0000000000000000e+00  1.8661218457650562e-08 -3.6206530039678713e-08 0.0000000000000000e+00  0.0000000000000000e+00 0.0000000000000000e+00 0.0000000000000000e+00  0.0000000000000000e+00 0.0000000000000000e+00 0.0000000000000000e+00  0.0000000000000000e+00 0.0000000000000000e+00 0.0000000000000000e+00  6.3394842165563130e-09 -3.3160940006852169e-09 0.0000000000000000e+00  9.7012447335052838e-09 2.2766338989320852e-08 0.0000000000000000e+00  -1.1894121701789528e-07 -7.7701789144036542e-08 0.0000000000000000e+00  0.0000000000000000e+00 -5.9421944898705868e-10 0.0000000000000000e+00  1.1722376643172717e-09 -1.6339957615777970e-10 0.0000000000000000e+00  -2.7169265780301748e-08 2.1245916008066007e-07 0.0000000000000000e+00  -3.4689422814408602e-08 -1.3958239526426962e-08 0.0000000000000000e+00  1.8635912236112749e-07 -3.0437920617344211e-09 0.0000000000000000e+00  -5.8070155810083777e-09 -5.1924928858013909e-08 0.0000000000000000e+00  8.3533452381339589e-09 1.3783021514659070e-08 0.0000000000000000e+00  0.0000000000000000e+00 0.0000000000000000e+00 0.0000000000000000e+00  4.6969383745835051e-08 -2.9455682587778874e-08 0.0000000000000000e+00  0.0000000000000000e+00 1.5503783676577888e-09 0.0000000000000000e+00  1.1395702182828860e-07 0.0000000000000000e+00 0.0000000000000000e+00  1.1571799402796001e-08 3.9489122561355730e-08 0.0000000000000000e+00  -4.1390786008682618e-08 7.5124756451763260e-09 0.0000000000000000e+00  -6.9909134994597138e-09 -4.4756573212407216e-10 0.0000000000000000e+00  1.9338602698559440e-09 2.8976845884823556e-10 0.0000000000000000e+00  3.4075221486064684e-09 7.1265638302682557e-09 0.0000000000000000e+00  0.0000000000000000e+00 4.2169029843590989e-10 0.0000000000000000e+00  3.1838709668306158e-08 5.5064312888168399e-09 0.0000000000000000e+00  -9.4413714703426109e-10 3.1333758768194029e-08 0.0000000000000000e+00  3.3140575945005383e-08 -9.2877202496756091e-09 0.0000000000000000e+00  5.7786255927697406e-09 -7.8838905335310626e-08 0.0000000000000000e+00  0.0000000000000000e+00 0.0000000000000000e+00 0.0000000000000000e+00  6.4376302237137311e-09 -6.0790590855231002e-09 0.0000000000000000e+00  -2.9286748168263371e-08 1.9598584632344276e-08 0.0000000000000000e+00  3.2252295098174496e-09 2.5969918952677604e-08 0.0000000000000000e+00  0.0000000000000000e+00 0.0000000000000000e+00 0.0000000000000000e+00  0.0000000000000000e+00 -3.4203942852094113e-10 0.0000000000000000e+00  -4.5347708381095181e-09 -7.6276481273580302e-09 0.0000000000000000e+00  3.2210935360986356e-08 -1.3272006462555435e-08 0.0000000000000000e+00  -1.3450475443980474e-07 -3.4345487270181561e-08 0.0000000000000000e+00  -1.3833275392320376e-07 2.4533638307645431e-08 0.0000000000000000e+00  0.0000000000000000e+00 0.0000000000000000e+00 0.0000000000000000e+00  5.3123752552642878e-09 -2.7522343486326491e-08 0.0000000000000000e+00  -1.4826914473024284e-08 7.6763558585796468e-08 0.0000000000000000e+00  5.2103728194985886e-10 0.0000000000000000e+00 0.0000000000000000e+00  2.1142718173481884e-07 -5.1600107018734603e-09 0.0000000000000000e+00  -1.1191635538833021e-08 -2.4857654314794672e-08 0.0000000000000000e+00  0.0000000000000000e+00 0.0000000000000000e+00 0.0000000000000000e+00  -1.9964835773582981e-09 -1.3979570678973832e-09 0.0000000000000000e+00  1.7180070920396574e-07 -1.6878743257084216e-08 0.0000000000000000e+00  -6.8722088559866558e-09 5.8512719709267948e-09 0.0000000000000000e+00  -6.0193367313411602e-09 -4.6748901406627350e-09 0.0000000000000000e+00  0.0000000000000000e+00 3.8338823419433208e-10 0.0000000000000000e+00  9.1834265156631766e-09 1.0501197556958245e-08 0.0000000000000000e+00  0.0000000000000000e+00 -3.8548796022328509e-10 0.0000000000000000e+00  0.0000000000000000e+00 0.0000000000000000e+00 0.0000000000000000e+00  8.6619720756527074e-09 2.0780013944476276e-09 0.0000000000000000e+00  4.1882509764975960e-08 3.7027365489079231e-08 0.0000000000000000e+00  -2.5864794508527818e-08 7.0027668839751202e-09 0.0000000000000000e+00  0.0000000000000000e+00 0.0000000000000000e+00 0.0000000000000000e+00  7.1097725451199641e-11 5.7428593519554454e-09 0.0000000000000000e+00  0.0000000000000000e+00 0.0000000000000000e+00 0.0000000000000000e+00  9.2217123692614911e-09 -9.4073244386549014e-09 0.0000000000000000e+00  0.0000000000000000e+00 -1.2766277170170076e-09 0.0000000000000000e+00  4.8487749248195041e-09 -7.8988397494031573e-09 0.0000000000000000e+00  -6.3869847637909385e-09 7.3520158930328622e-08 0.0000000000000000e+00  -4.9122148292337622e-08 1.3464610441996468e-10 0.0000000000000000e+00  0.0000000000000000e+00 1.1623854549247366e-09 0.0000000000000000e+00  4.3392217084045880e-09 -1.2999417638035436e-08 0.0000000000000000e+00  2.4646828299185717e-09 0.0000000000000000e+00 0.0000000000000000e+00  1.0505212854424355e-08 4.0811901884465199e-09 0.0000000000000000e+00  0.0000000000000000e+00 0.0000000000000000e+00 0.0000000000000000e+00  0.0000000000000000e+00 0.0000000000000000e+00 0.0000000000000000e+00  -3.0155623733524641e-08 4.6334360630594468e-08 0.0000000000000000e+00  0.0000000000000000e+00 0.0000000000000000e+00 0.0000000000000000e+00  0.0000000000000000e+00 0.0000000000000000e+00 0.0000000000000000e+00  3.2579821825020466e-09 7.8028098600389261e-10 0.0000000000000000e+00  -9.4479661165961142e-10 3.9887304779025865e-11 0.0000000000000000e+00  5.8044424007256120e+05 0.0000000000000000e+00 0.0000000000000000e+00  -4.4099983940752296e+04 -1.7250488418356335e+05 0.0000000000000000e+00  -8.7681785212330957e+04 -1.1042483207935130e+06 0.0000000000000000e+00  -1.5777078432978029e+05 9.6764002590257418e+05 0.0000000000000000e+00  5.9147448190291543e+04 1.0343530826122378e+06 0.0000000000000000e+00  -1.4169160174848638e+06 8.8002346243375516e+05 0.0000000000000000e+00  -5.6824875540984317e+05 5.0639627802940086e+05 0.0000000000000000e+00  -4.9590788999144745e+05 -4.9429103252506041e+05 0.0000000000000000e+00  1.6510841576120458e+05 -1.7410058434930262e+06 0.0000000000000000e+00  -1.2605302713116992e+06 -6.6432966716172628e+05 0.0000000000000000e+00  -7.6636191180069488e+05 2.7585820896883481e+04 0.0000000000000000e+00  -2.4483351796745040e+05 -1.0609715843455314e+05 0.0000000000000000e+00  6.4379306071261468e+05 -7.0508737871615496e+05 0.0000000000000000e+00  5.3268502291744167e+05 -8.3045985158840206e+05 0.0000000000000000e+00  -6.1347422568604362e+05 3.7925944705424341e+05 0.0000000000000000e+00  -2.5591732530279460e+05 -3.1434799347905489e+05 0.0000000000000000e+00  -1.2816929293241578e+06 -1.6798812477972864e+06 0.0000000000000000e+00  -5.1150852797924192e+05 -4.3578781008451851e+05 0.0000000000000000e+00  9.3932849880681501e+05 7.8694969155721425e+05 0.0000000000000000e+00  4.7172442082608672e+05 8.0632936599320651e+05 0.0000000000000000e+00  2.7157663797658682e+05 4.3253711855062260e+05 0.0000000000000000e+00  1.4652023807006790e+04 -5.3026054459787521e+05 0.0000000000000000e+00  -5.0581232271169388e+05 -2.5043874877190759e+05 0.0000000000000000e+00  -1.5274849084273503e+04 -1.2614414800633029e+05 0.0000000000000000e+00  -6.4740503577830525e+04 2.8265777689760021e+05 0.0000000000000000e+00  3.9129960366465856e+05 1.2016734574896719e+06 0.0000000000000000e+00  1.6191295135603216e+05 -5.3301214420892531e+05 0.0000000000000000e+00  7.0490338942894625e+04 -2.5394142539371504e+05 0.0000000000000000e+00  1.0856082148516385e+06 1.2176672462116507e+04 0.0000000000000000e+00  -5.4383236843723734e+05 1.0196700837687109e+04 0.0000000000000000e+00  -6.3848250445303845e+05 1.2917418189972220e+05 0.0000000000000000e+00  1.2613316068180147e+05 1.8399521839593543e+05 0.0000000000000000e+00  1.5972712557868686e+05 8.0244563494574861e+04 0.0000000000000000e+00  -2.2408078480648212e+05 -4.9068960128900572e+05 0.0000000000000000e+00  -9.9174160337123415e+05 -6.5207490261329687e+05 0.0000000000000000e+00  -6.2740318394077139e+05 -7.4934726518946746e+05 0.0000000000000000e+00  6.8538197607187310e+05 -9.2734866237105161e+04 0.0000000000000000e+00  -1.0151380215813944e+06 -3.2861395266971173e+05 0.0000000000000000e+00  -1.5123863619288721e+06 -9.0881660383012856e+05 0.0000000000000000e+00  -1.3553003780328629e+06 -5.2331865615433239e+05 0.0000000000000000e+00  -2.0053527150102411e+06 -9.6565633418760146e+05 0.0000000000000000e+00  -1.2363639343791364e+06 4.0619811582024186e+05 0.0000000000000000e+00  -1.5819645694429204e+06 5.6203344617860252e+05 0.0000000000000000e+00  -5.1530252441652177e+05 -1.1581307162240912e+05 0.0000000000000000e+00  -5.0559634058085165e+05 -1.0488059226642817e+06 0.0000000000000000e+00  3.8799903637696867e+05 -3.1670508109727147e+05 0.0000000000000000e+00  2.5181562221922661e+05 -2.5358630185773547e+05 0.0000000000000000e+00  2.6838227087507991e+05 6.6655644798310602e+05 0.0000000000000000e+00  4.4288072308495111e+05 -7.5784514560487715e+05 0.0000000000000000e+00  -4.5621617259298271e+05 4.6024209820294299e+05 0.0000000000000000e+00  -6.2696796305704350e+05 -1.3224627150549367e+06 0.0000000000000000e+00  -8.3264918545458396e+05 -1.1423858342551865e+05 0.0000000000000000e+00  1.2359751961915795e+05 7.1150939660082117e+05 0.0000000000000000e+00  4.3976634339697438e+05 8.3325599360402138e+05 0.0000000000000000e+00  8.3129686070740432e+05 -2.2685851602775694e+05 0.0000000000000000e+00  -1.2629513087510812e+05 4.1129450231775519e+05 0.0000000000000000e+00  1.9281399095145273e+06 1.1222441064341594e+06 0.0000000000000000e+00  1.3967451674610694e+05 -1.0786663297706818e+05 0.0000000000000000e+00  -1.5120221686724876e+05 -7.6388122013618494e+05 0.0000000000000000e+00  3.8289644931515929e+05 -1.1971621687723850e+05 0.0000000000000000e+00  -8.7263528628959635e+05 -4.7059694749363273e+05 0.0000000000000000e+00  -5.1412549205972633e+05 5.7268218055506703e+04 0.0000000000000000e+00  -5.6450585673117882e+05 -2.0581881672915435e+05 0.0000000000000000e+00  1.0562979588793053e+06 8.9332939191425277e+04 0.0000000000000000e+00  -3.9708106802707611e+04 3.8204341659576872e+04 0.0000000000000000e+00  -1.0183201090439589e+06 4.8400355886969593e+05 0.0000000000000000e+00  -1.0651279395497607e+06 5.2100743636871246e+05 0.0000000000000000e+00  4.9707209461796901e+05 2.0691471034612670e+05 0.0000000000000000e+00  3.0948278167683468e+05 5.5087712224686483e+05 0.0000000000000000e+00  -1.5870560452019463e+06 -2.0649425829976771e+06 0.0000000000000000e+00  -4.8826037307907507e+05 2.4734872435928608e+05 0.0000000000000000e+00  -7.6384788710312033e+05 -7.0455975099705392e+05 0.0000000000000000e+00  8.0228198753107490e+05 7.0341501847895372e+04 0.0000000000000000e+00  1.3813133134668169e+06 -2.2522655337392236e+06 0.0000000000000000e+00  3.7053661838582740e+05 -2.9145399804188823e+05 0.0000000000000000e+00  -6.2361517729345732e+05 -1.9022374719210339e+05 0.0000000000000000e+00  1.0034314806429339e+05 -2.0322053138452384e+05 0.0000000000000000e+00  4.6385328844320745e+05 1.4322128788903065e+04 0.0000000000000000e+00  -7.8857991296348185e+05 1.7141624255835020e+05 0.0000000000000000e+00  -3.8334365786775295e+05 3.2532574991610079e+04 0.0000000000000000e+00  3.0149022544616985e+05 0.0000000000000000e+00 0.0000000000000000e+00  -5.6469083882927173e+05 0.0000000000000000e+00 0.0000000000000000e+00  1.4360989213301956e+06 4.6081318685347302e+05 0.0000000000000000e+00  -1.2415610535224343e+06 -1.3104013263847004e+04 0.0000000000000000e+00  -2.9704783333363722e+05 1.2814102759791624e+06 0.0000000000000000e+00  -1.7384377642187933e+06 1.0021381225684717e+06 0.0000000000000000e+00  -9.5051973788331775e+05 4.2514393166891656e+04 0.0000000000000000e+00  -7.5091086240638467e+05 -3.4578850896175572e+04 0.0000000000000000e+00  8.1863417023374539e+04 1.8009618501489176e+05 0.0000000000000000e+00  -9.5864855256429146e+03 3.5910236660711287e+05 0.0000000000000000e+00  5.2852183735031134e+05 -7.7662568321741850e+05 0.0000000000000000e+00  -5.4377489210785471e+05 -1.3617716769395862e+05 0.0000000000000000e+00  -6.4823035667768556e+04 2.0674681160046623e+05 0.0000000000000000e+00  -4.8509550984309026e+05 -1.3211852991593420e+06 0.0000000000000000e+00  1.5932879094551879e+05 7.7166519069092697e+05 0.0000000000000000e+00  -4.3795564374633931e+05 3.1223610612630070e+05 0.0000000000000000e+00  -7.9906304265138891e+05 -1.0781258039034847e+06 0.0000000000000000e+00  1.0473011085960548e+06 -8.1030698124633031e+05 0.0000000000000000e+00  4.5397097645266255e+05 -2.0896116822935903e+05 0.0000000000000000e+00  1.0525295431935313e+05 4.0530097076698882e+05 0.0000000000000000e+00  -2.8162176259582455e+05 -4.7538908337124629e+05 0.0000000000000000e+00  -5.5500568893314747e+05 9.1054708015448239e+04 0.0000000000000000e+00  -2.2109715109154172e+05 3.8407306313694833e+05 0.0000000000000000e+00  4.1616732606795407e+05 -4.3087444860607915e+05 0.0000000000000000e+00  3.4185060002559891e+04 1.8285571270093002e+05 0.0000000000000000e+00  7.1378147141664595e+04 7.5069659615649376e+05 0.0000000000000000e+00  -8.1379909298736544e+04 -2.2615695652722250e+05 0.0000000000000000e+00  3.9308099839014601e+05 -3.3802580522342927e+04 0.0000000000000000e+00  2.8019408960661246e+05 4.4187990158820950e+05 0.0000000000000000e+00  5.9225966244718751e+04 -1.0886143541963755e+05 0.0000000000000000e+00  7.0728358862904774e+05 4.0241680502817588e+05 0.0000000000000000e+00  -9.0034869698918704e+05 -2.8807453763133148e+05 0.0000000000000000e+00  -1.2317760699024367e+05 -5.4620380140988564e+05 0.0000000000000000e+00  -9.2779432968362828e+05 3.9283669731074513e+05 0.0000000000000000e+00  -5.8608811070344853e+05 3.9295147142480250e+05 0.0000000000000000e+00  -1.2746639740178285e+06 -2.2039695290487231e+04 0.0000000000000000e+00  -1.5387558197495947e+05 -1.0189539866747808e+06 0.0000000000000000e+00  8.6878452169048760e+04 4.9459554183853710e+04 0.0000000000000000e+00  2.0021679741291868e+05 -7.6500426580141444e+04 0.0000000000000000e+00  -1.2555175491071371e+06 -2.8326775076026836e+05 0.0000000000000000e+00  1.0409383889109723e+05 -1.0309146840342450e+06 0.0000000000000000e+00  -6.9247571633875801e+05 -9.2973910615990404e+04 0.0000000000000000e+00  -1.0672480482405180e+06 -5.7604290989022632e+05 0.0000000000000000e+00  4.8843043300230999e+05 -7.2335768114637351e+05 0.0000000000000000e+00  8.6569779095183604e+05 -4.3586387436509627e+05 0.0000000000000000e+00  -4.9018793703830079e+05 2.2764774498313171e+04 0.0000000000000000e+00  6.1303729019943050e+04 -1.3299510522070595e+06 0.0000000000000000e+00  8.0815897110011138e+05 8.8448851863023650e+05 0.0000000000000000e+00  -7.6143621666509498e+04 -1.7509272798912998e+05 0.0000000000000000e+00  -4.0605097003269522e+05 1.0417987325090121e+06 0.0000000000000000e+00  -1.0560596730546043e+06 -3.9239763922523026e+05 0.0000000000000000e+00  -1.3592600170910195e+06 -5.7588947473090817e+05 0.0000000000000000e+00  3.0633341425048065e+05 8.1775243104302819e+04 0.0000000000000000e+00  -4.5681488703005831e+05 -5.8974922043697303e+05 0.0000000000000000e+00  9.5192776614520384e+05 -2.6270468756124162e+05 0.0000000000000000e+00  1.0723345554204127e+06 6.3047862497415117e+04 0.0000000000000000e+00  3.2788251471435977e+05 4.6342584525426291e+05 0.0000000000000000e+00  6.5258426800364326e+05 9.3567948262425070e+05 0.0000000000000000e+00  -3.1917759420214407e+05 2.1218693711324269e+06 0.0000000000000000e+00  3.4232352321361250e+05 -4.9718354489420285e+05 0.0000000000000000e+00  5.9987377987642998e+04 1.2515335224023433e+06 0.0000000000000000e+00  2.3508147211448176e+05 -1.0461997927938052e+06 0.0000000000000000e+00  -1.2999680649649265e+05 7.9647705967966423e+04 0.0000000000000000e+00  -1.2486425721656750e+06 1.0168816001136492e+06 0.0000000000000000e+00  -1.8020633074761854e+05 1.6431069505476864e+05 0.0000000000000000e+00  -3.2522140793984884e+05 1.6399149892415195e+06 0.0000000000000000e+00  4.8081556051890360e+05 1.0626013226842366e+06 0.0000000000000000e+00  -1.3708027119191731e+06 6.6935861541097332e+05 0.0000000000000000e+00  8.8770374189533037e+05 -3.1439048528177565e+01 0.0000000000000000e+00  1.2833092361178354e+06 -4.9985137077797140e+05 0.0000000000000000e+00  1.3327232647306763e+05 3.8875436035743005e+04 0.0000000000000000e+00  1.5444651475538305e+05 -1.3607213272795074e+06 0.0000000000000000e+00  2.9081873600590223e+05 3.9237771721520141e+05 0.0000000000000000e+00  2.0886824031192749e+06 -1.7288036692681131e+06 0.0000000000000000e+00  7.2932383815149555e+05 2.0418794561234343e+04 0.0000000000000000e+00  1.8119055744302778e+06 7.8815773392131249e+05 0.0000000000000000e+00  -8.2734195532545040e+05 1.3157602917918623e+06 0.0000000000000000e+00  -1.9568913646990087e+05 1.2020598421154399e+06 0.0000000000000000e+00  -5.2012622038527747e+05 -4.2921605739059352e+05 0.0000000000000000e+00  -6.0285416155774007e+05 4.0935838622128731e+05 0.0000000000000000e+00  -1.3230528498144899e+06 -3.8981384626602416e+05 0.0000000000000000e+00  -8.7318210903605365e+05 0.0000000000000000e+00 0.0000000000000000e+00  5.3733898942199929e+04 0.0000000000000000e+00 0.0000000000000000e+00  8.1329280179588543e+05 1.2071985210947294e+06 0.0000000000000000e+00  1.3398807047807844e+06 -2.0137632608520487e+05 0.0000000000000000e+00  -2.2339108581774361e+06 1.0251512916859087e+06 0.0000000000000000e+00  4.1650925304410362e+05 1.0958959703203747e+06 0.0000000000000000e+00  -1.5334692263236333e+05 1.0595587055305685e+06 0.0000000000000000e+00  -7.8629741221035004e+05 1.1054475872362847e+06 0.0000000000000000e+00  -3.6634721270435181e+05 6.4957969286438695e+05 0.0000000000000000e+00  -1.0147827360981250e+06 -8.6735886111660191e+04 0.0000000000000000e+00  -5.4136319157721463e+05 -6.8009579434219259e+05 0.0000000000000000e+00  3.9369883841448609e+05 1.1102880714146004e+06 0.0000000000000000e+00  1.5691163963975653e+05 1.5057341305330188e+06 0.0000000000000000e+00  -6.1467958227801358e+05 -2.5439625112999731e+05 0.0000000000000000e+00  -2.1982892715198154e+05 2.3784007252107366e+05 0.0000000000000000e+00  8.7484916402466537e+04 3.9161308848585561e+05 0.0000000000000000e+00  4.8166330407939450e+05 -1.5832951593269259e+05 0.0000000000000000e+00  3.6937812546075083e+05 -3.9026347006092366e+05 0.0000000000000000e+00  6.3281072365343780e+05 -1.9167031684266130e+05 0.0000000000000000e+00  -2.9835912858172209e+05 1.1664207791754180e+06 0.0000000000000000e+00  -9.4820674546919717e+05 -2.7875723934670055e+04 0.0000000000000000e+00  9.8612080471399706e+05 -3.1389539597833896e+05 0.0000000000000000e+00  5.2016063981686626e+05 -2.7316484056960886e+04 0.0000000000000000e+00  -3.4233511109583473e+04 -8.6830236323703532e+04 0.0000000000000000e+00  1.1097916862471404e+06 -7.9943699632242729e+05 0.0000000000000000e+00  -6.2914398428546323e+05 1.4235940286670781e+06 0.0000000000000000e+00  2.4057686626684354e+05 1.5479681733563848e+05 0.0000000000000000e+00  2.8607563129809656e+05 -6.0319881558440044e+05 0.0000000000000000e+00  3.3342151806523466e+03 3.8802599408524681e+05 0.0000000000000000e+00  -1.0372637491102809e+06 -6.4928841133184743e+05 0.0000000000000000e+00  -6.9864690568997141e+05 2.9778665059279167e+05 0.0000000000000000e+00  -1.5483531040152643e+05 -8.2637916009939346e+05 0.0000000000000000e+00  -1.9384901577617361e+06 -7.6052754801412218e+05 0.0000000000000000e+00  -8.0220424078577943e+05 -2.1697478678467247e+05 0.0000000000000000e+00  2.5854987363010820e+04 -2.8603513083331549e+05 0.0000000000000000e+00  -4.1156506872739563e+04 -3.7860393876240344e+05 0.0000000000000000e+00  -3.5100513069081318e+05 2.0801438371049313e+05 0.0000000000000000e+00  2.0467156322124079e+05 -3.6085405249235936e+05 0.0000000000000000e+00  -6.3455060793068085e+04 7.9