<?xml version="1.0"?>
<VTKFile type="UnstructuredGrid"  version="0.1"  >
<UnstructuredGrid>
<Piece  NumberOfPoints="1369" NumberOfCells="2560">
<Points>
<DataArray  type="Float64"  NumberOfComponents="3"  format="ascii">0 0 0  0.75 0 0  1.5 0 0  2.25 0 0  3 0 0  3.75 0 0  4.5 0 0  5.25 0 0  6 0 0  6.75 0 0  7.5 0 0  8.25 0 0  9 0 0  9.75 0 0  10.5 0 0  11.25 0 0  12 0 0  12.75 0 0  13.5 0 0  14.25 0 0  15 0 0  15.75 0 0  16.5 0 0  17.25 0 0  18 0 0  18.75 0 0  19.5 0 0  20.25 0 0  21 0 0  21.75 0 0  22.5 0 0  23.25 0 0  24 0 0  24.75 0 0  25.5 0 0  26.25 0 0  27 0 0  27.75 0 0  28.5 0 0  29.25 0 0  30 0 0  30.75 0 0  31.5 0 0  32.25 0 0  33 0 0  33.75 0 0  34.5 0 0  35.25 0 0  36 0 0  36.75 0 0  37.5 0 0  38.25 0 0  39 0 0  39.75 0 0  40.5 0 0  41.25 0 0  42 0 0  42.75 0 0  43.5 0 0  44.25 0 0  45 0 0  45.75 0 0  46.5 0 0  47.25 0 0  48 0 0  48.75 0 0  49.5 0 0  50.25 0 0  51 0 0  51.75 0 0  52.5 0 0  53.25 0 0  54 0 0  54.75 0 0  55.5 0 0  56.25 0 0  57 0 0  57.75 0 0  58.5 0 0  59.25 0 0  60 0 0  0 0.5 0  0.75 0.5 0  1.5 0.5 0  2.25 0.5 0  3 0.5 0  3.75 0.5 0  4.5 0.5 0  5.25 0.5 0  6 0.5 0  6.75 0.5 0  7.5 0.5 0  8.25 0.5 0  9 0.5 0  9.75 0.5 0  10.5 0.5 0  11.25 0.5 0  12 0.5 0  12.75 0.5 0  13.5 0.5 0  14.25 0.5 0  15 0.5 0  15.75 0.5 0  16.5 0.5 0  17.25 0.5 0  18 0.5 0  18.75 0.5 0  19.5 0.5 0  20.25 0.5 0  21 0.5 0  21.75 0.5 0  22.5 0.5 0  23.25 0.5 0  24 0.5 0  24.75 0.5 0  25.5 0.5 0  26.25 0.5 0  27 0.5 0  27.75 0.5 0  28.5 0.5 0  29.25 0.5 0  30 0.5 0  30.75 0.5 0  31.5 0.5 0  32.25 0.5 0  33 0.5 0  33.75 0.5 0  34.5 0.5 0  35.25 0.5 0  36 0.5 0  36.75 0.5 0  37.5 0.5 0  38.25 0.5 0  39 0.5 0  39.75 0.5 0  40.5 0.5 0  41.25 0.5 0  42 0.5 0  42.75 0.5 0  43.5 0.5 0  44.25 0.5 0  45 0.5 0  45.75 0.5 0  46.5 0.5 0  47.25 0.5 0  48 0.5 0  48.75 0.5 0  49.5 0.5 0  50.25 0.5 0  51 0.5 0  51.75 0.5 0  52.5 0.5 0  53.25 0.5 0  54 0.5 0  54.75 0.5 0  55.5 0.5 0  56.25 0.5 0  57 0.5 0  57.75 0.5 0  58.5 0.5 0  59.25 0.5 0  60 0.5 0  0 1 0  0.75 1 0  1.5 1 0  2.25 1 0  3 1 0  3.75 1 0  4.5 1 0  5.25 1 0  6 1 0  6.75 1 0  7.5 1 0  8.25 1 0  9 1 0  9.75 1 0  10.5 1 0  11.25 1 0  12 1 0  12.75 1 0  13.5 1 0  14.25 1 0  15 1 0  15.75 1 0  16.5 1 0  17.25 1 0  18 1 0  18.75 1 0  19.5 1 0  20.25 1 0  21 1 0  21.75 1 0  22.5 1 0  23.25 1 0  24 1 0  24.75 1 0  25.5 1 0  26.25 1 0  27 1 0  27.75 1 0  28.5 1 0  29.25 1 0  30 1 0  30.75 1 0  31.5 1 0  32.25 1 0  33 1 0  33.75 1 0  34.5 1 0  35.25 1 0  36 1 0  36.75 1 0  37.5 1 0  38.25 1 0  39 1 0  39.75 1 0  40.5 1 0  41.25 1 0  42 1 0  42.75 1 0  43.5 1 0  44.25 1 0  45 1 0  45.75 1 0  46.5 1 0  47.25 1 0  48 1 0  48.75 1 0  49.5 1 0  50.25 1 0  51 1 0  51.75 1 0  52.5 1 0  53.25 1 0  54 1 0  54.75 1 0  55.5 1 0  56.25 1 0  57 1 0  57.75 1 0  58.5 1 0  59.25 1 0  60 1 0  0 1.5 0  0.75 1.5 0  1.5 1.5 0  2.25 1.5 0  3 1.5 0  3.75 1.5 0  4.5 1.5 0  5.25 1.5 0  6 1.5 0  6.75 1.5 0  7.5 1.5 0  8.25 1.5 0  9 1.5 0  9.75 1.5 0  10.5 1.5 0  11.25 1.5 0  12 1.5 0  12.75 1.5 0  13.5 1.5 0  14.25 1.5 0  15 1.5 0  15.75 1.5 0  16.5 1.5 0  17.25 1.5 0  18 1.5 0  18.75 1.5 0  19.5 1.5 0  20.25 1.5 0  21 1.5 0  21.75 1.5 0  22.5 1.5 0  23.25 1.5 0  24 1.5 0  24.75 1.5 0  25.5 1.5 0  26.25 1.5 0  27 1.5 0  27.75 1.5 0  28.5 1.5 0  29.25 1.5 0  30 1.5 0  30.75 1.5 0  31.5 1.5 0  32.25 1.5 0  33 1.5 0  33.75 1.5 0  34.5 1.5 0  35.25 1.5 0  36 1.5 0  36.75 1.5 0  37.5 1.5 0  38.25 1.5 0  39 1.5 0  39.75 1.5 0  40.5 1.5 0  41.25 1.5 0  42 1.5 0  42.75 1.5 0  43.5 1.5 0  44.25 1.5 0  45 1.5 0  45.75 1.5 0  46.5 1.5 0  47.25 1.5 0  48 1.5 0  48.75 1.5 0  49.5 1.5 0  50.25 1.5 0  51 1.5 0  51.75 1.5 0  52.5 1.5 0  53.25 1.5 0  54 1.5 0  54.75 1.5 0  55.5 1.5 0  56.25 1.5 0  57 1.5 0  57.75 1.5 0  58.5 1.5 0  59.25 1.5 0  60 1.5 0  0 2 0  0.75 2 0  1.5 2 0  2.25 2 0  3 2 0  3.75 2 0  4.5 2 0  5.25 2 0  6 2 0  6.75 2 0  7.5 2 0  8.25 2 0  9 2 0  9.75 2 0  10.5 2 0  11.25 2 0  12 2 0  12.75 2 0  13.5 2 0  14.25 2 0  15 2 0  15.75 2 0  16.5 2 0  17.25 2 0  18 2 0  18.75 2 0  19.5 2 0  20.25 2 0  21 2 0  21.75 2 0  22.5 2 0  23.25 2 0  24 2 0  24.75 2 0  25.5 2 0  26.25 2 0  27 2 0  27.75 2 0  28.5 2 0  29.25 2 0  30 2 0  30.75 2 0  31.5 2 0  32.25 2 0  33 2 0  33.75 2 0  34.5 2 0  35.25 2 0  36 2 0  36.75 2 0  37.5 2 0  38.25 2 0  39 2 0  39.75 2 0  40.5 2 0  41.25 2 0  42 2 0  42.75 2 0  43.5 2 0  44.25 2 0  45 2 0  45.75 2 0  46.5 2 0  47.25 2 0  48 2 0  48.75 2 0  49.5 2 0  50.25 2 0  51 2 0  51.75 2 0  52.5 2 0  53.25 2 0  54 2 0  54.75 2 0  55.5 2 0  56.25 2 0  57 2 0  57.75 2 0  58.5 2 0  59.25 2 0  60 2 0  0 2.5 0  0.75 2.5 0  1.5 2.5 0  2.25 2.5 0  3 2.5 0  3.75 2.5 0  4.5 2.5 0  5.25 2.5 0  6 2.5 0  6.75 2.5 0  7.5 2.5 0  8.25 2.5 0  9 2.5 0  9.75 2.5 0  10.5 2.5 0  11.25 2.5 0  12 2.5 0  12.75 2.5 0  13.5 2.5 0  14.25 2.5 0  15 2.5 0  15.75 2.5 0  16.5 2.5 0  17.25 2.5 0  18 2.5 0  18.75 2.5 0  19.5 2.5 0  20.25 2.5 0  21 2.5 0  21.75 2.5 0  22.5 2.5 0  23.25 2.5 0  24 2.5 0  24.75 2.5 0  25.5 2.5 0  26.25 2.5 0  27 2.5 0  27.75 2.5 0  28.5 2.5 0  29.25 2.5 0  30 2.5 0  30.75 2.5 0  31.5 2.5 0  32.25 2.5 0  33 2.5 0  33.75 2.5 0  34.5 2.5 0  35.25 2.5 0  36 2.5 0  36.75 2.5 0  37.5 2.5 0  38.25 2.5 0  39 2.5 0  39.75 2.5 0  40.5 2.5 0  41.25 2.5 0  42 2.5 0  42.75 2.5 0  43.5 2.5 0  44.25 2.5 0  45 2.5 0  45.75 2.5 0  46.5 2.5 0  47.25 2.5 0  48 2.5 0  48.75 2.5 0  49.5 2.5 0  50.25 2.5 0  51 2.5 0  51.75 2.5 0  52.5 2.5 0  53.25 2.5 0  54 2.5 0  54.75 2.5 0  55.5 2.5 0  56.25 2.5 0  57 2.5 0  57.75 2.5 0  58.5 2.5 0  59.25 2.5 0  60 2.5 0  0 3 0  0.75 3 0  1.5 3 0  2.25 3 0  3 3 0  3.75 3 0  4.5 3 0  5.25 3 0  6 3 0  6.75 3 0  7.5 3 0  8.25 3 0  9 3 0  9.75 3 0  10.5 3 0  11.25 3 0  12 3 0  12.75 3 0  13.5 3 0  14.25 3 0  15 3 0  15.75 3 0  16.5 3 0  17.25 3 0  18 3 0  18.75 3 0  19.5 3 0  20.25 3 0  21 3 0  21.75 3 0  22.5 3 0  23.25 3 0  24 3 0  24.75 3 0  25.5 3 0  26.25 3 0  27 3 0  27.75 3 0  28.5 3 0  29.25 3 0  30 3 0  30.75 3 0  31.5 3 0  32.25 3 0  33 3 0  33.75 3 0  34.5 3 0  35.25 3 0  36 3 0  36.75 3 0  37.5 3 0  38.25 3 0  39 3 0  39.75 3 0  40.5 3 0  41.25 3 0  42 3 0  42.75 3 0  43.5 3 0  44.25 3 0  45 3 0  45.75 3 0  46.5 3 0  47.25 3 0  48 3 0  48.75 3 0  49.5 3 0  50.25 3 0  51 3 0  51.75 3 0  52.5 3 0  53.25 3 0  54 3 0  54.75 3 0  55.5 3 0  56.25 3 0  57 3 0  57.75 3 0  58.5 3 0  59.25 3 0  60 3 0  0 3.5 0  0.75 3.5 0  1.5 3.5 0  2.25 3.5 0  3 3.5 0  3.75 3.5 0  4.5 3.5 0  5.25 3.5 0  6 3.5 0  6.75 3.5 0  7.5 3.5 0  8.25 3.5 0  9 3.5 0  9.75 3.5 0  10.5 3.5 0  11.25 3.5 0  12 3.5 0  12.75 3.5 0  13.5 3.5 0  14.25 3.5 0  15 3.5 0  15.75 3.5 0  16.5 3.5 0  17.25 3.5 0  18 3.5 0  18.75 3.5 0  19.5 3.5 0  20.25 3.5 0  21 3.5 0  21.75 3.5 0  22.5 3.5 0  23.25 3.5 0  24 3.5 0  24.75 3.5 0  25.5 3.5 0  26.25 3.5 0  27 3.5 0  27.75 3.5 0  28.5 3.5 0  29.25 3.5 0  30 3.5 0  30.75 3.5 0  31.5 3.5 0  32.25 3.5 0  33 3.5 0  33.75 3.5 0  34.5 3.5 0  35.25 3.5 0  36 3.5 0  36.75 3.5 0  37.5 3.5 0  38.25 3.5 0  39 3.5 0  39.75 3.5 0  40.5 3.5 0  41.25 3.5 0  42 3.5 0  42.75 3.5 0  43.5 3.5 0  44.25 3.5 0  45 3.5 0  45.75 3.5 0  46.5 3.5 0  47.25 3.5 0  48 3.5 0  48.75 3.5 0  49.5 3.5 0  50.25 3.5 0  51 3.5 0  51.75 3.5 0  52.5 3.5 0  53.25 3.5 0  54 3.5 0  54.75 3.5 0  55.5 3.5 0  56.25 3.5 0  57 3.5 0  57.75 3.5 0  58.5 3.5 0  59.25 3.5 0  60 3.5 0  0 4 0  0.75 4 0  1.5 4 0  2.25 4 0  3 4 0  3.75 4 0  4.5 4 0  5.25 4 0  6 4 0  6.75 4 0  7.5 4 0  8.25 4 0  9 4 0  9.75 4 0  10.5 4 0  11.25 4 0  12 4 0  12.75 4 0  13.5 4 0  14.25 4 0  15 4 0  15.75 4 0  16.5 4 0  17.25 4 0  18 4 0  18.75 4 0  19.5 4 0  20.25 4 0  21 4 0  21.75 4 0  22.5 4 0  23.25 4 0  24 4 0  24.75 4 0  25.5 4 0  26.25 4 0  27 4 0  27.75 4 0  28.5 4 0  29.25 4 0  30 4 0  30.75 4 0  31.5 4 0  32.25 4 0  33 4 0  33.75 4 0  34.5 4 0  35.25 4 0  36 4 0  36.75 4 0  37.5 4 0  38.25 4 0  39 4 0  39.75 4 0  40.5 4 0  41.25 4 0  42 4 0  42.75 4 0  43.5 4 0  44.25 4 0  45 4 0  45.75 4 0  46.5 4 0  47.25 4 0  48 4 0  48.75 4 0  49.5 4 0  50.25 4 0  51 4 0  51.75 4 0  52.5 4 0  53.25 4 0  54 4 0  54.75 4 0  55.5 4 0  56.25 4 0  57 4 0  57.75 4 0  58.5 4 0  59.25 4 0  60 4 0  0.375 0.25 0  1.125 0.25 0  1.875 0.25 0  2.625 0.25 0  3.375 0.25 0  4.125 0.25 0  4.875 0.25 0  5.625 0.25 0  6.375 0.25 0  7.125 0.25 0  7.875 0.25 0  8.625 0.25 0  9.375 0.25 0  10.125 0.25 0  10.875 0.25 0  11.625 0.25 0  12.375 0.25 0  13.125 0.25 0  13.875 0.25 0  14.625 0.25 0  15.375 0.25 0  16.125 0.25 0  16.875 0.25 0  17.625 0.25 0  18.375 0.25 0  19.125 0.25 0  19.875 0.25 0  20.625 0.25 0  21.375 0.25 0  22.125 0.25 0  22.875 0.25 0  23.625 0.25 0  24.375 0.25 0  25.125 0.25 0  25.875 0.25 0  26.625 0.25 0  27.375 0.25 0  28.125 0.25 0  28.875 0.25 0  29.625 0.25 0  30.375 0.25 0  31.125 0.25 0  31.875 0.25 0  32.625 0.25 0  33.375 0.25 0  34.125 0.25 0  34.875 0.25 0  35.625 0.25 0  36.375 0.25 0  37.125 0.25 0  37.875 0.25 0  38.625 0.25 0  39.375 0.25 0  40.125 0.25 0  40.875 0.25 0  41.625 0.25 0  42.375 0.25 0  43.125 0.25 0  43.875 0.25 0  44.625 0.25 0  45.375 0.25 0  46.125 0.25 0  46.875 0.25 0  47.625 0.25 0  48.375 0.25 0  49.125 0.25 0  49.875 0.25 0  50.625 0.25 0  51.375 0.25 0  52.125 0.25 0  52.875 0.25 0  53.625 0.25 0  54.375 0.25 0  55.125 0.25 0  55.875 0.25 0  56.625 0.25 0  57.375 0.25 0  58.125 0.25 0  58.875 0.25 0  59.625 0.25 0  0.375 0.75 0  1.125 0.75 0  1.875 0.75 0  2.625 0.75 0  3.375 0.75 0  4.125 0.75 0  4.875 0.75 0  5.625 0.75 0  6.375 0.75 0  7.125 0.75 0  7.875 0.75 0  8.625 0.75 0  9.375 0.75 0  10.125 0.75 0  10.875 0.75 0  11.625 0.75 0  12.375 0.75 0  13.125 0.75 0  13.875 0.75 0  14.625 0.75 0  15.375 0.75 0  16.125 0.75 0  16.875 0.75 0  17.625 0.75 0  18.375 0.75 0  19.125 0.75 0  19.875 0.75 0  20.625 0.75 0  21.375 0.75 0  22.125 0.75 0  22.875 0.75 0  23.625 0.75 0  24.375 0.75 0  25.125 0.75 0  25.875 0.75 0  26.625 0.75 0  27.375 0.75 0  28.125 0.75 0  28.875 0.75 0  29.625 0.75 0  30.375 0.75 0  31.125 0.75 0  31.875 0.75 0  32.625 0.75 0  33.375 0.75 0  34.125 0.75 0  34.875 0.75 0  35.625 0.75 0  36.375 0.75 0  37.125 0.75 0  37.875 0.75 0  38.625 0.75 0  39.375 0.75 0  40.125 0.75 0  40
[...]
<PointData  Vectors="f_8-0"> 
<DataArray  type="Float64"  Name="f_8-0"  NumberOfComponents="3" format="ascii">-7.7197557205881152e-11 0.0000000000000000e+00 0.0000000000000000e+00  -4.2619362612975332e-12 0.0000000000000000e+00 0.0000000000000000e+00  0.0000000000000000e+00 0.0000000000000000e+00 0.0000000000000000e+00  1.2396280868979507e-08 4.0141017968389903e-09 0.0000000000000000e+00  -3.7852263735136608e-08 -7.9009059413853438e-09 0.0000000000000000e+00  7.4229745923480541e-08 -1.4066647580849440e-07 0.0000000000000000e+00  0.0000000000000000e+00 0.0000000000000000e+00 0.0000000000000000e+00  1.1763944194367458e-09 0.0000000000000000e+00 0.0000000000000000e+00  0.0000000000000000e+00 3.1224450777892586e-08 0.0000000000000000e+00  2.8908028204107383e-09 7.0886187444437580e-10 0.0000000000000000e+00  -1.5610186078118373e-08 1.4721806902878232e-08 0.0000000000000000e+00  3.8032720438537354e-09 -1.0332602183160767e-09 0.0000000000000000e+00  2.0465729512045597e-08 3.8365285638338390e-10 0.0000000000000000e+00  1.6589318594242076e-10 0.0000000000000000e+00 0.0000000000000000e+00  0.0000000000000000e+00 0.0000000000000000e+00 0.0000000000000000e+00  -8.7092772866699426e-09 -6.8280119866868866e-08 0.0000000000000000e+00  0.0000000000000000e+00 0.0000000000000000e+00 0.0000000000000000e+00  1.3456832922854558e-08 -3.5134301244380226e-09 0.0000000000000000e+00  0.0000000000000000e+00 -5.0100196778996057e-10 0.0000000000000000e+00  0.0000000000000000e+00 0.0000000000000000e+00 0.0000000000000000e+00  0.0000000000000000e+00 -1.0067797727092371e-09 0.0000000000000000e+00  -4.2846584804258015e-11 2.9146798890071858e-09 0.0000000000000000e+00  0.0000000000000000e+00 0.0000000000000000e+00 0.0000000000000000e+00  -1.7272540082803673e-10 4.5706902065508970e-10 0.0000000000000000e+00  -6.1853917731887695e-08 -8.6838011957359637e-08 0.0000000000000000e+00  -4.0859746905517121e-10 -9.8695995025807635e-11 0.0000000000000000e+00  -2.4841737945928670e-08 -1.5883052309815880e-08 0.0000000000000000e+00  -6.1099393315967433e-10 0.0000000000000000e+00 0.0000000000000000e+00  -1.1556167136920546e-08 0.0000000000000000e+00 0.0000000000000000e+00  0.0000000000000000e+00 0.0000000000000000e+00 0.0000000000000000e+00  8.5107980161283910e-10 -7.6327207424966773e-11 0.0000000000000000e+00  -2.3735443859266280e-09 -1.0741478161554687e-08 0.0000000000000000e+00  -1.2895338225295777e-09 4.0236819278228608e-10 0.0000000000000000e+00  5.7698666450184853e-09 4.6940224742871563e-09 0.0000000000000000e+00  -1.0397518183694098e-08 -1.3023664320068035e-08 0.0000000000000000e+00  -1.8067310870106161e-09 -1.0911037011550920e-10 0.0000000000000000e+00  0.0000000000000000e+00 0.0000000000000000e+00 0.0000000000000000e+00  2.3102596335304244e-08 1.9888793194296004e-09 0.0000000000000000e+00  1.0342806318153003e-08 1.9253555833543198e-09 0.0000000000000000e+00  -3.8617097928502835e-08 -6.2640065803704877e-08 0.0000000000000000e+00  0.0000000000000000e+00 0.0000000000000000e+00 0.0000000000000000e+00  9.1567160925956476e-09 3.0155089152209448e-09 0.0000000000000000e+00  3.9802126340131703e-09 -7.0360021022001167e-10 0.0000000000000000e+00  1.0338480981384195e-08 -1.1874678668726090e-09 0.0000000000000000e+00  0.0000000000000000e+00 2.0225766894749246e-10 0.0000000000000000e+00  0.0000000000000000e+00 0.0000000000000000e+00 0.0000000000000000e+00  0.0000000000000000e+00 7.8806234026167944e-11 0.0000000000000000e+00  0.0000000000000000e+00 0.0000000000000000e+00 0.0000000000000000e+00  0.0000000000000000e+00 -7.6531413447060277e-12 0.0000000000000000e+00  7.0049856585039161e-08 0.0000000000000000e+00 0.0000000000000000e+00  7.7104792436572059e-10 -8.7243537395783330e-10 0.0000000000000000e+00  1.4359631653686382e-09 -6.2490150166712384e-10 0.0000000000000000e+00  6.0089862299926644e-08 -2.8875728395485635e-08 0.0000000000000000e+00  -3.8966469326247371e-09 -3.7607090070028321e-09 0.0000000000000000e+00  -1.2582267302764953e-08 7.0392375226130936e-09 0.0000000000000000e+00  1.0272275601975009e-08 1.5012343257370017e-08 0.0000000000000000e+00  6.8855751163232387e-09 9.2807330179289741e-09 0.0000000000000000e+00  0.0000000000000000e+00 0.0000000000000000e+00 0.0000000000000000e+00  2.9467726199783252e-09 -3.0985027933032779e-08 0.0000000000000000e+00  -3.0214829421779116e-09 1.9134342231533360e-09 0.0000000000000000e+00  -6.1114796457800664e-08 -1.3367617569018514e-07 0.0000000000000000e+00  -5.7171590902560363e-08 -5.6335700926238945e-09 0.0000000000000000e+00  0.0000000000000000e+00 0.0000000000000000e+00 0.0000000000000000e+00  0.0000000000000000e+00 0.0000000000000000e+00 0.0000000000000000e+00  2.3268789022654873e-08 -3.4787850517961543e-09 0.0000000000000000e+00  -9.0022142137193883e-08 -2.6293456271011800e-08 0.0000000000000000e+00  0.0000000000000000e+00 0.0000000000000000e+00 0.0000000000000000e+00  0.0000000000000000e+00 0.0000000000000000e+00 0.0000000000000000e+00  2.9612636050595814e-09 0.0000000000000000e+00 0.0000000000000000e+00  0.0000000000000000e+00 0.0000000000000000e+00 0.0000000000000000e+00  0.0000000000000000e+00 0.0000000000000000e+00 0.0000000000000000e+00  0.0000000000000000e+00 0.0000000000000000e+00 0.0000000000000000e+00  0.0000000000000000e+00 -3.5024648293081607e-09 0.0000000000000000e+00  0.0000000000000000e+00 0.0000000000000000e+00 0.0000000000000000e+00  7.1144139686952890e-09 9.4880473933830172e-09 0.0000000000000000e+00  -4.9183046027549822e-09 1.9638304332193022e-08 0.0000000000000000e+00  0.0000000000000000e+00 0.0000000000000000e+00 0.0000000000000000e+00  0.0000000000000000e+00 0.0000000000000000e+00 0.0000000000000000e+00  3.9107979314285620e-10 0.0000000000000000e+00 0.0000000000000000e+00  0.0000000000000000e+00 0.0000000000000000e+00 0.0000000000000000e+00  7.8470627621424329e-12 -2.8021534259366241e-10 0.0000000000000000e+00  5.0507169443374343e+05 -7.2504619361700516e-12 0.0000000000000000e+00  -1.3016627106507400e+05 -2.5034495028803509e+05 0.0000000000000000e+00  4.0898369519069623e+04 -9.6010876238661504e+05 0.0000000000000000e+00  -8.0520410391735466e+04 9.6599525121955760e+05 0.0000000000000000e+00  2.3020504981880760e+04 9.3953063199573045e+05 0.0000000000000000e+00  -1.4415144712004273e+06 8.3634792377410771e+05 0.0000000000000000e+00  -3.9122282614261861e+05 4.3047530229575513e+05 0.0000000000000000e+00  -2.6568856434970204e+05 -6.4006869698356371e+05 0.0000000000000000e+00  -9.9632897040386029e+04 -1.7198991930973118e+06 0.0000000000000000e+00  -1.6652588317174369e+06 -6.1353727225916460e+05 0.0000000000000000e+00  -6.6766102693466947e+05 4.1560876729180524e+05 0.0000000000000000e+00  -7.7748345473709039e+05 -2.8505244509907946e+05 0.0000000000000000e+00  -3.0334656367681269e+05 -3.7869325771534082e+05 0.0000000000000000e+00  -8.1649964255757717e+04 -1.6383285697116738e+05 0.0000000000000000e+00  -5.4520768528028544e+04 -1.3358891820348165e+05 0.0000000000000000e+00  1.1810895915286952e+05 -3.5989987540050363e+05 0.0000000000000000e+00  -4.8876843844924663e+05 -1.4743705947566084e+06 0.0000000000000000e+00  2.1191549289639684e+05 8.2395871777455308e+04 0.0000000000000000e+00  8.5872889041199500e+05 5.8426781682920642e+05 0.0000000000000000e+00  3.7610361519562232e+05 8.6405871599208505e+05 0.0000000000000000e+00  -2.2175590607327431e+03 3.6265171284593840e+05 0.0000000000000000e+00  -5.1152770785703330e+05 -4.4082035799836426e+05 0.0000000000000000e+00  -3.1824859549460834e+05 -7.8965363997109362e+05 0.0000000000000000e+00  -4.7043632848077279e+05 3.7168918199886451e+05 0.0000000000000000e+00  -3.2262876343764510e+05 -3.3399680838594366e+04 0.0000000000000000e+00  -1.3096253670163578e+05 5.8841208667493681e+05 0.0000000000000000e+00  1.2754203815215771e+05 -3.8887147026544751e+05 0.0000000000000000e+00  4.8779915892449458e+05 -2.7259195758596418e+05 0.0000000000000000e+00  5.5506660298888932e+05 -3.3357013243886986e+05 0.0000000000000000e+00  -2.0711020905537871e+05 -1.0085080697389312e+05 0.0000000000000000e+00  2.1460283298733697e+05 -5.0551606358030658e+04 0.0000000000000000e+00  2.9007771268761775e+05 -5.9698912307475939e+03 0.0000000000000000e+00  -5.5082421865156590e+04 -4.7783402140297578e+04 0.0000000000000000e+00  -9.9328591161902092e+04 -5.2628911078071618e+05 0.0000000000000000e+00  -2.3024973488478700e+05 -4.5919244680559920e+05 0.0000000000000000e+00  -3.7574433059028204e+04 -2.5786357619387266e+05 0.0000000000000000e+00  1.4331555758410954e+05 -1.2775620036976974e+05 0.0000000000000000e+00  -4.5138785297075380e+05 1.0621111404512437e+05 0.0000000000000000e+00  5.9688724609254576e+04 -4.6359565829837462e+05 0.0000000000000000e+00  -7.6283698489775285e+04 -4.9908367445813777e+05 0.0000000000000000e+00  1.5844852441020063e+05 -4.8738276857730889e+04 0.0000000000000000e+00  -8.3747012812608416e+04 6.1425430876472138e+05 0.0000000000000000e+00  -1.4669565764756151e+05 -1.5611402129481567e+05 0.0000000000000000e+00  7.8681572661130934e+05 -1.7590017310434682e+05 0.0000000000000000e+00  1.3434571178691171e+05 -3.4541301229775161e+05 0.0000000000000000e+00  8.4591527931141929e+04 -9.3485740096107693e+04 0.0000000000000000e+00  2.0773087515417681e+05 -4.5790046004588902e+05 0.0000000000000000e+00  -1.6305558860352126e+05 -5.7654497165967019e+04 0.0000000000000000e+00  2.0315549079891280e+05 -3.6742771604262758e+05 0.0000000000000000e+00  -1.0293822302038707e+05 3.0065704887174681e+05 0.0000000000000000e+00  -2.3802686237176869e+05 -3.8795145234616072e+05 0.0000000000000000e+00  -7.1004942271543900e+05 1.3770565704265138e+05 0.0000000000000000e+00  2.1412148091084827e+05 5.9542108086231037e+05 0.0000000000000000e+00  3.6900903414693719e+05 2.0879159338694072e+05 0.0000000000000000e+00  5.3700821886872989e+05 -6.3436795273805983e+04 0.0000000000000000e+00  -4.6793301915263775e+05 1.5476637174701429e+05 0.0000000000000000e+00  1.7740353739327604e+06 7.4637385807588720e+05 0.0000000000000000e+00  1.4043790895667052e+05 5.9002613317725074e+04 0.0000000000000000e+00  2.7407183530586375e+04 -8.0092818304461008e+05 0.0000000000000000e+00  2.7422539587622118e+05 -1.1377696792101105e+05 0.0000000000000000e+00  -7.2895689151186356e+05 -2.0427082010070677e+04 0.0000000000000000e+00  -5.9388282338861818e+05 2.2248162303834831e+05 0.0000000000000000e+00  -8.3252247717691876e+05 -1.8632655119966570e+05 0.0000000000000000e+00  1.1893041470999036e+06 2.6917099441422336e+05 0.0000000000000000e+00  -5.1254562270595532e+04 5.4077461813057098e+05 0.0000000000000000e+00  -7.5521180556470912e+05 5.6742991449159663e+05 0.0000000000000000e+00  -9.1391870678700984e+05 1.6252004482366430e+05 0.0000000000000000e+00  4.5640726825873257e+05 2.3520239187532049e+05 0.0000000000000000e+00  4.5564876046311890e+05 2.8052773909720167e+05 0.0000000000000000e+00  -1.4693353299437307e+06 -1.7220204775587420e+06 0.0000000000000000e+00  -4.1438667275041150e+05 -1.4641730415108646e+05 0.0000000000000000e+00  -1.4548919638152327e+06 -9.2165389517526329e+05 0.0000000000000000e+00  9.2701164289455290e+05 3.1300038704142324e+05 0.0000000000000000e+00  7.5480226007626706e+05 -2.1347739701173860e+06 0.0000000000000000e+00  3.1157802078265353e+05 1.5121876715337139e+05 0.0000000000000000e+00  -4.0040997383526829e+05 3.0108142554736562e+05 0.0000000000000000e+00  3.6603153045441135e+05 2.2792595193393799e+03 0.0000000000000000e+00  4.0838323073583719e+05 -5.1255120897646184e+05 0.0000000000000000e+00  -6.3040345757496206e+05 1.8492911078517794e+05 0.0000000000000000e+00  3.3153857855828706e+05 2.0556350861750183e+04 0.0000000000000000e+00  9.4773078465220751e+04 6.3275198589380475e-11 0.0000000000000000e+00  -2.9108590063340799e+05 0.0000000000000000e+00 0.0000000000000000e+00  1.4290235400169694e+06 6.4004490915433795e+05 0.0000000000000000e+00  -9.9428057170455705e+05 2.9819945103044482e+05 0.0000000000000000e+00  -3.3484614163502661e+05 1.1679393802810996e+06 0.0000000000000000e+00  -1.6013814949575602e+06 1.0070647881253208e+06 0.0000000000000000e+00  -1.0175202563075857e+06 6.4980951590520432e+04 0.0000000000000000e+00  -6.7849656527465477e+05 -3.0040110749170908e+04 0.0000000000000000e+00  3.5874996299430996e+05 -1.7628955256100261e+05 0.0000000000000000e+00  -2.7933819100465829e+05 -5.6331681979647290e+05 0.0000000000000000e+00  1.8919856520234191e+05 -8.2011297477987129e+05 0.0000000000000000e+00  -1.0300619000516620e+06 2.2892297617794764e+04 0.0000000000000000e+00  -2.3679936621316700e+05 -1.2995655769854621e+05 0.0000000000000000e+00  -9.7684233433941682e+05 -1.1674215199246660e+06 0.0000000000000000e+00  -1.9190707145070206e+05 3.4530106163747312e+05 0.0000000000000000e+00  -1.4574489446469178e+05 4.6404775338339583e+04 0.0000000000000000e+00  -1.2282118933162345e+06 -1.0640656728017097e+06 0.0000000000000000e+00  1.1458340474771976e+06 -7.1421927483977366e+05 0.0000000000000000e+00  6.9744269448136899e+05 -1.8454563267757028e+05 0.0000000000000000e+00  3.0124341899538663e+05 6.8896905932039535e+05 0.0000000000000000e+00  -6.7011839098096814e+05 -3.3478118740332435e+05 0.0000000000000000e+00  -4.3629056450424308e+05 2.8429755209344346e+05 0.0000000000000000e+00  -2.7192584824026434e+05 -1.7104676037705434e+05 0.0000000000000000e+00  -2.5523592736905772e+05 -5.4559879594171711e+05 0.0000000000000000e+00  -2.8021604846652423e+05 1.7920907817757392e+05 0.0000000000000000e+00  -1.8360969383249548e+05 1.3606925728199896e+05 0.0000000000000000e+00  -5.5742702862041944e+05 -1.0728779289955914e+05 0.0000000000000000e+00  2.7578409105308092e+05 -5.5473516710240301e+05 0.0000000000000000e+00  4.8936230873326730e+05 1.1754684641637668e+05 0.0000000000000000e+00  1.9362426666292408e+05 2.3983126442303607e+05 0.0000000000000000e+00  2.3964921706307467e+05 2.4637543627308329e+05 0.0000000000000000e+00  -2.1162012165410613e+05 -1.8402973441181763e+05 0.0000000000000000e+00  -1.2010523944423547e+05 -3.1318389824184123e+05 0.0000000000000000e+00  -6.4583706629169500e+05 7.5783075780002039e+05 0.0000000000000000e+00  -2.7738833147201966e+05 3.1030233721941413e+05 0.0000000000000000e+00  -6.2842490777033346e+05 3.9752985728465306e+05 0.0000000000000000e+00  7.8721045375595291e+04 -6.3128758514425822e+05 0.0000000000000000e+00  -1.6751150844264455e+05 3.4198377531580540e+04 0.0000000000000000e+00  -2.5876782565866559e+05 4.0254220921839180e+04 0.0000000000000000e+00  -3.3150856288688257e+05 -1.0069511897752927e+05 0.0000000000000000e+00  -2.6100512877725880e+05 -9.1248254510493751e+05 0.0000000000000000e+00  -2.8110286432032060e+05 5.5886257179532084e+05 0.0000000000000000e+00  -2.5586380111729793e+05 -7.4432519707431507e+04 0.0000000000000000e+00  8.2889682015005063e+04 1.9269428012895201e+04 0.0000000000000000e+00  4.0288335953236133e+05 3.0397528367480114e+04 0.0000000000000000e+00  -1.8080425318814770e+05 2.6000450093048530e+04 0.0000000000000000e+00  -1.4931544838181458e+05 -2.1792284866463637e+05 0.0000000000000000e+00  -1.7500572264215629e+04 4.1099199682981160e+05 0.0000000000000000e+00  2.9639613493920764e+05 -1.3011739466372477e+05 0.0000000000000000e+00  -3.3714415355552919e+04 4.1923397995249199e+05 0.0000000000000000e+00  -6.7668762878320660e+04 -3.4894732761026232e+05 0.0000000000000000e+00  -2.5559229067665190e+05 -2.2957112538390345e+05 0.0000000000000000e+00  5.3739620688565227e+05 3.3506642646263633e+05 0.0000000000000000e+00  1.2098731118579232e+05 -8.3594945064826135e+05 0.0000000000000000e+00  5.6298964860971074e+05 -1.2884469422565984e+05 0.0000000000000000e+00  4.8136558345275774e+05 -1.0066719335754911e+05 0.0000000000000000e+00  4.1286968474944029e+05 3.8751045162364800e+05 0.0000000000000000e+00  5.0091091019774642e+05 1.1284405194760249e+06 0.0000000000000000e+00  -4.2623438713794388e+05 1.5486267965305299e+06 0.0000000000000000e+00  2.7534326855976362e+05 -5.1874151723926223e+05 0.0000000000000000e+00  -1.3477985120008465e+04 8.9395940131813544e+05 0.0000000000000000e+00  -1.6297547004030386e+05 -1.3513000646578181e+06 0.0000000000000000e+00  3.8762799895242977e+04 7.0565191120673320e+04 0.0000000000000000e+00  -1.3397892092197733e+06 1.0246820891676858e+06 0.0000000000000000e+00  -2.9326512934445357e+05 2.2375014777160145e+05 0.0000000000000000e+00  -2.0188965579333759e+05 1.5492360799461999e+06 0.0000000000000000e+00  -2.5691471544126431e+04 1.8753469201506630e+06 0.0000000000000000e+00  -9.0085889629248681e+05 5.4327062645877700e+05 0.0000000000000000e+00  4.4005573167912307e+05 1.0759979234258588e+05 0.0000000000000000e+00  1.3193567242823478e+06 -1.4307563341207331e+05 0.0000000000000000e+00  -3.8228159123308037e+05 -1.3620517586182286e+04 0.0000000000000000e+00  4.5017687905545929e+05 -9.1910976833273389e+05 0.0000000000000000e+00  -2.6659623244724423e+05 1.4089845483298300e+05 0.0000000000000000e+00  1.6478945277633180e+06 -1.4675219643737909e+06 0.0000000000000000e+00  4.4164670787314756e+05 1.0500278366935607e+05 0.0000000000000000e+00  1.3725858909921085e+06 2.3957053337932055e+05 0.0000000000000000e+00  -8.8320894925864995e+05 1.2654633885119548e+06 0.0000000000000000e+00  2.3827556382066602e+05 8.9630691016204981e+05 0.0000000000000000e+00  -2.8950711551013961e+05 -6.9840714324166242e+04 0.0000000000000000e+00  -4.8895373926635744e+05 8.1769227730704448e+05 0.0000000000000000e+00  -7.1139859780221479e+05 -4.7226715776150086e+05 0.0000000000000000e+00  -3.9397128394764644e+05 -4.7159599133465511e-11 0.0000000000000000e+00  3.5510703907649091e+05 -1.0337562646392347e-09 0.0000000000000000e+00  7.0548955447371653e+05 1.2158581767168648e+06 0.0000000000000000e+00  1.2675214005740290e+06 -1.2378246259500234e+04 0.0000000000000000e+00  -2.0063196546474204e+06 1.0554890828438511e+06 0.0000000000000000e+00  3.7105263457608630e+05 7.5316574264131940e+05 0.0000000000000000e+00  -3.9584166212520777e+05 1.1172421883748251e+06 0.0000000000000000e+00  -5.5349323177411943e+05 6.6743181667034922e+05 0.0000000000000000e+00  -2.2816525708037853e+05 5.1757812025780331e+04 0.0000000000000000e+00  -9.7061546023161057e+05 -2.9234773718139087e+05 0.0000000000000000e+00  -6.6374931054385402e+05 -6.9929193137465091e+05 0.0000000000000000e+00  6.6572729207018064e+05 3.4674215204746387e+05 0.0000000000000000e+00  -1.5265861657285661e+05 8.9061701461376424e+05 0.0000000000000000e+00  -6.4271175006580853e+05 -5.3272788278925850e+05 0.0000000000000000e+00  -2.9698709975607216e+05 -1.7375382997874523e+05 0.0000000000000000e+00  -1.8567075075215058e+05 8.9558659258088272e+05 0.0000000000000000e+00  -1.4010430659617935e+05 2.6701380779700116e+03 0.0000000000000000e+00  -2.6523046686857060e+05 -6.6408557361761155e+05 0.0000000000000000e+00  3.9002593927975942e+05 2.1886074612795975e+05 0.0000000000000000e+00  -1.7306769682560803e+05 9.7462687625114946e+05 0.0000000000000000e+00  -4.8269752907280141e+05 -2.3563849172497125e+05 0.0000000000000000e+00  -5.3164734297036230e+04 1.2048165185162473e+05 0.0000000000000000e+00  2.1481121329994456e+05 1.6543212913330473e+05 0.0000000000000000e+00  -2.8126116136833857e+05 -1.2767526746947345e+05 0.0000000000000000e+00  1.1639695126322052e+05 -2.2703926364316902e+05 0.0000000000000000e+00  -5.6783235043729364e+05 6.9937293778104137e+05 0.0000000000000000e+00  -1.3281336837607386e+05 4.4611493179438874e+05 0.0000000000000000e+00  3.0529105001521256e+05 -7.2966630900754349e+05 0.0000000000000000e+00  2.2962688554353541e+05 2.7810404710618554e+04 0.0000000000000000e+00  -7.1288384736754152e+05 -3.2717753449367237e+05 0.0000000000000000e+00  -6.0121582540242432e+05 3.4053731487296819e+05 0.0000000000000000e+00  -3.4242373394660000e+05 -2.1284053063944780e+05 0.0000000000000000e+00  -5.6694834086026269e+04 2.3782679627764857e+05 0.0000000000000000e+00  -1.6796412257235959e+04 -3.5318889749726217e+05 0.0000000000000000e+00  -1.4873475818288830e+05 3.4899147722673637e+05 0.0000000000000000e+00  3.0113947719761875e+05 -3.1339521994744602e+05 0.0000000000000000e+00  -1.9656061970183795e+05 -1.2170756891338782e+05 0.0000000000000000e+00  1.9004521182332662e+05 -3.6868825650176650e+05 0.0000000000000000e+00  -5.3434941534760