<?xml version="1.0"?>
<VTKFile type="UnstructuredGrid"  version="0.1"  >
<UnstructuredGrid>
<Piece  NumberOfPoints="1369" NumberOfCells="2560">
<Points>
<DataArray  type="Float64"  NumberOfComponents="3"  format="ascii">0 0 0  0.75 0 0  1.5 0 0  2.25 0 0  3 0 0  3.75 0 0  4.5 0 0  5.25 0 0  6 0 0  6.75 0 0  7.5 0 0  8.25 0 0  9 0 0  9.75 0 0  10.5 0 0  11.25 0 0  12 0 0  12.75 0 0  13.5 0 0  14.25 0 0  15 0 0  15.75 0 0  16.5 0 0  17.25 0 0  18 0 0  18.75 0 0  19.5 0 0  20.25 0 0  21 0 0  21.75 0 0  22.5 0 0  23.25 0 0  24 0 0  24.75 0 0  25.5 0 0  26.25 0 0  27 0 0  27.75 0 0  28.5 0 0  29.25 0 0  30 0 0  30.75 0 0  31.5 0 0  32.25 0 0  33 0 0  33.75 0 0  34.5 0 0  35.25 0 0  36 0 0  36.75 0 0  37.5 0 0  38.25 0 0  39 0 0  39.75 0 0  40.5 0 0  41.25 0 0  42 0 0  42.75 0 0  43.5 0 0  44.25 0 0  45 0 0  45.75 0 0  46.5 0 0  47.25 0 0  48 0 0  48.75 0 0  49.5 0 0  50.25 0 0  51 0 0  51.75 0 0  52.5 0 0  53.25 0 0  54 0 0  54.75 0 0  55.5 0 0  56.25 0 0  57 0 0  57.75 0 0  58.5 0 0  59.25 0 0  60 0 0  0 0.5 0  0.75 0.5 0  1.5 0.5 0  2.25 0.5 0  3 0.5 0  3.75 0.5 0  4.5 0.5 0  5.25 0.5 0  6 0.5 0  6.75 0.5 0  7.5 0.5 0  8.25 0.5 0  9 0.5 0  9.75 0.5 0  10.5 0.5 0  11.25 0.5 0  12 0.5 0  12.75 0.5 0  13.5 0.5 0  14.25 0.5 0  15 0.5 0  15.75 0.5 0  16.5 0.5 0  17.25 0.5 0  18 0.5 0  18.75 0.5 0  19.5 0.5 0  20.25 0.5 0  21 0.5 0  21.75 0.5 0  22.5 0.5 0  23.25 0.5 0  24 0.5 0  24.75 0.5 0  25.5 0.5 0  26.25 0.5 0  27 0.5 0  27.75 0.5 0  28.5 0.5 0  29.25 0.5 0  30 0.5 0  30.75 0.5 0  31.5 0.5 0  32.25 0.5 0  33 0.5 0  33.75 0.5 0  34.5 0.5 0  35.25 0.5 0  36 0.5 0  36.75 0.5 0  37.5 0.5 0  38.25 0.5 0  39 0.5 0  39.75 0.5 0  40.5 0.5 0  41.25 0.5 0  42 0.5 0  42.75 0.5 0  43.5 0.5 0  44.25 0.5 0  45 0.5 0  45.75 0.5 0  46.5 0.5 0  47.25 0.5 0  48 0.5 0  48.75 0.5 0  49.5 0.5 0  50.25 0.5 0  51 0.5 0  51.75 0.5 0  52.5 0.5 0  53.25 0.5 0  54 0.5 0  54.75 0.5 0  55.5 0.5 0  56.25 0.5 0  57 0.5 0  57.75 0.5 0  58.5 0.5 0  59.25 0.5 0  60 0.5 0  0 1 0  0.75 1 0  1.5 1 0  2.25 1 0  3 1 0  3.75 1 0  4.5 1 0  5.25 1 0  6 1 0  6.75 1 0  7.5 1 0  8.25 1 0  9 1 0  9.75 1 0  10.5 1 0  11.25 1 0  12 1 0  12.75 1 0  13.5 1 0  14.25 1 0  15 1 0  15.75 1 0  16.5 1 0  17.25 1 0  18 1 0  18.75 1 0  19.5 1 0  20.25 1 0  21 1 0  21.75 1 0  22.5 1 0  23.25 1 0  24 1 0  24.75 1 0  25.5 1 0  26.25 1 0  27 1 0  27.75 1 0  28.5 1 0  29.25 1 0  30 1 0  30.75 1 0  31.5 1 0  32.25 1 0  33 1 0  33.75 1 0  34.5 1 0  35.25 1 0  36 1 0  36.75 1 0  37.5 1 0  38.25 1 0  39 1 0  39.75 1 0  40.5 1 0  41.25 1 0  42 1 0  42.75 1 0  43.5 1 0  44.25 1 0  45 1 0  45.75 1 0  46.5 1 0  47.25 1 0  48 1 0  48.75 1 0  49.5 1 0  50.25 1 0  51 1 0  51.75 1 0  52.5 1 0  53.25 1 0  54 1 0  54.75 1 0  55.5 1 0  56.25 1 0  57 1 0  57.75 1 0  58.5 1 0  59.25 1 0  60 1 0  0 1.5 0  0.75 1.5 0  1.5 1.5 0  2.25 1.5 0  3 1.5 0  3.75 1.5 0  4.5 1.5 0  5.25 1.5 0  6 1.5 0  6.75 1.5 0  7.5 1.5 0  8.25 1.5 0  9 1.5 0  9.75 1.5 0  10.5 1.5 0  11.25 1.5 0  12 1.5 0  12.75 1.5 0  13.5 1.5 0  14.25 1.5 0  15 1.5 0  15.75 1.5 0  16.5 1.5 0  17.25 1.5 0  18 1.5 0  18.75 1.5 0  19.5 1.5 0  20.25 1.5 0  21 1.5 0  21.75 1.5 0  22.5 1.5 0  23.25 1.5 0  24 1.5 0  24.75 1.5 0  25.5 1.5 0  26.25 1.5 0  27 1.5 0  27.75 1.5 0  28.5 1.5 0  29.25 1.5 0  30 1.5 0  30.75 1.5 0  31.5 1.5 0  32.25 1.5 0  33 1.5 0  33.75 1.5 0  34.5 1.5 0  35.25 1.5 0  36 1.5 0  36.75 1.5 0  37.5 1.5 0  38.25 1.5 0  39 1.5 0  39.75 1.5 0  40.5 1.5 0  41.25 1.5 0  42 1.5 0  42.75 1.5 0  43.5 1.5 0  44.25 1.5 0  45 1.5 0  45.75 1.5 0  46.5 1.5 0  47.25 1.5 0  48 1.5 0  48.75 1.5 0  49.5 1.5 0  50.25 1.5 0  51 1.5 0  51.75 1.5 0  52.5 1.5 0  53.25 1.5 0  54 1.5 0  54.75 1.5 0  55.5 1.5 0  56.25 1.5 0  57 1.5 0  57.75 1.5 0  58.5 1.5 0  59.25 1.5 0  60 1.5 0  0 2 0  0.75 2 0  1.5 2 0  2.25 2 0  3 2 0  3.75 2 0  4.5 2 0  5.25 2 0  6 2 0  6.75 2 0  7.5 2 0  8.25 2 0  9 2 0  9.75 2 0  10.5 2 0  11.25 2 0  12 2 0  12.75 2 0  13.5 2 0  14.25 2 0  15 2 0  15.75 2 0  16.5 2 0  17.25 2 0  18 2 0  18.75 2 0  19.5 2 0  20.25 2 0  21 2 0  21.75 2 0  22.5 2 0  23.25 2 0  24 2 0  24.75 2 0  25.5 2 0  26.25 2 0  27 2 0  27.75 2 0  28.5 2 0  29.25 2 0  30 2 0  30.75 2 0  31.5 2 0  32.25 2 0  33 2 0  33.75 2 0  34.5 2 0  35.25 2 0  36 2 0  36.75 2 0  37.5 2 0  38.25 2 0  39 2 0  39.75 2 0  40.5 2 0  41.25 2 0  42 2 0  42.75 2 0  43.5 2 0  44.25 2 0  45 2 0  45.75 2 0  46.5 2 0  47.25 2 0  48 2 0  48.75 2 0  49.5 2 0  50.25 2 0  51 2 0  51.75 2 0  52.5 2 0  53.25 2 0  54 2 0  54.75 2 0  55.5 2 0  56.25 2 0  57 2 0  57.75 2 0  58.5 2 0  59.25 2 0  60 2 0  0 2.5 0  0.75 2.5 0  1.5 2.5 0  2.25 2.5 0  3 2.5 0  3.75 2.5 0  4.5 2.5 0  5.25 2.5 0  6 2.5 0  6.75 2.5 0  7.5 2.5 0  8.25 2.5 0  9 2.5 0  9.75 2.5 0  10.5 2.5 0  11.25 2.5 0  12 2.5 0  12.75 2.5 0  13.5 2.5 0  14.25 2.5 0  15 2.5 0  15.75 2.5 0  16.5 2.5 0  17.25 2.5 0  18 2.5 0  18.75 2.5 0  19.5 2.5 0  20.25 2.5 0  21 2.5 0  21.75 2.5 0  22.5 2.5 0  23.25 2.5 0  24 2.5 0  24.75 2.5 0  25.5 2.5 0  26.25 2.5 0  27 2.5 0  27.75 2.5 0  28.5 2.5 0  29.25 2.5 0  30 2.5 0  30.75 2.5 0  31.5 2.5 0  32.25 2.5 0  33 2.5 0  33.75 2.5 0  34.5 2.5 0  35.25 2.5 0  36 2.5 0  36.75 2.5 0  37.5 2.5 0  38.25 2.5 0  39 2.5 0  39.75 2.5 0  40.5 2.5 0  41.25 2.5 0  42 2.5 0  42.75 2.5 0  43.5 2.5 0  44.25 2.5 0  45 2.5 0  45.75 2.5 0  46.5 2.5 0  47.25 2.5 0  48 2.5 0  48.75 2.5 0  49.5 2.5 0  50.25 2.5 0  51 2.5 0  51.75 2.5 0  52.5 2.5 0  53.25 2.5 0  54 2.5 0  54.75 2.5 0  55.5 2.5 0  56.25 2.5 0  57 2.5 0  57.75 2.5 0  58.5 2.5 0  59.25 2.5 0  60 2.5 0  0 3 0  0.75 3 0  1.5 3 0  2.25 3 0  3 3 0  3.75 3 0  4.5 3 0  5.25 3 0  6 3 0  6.75 3 0  7.5 3 0  8.25 3 0  9 3 0  9.75 3 0  10.5 3 0  11.25 3 0  12 3 0  12.75 3 0  13.5 3 0  14.25 3 0  15 3 0  15.75 3 0  16.5 3 0  17.25 3 0  18 3 0  18.75 3 0  19.5 3 0  20.25 3 0  21 3 0  21.75 3 0  22.5 3 0  23.25 3 0  24 3 0  24.75 3 0  25.5 3 0  26.25 3 0  27 3 0  27.75 3 0  28.5 3 0  29.25 3 0  30 3 0  30.75 3 0  31.5 3 0  32.25 3 0  33 3 0  33.75 3 0  34.5 3 0  35.25 3 0  36 3 0  36.75 3 0  37.5 3 0  38.25 3 0  39 3 0  39.75 3 0  40.5 3 0  41.25 3 0  42 3 0  42.75 3 0  43.5 3 0  44.25 3 0  45 3 0  45.75 3 0  46.5 3 0  47.25 3 0  48 3 0  48.75 3 0  49.5 3 0  50.25 3 0  51 3 0  51.75 3 0  52.5 3 0  53.25 3 0  54 3 0  54.75 3 0  55.5 3 0  56.25 3 0  57 3 0  57.75 3 0  58.5 3 0  59.25 3 0  60 3 0  0 3.5 0  0.75 3.5 0  1.5 3.5 0  2.25 3.5 0  3 3.5 0  3.75 3.5 0  4.5 3.5 0  5.25 3.5 0  6 3.5 0  6.75 3.5 0  7.5 3.5 0  8.25 3.5 0  9 3.5 0  9.75 3.5 0  10.5 3.5 0  11.25 3.5 0  12 3.5 0  12.75 3.5 0  13.5 3.5 0  14.25 3.5 0  15 3.5 0  15.75 3.5 0  16.5 3.5 0  17.25 3.5 0  18 3.5 0  18.75 3.5 0  19.5 3.5 0  20.25 3.5 0  21 3.5 0  21.75 3.5 0  22.5 3.5 0  23.25 3.5 0  24 3.5 0  24.75 3.5 0  25.5 3.5 0  26.25 3.5 0  27 3.5 0  27.75 3.5 0  28.5 3.5 0  29.25 3.5 0  30 3.5 0  30.75 3.5 0  31.5 3.5 0  32.25 3.5 0  33 3.5 0  33.75 3.5 0  34.5 3.5 0  35.25 3.5 0  36 3.5 0  36.75 3.5 0  37.5 3.5 0  38.25 3.5 0  39 3.5 0  39.75 3.5 0  40.5 3.5 0  41.25 3.5 0  42 3.5 0  42.75 3.5 0  43.5 3.5 0  44.25 3.5 0  45 3.5 0  45.75 3.5 0  46.5 3.5 0  47.25 3.5 0  48 3.5 0  48.75 3.5 0  49.5 3.5 0  50.25 3.5 0  51 3.5 0  51.75 3.5 0  52.5 3.5 0  53.25 3.5 0  54 3.5 0  54.75 3.5 0  55.5 3.5 0  56.25 3.5 0  57 3.5 0  57.75 3.5 0  58.5 3.5 0  59.25 3.5 0  60 3.5 0  0 4 0  0.75 4 0  1.5 4 0  2.25 4 0  3 4 0  3.75 4 0  4.5 4 0  5.25 4 0  6 4 0  6.75 4 0  7.5 4 0  8.25 4 0  9 4 0  9.75 4 0  10.5 4 0  11.25 4 0  12 4 0  12.75 4 0  13.5 4 0  14.25 4 0  15 4 0  15.75 4 0  16.5 4 0  17.25 4 0  18 4 0  18.75 4 0  19.5 4 0  20.25 4 0  21 4 0  21.75 4 0  22.5 4 0  23.25 4 0  24 4 0  24.75 4 0  25.5 4 0  26.25 4 0  27 4 0  27.75 4 0  28.5 4 0  29.25 4 0  30 4 0  30.75 4 0  31.5 4 0  32.25 4 0  33 4 0  33.75 4 0  34.5 4 0  35.25 4 0  36 4 0  36.75 4 0  37.5 4 0  38.25 4 0  39 4 0  39.75 4 0  40.5 4 0  41.25 4 0  42 4 0  42.75 4 0  43.5 4 0  44.25 4 0  45 4 0  45.75 4 0  46.5 4 0  47.25 4 0  48 4 0  48.75 4 0  49.5 4 0  50.25 4 0  51 4 0  51.75 4 0  52.5 4 0  53.25 4 0  54 4 0  54.75 4 0  55.5 4 0  56.25 4 0  57 4 0  57.75 4 0  58.5 4 0  59.25 4 0  60 4 0  0.375 0.25 0  1.125 0.25 0  1.875 0.25 0  2.625 0.25 0  3.375 0.25 0  4.125 0.25 0  4.875 0.25 0  5.625 0.25 0  6.375 0.25 0  7.125 0.25 0  7.875 0.25 0  8.625 0.25 0  9.375 0.25 0  10.125 0.25 0  10.875 0.25 0  11.625 0.25 0  12.375 0.25 0  13.125 0.25 0  13.875 0.25 0  14.625 0.25 0  15.375 0.25 0  16.125 0.25 0  16.875 0.25 0  17.625 0.25 0  18.375 0.25 0  19.125 0.25 0  19.875 0.25 0  20.625 0.25 0  21.375 0.25 0  22.125 0.25 0  22.875 0.25 0  23.625 0.25 0  24.375 0.25 0  25.125 0.25 0  25.875 0.25 0  26.625 0.25 0  27.375 0.25 0  28.125 0.25 0  28.875 0.25 0  29.625 0.25 0  30.375 0.25 0  31.125 0.25 0  31.875 0.25 0  32.625 0.25 0  33.375 0.25 0  34.125 0.25 0  34.875 0.25 0  35.625 0.25 0  36.375 0.25 0  37.125 0.25 0  37.875 0.25 0  38.625 0.25 0  39.375 0.25 0  40.125 0.25 0  40.875 0.25 0  41.625 0.25 0  42.375 0.25 0  43.125 0.25 0  43.875 0.25 0  44.625 0.25 0  45.375 0.25 0  46.125 0.25 0  46.875 0.25 0  47.625 0.25 0  48.375 0.25 0  49.125 0.25 0  49.875 0.25 0  50.625 0.25 0  51.375 0.25 0  52.125 0.25 0  52.875 0.25 0  53.625 0.25 0  54.375 0.25 0  55.125 0.25 0  55.875 0.25 0  56.625 0.25 0  57.375 0.25 0  58.125 0.25 0  58.875 0.25 0  59.625 0.25 0  0.375 0.75 0  1.125 0.75 0  1.875 0.75 0  2.625 0.75 0  3.375 0.75 0  4.125 0.75 0  4.875 0.75 0  5.625 0.75 0  6.375 0.75 0  7.125 0.75 0  7.875 0.75 0  8.625 0.75 0  9.375 0.75 0  10.125 0.75 0  10.875 0.75 0  11.625 0.75 0  12.375 0.75 0  13.125 0.75 0  13.875 0.75 0  14.625 0.75 0  15.375 0.75 0  16.125 0.75 0  16.875 0.75 0  17.625 0.75 0  18.375 0.75 0  19.125 0.75 0  19.875 0.75 0  20.625 0.75 0  21.375 0.75 0  22.125 0.75 0  22.875 0.75 0  23.625 0.75 0  24.375 0.75 0  25.125 0.75 0  25.875 0.75 0  26.625 0.75 0  27.375 0.75 0  28.125 0.75 0  28.875 0.75 0  29.625 0.75 0  30.375 0.75 0  31.125 0.75 0  31.875 0.75 0  32.625 0.75 0  33.375 0.75 0  34.125 0.75 0  34.875 0.75 0  35.625 0.75 0  36.375 0.75 0  37.125 0.75 0  37.875 0.75 0  38.625 0.75 0  39.375 0.75 0  40.125 0.75 0  40
[...]
<PointData  Vectors="f_8-0"> 
<DataArray  type="Float64"  Name="f_8-0"  NumberOfComponents="3" format="ascii">-6.0827021360161538e-12 1.2118545090301024e-11 0.0000000000000000e+00  -1.8453837271063154e-11 0.0000000000000000e+00 0.0000000000000000e+00  0.0000000000000000e+00 0.0000000000000000e+00 0.0000000000000000e+00  3.6632595789379954e-09 -8.4496160890264667e-10 0.0000000000000000e+00  7.9960669193230590e-09 7.5310257332583275e-08 0.0000000000000000e+00  0.0000000000000000e+00 0.0000000000000000e+00 0.0000000000000000e+00  0.0000000000000000e+00 0.0000000000000000e+00 0.0000000000000000e+00  0.0000000000000000e+00 0.0000000000000000e+00 0.0000000000000000e+00  0.0000000000000000e+00 -2.7085664683245007e-09 0.0000000000000000e+00  4.0065695324328461e-08 0.0000000000000000e+00 0.0000000000000000e+00  -1.4353660331188802e-08 1.5374913042867500e-09 0.0000000000000000e+00  -1.9748695041959387e-07 1.4552982819390640e-08 0.0000000000000000e+00  -1.7085239785874975e-07 -1.0868234380985680e-07 0.0000000000000000e+00  -4.8391944632720371e-09 -7.5752837775026059e-09 0.0000000000000000e+00  4.6537351024530742e-09 -1.7499419977384796e-09 0.0000000000000000e+00  3.0441540262965694e-07 1.4654307060080257e-07 0.0000000000000000e+00  -1.4952729744981354e-08 6.6066240943939680e-10 0.0000000000000000e+00  0.0000000000000000e+00 0.0000000000000000e+00 0.0000000000000000e+00  0.0000000000000000e+00 1.2976933688115181e-07 0.0000000000000000e+00  0.0000000000000000e+00 0.0000000000000000e+00 0.0000000000000000e+00  0.0000000000000000e+00 0.0000000000000000e+00 0.0000000000000000e+00  3.7257817477881814e-08 1.0566120944121201e-07 0.0000000000000000e+00  -4.0128987943023941e-09 6.7780864368398193e-09 0.0000000000000000e+00  0.0000000000000000e+00 7.0354305022650136e-11 0.0000000000000000e+00  4.0792544179741803e-09 4.3339420635289541e-10 0.0000000000000000e+00  1.9669153506875970e-09 2.6311784050488266e-09 0.0000000000000000e+00  8.3291795548521168e-10 9.7882808943860161e-10 0.0000000000000000e+00  5.4516051809497808e-10 1.2322565983370105e-10 0.0000000000000000e+00  -3.4167040535946403e-08 -5.5929346362262805e-08 0.0000000000000000e+00  6.4845495431052182e-10 -1.8580606505088438e-10 0.0000000000000000e+00  -1.2966322065556495e-09 -2.0653497626147844e-08 0.0000000000000000e+00  -8.3433266552354911e-10 5.1975584793137807e-09 0.0000000000000000e+00  -3.8261693623803411e-09 -2.4857574284411416e-09 0.0000000000000000e+00  6.4566024483176976e-09 2.5293855652107376e-09 0.0000000000000000e+00  7.6669963476863061e-09 -2.3708904309587975e-08 0.0000000000000000e+00  -1.4121706197968417e-09 -4.6310043173995531e-09 0.0000000000000000e+00  5.8624832710656252e-08 2.1059162774867956e-08 0.0000000000000000e+00  -4.9666291792382785e-08 3.9224298157255066e-09 0.0000000000000000e+00  0.0000000000000000e+00 -9.1919410956738163e-11 0.0000000000000000e+00  -7.5722770157304244e-08 3.4364932041961584e-08 0.0000000000000000e+00  -5.6001982909550464e-10 1.1935674623606317e-09 0.0000000000000000e+00  -8.0735235305395929e-09 1.1842093130012726e-08 0.0000000000000000e+00  2.2702511136432730e-08 -2.6491076211045027e-09 0.0000000000000000e+00  0.0000000000000000e+00 2.4003293104547923e-10 0.0000000000000000e+00  -4.3611447573705539e-08 -6.0477170568029399e-09 0.0000000000000000e+00  -1.9287274583969829e-08 2.1767894660696412e-08 0.0000000000000000e+00  0.0000000000000000e+00 0.0000000000000000e+00 0.0000000000000000e+00  1.8958446177852002e-09 1.7304317578876576e-08 0.0000000000000000e+00  0.0000000000000000e+00 2.2240283495586719e-10 0.0000000000000000e+00  0.0000000000000000e+00 0.0000000000000000e+00 0.0000000000000000e+00  0.0000000000000000e+00 -3.8910123342513228e-10 0.0000000000000000e+00  6.2686479206397428e-09 1.1237596668809377e-09 0.0000000000000000e+00  0.0000000000000000e+00 0.0000000000000000e+00 0.0000000000000000e+00  1.0758008292443266e-09 -1.6691909891467139e-09 0.0000000000000000e+00  8.0672702068749798e-09 -9.3416160647248797e-09 0.0000000000000000e+00  -3.4257960635247237e-07 1.6660713473902541e-07 0.0000000000000000e+00  -1.5294880242218320e-08 2.1133549187233855e-08 0.0000000000000000e+00  0.0000000000000000e+00 0.0000000000000000e+00 0.0000000000000000e+00  0.0000000000000000e+00 0.0000000000000000e+00 0.0000000000000000e+00  0.0000000000000000e+00 3.9875923838666104e-09 0.0000000000000000e+00  0.0000000000000000e+00 0.0000000000000000e+00 0.0000000000000000e+00  -6.6376602394326314e-08 1.5024717414695787e-08 0.0000000000000000e+00  0.0000000000000000e+00 0.0000000000000000e+00 0.0000000000000000e+00  -8.2480775705891619e-09 -3.3580766552840370e-09 0.0000000000000000e+00  1.4153647916791930e-07 -1.2091192338351323e-07 0.0000000000000000e+00  0.0000000000000000e+00 0.0000000000000000e+00 0.0000000000000000e+00  0.0000000000000000e+00 0.0000000000000000e+00 0.0000000000000000e+00  0.0000000000000000e+00 0.0000000000000000e+00 0.0000000000000000e+00  0.0000000000000000e+00 0.0000000000000000e+00 0.0000000000000000e+00  -1.3197676052377200e-08 -1.6725819231196189e-08 0.0000000000000000e+00  1.2747951441245846e-08 0.0000000000000000e+00 0.0000000000000000e+00  7.2237586762963832e-10 2.1379558357863208e-11 0.0000000000000000e+00  -7.2721341553974568e-08 -7.3458951483474914e-09 0.0000000000000000e+00  9.0038262886140921e-09 2.6872509032314854e-08 0.0000000000000000e+00  0.0000000000000000e+00 0.0000000000000000e+00 0.0000000000000000e+00  -2.3754367541975371e-09 2.9042643364140929e-10 0.0000000000000000e+00  -6.3422461223301551e-08 3.2208369660598396e-08 0.0000000000000000e+00  0.0000000000000000e+00 0.0000000000000000e+00 0.0000000000000000e+00  0.0000000000000000e+00 0.0000000000000000e+00 0.0000000000000000e+00  0.0000000000000000e+00 0.0000000000000000e+00 0.0000000000000000e+00  -4.9307859556885104e-10 -1.1193783431000647e-10 0.0000000000000000e+00  -3.5636117817947984e+05 -1.3062505468958807e-11 0.0000000000000000e+00  2.0956681982602071e+05 1.6718719464132749e+05 0.0000000000000000e+00  -2.9554075790212395e+04 8.2017880068873963e+05 0.0000000000000000e+00  5.5005298031820232e+04 -9.7799130992563535e+05 0.0000000000000000e+00  -3.6304801467974059e+04 -9.7672369221528503e+05 0.0000000000000000e+00  1.4178465748726728e+06 -8.3733613965722825e+05 0.0000000000000000e+00  3.5258601188018825e+05 -4.3249045433949202e+05 0.0000000000000000e+00  1.9318196613815127e+05 6.4139441896669206e+05 0.0000000000000000e+00  4.5508222893507373e+04 1.8281744403323373e+06 0.0000000000000000e+00  1.6721173974422470e+06 6.4434302733183641e+05 0.0000000000000000e+00  6.4150771985786885e+05 -4.1085809367977496e+05 0.0000000000000000e+00  8.1191471719068906e+05 3.8258408806658105e+05 0.0000000000000000e+00  2.3479564637423019e+05 4.5407216104758525e+05 0.0000000000000000e+00  -2.3260533513959506e+05 1.8403395301343073e+05 0.0000000000000000e+00  1.5080904305295405e+05 8.7345116462971360e+04 0.0000000000000000e+00  -1.1031399353576923e+05 3.0693423855610611e+05 0.0000000000000000e+00  6.2069930191363150e+05 1.4608151334487011e+06 0.0000000000000000e+00  -2.6384404000089428e+05 2.0863933612651435e+04 0.0000000000000000e+00  -8.1452635848361556e+05 -6.4706271146573371e+05 0.0000000000000000e+00  -5.4346485304710129e+05 -7.9019462607276591e+05 0.0000000000000000e+00  -8.5731526518292536e+04 -3.6893830987686088e+05 0.0000000000000000e+00  6.7352550583590032e+05 2.3949215396262961e+05 0.0000000000000000e+00  3.4232818642933643e+05 7.1171517904245341e+05 0.0000000000000000e+00  4.9181201990157075e+05 -4.1248119236414699e+05 0.0000000000000000e+00  6.1862589330380643e+05 3.1131622627195479e+03 0.0000000000000000e+00  2.8765831923592032e+04 -6.1051023292670993e+05 0.0000000000000000e+00  -5.0650758102548549e+04 4.8030143239673390e+05 0.0000000000000000e+00  -1.6773556453608893e+05 -2.2794369368387887e+05 0.0000000000000000e+00  -3.6833885893470031e+05 3.9670056175364665e+05 0.0000000000000000e+00  1.7656708102819358e+05 1.9912314321343836e+05 0.0000000000000000e+00  -1.0949622526987933e+05 -7.4461899981303184e+04 0.0000000000000000e+00  -2.8012803607433609e+05 -4.7157934861992653e+04 0.0000000000000000e+00  1.4587564627893901e+05 4.2771187469682758e+02 0.0000000000000000e+00  1.1835385366981414e+05 4.9718098337742733e+05 0.0000000000000000e+00  3.0224416076942318e+05 4.4317660809328104e+05 0.0000000000000000e+00  1.3795586274525124e+05 2.1253165316899036e+05 0.0000000000000000e+00  3.4795063507865702e+03 6.1767510854501605e+04 0.0000000000000000e+00  6.1078522684124531e+05 -1.0059206147043023e+05 0.0000000000000000e+00  -6.4786021022013585e+04 4.9204406582502974e+05 0.0000000000000000e+00  2.6373281081942027e+05 4.2881563407214370e+05 0.0000000000000000e+00  -4.7323126626514866e+04 1.4547115137426523e+05 0.0000000000000000e+00  3.9517776095501853e+04 -6.4369266571398382e+05 0.0000000000000000e+00  4.3031724550881452e+04 1.8112859708721482e+05 0.0000000000000000e+00  -7.6185300853901124e+05 7.7671516862054355e+04 0.0000000000000000e+00  -7.5416706891680733e+04 4.3856885888111917e+05 0.0000000000000000e+00  -6.1203134234768695e+04 1.7370832522016222e+05 0.0000000000000000e+00  -2.6562026321694202e+05 4.8358035166105267e+05 0.0000000000000000e+00  3.5338471480855689e+05 -2.5190543407867750e+04 0.0000000000000000e+00  -5.7898119251951051e+05 4.6522615389357565e+05 0.0000000000000000e+00  2.7244653036555712e+05 -1.9469807008302133e+05 0.0000000000000000e+00  1.4911415150588812e+05 6.4195111325572035e+05 0.0000000000000000e+00  8.7080353203173843e+05 -3.4668222331687156e+05 0.0000000000000000e+00  -2.1101886476885885e+05 -8.3299987575425138e+05 0.0000000000000000e+00  -4.3414866141071258e+05 -2.1119340578504730e+05 0.0000000000000000e+00  -5.5576414794939652e+05 1.6308291857609767e+05 0.0000000000000000e+00  3.6545752335165051e+05 -1.2590071746033931e+05 0.0000000000000000e+00  -1.7919401778114557e+06 -7.7262502315719076e+05 0.0000000000000000e+00  -6.8024686494243302e+04 -3.6257061878089939e+04 0.0000000000000000e+00  -6.4399970347373210e+03 6.4511322363573173e+05 0.0000000000000000e+00  -3.0971721717030735e+05 4.8829105405858293e+05 0.0000000000000000e+00  7.2654178587233648e+05 1.8436246718629648e+05 0.0000000000000000e+00  4.9779510570008442e+05 -1.3039348193942733e+04 0.0000000000000000e+00  6.4937014118174906e+05 1.5850752678742522e+05 0.0000000000000000e+00  -8.9895531852091476e+05 -7.6040665797603375e+04 0.0000000000000000e+00  2.0100924547506875e+05 -8.5482423209490677e+04 0.0000000000000000e+00  1.0852770297727350e+06 -4.5355305372411106e+05 0.0000000000000000e+00  1.0448232791353093e+06 -5.1810502868279221e+05 0.0000000000000000e+00  -2.8791300076846709e+05 -3.4666938193293801e+05 0.0000000000000000e+00  -3.3339487189035839e+05 -4.5716834483958426e+05 0.0000000000000000e+00  1.5374158768603043e+06 1.9639502798256960e+06 0.0000000000000000e+00  3.7002576694568095e+05 -2.5559592706645129e+05 0.0000000000000000e+00  9.8903201583841501e+05 7.7211888177215948e+05 0.0000000000000000e+00  -9.0021734776530392e+05 -1.1487580450576772e+05 0.0000000000000000e+00  -1.3347326025972569e+06 2.3058355654170979e+06 0.0000000000000000e+00  -3.6237457838036597e+05 5.1039382638791326e+05 0.0000000000000000e+00  5.1597749288446014e+05 1.5789096746314218e+05 0.0000000000000000e+00  -1.7789168759675394e+05 9.6708676904156149e+04 0.0000000000000000e+00  -4.9744644132687995e+05 7.8437971445533854e+04 0.0000000000000000e+00  8.0722529163307743e+05 -9.7105684291123383e+04 0.0000000000000000e+00  4.5005856424454844e+05 -8.9707256311699559e+04 0.0000000000000000e+00  -3.3431086393911141e+05 0.0000000000000000e+00 0.0000000000000000e+00  2.4799476846511950e+05 -9.2374966607794828e-12 0.0000000000000000e+00  -1.5093017559442187e+06 -6.8781861693487223e+05 0.0000000000000000e+00  9.1463659551069583e+05 -3.0156549665539875e+05 0.0000000000000000e+00  3.2518212843647477e+05 -1.1554296615981145e+06 0.0000000000000000e+00  1.6246357027793503e+06 -9.6869144897788798e+05 0.0000000000000000e+00  1.1121832445148716e+06 -3.1992806568237993e+04 0.0000000000000000e+00  6.5125118411531916e+05 7.7582056614176952e+04 0.0000000000000000e+00  -2.8814417981837352e+05 1.1310465010578089e+05 0.0000000000000000e+00  3.4432706680672307e+05 6.2444672643498483e+05 0.0000000000000000e+00  -1.7764862243665094e+05 8.6170030117667548e+05 0.0000000000000000e+00  1.0206405705151258e+06 1.4746529003852370e+05 0.0000000000000000e+00  1.6752395150722491e+05 1.1854488061888004e+05 0.0000000000000000e+00  1.0281456034420640e+06 1.2089656786532619e+06 0.0000000000000000e+00  5.5215707770837762e+04 -4.7745250432706857e+05 0.0000000000000000e+00  1.6432080331415086e+05 -1.4673489733356400e+05 0.0000000000000000e+00  1.2483332338650108e+06 1.0102335330587372e+06 0.0000000000000000e+00  -1.2010054537713567e+06 8.4638674104795477e+05 0.0000000000000000e+00  -6.1422740739346761e+05 1.5709402447677412e+05 0.0000000000000000e+00  -3.7734754686748516e+05 -7.0391420008736290e+05 0.0000000000000000e+00  5.3858288852626609e+05 3.6324507053953316e+05 0.0000000000000000e+00  3.6795928509788524e+05 -2.2668174046762587e+05 0.0000000000000000e+00  2.0998756248146459e+05 4.9770452902120451e+04 0.0000000000000000e+00  2.1747791274019703e+05 4.9608400891648250e+05 0.0000000000000000e+00  4.8107598942420783e+05 -1.2487123083661075e+05 0.0000000000000000e+00  2.7406010584449122e+05 -1.3450474717654457e+05 0.0000000000000000e+00  5.3935605381073442e+05 1.6431231249730653e+05 0.0000000000000000e+00  -1.3158569919297390e+05 5.5570439151744021e+05 0.0000000000000000e+00  -4.1261227445252065e+05 -2.2690947278748165e+05 0.0000000000000000e+00  2.6032395266057389e+04 -3.6580907380193856e+05 0.0000000000000000e+00  -2.1436794728710348e+05 -1.2818448445710650e+05 0.0000000000000000e+00  4.5572263649921300e+05 3.1673004938503332e+05 0.0000000000000000e+00  2.9992579531671974e+05 2.1733712515840540e+05 0.0000000000000000e+00  6.4137178028916591e+05 -6.5759691503833071e+05 0.0000000000000000e+00  3.5551126812173700e+05 -3.0153882221042365e+05 0.0000000000000000e+00  7.5350185512056318e+05 -4.2662860656494315e+05 0.0000000000000000e+00  4.3536160327789385e+05 5.4782448698526155e+05 0.0000000000000000e+00  3.9399048589053535e+05 -1.7316409747666970e+05 0.0000000000000000e+00  4.3608815787123347e+05 -1.1289073245834740e+05 0.0000000000000000e+00  6.6676618326318357e+05 3.5179364334043820e+05 0.0000000000000000e+00  4.9167294726278679e+05 6.0847349942087801e+05 0.0000000000000000e+00  3.9690841100593813e+05 -6.5831888139056927e+05 0.0000000000000000e+00  3.0985297444741090e+05 7.3488994416029818e+04 0.0000000000000000e+00  -4.3855982239207893e+04 1.6325144733530944e+04 0.0000000000000000e+00  -2.4970123409239526e+05 1.9669638234787327e+05 0.0000000000000000e+00  1.4194567505679803e+05 -5.1428213145971262e+04 0.0000000000000000e+00  1.1728979330238342e+05 2.6341743818864878e+05 0.0000000000000000e+00  1.3711452806931286e+04 -2.1682265306050197e+05 0.0000000000000000e+00  -3.5196821635574423e+05 3.4030726902959170e+05 0.0000000000000000e+00  2.1111731546039283e+05 -7.3515347500943788e+05 0.0000000000000000e+00  1.7106903165581843e+05 2.7116016954518371e+05 0.0000000000000000e+00  5.8799934693196858e+05 4.9658531351293990e+05 0.0000000000000000e+00  -3.4762020879227540e+05 -2.1834080236289024e+05 0.0000000000000000e+00  5.2075229163208853e+04 6.9159807235968148e+05 0.0000000000000000e+00  -7.1943119899617403e+05 2.3926899581104412e+05 0.0000000000000000e+00  -8.7777020136462769e+05 3.8907015873361466e+04 0.0000000000000000e+00  -3.7687345263490157e+05 -4.5339525358335860e+05 0.0000000000000000e+00  -6.5882482201381226e+05 -8.9543611362834706e+05 0.0000000000000000e+00  8.3808958922535341e+04 -1.6907060558298372e+06 0.0000000000000000e+00  -3.2907401982688881e+05 6.5272840387341799e+05 0.0000000000000000e+00  -1.3129994682770084e+04 -1.0996783267148230e+06 0.0000000000000000e+00  -1.4843581095453451e+05 1.2375910692634457e+06 0.0000000000000000e+00  -1.5195307207896258e+05 -1.9687378787776592e+05 0.0000000000000000e+00  1.2815104571378708e+06 -1.0934658030266787e+06 0.0000000000000000e+00  2.0339532702617126e+05 -2.3569613767473996e+05 0.0000000000000000e+00  2.0715931424348711e+05 -1.4271529340271007e+06 0.0000000000000000e+00  -2.1326089205425972e+05 -1.3468337889635528e+06 0.0000000000000000e+00  1.0654408643284200e+06 -6.7269944453784009e+05 0.0000000000000000e+00  -4.1317731645484810e+05 -6.4280227812770981e+03 0.0000000000000000e+00  -1.2650611717202102e+06 3.4527293250612705e+05 0.0000000000000000e+00  -2.2081266291305008e+04 -1.2428454946908120e+05 0.0000000000000000e+00  -1.5373460309969180e+05 1.0280831039620194e+06 0.0000000000000000e+00  -4.9514514483149827e+05 -1.5652676542264203e+05 0.0000000000000000e+00  -1.9661211116592421e+06 1.5248187332683355e+06 0.0000000000000000e+00  -7.5280578762188798e+05 -1.5528443445732983e+05 0.0000000000000000e+00  -1.8442041288765657e+06 -7.8804627249400434e+05 0.0000000000000000e+00  8.7728653636151226e+05 -1.3630653291311029e+06 0.0000000000000000e+00  5.6348398092749732e+04 -1.3825799090360496e+06 0.0000000000000000e+00  4.2366656352583063e+05 3.6879473213242664e+05 0.0000000000000000e+00  6.6231987020550703e+05 -5.3107265094312862e+05 0.0000000000000000e+00  1.3291362619161964e+06 4.0978848796887160e+05 0.0000000000000000e+00  1.0009313730048625e+06 1.1750702549153111e-09 0.0000000000000000e+00  -4.2829285399013793e+05 0.0000000000000000e+00 0.0000000000000000e+00  -7.8774976012255601e+05 -1.1657815947951833e+06 0.0000000000000000e+00  -1.3451391028792656e+06 -4.4510149939927367e+04 0.0000000000000000e+00  2.1243850889988085e+06 -1.0312411259323709e+06 0.0000000000000000e+00  -3.5535964391894301e+05 -7.8117819069654052e+05 0.0000000000000000e+00  3.6908581997417234e+05 -1.0899757496033860e+06 0.0000000000000000e+00  5.7574480608257756e+05 -6.2010576353971788e+05 0.0000000000000000e+00  1.7552308467044981e+05 -1.8132270321032249e+03 0.0000000000000000e+00  1.0259430677450356e+06 2.6022299195220502e+05 0.0000000000000000e+00  7.2471555403729179e+05 6.0045935145036702e+05 0.0000000000000000e+00  -5.5317424079117272e+05 -4.9493747929397679e+05 0.0000000000000000e+00  9.3594590630340695e+04 -9.0445023512019659e+05 0.0000000000000000e+00  6.1125197941536596e+05 3.8367303866954730e+05 0.0000000000000000e+00  2.8321744265344390e+05 2.7964845410426910e+05 0.0000000000000000e+00  1.3946523208922107e+05 -9.7055245368793071e+05 0.0000000000000000e+00  6.9823605458213147e+04 -1.1796424124723757e+04 0.0000000000000000e+00  2.1373578012161254e+05 6.9240970018902363e+05 0.0000000000000000e+00  -3.6034147298809828e+05 -2.6047834918887296e+05 0.0000000000000000e+00  1.3311895647041555e+05 -1.1217572535827276e+06 0.0000000000000000e+00  4.4820278551586322e+05 2.5346427599743966e+05 0.0000000000000000e+00  2.0553228644063909e+05 -1.2530110222502804e+05 0.0000000000000000e+00  -2.1199446933485969e+05 -2.1764564692054340e+05 0.0000000000000000e+00  2.3444928472542422e+05 2.0259138905335210e+04 0.0000000000000000e+00  -3.0511199091404508e+05 -1.7992448571434958e+05 0.0000000000000000e+00  7.0927055718565872e+05 -5.4743507639512781e+05 0.0000000000000000e+00  3.7255931883176632e+05 -5.8767913613292249e+05 0.0000000000000000e+00  -1.5834497475323241e+05 7.2903159543559141e+05 0.0000000000000000e+00  -1.0198841755847733e+05 -2.2995388788340054e+05 0.0000000000000000e+00  7.8260854006484104e+05 2.3084224588668469e+05 0.0000000000000000e+00  7.2255327095071145e+05 -4.6994172232504800e+05 0.0000000000000000e+00  3.7606407564882777e+05 5.6325513354862276e+04 0.0000000000000000e+00  -1.5392572888444736e+04 -2.6992548933905683e+05 0.0000000000000000e+00  1.3960206587718235e+05 3.4294819581375970e+05 0.0000000000000000e+00  3.2105725203411246e+05 -4.0199458044353855e+05 0.0000000000000000e+00  -9.8199478806241183e+04 3.1777119633723138e+05 0.0000000000000000e+00  3.6824314259664365e+05 -2.4657959696953632e+04 0.0000000000000000e+00  2.5377729555249689e+05 2.9536987320757139e+05 0.0000000000000000e+00  8.7058014981369907e+05 8.5304731316113495e+04 0.000000000000