<?xml version="1.0"?>
<VTKFile type="UnstructuredGrid"  version="0.1"  >
<UnstructuredGrid>
<Piece  NumberOfPoints="1369" NumberOfCells="2560">
<Points>
<DataArray  type="Float64"  NumberOfComponents="3"  format="ascii">0 0 0  0.75 0 0  1.5 0 0  2.25 0 0  3 0 0  3.75 0 0  4.5 0 0  5.25 0 0  6 0 0  6.75 0 0  7.5 0 0  8.25 0 0  9 0 0  9.75 0 0  10.5 0 0  11.25 0 0  12 0 0  12.75 0 0  13.5 0 0  14.25 0 0  15 0 0  15.75 0 0  16.5 0 0  17.25 0 0  18 0 0  18.75 0 0  19.5 0 0  20.25 0 0  21 0 0  21.75 0 0  22.5 0 0  23.25 0 0  24 0 0  24.75 0 0  25.5 0 0  26.25 0 0  27 0 0  27.75 0 0  28.5 0 0  29.25 0 0  30 0 0  30.75 0 0  31.5 0 0  32.25 0 0  33 0 0  33.75 0 0  34.5 0 0  35.25 0 0  36 0 0  36.75 0 0  37.5 0 0  38.25 0 0  39 0 0  39.75 0 0  40.5 0 0  41.25 0 0  42 0 0  42.75 0 0  43.5 0 0  44.25 0 0  45 0 0  45.75 0 0  46.5 0 0  47.25 0 0  48 0 0  48.75 0 0  49.5 0 0  50.25 0 0  51 0 0  51.75 0 0  52.5 0 0  53.25 0 0  54 0 0  54.75 0 0  55.5 0 0  56.25 0 0  57 0 0  57.75 0 0  58.5 0 0  59.25 0 0  60 0 0  0 0.5 0  0.75 0.5 0  1.5 0.5 0  2.25 0.5 0  3 0.5 0  3.75 0.5 0  4.5 0.5 0  5.25 0.5 0  6 0.5 0  6.75 0.5 0  7.5 0.5 0  8.25 0.5 0  9 0.5 0  9.75 0.5 0  10.5 0.5 0  11.25 0.5 0  12 0.5 0  12.75 0.5 0  13.5 0.5 0  14.25 0.5 0  15 0.5 0  15.75 0.5 0  16.5 0.5 0  17.25 0.5 0  18 0.5 0  18.75 0.5 0  19.5 0.5 0  20.25 0.5 0  21 0.5 0  21.75 0.5 0  22.5 0.5 0  23.25 0.5 0  24 0.5 0  24.75 0.5 0  25.5 0.5 0  26.25 0.5 0  27 0.5 0  27.75 0.5 0  28.5 0.5 0  29.25 0.5 0  30 0.5 0  30.75 0.5 0  31.5 0.5 0  32.25 0.5 0  33 0.5 0  33.75 0.5 0  34.5 0.5 0  35.25 0.5 0  36 0.5 0  36.75 0.5 0  37.5 0.5 0  38.25 0.5 0  39 0.5 0  39.75 0.5 0  40.5 0.5 0  41.25 0.5 0  42 0.5 0  42.75 0.5 0  43.5 0.5 0  44.25 0.5 0  45 0.5 0  45.75 0.5 0  46.5 0.5 0  47.25 0.5 0  48 0.5 0  48.75 0.5 0  49.5 0.5 0  50.25 0.5 0  51 0.5 0  51.75 0.5 0  52.5 0.5 0  53.25 0.5 0  54 0.5 0  54.75 0.5 0  55.5 0.5 0  56.25 0.5 0  57 0.5 0  57.75 0.5 0  58.5 0.5 0  59.25 0.5 0  60 0.5 0  0 1 0  0.75 1 0  1.5 1 0  2.25 1 0  3 1 0  3.75 1 0  4.5 1 0  5.25 1 0  6 1 0  6.75 1 0  7.5 1 0  8.25 1 0  9 1 0  9.75 1 0  10.5 1 0  11.25 1 0  12 1 0  12.75 1 0  13.5 1 0  14.25 1 0  15 1 0  15.75 1 0  16.5 1 0  17.25 1 0  18 1 0  18.75 1 0  19.5 1 0  20.25 1 0  21 1 0  21.75 1 0  22.5 1 0  23.25 1 0  24 1 0  24.75 1 0  25.5 1 0  26.25 1 0  27 1 0  27.75 1 0  28.5 1 0  29.25 1 0  30 1 0  30.75 1 0  31.5 1 0  32.25 1 0  33 1 0  33.75 1 0  34.5 1 0  35.25 1 0  36 1 0  36.75 1 0  37.5 1 0  38.25 1 0  39 1 0  39.75 1 0  40.5 1 0  41.25 1 0  42 1 0  42.75 1 0  43.5 1 0  44.25 1 0  45 1 0  45.75 1 0  46.5 1 0  47.25 1 0  48 1 0  48.75 1 0  49.5 1 0  50.25 1 0  51 1 0  51.75 1 0  52.5 1 0  53.25 1 0  54 1 0  54.75 1 0  55.5 1 0  56.25 1 0  57 1 0  57.75 1 0  58.5 1 0  59.25 1 0  60 1 0  0 1.5 0  0.75 1.5 0  1.5 1.5 0  2.25 1.5 0  3 1.5 0  3.75 1.5 0  4.5 1.5 0  5.25 1.5 0  6 1.5 0  6.75 1.5 0  7.5 1.5 0  8.25 1.5 0  9 1.5 0  9.75 1.5 0  10.5 1.5 0  11.25 1.5 0  12 1.5 0  12.75 1.5 0  13.5 1.5 0  14.25 1.5 0  15 1.5 0  15.75 1.5 0  16.5 1.5 0  17.25 1.5 0  18 1.5 0  18.75 1.5 0  19.5 1.5 0  20.25 1.5 0  21 1.5 0  21.75 1.5 0  22.5 1.5 0  23.25 1.5 0  24 1.5 0  24.75 1.5 0  25.5 1.5 0  26.25 1.5 0  27 1.5 0  27.75 1.5 0  28.5 1.5 0  29.25 1.5 0  30 1.5 0  30.75 1.5 0  31.5 1.5 0  32.25 1.5 0  33 1.5 0  33.75 1.5 0  34.5 1.5 0  35.25 1.5 0  36 1.5 0  36.75 1.5 0  37.5 1.5 0  38.25 1.5 0  39 1.5 0  39.75 1.5 0  40.5 1.5 0  41.25 1.5 0  42 1.5 0  42.75 1.5 0  43.5 1.5 0  44.25 1.5 0  45 1.5 0  45.75 1.5 0  46.5 1.5 0  47.25 1.5 0  48 1.5 0  48.75 1.5 0  49.5 1.5 0  50.25 1.5 0  51 1.5 0  51.75 1.5 0  52.5 1.5 0  53.25 1.5 0  54 1.5 0  54.75 1.5 0  55.5 1.5 0  56.25 1.5 0  57 1.5 0  57.75 1.5 0  58.5 1.5 0  59.25 1.5 0  60 1.5 0  0 2 0  0.75 2 0  1.5 2 0  2.25 2 0  3 2 0  3.75 2 0  4.5 2 0  5.25 2 0  6 2 0  6.75 2 0  7.5 2 0  8.25 2 0  9 2 0  9.75 2 0  10.5 2 0  11.25 2 0  12 2 0  12.75 2 0  13.5 2 0  14.25 2 0  15 2 0  15.75 2 0  16.5 2 0  17.25 2 0  18 2 0  18.75 2 0  19.5 2 0  20.25 2 0  21 2 0  21.75 2 0  22.5 2 0  23.25 2 0  24 2 0  24.75 2 0  25.5 2 0  26.25 2 0  27 2 0  27.75 2 0  28.5 2 0  29.25 2 0  30 2 0  30.75 2 0  31.5 2 0  32.25 2 0  33 2 0  33.75 2 0  34.5 2 0  35.25 2 0  36 2 0  36.75 2 0  37.5 2 0  38.25 2 0  39 2 0  39.75 2 0  40.5 2 0  41.25 2 0  42 2 0  42.75 2 0  43.5 2 0  44.25 2 0  45 2 0  45.75 2 0  46.5 2 0  47.25 2 0  48 2 0  48.75 2 0  49.5 2 0  50.25 2 0  51 2 0  51.75 2 0  52.5 2 0  53.25 2 0  54 2 0  54.75 2 0  55.5 2 0  56.25 2 0  57 2 0  57.75 2 0  58.5 2 0  59.25 2 0  60 2 0  0 2.5 0  0.75 2.5 0  1.5 2.5 0  2.25 2.5 0  3 2.5 0  3.75 2.5 0  4.5 2.5 0  5.25 2.5 0  6 2.5 0  6.75 2.5 0  7.5 2.5 0  8.25 2.5 0  9 2.5 0  9.75 2.5 0  10.5 2.5 0  11.25 2.5 0  12 2.5 0  12.75 2.5 0  13.5 2.5 0  14.25 2.5 0  15 2.5 0  15.75 2.5 0  16.5 2.5 0  17.25 2.5 0  18 2.5 0  18.75 2.5 0  19.5 2.5 0  20.25 2.5 0  21 2.5 0  21.75 2.5 0  22.5 2.5 0  23.25 2.5 0  24 2.5 0  24.75 2.5 0  25.5 2.5 0  26.25 2.5 0  27 2.5 0  27.75 2.5 0  28.5 2.5 0  29.25 2.5 0  30 2.5 0  30.75 2.5 0  31.5 2.5 0  32.25 2.5 0  33 2.5 0  33.75 2.5 0  34.5 2.5 0  35.25 2.5 0  36 2.5 0  36.75 2.5 0  37.5 2.5 0  38.25 2.5 0  39 2.5 0  39.75 2.5 0  40.5 2.5 0  41.25 2.5 0  42 2.5 0  42.75 2.5 0  43.5 2.5 0  44.25 2.5 0  45 2.5 0  45.75 2.5 0  46.5 2.5 0  47.25 2.5 0  48 2.5 0  48.75 2.5 0  49.5 2.5 0  50.25 2.5 0  51 2.5 0  51.75 2.5 0  52.5 2.5 0  53.25 2.5 0  54 2.5 0  54.75 2.5 0  55.5 2.5 0  56.25 2.5 0  57 2.5 0  57.75 2.5 0  58.5 2.5 0  59.25 2.5 0  60 2.5 0  0 3 0  0.75 3 0  1.5 3 0  2.25 3 0  3 3 0  3.75 3 0  4.5 3 0  5.25 3 0  6 3 0  6.75 3 0  7.5 3 0  8.25 3 0  9 3 0  9.75 3 0  10.5 3 0  11.25 3 0  12 3 0  12.75 3 0  13.5 3 0  14.25 3 0  15 3 0  15.75 3 0  16.5 3 0  17.25 3 0  18 3 0  18.75 3 0  19.5 3 0  20.25 3 0  21 3 0  21.75 3 0  22.5 3 0  23.25 3 0  24 3 0  24.75 3 0  25.5 3 0  26.25 3 0  27 3 0  27.75 3 0  28.5 3 0  29.25 3 0  30 3 0  30.75 3 0  31.5 3 0  32.25 3 0  33 3 0  33.75 3 0  34.5 3 0  35.25 3 0  36 3 0  36.75 3 0  37.5 3 0  38.25 3 0  39 3 0  39.75 3 0  40.5 3 0  41.25 3 0  42 3 0  42.75 3 0  43.5 3 0  44.25 3 0  45 3 0  45.75 3 0  46.5 3 0  47.25 3 0  48 3 0  48.75 3 0  49.5 3 0  50.25 3 0  51 3 0  51.75 3 0  52.5 3 0  53.25 3 0  54 3 0  54.75 3 0  55.5 3 0  56.25 3 0  57 3 0  57.75 3 0  58.5 3 0  59.25 3 0  60 3 0  0 3.5 0  0.75 3.5 0  1.5 3.5 0  2.25 3.5 0  3 3.5 0  3.75 3.5 0  4.5 3.5 0  5.25 3.5 0  6 3.5 0  6.75 3.5 0  7.5 3.5 0  8.25 3.5 0  9 3.5 0  9.75 3.5 0  10.5 3.5 0  11.25 3.5 0  12 3.5 0  12.75 3.5 0  13.5 3.5 0  14.25 3.5 0  15 3.5 0  15.75 3.5 0  16.5 3.5 0  17.25 3.5 0  18 3.5 0  18.75 3.5 0  19.5 3.5 0  20.25 3.5 0  21 3.5 0  21.75 3.5 0  22.5 3.5 0  23.25 3.5 0  24 3.5 0  24.75 3.5 0  25.5 3.5 0  26.25 3.5 0  27 3.5 0  27.75 3.5 0  28.5 3.5 0  29.25 3.5 0  30 3.5 0  30.75 3.5 0  31.5 3.5 0  32.25 3.5 0  33 3.5 0  33.75 3.5 0  34.5 3.5 0  35.25 3.5 0  36 3.5 0  36.75 3.5 0  37.5 3.5 0  38.25 3.5 0  39 3.5 0  39.75 3.5 0  40.5 3.5 0  41.25 3.5 0  42 3.5 0  42.75 3.5 0  43.5 3.5 0  44.25 3.5 0  45 3.5 0  45.75 3.5 0  46.5 3.5 0  47.25 3.5 0  48 3.5 0  48.75 3.5 0  49.5 3.5 0  50.25 3.5 0  51 3.5 0  51.75 3.5 0  52.5 3.5 0  53.25 3.5 0  54 3.5 0  54.75 3.5 0  55.5 3.5 0  56.25 3.5 0  57 3.5 0  57.75 3.5 0  58.5 3.5 0  59.25 3.5 0  60 3.5 0  0 4 0  0.75 4 0  1.5 4 0  2.25 4 0  3 4 0  3.75 4 0  4.5 4 0  5.25 4 0  6 4 0  6.75 4 0  7.5 4 0  8.25 4 0  9 4 0  9.75 4 0  10.5 4 0  11.25 4 0  12 4 0  12.75 4 0  13.5 4 0  14.25 4 0  15 4 0  15.75 4 0  16.5 4 0  17.25 4 0  18 4 0  18.75 4 0  19.5 4 0  20.25 4 0  21 4 0  21.75 4 0  22.5 4 0  23.25 4 0  24 4 0  24.75 4 0  25.5 4 0  26.25 4 0  27 4 0  27.75 4 0  28.5 4 0  29.25 4 0  30 4 0  30.75 4 0  31.5 4 0  32.25 4 0  33 4 0  33.75 4 0  34.5 4 0  35.25 4 0  36 4 0  36.75 4 0  37.5 4 0  38.25 4 0  39 4 0  39.75 4 0  40.5 4 0  41.25 4 0  42 4 0  42.75 4 0  43.5 4 0  44.25 4 0  45 4 0  45.75 4 0  46.5 4 0  47.25 4 0  48 4 0  48.75 4 0  49.5 4 0  50.25 4 0  51 4 0  51.75 4 0  52.5 4 0  53.25 4 0  54 4 0  54.75 4 0  55.5 4 0  56.25 4 0  57 4 0  57.75 4 0  58.5 4 0  59.25 4 0  60 4 0  0.375 0.25 0  1.125 0.25 0  1.875 0.25 0  2.625 0.25 0  3.375 0.25 0  4.125 0.25 0  4.875 0.25 0  5.625 0.25 0  6.375 0.25 0  7.125 0.25 0  7.875 0.25 0  8.625 0.25 0  9.375 0.25 0  10.125 0.25 0  10.875 0.25 0  11.625 0.25 0  12.375 0.25 0  13.125 0.25 0  13.875 0.25 0  14.625 0.25 0  15.375 0.25 0  16.125 0.25 0  16.875 0.25 0  17.625 0.25 0  18.375 0.25 0  19.125 0.25 0  19.875 0.25 0  20.625 0.25 0  21.375 0.25 0  22.125 0.25 0  22.875 0.25 0  23.625 0.25 0  24.375 0.25 0  25.125 0.25 0  25.875 0.25 0  26.625 0.25 0  27.375 0.25 0  28.125 0.25 0  28.875 0.25 0  29.625 0.25 0  30.375 0.25 0  31.125 0.25 0  31.875 0.25 0  32.625 0.25 0  33.375 0.25 0  34.125 0.25 0  34.875 0.25 0  35.625 0.25 0  36.375 0.25 0  37.125 0.25 0  37.875 0.25 0  38.625 0.25 0  39.375 0.25 0  40.125 0.25 0  40.875 0.25 0  41.625 0.25 0  42.375 0.25 0  43.125 0.25 0  43.875 0.25 0  44.625 0.25 0  45.375 0.25 0  46.125 0.25 0  46.875 0.25 0  47.625 0.25 0  48.375 0.25 0  49.125 0.25 0  49.875 0.25 0  50.625 0.25 0  51.375 0.25 0  52.125 0.25 0  52.875 0.25 0  53.625 0.25 0  54.375 0.25 0  55.125 0.25 0  55.875 0.25 0  56.625 0.25 0  57.375 0.25 0  58.125 0.25 0  58.875 0.25 0  59.625 0.25 0  0.375 0.75 0  1.125 0.75 0  1.875 0.75 0  2.625 0.75 0  3.375 0.75 0  4.125 0.75 0  4.875 0.75 0  5.625 0.75 0  6.375 0.75 0  7.125 0.75 0  7.875 0.75 0  8.625 0.75 0  9.375 0.75 0  10.125 0.75 0  10.875 0.75 0  11.625 0.75 0  12.375 0.75 0  13.125 0.75 0  13.875 0.75 0  14.625 0.75 0  15.375 0.75 0  16.125 0.75 0  16.875 0.75 0  17.625 0.75 0  18.375 0.75 0  19.125 0.75 0  19.875 0.75 0  20.625 0.75 0  21.375 0.75 0  22.125 0.75 0  22.875 0.75 0  23.625 0.75 0  24.375 0.75 0  25.125 0.75 0  25.875 0.75 0  26.625 0.75 0  27.375 0.75 0  28.125 0.75 0  28.875 0.75 0  29.625 0.75 0  30.375 0.75 0  31.125 0.75 0  31.875 0.75 0  32.625 0.75 0  33.375 0.75 0  34.125 0.75 0  34.875 0.75 0  35.625 0.75 0  36.375 0.75 0  37.125 0.75 0  37.875 0.75 0  38.625 0.75 0  39.375 0.75 0  40.125 0.75 0  40
[...]
<PointData  Vectors="f_8-0"> 
<DataArray  type="Float64"  Name="f_8-0"  NumberOfComponents="3" format="ascii">1.1285569949986159e-10 -6.4144795842430469e-11 0.0000000000000000e+00  0.0000000000000000e+00 0.0000000000000000e+00 0.0000000000000000e+00  0.0000000000000000e+00 0.0000000000000000e+00 0.0000000000000000e+00  2.2416363929979126e-09 1.4065052841435450e-08 0.0000000000000000e+00  5.7587465105870643e-10 1.3237872545146550e-09 0.0000000000000000e+00  -1.2986851132206645e-07 2.1312033312920866e-07 0.0000000000000000e+00  0.0000000000000000e+00 0.0000000000000000e+00 0.0000000000000000e+00  0.0000000000000000e+00 0.0000000000000000e+00 0.0000000000000000e+00  0.0000000000000000e+00 0.0000000000000000e+00 0.0000000000000000e+00  0.0000000000000000e+00 0.0000000000000000e+00 0.0000000000000000e+00  3.8978121034003902e-08 5.0647539180182657e-10 0.0000000000000000e+00  6.3256256853934145e-08 1.6669345051494381e-08 0.0000000000000000e+00  -3.7737374600559061e-08 1.5710726847710649e-08 0.0000000000000000e+00  2.2671238094342078e-09 3.8654939550307699e-09 0.0000000000000000e+00  -7.2566961177247575e-10 -7.5508887856611105e-10 0.0000000000000000e+00  -4.9378008593514712e-08 -3.0629553308426634e-09 0.0000000000000000e+00  0.0000000000000000e+00 -9.0420872468925915e-09 0.0000000000000000e+00  2.8661728593466175e-08 5.8696014771933077e-08 0.0000000000000000e+00  0.0000000000000000e+00 0.0000000000000000e+00 0.0000000000000000e+00  -1.0331199453358065e-08 6.3785827336877557e-09 0.0000000000000000e+00  0.0000000000000000e+00 -5.1047731126981425e-10 0.0000000000000000e+00  -6.2311864916514882e-09 7.5207781580793208e-09 0.0000000000000000e+00  0.0000000000000000e+00 3.1175604636440917e-11 0.0000000000000000e+00  -2.4191788955750461e-09 0.0000000000000000e+00 0.0000000000000000e+00  0.0000000000000000e+00 0.0000000000000000e+00 0.0000000000000000e+00  7.4078129251964029e-09 1.7362179844310185e-09 0.0000000000000000e+00  3.2332615223606285e-09 4.8535977941675545e-09 0.0000000000000000e+00  0.0000000000000000e+00 0.0000000000000000e+00 0.0000000000000000e+00  -7.9730670838654310e-10 5.0271935892039718e-09 0.0000000000000000e+00  2.6409428269412616e-09 -2.9855786087872653e-09 0.0000000000000000e+00  0.0000000000000000e+00 0.0000000000000000e+00 0.0000000000000000e+00  5.1280578479033642e-09 4.0500825524273455e-09 0.0000000000000000e+00  0.0000000000000000e+00 0.0000000000000000e+00 0.0000000000000000e+00  2.0159821069890454e-08 6.7050298079596363e-09 0.0000000000000000e+00  -3.2413452845688123e-08 7.5494363985435720e-09 0.0000000000000000e+00  1.9301020712326864e-10 -3.2844365181710713e-10 0.0000000000000000e+00  0.0000000000000000e+00 0.0000000000000000e+00 0.0000000000000000e+00  -3.3362393455284352e-09 -2.9925342359012818e-08 0.0000000000000000e+00  -2.9877008202097223e-08 1.6636462185473739e-09 0.0000000000000000e+00  -5.0537595456299096e-08 -2.2557746866215852e-08 0.0000000000000000e+00  0.0000000000000000e+00 2.0149429965541927e-10 0.0000000000000000e+00  -7.0627505846339919e-09 -5.8978907748466620e-10 0.0000000000000000e+00  1.2897587673222348e-10 -7.9485194770296194e-10 0.0000000000000000e+00  -1.5200269243916896e-11 1.9143893983155632e-09 0.0000000000000000e+00  0.0000000000000000e+00 0.0000000000000000e+00 0.0000000000000000e+00  2.8937384520852300e-09 4.1390169748432905e-09 0.0000000000000000e+00  -1.0830641344163200e-09 9.9366659356273069e-09 0.0000000000000000e+00  -2.9573146481594148e-08 -1.7220423876104047e-09 0.0000000000000000e+00  5.2997063358613380e-10 -4.4537041717044714e-10 0.0000000000000000e+00  -1.1570942801364323e-09 3.4730633626901457e-09 0.0000000000000000e+00  -7.9662115690648222e-10 -1.6063398295609467e-09 0.0000000000000000e+00  -7.5923224270770824e-10 -9.2210651125185359e-10 0.0000000000000000e+00  -1.5731746607362196e-09 -7.0379577463852204e-09 0.0000000000000000e+00  -3.0744344853056104e-08 2.2799404735336338e-09 0.0000000000000000e+00  0.0000000000000000e+00 0.0000000000000000e+00 0.0000000000000000e+00  0.0000000000000000e+00 -1.2716024434302931e-10 0.0000000000000000e+00  0.0000000000000000e+00 0.0000000000000000e+00 0.0000000000000000e+00  0.0000000000000000e+00 0.0000000000000000e+00 0.0000000000000000e+00  -1.3252511339529139e-08 -1.0003312089594441e-08 0.0000000000000000e+00  0.0000000000000000e+00 -1.2261802974297193e-10 0.0000000000000000e+00  3.4810608701845079e-09 1.0931566543580327e-08 0.0000000000000000e+00  -1.3733298567396838e-09 1.1549455383642102e-09 0.0000000000000000e+00  0.0000000000000000e+00 0.0000000000000000e+00 0.0000000000000000e+00  0.0000000000000000e+00 0.0000000000000000e+00 0.0000000000000000e+00  3.2334617955661058e-09 0.0000000000000000e+00 0.0000000000000000e+00  -1.6289451459652106e-08 -2.5719115590328396e-08 0.0000000000000000e+00  -6.8177734674391602e-09 -7.7422447520624146e-09 0.0000000000000000e+00  1.0376114139451901e-08 2.0713377386326037e-09 0.0000000000000000e+00  0.0000000000000000e+00 -4.8210078089601368e-09 0.0000000000000000e+00  2.6444247190007229e-08 4.3931084200457830e-08 0.0000000000000000e+00  2.8358184193207981e-09 6.6224395511797506e-09 0.0000000000000000e+00  0.0000000000000000e+00 0.0000000000000000e+00 0.0000000000000000e+00  0.0000000000000000e+00 0.0000000000000000e+00 0.0000000000000000e+00  -1.0100825352253892e-08 -1.6698699825018494e-08 0.0000000000000000e+00  -9.1058851594283562e-10 -1.3281681919904706e-08 0.0000000000000000e+00  4.9564375671649690e-08 1.8438033852097443e-08 0.0000000000000000e+00  4.5275207925913109e-09 3.6577427129666896e-09 0.0000000000000000e+00  -2.0498871646076759e-10 2.4283617847246184e-09 0.0000000000000000e+00  5.9477559593994217e-09 -2.3679436500234663e-10 0.0000000000000000e+00  -4.9684284885476387e-11 1.4763787459755592e-10 0.0000000000000000e+00  0.0000000000000000e+00 8.0104274207319471e-12 0.0000000000000000e+00  -4.7107012122004584e+05 0.0000000000000000e+00 0.0000000000000000e+00  1.1606024354613584e+05 2.0425785211453098e+05 0.0000000000000000e+00  -1.2942555439641226e+04 8.8714293463889754e+05 0.0000000000000000e+00  9.2949597420100690e+04 -9.7766450431255216e+05 0.0000000000000000e+00  -2.0193782862931334e+04 -9.4517306831614033e+05 0.0000000000000000e+00  1.4320582719857134e+06 -8.4768431186146499e+05 0.0000000000000000e+00  3.9948113090238691e+05 -3.8062488147139124e+05 0.0000000000000000e+00  3.0456007806302758e+05 6.1316503551329346e+05 0.0000000000000000e+00  1.5097161317200161e+05 1.7158743326791816e+06 0.0000000000000000e+00  1.6882479395250245e+06 5.5575673995798035e+05 0.0000000000000000e+00  6.6169332507768623e+05 -4.4178566868703207e+05 0.0000000000000000e+00  8.0065905287409201e+05 2.4057596474748984e+05 0.0000000000000000e+00  3.3015322280589159e+05 3.6955780461471708e+05 0.0000000000000000e+00  2.1355821598272325e+05 1.9492925795890309e+05 0.0000000000000000e+00  3.6020369590759336e+04 1.3947170933708647e+05 0.0000000000000000e+00  -1.2614147814408941e+05 3.5516548760853347e+05 0.0000000000000000e+00  5.0353692979916593e+05 1.4108674629944458e+06 0.0000000000000000e+00  -3.8316626591636025e+05 -3.6650055051310948e+05 0.0000000000000000e+00  -7.7218291804538458e+05 -4.6543735138061311e+05 0.0000000000000000e+00  -2.2847076201573544e+05 -7.7534673091765062e+05 0.0000000000000000e+00  -4.1977082137359386e+04 -3.9400275833775615e+05 0.0000000000000000e+00  5.0024408051645756e+05 3.7680673401943606e+05 0.0000000000000000e+00  3.2241602427470742e+05 6.6185007608355570e+05 0.0000000000000000e+00  4.9326421224730503e+05 -2.9054912463518057e+05 0.0000000000000000e+00  2.7222797303800879e+05 6.7967797859412443e+04 0.0000000000000000e+00  -7.7180394641810426e+03 -5.6515587680580886e+05 0.0000000000000000e+00  -1.3318448920608644e+05 3.3768377346864907e+05 0.0000000000000000e+00  -3.9966807582452369e+05 2.5418991593473143e+05 0.0000000000000000e+00  -5.9003390181053849e+05 2.7161242950425862e+05 0.0000000000000000e+00  1.1045311133645748e+05 1.8757453878841223e+05 0.0000000000000000e+00  -2.4444827575907260e+05 -8.0033152039424924e+04 0.0000000000000000e+00  -2.8627944635191292e+05 -3.0896225820530701e+04 0.0000000000000000e+00  1.4658488410888085e+05 1.8378725720704275e+04 0.0000000000000000e+00  6.3471353348673758e+04 5.4446519834995782e+05 0.0000000000000000e+00  2.0920655601578433e+05 3.2663396179953445e+05 0.0000000000000000e+00  5.6841889167162801e+04 3.7471859827725816e+05 0.0000000000000000e+00  -5.5237245264781384e+04 1.4519666737287634e+05 0.0000000000000000e+00  3.2468995462249435e+05 -6.2435120140728914e+03 0.0000000000000000e+00  -2.1982169648621068e+05 3.2303912393859436e+05 0.0000000000000000e+00  2.2966618980227481e+05 3.4691545740501804e+05 0.0000000000000000e+00  -1.1907428452341039e+05 8.5891524797302001e+04 0.0000000000000000e+00  -3.9209585934105598e+04 -4.8612934808783192e+05 0.0000000000000000e+00  1.0336259268486289e+05 2.9383265272559522e+05 0.0000000000000000e+00  -2.3498230237590519e+05 1.2853190151308091e+05 0.0000000000000000e+00  1.0703071035378589e+05 4.3814016239198053e+05 0.0000000000000000e+00  4.0983796931313904e+04 5.5443507280609447e+04 0.0000000000000000e+00  -1.5540589852976773e+05 3.0597954727220960e+05 0.0000000000000000e+00  1.4698632472277756e+05 2.0480021841356178e+04 0.0000000000000000e+00  -2.8280200076748163e+05 2.2981520099193411e+04 0.0000000000000000e+00  1.1095095523630035e+05 -2.1716246377773953e+05 0.0000000000000000e+00  2.7724839446983871e+05 2.8353228973841033e+05 0.0000000000000000e+00  6.1757882185039599e+05 -2.1337690978553132e+05 0.0000000000000000e+00  -3.5937154890151107e+05 -2.2416151515352112e+05 0.0000000000000000e+00  -1.3027609878767494e+05 1.0511150514262047e+05 0.0000000000000000e+00  -1.2920994451506695e+05 1.4437761400083994e+05 0.0000000000000000e+00  6.7734243721583392e+04 1.5311537860274973e+05 0.0000000000000000e+00  -1.0237587713377613e+05 -6.0028074189873680e+05 0.0000000000000000e+00  -2.4674586932057256e+05 -1.5180739467367099e+05 0.0000000000000000e+00  -3.7410080701308721e+05 -3.5363381423265826e+04 0.0000000000000000e+00  -3.7192476508115949e+04 -8.8691587111995017e+04 0.0000000000000000e+00  2.3960715379367204e+05 -2.7495957873025682e+05 0.0000000000000000e+00  -1.8495668088677016e+05 -2.5208587466158453e+05 0.0000000000000000e+00  1.1125189244596002e+05 -4.0274702629237133e+05 0.0000000000000000e+00  -2.5397017165451747e+05 5.0901639487244847e+05 0.0000000000000000e+00  -1.1872555360574645e+05 -1.7082470225699275e+05 0.0000000000000000e+00  7.2732291541028454e+05 7.1001791277169483e+04 0.0000000000000000e+00  5.2470264077403129e+05 2.6443784322644380e+05 0.0000000000000000e+00  -6.0586202263039630e+05 2.7808222164626472e+05 0.0000000000000000e+00  -2.7406822959848930e+05 -2.0128693451547177e+05 0.0000000000000000e+00  5.8528780814638373e+05 1.8076248544855663e+05 0.0000000000000000e+00  4.8519828304054955e+05 -3.4369165472876695e+04 0.0000000000000000e+00  1.9095024858953047e+05 9.3036327710155092e+04 0.0000000000000000e+00  1.2116957845904514e+05 -2.5391069765581706e+05 0.0000000000000000e+00  9.5150137940978690e+04 4.5263302128657111e+05 0.0000000000000000e+00  -1.6225772643871469e+05 -7.3465997556799615e+04 0.0000000000000000e+00  2.5796152622610080e+03 -2.5397608828181555e+05 0.0000000000000000e+00  -2.8410592794087320e+05 2.9047644150601096e+04 0.0000000000000000e+00  -3.6457747201403021e+05 1.2512957236409684e+05 0.0000000000000000e+00  1.7683758142982420e+05 2.7822070831100055e+05 0.0000000000000000e+00  1.7384231722199268e+05 -8.6606855371648257e+04 0.0000000000000000e+00  -8.0398568204125331e+04 2.9520424625127328e-11 0.0000000000000000e+00  2.8548315776187181e+05 4.3282020250989909e-11 0.0000000000000000e+00  -1.4187644852993791e+06 -6.5585261446825671e+05 0.0000000000000000e+00  9.7001704911155289e+05 -3.2057595886968990e+05 0.0000000000000000e+00  3.3923480281143123e+05 -1.1643016055703720e+06 0.0000000000000000e+00  1.5788583816825175e+06 -1.0191385876681284e+06 0.0000000000000000e+00  1.0394603547793439e+06 -7.7668474796751761e+04 0.0000000000000000e+00  6.6156541653727822e+05 6.0074966679178855e+04 0.0000000000000000e+00  -4.1119636643307051e+05 2.7245353669805720e+05 0.0000000000000000e+00  2.8033119948133960e+05 7.0830314332873689e+05 0.0000000000000000e+00  -1.2444430104268152e+05 9.0105626889519382e+05 0.0000000000000000e+00  1.0229879647000137e+06 -1.1091889634262693e+05 0.0000000000000000e+00  3.0199172130674444e+05 1.0069711146914469e+05 0.0000000000000000e+00  9.9708808006136119e+05 1.1805272749645149e+06 0.0000000000000000e+00  2.3170630452159475e+05 -2.8253280713900999e+05 0.0000000000000000e+00  1.1966297570347419e+05 -4.5850530142513908e+03 0.0000000000000000e+00  1.2140667524481232e+06 1.1000372065074099e+06 0.0000000000000000e+00  -1.1656840154729406e+06 5.5770437898396165e+05 0.0000000000000000e+00  -8.0571577502377471e+05 1.0136734748423293e+05 0.0000000000000000e+00  -4.1144314987493702e+05 -8.0325956756328605e+05 0.0000000000000000e+00  4.6509248061555630e+05 3.4225309772534244e+05 0.0000000000000000e+00  3.1752863365475030e+05 -1.2062245828164478e+05 0.0000000000000000e+00  2.2145440712587882e+05 6.5400871482964489e+04 0.0000000000000000e+00  2.7829174213894550e+05 4.3648763506051846e+05 0.0000000000000000e+00  2.1282427270315980e+05 -8.9458658881129522e+04 0.0000000000000000e+00  1.7235701650728221e+05 -1.0381103513091720e+05 0.0000000000000000e+00  5.0924904139990162e+05 1.0255873505997731e+05 0.0000000000000000e+00  -2.4112261764124985e+05 5.1904352190891042e+05 0.0000000000000000e+00  -3.5371093393272621e+05 -1.2373567075889728e+05 0.0000000000000000e+00  -1.4795714027221172e+05 -3.0378412768639997e+05 0.0000000000000000e+00  -2.9931271031655913e+05 -2.3963694209141412e+05 0.0000000000000000e+00  2.1958648104485517e+05 2.4873616403744594e+05 0.0000000000000000e+00  1.9408955768210240e+05 2.4119280832850261e+05 0.0000000000000000e+00  6.4848011293933098e+05 -6.9517785356232047e+05 0.0000000000000000e+00  3.6333137579028372e+05 -3.3385509418169182e+05 0.0000000000000000e+00  6.0930342524378619e+05 -2.9185850333299901e+05 0.0000000000000000e+00  1.6513638492674602e+05 3.2666962521436310e+05 0.0000000000000000e+00  2.0757645353327293e+05 3.1727685913590260e+05 0.0000000000000000e+00  3.4608165502173229e+04 -7.4858295337155068e+04 0.0000000000000000e+00  3.5722732552956505e+05 4.1414601072744379e+04 0.0000000000000000e+00  2.7692642089750088e+05 8.7992796449910372e+05 0.0000000000000000e+00  4.1355685881250323e+05 1.6888736369599582e+05 0.0000000000000000e+00  3.8340391034399759e+05 3.5183009722982737e+05 0.0000000000000000e+00  -3.8092204158363974e+05 1.9507344462552061e+05 0.0000000000000000e+00  -1.8785124778303254e+05 1.5735184397980298e+04 0.0000000000000000e+00  1.9320332696870685e+05 5.3808627457350754e+04 0.0000000000000000e+00  2.5205796000183886e+05 2.7470752875652094e+05 0.0000000000000000e+00  2.5902039171294746e+04 -4.6048420829462254e+05 0.0000000000000000e+00  -2.3407179036916298e+05 3.7655349321183842e+05 0.0000000000000000e+00  3.0932308319143008e+05 -2.6153828657426575e+05 0.0000000000000000e+00  2.2327163015092906e+05 1.9009374886985050e+05 0.0000000000000000e+00  2.7316453787107742e+05 9.7469761884569001e+04 0.0000000000000000e+00  5.4416445842703048e+04 -2.8589076666404441e+05 0.0000000000000000e+00  -1.2164474286303576e+05 1.5971649650464303e+05 0.0000000000000000e+00  -5.4182287729185738e+05 2.2073323093741472e+05 0.0000000000000000e+00  -5.5844533671105884e+04 1.0787837856816202e+05 0.0000000000000000e+00  -3.3506532920204598e+05 -2.9777592408295092e+05 0.0000000000000000e+00  8.4436745099294887e+04 2.6506977626271709e+05 0.0000000000000000e+00  1.1685146223369961e+05 -3.4531843320974521e+05 0.0000000000000000e+00  -1.7707499276858396e+05 9.0160261421300709e+02 0.0000000000000000e+00  2.5593874479796304e+05 -5.7490397038387333e+05 0.0000000000000000e+00  -2.8987362659769173e+05 5.7434330615518172e+05 0.0000000000000000e+00  4.0845324981391779e+05 -1.4476351314849709e+05 0.0000000000000000e+00  2.4821517853959900e+05 -1.1984442261530992e+05 0.0000000000000000e+00  4.0213389738408831e+05 -1.7431727122315657e+05 0.0000000000000000e+00  1.9422027036603572e+05 -6.6042256962090777e+05 0.0000000000000000e+00  5.9709137007178128e+04 -8.2492119885186257e+05 0.0000000000000000e+00  3.9682682631695725e+05 1.3805122100816836e+05 0.0000000000000000e+00  7.6275464216784132e+05 1.1624217768812399e+05 0.0000000000000000e+00  -9.6429989231603802e+05 -2.8370078673149378e+05 0.0000000000000000e+00  4.9322266334120417e+04 -2.8376804562627024e+05 0.0000000000000000e+00  -3.2792869199617155e+05 9.1921149817772326e+04 0.0000000000000000e+00  6.8815430537823541e+05 -4.0168426478630153e+05 0.0000000000000000e+00  -1.8903923459628932e+05 1.9600209483331282e+05 0.0000000000000000e+00  -1.8157512386961526e+05 -1.8349427648834631e+05 0.0000000000000000e+00  -4.8976867017383274e+05 -4.1365624120359280e+04 0.0000000000000000e+00  4.5941700012978824e+05 -1.3089424857756932e+05 0.0000000000000000e+00  -4.1791262042857317e+05 -2.3570813595923065e+05 0.0000000000000000e+00  -5.2877628615054316e+04 -2.0810634193838423e+05 0.0000000000000000e+00  7.1816983623151784e+04 2.1540886416483045e+05 0.0000000000000000e+00  6.0319412602139062e+04 2.6629846462693322e+05 0.0000000000000000e+00  8.5799592613393484e+04 2.7380063303317092e-11 0.0000000000000000e+00  -3.1472551759748859e+05 1.4207696214926183e-09 0.0000000000000000e+00  -7.0993905516498140e+05 -1.2567218067327826e+06 0.0000000000000000e+00  -1.2505393899038548e+06 -3.7921139650915306e+04 0.0000000000000000e+00  2.1193170019542454e+06 -1.0123172905459892e+06 0.0000000000000000e+00  -3.4790346257200738e+05 -7.1682725144141400e+05 0.0000000000000000e+00  4.1262904101405182e+05 -1.0951001117187894e+06 0.0000000000000000e+00  5.1861025695118541e+05 -6.5331280382791278e+05 0.0000000000000000e+00  2.0805998013592017e+05 -3.3112007635560381e+04 0.0000000000000000e+00  9.2438456138229300e+05 3.0759251277957414e+05 0.0000000000000000e+00  6.8975295966811955e+05 6.9408498188338452e+05 0.0000000000000000e+00  -6.0546649492793682e+05 -3.1947770391036780e+05 0.0000000000000000e+00  2.5901375607444055e+05 -8.5796220909194741e+05 0.0000000000000000e+00  6.9811900338562846e+05 5.8355828144045861e+05 0.0000000000000000e+00  3.5394151470727084e+05 1.6021461122296235e+05 0.0000000000000000e+00  1.9951502093708285e+05 -8.7280551898724237e+05 0.0000000000000000e+00  1.7650033683161600e+05 -4.6843390189216261e+03 0.0000000000000000e+00  2.8403983736321115e+05 6.3782639074793970e+05 0.0000000000000000e+00  -3.1033528107451409e+05 -3.5591655731115304e+05 0.0000000000000000e+00  1.4793671278550953e+05 -9.9137604803980957e+05 0.0000000000000000e+00  3.6191187012425065e+05 3.3040554770595190e+05 0.0000000000000000e+00  1.1948740281925609e+05 -1.7645634800220115e+05 0.0000000000000000e+00  -1.4557590230993580e+05 -1.8244283020865583e+05 0.0000000000000000e+00  2.2139341732273577e+05 -4.6145770170631440e+04 0.0000000000000000e+00  1.1780928582007140e+05 1.3239745127701736e+05 0.0000000000000000e+00  6.2857502123308752e+05 -5.8009381587937544e+05 0.0000000000000000e+00  2.3221467227324136e+05 -5.1216389470659295e+05 0.0000000000000000e+00  -2.6219790630277176e+05 7.4267079032574676e+05 0.0000000000000000e+00  -8.5371824448217303e+04 -6.7995338632651721e+04 0.0000000000000000e+00  7.7567326714966772e+05 3.9219845806338690e+05 0.0000000000000000e+00  5.4394612760665780e+05 -3.4777670564242837e+05 0.0000000000000000e+00  3.1270149995191029e+05 4.8014214392119116e+04 0.0000000000000000e+00  1.3333933700614891e+05 -2.0085011348155836e+05 0.0000000000000000e+00  8.5903870406919290e+04 2.8386571891240269e+05 0.0000000000000000e+00  1.2393229471456051e+05 -1.8378080323873792e+05 0.0000000000000000e+00  1.9469890570092666e+04 3.9198940885862480e+03 0.0000000000000000e+00  2.2071642912431312e+05 9.3179296293099469e+04 0.0000000000000000e+00  3.8289610611189906e+04 4.4951603402900713e+05 0.0000000000000000e+00  5.8166772064371570e+05 1.0603598479561121e+05 0.0000000000000000e+00  3.