<?xml version="1.0"?>
<VTKFile type="UnstructuredGrid"  version="0.1"  >
<UnstructuredGrid>
<Piece  NumberOfPoints="1369" NumberOfCells="2560">
<Points>
<DataArray  type="Float64"  NumberOfComponents="3"  format="ascii">0 0 0  0.75 0 0  1.5 0 0  2.25 0 0  3 0 0  3.75 0 0  4.5 0 0  5.25 0 0  6 0 0  6.75 0 0  7.5 0 0  8.25 0 0  9 0 0  9.75 0 0  10.5 0 0  11.25 0 0  12 0 0  12.75 0 0  13.5 0 0  14.25 0 0  15 0 0  15.75 0 0  16.5 0 0  17.25 0 0  18 0 0  18.75 0 0  19.5 0 0  20.25 0 0  21 0 0  21.75 0 0  22.5 0 0  23.25 0 0  24 0 0  24.75 0 0  25.5 0 0  26.25 0 0  27 0 0  27.75 0 0  28.5 0 0  29.25 0 0  30 0 0  30.75 0 0  31.5 0 0  32.25 0 0  33 0 0  33.75 0 0  34.5 0 0  35.25 0 0  36 0 0  36.75 0 0  37.5 0 0  38.25 0 0  39 0 0  39.75 0 0  40.5 0 0  41.25 0 0  42 0 0  42.75 0 0  43.5 0 0  44.25 0 0  45 0 0  45.75 0 0  46.5 0 0  47.25 0 0  48 0 0  48.75 0 0  49.5 0 0  50.25 0 0  51 0 0  51.75 0 0  52.5 0 0  53.25 0 0  54 0 0  54.75 0 0  55.5 0 0  56.25 0 0  57 0 0  57.75 0 0  58.5 0 0  59.25 0 0  60 0 0  0 0.5 0  0.75 0.5 0  1.5 0.5 0  2.25 0.5 0  3 0.5 0  3.75 0.5 0  4.5 0.5 0  5.25 0.5 0  6 0.5 0  6.75 0.5 0  7.5 0.5 0  8.25 0.5 0  9 0.5 0  9.75 0.5 0  10.5 0.5 0  11.25 0.5 0  12 0.5 0  12.75 0.5 0  13.5 0.5 0  14.25 0.5 0  15 0.5 0  15.75 0.5 0  16.5 0.5 0  17.25 0.5 0  18 0.5 0  18.75 0.5 0  19.5 0.5 0  20.25 0.5 0  21 0.5 0  21.75 0.5 0  22.5 0.5 0  23.25 0.5 0  24 0.5 0  24.75 0.5 0  25.5 0.5 0  26.25 0.5 0  27 0.5 0  27.75 0.5 0  28.5 0.5 0  29.25 0.5 0  30 0.5 0  30.75 0.5 0  31.5 0.5 0  32.25 0.5 0  33 0.5 0  33.75 0.5 0  34.5 0.5 0  35.25 0.5 0  36 0.5 0  36.75 0.5 0  37.5 0.5 0  38.25 0.5 0  39 0.5 0  39.75 0.5 0  40.5 0.5 0  41.25 0.5 0  42 0.5 0  42.75 0.5 0  43.5 0.5 0  44.25 0.5 0  45 0.5 0  45.75 0.5 0  46.5 0.5 0  47.25 0.5 0  48 0.5 0  48.75 0.5 0  49.5 0.5 0  50.25 0.5 0  51 0.5 0  51.75 0.5 0  52.5 0.5 0  53.25 0.5 0  54 0.5 0  54.75 0.5 0  55.5 0.5 0  56.25 0.5 0  57 0.5 0  57.75 0.5 0  58.5 0.5 0  59.25 0.5 0  60 0.5 0  0 1 0  0.75 1 0  1.5 1 0  2.25 1 0  3 1 0  3.75 1 0  4.5 1 0  5.25 1 0  6 1 0  6.75 1 0  7.5 1 0  8.25 1 0  9 1 0  9.75 1 0  10.5 1 0  11.25 1 0  12 1 0  12.75 1 0  13.5 1 0  14.25 1 0  15 1 0  15.75 1 0  16.5 1 0  17.25 1 0  18 1 0  18.75 1 0  19.5 1 0  20.25 1 0  21 1 0  21.75 1 0  22.5 1 0  23.25 1 0  24 1 0  24.75 1 0  25.5 1 0  26.25 1 0  27 1 0  27.75 1 0  28.5 1 0  29.25 1 0  30 1 0  30.75 1 0  31.5 1 0  32.25 1 0  33 1 0  33.75 1 0  34.5 1 0  35.25 1 0  36 1 0  36.75 1 0  37.5 1 0  38.25 1 0  39 1 0  39.75 1 0  40.5 1 0  41.25 1 0  42 1 0  42.75 1 0  43.5 1 0  44.25 1 0  45 1 0  45.75 1 0  46.5 1 0  47.25 1 0  48 1 0  48.75 1 0  49.5 1 0  50.25 1 0  51 1 0  51.75 1 0  52.5 1 0  53.25 1 0  54 1 0  54.75 1 0  55.5 1 0  56.25 1 0  57 1 0  57.75 1 0  58.5 1 0  59.25 1 0  60 1 0  0 1.5 0  0.75 1.5 0  1.5 1.5 0  2.25 1.5 0  3 1.5 0  3.75 1.5 0  4.5 1.5 0  5.25 1.5 0  6 1.5 0  6.75 1.5 0  7.5 1.5 0  8.25 1.5 0  9 1.5 0  9.75 1.5 0  10.5 1.5 0  11.25 1.5 0  12 1.5 0  12.75 1.5 0  13.5 1.5 0  14.25 1.5 0  15 1.5 0  15.75 1.5 0  16.5 1.5 0  17.25 1.5 0  18 1.5 0  18.75 1.5 0  19.5 1.5 0  20.25 1.5 0  21 1.5 0  21.75 1.5 0  22.5 1.5 0  23.25 1.5 0  24 1.5 0  24.75 1.5 0  25.5 1.5 0  26.25 1.5 0  27 1.5 0  27.75 1.5 0  28.5 1.5 0  29.25 1.5 0  30 1.5 0  30.75 1.5 0  31.5 1.5 0  32.25 1.5 0  33 1.5 0  33.75 1.5 0  34.5 1.5 0  35.25 1.5 0  36 1.5 0  36.75 1.5 0  37.5 1.5 0  38.25 1.5 0  39 1.5 0  39.75 1.5 0  40.5 1.5 0  41.25 1.5 0  42 1.5 0  42.75 1.5 0  43.5 1.5 0  44.25 1.5 0  45 1.5 0  45.75 1.5 0  46.5 1.5 0  47.25 1.5 0  48 1.5 0  48.75 1.5 0  49.5 1.5 0  50.25 1.5 0  51 1.5 0  51.75 1.5 0  52.5 1.5 0  53.25 1.5 0  54 1.5 0  54.75 1.5 0  55.5 1.5 0  56.25 1.5 0  57 1.5 0  57.75 1.5 0  58.5 1.5 0  59.25 1.5 0  60 1.5 0  0 2 0  0.75 2 0  1.5 2 0  2.25 2 0  3 2 0  3.75 2 0  4.5 2 0  5.25 2 0  6 2 0  6.75 2 0  7.5 2 0  8.25 2 0  9 2 0  9.75 2 0  10.5 2 0  11.25 2 0  12 2 0  12.75 2 0  13.5 2 0  14.25 2 0  15 2 0  15.75 2 0  16.5 2 0  17.25 2 0  18 2 0  18.75 2 0  19.5 2 0  20.25 2 0  21 2 0  21.75 2 0  22.5 2 0  23.25 2 0  24 2 0  24.75 2 0  25.5 2 0  26.25 2 0  27 2 0  27.75 2 0  28.5 2 0  29.25 2 0  30 2 0  30.75 2 0  31.5 2 0  32.25 2 0  33 2 0  33.75 2 0  34.5 2 0  35.25 2 0  36 2 0  36.75 2 0  37.5 2 0  38.25 2 0  39 2 0  39.75 2 0  40.5 2 0  41.25 2 0  42 2 0  42.75 2 0  43.5 2 0  44.25 2 0  45 2 0  45.75 2 0  46.5 2 0  47.25 2 0  48 2 0  48.75 2 0  49.5 2 0  50.25 2 0  51 2 0  51.75 2 0  52.5 2 0  53.25 2 0  54 2 0  54.75 2 0  55.5 2 0  56.25 2 0  57 2 0  57.75 2 0  58.5 2 0  59.25 2 0  60 2 0  0 2.5 0  0.75 2.5 0  1.5 2.5 0  2.25 2.5 0  3 2.5 0  3.75 2.5 0  4.5 2.5 0  5.25 2.5 0  6 2.5 0  6.75 2.5 0  7.5 2.5 0  8.25 2.5 0  9 2.5 0  9.75 2.5 0  10.5 2.5 0  11.25 2.5 0  12 2.5 0  12.75 2.5 0  13.5 2.5 0  14.25 2.5 0  15 2.5 0  15.75 2.5 0  16.5 2.5 0  17.25 2.5 0  18 2.5 0  18.75 2.5 0  19.5 2.5 0  20.25 2.5 0  21 2.5 0  21.75 2.5 0  22.5 2.5 0  23.25 2.5 0  24 2.5 0  24.75 2.5 0  25.5 2.5 0  26.25 2.5 0  27 2.5 0  27.75 2.5 0  28.5 2.5 0  29.25 2.5 0  30 2.5 0  30.75 2.5 0  31.5 2.5 0  32.25 2.5 0  33 2.5 0  33.75 2.5 0  34.5 2.5 0  35.25 2.5 0  36 2.5 0  36.75 2.5 0  37.5 2.5 0  38.25 2.5 0  39 2.5 0  39.75 2.5 0  40.5 2.5 0  41.25 2.5 0  42 2.5 0  42.75 2.5 0  43.5 2.5 0  44.25 2.5 0  45 2.5 0  45.75 2.5 0  46.5 2.5 0  47.25 2.5 0  48 2.5 0  48.75 2.5 0  49.5 2.5 0  50.25 2.5 0  51 2.5 0  51.75 2.5 0  52.5 2.5 0  53.25 2.5 0  54 2.5 0  54.75 2.5 0  55.5 2.5 0  56.25 2.5 0  57 2.5 0  57.75 2.5 0  58.5 2.5 0  59.25 2.5 0  60 2.5 0  0 3 0  0.75 3 0  1.5 3 0  2.25 3 0  3 3 0  3.75 3 0  4.5 3 0  5.25 3 0  6 3 0  6.75 3 0  7.5 3 0  8.25 3 0  9 3 0  9.75 3 0  10.5 3 0  11.25 3 0  12 3 0  12.75 3 0  13.5 3 0  14.25 3 0  15 3 0  15.75 3 0  16.5 3 0  17.25 3 0  18 3 0  18.75 3 0  19.5 3 0  20.25 3 0  21 3 0  21.75 3 0  22.5 3 0  23.25 3 0  24 3 0  24.75 3 0  25.5 3 0  26.25 3 0  27 3 0  27.75 3 0  28.5 3 0  29.25 3 0  30 3 0  30.75 3 0  31.5 3 0  32.25 3 0  33 3 0  33.75 3 0  34.5 3 0  35.25 3 0  36 3 0  36.75 3 0  37.5 3 0  38.25 3 0  39 3 0  39.75 3 0  40.5 3 0  41.25 3 0  42 3 0  42.75 3 0  43.5 3 0  44.25 3 0  45 3 0  45.75 3 0  46.5 3 0  47.25 3 0  48 3 0  48.75 3 0  49.5 3 0  50.25 3 0  51 3 0  51.75 3 0  52.5 3 0  53.25 3 0  54 3 0  54.75 3 0  55.5 3 0  56.25 3 0  57 3 0  57.75 3 0  58.5 3 0  59.25 3 0  60 3 0  0 3.5 0  0.75 3.5 0  1.5 3.5 0  2.25 3.5 0  3 3.5 0  3.75 3.5 0  4.5 3.5 0  5.25 3.5 0  6 3.5 0  6.75 3.5 0  7.5 3.5 0  8.25 3.5 0  9 3.5 0  9.75 3.5 0  10.5 3.5 0  11.25 3.5 0  12 3.5 0  12.75 3.5 0  13.5 3.5 0  14.25 3.5 0  15 3.5 0  15.75 3.5 0  16.5 3.5 0  17.25 3.5 0  18 3.5 0  18.75 3.5 0  19.5 3.5 0  20.25 3.5 0  21 3.5 0  21.75 3.5 0  22.5 3.5 0  23.25 3.5 0  24 3.5 0  24.75 3.5 0  25.5 3.5 0  26.25 3.5 0  27 3.5 0  27.75 3.5 0  28.5 3.5 0  29.25 3.5 0  30 3.5 0  30.75 3.5 0  31.5 3.5 0  32.25 3.5 0  33 3.5 0  33.75 3.5 0  34.5 3.5 0  35.25 3.5 0  36 3.5 0  36.75 3.5 0  37.5 3.5 0  38.25 3.5 0  39 3.5 0  39.75 3.5 0  40.5 3.5 0  41.25 3.5 0  42 3.5 0  42.75 3.5 0  43.5 3.5 0  44.25 3.5 0  45 3.5 0  45.75 3.5 0  46.5 3.5 0  47.25 3.5 0  48 3.5 0  48.75 3.5 0  49.5 3.5 0  50.25 3.5 0  51 3.5 0  51.75 3.5 0  52.5 3.5 0  53.25 3.5 0  54 3.5 0  54.75 3.5 0  55.5 3.5 0  56.25 3.5 0  57 3.5 0  57.75 3.5 0  58.5 3.5 0  59.25 3.5 0  60 3.5 0  0 4 0  0.75 4 0  1.5 4 0  2.25 4 0  3 4 0  3.75 4 0  4.5 4 0  5.25 4 0  6 4 0  6.75 4 0  7.5 4 0  8.25 4 0  9 4 0  9.75 4 0  10.5 4 0  11.25 4 0  12 4 0  12.75 4 0  13.5 4 0  14.25 4 0  15 4 0  15.75 4 0  16.5 4 0  17.25 4 0  18 4 0  18.75 4 0  19.5 4 0  20.25 4 0  21 4 0  21.75 4 0  22.5 4 0  23.25 4 0  24 4 0  24.75 4 0  25.5 4 0  26.25 4 0  27 4 0  27.75 4 0  28.5 4 0  29.25 4 0  30 4 0  30.75 4 0  31.5 4 0  32.25 4 0  33 4 0  33.75 4 0  34.5 4 0  35.25 4 0  36 4 0  36.75 4 0  37.5 4 0  38.25 4 0  39 4 0  39.75 4 0  40.5 4 0  41.25 4 0  42 4 0  42.75 4 0  43.5 4 0  44.25 4 0  45 4 0  45.75 4 0  46.5 4 0  47.25 4 0  48 4 0  48.75 4 0  49.5 4 0  50.25 4 0  51 4 0  51.75 4 0  52.5 4 0  53.25 4 0  54 4 0  54.75 4 0  55.5 4 0  56.25 4 0  57 4 0  57.75 4 0  58.5 4 0  59.25 4 0  60 4 0  0.375 0.25 0  1.125 0.25 0  1.875 0.25 0  2.625 0.25 0  3.375 0.25 0  4.125 0.25 0  4.875 0.25 0  5.625 0.25 0  6.375 0.25 0  7.125 0.25 0  7.875 0.25 0  8.625 0.25 0  9.375 0.25 0  10.125 0.25 0  10.875 0.25 0  11.625 0.25 0  12.375 0.25 0  13.125 0.25 0  13.875 0.25 0  14.625 0.25 0  15.375 0.25 0  16.125 0.25 0  16.875 0.25 0  17.625 0.25 0  18.375 0.25 0  19.125 0.25 0  19.875 0.25 0  20.625 0.25 0  21.375 0.25 0  22.125 0.25 0  22.875 0.25 0  23.625 0.25 0  24.375 0.25 0  25.125 0.25 0  25.875 0.25 0  26.625 0.25 0  27.375 0.25 0  28.125 0.25 0  28.875 0.25 0  29.625 0.25 0  30.375 0.25 0  31.125 0.25 0  31.875 0.25 0  32.625 0.25 0  33.375 0.25 0  34.125 0.25 0  34.875 0.25 0  35.625 0.25 0  36.375 0.25 0  37.125 0.25 0  37.875 0.25 0  38.625 0.25 0  39.375 0.25 0  40.125 0.25 0  40.875 0.25 0  41.625 0.25 0  42.375 0.25 0  43.125 0.25 0  43.875 0.25 0  44.625 0.25 0  45.375 0.25 0  46.125 0.25 0  46.875 0.25 0  47.625 0.25 0  48.375 0.25 0  49.125 0.25 0  49.875 0.25 0  50.625 0.25 0  51.375 0.25 0  52.125 0.25 0  52.875 0.25 0  53.625 0.25 0  54.375 0.25 0  55.125 0.25 0  55.875 0.25 0  56.625 0.25 0  57.375 0.25 0  58.125 0.25 0  58.875 0.25 0  59.625 0.25 0  0.375 0.75 0  1.125 0.75 0  1.875 0.75 0  2.625 0.75 0  3.375 0.75 0  4.125 0.75 0  4.875 0.75 0  5.625 0.75 0  6.375 0.75 0  7.125 0.75 0  7.875 0.75 0  8.625 0.75 0  9.375 0.75 0  10.125 0.75 0  10.875 0.75 0  11.625 0.75 0  12.375 0.75 0  13.125 0.75 0  13.875 0.75 0  14.625 0.75 0  15.375 0.75 0  16.125 0.75 0  16.875 0.75 0  17.625 0.75 0  18.375 0.75 0  19.125 0.75 0  19.875 0.75 0  20.625 0.75 0  21.375 0.75 0  22.125 0.75 0  22.875 0.75 0  23.625 0.75 0  24.375 0.75 0  25.125 0.75 0  25.875 0.75 0  26.625 0.75 0  27.375 0.75 0  28.125 0.75 0  28.875 0.75 0  29.625 0.75 0  30.375 0.75 0  31.125 0.75 0  31.875 0.75 0  32.625 0.75 0  33.375 0.75 0  34.125 0.75 0  34.875 0.75 0  35.625 0.75 0  36.375 0.75 0  37.125 0.75 0  37.875 0.75 0  38.625 0.75 0  39.375 0.75 0  40.125 0.75 0  40
[...]
<PointData  Vectors="f_8-0"> 
<DataArray  type="Float64"  Name="f_8-0"  NumberOfComponents="3" format="ascii">-7.7385305031599541e-11 -1.2368722783935061e-11 0.0000000000000000e+00  0.0000000000000000e+00 0.0000000000000000e+00 0.0000000000000000e+00  1.2008256720092240e-09 0.0000000000000000e+00 0.0000000000000000e+00  -2.6757127753735656e-09 -2.0822814688631425e-09 0.0000000000000000e+00  0.0000000000000000e+00 0.0000000000000000e+00 0.0000000000000000e+00  0.0000000000000000e+00 0.0000000000000000e+00 0.0000000000000000e+00  9.8106238129711141e-10 0.0000000000000000e+00 0.0000000000000000e+00  0.0000000000000000e+00 0.0000000000000000e+00 0.0000000000000000e+00  0.0000000000000000e+00 3.2381622086894647e-09 0.0000000000000000e+00  0.0000000000000000e+00 0.0000000000000000e+00 0.0000000000000000e+00  7.4742770698685181e-08 2.0245176757119015e-09 0.0000000000000000e+00  1.5182892947982949e-08 6.3154637509720501e-09 0.0000000000000000e+00  -3.2641058897953543e-08 2.2822244929005036e-08 0.0000000000000000e+00  3.5482784962490106e-09 1.0352794195881853e-09 0.0000000000000000e+00  0.0000000000000000e+00 0.0000000000000000e+00 0.0000000000000000e+00  -5.5401552407828479e-07 3.1746414917401778e-07 0.0000000000000000e+00  -3.6695759246859288e-08 -1.5565479595319830e-08 0.0000000000000000e+00  -1.3923669413742188e-07 -3.1997394784298496e-08 0.0000000000000000e+00  0.0000000000000000e+00 -1.1163203516834009e-09 0.0000000000000000e+00  0.0000000000000000e+00 0.0000000000000000e+00 0.0000000000000000e+00  0.0000000000000000e+00 1.6359548028522422e-09 0.0000000000000000e+00  1.0077168810621236e-08 -1.7133090163546849e-08 0.0000000000000000e+00  -1.0355554167596915e-08 5.9688673333704845e-09 0.0000000000000000e+00  0.0000000000000000e+00 1.3770558089379002e-10 0.0000000000000000e+00  0.0000000000000000e+00 0.0000000000000000e+00 0.0000000000000000e+00  1.2411126570386289e-08 1.3252436256899412e-08 0.0000000000000000e+00  0.0000000000000000e+00 0.0000000000000000e+00 0.0000000000000000e+00  -2.1849986123325757e-09 1.2750124289077814e-09 0.0000000000000000e+00  1.0891953897443288e-08 -2.3388942468345457e-08 0.0000000000000000e+00  -3.1246303913744405e-10 1.9348619075173089e-10 0.0000000000000000e+00  -9.5443923151238451e-11 2.4515230814369089e-08 0.0000000000000000e+00  -8.4596503119882744e-09 4.2216202466135542e-09 0.0000000000000000e+00  0.0000000000000000e+00 0.0000000000000000e+00 0.0000000000000000e+00  -1.1466573189730762e-08 -1.3951596075121969e-09 0.0000000000000000e+00  -3.5393748100813248e-09 4.2975478712130365e-09 0.0000000000000000e+00  -1.2973269731035967e-08 -2.3467729333697416e-08 0.0000000000000000e+00  4.9843546584508782e-09 2.6629374536214355e-09 0.0000000000000000e+00  2.8032402854502599e-09 3.3692631520494853e-09 0.0000000000000000e+00  -1.6327521108430266e-09 0.0000000000000000e+00 0.0000000000000000e+00  6.0794390649325063e-09 -8.6409520795837862e-08 0.0000000000000000e+00  0.0000000000000000e+00 0.0000000000000000e+00 0.0000000000000000e+00  -1.7973255070186795e-09 4.8072702743855133e-10 0.0000000000000000e+00  0.0000000000000000e+00 0.0000000000000000e+00 0.0000000000000000e+00  4.3126664033904651e-09 5.2089507772052727e-09 0.0000000000000000e+00  4.3342156903779665e-09 -2.8160402422397441e-09 0.0000000000000000e+00  5.8138526045512595e-09 -2.0217618730935038e-08 0.0000000000000000e+00  0.0000000000000000e+00 0.0000000000000000e+00 0.0000000000000000e+00  0.0000000000000000e+00 0.0000000000000000e+00 0.0000000000000000e+00  -4.7563716586231824e-08 2.5230714223057184e-08 0.0000000000000000e+00  0.0000000000000000e+00 0.0000000000000000e+00 0.0000000000000000e+00  -8.8781670156396366e-09 -2.2873891521489855e-08 0.0000000000000000e+00  4.6659134989302635e-09 1.4253524907441675e-08 0.0000000000000000e+00  9.9864015006300054e-09 -1.2728320957232416e-10 0.0000000000000000e+00  0.0000000000000000e+00 0.0000000000000000e+00 0.0000000000000000e+00  3.4977424654188889e-09 -8.2932133372153098e-10 0.0000000000000000e+00  9.1790759570689696e-08 -1.1682412629118206e-07 0.0000000000000000e+00  -2.4322349577637389e-09 -6.1759863849715742e-09 0.0000000000000000e+00  0.0000000000000000e+00 -3.8269371121033174e-09 0.0000000000000000e+00  0.0000000000000000e+00 0.0000000000000000e+00 0.0000000000000000e+00  -1.4908594881704607e-09 -2.2234744165993317e-09 0.0000000000000000e+00  -6.7443103669677205e-09 -2.9204418875541670e-09 0.0000000000000000e+00  -4.5793613894507996e-09 2.2328765468722647e-09 0.0000000000000000e+00  0.0000000000000000e+00 0.0000000000000000e+00 0.0000000000000000e+00  -7.3074999573351765e-09 5.0118850126289976e-09 0.0000000000000000e+00  -1.7722951516292218e-08 -2.7718559382385781e-09 0.0000000000000000e+00  0.0000000000000000e+00 0.0000000000000000e+00 0.0000000000000000e+00  3.5416552850812038e-09 -3.6341116312875104e-10 0.0000000000000000e+00  0.0000000000000000e+00 0.0000000000000000e+00 0.0000000000000000e+00  8.1129458906451586e-09 0.0000000000000000e+00 0.0000000000000000e+00  -1.9916676812959373e-09 -2.9031121229352076e-09 0.0000000000000000e+00  0.0000000000000000e+00 -9.3060947665773953e-10 0.0000000000000000e+00  -2.4708906668502851e-09 5.4682955473808274e-09 0.0000000000000000e+00  -2.9201320788165889e-08 2.8493252694060614e-08 0.0000000000000000e+00  -3.3038842021696469e-08 6.2399576756626876e-09 0.0000000000000000e+00  0.0000000000000000e+00 -1.2108822079185079e-09 0.0000000000000000e+00  0.0000000000000000e+00 0.0000000000000000e+00 0.0000000000000000e+00  2.8047388529850850e-08 5.7772426103633005e-08 0.0000000000000000e+00  0.0000000000000000e+00 -3.8490424851039741e-09 0.0000000000000000e+00  6.5720789769904204e-08 -6.5442322351486937e-08 0.0000000000000000e+00  0.0000000000000000e+00 -2.4049469338265841e-10 0.0000000000000000e+00  1.4934101923122220e-09 -1.9117012405669552e-10 0.0000000000000000e+00  3.1547212223567779e+05 8.9696536254742860e-10 0.0000000000000000e+00  -2.6097284040094147e+05 -1.6381295735063040e+05 0.0000000000000000e+00  -1.6290760364608370e+04 -8.0952058919035550e+05 0.0000000000000000e+00  -7.1103960607261251e+04 9.7727859857559542e+05 0.0000000000000000e+00  3.2950917531388353e+04 9.4265131011384458e+05 0.0000000000000000e+00  -1.4347583744575293e+06 8.3252379758287722e+05 0.0000000000000000e+00  -3.6089510923257144e+05 4.2786826253377105e+05 0.0000000000000000e+00  -2.2530354942756234e+05 -6.5932926892018993e+05 0.0000000000000000e+00  -6.3251262856377791e+04 -1.8023844469586331e+06 0.0000000000000000e+00  -1.6844172157591782e+06 -6.3540134626404999e+05 0.0000000000000000e+00  -6.8148575572504546e+05 3.8923523539494409e+05 0.0000000000000000e+00  -8.0132880282324296e+05 -3.5828603729770606e+05 0.0000000000000000e+00  -2.4763571822148431e+05 -4.5271172030632768e+05 0.0000000000000000e+00  1.5094548421290313e+05 -1.9251027419522987e+05 0.0000000000000000e+00  -1.5838092170143774e+05 -1.0302925300326924e+05 0.0000000000000000e+00  8.8778451767985534e+04 -3.1004532177914982e+05 0.0000000000000000e+00  -6.3010590913493943e+05 -1.4770388955735567e+06 0.0000000000000000e+00  2.6634272699349624e+05 8.0825405368157171e+03 0.0000000000000000e+00  8.0036021388360090e+05 6.5280310121779155e+05 0.0000000000000000e+00  5.3092042015301017e+05 8.1060151474231074e+05 0.0000000000000000e+00  8.5096414649513623e+04 3.5724496044675674e+05 0.0000000000000000e+00  -7.0890326956085197e+05 -2.8473562874274747e+05 0.0000000000000000e+00  -3.5311493152365100e+05 -7.1828409888950572e+05 0.0000000000000000e+00  -4.9354387334797444e+05 4.0961366611072962e+05 0.0000000000000000e+00  -6.1632683782471612e+05 -3.1768410644909993e+04 0.0000000000000000e+00  -3.8864234603298355e+04 5.7168314756119391e+05 0.0000000000000000e+00  6.2772660405794806e+04 -4.8148167189590324e+05 0.0000000000000000e+00  1.9268466839503087e+05 1.8516343366533218e+05 0.0000000000000000e+00  3.8787659778045618e+05 -3.5642799685156369e+05 0.0000000000000000e+00  -1.7912133772143582e+05 -2.0798877895416869e+05 0.0000000000000000e+00  8.2804297435126704e+04 5.8751942943878021e+04 0.0000000000000000e+00  2.7912859061830968e+05 5.1850601546135280e+04 0.0000000000000000e+00  -1.3187277415053567e+05 1.5661855858693561e+04 0.0000000000000000e+00  -1.2085209190074919e+05 -5.0956216298847232e+05 0.0000000000000000e+00  -2.3433036016849065e+05 -4.5021171660266857e+05 0.0000000000000000e+00  -1.3285791377641936e+05 -2.3327873118276591e+05 0.0000000000000000e+00  -1.3253114596779375e+04 -6.6321733533710445e+04 0.0000000000000000e+00  -5.9982423755130987e+05 8.4156285306550984e+04 0.0000000000000000e+00  2.6462844785184592e+04 -4.5358721313782100e+05 0.0000000000000000e+00  -2.8161191220419022e+05 -4.3783100502836949e+05 0.0000000000000000e+00  -4.1439698477802364e+02 -1.4540112032335589e+05 0.0000000000000000e+00  -7.6774141379410910e+04 6.4353861612184846e+05 0.0000000000000000e+00  -7.5616599029950172e+04 -1.7539004976731783e+05 0.0000000000000000e+00  7.5279637065509148e+05 -1.3413018512870357e+05 0.0000000000000000e+00  6.2624830123071311e+04 -4.8198573641539417e+05 0.0000000000000000e+00  6.5144185217789134e+04 -1.6387429581227398e+05 0.0000000000000000e+00  2.8155879690904228e+05 -5.0209013561404392e+05 0.0000000000000000e+00  -5.4992973626213823e+05 -1.2957180869371569e+05 0.0000000000000000e+00  5.4297050263120991e+05 -4.1775809988561709e+05 0.0000000000000000e+00  -2.7825339454767952e+05 2.2580442749507789e+05 0.0000000000000000e+00  -1.3607587987940013e+05 -6.7470045966801699e+05 0.0000000000000000e+00  -8.6126881292700197e+05 3.7431671247551905e+05 0.0000000000000000e+00  2.0113989909004109e+05 8.3019967585752311e+05 0.0000000000000000e+00  4.3074202023601322e+05 2.5850213542697634e+05 0.0000000000000000e+00  5.6006958582801395e+05 -1.1583633216665697e+05 0.0000000000000000e+00  -3.5653260277914017e+05 1.4435092027808187e+05 0.0000000000000000e+00  1.7731089752931888e+06 7.7920275306229584e+05 0.0000000000000000e+00  -2.2382592077864128e+03 2.4092246018810811e+03 0.0000000000000000e+00  1.3136548322400064e+05 -7.2532095337561518e+05 0.0000000000000000e+00  3.1091323250704666e+05 -5.5681208536212856e+05 0.0000000000000000e+00  -7.7601724084697955e+05 -2.1788081707075713e+05 0.0000000000000000e+00  -5.8765636714720179e+05 1.1344352652767415e+04 0.0000000000000000e+00  -6.8879158548353426e+05 -1.5114901376970604e+05 0.0000000000000000e+00  8.6932864517840324e+05 1.0397290885625832e+05 0.0000000000000000e+00  -1.9258709952157288e+05 6.6139575906254031e+04 0.0000000000000000e+00  -1.0544872273493840e+06 4.5884655098504305e+05 0.0000000000000000e+00  -1.0673480237840011e+06 5.3926065654328733e+05 0.0000000000000000e+00  2.3627629940637626e+05 4.5721966173734417e+05 0.0000000000000000e+00  3.7766601221547066e+05 5.6996426146137796e+05 0.0000000000000000e+00  -1.6235214313672907e+06 -1.9065235635560388e+06 0.0000000000000000e+00  -3.9159036583265028e+05 3.1754238033713080e+05 0.0000000000000000e+00  -8.9749875256525457e+05 -7.6674442105007719e+05 0.0000000000000000e+00  9.0871515487333073e+05 1.1392040607684370e+05 0.0000000000000000e+00  1.3490682155859019e+06 -2.3118134384434731e+06 0.0000000000000000e+00  3.5702581511802279e+05 -4.9996059142649965e+05 0.0000000000000000e+00  -4.8419068495905778e+05 -1.6199906063735284e+05 0.0000000000000000e+00  1.7804122709767031e+05 -1.3372759522065363e+05 0.0000000000000000e+00  4.5563770546783839e+05 -1.2448212080311419e+05 0.0000000000000000e+00  -8.1718287832828367e+05 9.5417446392710481e+04 0.0000000000000000e+00  -4.9084029775748536e+05 1.2501229814439722e+05 0.0000000000000000e+00  2.8681737484150683e+05 0.0000000000000000e+00 0.0000000000000000e+00  -2.9117860409527010e+05 -8.9242267694251771e-12 0.0000000000000000e+00  1.4966779091036934e+06 6.5980430970586417e+05 0.0000000000000000e+00  -9.6459407566572540e+05 2.2551768531210028e+05 0.0000000000000000e+00  -3.3973966386932158e+05 1.1629314145372261e+06 0.0000000000000000e+00  -1.6229447996732485e+06 9.5885794326031685e+05 0.0000000000000000e+00  -1.0912876179110855e+06 2.3750193392973950e+04 0.0000000000000000e+00  -6.5451083308551635e+05 -6.8715500127174819e+04 0.0000000000000000e+00  3.1148490616506658e+05 -1.4343198156115905e+05 0.0000000000000000e+00  -3.2231537787898228e+05 -5.8639064189390524e+05 0.0000000000000000e+00  1.9766142562508184e+05 -8.7611978484812693e+05 0.0000000000000000e+00  -1.0316399475159978e+06 -1.0904806594890611e+05 0.0000000000000000e+00  -1.8480867621861774e+05 -8.2464204289451998e+04 0.0000000000000000e+00  -1.0182635552554928e+06 -1.2111586917344891e+06 0.0000000000000000e+00  -7.8851078720808582e+04 4.8702508642371191e+05 0.0000000000000000e+00  -1.6206855745738113e+05 1.6125097194597410e+05 0.0000000000000000e+00  -1.2336641471680419e+06 -9.9585681158946699e+05 0.0000000000000000e+00  1.1960150749086230e+06 -8.3188928991440975e+05 0.0000000000000000e+00  6.1868094226677949e+05 -1.5352327036244716e+05 0.0000000000000000e+00  3.5844207499768795e+05 7.2603960796652199e+05 0.0000000000000000e+00  -5.7347489070421364e+05 -3.3488036279123370e+05 0.0000000000000000e+00  -3.3738187002841179e+05 2.6616021730250522e+05 0.0000000000000000e+00  -2.3745160824675331e+05 -9.3577702670618237e+04 0.0000000000000000e+00  -2.4502954651869624e+05 -5.0815382114427682e+05 0.0000000000000000e+00  -4.7730453603599116e+05 8.9267263857690094e+04 0.0000000000000000e+00  -2.9025144794890744e+05 1.0768663326097366e+05 0.0000000000000000e+00  -5.2571615067343146e+05 -2.0293127801834152e+05 0.0000000000000000e+00  1.7622763908145265e+05 -5.5505480480242893e+05 0.0000000000000000e+00  4.0191764696644654e+05 2.7345299502947676e+05 0.0000000000000000e+00  -3.0363839714060836e+04 3.6052763099620602e+05 0.0000000000000000e+00  2.2740537255785926e+05 1.2762706622402172e+05 0.0000000000000000e+00  -4.4849083585264499e+05 -3.1557929635419819e+05 0.0000000000000000e+00  -2.8908876380332338e+05 -2.2155862569749606e+05 0.0000000000000000e+00  -6.3494102240564709e+05 6.1281998315545754e+05 0.0000000000000000e+00  -3.3518934979885531e+05 2.8540831720826594e+05 0.0000000000000000e+00  -7.2943085885923821e+05 4.2003341367519629e+05 0.0000000000000000e+00  -4.4493263456129649e+05 -5.4469574232383911e+05 0.0000000000000000e+00  -3.8429049614662636e+05 1.8517172797634677e+05 0.0000000000000000e+00  -4.2732109087171365e+05 7.5131868124838700e+04 0.0000000000000000e+00  -6.6756949079885194e+05 -3.1672359746068186e+05 0.0000000000000000e+00  -4.6632081638697785e+05 -6.3674799082824751e+05 0.0000000000000000e+00  -4.2399684242696862e+05 6.2552808584514668e+05 0.0000000000000000e+00  -3.5076573163586122e+05 -7.0142117316860604e+04 0.0000000000000000e+00  3.3136764458605634e+04 -4.3657931211066134e+04 0.0000000000000000e+00  2.6787310676454107e+05 -1.5681085044184604e+05 0.0000000000000000e+00  -1.2874954395570913e+05 1.2315377452718354e+02 0.0000000000000000e+00  -1.1405956396796215e+05 -2.8314894268895284e+05 0.0000000000000000e+00  4.7784815244826477e+03 2.5985075294503450e+05 0.0000000000000000e+00  3.2467263108615112e+05 -3.6688063929302536e+05 0.0000000000000000e+00  -2.0571963120591661e+05 7.6777574878474977e+05 0.0000000000000000e+00  -1.4461901935810095e+05 -2.5506367653649757e+05 0.0000000000000000e+00  -5.2915960075243469e+05 -4.3484364676959952e+05 0.0000000000000000e+00  3.7716028928663372e+05 2.1712093318841781e+05 0.0000000000000000e+00  -2.1816210909988156e+04 -7.0818333840417676e+05 0.0000000000000000e+00  7.1356621562484687e+05 -2.2997474149627009e+05 0.0000000000000000e+00  9.3218110705180408e+05 5.3641555416982781e+04 0.0000000000000000e+00  3.3942244366972201e+05 4.2935781208368670e+05 0.0000000000000000e+00  5.7893264207984682e+05 8.7864501006255019e+05 0.0000000000000000e+00  -6.8200446616599016e+04 1.5142404808364650e+06 0.0000000000000000e+00  2.2800326771091134e+05 -6.1241475842308672e+05 0.0000000000000000e+00  -7.7611243310418809e+04 1.1630820331643901e+06 0.0000000000000000e+00  4.1115422819899912e+04 -1.2643663494666256e+06 0.0000000000000000e+00  5.2453941893385992e+04 1.6639108122643313e+05 0.0000000000000000e+00  -1.3447847581727898e+06 1.1310631103120751e+06 0.0000000000000000e+00  -2.7243491405950993e+05 2.1633696451535646e+05 0.0000000000000000e+00  -2.6219800422964658e+05 1.4333750055217792e+06 0.0000000000000000e+00  8.0615360184724093e+04 1.3788966448603212e+06 0.0000000000000000e+00  -1.1538491747024301e+06 6.5150987909446331e+05 0.0000000000000000e+00  3.1002083719258948e+05 -2.7760013050343390e+04 0.0000000000000000e+00  1.2392923903856797e+06 -3.1900708627763588e+05 0.0000000000000000e+00  2.7174994040437374e+04 2.2304230702630023e+05 0.0000000000000000e+00  1.1534065470530497e+05 -9.6067197356744111e+05 0.0000000000000000e+00  5.0130874243974459e+05 1.8731998768347563e+05 0.0000000000000000e+00  1.9733768965700385e+06 -1.5863878003435403e+06 0.0000000000000000e+00  7.3549278887972911e+05 8.5604975903209313e+04 0.0000000000000000e+00  1.8595043115536983e+06 7.7382568872859690e+05 0.0000000000000000e+00  -8.8839961720784823e+05 1.3501584920751671e+06 0.0000000000000000e+00  2.4157772504759279e+04 1.3907473730781763e+06 0.0000000000000000e+00  -4.2438657752896938e+05 -4.6914964245854487e+05 0.0000000000000000e+00  -6.7751916727650748e+05 5.6742690075818030e+05 0.0000000000000000e+00  -1.3300144836929885e+06 -4.0167445570220548e+05 0.0000000000000000e+00  -1.0416944147372573e+06 -3.7576132479129517e-11 0.0000000000000000e+00  3.9320413915750384e+05 1.9834364554971070e-09 0.0000000000000000e+00  7.7987759053940652e+05 1.1633087623120414e+06 0.0000000000000000e+00  1.3162892543346337e+06 5.0207361080617457e+03 0.0000000000000000e+00  -2.1593608928025896e+06 9.9702078497822478e+05 0.0000000000000000e+00  3.5344750650941825e+05 7.5678708062995807e+05 0.0000000000000000e+00  -3.7108735431042378e+05 1.0957026050154262e+06 0.0000000000000000e+00  -5.8006335826051061e+05 6.2762201562680944e+05 0.0000000000000000e+00  -1.9155097384588688e+05 -3.7104243982001094e+02 0.0000000000000000e+00  -1.0232925105662537e+06 -2.5196787118949310e+05 0.0000000000000000e+00  -7.4601486857510952e+05 -6.1271156365393975e+05 0.0000000000000000e+00  5.4291688731772173e+05 5.2267527865418285e+05 0.0000000000000000e+00  -9.4264596898619988e+04 9.2469634154438111e+05 0.0000000000000000e+00  -5.9938264989732730e+05 -3.9874239582348953e+05 0.0000000000000000e+00  -2.8191997217762569e+05 -2.5431898460731303e+05 0.0000000000000000e+00  -1.4677327274206150e+05 9.8433727133582858e+05 0.0000000000000000e+00  -6.9138938520038748e+04 2.3306508422652882e+04 0.0000000000000000e+00  -2.1049690408068112e+05 -6.8687709781943262e+05 0.0000000000000000e+00  3.5222713137606863e+05 2.6134273806216352e+05 0.0000000000000000e+00  -1.4860693751654201e+05 1.1276839581294283e+06 0.0000000000000000e+00  -4.8234583059744560e+05 -2.1772101051933045e+05 0.0000000000000000e+00  -2.8152549614486832e+05 1.1386667058559200e+05 0.0000000000000000e+00  2.0507636012541948e+05 1.9040321598882301e+05 0.0000000000000000e+00  -2.5370512097254879e+05 -3.7624863359980627e+04 0.0000000000000000e+00  3.3072749969458743e+05 2.0818500813035737e+05 0.0000000000000000e+00  -6.6464918994800060e+05 5.6456352859423182e+05 0.0000000000000000e+00  -2.8816233090193575e+05 6.0257474201819347e+05 0.0000000000000000e+00  2.0472941500786081e+05 -7.5026558259168838e+05 0.0000000000000000e+00  1.0323126848603267e+05 2.8614929180947907e+05 0.0000000000000000e+00  -8.0825004170574853e+05 -2.3915072176181892e+05 0.0000000000000000e+00  -6.8865811805107887e+05 4.7543547711944178e+05 0.0000000000000000e+00  -3.7477250291692006e+05 -5.9090170343252918e+04 0.0000000000000000e+00  6.5251742962664772e+04 2.8005564622426528e+05 0.0000000000000000e+00  -1.1057227564250304e+05 -3.7707533541929547e+05 0.0000000000000000e+00  -3.3177520095618546e+05 4.1865441823017254e+05 0.0000000000000000e+00  9.8874396680891005e+04 -3.3907602769441379e+05 0.0000000000000000e+00  -3.8271118258431321e+05 2.1917375486779962e+04 0.0000000000000000e+00  -2.2363337643591544e+05 -2.9229846611560450e+05 0.0000000000000000e+00  -8.69359389720