<?xml version="1.0"?>
<VTKFile type="UnstructuredGrid"  version="0.1"  >
<UnstructuredGrid>
<Piece  NumberOfPoints="1369" NumberOfCells="2560">
<Points>
<DataArray  type="Float64"  NumberOfComponents="3"  format="ascii">0 0 0  0.75 0 0  1.5 0 0  2.25 0 0  3 0 0  3.75 0 0  4.5 0 0  5.25 0 0  6 0 0  6.75 0 0  7.5 0 0  8.25 0 0  9 0 0  9.75 0 0  10.5 0 0  11.25 0 0  12 0 0  12.75 0 0  13.5 0 0  14.25 0 0  15 0 0  15.75 0 0  16.5 0 0  17.25 0 0  18 0 0  18.75 0 0  19.5 0 0  20.25 0 0  21 0 0  21.75 0 0  22.5 0 0  23.25 0 0  24 0 0  24.75 0 0  25.5 0 0  26.25 0 0  27 0 0  27.75 0 0  28.5 0 0  29.25 0 0  30 0 0  30.75 0 0  31.5 0 0  32.25 0 0  33 0 0  33.75 0 0  34.5 0 0  35.25 0 0  36 0 0  36.75 0 0  37.5 0 0  38.25 0 0  39 0 0  39.75 0 0  40.5 0 0  41.25 0 0  42 0 0  42.75 0 0  43.5 0 0  44.25 0 0  45 0 0  45.75 0 0  46.5 0 0  47.25 0 0  48 0 0  48.75 0 0  49.5 0 0  50.25 0 0  51 0 0  51.75 0 0  52.5 0 0  53.25 0 0  54 0 0  54.75 0 0  55.5 0 0  56.25 0 0  57 0 0  57.75 0 0  58.5 0 0  59.25 0 0  60 0 0  0 0.5 0  0.75 0.5 0  1.5 0.5 0  2.25 0.5 0  3 0.5 0  3.75 0.5 0  4.5 0.5 0  5.25 0.5 0  6 0.5 0  6.75 0.5 0  7.5 0.5 0  8.25 0.5 0  9 0.5 0  9.75 0.5 0  10.5 0.5 0  11.25 0.5 0  12 0.5 0  12.75 0.5 0  13.5 0.5 0  14.25 0.5 0  15 0.5 0  15.75 0.5 0  16.5 0.5 0  17.25 0.5 0  18 0.5 0  18.75 0.5 0  19.5 0.5 0  20.25 0.5 0  21 0.5 0  21.75 0.5 0  22.5 0.5 0  23.25 0.5 0  24 0.5 0  24.75 0.5 0  25.5 0.5 0  26.25 0.5 0  27 0.5 0  27.75 0.5 0  28.5 0.5 0  29.25 0.5 0  30 0.5 0  30.75 0.5 0  31.5 0.5 0  32.25 0.5 0  33 0.5 0  33.75 0.5 0  34.5 0.5 0  35.25 0.5 0  36 0.5 0  36.75 0.5 0  37.5 0.5 0  38.25 0.5 0  39 0.5 0  39.75 0.5 0  40.5 0.5 0  41.25 0.5 0  42 0.5 0  42.75 0.5 0  43.5 0.5 0  44.25 0.5 0  45 0.5 0  45.75 0.5 0  46.5 0.5 0  47.25 0.5 0  48 0.5 0  48.75 0.5 0  49.5 0.5 0  50.25 0.5 0  51 0.5 0  51.75 0.5 0  52.5 0.5 0  53.25 0.5 0  54 0.5 0  54.75 0.5 0  55.5 0.5 0  56.25 0.5 0  57 0.5 0  57.75 0.5 0  58.5 0.5 0  59.25 0.5 0  60 0.5 0  0 1 0  0.75 1 0  1.5 1 0  2.25 1 0  3 1 0  3.75 1 0  4.5 1 0  5.25 1 0  6 1 0  6.75 1 0  7.5 1 0  8.25 1 0  9 1 0  9.75 1 0  10.5 1 0  11.25 1 0  12 1 0  12.75 1 0  13.5 1 0  14.25 1 0  15 1 0  15.75 1 0  16.5 1 0  17.25 1 0  18 1 0  18.75 1 0  19.5 1 0  20.25 1 0  21 1 0  21.75 1 0  22.5 1 0  23.25 1 0  24 1 0  24.75 1 0  25.5 1 0  26.25 1 0  27 1 0  27.75 1 0  28.5 1 0  29.25 1 0  30 1 0  30.75 1 0  31.5 1 0  32.25 1 0  33 1 0  33.75 1 0  34.5 1 0  35.25 1 0  36 1 0  36.75 1 0  37.5 1 0  38.25 1 0  39 1 0  39.75 1 0  40.5 1 0  41.25 1 0  42 1 0  42.75 1 0  43.5 1 0  44.25 1 0  45 1 0  45.75 1 0  46.5 1 0  47.25 1 0  48 1 0  48.75 1 0  49.5 1 0  50.25 1 0  51 1 0  51.75 1 0  52.5 1 0  53.25 1 0  54 1 0  54.75 1 0  55.5 1 0  56.25 1 0  57 1 0  57.75 1 0  58.5 1 0  59.25 1 0  60 1 0  0 1.5 0  0.75 1.5 0  1.5 1.5 0  2.25 1.5 0  3 1.5 0  3.75 1.5 0  4.5 1.5 0  5.25 1.5 0  6 1.5 0  6.75 1.5 0  7.5 1.5 0  8.25 1.5 0  9 1.5 0  9.75 1.5 0  10.5 1.5 0  11.25 1.5 0  12 1.5 0  12.75 1.5 0  13.5 1.5 0  14.25 1.5 0  15 1.5 0  15.75 1.5 0  16.5 1.5 0  17.25 1.5 0  18 1.5 0  18.75 1.5 0  19.5 1.5 0  20.25 1.5 0  21 1.5 0  21.75 1.5 0  22.5 1.5 0  23.25 1.5 0  24 1.5 0  24.75 1.5 0  25.5 1.5 0  26.25 1.5 0  27 1.5 0  27.75 1.5 0  28.5 1.5 0  29.25 1.5 0  30 1.5 0  30.75 1.5 0  31.5 1.5 0  32.25 1.5 0  33 1.5 0  33.75 1.5 0  34.5 1.5 0  35.25 1.5 0  36 1.5 0  36.75 1.5 0  37.5 1.5 0  38.25 1.5 0  39 1.5 0  39.75 1.5 0  40.5 1.5 0  41.25 1.5 0  42 1.5 0  42.75 1.5 0  43.5 1.5 0  44.25 1.5 0  45 1.5 0  45.75 1.5 0  46.5 1.5 0  47.25 1.5 0  48 1.5 0  48.75 1.5 0  49.5 1.5 0  50.25 1.5 0  51 1.5 0  51.75 1.5 0  52.5 1.5 0  53.25 1.5 0  54 1.5 0  54.75 1.5 0  55.5 1.5 0  56.25 1.5 0  57 1.5 0  57.75 1.5 0  58.5 1.5 0  59.25 1.5 0  60 1.5 0  0 2 0  0.75 2 0  1.5 2 0  2.25 2 0  3 2 0  3.75 2 0  4.5 2 0  5.25 2 0  6 2 0  6.75 2 0  7.5 2 0  8.25 2 0  9 2 0  9.75 2 0  10.5 2 0  11.25 2 0  12 2 0  12.75 2 0  13.5 2 0  14.25 2 0  15 2 0  15.75 2 0  16.5 2 0  17.25 2 0  18 2 0  18.75 2 0  19.5 2 0  20.25 2 0  21 2 0  21.75 2 0  22.5 2 0  23.25 2 0  24 2 0  24.75 2 0  25.5 2 0  26.25 2 0  27 2 0  27.75 2 0  28.5 2 0  29.25 2 0  30 2 0  30.75 2 0  31.5 2 0  32.25 2 0  33 2 0  33.75 2 0  34.5 2 0  35.25 2 0  36 2 0  36.75 2 0  37.5 2 0  38.25 2 0  39 2 0  39.75 2 0  40.5 2 0  41.25 2 0  42 2 0  42.75 2 0  43.5 2 0  44.25 2 0  45 2 0  45.75 2 0  46.5 2 0  47.25 2 0  48 2 0  48.75 2 0  49.5 2 0  50.25 2 0  51 2 0  51.75 2 0  52.5 2 0  53.25 2 0  54 2 0  54.75 2 0  55.5 2 0  56.25 2 0  57 2 0  57.75 2 0  58.5 2 0  59.25 2 0  60 2 0  0 2.5 0  0.75 2.5 0  1.5 2.5 0  2.25 2.5 0  3 2.5 0  3.75 2.5 0  4.5 2.5 0  5.25 2.5 0  6 2.5 0  6.75 2.5 0  7.5 2.5 0  8.25 2.5 0  9 2.5 0  9.75 2.5 0  10.5 2.5 0  11.25 2.5 0  12 2.5 0  12.75 2.5 0  13.5 2.5 0  14.25 2.5 0  15 2.5 0  15.75 2.5 0  16.5 2.5 0  17.25 2.5 0  18 2.5 0  18.75 2.5 0  19.5 2.5 0  20.25 2.5 0  21 2.5 0  21.75 2.5 0  22.5 2.5 0  23.25 2.5 0  24 2.5 0  24.75 2.5 0  25.5 2.5 0  26.25 2.5 0  27 2.5 0  27.75 2.5 0  28.5 2.5 0  29.25 2.5 0  30 2.5 0  30.75 2.5 0  31.5 2.5 0  32.25 2.5 0  33 2.5 0  33.75 2.5 0  34.5 2.5 0  35.25 2.5 0  36 2.5 0  36.75 2.5 0  37.5 2.5 0  38.25 2.5 0  39 2.5 0  39.75 2.5 0  40.5 2.5 0  41.25 2.5 0  42 2.5 0  42.75 2.5 0  43.5 2.5 0  44.25 2.5 0  45 2.5 0  45.75 2.5 0  46.5 2.5 0  47.25 2.5 0  48 2.5 0  48.75 2.5 0  49.5 2.5 0  50.25 2.5 0  51 2.5 0  51.75 2.5 0  52.5 2.5 0  53.25 2.5 0  54 2.5 0  54.75 2.5 0  55.5 2.5 0  56.25 2.5 0  57 2.5 0  57.75 2.5 0  58.5 2.5 0  59.25 2.5 0  60 2.5 0  0 3 0  0.75 3 0  1.5 3 0  2.25 3 0  3 3 0  3.75 3 0  4.5 3 0  5.25 3 0  6 3 0  6.75 3 0  7.5 3 0  8.25 3 0  9 3 0  9.75 3 0  10.5 3 0  11.25 3 0  12 3 0  12.75 3 0  13.5 3 0  14.25 3 0  15 3 0  15.75 3 0  16.5 3 0  17.25 3 0  18 3 0  18.75 3 0  19.5 3 0  20.25 3 0  21 3 0  21.75 3 0  22.5 3 0  23.25 3 0  24 3 0  24.75 3 0  25.5 3 0  26.25 3 0  27 3 0  27.75 3 0  28.5 3 0  29.25 3 0  30 3 0  30.75 3 0  31.5 3 0  32.25 3 0  33 3 0  33.75 3 0  34.5 3 0  35.25 3 0  36 3 0  36.75 3 0  37.5 3 0  38.25 3 0  39 3 0  39.75 3 0  40.5 3 0  41.25 3 0  42 3 0  42.75 3 0  43.5 3 0  44.25 3 0  45 3 0  45.75 3 0  46.5 3 0  47.25 3 0  48 3 0  48.75 3 0  49.5 3 0  50.25 3 0  51 3 0  51.75 3 0  52.5 3 0  53.25 3 0  54 3 0  54.75 3 0  55.5 3 0  56.25 3 0  57 3 0  57.75 3 0  58.5 3 0  59.25 3 0  60 3 0  0 3.5 0  0.75 3.5 0  1.5 3.5 0  2.25 3.5 0  3 3.5 0  3.75 3.5 0  4.5 3.5 0  5.25 3.5 0  6 3.5 0  6.75 3.5 0  7.5 3.5 0  8.25 3.5 0  9 3.5 0  9.75 3.5 0  10.5 3.5 0  11.25 3.5 0  12 3.5 0  12.75 3.5 0  13.5 3.5 0  14.25 3.5 0  15 3.5 0  15.75 3.5 0  16.5 3.5 0  17.25 3.5 0  18 3.5 0  18.75 3.5 0  19.5 3.5 0  20.25 3.5 0  21 3.5 0  21.75 3.5 0  22.5 3.5 0  23.25 3.5 0  24 3.5 0  24.75 3.5 0  25.5 3.5 0  26.25 3.5 0  27 3.5 0  27.75 3.5 0  28.5 3.5 0  29.25 3.5 0  30 3.5 0  30.75 3.5 0  31.5 3.5 0  32.25 3.5 0  33 3.5 0  33.75 3.5 0  34.5 3.5 0  35.25 3.5 0  36 3.5 0  36.75 3.5 0  37.5 3.5 0  38.25 3.5 0  39 3.5 0  39.75 3.5 0  40.5 3.5 0  41.25 3.5 0  42 3.5 0  42.75 3.5 0  43.5 3.5 0  44.25 3.5 0  45 3.5 0  45.75 3.5 0  46.5 3.5 0  47.25 3.5 0  48 3.5 0  48.75 3.5 0  49.5 3.5 0  50.25 3.5 0  51 3.5 0  51.75 3.5 0  52.5 3.5 0  53.25 3.5 0  54 3.5 0  54.75 3.5 0  55.5 3.5 0  56.25 3.5 0  57 3.5 0  57.75 3.5 0  58.5 3.5 0  59.25 3.5 0  60 3.5 0  0 4 0  0.75 4 0  1.5 4 0  2.25 4 0  3 4 0  3.75 4 0  4.5 4 0  5.25 4 0  6 4 0  6.75 4 0  7.5 4 0  8.25 4 0  9 4 0  9.75 4 0  10.5 4 0  11.25 4 0  12 4 0  12.75 4 0  13.5 4 0  14.25 4 0  15 4 0  15.75 4 0  16.5 4 0  17.25 4 0  18 4 0  18.75 4 0  19.5 4 0  20.25 4 0  21 4 0  21.75 4 0  22.5 4 0  23.25 4 0  24 4 0  24.75 4 0  25.5 4 0  26.25 4 0  27 4 0  27.75 4 0  28.5 4 0  29.25 4 0  30 4 0  30.75 4 0  31.5 4 0  32.25 4 0  33 4 0  33.75 4 0  34.5 4 0  35.25 4 0  36 4 0  36.75 4 0  37.5 4 0  38.25 4 0  39 4 0  39.75 4 0  40.5 4 0  41.25 4 0  42 4 0  42.75 4 0  43.5 4 0  44.25 4 0  45 4 0  45.75 4 0  46.5 4 0  47.25 4 0  48 4 0  48.75 4 0  49.5 4 0  50.25 4 0  51 4 0  51.75 4 0  52.5 4 0  53.25 4 0  54 4 0  54.75 4 0  55.5 4 0  56.25 4 0  57 4 0  57.75 4 0  58.5 4 0  59.25 4 0  60 4 0  0.375 0.25 0  1.125 0.25 0  1.875 0.25 0  2.625 0.25 0  3.375 0.25 0  4.125 0.25 0  4.875 0.25 0  5.625 0.25 0  6.375 0.25 0  7.125 0.25 0  7.875 0.25 0  8.625 0.25 0  9.375 0.25 0  10.125 0.25 0  10.875 0.25 0  11.625 0.25 0  12.375 0.25 0  13.125 0.25 0  13.875 0.25 0  14.625 0.25 0  15.375 0.25 0  16.125 0.25 0  16.875 0.25 0  17.625 0.25 0  18.375 0.25 0  19.125 0.25 0  19.875 0.25 0  20.625 0.25 0  21.375 0.25 0  22.125 0.25 0  22.875 0.25 0  23.625 0.25 0  24.375 0.25 0  25.125 0.25 0  25.875 0.25 0  26.625 0.25 0  27.375 0.25 0  28.125 0.25 0  28.875 0.25 0  29.625 0.25 0  30.375 0.25 0  31.125 0.25 0  31.875 0.25 0  32.625 0.25 0  33.375 0.25 0  34.125 0.25 0  34.875 0.25 0  35.625 0.25 0  36.375 0.25 0  37.125 0.25 0  37.875 0.25 0  38.625 0.25 0  39.375 0.25 0  40.125 0.25 0  40.875 0.25 0  41.625 0.25 0  42.375 0.25 0  43.125 0.25 0  43.875 0.25 0  44.625 0.25 0  45.375 0.25 0  46.125 0.25 0  46.875 0.25 0  47.625 0.25 0  48.375 0.25 0  49.125 0.25 0  49.875 0.25 0  50.625 0.25 0  51.375 0.25 0  52.125 0.25 0  52.875 0.25 0  53.625 0.25 0  54.375 0.25 0  55.125 0.25 0  55.875 0.25 0  56.625 0.25 0  57.375 0.25 0  58.125 0.25 0  58.875 0.25 0  59.625 0.25 0  0.375 0.75 0  1.125 0.75 0  1.875 0.75 0  2.625 0.75 0  3.375 0.75 0  4.125 0.75 0  4.875 0.75 0  5.625 0.75 0  6.375 0.75 0  7.125 0.75 0  7.875 0.75 0  8.625 0.75 0  9.375 0.75 0  10.125 0.75 0  10.875 0.75 0  11.625 0.75 0  12.375 0.75 0  13.125 0.75 0  13.875 0.75 0  14.625 0.75 0  15.375 0.75 0  16.125 0.75 0  16.875 0.75 0  17.625 0.75 0  18.375 0.75 0  19.125 0.75 0  19.875 0.75 0  20.625 0.75 0  21.375 0.75 0  22.125 0.75 0  22.875 0.75 0  23.625 0.75 0  24.375 0.75 0  25.125 0.75 0  25.875 0.75 0  26.625 0.75 0  27.375 0.75 0  28.125 0.75 0  28.875 0.75 0  29.625 0.75 0  30.375 0.75 0  31.125 0.75 0  31.875 0.75 0  32.625 0.75 0  33.375 0.75 0  34.125 0.75 0  34.875 0.75 0  35.625 0.75 0  36.375 0.75 0  37.125 0.75 0  37.875 0.75 0  38.625 0.75 0  39.375 0.75 0  40.125 0.75 0  40
[...]
<PointData  Vectors="f_8-0"> 
<DataArray  type="Float64"  Name="f_8-0"  NumberOfComponents="3" format="ascii">1.6971240800990031e-10 5.2631692360969998e-11 0.0000000000000000e+00  0.0000000000000000e+00 -3.5665974614584371e-11 0.0000000000000000e+00  -4.4442171321349226e-09 0.0000000000000000e+00 0.0000000000000000e+00  5.6381037161641966e-08 -3.2286814182286569e-08 0.0000000000000000e+00  1.9806092546658095e-08 1.5408818638740740e-08 0.0000000000000000e+00  9.6940271237953915e-09 6.7902294204704101e-09 0.0000000000000000e+00  0.0000000000000000e+00 0.0000000000000000e+00 0.0000000000000000e+00  -6.0460359745647242e-10 0.0000000000000000e+00 0.0000000000000000e+00  0.0000000000000000e+00 6.1904254054559012e-11 0.0000000000000000e+00  0.0000000000000000e+00 0.0000000000000000e+00 0.0000000000000000e+00  0.0000000000000000e+00 0.0000000000000000e+00 0.0000000000000000e+00  6.2238057301017060e-08 -2.4868127591264985e-08 0.0000000000000000e+00  6.8655253006776349e-08 -9.6446326312538780e-08 0.0000000000000000e+00  -4.7139654434773639e-09 -2.5058655349628900e-09 0.0000000000000000e+00  0.0000000000000000e+00 0.0000000000000000e+00 0.0000000000000000e+00  5.8285689017712690e-08 2.1233647818296855e-08 0.0000000000000000e+00  2.0106145708013719e-08 1.7881941550499198e-08 0.0000000000000000e+00  0.0000000000000000e+00 0.0000000000000000e+00 0.0000000000000000e+00  0.0000000000000000e+00 1.7190919637184578e-11 0.0000000000000000e+00  0.0000000000000000e+00 0.0000000000000000e+00 0.0000000000000000e+00  0.0000000000000000e+00 0.0000000000000000e+00 0.0000000000000000e+00  -5.5889334344102427e-09 -7.1521930018526542e-10 0.0000000000000000e+00  0.0000000000000000e+00 0.0000000000000000e+00 0.0000000000000000e+00  8.9772686906424907e-09 5.8361164820726106e-09 0.0000000000000000e+00  5.6112582524671775e-08 -1.0917495795274513e-07 0.0000000000000000e+00  -1.3745775152155893e-09 5.2084002719953243e-09 0.0000000000000000e+00  7.6100947651469372e-10 -1.3920578633755124e-08 0.0000000000000000e+00  4.4842530375627594e-10 -8.3755808725743379e-10 0.0000000000000000e+00  1.2703173659425741e-09 1.2792031776114674e-09 0.0000000000000000e+00  -3.2336289394684368e-11 7.6585973885671884e-12 0.0000000000000000e+00  1.8076003434332062e-08 -4.8181434530429402e-08 0.0000000000000000e+00  2.6959141371472628e-09 -9.3685863613995455e-09 0.0000000000000000e+00  0.0000000000000000e+00 0.0000000000000000e+00 0.0000000000000000e+00  2.1196377299911015e-08 -4.5006558942475747e-09 0.0000000000000000e+00  -2.7460800239445837e-08 1.9833724559195318e-09 0.0000000000000000e+00  -4.6860024022803149e-09 -2.5761447793311241e-08 0.0000000000000000e+00  1.1856701589167933e-09 2.6640173818657157e-11 0.0000000000000000e+00  2.5013406226157112e-09 -1.5741028934423334e-10 0.0000000000000000e+00  0.0000000000000000e+00 0.0000000000000000e+00 0.0000000000000000e+00  -3.5531899127542960e-09 0.0000000000000000e+00 0.0000000000000000e+00  0.0000000000000000e+00 0.0000000000000000e+00 0.0000000000000000e+00  1.8896813739466676e-10 0.0000000000000000e+00 0.0000000000000000e+00  -1.0507272760259696e-09 1.0070577009041222e-09 0.0000000000000000e+00  0.0000000000000000e+00 0.0000000000000000e+00 0.0000000000000000e+00  5.2443971918628057e-09 9.2106311504810498e-09 0.0000000000000000e+00  0.0000000000000000e+00 0.0000000000000000e+00 0.0000000000000000e+00  0.0000000000000000e+00 0.0000000000000000e+00 0.0000000000000000e+00  1.8619152944693968e-08 1.6216708911637322e-09 0.0000000000000000e+00  6.2238857872785702e-09 -1.3453377072163585e-08 0.0000000000000000e+00  0.0000000000000000e+00 3.4415538191027130e-09 0.0000000000000000e+00  0.0000000000000000e+00 0.0000000000000000e+00 0.0000000000000000e+00  0.0000000000000000e+00 0.0000000000000000e+00 0.0000000000000000e+00  2.5345442270582996e-08 -1.5176836866395434e-09 0.0000000000000000e+00  1.2589763932147665e-08 1.2636477870332743e-09 0.0000000000000000e+00  -6.5438468997555464e-08 1.8870999325697182e-09 0.0000000000000000e+00  0.0000000000000000e+00 0.0000000000000000e+00 0.0000000000000000e+00  0.0000000000000000e+00 0.0000000000000000e+00 0.0000000000000000e+00  0.0000000000000000e+00 0.0000000000000000e+00 0.0000000000000000e+00  -1.1253826183132848e-08 -6.6235038695054905e-09 0.0000000000000000e+00  5.2009415810132119e-10 -7.7675237063176958e-10 0.0000000000000000e+00  -2.5619164511373749e-09 1.9677050730427263e-08 0.0000000000000000e+00  0.0000000000000000e+00 -8.1188651092609377e-10 0.0000000000000000e+00  0.0000000000000000e+00 0.0000000000000000e+00 0.0000000000000000e+00  0.0000000000000000e+00 0.0000000000000000e+00 0.0000000000000000e+00  1.4550116601704798e-08 -1.0278557213496927e-10 0.0000000000000000e+00  0.0000000000000000e+00 0.0000000000000000e+00 0.0000000000000000e+00  -2.4860721162131657e-09 -7.4238116266759530e-09 0.0000000000000000e+00  -1.8622645103713108e-09 1.1032851989596562e-08 0.0000000000000000e+00  -7.2635707588506500e-08 1.0404913054532720e-07 0.0000000000000000e+00  1.1761021204176439e-09 3.4229458492606279e-10 0.0000000000000000e+00  0.0000000000000000e+00 0.0000000000000000e+00 0.0000000000000000e+00  0.0000000000000000e+00 0.0000000000000000e+00 0.0000000000000000e+00  -1.8906795860090549e-09 -1.6904761605217717e-09 0.0000000000000000e+00  -7.5739448870475886e-09 -4.0568707221159778e-09 0.0000000000000000e+00  0.0000000000000000e+00 -4.9249218684348261e-09 0.0000000000000000e+00  2.7818823455039543e-09 2.9551558451991027e-10 0.0000000000000000e+00  2.8653683599844185e-09 -7.3488123637960482e-09 0.0000000000000000e+00  -3.8643592726471160e-09 -1.3574229291009165e-08 0.0000000000000000e+00  -3.9889733545803023e-08 -1.6693397243643430e-10 0.0000000000000000e+00  1.7427365424027335e-09 1.7233321661097529e-09 0.0000000000000000e+00  0.0000000000000000e+00 1.2118983057749536e-10 0.0000000000000000e+00  -5.1018157051623758e+05 2.9191142913912417e-10 0.0000000000000000e+00  1.0014870395692102e+05 2.0071207017971770e+05 0.0000000000000000e+00  -4.7386248444280163e+03 8.7485039459847461e+05 0.0000000000000000e+00  1.0178447532483087e+05 -9.7557417721099348e+05 0.0000000000000000e+00  -3.2484747074667572e+04 -9.0049666543808056e+05 0.0000000000000000e+00  1.4337662776773735e+06 -8.5072050211541890e+05 0.0000000000000000e+00  4.2911792683360167e+05 -4.0828461331421148e+05 0.0000000000000000e+00  3.0043087256650673e+05 5.8899793666054821e+05 0.0000000000000000e+00  1.8099300176453771e+05 1.6842040650613739e+06 0.0000000000000000e+00  1.7151370142875300e+06 5.3496822334593220e+05 0.0000000000000000e+00  6.9155883119671128e+05 -4.1358505579257186e+05 0.0000000000000000e+00  7.9671707545644557e+05 2.4167870158323893e+05 0.0000000000000000e+00  3.3391650000275776e+05 3.6107500920850493e+05 0.0000000000000000e+00  2.2852811682616611e+05 1.9424808581648272e+05 0.0000000000000000e+00  1.5545748811537074e+04 1.2535636041872768e+05 0.0000000000000000e+00  -1.4138252875678433e+05 3.6097505223145307e+05 0.0000000000000000e+00  4.6215134426693537e+05 1.4296235345729932e+06 0.0000000000000000e+00  -3.5428184518419125e+05 -3.6034627088751248e+05 0.0000000000000000e+00  -8.0570038102549966e+05 -4.9483518634988752e+05 0.0000000000000000e+00  -1.4749817012080524e+05 -7.7292982430270722e+05 0.0000000000000000e+00  3.4846960919622725e+04 -3.8813451938429457e+05 0.0000000000000000e+00  5.0981166188064421e+05 5.4764767502717488e+05 0.0000000000000000e+00  3.1661199972318561e+05 6.9971971262757143e+05 0.0000000000000000e+00  5.7185418284686166e+05 -2.0093305794988948e+05 0.0000000000000000e+00  1.2807425068642532e+05 -4.8756892920038836e+03 0.0000000000000000e+00  -4.7986268980234141e+04 -5.3355417779242573e+05 0.0000000000000000e+00  -7.9731606753139538e+04 3.7092257539226610e+05 0.0000000000000000e+00  -5.1000256685455586e+05 1.5094888807136012e+05 0.0000000000000000e+00  -4.3766910771680460e+05 3.2571451573002170e+05 0.0000000000000000e+00  1.4031708123986362e+05 2.4414738660778583e+05 0.0000000000000000e+00  -2.6538094930642901e+05 -8.4366831513372177e+04 0.0000000000000000e+00  -1.9306119095784306e+05 7.1369381994010109e+03 0.0000000000000000e+00  3.8692392663692986e+05 -4.4064395326836100e+04 0.0000000000000000e+00  -1.4215986895749955e+04 5.5215535773738555e+05 0.0000000000000000e+00  3.1402230042792554e+05 2.5165618574400319e+05 0.0000000000000000e+00  5.3300154926472773e+04 3.5310473533942056e+05 0.0000000000000000e+00  -5.9148295496109378e+04 1.1508820403748118e+05 0.0000000000000000e+00  2.6697212355088291e+05 1.7262015957081796e+04 0.0000000000000000e+00  -1.9220882124892695e+05 2.9658669945342909e+05 0.0000000000000000e+00  1.5488534795930248e+05 3.0187471468212508e+05 0.0000000000000000e+00  -1.6561868817205809e+05 7.4049934656357334e+04 0.0000000000000000e+00  2.0589189357151940e+03 -5.0672343671319063e+05 0.0000000000000000e+00  3.7002162739059466e+04 1.8758180987422299e+05 0.0000000000000000e+00  -1.5268365505946084e+05 8.6014198576588551e+03 0.0000000000000000e+00  1.8062816661293371e+05 1.2794186830662150e+05 0.0000000000000000e+00  -4.3800633999277714e+04 1.5338337451187303e+05 0.0000000000000000e+00  -8.5566203238310511e+04 2.7195483075267443e+05 0.0000000000000000e+00  2.3987701600673428e+05 6.2247435689201811e+04 0.0000000000000000e+00  -2.6392611353246972e+05 1.9256803252939324e+05 0.0000000000000000e+00  1.1244861650327820e+05 -1.7669286809882461e+05 0.0000000000000000e+00  3.1973766458542796e+05 2.6000715401109963e+05 0.0000000000000000e+00  5.3723707558486343e+05 -2.3843701337267461e+05 0.0000000000000000e+00  -2.9196219160837366e+05 -3.7399833921577294e+04 0.0000000000000000e+00  -1.6522467923536929e+05 1.0357540530194294e+05 0.0000000000000000e+00  -1.0512412242844302e+05 9.9906779525058664e+04 0.0000000000000000e+00  7.9112639909608464e+04 1.2266551583186991e+05 0.0000000000000000e+00  -2.2187751372473210e+05 -5.7499992412277358e+05 0.0000000000000000e+00  -2.1815590861627503e+05 -2.1638994615032201e+05 0.0000000000000000e+00  -3.4361613725562085e+05 -3.9181521483979654e+04 0.0000000000000000e+00  -5.0170365948071274e+04 -7.4428092759911233e+04 0.0000000000000000e+00  2.3112708738090924e+05 -2.9742639050876664e+05 0.0000000000000000e+00  -1.4613167810698933e+05 -2.9309211521088926e+05 0.0000000000000000e+00  1.2089661644977461e+05 -3.9711478587452293e+05 0.0000000000000000e+00  -3.0049049664831749e+05 5.5601565513706417e+05 0.0000000000000000e+00  -1.1940055675486464e+05 -1.2556379095316412e+05 0.0000000000000000e+00  7.5642626493573911e+05 6.0441872527086955e+04 0.0000000000000000e+00  4.9709081356325484e+05 2.3595459349927885e+05 0.0000000000000000e+00  -5.9474499548650626e+05 2.8593408826846018e+05 0.0000000000000000e+00  -2.4236744962020774e+05 -2.4521375237409852e+05 0.0000000000000000e+00  6.3965609029336995e+05 1.8258697288134534e+05 0.0000000000000000e+00  5.2780263394428010e+05 -6.4958449952534145e+04 0.0000000000000000e+00  1.7443887065494750e+05 1.1667397153452378e+05 0.0000000000000000e+00  1.3845364560032860e+05 -2.8277995435753174e+05 0.0000000000000000e+00  1.3775219179649247e+05 4.6709155572873494e+05 0.0000000000000000e+00  -1.2734827947214007e+05 -6.1082948253960400e+04 0.0000000000000000e+00  -8.4781294889565161e+03 -2.8265143532374594e+05 0.0000000000000000e+00  -3.0416912667378492e+05 2.4915286992957335e+04 0.0000000000000000e+00  -3.9226781864313199e+05 1.0700192217984350e+05 0.0000000000000000e+00  1.6052980184820821e+05 2.0009512712133370e+05 0.0000000000000000e+00  2.0175238471411788e+05 -2.6292644774983310e+04 0.0000000000000000e+00  -5.8258165798398419e+04 1.8225976485698343e-10 0.0000000000000000e+00  2.7691557427965465e+05 -1.0748370573260591e-10 0.0000000000000000e+00  -1.4067032707987700e+06 -6.7561866847127175e+05 0.0000000000000000e+00  9.6181111085164081e+05 -3.5567264255123527e+05 0.0000000000000000e+00  3.4983057505718770e+05 -1.1605783260788773e+06 0.0000000000000000e+00  1.5492349140866285e+06 -1.0284990104286029e+06 0.0000000000000000e+00  1.0182725940305842e+06 -1.4581459972603960e+05 0.0000000000000000e+00  7.0129836816461990e+05 4.9344974860859889e+04 0.0000000000000000e+00  -4.1501868641397805e+05 2.8972015825988905e+05 0.0000000000000000e+00  3.0096156277618383e+05 6.9276035482255626e+05 0.0000000000000000e+00  -1.1169756069372501e+05 9.4740184214194992e+05 0.0000000000000000e+00  1.0041519524720140e+06 -1.1300002083311584e+05 0.0000000000000000e+00  2.9719296442553867e+05 1.1369810850960344e+05 0.0000000000000000e+00  9.9339569240248005e+05 1.1842437025218692e+06 0.0000000000000000e+00  2.3233888465897611e+05 -2.8274020835077186e+05 0.0000000000000000e+00  1.1435953871766408e+05 1.2222579843501628e+04 0.0000000000000000e+00  1.2129455775081082e+06 1.1205474230708950e+06 0.0000000000000000e+00  -1.1598611285876164e+06 5.5660719927038706e+05 0.0000000000000000e+00  -8.1854829250998457e+05 1.1517093692704427e+05 0.0000000000000000e+00  -3.8130120000157168e+05 -7.6467803576272901e+05 0.0000000000000000e+00  6.2128049622087344e+05 2.5336711567490597e+05 0.0000000000000000e+00  4.3129024889025348e+05 -3.2031148403545059e+04 0.0000000000000000e+00  1.7561461784624521e+05 1.0611492474783848e+05 0.0000000000000000e+00  3.1961069811302924e+05 3.8554717617595382e+05 0.0000000000000000e+00  1.5681174291341225e+05 -5.9825937681219555e+04 0.0000000000000000e+00  1.5469403122780824e+05 -1.1085645555842324e+05 0.0000000000000000e+00  5.6082177604645782e+05 1.3097015533579030e+05 0.0000000000000000e+00  -2.0361068808639076e+05 5.5431449217133084e+05 0.0000000000000000e+00  -2.4454293354389904e+05 -1.7908163140807304e+05 0.0000000000000000e+00  -1.3200770915152092e+05 -2.6986232021283894e+05 0.0000000000000000e+00  -2.9467358269401977e+05 -2.2544558622105033e+05 0.0000000000000000e+00  3.0208435106044705e+05 2.7542840760534356e+05 0.0000000000000000e+00  1.3782945617674096e+05 2.0753791750149446e+05 0.0000000000000000e+00  5.9696731055705505e+05 -7.4297762058381492e+05 0.0000000000000000e+00  3.5132941107771388e+05 -3.5086792089894862e+05 0.0000000000000000e+00  5.9918425756357494e+05 -2.6089518140596178e+05 0.0000000000000000e+00  9.4227208469529563e+04 2.2846173594269890e+05 0.0000000000000000e+00  1.2027601867083889e+05 3.1532506176643493e+05 0.0000000000000000e+00  5.6860137871644532e+04 -8.7167859896837355e+04 0.0000000000000000e+00  4.0656027231107879e+05 1.1987533433400093e+05 0.0000000000000000e+00  2.8056541942777048e+05 7.8027947425013955e+05 0.0000000000000000e+00  3.7245085028784542e+05 -4.5881186366174028e+04 0.0000000000000000e+00  3.4440623427052016e+05 3.4050900633995008e+05 0.0000000000000000e+00  -2.5883032181769164e+05 5.5362772863074126e+04 0.0000000000000000e+00  -2.4698857198410798e+05 -3.3391560650046507e+04 0.0000000000000000e+00  1.3355843018690503e+05 5.6136516922046540e+04 0.0000000000000000e+00  2.5349041212437890e+05 1.2081293037873259e+05 0.0000000000000000e+00  -3.5836306708649849e+04 -4.3464707929191919e+05 0.0000000000000000e+00  -3.1352883732509782e+05 3.7944495820601337e+05 0.0000000000000000e+00  2.0548310717018510e+05 -2.4720720723832160e+05 0.0000000000000000e+00  9.5712642209329817e+04 1.2807386264636368e+05 0.0000000000000000e+00  6.1657440013766136e+04 1.8222668358310388e+04 0.0000000000000000e+00  1.7448749127568246e+05 -1.9609897837617234e+05 0.0000000000000000e+00  -1.1768816142230613e+05 2.9879418466093903e+05 0.0000000000000000e+00  -5.6956282938557293e+05 1.3719159656009974e+05 0.0000000000000000e+00  4.6060639275545327e+04 8.5430902663724308e+04 0.0000000000000000e+00  -3.0147474486676644e+05 -2.5908648625866984e+05 0.0000000000000000e+00  8.9569562122652322e+04 1.7747880536135621e+05 0.0000000000000000e+00  1.0822401612603579e+05 -4.7339507790233532e+05 0.0000000000000000e+00  -1.6357482985870988e+05 -3.6792169976369027e+04 0.0000000000000000e+00  2.6712295076122013e+05 -5.4395334947546816e+05 0.0000000000000000e+00  -2.7635092455900030e+05 5.3954569469694991e+05 0.0000000000000000e+00  4.4966302970823250e+05 -1.8423777797999594e+05 0.0000000000000000e+00  1.6520986442651608e+05 -1.1586549249131224e+05 0.0000000000000000e+00  4.0442278819592681e+05 -1.7450376113276999e+05 0.0000000000000000e+00  1.5269429236247035e+05 -6.9866255002841982e+05 0.0000000000000000e+00  1.1819097271361390e+04 -7.7063658260788489e+05 0.0000000000000000e+00  4.2962882426580216e+05 1.3957149066403785e+05 0.0000000000000000e+00  7.6139389323217957e+05 1.1741978152441596e+05 0.0000000000000000e+00  -9.6819466365522635e+05 -3.1054289915381972e+05 0.0000000000000000e+00  2.0270496647191023e+04 -3.1949010114074161e+05 0.0000000000000000e+00  -3.6890349999857327e+05 1.0622831640734027e+05 0.0000000000000000e+00  6.7211972263625741e+05 -3.8027936684447253e+05 0.0000000000000000e+00  -1.7580503320153980e+05 2.5541153729737940e+05 0.0000000000000000e+00  -9.6354727003474312e+04 -1.4532193779531057e+05 0.0000000000000000e+00  -4.8284910134989501e+05 -7.8404824086909648e+04 0.0000000000000000e+00  4.8020449268296437e+05 -1.1392605369547861e+05 0.0000000000000000e+00  -4.4353729423042503e+05 -3.4672379246296978e+05 0.0000000000000000e+00  -6.4271786756076457e+04 -1.6347324002795498e+05 0.0000000000000000e+00  4.7126705100756823e+04 1.1043680516300855e+05 0.0000000000000000e+00  3.6442139574886336e+04 2.0232027961143854e+05 0.0000000000000000e+00  1.4330423680734326e+05 -3.0072913614949451e-10 0.0000000000000000e+00  -3.0499371613973263e+05 3.4609690852662952e-10 0.0000000000000000e+00  -7.0394926682518050e+05 -1.3030462979280916e+06 0.0000000000000000e+00  -1.2301822535685084e+06 -7.4940407255357888e+04 0.0000000000000000e+00  2.1322866769671445e+06 -1.0078702367577843e+06 0.0000000000000000e+00  -3.4288757108014304e+05 -7.1994956995297503e+05 0.0000000000000000e+00  4.3006078361161135e+05 -1.1194214765626232e+06 0.0000000000000000e+00  5.1201002740108134e+05 -6.4145835783893929e+05 0.0000000000000000e+00  2.5130574660398878e+05 -2.5528873433548219e+04 0.0000000000000000e+00  9.0473111141984386e+05 3.1593038672899589e+05 0.0000000000000000e+00  6.8044385573653108e+05 7.0741334931128169e+05 0.0000000000000000e+00  -6.1222680352833681e+05 -2.9253239831272152e+05 0.0000000000000000e+00  2.6686767024380487e+05 -8.1118032851573545e+05 0.0000000000000000e+00  7.1904770825490810e+05 5.9207794182582374e+05 0.0000000000000000e+00  3.5661962278295634e+05 1.5093926639812347e+05 0.0000000000000000e+00  1.8612845499643279e+05 -8.6125147634291090e+05 0.0000000000000000e+00  1.6739769786994436e+05 -4.4962543443300274e+03 0.0000000000000000e+00  2.8040481924637727e+05 6.3877448401136254e+05 0.0000000000000000e+00  -3.2191402159203193e+05 -3.5261947501958208e+05 0.0000000000000000e+00  1.4187163866873356e+05 -1.0064101007394133e+06 0.0000000000000000e+00  3.5760819593024784e+05 3.4298225876671448e+05 0.0000000000000000e+00  1.9783869327266960e+05 -2.0728705802550944e+05 0.0000000000000000e+00  -9.2577171719407255e+04 -2.1840763855702122e+05 0.0000000000000000e+00  1.1167397337166363e+05 -2.6666400533503765e+04 0.0000000000000000e+00  8.5998131371230425e+04 3.1794405613473785e+05 0.0000000000000000e+00  6.3446714049804630e+05 -5.3118339745833166e+05 0.0000000000000000e+00  2.4020480599187050e+05 -5.8313390916531300e+05 0.0000000000000000e+00  -1.9851872325392932e+05 7.6936254595695785e+05 0.0000000000000000e+00  1.4458273434207966e+04 -9.9734160367765318e+04 0.0000000000000000e+00  7.8594401444779977e+05 3.6361957889482478e+05 0.0000000000000000e+00  5.5060079538060387e+05 -3.4964343928513484e+05 0.0000000000000000e+00  2.2583268636723884e+05 3.7584762059351226e+04 0.0000000000000000e+00  2.6613640784299612e+05 -2.3848804881582898e+05 0.0000000000000000e+00  1.2613862009926539e+05 2.3177986345479338e+05 0.0000000000000000e+00  8.6158291129487450e+04 -9.2008290639592058e+04 0.0000000000000000e+00  -1.4713628772317612e+05 -1.2621836254220709e+05 0.0000000000000000e+00  1.5408744961974552e+05 3.2167197299803254e+04 0.0000000000000000e+00  -1.0976389435673427e+04 4.0290148340812064e+05 0.0000000000000000e+00  5.2543233912929462e+05 7.1261796855509252e+04 0.0000000000000000e+00  2.