<?xml version="1.0"?>
<VTKFile type="UnstructuredGrid"  version="0.1"  >
<UnstructuredGrid>
<Piece  NumberOfPoints="1369" NumberOfCells="2560">
<Points>
<DataArray  type="Float64"  NumberOfComponents="3"  format="ascii">0 0 0  0.75 0 0  1.5 0 0  2.25 0 0  3 0 0  3.75 0 0  4.5 0 0  5.25 0 0  6 0 0  6.75 0 0  7.5 0 0  8.25 0 0  9 0 0  9.75 0 0  10.5 0 0  11.25 0 0  12 0 0  12.75 0 0  13.5 0 0  14.25 0 0  15 0 0  15.75 0 0  16.5 0 0  17.25 0 0  18 0 0  18.75 0 0  19.5 0 0  20.25 0 0  21 0 0  21.75 0 0  22.5 0 0  23.25 0 0  24 0 0  24.75 0 0  25.5 0 0  26.25 0 0  27 0 0  27.75 0 0  28.5 0 0  29.25 0 0  30 0 0  30.75 0 0  31.5 0 0  32.25 0 0  33 0 0  33.75 0 0  34.5 0 0  35.25 0 0  36 0 0  36.75 0 0  37.5 0 0  38.25 0 0  39 0 0  39.75 0 0  40.5 0 0  41.25 0 0  42 0 0  42.75 0 0  43.5 0 0  44.25 0 0  45 0 0  45.75 0 0  46.5 0 0  47.25 0 0  48 0 0  48.75 0 0  49.5 0 0  50.25 0 0  51 0 0  51.75 0 0  52.5 0 0  53.25 0 0  54 0 0  54.75 0 0  55.5 0 0  56.25 0 0  57 0 0  57.75 0 0  58.5 0 0  59.25 0 0  60 0 0  0 0.5 0  0.75 0.5 0  1.5 0.5 0  2.25 0.5 0  3 0.5 0  3.75 0.5 0  4.5 0.5 0  5.25 0.5 0  6 0.5 0  6.75 0.5 0  7.5 0.5 0  8.25 0.5 0  9 0.5 0  9.75 0.5 0  10.5 0.5 0  11.25 0.5 0  12 0.5 0  12.75 0.5 0  13.5 0.5 0  14.25 0.5 0  15 0.5 0  15.75 0.5 0  16.5 0.5 0  17.25 0.5 0  18 0.5 0  18.75 0.5 0  19.5 0.5 0  20.25 0.5 0  21 0.5 0  21.75 0.5 0  22.5 0.5 0  23.25 0.5 0  24 0.5 0  24.75 0.5 0  25.5 0.5 0  26.25 0.5 0  27 0.5 0  27.75 0.5 0  28.5 0.5 0  29.25 0.5 0  30 0.5 0  30.75 0.5 0  31.5 0.5 0  32.25 0.5 0  33 0.5 0  33.75 0.5 0  34.5 0.5 0  35.25 0.5 0  36 0.5 0  36.75 0.5 0  37.5 0.5 0  38.25 0.5 0  39 0.5 0  39.75 0.5 0  40.5 0.5 0  41.25 0.5 0  42 0.5 0  42.75 0.5 0  43.5 0.5 0  44.25 0.5 0  45 0.5 0  45.75 0.5 0  46.5 0.5 0  47.25 0.5 0  48 0.5 0  48.75 0.5 0  49.5 0.5 0  50.25 0.5 0  51 0.5 0  51.75 0.5 0  52.5 0.5 0  53.25 0.5 0  54 0.5 0  54.75 0.5 0  55.5 0.5 0  56.25 0.5 0  57 0.5 0  57.75 0.5 0  58.5 0.5 0  59.25 0.5 0  60 0.5 0  0 1 0  0.75 1 0  1.5 1 0  2.25 1 0  3 1 0  3.75 1 0  4.5 1 0  5.25 1 0  6 1 0  6.75 1 0  7.5 1 0  8.25 1 0  9 1 0  9.75 1 0  10.5 1 0  11.25 1 0  12 1 0  12.75 1 0  13.5 1 0  14.25 1 0  15 1 0  15.75 1 0  16.5 1 0  17.25 1 0  18 1 0  18.75 1 0  19.5 1 0  20.25 1 0  21 1 0  21.75 1 0  22.5 1 0  23.25 1 0  24 1 0  24.75 1 0  25.5 1 0  26.25 1 0  27 1 0  27.75 1 0  28.5 1 0  29.25 1 0  30 1 0  30.75 1 0  31.5 1 0  32.25 1 0  33 1 0  33.75 1 0  34.5 1 0  35.25 1 0  36 1 0  36.75 1 0  37.5 1 0  38.25 1 0  39 1 0  39.75 1 0  40.5 1 0  41.25 1 0  42 1 0  42.75 1 0  43.5 1 0  44.25 1 0  45 1 0  45.75 1 0  46.5 1 0  47.25 1 0  48 1 0  48.75 1 0  49.5 1 0  50.25 1 0  51 1 0  51.75 1 0  52.5 1 0  53.25 1 0  54 1 0  54.75 1 0  55.5 1 0  56.25 1 0  57 1 0  57.75 1 0  58.5 1 0  59.25 1 0  60 1 0  0 1.5 0  0.75 1.5 0  1.5 1.5 0  2.25 1.5 0  3 1.5 0  3.75 1.5 0  4.5 1.5 0  5.25 1.5 0  6 1.5 0  6.75 1.5 0  7.5 1.5 0  8.25 1.5 0  9 1.5 0  9.75 1.5 0  10.5 1.5 0  11.25 1.5 0  12 1.5 0  12.75 1.5 0  13.5 1.5 0  14.25 1.5 0  15 1.5 0  15.75 1.5 0  16.5 1.5 0  17.25 1.5 0  18 1.5 0  18.75 1.5 0  19.5 1.5 0  20.25 1.5 0  21 1.5 0  21.75 1.5 0  22.5 1.5 0  23.25 1.5 0  24 1.5 0  24.75 1.5 0  25.5 1.5 0  26.25 1.5 0  27 1.5 0  27.75 1.5 0  28.5 1.5 0  29.25 1.5 0  30 1.5 0  30.75 1.5 0  31.5 1.5 0  32.25 1.5 0  33 1.5 0  33.75 1.5 0  34.5 1.5 0  35.25 1.5 0  36 1.5 0  36.75 1.5 0  37.5 1.5 0  38.25 1.5 0  39 1.5 0  39.75 1.5 0  40.5 1.5 0  41.25 1.5 0  42 1.5 0  42.75 1.5 0  43.5 1.5 0  44.25 1.5 0  45 1.5 0  45.75 1.5 0  46.5 1.5 0  47.25 1.5 0  48 1.5 0  48.75 1.5 0  49.5 1.5 0  50.25 1.5 0  51 1.5 0  51.75 1.5 0  52.5 1.5 0  53.25 1.5 0  54 1.5 0  54.75 1.5 0  55.5 1.5 0  56.25 1.5 0  57 1.5 0  57.75 1.5 0  58.5 1.5 0  59.25 1.5 0  60 1.5 0  0 2 0  0.75 2 0  1.5 2 0  2.25 2 0  3 2 0  3.75 2 0  4.5 2 0  5.25 2 0  6 2 0  6.75 2 0  7.5 2 0  8.25 2 0  9 2 0  9.75 2 0  10.5 2 0  11.25 2 0  12 2 0  12.75 2 0  13.5 2 0  14.25 2 0  15 2 0  15.75 2 0  16.5 2 0  17.25 2 0  18 2 0  18.75 2 0  19.5 2 0  20.25 2 0  21 2 0  21.75 2 0  22.5 2 0  23.25 2 0  24 2 0  24.75 2 0  25.5 2 0  26.25 2 0  27 2 0  27.75 2 0  28.5 2 0  29.25 2 0  30 2 0  30.75 2 0  31.5 2 0  32.25 2 0  33 2 0  33.75 2 0  34.5 2 0  35.25 2 0  36 2 0  36.75 2 0  37.5 2 0  38.25 2 0  39 2 0  39.75 2 0  40.5 2 0  41.25 2 0  42 2 0  42.75 2 0  43.5 2 0  44.25 2 0  45 2 0  45.75 2 0  46.5 2 0  47.25 2 0  48 2 0  48.75 2 0  49.5 2 0  50.25 2 0  51 2 0  51.75 2 0  52.5 2 0  53.25 2 0  54 2 0  54.75 2 0  55.5 2 0  56.25 2 0  57 2 0  57.75 2 0  58.5 2 0  59.25 2 0  60 2 0  0 2.5 0  0.75 2.5 0  1.5 2.5 0  2.25 2.5 0  3 2.5 0  3.75 2.5 0  4.5 2.5 0  5.25 2.5 0  6 2.5 0  6.75 2.5 0  7.5 2.5 0  8.25 2.5 0  9 2.5 0  9.75 2.5 0  10.5 2.5 0  11.25 2.5 0  12 2.5 0  12.75 2.5 0  13.5 2.5 0  14.25 2.5 0  15 2.5 0  15.75 2.5 0  16.5 2.5 0  17.25 2.5 0  18 2.5 0  18.75 2.5 0  19.5 2.5 0  20.25 2.5 0  21 2.5 0  21.75 2.5 0  22.5 2.5 0  23.25 2.5 0  24 2.5 0  24.75 2.5 0  25.5 2.5 0  26.25 2.5 0  27 2.5 0  27.75 2.5 0  28.5 2.5 0  29.25 2.5 0  30 2.5 0  30.75 2.5 0  31.5 2.5 0  32.25 2.5 0  33 2.5 0  33.75 2.5 0  34.5 2.5 0  35.25 2.5 0  36 2.5 0  36.75 2.5 0  37.5 2.5 0  38.25 2.5 0  39 2.5 0  39.75 2.5 0  40.5 2.5 0  41.25 2.5 0  42 2.5 0  42.75 2.5 0  43.5 2.5 0  44.25 2.5 0  45 2.5 0  45.75 2.5 0  46.5 2.5 0  47.25 2.5 0  48 2.5 0  48.75 2.5 0  49.5 2.5 0  50.25 2.5 0  51 2.5 0  51.75 2.5 0  52.5 2.5 0  53.25 2.5 0  54 2.5 0  54.75 2.5 0  55.5 2.5 0  56.25 2.5 0  57 2.5 0  57.75 2.5 0  58.5 2.5 0  59.25 2.5 0  60 2.5 0  0 3 0  0.75 3 0  1.5 3 0  2.25 3 0  3 3 0  3.75 3 0  4.5 3 0  5.25 3 0  6 3 0  6.75 3 0  7.5 3 0  8.25 3 0  9 3 0  9.75 3 0  10.5 3 0  11.25 3 0  12 3 0  12.75 3 0  13.5 3 0  14.25 3 0  15 3 0  15.75 3 0  16.5 3 0  17.25 3 0  18 3 0  18.75 3 0  19.5 3 0  20.25 3 0  21 3 0  21.75 3 0  22.5 3 0  23.25 3 0  24 3 0  24.75 3 0  25.5 3 0  26.25 3 0  27 3 0  27.75 3 0  28.5 3 0  29.25 3 0  30 3 0  30.75 3 0  31.5 3 0  32.25 3 0  33 3 0  33.75 3 0  34.5 3 0  35.25 3 0  36 3 0  36.75 3 0  37.5 3 0  38.25 3 0  39 3 0  39.75 3 0  40.5 3 0  41.25 3 0  42 3 0  42.75 3 0  43.5 3 0  44.25 3 0  45 3 0  45.75 3 0  46.5 3 0  47.25 3 0  48 3 0  48.75 3 0  49.5 3 0  50.25 3 0  51 3 0  51.75 3 0  52.5 3 0  53.25 3 0  54 3 0  54.75 3 0  55.5 3 0  56.25 3 0  57 3 0  57.75 3 0  58.5 3 0  59.25 3 0  60 3 0  0 3.5 0  0.75 3.5 0  1.5 3.5 0  2.25 3.5 0  3 3.5 0  3.75 3.5 0  4.5 3.5 0  5.25 3.5 0  6 3.5 0  6.75 3.5 0  7.5 3.5 0  8.25 3.5 0  9 3.5 0  9.75 3.5 0  10.5 3.5 0  11.25 3.5 0  12 3.5 0  12.75 3.5 0  13.5 3.5 0  14.25 3.5 0  15 3.5 0  15.75 3.5 0  16.5 3.5 0  17.25 3.5 0  18 3.5 0  18.75 3.5 0  19.5 3.5 0  20.25 3.5 0  21 3.5 0  21.75 3.5 0  22.5 3.5 0  23.25 3.5 0  24 3.5 0  24.75 3.5 0  25.5 3.5 0  26.25 3.5 0  27 3.5 0  27.75 3.5 0  28.5 3.5 0  29.25 3.5 0  30 3.5 0  30.75 3.5 0  31.5 3.5 0  32.25 3.5 0  33 3.5 0  33.75 3.5 0  34.5 3.5 0  35.25 3.5 0  36 3.5 0  36.75 3.5 0  37.5 3.5 0  38.25 3.5 0  39 3.5 0  39.75 3.5 0  40.5 3.5 0  41.25 3.5 0  42 3.5 0  42.75 3.5 0  43.5 3.5 0  44.25 3.5 0  45 3.5 0  45.75 3.5 0  46.5 3.5 0  47.25 3.5 0  48 3.5 0  48.75 3.5 0  49.5 3.5 0  50.25 3.5 0  51 3.5 0  51.75 3.5 0  52.5 3.5 0  53.25 3.5 0  54 3.5 0  54.75 3.5 0  55.5 3.5 0  56.25 3.5 0  57 3.5 0  57.75 3.5 0  58.5 3.5 0  59.25 3.5 0  60 3.5 0  0 4 0  0.75 4 0  1.5 4 0  2.25 4 0  3 4 0  3.75 4 0  4.5 4 0  5.25 4 0  6 4 0  6.75 4 0  7.5 4 0  8.25 4 0  9 4 0  9.75 4 0  10.5 4 0  11.25 4 0  12 4 0  12.75 4 0  13.5 4 0  14.25 4 0  15 4 0  15.75 4 0  16.5 4 0  17.25 4 0  18 4 0  18.75 4 0  19.5 4 0  20.25 4 0  21 4 0  21.75 4 0  22.5 4 0  23.25 4 0  24 4 0  24.75 4 0  25.5 4 0  26.25 4 0  27 4 0  27.75 4 0  28.5 4 0  29.25 4 0  30 4 0  30.75 4 0  31.5 4 0  32.25 4 0  33 4 0  33.75 4 0  34.5 4 0  35.25 4 0  36 4 0  36.75 4 0  37.5 4 0  38.25 4 0  39 4 0  39.75 4 0  40.5 4 0  41.25 4 0  42 4 0  42.75 4 0  43.5 4 0  44.25 4 0  45 4 0  45.75 4 0  46.5 4 0  47.25 4 0  48 4 0  48.75 4 0  49.5 4 0  50.25 4 0  51 4 0  51.75 4 0  52.5 4 0  53.25 4 0  54 4 0  54.75 4 0  55.5 4 0  56.25 4 0  57 4 0  57.75 4 0  58.5 4 0  59.25 4 0  60 4 0  0.375 0.25 0  1.125 0.25 0  1.875 0.25 0  2.625 0.25 0  3.375 0.25 0  4.125 0.25 0  4.875 0.25 0  5.625 0.25 0  6.375 0.25 0  7.125 0.25 0  7.875 0.25 0  8.625 0.25 0  9.375 0.25 0  10.125 0.25 0  10.875 0.25 0  11.625 0.25 0  12.375 0.25 0  13.125 0.25 0  13.875 0.25 0  14.625 0.25 0  15.375 0.25 0  16.125 0.25 0  16.875 0.25 0  17.625 0.25 0  18.375 0.25 0  19.125 0.25 0  19.875 0.25 0  20.625 0.25 0  21.375 0.25 0  22.125 0.25 0  22.875 0.25 0  23.625 0.25 0  24.375 0.25 0  25.125 0.25 0  25.875 0.25 0  26.625 0.25 0  27.375 0.25 0  28.125 0.25 0  28.875 0.25 0  29.625 0.25 0  30.375 0.25 0  31.125 0.25 0  31.875 0.25 0  32.625 0.25 0  33.375 0.25 0  34.125 0.25 0  34.875 0.25 0  35.625 0.25 0  36.375 0.25 0  37.125 0.25 0  37.875 0.25 0  38.625 0.25 0  39.375 0.25 0  40.125 0.25 0  40.875 0.25 0  41.625 0.25 0  42.375 0.25 0  43.125 0.25 0  43.875 0.25 0  44.625 0.25 0  45.375 0.25 0  46.125 0.25 0  46.875 0.25 0  47.625 0.25 0  48.375 0.25 0  49.125 0.25 0  49.875 0.25 0  50.625 0.25 0  51.375 0.25 0  52.125 0.25 0  52.875 0.25 0  53.625 0.25 0  54.375 0.25 0  55.125 0.25 0  55.875 0.25 0  56.625 0.25 0  57.375 0.25 0  58.125 0.25 0  58.875 0.25 0  59.625 0.25 0  0.375 0.75 0  1.125 0.75 0  1.875 0.75 0  2.625 0.75 0  3.375 0.75 0  4.125 0.75 0  4.875 0.75 0  5.625 0.75 0  6.375 0.75 0  7.125 0.75 0  7.875 0.75 0  8.625 0.75 0  9.375 0.75 0  10.125 0.75 0  10.875 0.75 0  11.625 0.75 0  12.375 0.75 0  13.125 0.75 0  13.875 0.75 0  14.625 0.75 0  15.375 0.75 0  16.125 0.75 0  16.875 0.75 0  17.625 0.75 0  18.375 0.75 0  19.125 0.75 0  19.875 0.75 0  20.625 0.75 0  21.375 0.75 0  22.125 0.75 0  22.875 0.75 0  23.625 0.75 0  24.375 0.75 0  25.125 0.75 0  25.875 0.75 0  26.625 0.75 0  27.375 0.75 0  28.125 0.75 0  28.875 0.75 0  29.625 0.75 0  30.375 0.75 0  31.125 0.75 0  31.875 0.75 0  32.625 0.75 0  33.375 0.75 0  34.125 0.75 0  34.875 0.75 0  35.625 0.75 0  36.375 0.75 0  37.125 0.75 0  37.875 0.75 0  38.625 0.75 0  39.375 0.75 0  40.125 0.75 0  40
[...]
<PointData  Vectors="f_8-0"> 
<DataArray  type="Float64"  Name="f_8-0"  NumberOfComponents="3" format="ascii">-4.7574350248922719e-11 -1.2020800148575888e-11 0.0000000000000000e+00  0.0000000000000000e+00 0.0000000000000000e+00 0.0000000000000000e+00  1.4384019585080217e-09 -3.0085435599507736e-08 0.0000000000000000e+00  0.0000000000000000e+00 0.0000000000000000e+00 0.0000000000000000e+00  0.0000000000000000e+00 0.0000000000000000e+00 0.0000000000000000e+00  0.0000000000000000e+00 0.0000000000000000e+00 0.0000000000000000e+00  0.0000000000000000e+00 0.0000000000000000e+00 0.0000000000000000e+00  -7.4573415661439921e-09 -3.7221856161687229e-08 0.0000000000000000e+00  0.0000000000000000e+00 0.0000000000000000e+00 0.0000000000000000e+00  0.0000000000000000e+00 0.0000000000000000e+00 0.0000000000000000e+00  -1.5550771472290521e-08 -2.9835856376051341e-07 0.0000000000000000e+00  -3.3089335596685878e-08 1.2347386484492708e-08 0.0000000000000000e+00  1.8929313118725519e-08 4.4546094726898910e-08 0.0000000000000000e+00  4.0083074632944731e-09 -8.4105175465825250e-08 0.0000000000000000e+00  -1.0936037966070029e-08 1.1984351977628475e-08 0.0000000000000000e+00  1.2621938045809411e-07 4.2602322934779987e-09 0.0000000000000000e+00  -1.7179419062656399e-08 1.0137336871758434e-08 0.0000000000000000e+00  5.6975711372734248e-09 1.0434002865678046e-07 0.0000000000000000e+00  -2.9176140679465278e-09 -8.1651737386789216e-10 0.0000000000000000e+00  3.9628280708035273e-09 0.0000000000000000e+00 0.0000000000000000e+00  0.0000000000000000e+00 0.0000000000000000e+00 0.0000000000000000e+00  -1.3821417472171246e-08 1.4475197326205236e-08 0.0000000000000000e+00  0.0000000000000000e+00 0.0000000000000000e+00 0.0000000000000000e+00  0.0000000000000000e+00 -6.5415137607514453e-10 0.0000000000000000e+00  0.0000000000000000e+00 0.0000000000000000e+00 0.0000000000000000e+00  0.0000000000000000e+00 0.0000000000000000e+00 0.0000000000000000e+00  -2.1653882374091799e-08 7.6720458497601554e-09 0.0000000000000000e+00  0.0000000000000000e+00 -8.1057592128305870e-10 0.0000000000000000e+00  3.2304838261398431e-09 1.5990794533694979e-10 0.0000000000000000e+00  -9.9238275933724897e-10 1.2638960414822939e-09 0.0000000000000000e+00  1.1748095198766534e-08 1.2999895878754593e-08 0.0000000000000000e+00  6.8947762698633036e-09 -7.5906941313365526e-10 0.0000000000000000e+00  0.0000000000000000e+00 0.0000000000000000e+00 0.0000000000000000e+00  9.4524325973998767e-09 6.6410559122740047e-10 0.0000000000000000e+00  3.4952235169651329e-08 4.4719057995530575e-08 0.0000000000000000e+00  0.0000000000000000e+00 3.5626521997621376e-10 0.0000000000000000e+00  -3.2368398848382089e-08 4.2895142919280848e-08 0.0000000000000000e+00  7.7843430289550179e-09 4.9372603585893044e-08 0.0000000000000000e+00  0.0000000000000000e+00 0.0000000000000000e+00 0.0000000000000000e+00  0.0000000000000000e+00 1.2740879642208809e-10 0.0000000000000000e+00  0.0000000000000000e+00 -6.2324075079233877e-10 0.0000000000000000e+00  4.4974594349412610e-09 2.6687660445710667e-08 0.0000000000000000e+00  0.0000000000000000e+00 0.0000000000000000e+00 0.0000000000000000e+00  -7.7176520272439424e-10 -1.1716517132286344e-09 0.0000000000000000e+00  1.6558883722193809e-08 -4.1062439103762838e-08 0.0000000000000000e+00  0.0000000000000000e+00 0.0000000000000000e+00 0.0000000000000000e+00  0.0000000000000000e+00 0.0000000000000000e+00 0.0000000000000000e+00  4.5911516858695912e-09 -1.1429826342532745e-09 0.0000000000000000e+00  0.0000000000000000e+00 3.3144809908324983e-10 0.0000000000000000e+00  0.0000000000000000e+00 0.0000000000000000e+00 0.0000000000000000e+00  -2.1973583190067293e-09 -4.1183421335374117e-09 0.0000000000000000e+00  -2.5061496257937197e-08 2.6158853837811541e-09 0.0000000000000000e+00  3.3901169175387338e-09 -6.6990603915481393e-09 0.0000000000000000e+00  0.0000000000000000e+00 4.2867010713659923e-10 0.0000000000000000e+00  -3.6815031004070724e-09 -2.7336108105634938e-09 0.0000000000000000e+00  1.0017859217095022e-07 3.6795652347942103e-07 0.0000000000000000e+00  6.9820493206536164e-09 2.2297396063202718e-08 0.0000000000000000e+00  0.0000000000000000e+00 1.5078659513732659e-09 0.0000000000000000e+00  0.0000000000000000e+00 4.4944950475745570e-10 0.0000000000000000e+00  -4.3480088360499652e-09 6.4972055889538082e-09 0.0000000000000000e+00  5.9323456888960623e-09 3.5933073931731670e-09 0.0000000000000000e+00  0.0000000000000000e+00 0.0000000000000000e+00 0.0000000000000000e+00  0.0000000000000000e+00 0.0000000000000000e+00 0.0000000000000000e+00  -4.3034045617037798e-09 -1.0076928622702530e-08 0.0000000000000000e+00  6.8347644733769702e-09 -4.5669409026795505e-09 0.0000000000000000e+00  0.0000000000000000e+00 0.0000000000000000e+00 0.0000000000000000e+00  0.0000000000000000e+00 0.0000000000000000e+00 0.0000000000000000e+00  0.0000000000000000e+00 0.0000000000000000e+00 0.0000000000000000e+00  0.0000000000000000e+00 -7.2186599304295070e-10 0.0000000000000000e+00  -2.8586837760949046e-08 -1.2081700371725526e-08 0.0000000000000000e+00  0.0000000000000000e+00 -2.9329146183708637e-10 0.0000000000000000e+00  -5.7857679308200719e-10 9.3234743026143965e-10 0.0000000000000000e+00  -2.8612423923140017e-10 1.7016163560555227e-09 0.0000000000000000e+00  9.0675352622277559e-10 0.0000000000000000e+00 0.0000000000000000e+00  0.0000000000000000e+00 0.0000000000000000e+00 0.0000000000000000e+00  0.0000000000000000e+00 -5.0231282329092384e-09 0.0000000000000000e+00  4.7362894501423783e-09 1.6972138044809852e-08 0.0000000000000000e+00  0.0000000000000000e+00 1.5813911441417911e-10 0.0000000000000000e+00  0.0000000000000000e+00 0.0000000000000000e+00 0.0000000000000000e+00  0.0000000000000000e+00 0.0000000000000000e+00 0.0000000000000000e+00  2.4967725048420988e-10 2.5834134634269539e-10 0.0000000000000000e+00  -3.1638319932494080e+05 -9.9046180075549212e-11 0.0000000000000000e+00  2.5865488275090387e+05 1.6185734447435825e+05 0.0000000000000000e+00  1.5532093109532827e+04 8.0878593085740914e+05 0.0000000000000000e+00  6.9928065229882297e+04 -9.7770406425505760e+05 0.0000000000000000e+00  -3.3653948098489222e+04 -9.4436805453934998e+05 0.0000000000000000e+00  1.4338440870190908e+06 -8.3272568529499951e+05 0.0000000000000000e+00  3.5996969266000669e+05 -4.2861414841579110e+05 0.0000000000000000e+00  2.2425199752551698e+05 6.5786288823323918e+05 0.0000000000000000e+00  6.4074785786867804e+04 1.8036220364070321e+06 0.0000000000000000e+00  1.6838202689513147e+06 6.3676254478451074e+05 0.0000000000000000e+00  6.8074596347523597e+05 -3.9024681488159654e+05 0.0000000000000000e+00  8.0202688133209536e+05 3.5742183128347853e+05 0.0000000000000000e+00  2.5281634064905508e+05 4.5162625594867801e+05 0.0000000000000000e+00  -1.4181467769283289e+05 1.9269304961161010e+05 0.0000000000000000e+00  1.6176280852246046e+05 1.0589265598096290e+05 0.0000000000000000e+00  -8.8269807787697515e+04 3.0939468863352423e+05 0.0000000000000000e+00  6.3674372363821242e+05 1.4786257003247265e+06 0.0000000000000000e+00  -2.6374914161763550e+05 -6.2589887951395931e+03 0.0000000000000000e+00  -7.9905495182566915e+05 -6.5429531890919816e+05 0.0000000000000000e+00  -5.3241435668222921e+05 -8.1200765595108294e+05 0.0000000000000000e+00  -8.4520521383132582e+04 -3.5686354635790945e+05 0.0000000000000000e+00  7.0694159782124753e+05 2.8406803143665951e+05 0.0000000000000000e+00  3.5272695628409530e+05 7.1917467134610470e+05 0.0000000000000000e+00  4.9379179575848376e+05 -4.0765037944349879e+05 0.0000000000000000e+00  6.1748229476058204e+05 3.1315601708636459e+04 0.0000000000000000e+00  3.6326392177457390e+04 -5.7719737720723799e+05 0.0000000000000000e+00  -6.1741886927763939e+04 4.8026600030289678e+05 0.0000000000000000e+00  -1.8881278537452206e+05 -1.8572350756145304e+05 0.0000000000000000e+00  -3.9096398512074439e+05 3.5713774218906218e+05 0.0000000000000000e+00  1.7815473771608583e+05 2.0976328993203782e+05 0.0000000000000000e+00  -8.2683337707055645e+04 -5.3065464323241991e+04 0.0000000000000000e+00  -2.8022471889713197e+05 -5.1199352574932971e+04 0.0000000000000000e+00  1.2888573480448668e+05 -1.5192030639855107e+04 0.0000000000000000e+00  1.2109630965644021e+05 5.1058158797198825e+05 0.0000000000000000e+00  2.2991772148337381e+05 4.5053578065613232e+05 0.0000000000000000e+00  1.3164632662990244e+05 2.3198313568560433e+05 0.0000000000000000e+00  1.3682164418324026e+04 6.6695895929627339e+04 0.0000000000000000e+00  5.9681969223004056e+05 -8.6625340932561128e+04 0.0000000000000000e+00  -2.9977277145296237e+04 4.5208107371657714e+05 0.0000000000000000e+00  2.8032307693279511e+05 4.3898221749848517e+05 0.0000000000000000e+00  1.8665752238957789e+03 1.4364634200268707e+05 0.0000000000000000e+00  7.4586904411670519e+04 -6.4195425994028093e+05 0.0000000000000000e+00  7.8033550257634372e+04 1.7682857132621546e+05 0.0000000000000000e+00  -7.5394500899982266e+05 1.4497811677511426e+05 0.0000000000000000e+00  -5.9050685949076986e+04 4.8067440401407471e+05 0.0000000000000000e+00  -6.3302268183488144e+04 1.6078771602375709e+05 0.0000000000000000e+00  -2.8194258500775910e+05 4.9937313465801103e+05 0.0000000000000000e+00  5.7239739709152735e+05 1.4115096381785095e+05 0.0000000000000000e+00  -5.4105819056875352e+05 4.1247601194703515e+05 0.0000000000000000e+00  2.7923818115618650e+05 -2.2517933748678508e+05 0.0000000000000000e+00  1.3787306885713190e+05 6.7930747960273444e+05 0.0000000000000000e+00  8.6009682126380352e+05 -3.7666763490330853e+05 0.0000000000000000e+00  -2.0204773910235494e+05 -8.3201536187349039e+05 0.0000000000000000e+00  -4.3520435513055476e+05 -2.5578394971398756e+05 0.0000000000000000e+00  -5.6567943063030508e+05 1.1262197090497985e+05 0.0000000000000000e+00  3.5612241202600452e+05 -1.4297206830110346e+05 0.0000000000000000e+00  -1.7706868704100559e+06 -7.7867302674356732e+05 0.0000000000000000e+00  9.7088996950489548e+02 -2.5435478806632736e+03 0.0000000000000000e+00  -1.2682603836320963e+05 7.2178971864184714e+05 0.0000000000000000e+00  -3.0864640779085777e+05 5.5010719244592323e+05 0.0000000000000000e+00  7.7787002738828922e+05 2.1908038165765881e+05 0.0000000000000000e+00  5.9371450143919373e+05 -1.7212956906387881e+04 0.0000000000000000e+00  6.9013248554220353e+05 1.5081431325304133e+05 0.0000000000000000e+00  -8.7034121006645076e+05 -1.0410654053487325e+05 0.0000000000000000e+00  1.9224659834875126e+05 -6.7547023500291427e+04 0.0000000000000000e+00  1.0534489997341640e+06 -4.5875090178408829e+05 0.0000000000000000e+00  1.0665020057896804e+06 -5.3950647495251300e+05 0.0000000000000000e+00  -2.3915093828985683e+05 -4.5559755972700490e+05 0.0000000000000000e+00  -3.7883983107262000e+05 -5.6999229378430173e+05 0.0000000000000000e+00  1.6217564733304158e+06 1.9061213265743440e+06 0.0000000000000000e+00  3.9076023531302082e+05 -3.1752060307541460e+05 0.0000000000000000e+00  8.9706801397750282e+05 7.6571395162194641e+05 0.0000000000000000e+00  -9.0893801425209444e+05 -1.1340121226152033e+05 0.0000000000000000e+00  -1.3493255802520991e+06 2.3112443254291513e+06 0.0000000000000000e+00  -3.5440357534334122e+05 5.0042558795020386e+05 0.0000000000000000e+00  4.8289955682210944e+05 1.6254605052030319e+05 0.0000000000000000e+00  -1.7891040733108009e+05 1.3348914073713706e+05 0.0000000000000000e+00  -4.5236274182482541e+05 1.2561346092736602e+05 0.0000000000000000e+00  8.2015798703573178e+05 -9.5059098559742706e+04 0.0000000000000000e+00  4.9452157447274198e+05 -1.2624213217472621e+05 0.0000000000000000e+00  -2.8315694786418171e+05 0.0000000000000000e+00 0.0000000000000000e+00  2.8866449429880740e+05 2.4962803273615326e-10 0.0000000000000000e+00  -1.4983656245310237e+06 -6.6049493356371950e+05 0.0000000000000000e+00  9.6009306897419353e+05 -2.2695047389924127e+05 0.0000000000000000e+00  3.3821858523898810e+05 -1.1620023463138812e+06 0.0000000000000000e+00  1.6219249260687919e+06 -9.5757570989351231e+05 0.0000000000000000e+00  1.0929840849086479e+06 -2.4313420677243848e+04 0.0000000000000000e+00  6.5494648366726830e+05 6.7483885477576361e+04 0.0000000000000000e+00  -3.1210446315661824e+05 1.4432237523346717e+05 0.0000000000000000e+00  3.2483792066491861e+05 5.9075173285549565e+05 0.0000000000000000e+00  -1.9504029122638606e+05 8.7598733234459267e+05 0.0000000000000000e+00  1.0336214817836541e+06 1.0813586805841554e+05 0.0000000000000000e+00  1.8736109570568852e+05 7.9582798579167327e+04 0.0000000000000000e+00  1.0193495656532787e+06 1.2115498996170121e+06 0.0000000000000000e+00  8.3593237730642155e+04 -4.8541501183131972e+05 0.0000000000000000e+00  1.6552341766714488e+05 -1.6102242188728662e+05 0.0000000000000000e+00  1.2362373868772585e+06 9.9488981745116331e+05 0.0000000000000000e+00  -1.1933760244530293e+06 8.3099628937322809e+05 0.0000000000000000e+00  -6.1581095718850021e+05 1.5290869230389677e+05 0.0000000000000000e+00  -3.5593245503535634e+05 -7.2549965124461346e+05 0.0000000000000000e+00  5.7474578448179306e+05 3.3476828749411722e+05 0.0000000000000000e+00  3.3646730767828540e+05 -2.6551836081666028e+05 0.0000000000000000e+00  2.3716535976629140e+05 9.2693955221541430e+04 0.0000000000000000e+00  2.4488594020174150e+05 5.0807671943638899e+05 0.0000000000000000e+00  4.8023465161910467e+05 -8.5521875051737894e+04 0.0000000000000000e+00  2.9200731881280651e+05 -1.0552006610922195e+05 0.0000000000000000e+00  5.2413756385820545e+05 1.9992019245184143e+05 0.0000000000000000e+00  -1.7389300754202492e+05 5.5444323302712536e+05 0.0000000000000000e+00  -4.0170222354708664e+05 -2.7200266901113419e+05 0.0000000000000000e+00  3.4004096130629747e+04 -3.5879526751802978e+05 0.0000000000000000e+00  -2.2723800522482937e+05 -1.2746258382816706e+05 0.0000000000000000e+00  4.4922323756601667e+05 3.1815497678881534e+05 0.0000000000000000e+00  2.8886364791072183e+05 2.2156249718665739e+05 0.0000000000000000e+00  6.3171817057915637e+05 -6.1209611379694380e+05 0.0000000000000000e+00  3.3346678449492634e+05 -2.8525285629131907e+05 0.0000000000000000e+00  7.3014803717232123e+05 -4.2236120281933958e+05 0.0000000000000000e+00  4.4488733971936692e+05 5.4396234787170449e+05 0.0000000000000000e+00  3.8453530882881361e+05 -1.8527327782825197e+05 0.0000000000000000e+00  4.2848506294486852e+05 -7.6737153761685215e+04 0.0000000000000000e+00  6.6830995828941371e+05 3.1664429623587755e+05 0.0000000000000000e+00  4.6149253873743204e+05 6.3614127208239597e+05 0.0000000000000000e+00  4.2425251103650295e+05 -6.2442859304605972e+05 0.0000000000000000e+00  3.5644530590595404e+05 6.7410119174902691e+04 0.0000000000000000e+00  -2.6955124306637870e+04 4.5664389698745479e+04 0.0000000000000000e+00  -2.6097574788612776e+05 1.5393550816394997e+05 0.0000000000000000e+00  1.3008040491036749e+05 -5.7269768323413191e+03 0.0000000000000000e+00  1.1933294175722702e+05 2.7245863308906957e+05 0.0000000000000000e+00  -4.1743650719878351e+03 -2.6274934233884484e+05 0.0000000000000000e+00  -3.2108893259158096e+05 3.7176872410658188e+05 0.0000000000000000e+00  2.0535825117126419e+05 -7.6733129230452375e+05 0.0000000000000000e+00  1.4375779400560691e+05 2.5900197555020620e+05 0.0000000000000000e+00  5.2884964609055140e+05 4.3733038012759294e+05 0.0000000000000000e+00  -3.7766065198752651e+05 -2.1787080653820542e+05 0.0000000000000000e+00  2.2100848621749512e+04 7.0865096098771598e+05 0.0000000000000000e+00  -7.1278974313763890e+05 2.2983570381661440e+05 0.0000000000000000e+00  -9.3051725061525358e+05 -5.4901666304746432e+04 0.0000000000000000e+00  -3.4133569529134803e+05 -4.3033289012729959e+05 0.0000000000000000e+00  -5.8108576969694486e+05 -8.7487574364109570e+05 0.0000000000000000e+00  6.5590367841121857e+04 -1.5122381297750089e+06 0.0000000000000000e+00  -2.2997806000387334e+05 6.1329685094144521e+05 0.0000000000000000e+00  8.1434422288799688e+04 -1.1644756721484442e+06 0.0000000000000000e+00  -3.8676011737457600e+04 1.2640566226370041e+06 0.0000000000000000e+00  -4.9002470362786393e+04 -1.6627257289228530e+05 0.0000000000000000e+00  1.3459952714893292e+06 -1.1308206408065858e+06 0.0000000000000000e+00  2.7206601628950174e+05 -2.1534271731995541e+05 0.0000000000000000e+00  2.6177326821520927e+05 -1.4344274783243483e+06 0.0000000000000000e+00  -7.9642276812296463e+04 -1.3768211134950384e+06 0.0000000000000000e+00  1.1539610233322172e+06 -6.5123037061176822e+05 0.0000000000000000e+00  -3.1184365323082783e+05 2.8213270235056105e+04 0.0000000000000000e+00  -1.2407725817499105e+06 3.2021809373857168e+05 0.0000000000000000e+00  -2.7923872437419104e+04 -2.2247759743661017e+05 0.0000000000000000e+00  -1.1548671046066120e+05 9.6124140771949990e+05 0.0000000000000000e+00  -5.0168615940878127e+05 -1.8896290937039503e+05 0.0000000000000000e+00  -1.9743298844794850e+06 1.5873163799277979e+06 0.0000000000000000e+00  -7.3539113620508136e+05 -8.5660144679162622e+04 0.0000000000000000e+00  -1.8601867019991700e+06 -7.7450844673002989e+05 0.0000000000000000e+00  8.8843568282580469e+05 -1.3496872808300566e+06 0.0000000000000000e+00  -2.4949609456162045e+04 -1.3914214857458859e+06 0.0000000000000000e+00  4.2585992646450305e+05 4.7144566895038635e+05 0.0000000000000000e+00  6.8274457355563471e+05 -5.7249140939009981e+05 0.0000000000000000e+00  1.3309768242534720e+06 4.0421568874394550e+05 0.0000000000000000e+00  1.0478322105184388e+06 1.6564515326472432e-10 0.0000000000000000e+00  -3.9528470594720641e+05 -1.4897748970960044e-09 0.0000000000000000e+00  -7.8095588510325376e+05 -1.1637645026773715e+06 0.0000000000000000e+00  -1.3185043833818538e+06 -6.4224127043728422e+03 0.0000000000000000e+00  2.1587325190503499e+06 -9.9709740900982532e+05 0.0000000000000000e+00  -3.5403805033244321e+05 -7.5828474599981459e+05 0.0000000000000000e+00  3.7047919905799546e+05 -1.0964504833931541e+06 0.0000000000000000e+00  5.7856309759864840e+05 -6.2485758887059381e+05 0.0000000000000000e+00  1.9127393682647406e+05 2.7535628181979791e+03 0.0000000000000000e+00  1.0235237761321319e+06 2.5312270579453040e+05 0.0000000000000000e+00  7.4814375060088455e+05 6.1141678854075272e+05 0.0000000000000000e+00  -5.3990015434126323e+05 -5.2378073926640011e+05 0.0000000000000000e+00  9.5808336010702464e+04 -9.2695633515991748e+05 0.0000000000000000e+00  6.0008162073171977e+05 3.9579167571686406e+05 0.0000000000000000e+00  2.8306244825173105e+05 2.5640062024093169e+05 0.0000000000000000e+00  1.4972237408896987e+05 -9.8602744645546307e+05 0.0000000000000000e+00  7.0421906688940391e+04 -2.3113953982204035e+04 0.0000000000000000e+00  2.1206243977387151e+05 6.8765679740335816e+05 0.0000000000000000e+00  -3.5396918174763146e+05 -2.5877221022684491e+05 0.0000000000000000e+00  1.4816959155007044e+05 -1.1270700124014660e+06 0.0000000000000000e+00  4.8070868908899184e+05 2.1825097531506923e+05 0.0000000000000000e+00  2.8266876292714261e+05 -1.1596504302758060e+05 0.0000000000000000e+00  -2.0468105911432285e+05 -1.9085032009698314e+05 0.0000000000000000e+00  2.5294381116261336e+05 3.5744021214024127e+04 0.0000000000000000e+00  -3.3333151777177327e+05 -2.0883604231511970e+05 0.0000000000000000e+00  6.6657078337812563e+05 -5.6475449592437875e+05 0.0000000000000000e+00  2.9179834199493978e+05 -6.0675798128614097e+05 0.0000000000000000e+00  -2.0255121018172149e+05 7.5058895841638767e+05 0.0000000000000000e+00  -1.0033938678507475e+05 -2.8669242070563853e+05 0.0000000000000000e+00  8.0851530341465608e+05 2.4228693252496255e+05 0.0000000000000000e+00  6.9040543828509387e+05 -4.7324123318671552e+05 0.0000000000000000e+00  3.7641790883389825e+05 6.0868689776939573e+04 0.0000000000000000e+00  -5.9916127337001053e+04 -2.7654201698211866e+05 0.0000000000000000e+00  1.0815843392948768e+05 3.7814624397020892e+05 0.0000000000000000e+00  3.3208965925054497e+05 -4.2011208108059305e+05 0.0000000000000000e+00  -1.0019565770936086e+05 3.3680515050391585e+05 0.0000000000000000e+00  3.8123219842155383e+05 -2.2605457568521881e+04 0.0000000000000000e+00  2.2533664188930354e+05 2.9273670836606179e+05 0.0000000000000000e+00  8.6926964633053774e+05 1.1863820654268605e+05 0.0000000000000000e+00  