<?xml version="1.0"?>
<VTKFile type="UnstructuredGrid"  version="0.1"  >
<UnstructuredGrid>
<Piece  NumberOfPoints="1369" NumberOfCells="2560">
<Points>
<DataArray  type="Float64"  NumberOfComponents="3"  format="ascii">0 0 0  0.75 0 0  1.5 0 0  2.25 0 0  3 0 0  3.75 0 0  4.5 0 0  5.25 0 0  6 0 0  6.75 0 0  7.5 0 0  8.25 0 0  9 0 0  9.75 0 0  10.5 0 0  11.25 0 0  12 0 0  12.75 0 0  13.5 0 0  14.25 0 0  15 0 0  15.75 0 0  16.5 0 0  17.25 0 0  18 0 0  18.75 0 0  19.5 0 0  20.25 0 0  21 0 0  21.75 0 0  22.5 0 0  23.25 0 0  24 0 0  24.75 0 0  25.5 0 0  26.25 0 0  27 0 0  27.75 0 0  28.5 0 0  29.25 0 0  30 0 0  30.75 0 0  31.5 0 0  32.25 0 0  33 0 0  33.75 0 0  34.5 0 0  35.25 0 0  36 0 0  36.75 0 0  37.5 0 0  38.25 0 0  39 0 0  39.75 0 0  40.5 0 0  41.25 0 0  42 0 0  42.75 0 0  43.5 0 0  44.25 0 0  45 0 0  45.75 0 0  46.5 0 0  47.25 0 0  48 0 0  48.75 0 0  49.5 0 0  50.25 0 0  51 0 0  51.75 0 0  52.5 0 0  53.25 0 0  54 0 0  54.75 0 0  55.5 0 0  56.25 0 0  57 0 0  57.75 0 0  58.5 0 0  59.25 0 0  60 0 0  0 0.5 0  0.75 0.5 0  1.5 0.5 0  2.25 0.5 0  3 0.5 0  3.75 0.5 0  4.5 0.5 0  5.25 0.5 0  6 0.5 0  6.75 0.5 0  7.5 0.5 0  8.25 0.5 0  9 0.5 0  9.75 0.5 0  10.5 0.5 0  11.25 0.5 0  12 0.5 0  12.75 0.5 0  13.5 0.5 0  14.25 0.5 0  15 0.5 0  15.75 0.5 0  16.5 0.5 0  17.25 0.5 0  18 0.5 0  18.75 0.5 0  19.5 0.5 0  20.25 0.5 0  21 0.5 0  21.75 0.5 0  22.5 0.5 0  23.25 0.5 0  24 0.5 0  24.75 0.5 0  25.5 0.5 0  26.25 0.5 0  27 0.5 0  27.75 0.5 0  28.5 0.5 0  29.25 0.5 0  30 0.5 0  30.75 0.5 0  31.5 0.5 0  32.25 0.5 0  33 0.5 0  33.75 0.5 0  34.5 0.5 0  35.25 0.5 0  36 0.5 0  36.75 0.5 0  37.5 0.5 0  38.25 0.5 0  39 0.5 0  39.75 0.5 0  40.5 0.5 0  41.25 0.5 0  42 0.5 0  42.75 0.5 0  43.5 0.5 0  44.25 0.5 0  45 0.5 0  45.75 0.5 0  46.5 0.5 0  47.25 0.5 0  48 0.5 0  48.75 0.5 0  49.5 0.5 0  50.25 0.5 0  51 0.5 0  51.75 0.5 0  52.5 0.5 0  53.25 0.5 0  54 0.5 0  54.75 0.5 0  55.5 0.5 0  56.25 0.5 0  57 0.5 0  57.75 0.5 0  58.5 0.5 0  59.25 0.5 0  60 0.5 0  0 1 0  0.75 1 0  1.5 1 0  2.25 1 0  3 1 0  3.75 1 0  4.5 1 0  5.25 1 0  6 1 0  6.75 1 0  7.5 1 0  8.25 1 0  9 1 0  9.75 1 0  10.5 1 0  11.25 1 0  12 1 0  12.75 1 0  13.5 1 0  14.25 1 0  15 1 0  15.75 1 0  16.5 1 0  17.25 1 0  18 1 0  18.75 1 0  19.5 1 0  20.25 1 0  21 1 0  21.75 1 0  22.5 1 0  23.25 1 0  24 1 0  24.75 1 0  25.5 1 0  26.25 1 0  27 1 0  27.75 1 0  28.5 1 0  29.25 1 0  30 1 0  30.75 1 0  31.5 1 0  32.25 1 0  33 1 0  33.75 1 0  34.5 1 0  35.25 1 0  36 1 0  36.75 1 0  37.5 1 0  38.25 1 0  39 1 0  39.75 1 0  40.5 1 0  41.25 1 0  42 1 0  42.75 1 0  43.5 1 0  44.25 1 0  45 1 0  45.75 1 0  46.5 1 0  47.25 1 0  48 1 0  48.75 1 0  49.5 1 0  50.25 1 0  51 1 0  51.75 1 0  52.5 1 0  53.25 1 0  54 1 0  54.75 1 0  55.5 1 0  56.25 1 0  57 1 0  57.75 1 0  58.5 1 0  59.25 1 0  60 1 0  0 1.5 0  0.75 1.5 0  1.5 1.5 0  2.25 1.5 0  3 1.5 0  3.75 1.5 0  4.5 1.5 0  5.25 1.5 0  6 1.5 0  6.75 1.5 0  7.5 1.5 0  8.25 1.5 0  9 1.5 0  9.75 1.5 0  10.5 1.5 0  11.25 1.5 0  12 1.5 0  12.75 1.5 0  13.5 1.5 0  14.25 1.5 0  15 1.5 0  15.75 1.5 0  16.5 1.5 0  17.25 1.5 0  18 1.5 0  18.75 1.5 0  19.5 1.5 0  20.25 1.5 0  21 1.5 0  21.75 1.5 0  22.5 1.5 0  23.25 1.5 0  24 1.5 0  24.75 1.5 0  25.5 1.5 0  26.25 1.5 0  27 1.5 0  27.75 1.5 0  28.5 1.5 0  29.25 1.5 0  30 1.5 0  30.75 1.5 0  31.5 1.5 0  32.25 1.5 0  33 1.5 0  33.75 1.5 0  34.5 1.5 0  35.25 1.5 0  36 1.5 0  36.75 1.5 0  37.5 1.5 0  38.25 1.5 0  39 1.5 0  39.75 1.5 0  40.5 1.5 0  41.25 1.5 0  42 1.5 0  42.75 1.5 0  43.5 1.5 0  44.25 1.5 0  45 1.5 0  45.75 1.5 0  46.5 1.5 0  47.25 1.5 0  48 1.5 0  48.75 1.5 0  49.5 1.5 0  50.25 1.5 0  51 1.5 0  51.75 1.5 0  52.5 1.5 0  53.25 1.5 0  54 1.5 0  54.75 1.5 0  55.5 1.5 0  56.25 1.5 0  57 1.5 0  57.75 1.5 0  58.5 1.5 0  59.25 1.5 0  60 1.5 0  0 2 0  0.75 2 0  1.5 2 0  2.25 2 0  3 2 0  3.75 2 0  4.5 2 0  5.25 2 0  6 2 0  6.75 2 0  7.5 2 0  8.25 2 0  9 2 0  9.75 2 0  10.5 2 0  11.25 2 0  12 2 0  12.75 2 0  13.5 2 0  14.25 2 0  15 2 0  15.75 2 0  16.5 2 0  17.25 2 0  18 2 0  18.75 2 0  19.5 2 0  20.25 2 0  21 2 0  21.75 2 0  22.5 2 0  23.25 2 0  24 2 0  24.75 2 0  25.5 2 0  26.25 2 0  27 2 0  27.75 2 0  28.5 2 0  29.25 2 0  30 2 0  30.75 2 0  31.5 2 0  32.25 2 0  33 2 0  33.75 2 0  34.5 2 0  35.25 2 0  36 2 0  36.75 2 0  37.5 2 0  38.25 2 0  39 2 0  39.75 2 0  40.5 2 0  41.25 2 0  42 2 0  42.75 2 0  43.5 2 0  44.25 2 0  45 2 0  45.75 2 0  46.5 2 0  47.25 2 0  48 2 0  48.75 2 0  49.5 2 0  50.25 2 0  51 2 0  51.75 2 0  52.5 2 0  53.25 2 0  54 2 0  54.75 2 0  55.5 2 0  56.25 2 0  57 2 0  57.75 2 0  58.5 2 0  59.25 2 0  60 2 0  0 2.5 0  0.75 2.5 0  1.5 2.5 0  2.25 2.5 0  3 2.5 0  3.75 2.5 0  4.5 2.5 0  5.25 2.5 0  6 2.5 0  6.75 2.5 0  7.5 2.5 0  8.25 2.5 0  9 2.5 0  9.75 2.5 0  10.5 2.5 0  11.25 2.5 0  12 2.5 0  12.75 2.5 0  13.5 2.5 0  14.25 2.5 0  15 2.5 0  15.75 2.5 0  16.5 2.5 0  17.25 2.5 0  18 2.5 0  18.75 2.5 0  19.5 2.5 0  20.25 2.5 0  21 2.5 0  21.75 2.5 0  22.5 2.5 0  23.25 2.5 0  24 2.5 0  24.75 2.5 0  25.5 2.5 0  26.25 2.5 0  27 2.5 0  27.75 2.5 0  28.5 2.5 0  29.25 2.5 0  30 2.5 0  30.75 2.5 0  31.5 2.5 0  32.25 2.5 0  33 2.5 0  33.75 2.5 0  34.5 2.5 0  35.25 2.5 0  36 2.5 0  36.75 2.5 0  37.5 2.5 0  38.25 2.5 0  39 2.5 0  39.75 2.5 0  40.5 2.5 0  41.25 2.5 0  42 2.5 0  42.75 2.5 0  43.5 2.5 0  44.25 2.5 0  45 2.5 0  45.75 2.5 0  46.5 2.5 0  47.25 2.5 0  48 2.5 0  48.75 2.5 0  49.5 2.5 0  50.25 2.5 0  51 2.5 0  51.75 2.5 0  52.5 2.5 0  53.25 2.5 0  54 2.5 0  54.75 2.5 0  55.5 2.5 0  56.25 2.5 0  57 2.5 0  57.75 2.5 0  58.5 2.5 0  59.25 2.5 0  60 2.5 0  0 3 0  0.75 3 0  1.5 3 0  2.25 3 0  3 3 0  3.75 3 0  4.5 3 0  5.25 3 0  6 3 0  6.75 3 0  7.5 3 0  8.25 3 0  9 3 0  9.75 3 0  10.5 3 0  11.25 3 0  12 3 0  12.75 3 0  13.5 3 0  14.25 3 0  15 3 0  15.75 3 0  16.5 3 0  17.25 3 0  18 3 0  18.75 3 0  19.5 3 0  20.25 3 0  21 3 0  21.75 3 0  22.5 3 0  23.25 3 0  24 3 0  24.75 3 0  25.5 3 0  26.25 3 0  27 3 0  27.75 3 0  28.5 3 0  29.25 3 0  30 3 0  30.75 3 0  31.5 3 0  32.25 3 0  33 3 0  33.75 3 0  34.5 3 0  35.25 3 0  36 3 0  36.75 3 0  37.5 3 0  38.25 3 0  39 3 0  39.75 3 0  40.5 3 0  41.25 3 0  42 3 0  42.75 3 0  43.5 3 0  44.25 3 0  45 3 0  45.75 3 0  46.5 3 0  47.25 3 0  48 3 0  48.75 3 0  49.5 3 0  50.25 3 0  51 3 0  51.75 3 0  52.5 3 0  53.25 3 0  54 3 0  54.75 3 0  55.5 3 0  56.25 3 0  57 3 0  57.75 3 0  58.5 3 0  59.25 3 0  60 3 0  0 3.5 0  0.75 3.5 0  1.5 3.5 0  2.25 3.5 0  3 3.5 0  3.75 3.5 0  4.5 3.5 0  5.25 3.5 0  6 3.5 0  6.75 3.5 0  7.5 3.5 0  8.25 3.5 0  9 3.5 0  9.75 3.5 0  10.5 3.5 0  11.25 3.5 0  12 3.5 0  12.75 3.5 0  13.5 3.5 0  14.25 3.5 0  15 3.5 0  15.75 3.5 0  16.5 3.5 0  17.25 3.5 0  18 3.5 0  18.75 3.5 0  19.5 3.5 0  20.25 3.5 0  21 3.5 0  21.75 3.5 0  22.5 3.5 0  23.25 3.5 0  24 3.5 0  24.75 3.5 0  25.5 3.5 0  26.25 3.5 0  27 3.5 0  27.75 3.5 0  28.5 3.5 0  29.25 3.5 0  30 3.5 0  30.75 3.5 0  31.5 3.5 0  32.25 3.5 0  33 3.5 0  33.75 3.5 0  34.5 3.5 0  35.25 3.5 0  36 3.5 0  36.75 3.5 0  37.5 3.5 0  38.25 3.5 0  39 3.5 0  39.75 3.5 0  40.5 3.5 0  41.25 3.5 0  42 3.5 0  42.75 3.5 0  43.5 3.5 0  44.25 3.5 0  45 3.5 0  45.75 3.5 0  46.5 3.5 0  47.25 3.5 0  48 3.5 0  48.75 3.5 0  49.5 3.5 0  50.25 3.5 0  51 3.5 0  51.75 3.5 0  52.5 3.5 0  53.25 3.5 0  54 3.5 0  54.75 3.5 0  55.5 3.5 0  56.25 3.5 0  57 3.5 0  57.75 3.5 0  58.5 3.5 0  59.25 3.5 0  60 3.5 0  0 4 0  0.75 4 0  1.5 4 0  2.25 4 0  3 4 0  3.75 4 0  4.5 4 0  5.25 4 0  6 4 0  6.75 4 0  7.5 4 0  8.25 4 0  9 4 0  9.75 4 0  10.5 4 0  11.25 4 0  12 4 0  12.75 4 0  13.5 4 0  14.25 4 0  15 4 0  15.75 4 0  16.5 4 0  17.25 4 0  18 4 0  18.75 4 0  19.5 4 0  20.25 4 0  21 4 0  21.75 4 0  22.5 4 0  23.25 4 0  24 4 0  24.75 4 0  25.5 4 0  26.25 4 0  27 4 0  27.75 4 0  28.5 4 0  29.25 4 0  30 4 0  30.75 4 0  31.5 4 0  32.25 4 0  33 4 0  33.75 4 0  34.5 4 0  35.25 4 0  36 4 0  36.75 4 0  37.5 4 0  38.25 4 0  39 4 0  39.75 4 0  40.5 4 0  41.25 4 0  42 4 0  42.75 4 0  43.5 4 0  44.25 4 0  45 4 0  45.75 4 0  46.5 4 0  47.25 4 0  48 4 0  48.75 4 0  49.5 4 0  50.25 4 0  51 4 0  51.75 4 0  52.5 4 0  53.25 4 0  54 4 0  54.75 4 0  55.5 4 0  56.25 4 0  57 4 0  57.75 4 0  58.5 4 0  59.25 4 0  60 4 0  0.375 0.25 0  1.125 0.25 0  1.875 0.25 0  2.625 0.25 0  3.375 0.25 0  4.125 0.25 0  4.875 0.25 0  5.625 0.25 0  6.375 0.25 0  7.125 0.25 0  7.875 0.25 0  8.625 0.25 0  9.375 0.25 0  10.125 0.25 0  10.875 0.25 0  11.625 0.25 0  12.375 0.25 0  13.125 0.25 0  13.875 0.25 0  14.625 0.25 0  15.375 0.25 0  16.125 0.25 0  16.875 0.25 0  17.625 0.25 0  18.375 0.25 0  19.125 0.25 0  19.875 0.25 0  20.625 0.25 0  21.375 0.25 0  22.125 0.25 0  22.875 0.25 0  23.625 0.25 0  24.375 0.25 0  25.125 0.25 0  25.875 0.25 0  26.625 0.25 0  27.375 0.25 0  28.125 0.25 0  28.875 0.25 0  29.625 0.25 0  30.375 0.25 0  31.125 0.25 0  31.875 0.25 0  32.625 0.25 0  33.375 0.25 0  34.125 0.25 0  34.875 0.25 0  35.625 0.25 0  36.375 0.25 0  37.125 0.25 0  37.875 0.25 0  38.625 0.25 0  39.375 0.25 0  40.125 0.25 0  40.875 0.25 0  41.625 0.25 0  42.375 0.25 0  43.125 0.25 0  43.875 0.25 0  44.625 0.25 0  45.375 0.25 0  46.125 0.25 0  46.875 0.25 0  47.625 0.25 0  48.375 0.25 0  49.125 0.25 0  49.875 0.25 0  50.625 0.25 0  51.375 0.25 0  52.125 0.25 0  52.875 0.25 0  53.625 0.25 0  54.375 0.25 0  55.125 0.25 0  55.875 0.25 0  56.625 0.25 0  57.375 0.25 0  58.125 0.25 0  58.875 0.25 0  59.625 0.25 0  0.375 0.75 0  1.125 0.75 0  1.875 0.75 0  2.625 0.75 0  3.375 0.75 0  4.125 0.75 0  4.875 0.75 0  5.625 0.75 0  6.375 0.75 0  7.125 0.75 0  7.875 0.75 0  8.625 0.75 0  9.375 0.75 0  10.125 0.75 0  10.875 0.75 0  11.625 0.75 0  12.375 0.75 0  13.125 0.75 0  13.875 0.75 0  14.625 0.75 0  15.375 0.75 0  16.125 0.75 0  16.875 0.75 0  17.625 0.75 0  18.375 0.75 0  19.125 0.75 0  19.875 0.75 0  20.625 0.75 0  21.375 0.75 0  22.125 0.75 0  22.875 0.75 0  23.625 0.75 0  24.375 0.75 0  25.125 0.75 0  25.875 0.75 0  26.625 0.75 0  27.375 0.75 0  28.125 0.75 0  28.875 0.75 0  29.625 0.75 0  30.375 0.75 0  31.125 0.75 0  31.875 0.75 0  32.625 0.75 0  33.375 0.75 0  34.125 0.75 0  34.875 0.75 0  35.625 0.75 0  36.375 0.75 0  37.125 0.75 0  37.875 0.75 0  38.625 0.75 0  39.375 0.75 0  40.125 0.75 0  40
[...]
<PointData  Vectors="f_8-0"> 
<DataArray  type="Float64"  Name="f_8-0"  NumberOfComponents="3" format="ascii">4.7382861513133388e-11 -2.4727193444644618e-11 0.0000000000000000e+00  0.0000000000000000e+00 -4.9716840650235870e-11 0.0000000000000000e+00  -1.3464067998677643e-08 0.0000000000000000e+00 0.0000000000000000e+00  1.6056265834538086e-08 9.4682158946615965e-10 0.0000000000000000e+00  0.0000000000000000e+00 0.0000000000000000e+00 0.0000000000000000e+00  1.4003516967291203e-08 1.3708643727376611e-08 0.0000000000000000e+00  0.0000000000000000e+00 0.0000000000000000e+00 0.0000000000000000e+00  0.0000000000000000e+00 3.7738348878348122e-10 0.0000000000000000e+00  0.0000000000000000e+00 8.1875136114540863e-10 0.0000000000000000e+00  0.0000000000000000e+00 0.0000000000000000e+00 0.0000000000000000e+00  0.0000000000000000e+00 0.0000000000000000e+00 0.0000000000000000e+00  2.8507856571330449e-09 1.8505644776472164e-08 0.0000000000000000e+00  9.9747369824674998e-08 0.0000000000000000e+00 0.0000000000000000e+00  -1.9961417791138126e-08 1.9373277022337066e-08 0.0000000000000000e+00  0.0000000000000000e+00 0.0000000000000000e+00 0.0000000000000000e+00  3.1485520802265020e-08 2.6475069656299243e-07 0.0000000000000000e+00  1.4255698027503037e-08 1.4351772268462143e-08 0.0000000000000000e+00  -6.0158434432444305e-09 8.1486496462248807e-09 0.0000000000000000e+00  0.0000000000000000e+00 0.0000000000000000e+00 0.0000000000000000e+00  0.0000000000000000e+00 0.0000000000000000e+00 0.0000000000000000e+00  0.0000000000000000e+00 -1.3144545394088427e-10 0.0000000000000000e+00  1.3964615369087906e-08 2.7392851410828036e-09 0.0000000000000000e+00  0.0000000000000000e+00 4.4840263335012393e-10 0.0000000000000000e+00  0.0000000000000000e+00 0.0000000000000000e+00 0.0000000000000000e+00  0.0000000000000000e+00 0.0000000000000000e+00 0.0000000000000000e+00  0.0000000000000000e+00 0.0000000000000000e+00 0.0000000000000000e+00  -1.3704351349134405e-09 -9.7188916034149484e-09 0.0000000000000000e+00  1.0728616230250054e-09 6.2804528682081344e-10 0.0000000000000000e+00  -2.9834583872341583e-09 -2.7624476252483826e-10 0.0000000000000000e+00  0.0000000000000000e+00 0.0000000000000000e+00 0.0000000000000000e+00  9.1217351472383346e-10 0.0000000000000000e+00 0.0000000000000000e+00  2.9130888112588980e-09 -1.1329527285819804e-08 0.0000000000000000e+00  0.0000000000000000e+00 0.0000000000000000e+00 0.0000000000000000e+00  3.7208568270750803e-09 -1.0651135745498379e-09 0.0000000000000000e+00  5.9755367956294416e-08 1.4019042433549450e-08 0.0000000000000000e+00  1.8308217235239384e-09 -7.3345851274949816e-10 0.0000000000000000e+00  0.0000000000000000e+00 0.0000000000000000e+00 0.0000000000000000e+00  -7.6114578916530311e-09 2.2610644536053633e-09 0.0000000000000000e+00  0.0000000000000000e+00 4.3006736615414644e-10 0.0000000000000000e+00  1.1984144451608379e-09 1.3874640199891091e-09 0.0000000000000000e+00  0.0000000000000000e+00 0.0000000000000000e+00 0.0000000000000000e+00  -1.4380811992926934e-09 -2.1933620577798717e-09 0.0000000000000000e+00  -1.0162609546679879e-10 3.2279506389262445e-09 0.0000000000000000e+00  -1.1142244771156298e-08 1.3993173938665181e-09 0.0000000000000000e+00  0.0000000000000000e+00 -6.1424336365759313e-10 0.0000000000000000e+00  0.0000000000000000e+00 -4.3552891975391660e-10 0.0000000000000000e+00  0.0000000000000000e+00 -3.7273021360940733e-10 0.0000000000000000e+00  4.2155221181010402e-08 -8.6499666218557883e-09 0.0000000000000000e+00  -2.7727985944374727e-09 -6.3595089390580691e-09 0.0000000000000000e+00  0.0000000000000000e+00 1.3241346972813617e-10 0.0000000000000000e+00  4.3866996190968062e-09 2.9708450143713454e-09 0.0000000000000000e+00  0.0000000000000000e+00 2.5391015137643310e-11 0.0000000000000000e+00  -1.7711680700826373e-09 -8.3220415132340498e-10 0.0000000000000000e+00  0.0000000000000000e+00 0.0000000000000000e+00 0.0000000000000000e+00  -2.6250226962873803e-09 4.5131616864495211e-10 0.0000000000000000e+00  0.0000000000000000e+00 -5.0030521795739588e-09 0.0000000000000000e+00  -1.5211551498166960e-09 -7.8981972528726451e-10 0.0000000000000000e+00  0.0000000000000000e+00 0.0000000000000000e+00 0.0000000000000000e+00  1.2467181440587042e-09 0.0000000000000000e+00 0.0000000000000000e+00  1.8034185347896682e-09 2.5480226540160880e-10 0.0000000000000000e+00  8.3774862149842547e-08 -3.3078067703193668e-08 0.0000000000000000e+00  8.1631382322269950e-10 1.2754692665903470e-08 0.0000000000000000e+00  -1.0173110660520622e-09 9.7283607022038779e-10 0.0000000000000000e+00  -4.6184395524821720e-09 -7.3896950127498070e-09 0.0000000000000000e+00  -1.7505012679926751e-08 -5.2646700662342759e-09 0.0000000000000000e+00  -9.7047936247534512e-09 1.1258238785468034e-08 0.0000000000000000e+00  -8.4929496500920718e-09 -4.1431382336868337e-10 0.0000000000000000e+00  -1.8129612540828838e-10 -3.9643981810709340e-09 0.0000000000000000e+00  -3.5006804356162160e-09 -5.3260026625496212e-09 0.0000000000000000e+00  0.0000000000000000e+00 6.2315909225537406e-11 0.0000000000000000e+00  -2.4871346330722936e-09 -9.3733035458810382e-09 0.0000000000000000e+00  -2.0141545295663214e-09 9.7628251011928180e-10 0.0000000000000000e+00  1.4388581758708201e-08 -5.2659470876086011e-10 0.0000000000000000e+00  -3.6753488269821621e-10 -2.8963474290218762e-10 0.0000000000000000e+00  -1.9823851053094382e-09 1.5239696172229674e-09 0.0000000000000000e+00  -5.7469445669590404e-09 4.3374953897673467e-09 0.0000000000000000e+00  -8.0680500079215242e-09 -3.2476948954953280e-08 0.0000000000000000e+00  -6.1744028192986315e-08 2.6567135579597467e-08 0.0000000000000000e+00  1.2954236111548461e-09 1.3369952668462458e-08 0.0000000000000000e+00  5.0569522597005531e-11 -6.0072893437750070e-11 0.0000000000000000e+00  1.7645558832638672e-10 1.7820126463146683e-10 0.0000000000000000e+00  3.8303951597392757e+05 1.1675332457705388e-10 0.0000000000000000e+00  -1.4022394342966320e+05 -1.7953839380169407e+05 0.0000000000000000e+00  1.6996010301299073e+04 -8.6809402030142816e+05 0.0000000000000000e+00  -6.5739691610763810e+04 1.0108866034695436e+06 0.0000000000000000e+00  4.6603525725939719e+04 9.9555859518263559e+05 0.0000000000000000e+00  -1.4041451070497329e+06 8.5725663082537870e+05 0.0000000000000000e+00  -3.6729751939367689e+05 3.9256771050795761e+05 0.0000000000000000e+00  -2.3282072720621969e+05 -6.4296597677520139e+05 0.0000000000000000e+00  -9.0967425132057600e+04 -1.7394203422918683e+06 0.0000000000000000e+00  -1.6490227808144796e+06 -6.2141387616747851e+05 0.0000000000000000e+00  -6.3442700222549692e+05 4.6506419403493515e+05 0.0000000000000000e+00  -8.3330766918578150e+05 -2.6340891310847952e+05 0.0000000000000000e+00  -3.7280515957175818e+05 -3.6912877499023703e+05 0.0000000000000000e+00  -2.7138498762175243e+05 -1.8229437214265153e+05 0.0000000000000000e+00  -8.5644302655519961e+04 -1.6897057407659796e+05 0.0000000000000000e+00  1.3015408666736515e+05 -3.4837772122822038e+05 0.0000000000000000e+00  -4.8493580254087626e+05 -1.4085157273268674e+06 0.0000000000000000e+00  3.8485879148697655e+05 3.2851728697766655e+05 0.0000000000000000e+00  7.7539264299190417e+05 4.4486891747796233e+05 0.0000000000000000e+00  2.3420861794242062e+05 7.6140611324541061e+05 0.0000000000000000e+00  4.5508341736791997e+04 3.8253989298029913e+05 0.0000000000000000e+00  -5.0435354125253315e+05 -3.7866761504678149e+05 0.0000000000000000e+00  -3.4558650329089159e+05 -7.1662670528246614e+05 0.0000000000000000e+00  -4.8031818240409502e+05 2.6162175808395047e+05 0.0000000000000000e+00  -3.8276747465341957e+05 -2.5804804343873660e+04 0.0000000000000000e+00  -1.2859343595779163e+05 5.7712516183273750e+05 0.0000000000000000e+00  1.2820457507245944e+05 -3.8539547436084627e+05 0.0000000000000000e+00  4.0276661724250979e+05 -1.6777627634436710e+05 0.0000000000000000e+00  5.1695699287661485e+05 -3.2551675720818038e+05 0.0000000000000000e+00  -1.3620838685510558e+05 -1.6341569297843642e+05 0.0000000000000000e+00  1.8003174424544931e+05 5.3654640140802541e+04 0.0000000000000000e+00  2.8210354842870648e+05 4.4702575860890698e+04 0.0000000000000000e+00  -9.7965506016123240e+04 -3.2724464177966247e+03 0.0000000000000000e+00  -5.5585926312845470e+04 -5.3691344692689448e+05 0.0000000000000000e+00  -2.3824771856776561e+05 -3.5937011443551694e+05 0.0000000000000000e+00  -5.4191257244720342e+04 -3.4724325078715209e+05 0.0000000000000000e+00  7.9681867368030027e+04 -1.3610735638994272e+05 0.0000000000000000e+00  -3.5290142244861490e+05 3.0165982231686783e+04 0.0000000000000000e+00  1.1201715173136859e+05 -2.9083967727425875e+05 0.0000000000000000e+00  -1.8804953916134866e+05 -3.7364223900548054e+05 0.0000000000000000e+00  1.2790777318236484e+05 -5.0714355891970510e+04 0.0000000000000000e+00  1.8023812836478282e+04 4.8199560534542106e+05 0.0000000000000000e+00  -1.2961875599274805e+05 -3.0115695909707516e+05 0.0000000000000000e+00  3.6026160666674020e+05 -2.3393025740007567e+05 0.0000000000000000e+00  -5.8485880828636160e+04 -4.2117802323014056e+05 0.0000000000000000e+00  3.3094882284700987e+04 -4.0862306950056111e+04 0.0000000000000000e+00  1.7340433054866141e+05 -3.2613363117945986e+05 0.0000000000000000e+00  -2.2530779713335598e+05 -6.6832227423038887e+04 0.0000000000000000e+00  2.0866422841553268e+05 -4.9695850688701619e+04 0.0000000000000000e+00  -7.4750157019487931e+04 2.0853164439018434e+05 0.0000000000000000e+00  -3.3153917035407276e+05 -2.8305092027031042e+05 0.0000000000000000e+00  -6.4792122267680231e+05 2.0444429335145288e+05 0.0000000000000000e+00  3.6019000453355286e+05 2.7940095707688027e+05 0.0000000000000000e+00  1.1152974775665921e+05 3.1475526122685995e+04 0.0000000000000000e+00  1.4909806847982251e+05 -2.6578432881959720e+05 0.0000000000000000e+00  -8.9992167255456206e+03 -9.9855634554629461e+04 0.0000000000000000e+00  3.7897658387461393e+04 5.6062358984793187e+05 0.0000000000000000e+00  1.9091967822470859e+05 1.3976702904525102e+05 0.0000000000000000e+00  3.9139241207104328e+05 2.6002856877951788e+04 0.0000000000000000e+00  4.1967696436803948e+04 4.9532954771541001e+04 0.0000000000000000e+00  -2.7943001639182557e+05 2.6963756603835156e+05 0.0000000000000000e+00  1.6128035489662547e+05 2.8547619709299796e+05 0.0000000000000000e+00  -1.5757889611830251e+05 3.8800764883747272e+05 0.0000000000000000e+00  2.9683434684232494e+05 -5.7669690370744269e+05 0.0000000000000000e+00  1.2355751472692134e+04 1.3331900859747003e+05 0.0000000000000000e+00  -7.0608574325910106e+05 -7.3714729567469083e+04 0.0000000000000000e+00  -5.3684142061575130e+05 -3.0439710215994273e+05 0.0000000000000000e+00  5.9445917243368714e+05 -3.0460133006435080e+05 0.0000000000000000e+00  2.5297468363593932e+05 1.5465702368237288e+05 0.0000000000000000e+00  -5.6801237986644660e+05 -1.7356217962472516e+05 0.0000000000000000e+00  -5.2310586755036097e+05 7.7248225885489243e+04 0.0000000000000000e+00  -1.5325315690716443e+05 -1.1782656407464115e+05 0.0000000000000000e+00  -1.4634567879785577e+05 2.7064928987220704e+05 0.0000000000000000e+00  -8.2896649850242306e+04 -3.9007416160013661e+05 0.0000000000000000e+00  1.3601642496113174e+05 4.5049501002659170e+04 0.0000000000000000e+00  3.3421687138913134e+04 2.7634383336197597e+05 0.0000000000000000e+00  2.7990506846316729e+05 -9.4686075484576373e+04 0.0000000000000000e+00  3.6599796475085506e+05 -5.9065454159822082e+04 0.0000000000000000e+00  -1.5875993747829809e+05 -3.1703695804638462e+05 0.0000000000000000e+00  -1.9931446191658248e+05 6.6966400864629701e+04 0.0000000000000000e+00  9.0800288885199770e+04 -1.0292566420500924e-10 0.0000000000000000e+00  -2.6015106908006666e+05 -1.8035790974528938e-10 0.0000000000000000e+00  1.4409255305012502e+06 6.3474564903208148e+05 0.0000000000000000e+00  -9.5230682238004485e+05 2.9160813927098387e+05 0.0000000000000000e+00  -3.3848733444654691e+05 1.1652140894702973e+06 0.0000000000000000e+00  -1.5979740014420424e+06 1.0204765923565478e+06 0.0000000000000000e+00  -1.0101924278237863e+06 3.2991436671539457e+04 0.0000000000000000e+00  -6.1467388703435496e+05 -5.8743869612238603e+04 0.0000000000000000e+00  3.7466238658760086e+05 -1.4334317043149800e+05 0.0000000000000000e+00  -2.3312803280721483e+05 -6.7586895401965943e+05 0.0000000000000000e+00  1.6782118672996378e+05 -7.8607134061325376e+05 0.0000000000000000e+00  -1.0839413869144111e+06 4.5417224690520306e+04 0.0000000000000000e+00  -3.1132703502968070e+05 -1.2194855157264147e+05 0.0000000000000000e+00  -1.0175057324510391e+06 -1.1708378904447623e+06 0.0000000000000000e+00  -2.7366503678827343e+05 2.8453938462078589e+05 0.0000000000000000e+00  -1.6956656594951966e+05 4.2906973743265744e+03 0.0000000000000000e+00  -1.2329285792875104e+06 -1.1167613444628119e+06 0.0000000000000000e+00  1.1560577868405669e+06 -6.4060519819826738e+05 0.0000000000000000e+00  8.2235243323411292e+05 -1.0922525553253992e+05 0.0000000000000000e+00  4.3281411289083486e+05 8.3660839801471203e+05 0.0000000000000000e+00  -4.7321092438968155e+05 -3.7939199566206418e+05 0.0000000000000000e+00  -3.5420547610486782e+05 1.5106864409773995e+05 0.0000000000000000e+00  -2.2672686200584850e+05 -1.3491388424333383e+05 0.0000000000000000e+00  -2.8834508668003231e+05 -4.5709295463029837e+05 0.0000000000000000e+00  -2.5178043907587064e+05 5.6086713752958800e+04 0.0000000000000000e+00  -1.9645042301128921e+05 1.2043587435117050e+05 0.0000000000000000e+00  -5.5319443802962732e+05 -1.1074143041179662e+05 0.0000000000000000e+00  2.5818894538605600e+05 -5.7192735537044297e+05 0.0000000000000000e+00  3.9627488202245790e+05 1.1676738769791885e+05 0.0000000000000000e+00  2.0884429066611253e+05 2.3727347833744989e+05 0.0000000000000000e+00  2.5918144472251862e+05 2.5913532656731221e+05 0.0000000000000000e+00  -1.5029011416739441e+05 -2.9454360275185463e+05 0.0000000000000000e+00  -1.9427611548595014e+05 -2.2762602040786628e+05 0.0000000000000000e+00  -6.3932290109136084e+05 7.2297521356670791e+05 0.0000000000000000e+00  -3.5016601849849045e+05 3.3966806678855553e+05 0.0000000000000000e+00  -5.9992637234668760e+05 3.0967578183444118e+05 0.0000000000000000e+00  -1.8752641790433507e+05 -3.8721798095023393e+05 0.0000000000000000e+00  -2.2819982207491502e+05 -2.2399343645825292e+05 0.0000000000000000e+00  -7.3901203033573707e+04 8.4320925447432863e+04 0.0000000000000000e+00  -5.1035861684788612e+05 -3.1542378416379524e+04 0.0000000000000000e+00  -3.3037081790366035e+05 -8.2969226292995817e+05 0.0000000000000000e+00  -5.3423254877420666e+05 -3.1091830665541263e+04 0.0000000000000000e+00  -3.7270111237059825e+05 -2.7829585281500098e+05 0.0000000000000000e+00  3.8098840658668691e+05 -2.1304693236798805e+05 0.0000000000000000e+00  1.8879963429406361e+05 2.8424451754868729e+04 0.0000000000000000e+00  -1.5276844422561652e+05 -9.0151555747264982e+04 0.0000000000000000e+00  -2.7876252996693691e+05 -2.1840008994139073e+05 0.0000000000000000e+00  -4.5727262136594247e+04 4.5404698413465067e+05 0.0000000000000000e+00  2.0924033694875339e+05 -3.8140254445367208e+05 0.0000000000000000e+00  -3.2491620823478280e+05 2.3976666764053921e+05 0.0000000000000000e+00  -1.7893700763838823e+05 -1.8314052691115066e+05 0.0000000000000000e+00  -2.1761773550544496e+05 -7.5356597641249871e+04 0.0000000000000000e+00  -9.4398029599458780e+04 3.6161008624832146e+05 0.0000000000000000e+00  1.9866684748015743e+03 -7.1546566920731741e+04 0.0000000000000000e+00  4.9820594157747243e+05 -2.1594051585678500e+05 0.0000000000000000e+00  1.1930303137739911e+05 -1.1743292338677611e+05 0.0000000000000000e+00  3.0269096398724720e+05 2.9133068307741528e+05 0.0000000000000000e+00  -6.7579180149412234e+04 -2.3011786172402426e+05 0.0000000000000000e+00  -1.2315635103284294e+05 3.8479990631920582e+05 0.0000000000000000e+00  2.0307640843604374e+05 -6.8870035434087418e+04 0.0000000000000000e+00  -2.1225201244326800e+05 6.0494348355828936e+05 0.0000000000000000e+00  2.2614333714738049e+05 -5.5299314377581293e+05 0.0000000000000000e+00  -3.7362377858150960e+05 1.4135339901327228e+05 0.0000000000000000e+00  -2.3596224517316869e+05 1.3400667496975927e+05 0.0000000000000000e+00  -3.7719037325847504e+05 4.4296385921216402e+04 0.0000000000000000e+00  -3.1737702711826848e+05 7.0642566100639512e+05 0.0000000000000000e+00  -1.2340521173084567e+05 8.7390438829175499e+05 0.0000000000000000e+00  -3.9282911721465725e+05 -1.0215455723298241e+05 0.0000000000000000e+00  -7.7753698022997240e+05 -1.1262776311811562e+05 0.0000000000000000e+00  9.8412458300360595e+05 2.5617319241708095e+05 0.0000000000000000e+00  -5.9682182329096388e+04 2.7743245176960621e+05 0.0000000000000000e+00  3.4476465823345556e+05 -7.8705411655668591e+04 0.0000000000000000e+00  -6.6940564956924133e+05 3.8950483092154295e+05 0.0000000000000000e+00  2.0338045336961123e+05 -2.4957800841743266e+05 0.0000000000000000e+00  1.8153398453319047e+05 1.9786001048917571e+05 0.0000000000000000e+00  4.6851733221419138e+05 3.0336181264565857e+04 0.0000000000000000e+00  -4.9691183996473521e+05 9.6888366342913985e+04 0.0000000000000000e+00  4.2926225350604544e+05 2.2063012347304088e+05 0.0000000000000000e+00  9.1798991919306281e+04 2.1381123065661750e+05 0.0000000000000000e+00  -2.3616804671798516e+04 -2.3311239322839386e+05 0.0000000000000000e+00  -3.9722679416604704e+04 -2.8677437849989336e+05 0.0000000000000000e+00  -7.7296191534750425e+04 6.1135625266864708e-11 0.0000000000000000e+00  3.3775833745634049e+05 0.0000000000000000e+00 0.0000000000000000e+00  7.2626697625123255e+05 1.2211371941668193e+06 0.0000000000000000e+00  1.2716848079188282e+06 1.2349551716370306e+04 0.0000000000000000e+00  -2.1474595068619763e+06 1.0173652680077103e+06 0.0000000000000000e+00  3.5667655773028079e+05 7.1492263671882078e+05 0.0000000000000000e+00  -3.6483334436251764e+05 1.0572791913229725e+06 0.0000000000000000e+00  -5.5229878742818523e+05 7.0363422561976290e+05 0.0000000000000000e+00  -1.4837939421204111e+05 6.0110745110429016e+04 0.0000000000000000e+00  -9.7721138958243222e+05 -2.7741862039326073e+05 0.0000000000000000e+00  -6.8032589590694639e+05 -6.4348341914749541e+05 0.0000000000000000e+00  6.1531135236080538e+05 3.3249443986472423e+05 0.0000000000000000e+00  -2.2329595261279496e+05 8.9404421025201364e+05 0.0000000000000000e+00  -6.9218559141406091e+05 -5.5399042531312245e+05 0.0000000000000000e+00  -3.3919123740818677e+05 -1.8709391418850893e+05 0.0000000000000000e+00  -2.0321135526969473e+05 8.4950195003613550e+05 0.0000000000000000e+00  -1.6181384159048984e+05 1.8667581324556697e+03 0.0000000000000000e+00  -2.7014833068383561e+05 -6.8040854671509354e+05 0.0000000000000000e+00  3.2550894269652502e+05 3.7284943685364909e+05 0.0000000000000000e+00  -1.5462368114770431e+05 9.5924006432860671e+05 0.0000000000000000e+00  -3.8914366505564272e+05 -2.9402988295025053e+05 0.0000000000000000e+00  -1.4417535244406681e+05 1.6143092046751390e+05 0.0000000000000000e+00  1.4244377812927775e+05 1.7006322997482328e+05 0.0000000000000000e+00  -2.3328183976501424e+05 1.2424152270231858e+04 0.0000000000000000e+00  -6.1784124413804544e+04 -1.7818600475446263e+05 0.0000000000000000e+00  -6.7193682229522197e+05 6.4056265478532866e+05 0.0000000000000000e+00  -1.5116354922582940e+05 4.6609254359775962e+05 0.0000000000000000e+00  2.8110628300848952e+05 -7.8113482388231147e+05 0.0000000000000000e+00  1.8345487043736351e+05 1.0812145599793843e+04 0.0000000000000000e+00  -7.9119349782448774e+05 -3.6420842934298678e+05 0.0000000000000000e+00  -5.6508489373126929e+05 3.6033451103113132e+05 0.0000000000000000e+00  -3.2791648070578236e+05 -1.3521665757036651e+05 0.0000000000000000e+00  -1.4957395815113728e+05 1.6641638720215188e+05 0.0000000000000000e+00  -4.9928333161774339e+04 -2.8246980077225924e+05 0.0000000000000000e+00  -1.3448260677419399e+05 2.1023666225452934e+05 0.0000000000000000e+00  9.5933479501612004e+04 -2.1820575324085763e+04 0.0000000000000000e+00  -1.7715287720249040e+05 -9.0136787129739023e+04 0.0000000000000000e+00  -1.3568052994688287e+04 -4.1032528190485900e+05 0.0000000000000000e+00  -5.12246