<?xml version="1.0"?>
<VTKFile type="UnstructuredGrid"  version="0.1"  >
<UnstructuredGrid>
<Piece  NumberOfPoints="1369" NumberOfCells="2560">
<Points>
<DataArray  type="Float64"  NumberOfComponents="3"  format="ascii">0 0 0  0.75 0 0  1.5 0 0  2.25 0 0  3 0 0  3.75 0 0  4.5 0 0  5.25 0 0  6 0 0  6.75 0 0  7.5 0 0  8.25 0 0  9 0 0  9.75 0 0  10.5 0 0  11.25 0 0  12 0 0  12.75 0 0  13.5 0 0  14.25 0 0  15 0 0  15.75 0 0  16.5 0 0  17.25 0 0  18 0 0  18.75 0 0  19.5 0 0  20.25 0 0  21 0 0  21.75 0 0  22.5 0 0  23.25 0 0  24 0 0  24.75 0 0  25.5 0 0  26.25 0 0  27 0 0  27.75 0 0  28.5 0 0  29.25 0 0  30 0 0  30.75 0 0  31.5 0 0  32.25 0 0  33 0 0  33.75 0 0  34.5 0 0  35.25 0 0  36 0 0  36.75 0 0  37.5 0 0  38.25 0 0  39 0 0  39.75 0 0  40.5 0 0  41.25 0 0  42 0 0  42.75 0 0  43.5 0 0  44.25 0 0  45 0 0  45.75 0 0  46.5 0 0  47.25 0 0  48 0 0  48.75 0 0  49.5 0 0  50.25 0 0  51 0 0  51.75 0 0  52.5 0 0  53.25 0 0  54 0 0  54.75 0 0  55.5 0 0  56.25 0 0  57 0 0  57.75 0 0  58.5 0 0  59.25 0 0  60 0 0  0 0.5 0  0.75 0.5 0  1.5 0.5 0  2.25 0.5 0  3 0.5 0  3.75 0.5 0  4.5 0.5 0  5.25 0.5 0  6 0.5 0  6.75 0.5 0  7.5 0.5 0  8.25 0.5 0  9 0.5 0  9.75 0.5 0  10.5 0.5 0  11.25 0.5 0  12 0.5 0  12.75 0.5 0  13.5 0.5 0  14.25 0.5 0  15 0.5 0  15.75 0.5 0  16.5 0.5 0  17.25 0.5 0  18 0.5 0  18.75 0.5 0  19.5 0.5 0  20.25 0.5 0  21 0.5 0  21.75 0.5 0  22.5 0.5 0  23.25 0.5 0  24 0.5 0  24.75 0.5 0  25.5 0.5 0  26.25 0.5 0  27 0.5 0  27.75 0.5 0  28.5 0.5 0  29.25 0.5 0  30 0.5 0  30.75 0.5 0  31.5 0.5 0  32.25 0.5 0  33 0.5 0  33.75 0.5 0  34.5 0.5 0  35.25 0.5 0  36 0.5 0  36.75 0.5 0  37.5 0.5 0  38.25 0.5 0  39 0.5 0  39.75 0.5 0  40.5 0.5 0  41.25 0.5 0  42 0.5 0  42.75 0.5 0  43.5 0.5 0  44.25 0.5 0  45 0.5 0  45.75 0.5 0  46.5 0.5 0  47.25 0.5 0  48 0.5 0  48.75 0.5 0  49.5 0.5 0  50.25 0.5 0  51 0.5 0  51.75 0.5 0  52.5 0.5 0  53.25 0.5 0  54 0.5 0  54.75 0.5 0  55.5 0.5 0  56.25 0.5 0  57 0.5 0  57.75 0.5 0  58.5 0.5 0  59.25 0.5 0  60 0.5 0  0 1 0  0.75 1 0  1.5 1 0  2.25 1 0  3 1 0  3.75 1 0  4.5 1 0  5.25 1 0  6 1 0  6.75 1 0  7.5 1 0  8.25 1 0  9 1 0  9.75 1 0  10.5 1 0  11.25 1 0  12 1 0  12.75 1 0  13.5 1 0  14.25 1 0  15 1 0  15.75 1 0  16.5 1 0  17.25 1 0  18 1 0  18.75 1 0  19.5 1 0  20.25 1 0  21 1 0  21.75 1 0  22.5 1 0  23.25 1 0  24 1 0  24.75 1 0  25.5 1 0  26.25 1 0  27 1 0  27.75 1 0  28.5 1 0  29.25 1 0  30 1 0  30.75 1 0  31.5 1 0  32.25 1 0  33 1 0  33.75 1 0  34.5 1 0  35.25 1 0  36 1 0  36.75 1 0  37.5 1 0  38.25 1 0  39 1 0  39.75 1 0  40.5 1 0  41.25 1 0  42 1 0  42.75 1 0  43.5 1 0  44.25 1 0  45 1 0  45.75 1 0  46.5 1 0  47.25 1 0  48 1 0  48.75 1 0  49.5 1 0  50.25 1 0  51 1 0  51.75 1 0  52.5 1 0  53.25 1 0  54 1 0  54.75 1 0  55.5 1 0  56.25 1 0  57 1 0  57.75 1 0  58.5 1 0  59.25 1 0  60 1 0  0 1.5 0  0.75 1.5 0  1.5 1.5 0  2.25 1.5 0  3 1.5 0  3.75 1.5 0  4.5 1.5 0  5.25 1.5 0  6 1.5 0  6.75 1.5 0  7.5 1.5 0  8.25 1.5 0  9 1.5 0  9.75 1.5 0  10.5 1.5 0  11.25 1.5 0  12 1.5 0  12.75 1.5 0  13.5 1.5 0  14.25 1.5 0  15 1.5 0  15.75 1.5 0  16.5 1.5 0  17.25 1.5 0  18 1.5 0  18.75 1.5 0  19.5 1.5 0  20.25 1.5 0  21 1.5 0  21.75 1.5 0  22.5 1.5 0  23.25 1.5 0  24 1.5 0  24.75 1.5 0  25.5 1.5 0  26.25 1.5 0  27 1.5 0  27.75 1.5 0  28.5 1.5 0  29.25 1.5 0  30 1.5 0  30.75 1.5 0  31.5 1.5 0  32.25 1.5 0  33 1.5 0  33.75 1.5 0  34.5 1.5 0  35.25 1.5 0  36 1.5 0  36.75 1.5 0  37.5 1.5 0  38.25 1.5 0  39 1.5 0  39.75 1.5 0  40.5 1.5 0  41.25 1.5 0  42 1.5 0  42.75 1.5 0  43.5 1.5 0  44.25 1.5 0  45 1.5 0  45.75 1.5 0  46.5 1.5 0  47.25 1.5 0  48 1.5 0  48.75 1.5 0  49.5 1.5 0  50.25 1.5 0  51 1.5 0  51.75 1.5 0  52.5 1.5 0  53.25 1.5 0  54 1.5 0  54.75 1.5 0  55.5 1.5 0  56.25 1.5 0  57 1.5 0  57.75 1.5 0  58.5 1.5 0  59.25 1.5 0  60 1.5 0  0 2 0  0.75 2 0  1.5 2 0  2.25 2 0  3 2 0  3.75 2 0  4.5 2 0  5.25 2 0  6 2 0  6.75 2 0  7.5 2 0  8.25 2 0  9 2 0  9.75 2 0  10.5 2 0  11.25 2 0  12 2 0  12.75 2 0  13.5 2 0  14.25 2 0  15 2 0  15.75 2 0  16.5 2 0  17.25 2 0  18 2 0  18.75 2 0  19.5 2 0  20.25 2 0  21 2 0  21.75 2 0  22.5 2 0  23.25 2 0  24 2 0  24.75 2 0  25.5 2 0  26.25 2 0  27 2 0  27.75 2 0  28.5 2 0  29.25 2 0  30 2 0  30.75 2 0  31.5 2 0  32.25 2 0  33 2 0  33.75 2 0  34.5 2 0  35.25 2 0  36 2 0  36.75 2 0  37.5 2 0  38.25 2 0  39 2 0  39.75 2 0  40.5 2 0  41.25 2 0  42 2 0  42.75 2 0  43.5 2 0  44.25 2 0  45 2 0  45.75 2 0  46.5 2 0  47.25 2 0  48 2 0  48.75 2 0  49.5 2 0  50.25 2 0  51 2 0  51.75 2 0  52.5 2 0  53.25 2 0  54 2 0  54.75 2 0  55.5 2 0  56.25 2 0  57 2 0  57.75 2 0  58.5 2 0  59.25 2 0  60 2 0  0 2.5 0  0.75 2.5 0  1.5 2.5 0  2.25 2.5 0  3 2.5 0  3.75 2.5 0  4.5 2.5 0  5.25 2.5 0  6 2.5 0  6.75 2.5 0  7.5 2.5 0  8.25 2.5 0  9 2.5 0  9.75 2.5 0  10.5 2.5 0  11.25 2.5 0  12 2.5 0  12.75 2.5 0  13.5 2.5 0  14.25 2.5 0  15 2.5 0  15.75 2.5 0  16.5 2.5 0  17.25 2.5 0  18 2.5 0  18.75 2.5 0  19.5 2.5 0  20.25 2.5 0  21 2.5 0  21.75 2.5 0  22.5 2.5 0  23.25 2.5 0  24 2.5 0  24.75 2.5 0  25.5 2.5 0  26.25 2.5 0  27 2.5 0  27.75 2.5 0  28.5 2.5 0  29.25 2.5 0  30 2.5 0  30.75 2.5 0  31.5 2.5 0  32.25 2.5 0  33 2.5 0  33.75 2.5 0  34.5 2.5 0  35.25 2.5 0  36 2.5 0  36.75 2.5 0  37.5 2.5 0  38.25 2.5 0  39 2.5 0  39.75 2.5 0  40.5 2.5 0  41.25 2.5 0  42 2.5 0  42.75 2.5 0  43.5 2.5 0  44.25 2.5 0  45 2.5 0  45.75 2.5 0  46.5 2.5 0  47.25 2.5 0  48 2.5 0  48.75 2.5 0  49.5 2.5 0  50.25 2.5 0  51 2.5 0  51.75 2.5 0  52.5 2.5 0  53.25 2.5 0  54 2.5 0  54.75 2.5 0  55.5 2.5 0  56.25 2.5 0  57 2.5 0  57.75 2.5 0  58.5 2.5 0  59.25 2.5 0  60 2.5 0  0 3 0  0.75 3 0  1.5 3 0  2.25 3 0  3 3 0  3.75 3 0  4.5 3 0  5.25 3 0  6 3 0  6.75 3 0  7.5 3 0  8.25 3 0  9 3 0  9.75 3 0  10.5 3 0  11.25 3 0  12 3 0  12.75 3 0  13.5 3 0  14.25 3 0  15 3 0  15.75 3 0  16.5 3 0  17.25 3 0  18 3 0  18.75 3 0  19.5 3 0  20.25 3 0  21 3 0  21.75 3 0  22.5 3 0  23.25 3 0  24 3 0  24.75 3 0  25.5 3 0  26.25 3 0  27 3 0  27.75 3 0  28.5 3 0  29.25 3 0  30 3 0  30.75 3 0  31.5 3 0  32.25 3 0  33 3 0  33.75 3 0  34.5 3 0  35.25 3 0  36 3 0  36.75 3 0  37.5 3 0  38.25 3 0  39 3 0  39.75 3 0  40.5 3 0  41.25 3 0  42 3 0  42.75 3 0  43.5 3 0  44.25 3 0  45 3 0  45.75 3 0  46.5 3 0  47.25 3 0  48 3 0  48.75 3 0  49.5 3 0  50.25 3 0  51 3 0  51.75 3 0  52.5 3 0  53.25 3 0  54 3 0  54.75 3 0  55.5 3 0  56.25 3 0  57 3 0  57.75 3 0  58.5 3 0  59.25 3 0  60 3 0  0 3.5 0  0.75 3.5 0  1.5 3.5 0  2.25 3.5 0  3 3.5 0  3.75 3.5 0  4.5 3.5 0  5.25 3.5 0  6 3.5 0  6.75 3.5 0  7.5 3.5 0  8.25 3.5 0  9 3.5 0  9.75 3.5 0  10.5 3.5 0  11.25 3.5 0  12 3.5 0  12.75 3.5 0  13.5 3.5 0  14.25 3.5 0  15 3.5 0  15.75 3.5 0  16.5 3.5 0  17.25 3.5 0  18 3.5 0  18.75 3.5 0  19.5 3.5 0  20.25 3.5 0  21 3.5 0  21.75 3.5 0  22.5 3.5 0  23.25 3.5 0  24 3.5 0  24.75 3.5 0  25.5 3.5 0  26.25 3.5 0  27 3.5 0  27.75 3.5 0  28.5 3.5 0  29.25 3.5 0  30 3.5 0  30.75 3.5 0  31.5 3.5 0  32.25 3.5 0  33 3.5 0  33.75 3.5 0  34.5 3.5 0  35.25 3.5 0  36 3.5 0  36.75 3.5 0  37.5 3.5 0  38.25 3.5 0  39 3.5 0  39.75 3.5 0  40.5 3.5 0  41.25 3.5 0  42 3.5 0  42.75 3.5 0  43.5 3.5 0  44.25 3.5 0  45 3.5 0  45.75 3.5 0  46.5 3.5 0  47.25 3.5 0  48 3.5 0  48.75 3.5 0  49.5 3.5 0  50.25 3.5 0  51 3.5 0  51.75 3.5 0  52.5 3.5 0  53.25 3.5 0  54 3.5 0  54.75 3.5 0  55.5 3.5 0  56.25 3.5 0  57 3.5 0  57.75 3.5 0  58.5 3.5 0  59.25 3.5 0  60 3.5 0  0 4 0  0.75 4 0  1.5 4 0  2.25 4 0  3 4 0  3.75 4 0  4.5 4 0  5.25 4 0  6 4 0  6.75 4 0  7.5 4 0  8.25 4 0  9 4 0  9.75 4 0  10.5 4 0  11.25 4 0  12 4 0  12.75 4 0  13.5 4 0  14.25 4 0  15 4 0  15.75 4 0  16.5 4 0  17.25 4 0  18 4 0  18.75 4 0  19.5 4 0  20.25 4 0  21 4 0  21.75 4 0  22.5 4 0  23.25 4 0  24 4 0  24.75 4 0  25.5 4 0  26.25 4 0  27 4 0  27.75 4 0  28.5 4 0  29.25 4 0  30 4 0  30.75 4 0  31.5 4 0  32.25 4 0  33 4 0  33.75 4 0  34.5 4 0  35.25 4 0  36 4 0  36.75 4 0  37.5 4 0  38.25 4 0  39 4 0  39.75 4 0  40.5 4 0  41.25 4 0  42 4 0  42.75 4 0  43.5 4 0  44.25 4 0  45 4 0  45.75 4 0  46.5 4 0  47.25 4 0  48 4 0  48.75 4 0  49.5 4 0  50.25 4 0  51 4 0  51.75 4 0  52.5 4 0  53.25 4 0  54 4 0  54.75 4 0  55.5 4 0  56.25 4 0  57 4 0  57.75 4 0  58.5 4 0  59.25 4 0  60 4 0  0.375 0.25 0  1.125 0.25 0  1.875 0.25 0  2.625 0.25 0  3.375 0.25 0  4.125 0.25 0  4.875 0.25 0  5.625 0.25 0  6.375 0.25 0  7.125 0.25 0  7.875 0.25 0  8.625 0.25 0  9.375 0.25 0  10.125 0.25 0  10.875 0.25 0  11.625 0.25 0  12.375 0.25 0  13.125 0.25 0  13.875 0.25 0  14.625 0.25 0  15.375 0.25 0  16.125 0.25 0  16.875 0.25 0  17.625 0.25 0  18.375 0.25 0  19.125 0.25 0  19.875 0.25 0  20.625 0.25 0  21.375 0.25 0  22.125 0.25 0  22.875 0.25 0  23.625 0.25 0  24.375 0.25 0  25.125 0.25 0  25.875 0.25 0  26.625 0.25 0  27.375 0.25 0  28.125 0.25 0  28.875 0.25 0  29.625 0.25 0  30.375 0.25 0  31.125 0.25 0  31.875 0.25 0  32.625 0.25 0  33.375 0.25 0  34.125 0.25 0  34.875 0.25 0  35.625 0.25 0  36.375 0.25 0  37.125 0.25 0  37.875 0.25 0  38.625 0.25 0  39.375 0.25 0  40.125 0.25 0  40.875 0.25 0  41.625 0.25 0  42.375 0.25 0  43.125 0.25 0  43.875 0.25 0  44.625 0.25 0  45.375 0.25 0  46.125 0.25 0  46.875 0.25 0  47.625 0.25 0  48.375 0.25 0  49.125 0.25 0  49.875 0.25 0  50.625 0.25 0  51.375 0.25 0  52.125 0.25 0  52.875 0.25 0  53.625 0.25 0  54.375 0.25 0  55.125 0.25 0  55.875 0.25 0  56.625 0.25 0  57.375 0.25 0  58.125 0.25 0  58.875 0.25 0  59.625 0.25 0  0.375 0.75 0  1.125 0.75 0  1.875 0.75 0  2.625 0.75 0  3.375 0.75 0  4.125 0.75 0  4.875 0.75 0  5.625 0.75 0  6.375 0.75 0  7.125 0.75 0  7.875 0.75 0  8.625 0.75 0  9.375 0.75 0  10.125 0.75 0  10.875 0.75 0  11.625 0.75 0  12.375 0.75 0  13.125 0.75 0  13.875 0.75 0  14.625 0.75 0  15.375 0.75 0  16.125 0.75 0  16.875 0.75 0  17.625 0.75 0  18.375 0.75 0  19.125 0.75 0  19.875 0.75 0  20.625 0.75 0  21.375 0.75 0  22.125 0.75 0  22.875 0.75 0  23.625 0.75 0  24.375 0.75 0  25.125 0.75 0  25.875 0.75 0  26.625 0.75 0  27.375 0.75 0  28.125 0.75 0  28.875 0.75 0  29.625 0.75 0  30.375 0.75 0  31.125 0.75 0  31.875 0.75 0  32.625 0.75 0  33.375 0.75 0  34.125 0.75 0  34.875 0.75 0  35.625 0.75 0  36.375 0.75 0  37.125 0.75 0  37.875 0.75 0  38.625 0.75 0  39.375 0.75 0  40.125 0.75 0  40
[...]
<PointData  Vectors="f_8-0"> 
<DataArray  type="Float64"  Name="f_8-0"  NumberOfComponents="3" format="ascii">5.6042684276302196e-11 -1.9196578317999206e-10 0.0000000000000000e+00  1.1714014408526787e-10 9.7107867580252444e-11 0.0000000000000000e+00  9.7542259726685514e-09 -4.0043345985387521e-09 0.0000000000000000e+00  4.2642546600228336e-09 -1.7903394042293727e-09 0.0000000000000000e+00  -2.4177792055686829e-09 0.0000000000000000e+00 0.0000000000000000e+00  3.7026669554226781e-08 -5.3888181634283219e-08 0.0000000000000000e+00  3.0182596393272897e-10 0.0000000000000000e+00 0.0000000000000000e+00  0.0000000000000000e+00 0.0000000000000000e+00 0.0000000000000000e+00  -2.5826989240799190e-09 7.4169645907700311e-10 0.0000000000000000e+00  0.0000000000000000e+00 0.0000000000000000e+00 0.0000000000000000e+00  -6.8806492912614088e-08 2.4902913378293666e-08 0.0000000000000000e+00  1.7874535410701693e-08 1.3139215975706432e-08 0.0000000000000000e+00  1.4501815128079498e-08 2.5661824594500776e-10 0.0000000000000000e+00  1.5814858372174035e-08 1.1723345090571911e-08 0.0000000000000000e+00  5.3199302787770538e-10 -6.5560394834475463e-10 0.0000000000000000e+00  -4.5553392805272943e-08 -3.2256914219651599e-08 0.0000000000000000e+00  -1.3392198332797710e-08 1.7062496060658987e-09 0.0000000000000000e+00  -1.5037201668463542e-07 0.0000000000000000e+00 0.0000000000000000e+00  -1.2992214131594417e-08 -1.8671640926670467e-08 0.0000000000000000e+00  1.0095065884143080e-08 9.9603760250822886e-09 0.0000000000000000e+00  0.0000000000000000e+00 0.0000000000000000e+00 0.0000000000000000e+00  0.0000000000000000e+00 0.0000000000000000e+00 0.0000000000000000e+00  0.0000000000000000e+00 0.0000000000000000e+00 0.0000000000000000e+00  -7.7769118626322225e-09 -5.6577313132081985e-08 0.0000000000000000e+00  -9.4003046951651832e-09 5.8600511360764722e-08 0.0000000000000000e+00  1.6917806219343183e-08 -5.4609074647253273e-09 0.0000000000000000e+00  1.2085195406305498e-07 -1.8749815273679521e-08 0.0000000000000000e+00  0.0000000000000000e+00 0.0000000000000000e+00 0.0000000000000000e+00  -1.7036766938270410e-08 -1.1014196705518506e-08 0.0000000000000000e+00  0.0000000000000000e+00 0.0000000000000000e+00 0.0000000000000000e+00  2.3116460240010817e-08 5.2934824021664710e-09 0.0000000000000000e+00  2.0988037959504341e-09 5.1986447386775667e-09 0.0000000000000000e+00  -7.0887844438014881e-08 1.9129575704538639e-08 0.0000000000000000e+00  1.1872524698088348e-08 -6.3127994939928057e-09 0.0000000000000000e+00  0.0000000000000000e+00 9.8899478454570293e-10 0.0000000000000000e+00  -1.2989778230436309e-08 -9.2926112879592573e-09 0.0000000000000000e+00  2.6497323919303277e-08 -2.6595479559396005e-08 0.0000000000000000e+00  1.5390866108213130e-08 1.3101580050551101e-08 0.0000000000000000e+00  0.0000000000000000e+00 0.0000000000000000e+00 0.0000000000000000e+00  0.0000000000000000e+00 -2.2404479620941074e-10 0.0000000000000000e+00  1.3469760901817795e-09 0.0000000000000000e+00 0.0000000000000000e+00  -3.9166273188513923e-09 -2.1124051769071807e-08 0.0000000000000000e+00  9.0885587637533729e-08 -7.4869903003220870e-08 0.0000000000000000e+00  2.7641353379826176e-08 9.6967818804906018e-09 0.0000000000000000e+00  9.3614403275598448e-09 2.7030012216086392e-09 0.0000000000000000e+00  4.4640798239203429e-09 -1.7106564681764592e-08 0.0000000000000000e+00  -9.7672377233295129e-09 6.8382917858158577e-09 0.0000000000000000e+00  8.4480270463358779e-09 -1.1508332260631123e-08 0.0000000000000000e+00  3.6890199340558519e-08 3.3517794963011593e-09 0.0000000000000000e+00  -1.0022562097056978e-08 -2.4737904380366305e-08 0.0000000000000000e+00  1.7705095627433803e-09 3.4461233311904634e-08 0.0000000000000000e+00  -1.6250285755968116e-08 1.1564824597474507e-08 0.0000000000000000e+00  8.7390990402152229e-10 3.8148054911075385e-09 0.0000000000000000e+00  0.0000000000000000e+00 0.0000000000000000e+00 0.0000000000000000e+00  1.3136856116403055e-08 5.3541869648126073e-09 0.0000000000000000e+00  -7.9473567420790422e-08 -1.1158109140477873e-07 0.0000000000000000e+00  -5.7104069112639862e-10 -2.5874735768350301e-09 0.0000000000000000e+00  -1.0680402613141125e-08 4.2672281366668497e-10 0.0000000000000000e+00  0.0000000000000000e+00 0.0000000000000000e+00 0.0000000000000000e+00  0.0000000000000000e+00 1.9160353239638406e-10 0.0000000000000000e+00  -2.4451505121362411e-08 7.5092977919866053e-09 0.0000000000000000e+00  -5.0857565415363207e-08 3.7072443137475083e-08 0.0000000000000000e+00  -2.1296346688257283e-09 -5.6874212597729986e-11 0.0000000000000000e+00  -5.8810129728030753e-07 -4.6462304428462531e-08 0.0000000000000000e+00  0.0000000000000000e+00 0.0000000000000000e+00 0.0000000000000000e+00  3.8511687259367129e-07 -8.7962066812435164e-08 0.0000000000000000e+00  0.0000000000000000e+00 -7.3301127867868428e-10 0.0000000000000000e+00  0.0000000000000000e+00 0.0000000000000000e+00 0.0000000000000000e+00  6.8094689879904788e-09 8.0256638449896956e-09 0.0000000000000000e+00  -3.2725608837200813e-08 2.2638665689622450e-08 0.0000000000000000e+00  0.0000000000000000e+00 4.1554560891295110e-10 0.0000000000000000e+00  -1.3487082953496031e-09 1.6167348302903202e-09 0.0000000000000000e+00  -2.9650014752837909e-07 1.2620111344042009e-07 0.0000000000000000e+00  1.6799953295967446e-08 -7.9071203149012497e-09 0.0000000000000000e+00  0.0000000000000000e+00 0.0000000000000000e+00 0.0000000000000000e+00  0.0000000000000000e+00 0.0000000000000000e+00 0.0000000000000000e+00  2.5454470095476818e-08 8.3239350972907672e-10 0.0000000000000000e+00  0.0000000000000000e+00 0.0000000000000000e+00 0.0000000000000000e+00  0.0000000000000000e+00 0.0000000000000000e+00 0.0000000000000000e+00  -3.9327760699285784e-10 -6.6277938774439203e-10 0.0000000000000000e+00  6.2422096364570754e-10 1.1903639354198783e-10 0.0000000000000000e+00  5.8090743586816790e+05 1.5606192671573350e-10 0.0000000000000000e+00  -4.2627795186391806e+04 -1.7178712892200044e+05 0.0000000000000000e+00  -8.8058833584977983e+04 -1.1028776825571933e+06 0.0000000000000000e+00  -1.5842084494459955e+05 9.6804886981831572e+05 0.0000000000000000e+00  5.9640310740616391e+04 1.0347582731816274e+06 0.0000000000000000e+00  -1.4152092728072223e+06 8.8091747021028143e+05 0.0000000000000000e+00  -5.6793490787633590e+05 5.0610330754710233e+05 0.0000000000000000e+00  -4.9615341635497462e+05 -4.9658540666906396e+05 0.0000000000000000e+00  1.6578420124286957e+05 -1.7421967737788858e+06 0.0000000000000000e+00  -1.2614086310889253e+06 -6.6338626446818362e+05 0.0000000000000000e+00  -7.6577038977046066e+05 2.7068495326087308e+04 0.0000000000000000e+00  -2.4189700721980978e+05 -1.0625850453445951e+05 0.0000000000000000e+00  6.4219954052923666e+05 -7.0541009043861879e+05 0.0000000000000000e+00  5.2877561401117884e+05 -8.3109316778110701e+05 0.0000000000000000e+00  -6.1241810645916115e+05 3.8006213208977028e+05 0.0000000000000000e+00  -2.5618173048336947e+05 -3.1644790329490049e+05 0.0000000000000000e+00  -1.2796327846438685e+06 -1.6798376282135500e+06 0.0000000000000000e+00  -5.1551484610394790e+05 -4.3163920266411139e+05 0.0000000000000000e+00  9.3968474240463367e+05 7.8808083157169260e+05 0.0000000000000000e+00  4.7230297365805268e+05 8.0810373490608926e+05 0.0000000000000000e+00  2.6638475416063715e+05 4.3028910633319453e+05 0.0000000000000000e+00  -3.9499819578033898e+03 -5.3389310232028936e+05 0.0000000000000000e+00  -5.0609757454523642e+05 -2.4338791299411684e+05 0.0000000000000000e+00  -1.2065624065693622e+04 -1.2627853405514416e+05 0.0000000000000000e+00  -6.5999510998828366e+04 2.7419259722336131e+05 0.0000000000000000e+00  3.8664289965799445e+05 1.2104812128895286e+06 0.0000000000000000e+00  1.7273535463801693e+05 -5.1905464466803632e+05 0.0000000000000000e+00  1.0845985214576410e+05 -2.9146661844083091e+05 0.0000000000000000e+00  1.0894405733677309e+06 1.8292488004094885e+04 0.0000000000000000e+00  -5.3047764937056007e+05 1.0028993477923346e+04 0.0000000000000000e+00  -6.2770712514864875e+05 1.2755670176077911e+05 0.0000000000000000e+00  1.3493079418008425e+05 1.8482284541071291e+05 0.0000000000000000e+00  1.8894611100109475e+05 6.4172339078678357e+04 0.0000000000000000e+00  -2.1206155774902052e+05 -4.9154826687535015e+05 0.0000000000000000e+00  -9.9459087919935642e+05 -6.5694531709005660e+05 0.0000000000000000e+00  -6.3637987091765099e+05 -7.5128621258720348e+05 0.0000000000000000e+00  6.8280335406310263e+05 -9.8152285613856715e+04 0.0000000000000000e+00  -1.0158675709904812e+06 -3.3697653014578967e+05 0.0000000000000000e+00  -1.5204329684250804e+06 -9.0574633783688326e+05 0.0000000000000000e+00  -1.3605099479846563e+06 -5.2826864429849247e+05 0.0000000000000000e+00  -2.0047626714446500e+06 -9.7080997894189903e+05 0.0000000000000000e+00  -1.2338334420278675e+06 4.0334754742840253e+05 0.0000000000000000e+00  -1.5793401271417395e+06 5.6676784866098431e+05 0.0000000000000000e+00  -5.2125298484243522e+05 -1.1110965619692496e+05 0.0000000000000000e+00  -5.0696396552648855e+05 -1.0602366120924975e+06 0.0000000000000000e+00  3.9708142139443551e+05 -3.3013650952208892e+05 0.0000000000000000e+00  2.3698008189997339e+05 -2.4168979051905053e+05 0.0000000000000000e+00  2.6417234657372028e+05 6.8296195239304984e+05 0.0000000000000000e+00  4.1360517778130679e+05 -7.5138191084820661e+05 0.0000000000000000e+00  -4.6123804391171149e+05 4.6154394018188462e+05 0.0000000000000000e+00  -6.4373237561980123e+05 -1.3175092181035089e+06 0.0000000000000000e+00  -8.2137089470724389e+05 -1.1280035621522152e+05 0.0000000000000000e+00  1.2970619535489466e+05 7.2012964843519870e+05 0.0000000000000000e+00  4.3834649274911126e+05 8.3876023945669830e+05 0.0000000000000000e+00  8.1865102032042760e+05 -2.2296984888932577e+05 0.0000000000000000e+00  -1.2694509396868901e+05 4.0892795408343320e+05 0.0000000000000000e+00  1.9295940887853487e+06 1.1234547491258089e+06 0.0000000000000000e+00  1.4658007300670733e+05 -1.0487188590966965e+05 0.0000000000000000e+00  -1.4948275256645554e+05 -7.5580268854005716e+05 0.0000000000000000e+00  3.6817938675391924e+05 -1.1666120020813282e+05 0.0000000000000000e+00  -8.6810559551699494e+05 -4.7320744871435850e+05 0.0000000000000000e+00  -5.0897413224468741e+05 5.7053142067444081e+04 0.0000000000000000e+00  -5.6128988194066205e+05 -2.0473133721763131e+05 0.0000000000000000e+00  1.0510239753452793e+06 8.8417295298062469e+04 0.0000000000000000e+00  -4.0131262893628460e+04 3.1928661824151211e+04 0.0000000000000000e+00  -1.0149142323142220e+06 4.8311442801202356e+05 0.0000000000000000e+00  -1.0668556921320888e+06 5.1532121018982155e+05 0.0000000000000000e+00  4.9692797480114951e+05 1.9677997626882844e+05 0.0000000000000000e+00  3.0815781388973643e+05 5.5423748141294054e+05 0.0000000000000000e+00  -1.5993010066617171e+06 -2.0662828793952654e+06 0.0000000000000000e+00  -4.9531882904826407e+05 2.5032812884780124e+05 0.0000000000000000e+00  -7.6444899930291914e+05 -7.0069979518606106e+05 0.0000000000000000e+00  8.0355904863121919e+05 6.8007675077074746e+04 0.0000000000000000e+00  1.3806859300107597e+06 -2.2514813314767838e+06 0.0000000000000000e+00  3.6608872976905096e+05 -2.8729147056388558e+05 0.0000000000000000e+00  -6.2777922082574747e+05 -1.9429067358927464e+05 0.0000000000000000e+00  1.0182684025730420e+05 -2.0340496165055849e+05 0.0000000000000000e+00  4.6741860691948945e+05 4.7923745852592356e+03 0.0000000000000000e+00  -7.9262118720084475e+05 1.7635943520179711e+05 0.0000000000000000e+00  -3.6055126134878740e+05 2.1483479080791407e+04 0.0000000000000000e+00  3.0530231616782106e+05 0.0000000000000000e+00 0.0000000000000000e+00  -5.6436033918580436e+05 7.9953172286611634e-11 0.0000000000000000e+00  1.4361220730544750e+06 4.6163214188835019e+05 0.0000000000000000e+00  -1.2396569421578327e+06 -1.1053147512703496e+04 0.0000000000000000e+00  -2.9703712995708903e+05 1.2814311429566024e+06 0.0000000000000000e+00  -1.7373899163599324e+06 1.0034159965381651e+06 0.0000000000000000e+00  -9.4926860265367327e+05 4.3144472523400967e+04 0.0000000000000000e+00  -7.5104854307126720e+05 -3.2551919595048268e+04 0.0000000000000000e+00  8.1362874226607222e+04 1.7703930383710586e+05 0.0000000000000000e+00  -6.8495817629849635e+03 3.5159462940075941e+05 0.0000000000000000e+00  5.2830724977222888e+05 -7.7796236261966231e+05 0.0000000000000000e+00  -5.4412796177785425e+05 -1.3628867238076957e+05 0.0000000000000000e+00  -6.4611843626519032e+04 2.0764176957578136e+05 0.0000000000000000e+00  -4.8513829366470448e+05 -1.3223427769504143e+06 0.0000000000000000e+00  1.6164939466646331e+05 7.7049753758297581e+05 0.0000000000000000e+00  -4.3512253052914498e+05 3.1187784573777375e+05 0.0000000000000000e+00  -7.9936335034017230e+05 -1.0790348887805694e+06 0.0000000000000000e+00  1.0475014126165881e+06 -8.1269068886808585e+05 0.0000000000000000e+00  4.5887821159138740e+05 -2.1367036977902285e+05 0.0000000000000000e+00  1.0029495549218511e+05 3.9852803488513798e+05 0.0000000000000000e+00  -2.8869780124744633e+05 -4.7322399927884876e+05 0.0000000000000000e+00  -5.6098427490685403e+05 9.4779709122323169e+04 0.0000000000000000e+00  -2.1328200525583027e+05 3.7200878375891619e+05 0.0000000000000000e+00  4.1307700812342425e+05 -4.2795715576658264e+05 0.0000000000000000e+00  3.2599482543241545e+04 1.8502382022191843e+05 0.0000000000000000e+00  7.1297158007457096e+04 7.6260488345226785e+05 0.0000000000000000e+00  -7.6292071186678266e+04 -2.2400609272494784e+05 0.0000000000000000e+00  4.0144097910115396e+05 -3.4483578601782727e+04 0.0000000000000000e+00  2.7745790983367793e+05 4.4992311435411620e+05 0.0000000000000000e+00  7.0949678097797834e+04 -9.1808294764305829e+04 0.0000000000000000e+00  7.3918437241959164e+05 4.0461042801217129e+05 0.0000000000000000e+00  -9.1739591722483234e+05 -2.9855106837841083e+05 0.0000000000000000e+00  -1.1414672604112639e+05 -5.5380179985046969e+05 0.0000000000000000e+00  -9.1869311957242759e+05 3.8313174773410475e+05 0.0000000000000000e+00  -5.8108995356197213e+05 3.9534599512254982e+05 0.0000000000000000e+00  -1.2742205697978449e+06 -2.4771572078465451e+04 0.0000000000000000e+00  -1.5824950940158166e+05 -1.0248792522829806e+06 0.0000000000000000e+00  8.8341358321841297e+04 3.4091052436471604e+04 0.0000000000000000e+00  2.0272513975743426e+05 -6.8146016443724147e+04 0.0000000000000000e+00  -1.2594516469178665e+06 -2.8209356781360763e+05 0.0000000000000000e+00  9.3457287448483563e+04 -1.0404942988739396e+06 0.0000000000000000e+00  -6.9491535326353740e+05 -7.7330334876221445e+04 0.0000000000000000e+00  -1.0593320251660964e+06 -5.8309124642643554e+05 0.0000000000000000e+00  4.9493937799023656e+05 -7.1189163941469940e+05 0.0000000000000000e+00  8.6832074722138525e+05 -4.3348022606129834e+05 0.0000000000000000e+00  -5.0077947190329531e+05 1.7786657481453087e+04 0.0000000000000000e+00  4.2117360845619194e+04 -1.3017500494442708e+06 0.0000000000000000e+00  7.8121369588411658e+05 8.8936097604365740e+05 0.0000000000000000e+00  -1.0183252599884149e+05 -1.5931025266609550e+05 0.0000000000000000e+00  -4.1274399002660176e+05 1.0568753355655235e+06 0.0000000000000000e+00  -1.0656340842082696e+06 -4.1190209534954123e+05 0.0000000000000000e+00  -1.3798444567813159e+06 -5.9634797610262502e+05 0.0000000000000000e+00  3.1196577719674120e+05 8.3583687756256433e+04 0.0000000000000000e+00  -4.6170929508280434e+05 -5.8893112163583876e+05 0.0000000000000000e+00  9.4585011436504207e+05 -2.6562863999000116e+05 0.0000000000000000e+00  1.0763612104244072e+06 6.4449296984098903e+04 0.0000000000000000e+00  3.2040529446010030e+05 4.7530623699721496e+05 0.0000000000000000e+00  6.3973423036588111e+05 9.3941763116529817e+05 0.0000000000000000e+00  -3.0569647743503517e+05 2.1244534586554361e+06 0.0000000000000000e+00  3.4740302264873614e+05 -4.9367893097451370e+05 0.0000000000000000e+00  5.5547965930465922e+04 1.2505226979721724e+06 0.0000000000000000e+00  2.3451247841681293e+05 -1.0428560837291381e+06 0.0000000000000000e+00  -1.2024678958556404e+05 8.2305359649333070e+04 0.0000000000000000e+00  -1.2516388709215506e+06 1.0122406638951134e+06 0.0000000000000000e+00  -1.7952055166414555e+05 1.6533547434840866e+05 0.0000000000000000e+00  -3.2938374128347001e+05 1.6402470734949270e+06 0.0000000000000000e+00  4.7513530728707399e+05 1.0574752388364708e+06 0.0000000000000000e+00  -1.3778851068080724e+06 6.6704806380046660e+05 0.0000000000000000e+00  9.0138655530421413e+05 -1.2423814060965444e+04 0.0000000000000000e+00  1.2770746875909562e+06 -5.0410680237858550e+05 0.0000000000000000e+00  1.3112921617292345e+05 5.3616882820714287e+04 0.0000000000000000e+00  1.4679982918252834e+05 -1.3522907641650802e+06 0.0000000000000000e+00  2.8731794599653629e+05 3.9139652079300216e+05 0.0000000000000000e+00  2.0874236979771920e+06 -1.7277070635422415e+06 0.0000000000000000e+00  7.2763952456556563e+05 1.6857113375336150e+04 0.0000000000000000e+00  1.8093696885636894e+06 7.9061706776963256e+05 0.0000000000000000e+00  -8.3036029216701072e+05 1.3185953494650095e+06 0.0000000000000000e+00  -2.0584100521603704e+05 1.2139222869885040e+06 0.0000000000000000e+00  -5.1700786581244884e+05 -4.5630435484274867e+05 0.0000000000000000e+00  -5.7758143953358091e+05 3.8858696462514380e+05 0.0000000000000000e+00  -1.3149731558355577e+06 -3.8586272090446757e+05 0.0000000000000000e+00  -8.7048094644494681e+05 -1.4064147078605242e-10 0.0000000000000000e+00  5.4347460051292808e+04 0.0000000000000000e+00 0.0000000000000000e+00  8.1430146918492368e+05 1.2053338614475168e+06 0.0000000000000000e+00  1.3410458078292958e+06 -2.0291952076195733e+05 0.0000000000000000e+00  -2.2333287132973038e+06 1.0247139870149151e+06 0.0000000000000000e+00  4.1598688187979534e+05 1.0961822498531314e+06 0.0000000000000000e+00  -1.5398846157452167e+05 1.0598394614016854e+06 0.0000000000000000e+00  -7.8486250218978629e+05 1.1054436911812872e+06 0.0000000000000000e+00  -3.6219408480379515e+05 6.5429687383389950e+05 0.0000000000000000e+00  -1.0133981751213799e+06 -8.6644452100916678e+04 0.0000000000000000e+00  -5.4009938867774745e+05 -6.7878299453419121e+05 0.0000000000000000e+00  3.9409435037860472e+05 1.1125308918142305e+06 0.0000000000000000e+00  1.5781318887036073e+05 1.5074589342529438e+06 0.0000000000000000e+00  -6.1251303892430279e+05 -2.5383030573599893e+05 0.0000000000000000e+00  -2.1897905163610680e+05 2.3388440978131158e+05 0.0000000000000000e+00  8.4164623604847817e+04 3.8874065260267549e+05 0.0000000000000000e+00  4.8175145963190246e+05 -1.5839006486091655e+05 0.0000000000000000e+00  3.6839041929538734e+05 -3.9153112689196470e+05 0.0000000000000000e+00  6.3196506444901752e+05 -1.8936581100754952e+05 0.0000000000000000e+00  -3.0207582087999425e+05 1.1681683318435173e+06 0.0000000000000000e+00  -9.5073738967525808e+05 -2.9845550068636931e+04 0.0000000000000000e+00  9.9181984295698383e+05 -3.1662830664378288e+05 0.0000000000000000e+00  5.2319771160865773e+05 -2.8352185130662663e+04 0.0000000000000000e+00  -2.9664680644530777e+04 -8.7392763277634920e+04 0.0000000000000000e+00  1.1257050563048883e+06 -7.9073485911155131e+05 0.0000000000000000e+00  -6.2826085830556951e+05 1.4300549403822385e+06 0.0000000000000000e+00  2.4182716232910645e+05 1.7047295906782424e+05 0.0000000000000000e+00  2.8862332270150131e+05 -5.9608892619782023e+05 0.0000000000000000e+00  1.2488621743779509e+04 3.8619179711104714e+05 0.0000000000000000e+00  -1.0286809376015539e+06 -6.3089885874279600e+05 0.0000000000000000e+00  -6.8136533079035755e+05 3.0105313065773720e+05 0.0000000000000000e+00  -1.5031081825593385e+05 -8.0742491863441444e+05 0.0000000000000000e+00  -1.9339627784190772e+06 -7.5833661639117496e+05 0.0000000000000000e+00  -7.9026294912213529e+05 -2.1940276362472109e+05 0.0000000000000000e+00  3.4009573908989289e+04 -2.8524560071379802e+05 0.0000000000000000e+00  -5.4573631136784548e+04 -3.7420838865074614e+05 0.0000000000000000e+00  -3.5828829700080567e+05 2.0070884215651720e+05 0.0000000000000000e+00  2.0639540732102966e+05 -3.5153604578047333e+05 0.0000000000000000e+00  -6.9700890053119670e+04 