<?xml version="1.0"?>
<VTKFile type="UnstructuredGrid"  version="0.1"  >
<UnstructuredGrid>
<Piece  NumberOfPoints="1369" NumberOfCells="2560">
<Points>
<DataArray  type="Float64"  NumberOfComponents="3"  format="ascii">0 0 0  0.75 0 0  1.5 0 0  2.25 0 0  3 0 0  3.75 0 0  4.5 0 0  5.25 0 0  6 0 0  6.75 0 0  7.5 0 0  8.25 0 0  9 0 0  9.75 0 0  10.5 0 0  11.25 0 0  12 0 0  12.75 0 0  13.5 0 0  14.25 0 0  15 0 0  15.75 0 0  16.5 0 0  17.25 0 0  18 0 0  18.75 0 0  19.5 0 0  20.25 0 0  21 0 0  21.75 0 0  22.5 0 0  23.25 0 0  24 0 0  24.75 0 0  25.5 0 0  26.25 0 0  27 0 0  27.75 0 0  28.5 0 0  29.25 0 0  30 0 0  30.75 0 0  31.5 0 0  32.25 0 0  33 0 0  33.75 0 0  34.5 0 0  35.25 0 0  36 0 0  36.75 0 0  37.5 0 0  38.25 0 0  39 0 0  39.75 0 0  40.5 0 0  41.25 0 0  42 0 0  42.75 0 0  43.5 0 0  44.25 0 0  45 0 0  45.75 0 0  46.5 0 0  47.25 0 0  48 0 0  48.75 0 0  49.5 0 0  50.25 0 0  51 0 0  51.75 0 0  52.5 0 0  53.25 0 0  54 0 0  54.75 0 0  55.5 0 0  56.25 0 0  57 0 0  57.75 0 0  58.5 0 0  59.25 0 0  60 0 0  0 0.5 0  0.75 0.5 0  1.5 0.5 0  2.25 0.5 0  3 0.5 0  3.75 0.5 0  4.5 0.5 0  5.25 0.5 0  6 0.5 0  6.75 0.5 0  7.5 0.5 0  8.25 0.5 0  9 0.5 0  9.75 0.5 0  10.5 0.5 0  11.25 0.5 0  12 0.5 0  12.75 0.5 0  13.5 0.5 0  14.25 0.5 0  15 0.5 0  15.75 0.5 0  16.5 0.5 0  17.25 0.5 0  18 0.5 0  18.75 0.5 0  19.5 0.5 0  20.25 0.5 0  21 0.5 0  21.75 0.5 0  22.5 0.5 0  23.25 0.5 0  24 0.5 0  24.75 0.5 0  25.5 0.5 0  26.25 0.5 0  27 0.5 0  27.75 0.5 0  28.5 0.5 0  29.25 0.5 0  30 0.5 0  30.75 0.5 0  31.5 0.5 0  32.25 0.5 0  33 0.5 0  33.75 0.5 0  34.5 0.5 0  35.25 0.5 0  36 0.5 0  36.75 0.5 0  37.5 0.5 0  38.25 0.5 0  39 0.5 0  39.75 0.5 0  40.5 0.5 0  41.25 0.5 0  42 0.5 0  42.75 0.5 0  43.5 0.5 0  44.25 0.5 0  45 0.5 0  45.75 0.5 0  46.5 0.5 0  47.25 0.5 0  48 0.5 0  48.75 0.5 0  49.5 0.5 0  50.25 0.5 0  51 0.5 0  51.75 0.5 0  52.5 0.5 0  53.25 0.5 0  54 0.5 0  54.75 0.5 0  55.5 0.5 0  56.25 0.5 0  57 0.5 0  57.75 0.5 0  58.5 0.5 0  59.25 0.5 0  60 0.5 0  0 1 0  0.75 1 0  1.5 1 0  2.25 1 0  3 1 0  3.75 1 0  4.5 1 0  5.25 1 0  6 1 0  6.75 1 0  7.5 1 0  8.25 1 0  9 1 0  9.75 1 0  10.5 1 0  11.25 1 0  12 1 0  12.75 1 0  13.5 1 0  14.25 1 0  15 1 0  15.75 1 0  16.5 1 0  17.25 1 0  18 1 0  18.75 1 0  19.5 1 0  20.25 1 0  21 1 0  21.75 1 0  22.5 1 0  23.25 1 0  24 1 0  24.75 1 0  25.5 1 0  26.25 1 0  27 1 0  27.75 1 0  28.5 1 0  29.25 1 0  30 1 0  30.75 1 0  31.5 1 0  32.25 1 0  33 1 0  33.75 1 0  34.5 1 0  35.25 1 0  36 1 0  36.75 1 0  37.5 1 0  38.25 1 0  39 1 0  39.75 1 0  40.5 1 0  41.25 1 0  42 1 0  42.75 1 0  43.5 1 0  44.25 1 0  45 1 0  45.75 1 0  46.5 1 0  47.25 1 0  48 1 0  48.75 1 0  49.5 1 0  50.25 1 0  51 1 0  51.75 1 0  52.5 1 0  53.25 1 0  54 1 0  54.75 1 0  55.5 1 0  56.25 1 0  57 1 0  57.75 1 0  58.5 1 0  59.25 1 0  60 1 0  0 1.5 0  0.75 1.5 0  1.5 1.5 0  2.25 1.5 0  3 1.5 0  3.75 1.5 0  4.5 1.5 0  5.25 1.5 0  6 1.5 0  6.75 1.5 0  7.5 1.5 0  8.25 1.5 0  9 1.5 0  9.75 1.5 0  10.5 1.5 0  11.25 1.5 0  12 1.5 0  12.75 1.5 0  13.5 1.5 0  14.25 1.5 0  15 1.5 0  15.75 1.5 0  16.5 1.5 0  17.25 1.5 0  18 1.5 0  18.75 1.5 0  19.5 1.5 0  20.25 1.5 0  21 1.5 0  21.75 1.5 0  22.5 1.5 0  23.25 1.5 0  24 1.5 0  24.75 1.5 0  25.5 1.5 0  26.25 1.5 0  27 1.5 0  27.75 1.5 0  28.5 1.5 0  29.25 1.5 0  30 1.5 0  30.75 1.5 0  31.5 1.5 0  32.25 1.5 0  33 1.5 0  33.75 1.5 0  34.5 1.5 0  35.25 1.5 0  36 1.5 0  36.75 1.5 0  37.5 1.5 0  38.25 1.5 0  39 1.5 0  39.75 1.5 0  40.5 1.5 0  41.25 1.5 0  42 1.5 0  42.75 1.5 0  43.5 1.5 0  44.25 1.5 0  45 1.5 0  45.75 1.5 0  46.5 1.5 0  47.25 1.5 0  48 1.5 0  48.75 1.5 0  49.5 1.5 0  50.25 1.5 0  51 1.5 0  51.75 1.5 0  52.5 1.5 0  53.25 1.5 0  54 1.5 0  54.75 1.5 0  55.5 1.5 0  56.25 1.5 0  57 1.5 0  57.75 1.5 0  58.5 1.5 0  59.25 1.5 0  60 1.5 0  0 2 0  0.75 2 0  1.5 2 0  2.25 2 0  3 2 0  3.75 2 0  4.5 2 0  5.25 2 0  6 2 0  6.75 2 0  7.5 2 0  8.25 2 0  9 2 0  9.75 2 0  10.5 2 0  11.25 2 0  12 2 0  12.75 2 0  13.5 2 0  14.25 2 0  15 2 0  15.75 2 0  16.5 2 0  17.25 2 0  18 2 0  18.75 2 0  19.5 2 0  20.25 2 0  21 2 0  21.75 2 0  22.5 2 0  23.25 2 0  24 2 0  24.75 2 0  25.5 2 0  26.25 2 0  27 2 0  27.75 2 0  28.5 2 0  29.25 2 0  30 2 0  30.75 2 0  31.5 2 0  32.25 2 0  33 2 0  33.75 2 0  34.5 2 0  35.25 2 0  36 2 0  36.75 2 0  37.5 2 0  38.25 2 0  39 2 0  39.75 2 0  40.5 2 0  41.25 2 0  42 2 0  42.75 2 0  43.5 2 0  44.25 2 0  45 2 0  45.75 2 0  46.5 2 0  47.25 2 0  48 2 0  48.75 2 0  49.5 2 0  50.25 2 0  51 2 0  51.75 2 0  52.5 2 0  53.25 2 0  54 2 0  54.75 2 0  55.5 2 0  56.25 2 0  57 2 0  57.75 2 0  58.5 2 0  59.25 2 0  60 2 0  0 2.5 0  0.75 2.5 0  1.5 2.5 0  2.25 2.5 0  3 2.5 0  3.75 2.5 0  4.5 2.5 0  5.25 2.5 0  6 2.5 0  6.75 2.5 0  7.5 2.5 0  8.25 2.5 0  9 2.5 0  9.75 2.5 0  10.5 2.5 0  11.25 2.5 0  12 2.5 0  12.75 2.5 0  13.5 2.5 0  14.25 2.5 0  15 2.5 0  15.75 2.5 0  16.5 2.5 0  17.25 2.5 0  18 2.5 0  18.75 2.5 0  19.5 2.5 0  20.25 2.5 0  21 2.5 0  21.75 2.5 0  22.5 2.5 0  23.25 2.5 0  24 2.5 0  24.75 2.5 0  25.5 2.5 0  26.25 2.5 0  27 2.5 0  27.75 2.5 0  28.5 2.5 0  29.25 2.5 0  30 2.5 0  30.75 2.5 0  31.5 2.5 0  32.25 2.5 0  33 2.5 0  33.75 2.5 0  34.5 2.5 0  35.25 2.5 0  36 2.5 0  36.75 2.5 0  37.5 2.5 0  38.25 2.5 0  39 2.5 0  39.75 2.5 0  40.5 2.5 0  41.25 2.5 0  42 2.5 0  42.75 2.5 0  43.5 2.5 0  44.25 2.5 0  45 2.5 0  45.75 2.5 0  46.5 2.5 0  47.25 2.5 0  48 2.5 0  48.75 2.5 0  49.5 2.5 0  50.25 2.5 0  51 2.5 0  51.75 2.5 0  52.5 2.5 0  53.25 2.5 0  54 2.5 0  54.75 2.5 0  55.5 2.5 0  56.25 2.5 0  57 2.5 0  57.75 2.5 0  58.5 2.5 0  59.25 2.5 0  60 2.5 0  0 3 0  0.75 3 0  1.5 3 0  2.25 3 0  3 3 0  3.75 3 0  4.5 3 0  5.25 3 0  6 3 0  6.75 3 0  7.5 3 0  8.25 3 0  9 3 0  9.75 3 0  10.5 3 0  11.25 3 0  12 3 0  12.75 3 0  13.5 3 0  14.25 3 0  15 3 0  15.75 3 0  16.5 3 0  17.25 3 0  18 3 0  18.75 3 0  19.5 3 0  20.25 3 0  21 3 0  21.75 3 0  22.5 3 0  23.25 3 0  24 3 0  24.75 3 0  25.5 3 0  26.25 3 0  27 3 0  27.75 3 0  28.5 3 0  29.25 3 0  30 3 0  30.75 3 0  31.5 3 0  32.25 3 0  33 3 0  33.75 3 0  34.5 3 0  35.25 3 0  36 3 0  36.75 3 0  37.5 3 0  38.25 3 0  39 3 0  39.75 3 0  40.5 3 0  41.25 3 0  42 3 0  42.75 3 0  43.5 3 0  44.25 3 0  45 3 0  45.75 3 0  46.5 3 0  47.25 3 0  48 3 0  48.75 3 0  49.5 3 0  50.25 3 0  51 3 0  51.75 3 0  52.5 3 0  53.25 3 0  54 3 0  54.75 3 0  55.5 3 0  56.25 3 0  57 3 0  57.75 3 0  58.5 3 0  59.25 3 0  60 3 0  0 3.5 0  0.75 3.5 0  1.5 3.5 0  2.25 3.5 0  3 3.5 0  3.75 3.5 0  4.5 3.5 0  5.25 3.5 0  6 3.5 0  6.75 3.5 0  7.5 3.5 0  8.25 3.5 0  9 3.5 0  9.75 3.5 0  10.5 3.5 0  11.25 3.5 0  12 3.5 0  12.75 3.5 0  13.5 3.5 0  14.25 3.5 0  15 3.5 0  15.75 3.5 0  16.5 3.5 0  17.25 3.5 0  18 3.5 0  18.75 3.5 0  19.5 3.5 0  20.25 3.5 0  21 3.5 0  21.75 3.5 0  22.5 3.5 0  23.25 3.5 0  24 3.5 0  24.75 3.5 0  25.5 3.5 0  26.25 3.5 0  27 3.5 0  27.75 3.5 0  28.5 3.5 0  29.25 3.5 0  30 3.5 0  30.75 3.5 0  31.5 3.5 0  32.25 3.5 0  33 3.5 0  33.75 3.5 0  34.5 3.5 0  35.25 3.5 0  36 3.5 0  36.75 3.5 0  37.5 3.5 0  38.25 3.5 0  39 3.5 0  39.75 3.5 0  40.5 3.5 0  41.25 3.5 0  42 3.5 0  42.75 3.5 0  43.5 3.5 0  44.25 3.5 0  45 3.5 0  45.75 3.5 0  46.5 3.5 0  47.25 3.5 0  48 3.5 0  48.75 3.5 0  49.5 3.5 0  50.25 3.5 0  51 3.5 0  51.75 3.5 0  52.5 3.5 0  53.25 3.5 0  54 3.5 0  54.75 3.5 0  55.5 3.5 0  56.25 3.5 0  57 3.5 0  57.75 3.5 0  58.5 3.5 0  59.25 3.5 0  60 3.5 0  0 4 0  0.75 4 0  1.5 4 0  2.25 4 0  3 4 0  3.75 4 0  4.5 4 0  5.25 4 0  6 4 0  6.75 4 0  7.5 4 0  8.25 4 0  9 4 0  9.75 4 0  10.5 4 0  11.25 4 0  12 4 0  12.75 4 0  13.5 4 0  14.25 4 0  15 4 0  15.75 4 0  16.5 4 0  17.25 4 0  18 4 0  18.75 4 0  19.5 4 0  20.25 4 0  21 4 0  21.75 4 0  22.5 4 0  23.25 4 0  24 4 0  24.75 4 0  25.5 4 0  26.25 4 0  27 4 0  27.75 4 0  28.5 4 0  29.25 4 0  30 4 0  30.75 4 0  31.5 4 0  32.25 4 0  33 4 0  33.75 4 0  34.5 4 0  35.25 4 0  36 4 0  36.75 4 0  37.5 4 0  38.25 4 0  39 4 0  39.75 4 0  40.5 4 0  41.25 4 0  42 4 0  42.75 4 0  43.5 4 0  44.25 4 0  45 4 0  45.75 4 0  46.5 4 0  47.25 4 0  48 4 0  48.75 4 0  49.5 4 0  50.25 4 0  51 4 0  51.75 4 0  52.5 4 0  53.25 4 0  54 4 0  54.75 4 0  55.5 4 0  56.25 4 0  57 4 0  57.75 4 0  58.5 4 0  59.25 4 0  60 4 0  0.375 0.25 0  1.125 0.25 0  1.875 0.25 0  2.625 0.25 0  3.375 0.25 0  4.125 0.25 0  4.875 0.25 0  5.625 0.25 0  6.375 0.25 0  7.125 0.25 0  7.875 0.25 0  8.625 0.25 0  9.375 0.25 0  10.125 0.25 0  10.875 0.25 0  11.625 0.25 0  12.375 0.25 0  13.125 0.25 0  13.875 0.25 0  14.625 0.25 0  15.375 0.25 0  16.125 0.25 0  16.875 0.25 0  17.625 0.25 0  18.375 0.25 0  19.125 0.25 0  19.875 0.25 0  20.625 0.25 0  21.375 0.25 0  22.125 0.25 0  22.875 0.25 0  23.625 0.25 0  24.375 0.25 0  25.125 0.25 0  25.875 0.25 0  26.625 0.25 0  27.375 0.25 0  28.125 0.25 0  28.875 0.25 0  29.625 0.25 0  30.375 0.25 0  31.125 0.25 0  31.875 0.25 0  32.625 0.25 0  33.375 0.25 0  34.125 0.25 0  34.875 0.25 0  35.625 0.25 0  36.375 0.25 0  37.125 0.25 0  37.875 0.25 0  38.625 0.25 0  39.375 0.25 0  40.125 0.25 0  40.875 0.25 0  41.625 0.25 0  42.375 0.25 0  43.125 0.25 0  43.875 0.25 0  44.625 0.25 0  45.375 0.25 0  46.125 0.25 0  46.875 0.25 0  47.625 0.25 0  48.375 0.25 0  49.125 0.25 0  49.875 0.25 0  50.625 0.25 0  51.375 0.25 0  52.125 0.25 0  52.875 0.25 0  53.625 0.25 0  54.375 0.25 0  55.125 0.25 0  55.875 0.25 0  56.625 0.25 0  57.375 0.25 0  58.125 0.25 0  58.875 0.25 0  59.625 0.25 0  0.375 0.75 0  1.125 0.75 0  1.875 0.75 0  2.625 0.75 0  3.375 0.75 0  4.125 0.75 0  4.875 0.75 0  5.625 0.75 0  6.375 0.75 0  7.125 0.75 0  7.875 0.75 0  8.625 0.75 0  9.375 0.75 0  10.125 0.75 0  10.875 0.75 0  11.625 0.75 0  12.375 0.75 0  13.125 0.75 0  13.875 0.75 0  14.625 0.75 0  15.375 0.75 0  16.125 0.75 0  16.875 0.75 0  17.625 0.75 0  18.375 0.75 0  19.125 0.75 0  19.875 0.75 0  20.625 0.75 0  21.375 0.75 0  22.125 0.75 0  22.875 0.75 0  23.625 0.75 0  24.375 0.75 0  25.125 0.75 0  25.875 0.75 0  26.625 0.75 0  27.375 0.75 0  28.125 0.75 0  28.875 0.75 0  29.625 0.75 0  30.375 0.75 0  31.125 0.75 0  31.875 0.75 0  32.625 0.75 0  33.375 0.75 0  34.125 0.75 0  34.875 0.75 0  35.625 0.75 0  36.375 0.75 0  37.125 0.75 0  37.875 0.75 0  38.625 0.75 0  39.375 0.75 0  40.125 0.75 0  40
[...]
<PointData  Vectors="f_8-0"> 
<DataArray  type="Float64"  Name="f_8-0"  NumberOfComponents="3" format="ascii">5.0999865785137605e-10 -7.4149468040853145e-11 0.0000000000000000e+00  0.0000000000000000e+00 0.0000000000000000e+00 0.0000000000000000e+00  0.0000000000000000e+00 0.0000000000000000e+00 0.0000000000000000e+00  -6.3180437579416351e-09 -5.1455139520333340e-09 0.0000000000000000e+00  8.7597510946679032e-09 4.9965266257566258e-08 0.0000000000000000e+00  -5.8240475224392122e-09 1.9832081377351105e-08 0.0000000000000000e+00  0.0000000000000000e+00 0.0000000000000000e+00 0.0000000000000000e+00  0.0000000000000000e+00 0.0000000000000000e+00 0.0000000000000000e+00  0.0000000000000000e+00 0.0000000000000000e+00 0.0000000000000000e+00  0.0000000000000000e+00 0.0000000000000000e+00 0.0000000000000000e+00  -1.1790229850936676e-08 3.7851045701726818e-09 0.0000000000000000e+00  6.7750092083937779e-09 -2.7474181131770220e-10 0.0000000000000000e+00  3.2286377764419357e-09 -5.3646410689267953e-08 0.0000000000000000e+00  -2.5672522814328530e-09 -1.1115030947980080e-10 0.0000000000000000e+00  0.0000000000000000e+00 7.0027015871770221e-09 0.0000000000000000e+00  6.8828339251907650e-08 -7.6109486780613811e-08 0.0000000000000000e+00  1.3750692044510583e-08 -2.1877547750112785e-09 0.0000000000000000e+00  5.8967677150678461e-09 -8.0909605322245695e-09 0.0000000000000000e+00  2.4741889402409837e-09 -5.1827359269194492e-09 0.0000000000000000e+00  0.0000000000000000e+00 0.0000000000000000e+00 0.0000000000000000e+00  -1.4467291386458891e-09 -1.7177778435111649e-09 0.0000000000000000e+00  0.0000000000000000e+00 0.0000000000000000e+00 0.0000000000000000e+00  -4.2095024888873607e-09 1.1562299530403989e-09 0.0000000000000000e+00  0.0000000000000000e+00 2.2531108368478193e-09 0.0000000000000000e+00  0.0000000000000000e+00 0.0000000000000000e+00 0.0000000000000000e+00  0.0000000000000000e+00 0.0000000000000000e+00 0.0000000000000000e+00  0.0000000000000000e+00 0.0000000000000000e+00 0.0000000000000000e+00  0.0000000000000000e+00 0.0000000000000000e+00 0.0000000000000000e+00  2.6369861767630794e-08 8.8704605231048988e-09 0.0000000000000000e+00  6.8105126681456749e-11 -1.8532898614525309e-10 0.0000000000000000e+00  -1.5514478498548862e-08 2.8124673270291827e-08 0.0000000000000000e+00  1.6732782374626320e-09 -1.3149063713002058e-08 0.0000000000000000e+00  -1.6599603146038104e-08 3.4733160827273713e-09 0.0000000000000000e+00  3.0297769509218652e-08 -1.2961522874373972e-08 0.0000000000000000e+00  -1.5976693272070559e-09 -7.8810434404747234e-09 0.0000000000000000e+00  -2.3463573200154399e-08 1.1834619127543856e-08 0.0000000000000000e+00  5.5363973760759755e-09 5.1703620895338241e-10 0.0000000000000000e+00  1.8443789431083663e-08 2.1970554222569628e-08 0.0000000000000000e+00  -2.0164306713199564e-08 1.7837662668743496e-08 0.0000000000000000e+00  0.0000000000000000e+00 -8.6049796363821538e-11 0.0000000000000000e+00  0.0000000000000000e+00 0.0000000000000000e+00 0.0000000000000000e+00  0.0000000000000000e+00 0.0000000000000000e+00 0.0000000000000000e+00  1.1986483264839497e-09 1.2454211994948298e-09 0.0000000000000000e+00  2.3154375863736133e-08 2.6378657073694291e-10 0.0000000000000000e+00  1.5411337557285214e-08 -4.1455388410678023e-08 0.0000000000000000e+00  0.0000000000000000e+00 0.0000000000000000e+00 0.0000000000000000e+00  0.0000000000000000e+00 0.0000000000000000e+00 0.0000000000000000e+00  -7.6325327308801490e-09 -4.9823750700308949e-09 0.0000000000000000e+00  0.0000000000000000e+00 -2.1804875345910244e-10 0.0000000000000000e+00  0.0000000000000000e+00 0.0000000000000000e+00 0.0000000000000000e+00  0.0000000000000000e+00 0.0000000000000000e+00 0.0000000000000000e+00  -2.2156320703387793e-09 -8.1968584631041962e-09 0.0000000000000000e+00  1.6692483379614432e-08 -4.2033753470764560e-09 0.0000000000000000e+00  0.0000000000000000e+00 0.0000000000000000e+00 0.0000000000000000e+00  7.2466750970411368e-10 -5.2255947710960074e-10 0.0000000000000000e+00  -2.6117878216136719e-08 -8.1774836607533432e-08 0.0000000000000000e+00  1.9761176795011394e-09 -2.4741145225874285e-08 0.0000000000000000e+00  0.0000000000000000e+00 0.0000000000000000e+00 0.0000000000000000e+00  0.0000000000000000e+00 0.0000000000000000e+00 0.0000000000000000e+00  -1.0434683633310529e-09 3.2867572444763239e-10 0.0000000000000000e+00  0.0000000000000000e+00 0.0000000000000000e+00 0.0000000000000000e+00  1.5330929565644837e-08 -2.0695096933563059e-08 0.0000000000000000e+00  0.0000000000000000e+00 0.0000000000000000e+00 0.0000000000000000e+00  -1.5497408849199404e-08 -8.0598100016985059e-09 0.0000000000000000e+00  2.3411233899391229e-08 -7.0254900999347432e-10 0.0000000000000000e+00  1.6931901958318707e-08 -4.7049796115816873e-09 0.0000000000000000e+00  0.0000000000000000e+00 0.0000000000000000e+00 0.0000000000000000e+00  0.0000000000000000e+00 0.0000000000000000e+00 0.0000000000000000e+00  0.0000000000000000e+00 0.0000000000000000e+00 0.0000000000000000e+00  1.1868198252706218e-08 4.0797918807230617e-08 0.0000000000000000e+00  0.0000000000000000e+00 0.0000000000000000e+00 0.0000000000000000e+00  8.6651182300123355e-10 -2.7521816307955210e-09 0.0000000000000000e+00  0.0000000000000000e+00 0.0000000000000000e+00 0.0000000000000000e+00  -1.2160769559909241e-08 6.4737272069162212e-08 0.0000000000000000e+00  0.0000000000000000e+00 0.0000000000000000e+00 0.0000000000000000e+00  4.9775031909488686e-09 -1.4435612450242089e-09 0.0000000000000000e+00  6.8776712215148362e-08 -2.3603210391771257e-08 0.0000000000000000e+00  0.0000000000000000e+00 0.0000000000000000e+00 0.0000000000000000e+00  0.0000000000000000e+00 -1.9575890037856766e-09 0.0000000000000000e+00  0.0000000000000000e+00 0.0000000000000000e+00 0.0000000000000000e+00  -2.4612856158262766e-10 -1.8568540858353370e-10 0.0000000000000000e+00  3.5788831106601900e+05 0.0000000000000000e+00 0.0000000000000000e+00  -2.0808283876668639e+05 -1.6556945287931041e+05 0.0000000000000000e+00  2.7247582415596902e+04 -8.2005440653441683e+05 0.0000000000000000e+00  -5.4065031955861465e+04 9.7929831075895927e+05 0.0000000000000000e+00  3.7563315330613048e+04 9.7750414837715996e+05 0.0000000000000000e+00  -1.4169315813795975e+06 8.3802682021886669e+05 0.0000000000000000e+00  -3.5158097457876103e+05 4.3189085677895643e+05 0.0000000000000000e+00  -1.9214666606230050e+05 -6.4258452527279977e+05 0.0000000000000000e+00  -4.4139156329683930e+04 -1.8306131901175140e+06 0.0000000000000000e+00  -1.6696955882062952e+06 -6.4588376082820515e+05 0.0000000000000000e+00  -6.4106973128407984e+05 4.1060220234293171e+05 0.0000000000000000e+00  -8.1293889139875793e+05 -3.8551668543618679e+05 0.0000000000000000e+00  -2.2850748096862569e+05 -4.5686974612517678e+05 0.0000000000000000e+00  2.4664946707264104e+05 -1.8543604563114338e+05 0.0000000000000000e+00  -1.5254723887207982e+05 -8.4288494392365334e+04 0.0000000000000000e+00  1.0971166311691035e+05 -3.0594540443666838e+05 0.0000000000000000e+00  -6.2632381914512871e+05 -1.4584412300235645e+06 0.0000000000000000e+00  2.5896209679825648e+05 -2.7920372600094772e+04 0.0000000000000000e+00  8.1474043370223045e+05 6.4674815711334452e+05 0.0000000000000000e+00  5.4449234093756590e+05 7.8736694108341413e+05 0.0000000000000000e+00  8.6633133771452107e+04 3.7037081730592257e+05 0.0000000000000000e+00  -6.6200303696870955e+05 -2.3702156941081531e+05 0.0000000000000000e+00  -3.4099859056929644e+05 -7.1092160981133615e+05 0.0000000000000000e+00  -4.9142202504201897e+05 4.1256402120305446e+05 0.0000000000000000e+00  -6.1689288549067441e+05 9.7492971847182423e+02 0.0000000000000000e+00  -2.6920847355273967e+04 6.1196994969674817e+05 0.0000000000000000e+00  4.9415921335538660e+04 -4.8006085377473535e+05 0.0000000000000000e+00  1.5571675298965434e+05 2.2942217166745069e+05 0.0000000000000000e+00  3.7649715551457350e+05 -4.0030705249454681e+05 0.0000000000000000e+00  -1.8022402584821943e+05 -2.0171462292270732e+05 0.0000000000000000e+00  1.1106879709507643e+05 6.5408440012626539e+04 0.0000000000000000e+00  2.8215688868186384e+05 4.6271758508524734e+04 0.0000000000000000e+00  -1.3958186042609348e+05 4.0309569281633621e+03 0.0000000000000000e+00  -1.1793804988685329e+05 -4.9558916702185076e+05 0.0000000000000000e+00  -2.9590017787076760e+05 -4.3983958361586143e+05 0.0000000000000000e+00  -1.3606109752325478e+05 -2.1451925532316117e+05 0.0000000000000000e+00  -2.0635710216878647e+02 -6.1402714636802222e+04 0.0000000000000000e+00  -6.0604005491058121e+05 1.0113421517001402e+05 0.0000000000000000e+00  6.5941970639686959e+04 -4.7444594708887779e+05 0.0000000000000000e+00  -2.6602959927272791e+05 -4.2473793891113985e+05 0.0000000000000000e+00  5.3109888387689862e+04 -1.3810873864892303e+05 0.0000000000000000e+00  -3.5033301137454226e+04 6.4327141406126192e+05 0.0000000000000000e+00  -3.0468778818564922e+04 -1.8053966049506291e+05 0.0000000000000000e+00  7.7663536714136810e+05 -6.4348886665712285e+04 0.0000000000000000e+00  8.0486916065425932e+04 -4.4358353496493428e+05 0.0000000000000000e+00  7.2951196521128935e+04 -1.7589837130459578e+05 0.0000000000000000e+00  2.7208284514269320e+05 -4.9165459523517027e+05 0.0000000000000000e+00  -3.7610749665056978e+05 1.7243713353698637e+04 0.0000000000000000e+00  5.8341478603308462e+05 -4.7269598367543018e+05 0.0000000000000000e+00  -2.6722036620801390e+05 2.2049405878222646e+05 0.0000000000000000e+00  -1.6152900783652550e+05 -6.5643661769745278e+05 0.0000000000000000e+00  -8.8282332018280879e+05 3.4941024831567256e+05 0.0000000000000000e+00  1.9178585512467058e+05 8.3608048102044687e+05 0.0000000000000000e+00  4.2485952035955788e+05 2.2045797205948396e+05 0.0000000000000000e+00  5.5059504282976105e+05 -1.6774824127217152e+05 0.0000000000000000e+00  -3.5734350100152753e+05 1.3491633002091991e+05 0.0000000000000000e+00  1.8034223125087658e+06 7.7776118493218848e+05 0.0000000000000000e+00  4.6148988087876773e+04 3.0749484627906328e+04 0.0000000000000000e+00  1.7411663425027100e+03 -6.4645156801833841e+05 0.0000000000000000e+00  3.2099912372839981e+05 -4.3581887711912172e+05 0.0000000000000000e+00  -7.5554836775814532e+05 -2.1786127718036939e+05 0.0000000000000000e+00  -5.1414210127381736e+05 1.9245613550356706e+04 0.0000000000000000e+00  -6.4152025220149360e+05 -1.3895774578422442e+05 0.0000000000000000e+00  9.0766314703608560e+05 8.0052328001604081e+04 0.0000000000000000e+00  -1.9633157391420045e+05 1.0127747980590143e+05 0.0000000000000000e+00  -1.0914028769692576e+06 4.4198227968987060e+05 0.0000000000000000e+00  -1.0491246563605294e+06 5.2611482450169243e+05 0.0000000000000000e+00  2.9287202076269966e+05 3.4105293980902404e+05 0.0000000000000000e+00  3.4208376846588415e+05 4.5063552262412064e+05 0.0000000000000000e+00  -1.5025751969484065e+06 -1.9782099308999125e+06 0.0000000000000000e+00  -3.6087505975569983e+05 2.3573201105942822e+05 0.0000000000000000e+00  -9.9819862142561062e+05 -7.7071878872992157e+05 0.0000000000000000e+00  9.0860014395598066e+05 1.1921739892244121e+05 0.0000000000000000e+00  1.3338636743780388e+06 -2.3119636498843706e+06 0.0000000000000000e+00  3.6591232686145132e+05 -5.1971412139470136e+05 0.0000000000000000e+00  -5.2181724787862011e+05 -1.5309125733735913e+05 0.0000000000000000e+00  1.8269365144011751e+05 -8.6709516013619344e+04 0.0000000000000000e+00  4.9603033078766370e+05 -6.7915624128009615e+04 0.0000000000000000e+00  -8.3308866472780646e+05 9.2032779530327593e+04 0.0000000000000000e+00  -4.5961495602092845e+05 9.5742035681782654e+04 0.0000000000000000e+00  3.4924157264536130e+05 0.0000000000000000e+00 0.0000000000000000e+00  -2.4822826421766414e+05 -1.3895374318884269e-09 0.0000000000000000e+00  1.5094009519475214e+06 6.8690140583658428e+05 0.0000000000000000e+00  -9.1277578103372792e+05 3.0126501662912837e+05 0.0000000000000000e+00  -3.2483765841170971e+05 1.1554002089257776e+06 0.0000000000000000e+00  -1.6239407484285198e+06 9.6945121013742837e+05 0.0000000000000000e+00  -1.1113474301778940e+06 3.2416420825862948e+04 0.0000000000000000e+00  -6.5025435323301621e+05 -7.8592043003075960e+04 0.0000000000000000e+00  2.8650971252487932e+05 -1.1298718668996856e+05 0.0000000000000000e+00  -3.4545223097528477e+05 -6.2596236766960530e+05 0.0000000000000000e+00  1.7663833017507102e+05 -8.6268529681223456e+05 0.0000000000000000e+00  -1.0191876816795603e+06 -1.4991807471984925e+05 0.0000000000000000e+00  -1.6580078664902880e+05 -1.2222975130243880e+05 0.0000000000000000e+00  -1.0288428314888091e+06 -1.2105234352855699e+06 0.0000000000000000e+00  -4.8601153367090286e+04 4.8016796573046059e+05 0.0000000000000000e+00  -1.6555403067721630e+05 1.5121152768141904e+05 0.0000000000000000e+00  -1.2505632188621669e+06 -1.0103768633932313e+06 0.0000000000000000e+00  1.1987748663989156e+06 -8.4628863155513955e+05 0.0000000000000000e+00  6.1160700450041029e+05 -1.5749170072370811e+05 0.0000000000000000e+00  3.7489582886289898e+05 7.0023067073800054e+05 0.0000000000000000e+00  -5.3598863976157201e+05 -3.6699030750984483e+05 0.0000000000000000e+00  -3.7313405589040485e+05 2.2065035939772564e+05 0.0000000000000000e+00  -2.0485689599966450e+05 -4.5574215611929540e+04 0.0000000000000000e+00  -2.1372313409551128e+05 -4.9412055270079878e+05 0.0000000000000000e+00  -4.7752500587338832e+05 1.3022120488489131e+05 0.0000000000000000e+00  -2.6685410017852747e+05 1.3921074529934497e+05 0.0000000000000000e+00  -5.3942656710750703e+05 -1.6218669816597551e+05 0.0000000000000000e+00  1.2567108330592384e+05 -5.5107075364356849e+05 0.0000000000000000e+00  4.1223747243965993e+05 2.1618960175506381e+05 0.0000000000000000e+00  -2.5607900202188888e+04 3.6318918887128273e+05 0.0000000000000000e+00  2.0811005038727223e+05 1.2828393904485960e+05 0.0000000000000000e+00  -4.5129013569317514e+05 -3.2154566588031780e+05 0.0000000000000000e+00  -3.0616058475997270e+05 -2.1416188576401112e+05 0.0000000000000000e+00  -6.3533901725907484e+05 6.5900034057762474e+05 0.0000000000000000e+00  -3.5623037683449010e+05 3.0596645801939047e+05 0.0000000000000000e+00  -7.5263797788022051e+05 4.2618235627919721e+05 0.0000000000000000e+00  -4.2711804826696625e+05 -5.4793304344096268e+05 0.0000000000000000e+00  -3.9272863205350033e+05 1.7020303892042729e+05 0.0000000000000000e+00  -4.2251818751458731e+05 1.1224221258660888e+05 0.0000000000000000e+00  -6.6839280535271100e+05 -3.4336614214049740e+05 0.0000000000000000e+00  -4.9473345928153588e+05 -6.1583004595459730e+05 0.0000000000000000e+00  -3.9569136784394365e+05 6.5663478037474665e+05 0.0000000000000000e+00  -3.1642427771951136e+05 -7.8228142758032613e+04 0.0000000000000000e+00  4.1508464252856713e+04 -3.4487967436698447e+04 0.0000000000000000e+00  2.4480498796758789e+05 -2.0250958957411032e+05 0.0000000000000000e+00  -1.3875001710319053e+05 4.5687784214790103e+04 0.0000000000000000e+00  -1.0953207827446514e+05 -2.6047062131707062e+05 0.0000000000000000e+00  8.9854512320582235e+03 2.1605084013816447e+05 0.0000000000000000e+00  3.6247820562550961e+05 -3.3623602133610961e+05 0.0000000000000000e+00  -2.1342207681103912e+05 7.5119807869219896e+05 0.0000000000000000e+00  -1.6248122383320797e+05 -2.5805132806491881e+05 0.0000000000000000e+00  -5.7995579946682067e+05 -4.8849279930341203e+05 0.0000000000000000e+00  3.2649216555598518e+05 2.2833075325121128e+05 0.0000000000000000e+00  -5.5884929205729342e+04 -6.8183520667474996e+05 0.0000000000000000e+00  7.1621967493832682e+05 -2.3086523800377827e+05 0.0000000000000000e+00  8.8216148730728182e+05 -3.9452633058758118e+04 0.0000000000000000e+00  3.5987075173727161e+05 4.5720178768919152e+05 0.0000000000000000e+00  6.5786917805207742e+05 8.8631927954243647e+05 0.0000000000000000e+00  -6.0958717024498954e+04 1.6249951626578439e+06 0.0000000000000000e+00  3.1074044300114934e+05 -6.7459018388384592e+05 0.0000000000000000e+00  7.9916687106439058e+03 1.1322679372266990e+06 0.0000000000000000e+00  1.4414191079166424e+05 -1.2070972409339126e+06 0.0000000000000000e+00  1.4625373499065510e+05 1.8095994062918899e+05 0.0000000000000000e+00  -1.2659956158057291e+06 1.0837164191065258e+06 0.0000000000000000e+00  -1.9903761044109805e+05 2.3751699085855950e+05 0.0000000000000000e+00  -2.0294309917645532e+05 1.4229247556257676e+06 0.0000000000000000e+00  2.1814068143840818e+05 1.3698746932475369e+06 0.0000000000000000e+00  -1.0623091539916988e+06 6.7384528703573265e+05 0.0000000000000000e+00  4.0743176070454996e+05 3.0211981593453016e+04 0.0000000000000000e+00  1.2633453142963424e+06 -3.3951338665787282e+05 0.0000000000000000e+00  3.8453152995617987e+04 1.1232407493362731e+05 0.0000000000000000e+00  1.6201620283325241e+05 -1.0217852558093617e+06 0.0000000000000000e+00  5.0791787578199542e+05 1.4425661093299641e+05 0.0000000000000000e+00  1.9841927576716009e+06 -1.5293145330612371e+06 0.0000000000000000e+00  7.7586517388375895e+05 1.6804189631965265e+05 0.0000000000000000e+00  1.8430523532267401e+06 7.8257121108103951e+05 0.0000000000000000e+00  -8.7585930468216701e+05 1.3577060212865653e+06 0.0000000000000000e+00  -6.0022181491571042e+04 1.4064615549123790e+06 0.0000000000000000e+00  -4.1295801209773356e+05 -3.4056157789105497e+05 0.0000000000000000e+00  -6.7298701793293573e+05 5.3254646939242410e+05 0.0000000000000000e+00  -1.3332063024044195e+06 -4.2250055225661839e+05 0.0000000000000000e+00  -1.0142488238446671e+06 5.9165520436720450e-10 0.0000000000000000e+00  4.2648994563278172e+05 0.0000000000000000e+00 0.0000000000000000e+00  7.8867427215279278e+05 1.1663229063691543e+06 0.0000000000000000e+00  1.3453490042183753e+06 4.4357978236961899e+04 0.0000000000000000e+00  -2.1267323300297628e+06 1.0303022391790802e+06 0.0000000000000000e+00  3.5541159192073304e+05 7.8005413352767692e+05 0.0000000000000000e+00  -3.6747677303268848e+05 1.0884269459524767e+06 0.0000000000000000e+00  -5.7544622330261895e+05 6.2032380815113464e+05 0.0000000000000000e+00  -1.7393153680037864e+05 4.4592306144901784e+02 0.0000000000000000e+00  -1.0268830441167639e+06 -2.6041110957755632e+05 0.0000000000000000e+00  -7.2539096861453261e+05 -5.9823255638568220e+05 0.0000000000000000e+00  5.5297527490082697e+05 4.9423762651810440e+05 0.0000000000000000e+00  -9.3897201224532750e+04 9.0364996379379812e+05 0.0000000000000000e+00  -6.1056612820575270e+05 -3.8109959611043060e+05 0.0000000000000000e+00  -2.8563232427187794e+05 -2.8132176259868703e+05 0.0000000000000000e+00  -1.3939348967231825e+05 9.6822526718023384e+05 0.0000000000000000e+00  -6.9753456150549784e+04 1.0455241433180116e+04 0.0000000000000000e+00  -2.1446114573878466e+05 -6.8984076921818976e+05 0.0000000000000000e+00  3.6247774113251234e+05 2.5943021083417401e+05 0.0000000000000000e+00  -1.3366322032490233e+05 1.1197865358754359e+06 0.0000000000000000e+00  -4.4993773987598327e+05 -2.5915084554077621e+05 0.0000000000000000e+00  -1.9277210438335713e+05 1.2396777961713501e+05 0.0000000000000000e+00  2.1303722258679679e+05 2.1912202397238190e+05 0.0000000000000000e+00  -2.3156753426785365e+05 -1.5392164757213490e+04 0.0000000000000000e+00  2.9706246537753224e+05 1.7082900152065034e+05 0.0000000000000000e+00  -7.2444936865517392e+05 5.4609090879360749e+05 0.0000000000000000e+00  -3.8085160013433825e+05 5.8417868999531539e+05 0.0000000000000000e+00  1.4864657156397987e+05 -7.2106615703927446e+05 0.0000000000000000e+00  1.0084431843522837e+05 2.2080900795552024e+05 0.0000000000000000e+00  -7.8153845772119309e+05 -2.3177994256030337e+05 0.0000000000000000e+00  -7.2655291244048323e+05 4.7203327633835509e+05 0.0000000000000000e+00  -3.7712794877645251e+05 -5.5040235338591017e+04 0.0000000000000000e+00  5.0199327520365287e+03 2.7059902223868109e+05 0.0000000000000000e+00  -1.4066234217955405e+05 -3.3526621758105810e+05 0.0000000000000000e+00  -3.1771187125569332e+05 4.0008239224215283e+05 0.0000000000000000e+00  1.0153552090621577e+05 -3.1605206573556998e+05 0.0000000000000000e+00  -3.6381856800718396e+05 2.4510267612412288e+04 0.0000000000000000e+00  -2.5419051902509635e+05 -2.9731923712937726e+05 0.0000000000000000e+00  -8.6979548546459526e+05 -8.