<?xml version="1.0"?>
<VTKFile type="UnstructuredGrid"  version="0.1"  >
<UnstructuredGrid>
<Piece  NumberOfPoints="1369" NumberOfCells="2560">
<Points>
<DataArray  type="Float64"  NumberOfComponents="3"  format="ascii">0 0 0  0.75 0 0  1.5 0 0  2.25 0 0  3 0 0  3.75 0 0  4.5 0 0  5.25 0 0  6 0 0  6.75 0 0  7.5 0 0  8.25 0 0  9 0 0  9.75 0 0  10.5 0 0  11.25 0 0  12 0 0  12.75 0 0  13.5 0 0  14.25 0 0  15 0 0  15.75 0 0  16.5 0 0  17.25 0 0  18 0 0  18.75 0 0  19.5 0 0  20.25 0 0  21 0 0  21.75 0 0  22.5 0 0  23.25 0 0  24 0 0  24.75 0 0  25.5 0 0  26.25 0 0  27 0 0  27.75 0 0  28.5 0 0  29.25 0 0  30 0 0  30.75 0 0  31.5 0 0  32.25 0 0  33 0 0  33.75 0 0  34.5 0 0  35.25 0 0  36 0 0  36.75 0 0  37.5 0 0  38.25 0 0  39 0 0  39.75 0 0  40.5 0 0  41.25 0 0  42 0 0  42.75 0 0  43.5 0 0  44.25 0 0  45 0 0  45.75 0 0  46.5 0 0  47.25 0 0  48 0 0  48.75 0 0  49.5 0 0  50.25 0 0  51 0 0  51.75 0 0  52.5 0 0  53.25 0 0  54 0 0  54.75 0 0  55.5 0 0  56.25 0 0  57 0 0  57.75 0 0  58.5 0 0  59.25 0 0  60 0 0  0 0.5 0  0.75 0.5 0  1.5 0.5 0  2.25 0.5 0  3 0.5 0  3.75 0.5 0  4.5 0.5 0  5.25 0.5 0  6 0.5 0  6.75 0.5 0  7.5 0.5 0  8.25 0.5 0  9 0.5 0  9.75 0.5 0  10.5 0.5 0  11.25 0.5 0  12 0.5 0  12.75 0.5 0  13.5 0.5 0  14.25 0.5 0  15 0.5 0  15.75 0.5 0  16.5 0.5 0  17.25 0.5 0  18 0.5 0  18.75 0.5 0  19.5 0.5 0  20.25 0.5 0  21 0.5 0  21.75 0.5 0  22.5 0.5 0  23.25 0.5 0  24 0.5 0  24.75 0.5 0  25.5 0.5 0  26.25 0.5 0  27 0.5 0  27.75 0.5 0  28.5 0.5 0  29.25 0.5 0  30 0.5 0  30.75 0.5 0  31.5 0.5 0  32.25 0.5 0  33 0.5 0  33.75 0.5 0  34.5 0.5 0  35.25 0.5 0  36 0.5 0  36.75 0.5 0  37.5 0.5 0  38.25 0.5 0  39 0.5 0  39.75 0.5 0  40.5 0.5 0  41.25 0.5 0  42 0.5 0  42.75 0.5 0  43.5 0.5 0  44.25 0.5 0  45 0.5 0  45.75 0.5 0  46.5 0.5 0  47.25 0.5 0  48 0.5 0  48.75 0.5 0  49.5 0.5 0  50.25 0.5 0  51 0.5 0  51.75 0.5 0  52.5 0.5 0  53.25 0.5 0  54 0.5 0  54.75 0.5 0  55.5 0.5 0  56.25 0.5 0  57 0.5 0  57.75 0.5 0  58.5 0.5 0  59.25 0.5 0  60 0.5 0  0 1 0  0.75 1 0  1.5 1 0  2.25 1 0  3 1 0  3.75 1 0  4.5 1 0  5.25 1 0  6 1 0  6.75 1 0  7.5 1 0  8.25 1 0  9 1 0  9.75 1 0  10.5 1 0  11.25 1 0  12 1 0  12.75 1 0  13.5 1 0  14.25 1 0  15 1 0  15.75 1 0  16.5 1 0  17.25 1 0  18 1 0  18.75 1 0  19.5 1 0  20.25 1 0  21 1 0  21.75 1 0  22.5 1 0  23.25 1 0  24 1 0  24.75 1 0  25.5 1 0  26.25 1 0  27 1 0  27.75 1 0  28.5 1 0  29.25 1 0  30 1 0  30.75 1 0  31.5 1 0  32.25 1 0  33 1 0  33.75 1 0  34.5 1 0  35.25 1 0  36 1 0  36.75 1 0  37.5 1 0  38.25 1 0  39 1 0  39.75 1 0  40.5 1 0  41.25 1 0  42 1 0  42.75 1 0  43.5 1 0  44.25 1 0  45 1 0  45.75 1 0  46.5 1 0  47.25 1 0  48 1 0  48.75 1 0  49.5 1 0  50.25 1 0  51 1 0  51.75 1 0  52.5 1 0  53.25 1 0  54 1 0  54.75 1 0  55.5 1 0  56.25 1 0  57 1 0  57.75 1 0  58.5 1 0  59.25 1 0  60 1 0  0 1.5 0  0.75 1.5 0  1.5 1.5 0  2.25 1.5 0  3 1.5 0  3.75 1.5 0  4.5 1.5 0  5.25 1.5 0  6 1.5 0  6.75 1.5 0  7.5 1.5 0  8.25 1.5 0  9 1.5 0  9.75 1.5 0  10.5 1.5 0  11.25 1.5 0  12 1.5 0  12.75 1.5 0  13.5 1.5 0  14.25 1.5 0  15 1.5 0  15.75 1.5 0  16.5 1.5 0  17.25 1.5 0  18 1.5 0  18.75 1.5 0  19.5 1.5 0  20.25 1.5 0  21 1.5 0  21.75 1.5 0  22.5 1.5 0  23.25 1.5 0  24 1.5 0  24.75 1.5 0  25.5 1.5 0  26.25 1.5 0  27 1.5 0  27.75 1.5 0  28.5 1.5 0  29.25 1.5 0  30 1.5 0  30.75 1.5 0  31.5 1.5 0  32.25 1.5 0  33 1.5 0  33.75 1.5 0  34.5 1.5 0  35.25 1.5 0  36 1.5 0  36.75 1.5 0  37.5 1.5 0  38.25 1.5 0  39 1.5 0  39.75 1.5 0  40.5 1.5 0  41.25 1.5 0  42 1.5 0  42.75 1.5 0  43.5 1.5 0  44.25 1.5 0  45 1.5 0  45.75 1.5 0  46.5 1.5 0  47.25 1.5 0  48 1.5 0  48.75 1.5 0  49.5 1.5 0  50.25 1.5 0  51 1.5 0  51.75 1.5 0  52.5 1.5 0  53.25 1.5 0  54 1.5 0  54.75 1.5 0  55.5 1.5 0  56.25 1.5 0  57 1.5 0  57.75 1.5 0  58.5 1.5 0  59.25 1.5 0  60 1.5 0  0 2 0  0.75 2 0  1.5 2 0  2.25 2 0  3 2 0  3.75 2 0  4.5 2 0  5.25 2 0  6 2 0  6.75 2 0  7.5 2 0  8.25 2 0  9 2 0  9.75 2 0  10.5 2 0  11.25 2 0  12 2 0  12.75 2 0  13.5 2 0  14.25 2 0  15 2 0  15.75 2 0  16.5 2 0  17.25 2 0  18 2 0  18.75 2 0  19.5 2 0  20.25 2 0  21 2 0  21.75 2 0  22.5 2 0  23.25 2 0  24 2 0  24.75 2 0  25.5 2 0  26.25 2 0  27 2 0  27.75 2 0  28.5 2 0  29.25 2 0  30 2 0  30.75 2 0  31.5 2 0  32.25 2 0  33 2 0  33.75 2 0  34.5 2 0  35.25 2 0  36 2 0  36.75 2 0  37.5 2 0  38.25 2 0  39 2 0  39.75 2 0  40.5 2 0  41.25 2 0  42 2 0  42.75 2 0  43.5 2 0  44.25 2 0  45 2 0  45.75 2 0  46.5 2 0  47.25 2 0  48 2 0  48.75 2 0  49.5 2 0  50.25 2 0  51 2 0  51.75 2 0  52.5 2 0  53.25 2 0  54 2 0  54.75 2 0  55.5 2 0  56.25 2 0  57 2 0  57.75 2 0  58.5 2 0  59.25 2 0  60 2 0  0 2.5 0  0.75 2.5 0  1.5 2.5 0  2.25 2.5 0  3 2.5 0  3.75 2.5 0  4.5 2.5 0  5.25 2.5 0  6 2.5 0  6.75 2.5 0  7.5 2.5 0  8.25 2.5 0  9 2.5 0  9.75 2.5 0  10.5 2.5 0  11.25 2.5 0  12 2.5 0  12.75 2.5 0  13.5 2.5 0  14.25 2.5 0  15 2.5 0  15.75 2.5 0  16.5 2.5 0  17.25 2.5 0  18 2.5 0  18.75 2.5 0  19.5 2.5 0  20.25 2.5 0  21 2.5 0  21.75 2.5 0  22.5 2.5 0  23.25 2.5 0  24 2.5 0  24.75 2.5 0  25.5 2.5 0  26.25 2.5 0  27 2.5 0  27.75 2.5 0  28.5 2.5 0  29.25 2.5 0  30 2.5 0  30.75 2.5 0  31.5 2.5 0  32.25 2.5 0  33 2.5 0  33.75 2.5 0  34.5 2.5 0  35.25 2.5 0  36 2.5 0  36.75 2.5 0  37.5 2.5 0  38.25 2.5 0  39 2.5 0  39.75 2.5 0  40.5 2.5 0  41.25 2.5 0  42 2.5 0  42.75 2.5 0  43.5 2.5 0  44.25 2.5 0  45 2.5 0  45.75 2.5 0  46.5 2.5 0  47.25 2.5 0  48 2.5 0  48.75 2.5 0  49.5 2.5 0  50.25 2.5 0  51 2.5 0  51.75 2.5 0  52.5 2.5 0  53.25 2.5 0  54 2.5 0  54.75 2.5 0  55.5 2.5 0  56.25 2.5 0  57 2.5 0  57.75 2.5 0  58.5 2.5 0  59.25 2.5 0  60 2.5 0  0 3 0  0.75 3 0  1.5 3 0  2.25 3 0  3 3 0  3.75 3 0  4.5 3 0  5.25 3 0  6 3 0  6.75 3 0  7.5 3 0  8.25 3 0  9 3 0  9.75 3 0  10.5 3 0  11.25 3 0  12 3 0  12.75 3 0  13.5 3 0  14.25 3 0  15 3 0  15.75 3 0  16.5 3 0  17.25 3 0  18 3 0  18.75 3 0  19.5 3 0  20.25 3 0  21 3 0  21.75 3 0  22.5 3 0  23.25 3 0  24 3 0  24.75 3 0  25.5 3 0  26.25 3 0  27 3 0  27.75 3 0  28.5 3 0  29.25 3 0  30 3 0  30.75 3 0  31.5 3 0  32.25 3 0  33 3 0  33.75 3 0  34.5 3 0  35.25 3 0  36 3 0  36.75 3 0  37.5 3 0  38.25 3 0  39 3 0  39.75 3 0  40.5 3 0  41.25 3 0  42 3 0  42.75 3 0  43.5 3 0  44.25 3 0  45 3 0  45.75 3 0  46.5 3 0  47.25 3 0  48 3 0  48.75 3 0  49.5 3 0  50.25 3 0  51 3 0  51.75 3 0  52.5 3 0  53.25 3 0  54 3 0  54.75 3 0  55.5 3 0  56.25 3 0  57 3 0  57.75 3 0  58.5 3 0  59.25 3 0  60 3 0  0 3.5 0  0.75 3.5 0  1.5 3.5 0  2.25 3.5 0  3 3.5 0  3.75 3.5 0  4.5 3.5 0  5.25 3.5 0  6 3.5 0  6.75 3.5 0  7.5 3.5 0  8.25 3.5 0  9 3.5 0  9.75 3.5 0  10.5 3.5 0  11.25 3.5 0  12 3.5 0  12.75 3.5 0  13.5 3.5 0  14.25 3.5 0  15 3.5 0  15.75 3.5 0  16.5 3.5 0  17.25 3.5 0  18 3.5 0  18.75 3.5 0  19.5 3.5 0  20.25 3.5 0  21 3.5 0  21.75 3.5 0  22.5 3.5 0  23.25 3.5 0  24 3.5 0  24.75 3.5 0  25.5 3.5 0  26.25 3.5 0  27 3.5 0  27.75 3.5 0  28.5 3.5 0  29.25 3.5 0  30 3.5 0  30.75 3.5 0  31.5 3.5 0  32.25 3.5 0  33 3.5 0  33.75 3.5 0  34.5 3.5 0  35.25 3.5 0  36 3.5 0  36.75 3.5 0  37.5 3.5 0  38.25 3.5 0  39 3.5 0  39.75 3.5 0  40.5 3.5 0  41.25 3.5 0  42 3.5 0  42.75 3.5 0  43.5 3.5 0  44.25 3.5 0  45 3.5 0  45.75 3.5 0  46.5 3.5 0  47.25 3.5 0  48 3.5 0  48.75 3.5 0  49.5 3.5 0  50.25 3.5 0  51 3.5 0  51.75 3.5 0  52.5 3.5 0  53.25 3.5 0  54 3.5 0  54.75 3.5 0  55.5 3.5 0  56.25 3.5 0  57 3.5 0  57.75 3.5 0  58.5 3.5 0  59.25 3.5 0  60 3.5 0  0 4 0  0.75 4 0  1.5 4 0  2.25 4 0  3 4 0  3.75 4 0  4.5 4 0  5.25 4 0  6 4 0  6.75 4 0  7.5 4 0  8.25 4 0  9 4 0  9.75 4 0  10.5 4 0  11.25 4 0  12 4 0  12.75 4 0  13.5 4 0  14.25 4 0  15 4 0  15.75 4 0  16.5 4 0  17.25 4 0  18 4 0  18.75 4 0  19.5 4 0  20.25 4 0  21 4 0  21.75 4 0  22.5 4 0  23.25 4 0  24 4 0  24.75 4 0  25.5 4 0  26.25 4 0  27 4 0  27.75 4 0  28.5 4 0  29.25 4 0  30 4 0  30.75 4 0  31.5 4 0  32.25 4 0  33 4 0  33.75 4 0  34.5 4 0  35.25 4 0  36 4 0  36.75 4 0  37.5 4 0  38.25 4 0  39 4 0  39.75 4 0  40.5 4 0  41.25 4 0  42 4 0  42.75 4 0  43.5 4 0  44.25 4 0  45 4 0  45.75 4 0  46.5 4 0  47.25 4 0  48 4 0  48.75 4 0  49.5 4 0  50.25 4 0  51 4 0  51.75 4 0  52.5 4 0  53.25 4 0  54 4 0  54.75 4 0  55.5 4 0  56.25 4 0  57 4 0  57.75 4 0  58.5 4 0  59.25 4 0  60 4 0  0.375 0.25 0  1.125 0.25 0  1.875 0.25 0  2.625 0.25 0  3.375 0.25 0  4.125 0.25 0  4.875 0.25 0  5.625 0.25 0  6.375 0.25 0  7.125 0.25 0  7.875 0.25 0  8.625 0.25 0  9.375 0.25 0  10.125 0.25 0  10.875 0.25 0  11.625 0.25 0  12.375 0.25 0  13.125 0.25 0  13.875 0.25 0  14.625 0.25 0  15.375 0.25 0  16.125 0.25 0  16.875 0.25 0  17.625 0.25 0  18.375 0.25 0  19.125 0.25 0  19.875 0.25 0  20.625 0.25 0  21.375 0.25 0  22.125 0.25 0  22.875 0.25 0  23.625 0.25 0  24.375 0.25 0  25.125 0.25 0  25.875 0.25 0  26.625 0.25 0  27.375 0.25 0  28.125 0.25 0  28.875 0.25 0  29.625 0.25 0  30.375 0.25 0  31.125 0.25 0  31.875 0.25 0  32.625 0.25 0  33.375 0.25 0  34.125 0.25 0  34.875 0.25 0  35.625 0.25 0  36.375 0.25 0  37.125 0.25 0  37.875 0.25 0  38.625 0.25 0  39.375 0.25 0  40.125 0.25 0  40.875 0.25 0  41.625 0.25 0  42.375 0.25 0  43.125 0.25 0  43.875 0.25 0  44.625 0.25 0  45.375 0.25 0  46.125 0.25 0  46.875 0.25 0  47.625 0.25 0  48.375 0.25 0  49.125 0.25 0  49.875 0.25 0  50.625 0.25 0  51.375 0.25 0  52.125 0.25 0  52.875 0.25 0  53.625 0.25 0  54.375 0.25 0  55.125 0.25 0  55.875 0.25 0  56.625 0.25 0  57.375 0.25 0  58.125 0.25 0  58.875 0.25 0  59.625 0.25 0  0.375 0.75 0  1.125 0.75 0  1.875 0.75 0  2.625 0.75 0  3.375 0.75 0  4.125 0.75 0  4.875 0.75 0  5.625 0.75 0  6.375 0.75 0  7.125 0.75 0  7.875 0.75 0  8.625 0.75 0  9.375 0.75 0  10.125 0.75 0  10.875 0.75 0  11.625 0.75 0  12.375 0.75 0  13.125 0.75 0  13.875 0.75 0  14.625 0.75 0  15.375 0.75 0  16.125 0.75 0  16.875 0.75 0  17.625 0.75 0  18.375 0.75 0  19.125 0.75 0  19.875 0.75 0  20.625 0.75 0  21.375 0.75 0  22.125 0.75 0  22.875 0.75 0  23.625 0.75 0  24.375 0.75 0  25.125 0.75 0  25.875 0.75 0  26.625 0.75 0  27.375 0.75 0  28.125 0.75 0  28.875 0.75 0  29.625 0.75 0  30.375 0.75 0  31.125 0.75 0  31.875 0.75 0  32.625 0.75 0  33.375 0.75 0  34.125 0.75 0  34.875 0.75 0  35.625 0.75 0  36.375 0.75 0  37.125 0.75 0  37.875 0.75 0  38.625 0.75 0  39.375 0.75 0  40.125 0.75 0  40
[...]
<PointData  Vectors="f_8-0"> 
<DataArray  type="Float64"  Name="f_8-0"  NumberOfComponents="3" format="ascii">2.7168998897232019e-10 4.4414122410280057e-10 0.0000000000000000e+00  -1.0311583177735437e-10 0.0000000000000000e+00 0.0000000000000000e+00  0.0000000000000000e+00 0.0000000000000000e+00 0.0000000000000000e+00  -2.8165549003265513e-10 2.7529010121283453e-09 0.0000000000000000e+00  5.1127832373677617e-08 -3.9527695018380068e-10 0.0000000000000000e+00  -1.4996150932324902e-08 7.5960050262091855e-08 0.0000000000000000e+00  0.0000000000000000e+00 8.7110789486959615e-10 0.0000000000000000e+00  -9.9922631664804001e-10 0.0000000000000000e+00 0.0000000000000000e+00  0.0000000000000000e+00 0.0000000000000000e+00 0.0000000000000000e+00  0.0000000000000000e+00 2.9230856474585053e-10 0.0000000000000000e+00  2.5077101703589008e-09 1.3626301733633693e-09 0.0000000000000000e+00  -3.5393942861190075e-09 1.8001528417369658e-08 0.0000000000000000e+00  -1.6163664161350303e-07 1.0126371539300160e-08 0.0000000000000000e+00  0.0000000000000000e+00 -3.3671153113907021e-10 0.0000000000000000e+00  0.0000000000000000e+00 0.0000000000000000e+00 0.0000000000000000e+00  9.4740565402397717e-08 -1.9077484311281781e-08 0.0000000000000000e+00  0.0000000000000000e+00 0.0000000000000000e+00 0.0000000000000000e+00  -8.5562772084503924e-09 -2.7081557483794132e-09 0.0000000000000000e+00  -1.3985935747106230e-08 -3.3045370367440156e-09 0.0000000000000000e+00  3.1934773512081676e-09 0.0000000000000000e+00 0.0000000000000000e+00  0.0000000000000000e+00 -1.9990510964730540e-10 0.0000000000000000e+00  0.0000000000000000e+00 4.0565874625943709e-10 0.0000000000000000e+00  2.7841205031906103e-08 2.3770889093362489e-08 0.0000000000000000e+00  -1.7842931295480321e-07 3.2962699730320445e-09 0.0000000000000000e+00  0.0000000000000000e+00 -3.3257576643068007e-10 0.0000000000000000e+00  5.4137657451074871e-10 0.0000000000000000e+00 0.0000000000000000e+00  1.2121690492204597e-10 3.8843356165862232e-12 0.0000000000000000e+00  8.4166756352528468e-10 4.3444443995124929e-09 0.0000000000000000e+00  -3.9339527256616637e-08 0.0000000000000000e+00 0.0000000000000000e+00  0.0000000000000000e+00 0.0000000000000000e+00 0.0000000000000000e+00  -1.1361271662181245e-09 1.2965963352436688e-09 0.0000000000000000e+00  -3.0150759196723086e-10 -2.4854317306250245e-09 0.0000000000000000e+00  -1.7184553448082189e-09 2.5278427985127046e-10 0.0000000000000000e+00  -7.4068034478153399e-09 2.2467418777612711e-10 0.0000000000000000e+00  2.9336993562276065e-08 5.5240964957983540e-09 0.0000000000000000e+00  8.4463299507483885e-09 4.0402202921473131e-09 0.0000000000000000e+00  0.0000000000000000e+00 0.0000000000000000e+00 0.0000000000000000e+00  -4.2081902467082602e-09 1.0059048016665999e-09 0.0000000000000000e+00  2.9286213410477904e-08 1.5183134242044238e-10 0.0000000000000000e+00  1.7549576647538302e-07 2.0238499731969457e-07 0.0000000000000000e+00  1.3188761822846195e-09 1.6619007989313687e-09 0.0000000000000000e+00  -4.1780457930962364e-09 -4.9349875678291074e-09 0.0000000000000000e+00  -1.1328300852727151e-08 -5.1926341477778411e-09 0.0000000000000000e+00  0.0000000000000000e+00 2.3498828375062403e-09 0.0000000000000000e+00  -1.6377274621885484e-09 -1.3364236771638513e-09 0.0000000000000000e+00  0.0000000000000000e+00 0.0000000000000000e+00 0.0000000000000000e+00  0.0000000000000000e+00 0.0000000000000000e+00 0.0000000000000000e+00  0.0000000000000000e+00 0.0000000000000000e+00 0.0000000000000000e+00  0.0000000000000000e+00 -6.5775140191255768e-11 0.0000000000000000e+00  1.6659254244785361e-09 3.2033395132505439e-09 0.0000000000000000e+00  0.0000000000000000e+00 -1.1343065381442605e-09 0.0000000000000000e+00  -2.9153130184434246e-08 6.5846927421719699e-08 0.0000000000000000e+00  -2.4513333090816841e-09 5.0891339051771909e-09 0.0000000000000000e+00  4.7956729806874689e-09 2.3610557979266032e-09 0.0000000000000000e+00  0.0000000000000000e+00 0.0000000000000000e+00 0.0000000000000000e+00  1.3595834575212141e-07 -1.0039851642066535e-08 0.0000000000000000e+00  -1.9230007457531318e-08 2.7292283381030897e-08 0.0000000000000000e+00  0.0000000000000000e+00 -1.7828483911760307e-10 0.0000000000000000e+00  3.6232036482348023e-09 9.6529876178254343e-10 0.0000000000000000e+00  0.0000000000000000e+00 0.0000000000000000e+00 0.0000000000000000e+00  1.1064596323229508e-09 1.5007881764204440e-08 0.0000000000000000e+00  -7.7193935634384259e-09 -4.4099528653495250e-10 0.0000000000000000e+00  6.7067395909059017e-10 4.6741664973628395e-08 0.0000000000000000e+00  8.8099819925110145e-09 6.7121573275207825e-09 0.0000000000000000e+00  5.6312919052393493e-09 1.6296767463588367e-09 0.0000000000000000e+00  0.0000000000000000e+00 0.0000000000000000e+00 0.0000000000000000e+00  0.0000000000000000e+00 0.0000000000000000e+00 0.0000000000000000e+00  0.0000000000000000e+00 -2.3535198205720558e-10 0.0000000000000000e+00  -1.0541105351627748e-07 -3.1197385758644755e-09 0.0000000000000000e+00  0.0000000000000000e+00 0.0000000000000000e+00 0.0000000000000000e+00  0.0000000000000000e+00 0.0000000000000000e+00 0.0000000000000000e+00  0.0000000000000000e+00 0.0000000000000000e+00 0.0000000000000000e+00  -1.9889378456978472e-08 3.6246279949602277e-08 0.0000000000000000e+00  0.0000000000000000e+00 0.0000000000000000e+00 0.0000000000000000e+00  -6.5799681656929230e-09 8.5914822121787080e-09 0.0000000000000000e+00  -1.1441740833687923e-09 0.0000000000000000e+00 0.0000000000000000e+00  -5.0135852012979262e-09 0.0000000000000000e+00 0.0000000000000000e+00  0.0000000000000000e+00 0.0000000000000000e+00 0.0000000000000000e+00  0.0000000000000000e+00 0.0000000000000000e+00 0.0000000000000000e+00  0.0000000000000000e+00 0.0000000000000000e+00 0.0000000000000000e+00  -3.1804115642841622e-12 -1.4129959803899353e-10 0.0000000000000000e+00  4.9585456566335622e+05 0.0000000000000000e+00 0.0000000000000000e+00  -1.3287472309260655e+05 -2.4559897604928745e+05 0.0000000000000000e+00  4.0071308256901204e+04 -9.5501902294114046e+05 0.0000000000000000e+00  -7.9224630538023019e+04 9.6665325442805828e+05 0.0000000000000000e+00  2.6240945064842927e+04 9.3604634234720946e+05 0.0000000000000000e+00  -1.4414251003967971e+06 8.3518129113433487e+05 0.0000000000000000e+00  -3.9234266348919715e+05 4.3318192290129833e+05 0.0000000000000000e+00  -2.6441666949591687e+05 -6.4110137215542037e+05 0.0000000000000000e+00  -9.8348703539148904e+04 -1.7218156295096602e+06 0.0000000000000000e+00  -1.6671840890925224e+06 -6.1232157428116398e+05 0.0000000000000000e+00  -6.7267700117918372e+05 4.1262063815342862e+05 0.0000000000000000e+00  -7.7746583320908621e+05 -2.8728780006186065e+05 0.0000000000000000e+00  -2.9895289889260038e+05 -3.8002152757869114e+05 0.0000000000000000e+00  -7.2054512865502154e+04 -1.6243338428738882e+05 0.0000000000000000e+00  -5.6084293140302841e+04 -1.3027439920234311e+05 0.0000000000000000e+00  1.1624372505423901e+05 -3.6165639928177185e+05 0.0000000000000000e+00  -4.9519074921298487e+05 -1.4734935631536730e+06 0.0000000000000000e+00  2.1670941140451509e+05 8.5479390759536516e+04 0.0000000000000000e+00  8.5231275833982800e+05 5.8256388129749522e+05 0.0000000000000000e+00  3.7906964227407594e+05 8.6041667228072509e+05 0.0000000000000000e+00  2.0654763240870793e+03 3.6071569896993088e+05 0.0000000000000000e+00  -5.1661869148835627e+05 -4.3514054178467172e+05 0.0000000000000000e+00  -3.1913842832743493e+05 -7.8816302295366942e+05 0.0000000000000000e+00  -4.7045068286125746e+05 3.7301090804574697e+05 0.0000000000000000e+00  -3.1727764187139948e+05 -3.0960025979613423e+04 0.0000000000000000e+00  -1.3093904559365599e+05 5.7605112379382958e+05 0.0000000000000000e+00  1.2582053771056113e+05 -3.9397130422478996e+05 0.0000000000000000e+00  4.8839416365420847e+05 -2.7098011214984208e+05 0.0000000000000000e+00  5.5327446799306769e+05 -3.1422581464120233e+05 0.0000000000000000e+00  -2.0237034368507503e+05 -1.0457361520406089e+05 0.0000000000000000e+00  2.0662637593347579e+05 -4.6976846312439913e+04 0.0000000000000000e+00  2.9226470298304240e+05 -1.2491908613185000e+04 0.0000000000000000e+00  -7.5235726556177353e+04 -5.2988610303821450e+04 0.0000000000000000e+00  -9.8468521571885343e+04 -5.2520722902162385e+05 0.0000000000000000e+00  -2.6038729331954048e+05 -4.5222074899602984e+05 0.0000000000000000e+00  -5.6143719265089901e+04 -2.5429749187233663e+05 0.0000000000000000e+00  1.0232631990342530e+05 -1.2003046283658280e+05 0.0000000000000000e+00  -4.8281234632767009e+05 9.9145852453675703e+04 0.0000000000000000e+00  -6.4622012359920564e+03 -4.6544654488773615e+05 0.0000000000000000e+00  -1.2657021001661153e+05 -4.8220434279076697e+05 0.0000000000000000e+00  1.2930920582113451e+05 -6.4644776196364292e+04 0.0000000000000000e+00  -5.3226127522381277e+04 6.0023470569981716e+05 0.0000000000000000e+00  -1.2839611903380204e+05 -1.9457036090629289e+05 0.0000000000000000e+00  7.7866131798297353e+05 -1.7416430465084809e+05 0.0000000000000000e+00  1.3800039572381647e+05 -3.7010475005772774e+05 0.0000000000000000e+00  9.3509758485019323e+04 -1.1966147592191465e+05 0.0000000000000000e+00  1.9292714263197486e+05 -4.4828482013241400e+05 0.0000000000000000e+00  -1.2241204857874115e+05 -1.7306695600864559e+05 0.0000000000000000e+00  2.1403010389189195e+05 -3.5295081974292651e+05 0.0000000000000000e+00  -9.6238692012624291e+04 3.0307881681490655e+05 0.0000000000000000e+00  -2.2863739984742325e+05 -3.8457812393994327e+05 0.0000000000000000e+00  -7.0873149803601834e+05 1.4914138696963285e+05 0.0000000000000000e+00  1.9943155363044867e+05 6.1151311361192469e+05 0.0000000000000000e+00  3.6890915467389481e+05 2.0738278590911746e+05 0.0000000000000000e+00  5.4172935632056824e+05 -6.4299777987945308e+04 0.0000000000000000e+00  -4.6615104420274659e+05 1.4744034750993221e+05 0.0000000000000000e+00  1.7773425103180429e+06 7.4105877564581600e+05 0.0000000000000000e+00  1.3838848275973476e+05 6.8301474523220051e+04 0.0000000000000000e+00  2.2561320161152784e+04 -8.0006253424119134e+05 0.0000000000000000e+00  2.7644610785057402e+05 -1.2140674007686628e+05 0.0000000000000000e+00  -7.1459270606516139e+05 -2.7337075825216842e+04 0.0000000000000000e+00  -5.9410644936274982e+05 2.1977870101370296e+05 0.0000000000000000e+00  -8.2328225902101211e+05 -2.0042991059696957e+05 0.0000000000000000e+00  1.1873341459704139e+06 2.7102364458647248e+05 0.0000000000000000e+00  -5.3616385145036416e+04 5.3282447351900768e+05 0.0000000000000000e+00  -7.5710929890031368e+05 5.6387946606587886e+05 0.0000000000000000e+00  -9.2513225904936506e+05 1.7042150465861574e+05 0.0000000000000000e+00  4.6174845074079209e+05 2.3523340586938371e+05 0.0000000000000000e+00  4.5592976052079536e+05 2.8567715860358911e+05 0.0000000000000000e+00  -1.4723651434681497e+06 -1.7232665858339961e+06 0.0000000000000000e+00  -4.0708237046846352e+05 -1.3767419128137809e+05 0.0000000000000000e+00  -1.4420064893190241e+06 -9.1982088039646100e+05 0.0000000000000000e+00  9.2671157174816111e+05 3.0509730905543402e+05 0.0000000000000000e+00  7.6194349115397676e+05 -2.1251466967999884e+06 0.0000000000000000e+00  3.0976974140504672e+05 1.3205718957499546e+05 0.0000000000000000e+00  -4.0719634653269994e+05 2.9585486492512684e+05 0.0000000000000000e+00  3.5551587096570205e+05 -1.4882381844595695e+04 0.0000000000000000e+00  4.1633485392510355e+05 -4.9975998437185521e+05 0.0000000000000000e+00  -6.3515206715009862e+05 1.9192674856100613e+05 0.0000000000000000e+00  3.0077785192929837e+05 1.2274866332630982e+04 0.0000000000000000e+00  1.0707019747462792e+05 -1.6717993252792188e-11 0.0000000000000000e+00  -2.9044158812968765e+05 0.0000000000000000e+00 0.0000000000000000e+00  1.4314192812097212e+06 6.4126300441360555e+05 0.0000000000000000e+00  -9.9197182433943590e+05 2.9833109896854416e+05 0.0000000000000000e+00  -3.3645794477038545e+05 1.1687556209860167e+06 0.0000000000000000e+00  -1.5994049462002297e+06 1.0054312234112314e+06 0.0000000000000000e+00  -1.0177082394006877e+06 6.3809577764013957e+04 0.0000000000000000e+00  -6.7957645620353823e+05 -3.0319573947140430e+04 0.0000000000000000e+00  3.5884158564760344e+05 -1.7570211523117579e+05 0.0000000000000000e+00  -2.8161511403939611e+05 -5.5628636724213755e+05 0.0000000000000000e+00  1.9073771260929233e+05 -8.2032878991101962e+05 0.0000000000000000e+00  -1.0292102733601152e+06 1.6124670477204354e+04 0.0000000000000000e+00  -2.3395801067123550e+05 -1.2874248353753741e+05 0.0000000000000000e+00  -9.7844119077208953e+05 -1.1687840483761749e+06 0.0000000000000000e+00  -1.8624496710935252e+05 3.5101013521934481e+05 0.0000000000000000e+00  -1.4428107555963323e+05 5.9026468516185334e+04 0.0000000000000000e+00  -1.2324627013632657e+06 -1.0598515414935050e+06 0.0000000000000000e+00  1.1429765179619850e+06 -7.0788952582817455e+05 0.0000000000000000e+00  6.9443257881525904e+05 -1.8194706493210563e+05 0.0000000000000000e+00  3.0606861388590356e+05 6.9125720691533864e+05 0.0000000000000000e+00  -6.6166288860115618e+05 -3.4171076352866495e+05 0.0000000000000000e+00  -4.3332589266645565e+05 2.7921064662860415e+05 0.0000000000000000e+00  -2.6979597911721008e+05 -1.7317918810803717e+05 0.0000000000000000e+00  -2.5556419077651092e+05 -5.4630756035946880e+05 0.0000000000000000e+00  -2.8025356480817386e+05 1.8103716703552817e+05 0.0000000000000000e+00  -1.8259853612264179e+05 1.3389780437470719e+05 0.0000000000000000e+00  -5.6092901620095223e+05 -1.0867481776815544e+05 0.0000000000000000e+00  2.7034481862661842e+05 -5.5088042119572312e+05 0.0000000000000000e+00  4.8311974617000658e+05 1.3034531232313420e+05 0.0000000000000000e+00  1.9585741904331825e+05 2.3759127911940572e+05 0.0000000000000000e+00  2.3490704511917787e+05 2.4560221815342511e+05 0.0000000000000000e+00  -1.8166024020351682e+05 -1.8573616292363941e+05 0.0000000000000000e+00  -1.4091582705516144e+05 -3.1556641327642440e+05 0.0000000000000000e+00  -6.5560296266243560e+05 7.5877649617005745e+05 0.0000000000000000e+00  -2.9114100676597643e+05 3.0946556215858419e+05 0.0000000000000000e+00  -6.3088490526864328e+05 4.0322030156233779e+05 0.0000000000000000e+00  -6.5132951853128679e+03 -6.0931767422250018e+05 0.0000000000000000e+00  -2.1364881289149571e+05 6.7154756569247635e+04 0.0000000000000000e+00  -3.1641975249410764e+05 5.1845067258576935e+04 0.0000000000000000e+00  -3.2214581817406224e+05 -1.2024173538369272e+05 0.0000000000000000e+00  -3.0897596866229182e+05 -8.7366298475536832e+05 0.0000000000000000e+00  -2.9236884434560465e+05 5.5358191699344444e+05 0.0000000000000000e+00  -2.7348271891632362e+05 -8.6511769024590249e+04 0.0000000000000000e+00  9.2354163923847198e+04 -1.0161768821827320e+04 0.0000000000000000e+00  3.9266119115291862e+05 1.9102055355050032e+02 0.0000000000000000e+00  -1.6875263231121574e+05 1.5735529619246947e+04 0.0000000000000000e+00  -1.9548092104012228e+05 -1.8964586873962756e+05 0.0000000000000000e+00  -5.4608157881498819e+03 4.2310412644662417e+05 0.0000000000000000e+00  3.4785689859946456e+05 -1.4966764130074569e+05 0.0000000000000000e+00  -4.0301499003372369e+03 4.1127597189870954e+05 0.0000000000000000e+00  -3.5221263449401587e+04 -3.0718349361533718e+05 0.0000000000000000e+00  -2.7325920797272975e+05 -2.1506090911779224e+05 0.0000000000000000e+00  4.9869559383288678e+05 3.5303959099754592e+05 0.0000000000000000e+00  8.4652753812966534e+04 -8.1370482524123788e+05 0.0000000000000000e+00  5.5323720655162004e+05 -1.3723390572619345e+05 0.0000000000000000e+00  4.9229999499070930e+05 -9.4031501172702090e+04 0.0000000000000000e+00  4.1402764065681840e+05 3.8719678400131210e+05 0.0000000000000000e+00  5.0660261884274357e+05 1.1034056418352602e+06 0.0000000000000000e+00  -4.2897364824259322e+05 1.5539821801458020e+06 0.0000000000000000e+00  2.8802610937036254e+05 -5.2745423907383508e+05 0.0000000000000000e+00  -1.1394722549815948e+04 8.8736777386006981e+05 0.0000000000000000e+00  -1.7052055999243844e+05 -1.3477450634240045e+06 0.0000000000000000e+00  4.4342276494613645e+04 7.0277349183671511e+04 0.0000000000000000e+00  -1.3381214439518619e+06 1.0332391939636726e+06 0.0000000000000000e+00  -3.0293668502573692e+05 2.3059031602426342e+05 0.0000000000000000e+00  -2.0063455012174314e+05 1.5427997514636528e+06 0.0000000000000000e+00  -1.9318642319301041e+04 1.8672642775089007e+06 0.0000000000000000e+00  -9.0163453015089082e+05 5.4036697736953816e+05 0.0000000000000000e+00  4.4231294486874226e+05 1.1471392302276443e+05 0.0000000000000000e+00  1.3261527903053148e+06 -1.5395925014614328e+05 0.0000000000000000e+00  -3.7308672511546657e+05 -4.5549015004367502e+03 0.0000000000000000e+00  4.4081636017443932e+05 -9.2395715907664911e+05 0.0000000000000000e+00  -2.5340707417603483e+05 1.4974052668980643e+05 0.0000000000000000e+00  1.6558692682667521e+06 -1.4702700382928886e+06 0.0000000000000000e+00  4.4378783767106431e+05 1.1320929102410207e+05 0.0000000000000000e+00  1.3877166088149026e+06 2.6084473284000679e+05 0.0000000000000000e+00  -8.8049022416419501e+05 1.2653465440501487e+06 0.0000000000000000e+00  2.4017510128552080e+05 9.0760654241834546e+05 0.0000000000000000e+00  -2.9698614387866785e+05 -7.8024753734719983e+04 0.0000000000000000e+00  -4.9118063939450559e+05 8.0895356390343537e+05 0.0000000000000000e+00  -7.2816644116434699e+05 -4.6791494387749006e+05 0.0000000000000000e+00  -4.1199314526973228e+05 -8.2069465565956098e-11 0.0000000000000000e+00  3.5876375340190611e+05 -3.3424792962264774e-10 0.0000000000000000e+00  7.0504832512452279e+05 1.2136682958047828e+06 0.0000000000000000e+00  1.2676922234390746e+06 -1.0347227977433162e+04 0.0000000000000000e+00  -2.0104160882835086e+06 1.0524471433102812e+06 0.0000000000000000e+00  3.7055815828734124e+05 7.5023820274894859e+05 0.0000000000000000e+00  -3.9663712385455769e+05 1.1183529005485110e+06 0.0000000000000000e+00  -5.5716266692918865e+05 6.6626839871114190e+05 0.0000000000000000e+00  -2.2711446864549251e+05 5.4731438166042761e+04 0.0000000000000000e+00  -9.7056133501419297e+05 -2.9056026266445080e+05 0.0000000000000000e+00  -6.6579433792255970e+05 -6.9651567027493718e+05 0.0000000000000000e+00  6.6306328478931938e+05 3.5637213213094475e+05 0.0000000000000000e+00  -1.4927942825342156e+05 8.9252783778785064e+05 0.0000000000000000e+00  -6.4077865893854760e+05 -5.2944111805803166e+05 0.0000000000000000e+00  -3.0089861001616786e+05 -1.7318888692328765e+05 0.0000000000000000e+00  -1.8645309271150516e+05 9.0025694997082348e+05 0.0000000000000000e+00  -1.4135634560353283e+05 7.9633595395714765e+03 0.0000000000000000e+00  -2.6810518373881362e+05 -6.5842187860333314e+05 0.0000000000000000e+00  3.8646514698033570e+05 2.2311933081052284e+05 0.0000000000000000e+00  -1.7160559362467655e+05 9.7451977296744764e+05 0.0000000000000000e+00  -4.7930842048507871e+05 -2.3938039089937037e+05 0.0000000000000000e+00  -5.5577698938994712e+04 1.1823870779903959e+05 0.0000000000000000e+00  2.1354543213557612e+05 1.6375521197595302e+05 0.0000000000000000e+00  -2.8723948297041934e+05 -1.2921560301748326e+05 0.0000000000000000e+00  1.1876841507798062e+05 -2.1913711754641487e+05 0.0000000000000000e+00  -5.7283777484809083e+05 6.9673422685189662e+05 0.0000000000000000e+00  -1.3850571450353632e+05 4.5007026993734634e+05 0.0000000000000000e+00  3.0415688037869515e+05 -7.2653437063470739e+05 0.0000000000000000e+00  2.2496724981084379e+05 3.6826626437045794e+04 0.0000000000000000e+00  -7.1266197167974629e+05 -3.2917887464854668e+05 0.0000000000000000e+00  -5.8999642951546982e+05 3.4239309680200892e+05 0.0000000000000000e+00  -3.6708185040525638e+05 -2.1214312936542070e+05 0.0000000000000000e+00  -5.4433854953064780e+04 2.4758866398768450e+05 0.0000000000000000e+00  -2.9886219442859401e+04 -3.4874903258003283e+05 0.0000000000000000e+00  -1.5621407844528917e+05 3.5398873869525286e+05 0.0000000000000000e+00  2.5983938440546140e+05 -2.9835865053132217e+05 0.0000000000000000e+00  -2.6361102898458170e+05 -1.2064041181605021e+05 0.0000000000000000e+00  1.4868175831020522e+05 -3.4185960342608049e+05 0.0000000000000000e+00  -5.5399002666801796