<?xml version="1.0"?>
<VTKFile type="UnstructuredGrid"  version="0.1"  >
<UnstructuredGrid>
<Piece  NumberOfPoints="289" NumberOfCells="512">
<Points>
<DataArray  type="Float64"  NumberOfComponents="3"  format="ascii">0 0 0  0.0625 0 0  0.125 0 0  0.1875 0 0  0.25 0 0  0.3125 0 0  0.375 0 0  0.4375 0 0  0.5 0 0  0.5625 0 0  0.625 0 0  0.6875 0 0  0.75 0 0  0.8125 0 0  0.875 0 0  0.9375 0 0  1 0 0  0 0.0625 0  0.06244498644661035 0.062486395596773 0  0.1248886010143277 0.06247254610012736 0  0.187329485607917 0.06245822711104453 0  0.2497663770067866 0.06244326456567355 0  0.3121981834240747 0.06242756757177647 0  0.3746241003507396 0.06241116966475527 0  0.4370437834085661 0.0623942790841475 0  0.499457599797532 0.06237733539763473 0  0.5618669844722477 0.06236106396473364 0  0.6242749311436193 0.06234651063640794 0  0.6866866438808871 0.06233502794479134 0  0.749110319113334 0.06232817991887352 0  0.8115576856723755 0.06232757431377259 0  0.8740420516311274 0.06233487720213747 0  0.9365614919753419 0.06235346014276422 0  0.9989995236899649 0.06240022962831182 0  0 0.125 0  0.062391398832313 0.1249730326266279 0  0.1247800231767752 0.1249455507442349 0  0.1871631211295703 0.1249170782460097 0  0.2495381140588135 0.1248872335536353 0  0.3119027416706818 0.1248557931445936 0  0.3742552866900951 0.1248227736884451 0  0.4365949167269463 0.1247885357150123 0  0.4989221911031809 0.1247539061512513 0  0.5612397948438891 0.124720306128412 0  0.6235535833870467 0.1246898511693417 0  0.6858740544229236 0.1246653603352655 0  0.7482184108301786 0.1246501691391422 0  0.810613433456117 0.1246475966542418 0  0.8730995087563297 0.1246598845060834 0  0.935737879497742 0.1246862546140336 0  0.9986432556081963 0.1247171392763474 0  0 0.1875 0  0.06234067912074565 0.1874601835525342 0  0.1246771152068035 0.187419538406692 0  0.1870050828263468 0.1873772857466776 0  0.2493205666959388 0.187332772393008 0  0.3116199512672742 0.1872855596984778 0  0.3739003265679866 0.1872355439438184 0  0.4361599667000695 0.1871831166656901 0  0.4983990529653509 0.187129367813462 0  0.5606207333758652 0.18707632165983 0  0.6228326341434731 0.1870271686771975 0  0.6850489645602367 0.1869864056308291 0  0.7472933752961163 0.1869597018280066 0  0.8096027195489248 0.1869531277776247 0  0.8720318489317038 0.1869709811144813 0  0.9346600891667589 0.187010396277383 0  0.9976036395977638 0.1870482256532899 0  0 0.25 0  0.06229433311625417 0.2499481652399609 0  0.1245828739541233 0.2498951290864798 0  0.1868598212314456 0.2498397417247501 0  0.2491195568162081 0.2497809889980805 0  0.3113568411118151 0.2497180965621097 0  0.3735671531171892 0.2496506805238995 0  0.4357472477894292 0.2495789623736883 0  0.4978960234379758 0.2495040644004696 0  0.5600158133813679 0.2494283931562538 0  0.6221142315241498 0.249356094647981 0  0.6842066937407671 0.2492935109447761 0  0.7463196707121674 0.2492494585726198 0  0.8084945436929643 0.2492349459777852 0  0.8707915810472622 0.2492616127437294 0  0.9332931348067306 0.2493377920591736 0  0.9961048901449028 0.2494614900678908 0  0 0.3125 0  0.06225393640476762 0.3124373522870692 0  0.1245004668175798 0.3123730687972139 0  0.186732122286539 0.3123055537097332 0  0.2489415094836421 0.3122333273568815 0  0.3111214612947691 0.3121551291158509 0  0.3732653481527227 0.312070081053706 0  0.4353676363695427 0.3119779424278504 0  0.4974248069131885 0.3118794919734397 0  0.5594367762354149 0.3117770790115047 0  0.6214089771022868 0.3116753779412243 0  0.6833552347907905 0.3115823470828911 0  0.7453014655199899 0.3115103010460563 0  0.8072899730314941 0.3114768069822617 0  0.8693837277844463 0.3115047591850996 0  0.9316697295056665 0.3116205001460822 0  0.994261098103854 0.3118484846458116 0  0 0.375 0  0.06222111009478414 0.3749281797800582 0  0.1244331908232494 0.3748542388827542 0  0.1866270660988342 0.3747760689423733 0  0.2487934394514637 0.3746916216173574 0  0.3109229413872681 0.3745989866911251 0  0.3730063363357534 0.374496539389737 0  0.4350349858368289 0.3743831991009873 0  0.4970017047556114 0.3742588605432268 0  0.558902195587118 0.3741250833903512 0  0.6207372903201327 0.3739861537791577 0  0.6825162404920977 0.3738506473698751 0  0.7442612196832379 0.3737335924288904 0  0.8060129699747518 0.3736591741302635 0  0.8678371223949722 0.3736635022496195 0  0.9298303782214036 0.3737961289761296 0  0.9921261285620148 0.3741177494404682 0  0 0.4375 0  0.06219746091456697 0.4374211317543817 0  0.1243843559174805 0.4373396358637758 0  0.1865498608405378 0.4372528526548437 0  0.2486827506317497 0.4371580868285103 0  0.3107712827436512 0.4370526318501453 0  0.3728032151213777 0.4369338597711883 0  0.4347660588054257 0.4367994252675296 0  0.4966477242235388 0.4366476639811679 0  0.5584378055566971 0.4364783153236017 0  0.6201298580311315 0.436293775320831 0  0.6817251390207186 0.4361011865743338 0  0.7432383456895292 0.4359157755926307 0  0.8047057665825105 0.4357658566119917 0  0.866195806116856 0.4356995856303247 0  0.9278210228692834 0.4357924089427345 0  0.989750353749725 0.4361517948891354 0  0 0.5 0  0.06218448436561306 0.4999167125578799 0  0.1243570882694 0.4998303149346401 0  0.1865055414758467 0.4997376065316144 0  0.2486168273350773 0.4996352205371271 0  0.3106768474136774 0.4995195650357058 0  0.3726701643166516 0.4993868078311577 0  0.4345799109018484 0.4992329485612032 0  0.4963880325324682 0.4990540600799878 0  0.5580761625960724 0.4988468510736067 0  0.6196276461301472 0.4986098265249607 0  0.6810315399148702 0.4983455353409855 0  0.7422897970978162 0.4980647261267905 0  0.8034291073706853 0.4977936481555504 0  0.8645185239976341 0.4975859389670023 0  0.9256923055915014 0.4975395703847456 0  0.9871745363957665 0.4978153003966271 0  0 0.5625 0  0.0621834348855915 0.562415400472602 0  0.1243540599821536 0.5623272944534133 0  0.1864985388210767 0.5622320194196785 0  0.2486024158810489 0.5621255956622544 0  0.3106495258785658 0.5620035617584895 0  0.3726213884399524 0.5618608123110994 0  0.4344966383632797 0.561691459684487 0  0.4962506273509537 0.5614887745016414 0  0.5578555058738044 0.5612453293161412 0  0.6192814264119083 0.5609536157732303 0  0.6805001089904676 0.560607707355279 0  0.7414929800332102 0.5602071442647597 0  0.8022673519669683 0.5597653358664388 0  0.8628848493822201 0.5593264660842062 0  0.9235040151959102 0.5589960270478587 0  0.9844294580525682 0.5589861095412875 0  0 0.625 0  0.06219517327375636 0.6249175864352586 0  0.1243771647942219 0.6248314261832481 0  0.1865321452101287 0.6247375545119546 0  0.2486448231204397 0.6246315427857284 0  0.3106975966691625 0.6245082226235652 0  0.37266956527752 0.6243613563391371 0  0.4345353791596284 0.6241832374026862 0  0.4962639671231944 0.6239642152442353 0  0.5578173480594549 0.6236921733022319 0  0.6191501263768364 0.6233520884588889 0  0.6802111506318224 0.6229260704917183 0  0.7409506185989039 0.6223949968361254 0  0.8013391776316499 0.6217446870999317 0  0.8614100857377252 0.620983835377673 0  0.9213372618195557 0.6201885979130499 0  0.9815493263205187 0.6195919796978586 0  0 0.6875 0  0.06222000857788591 0.6874235050441045 0  0.1244271747082889 0.6873432458320707 0  0.1866079294442387 0.6872551948167396 0  0.2487469988347928 0.6871547492845054 0  0.3108263460750268 0.687036362965922 0  0.3728238358707082 0.6868930666817595 0  0.4347114953608667 0.6867158167094946 0  0.4964532419709077 0.6864925845158797 0  0.5580020140892996 0.68620706706697 0  0.6192965245787702 0.6858368621827163 0  0.6802587462636717 0.6853509733732536 0  0.7407956659483749 0.6847068249665974 0  0.8008148121217034 0.6838485286061486 0  0.8602757093269472 0.6827143665210571 0  0.9193173670891556 0.681282595572083 0  0.9784911714998594 0.6797218102281589 0  0 0.75 0  0.06225755819069739 0.7499331691771514 0  0.1245034280965697 0.7498628282700921 0  0.1867251837094609 0.7497851878844519 0  0.2489086221177805 0.7496958381184747 0  0.3110366042634838 0.7495893326814996 0  0.3730875050165548 0.7494586217539574 0  0.4350330386096897 0.749294236908296 0  0.4968351183771693 0.7490830735121755 0  0.5584412726807829 0.7488065098922987 0  0.6197780431282717 0.7484374004119693 0  0.6807420496816918 0.7479350850001714 0  0.7411901470094464 0.7472368178881285 0  0.8009370061792466 0.7462429813522511 0  0.8597915625650475 0.7447945638740842 0  0.9177287617800892 0.7426654740568659 0  0.9753430315662743 0.7398109672447574 0  0 0.8125 0  0.06230665417028879 0.812446321964023 0  0.1246036114908057 0.8123896781279577 0  0.1868805116498563 0.8123268447015262 0  0.2491253679765987 0.8122540185341329 0  0.311323466785898 0.8121664180467675 0  0.3734558346425095 0.8120577250627966 0  0.4354969733427602 0.8119192615882957 0  0.4974113605518633 0.8117387283118701 0  0.5591478486267563 0.8114982045034934 0  0.6206304441845709 0.811170847885515 0  0.6817428730705655 0.8107151295412658 0  0.7423029818776529 0.8100638610407978 0  0.8020237088591845 0.8091007375464571 0  0.8604741851770943 0.8076033820266785 0  0.9171660989413275 0.8050883073954612 0  0.9726433549857816 0.8003260461308164 0  0 0.875 0  0.0623653232498342 0.8749624191287131 0  0.1247236986133244 0.8749226856808801 0  0.1870676767960615 0.8748784486465438 0  0.2493885653378866 0.874826908477897 0  0.3116755672505845 0.874764503500477 0  0.37391455032387 0.8746864663769113 0  0.4360861687303809 0.8745861657150582 0  0.4981628375195838 0.8744541005667835 0  0.5601036098058833 0.8742763404024452 0  0.6218450447317395 0.8740320856413676 0  0.6832839942239066 0.8736898223996993 0  0.7442431227571923 0.8732010401315956 0  0.8043972942760037 0.8724883981452732 0  0.8631069800770119 0.8714147717025403 0  0.9190315264475513 0.8696675495240629 0  0.9693128784250807 0.8662265980308966 0  0 0.9375 0  0.06243086033662026 0.9374806502468254 0  0.1248580947606303 0.9374601682064545 0  0.1872778085257622 0.9374373137667461 0  0.2496854361420186 0.937410602253019 0  0.3120752717999257 0.9373781322838167 0  0.3744397911208321 0.9373373415307512 0  0.4367686023940718 
[...]
<PointData  Vectors="f_54"> 
<DataArray  type="Float64"  Name="f_54"  NumberOfComponents="3" format="ascii">0.0000000000000000e+00 0.0000000000000000e+00 0.0000000000000000e+00  0.0000000000000000e+00 0.0000000000000000e+00 0.0000000000000000e+00  0.0000000000000000e+00 0.0000000000000000e+00 0.0000000000000000e+00  0.0000000000000000e+00 0.0000000000000000e+00 0.0000000000000000e+00  0.0000000000000000e+00 0.0000000000000000e+00 0.0000000000000000e+00  0.0000000000000000e+00 0.0000000000000000e+00 0.0000000000000000e+00  0.0000000000000000e+00 0.0000000000000000e+00 0.0000000000000000e+00  0.0000000000000000e+00 0.0000000000000000e+00 0.0000000000000000e+00  0.0000000000000000e+00 0.0000000000000000e+00 0.0000000000000000e+00  0.0000000000000000e+00 0.0000000000000000e+00 0.0000000000000000e+00  0.0000000000000000e+00 0.0000000000000000e+00 0.0000000000000000e+00  0.0000000000000000e+00 0.0000000000000000e+00 0.0000000000000000e+00  0.0000000000000000e+00 0.0000000000000000e+00 0.0000000000000000e+00  0.0000000000000000e+00 0.0000000000000000e+00 0.0000000000000000e+00  0.0000000000000000e+00 0.0000000000000000e+00 0.0000000000000000e+00  0.0000000000000000e+00 0.0000000000000000e+00 0.0000000000000000e+00  0.0000000000000000e+00 0.0000000000000000e+00 0.0000000000000000e+00  0.0000000000000000e+00 0.0000000000000000e+00 0.0000000000000000e+00  1.7402007612744933e-06 4.6410209527459904e-08 0.0000000000000000e+00  3.5016230739255497e-06 9.3948622509262077e-08 0.0000000000000000e+00  5.3014676367402889e-06 1.4366795145105282e-07 0.0000000000000000e+00  7.1468368918154183e-06 1.9640579999380756e-07 0.0000000000000000e+00  9.0279666719265504e-06 2.5260342479973844e-07 0.0000000000000000e+00  1.0909225598896930e-05 3.1202697941371024e-07 0.0000000000000000e+00  1.2716847116707205e-05 3.7334745319998100e-07 0.0000000000000000e+00  1.4321882993118839e-05 4.3353005571477768e-07 0.0000000000000000e+00  1.5515659167322098e-05 4.8697977433718175e-07 0.0000000000000000e+00  1.5971727528876610e-05 5.2437693104458821e-07 0.0000000000000000e+00  1.5178956129893417e-05 5.3106453794434696e-07 0.0000000000000000e+00  1.2302612692504640e-05 4.8453866907748727e-07 0.0000000000000000e+00  5.8429881475429033e-06 3.4946459615311121e-07 0.0000000000000000e+00  -7.3322796578214130e-06 6.4890108336107639e-08 0.0000000000000000e+00  -3.5059777368511939e-05 -4.9349946951748747e-07 0.0000000000000000e+00  -1.0043979073052817e-04 -1.6276402888419718e-06 0.0000000000000000e+00  0.0000000000000000e+00 0.0000000000000000e+00 0.0000000000000000e+00  3.4553544245953983e-06 9.1589487304961329e-08 0.0000000000000000e+00  6.9576830539529431e-06 1.8552124069669662e-07 0.0000000000000000e+00  1.0546582445501780e-05 2.8401351232280849e-07 0.0000000000000000e+00  1.4242940641490187e-05 3.8891576600035037e-07 0.0000000000000000e+00  1.8036313361687369e-05 5.0138557794646462e-07 0.0000000000000000e+00  2.1868100953840778e-05 6.2137922679730070e-07 0.0000000000000000e+00  2.5608743778194609e-05 7.4686850705607559e-07 0.0000000000000000e+00  2.9026656110489625e-05 8.7268484155121928e-07 0.0000000000000000e+00  3.1745513050207416e-05 9.8889263322045984e-07 0.0000000000000000e+00  3.3183807666826327e-05 1.0786139564196148e-06 0.0000000000000000e+00  3.2463941916541926e-05 1.1152519826635364e-06 0.0000000000000000e+00  2.8262508246900405e-05 1.0589975632540052e-06 0.0000000000000000e+00  1.8541377893221558e-05 8.5201160320478293e-07 0.0000000000000000e+00  5.7854219694282841e-08 4.0961678962617830e-07 0.0000000000000000e+00  -3.2346963668622051e-05 -4.0302037647791362e-07 0.0000000000000000e+00  -8.5369425272883751e-05 -1.8522115624220763e-06 0.0000000000000000e+00  0.0000000000000000e+00 0.0000000000000000e+00 0.0000000000000000e+00  5.1190694007627521e-06 1.3430661120769645e-07 0.0000000000000000e+00  1.0319386255672533e-05 2.7232005978382962e-07 0.0000000000000000e+00  1.5672684727517882e-05 4.1762423648889007e-07 0.0000000000000000e+00  2.1226117086323021e-05 5.7339461077610730e-07 0.0000000000000000e+00  2.6985368630717490e-05 7.4200730719846954e-07 0.0000000000000000e+00  3.2891914422822301e-05 9.2438990158991450e-07 0.0000000000000000e+00  3.8792135926734756e-05 1.1189804861436529e-06 0.0000000000000000e+00  4.4395841075640210e-05 1.3201350577887207e-06 0.0000000000000000e+00  4.9221631728101418e-05 1.5158202874819223e-06 0.0000000000000000e+00  5.2526610977776610e-05 1.6844900472152153e-06 0.0000000000000000e+00  5.3218444668329642e-05 1.7912439025348769e-06 0.0000000000000000e+00  4.9750616360944450e-05 1.7838512537352592e-06 0.0000000000000000e+00  4.0015276621615359e-05 1.5904047789364727e-06 0.0000000000000000e+00  2.1304747135641767e-05 1.1238780689918874e-06 0.0000000000000000e+00  -9.3853765478671488e-06 3.1238784464049298e-07 0.0000000000000000e+00  -5.3874619752243868e-05 -7.6456018199342399e-07 0.0000000000000000e+00  0.0000000000000000e+00 0.0000000000000000e+00 0.0000000000000000e+00  6.6965218054022699e-06 1.7318275535462954e-07 0.0000000000000000e+00  1.3519737241680533e-05 3.5159822681996730e-07 0.0000000000000000e+00  2.0586373953934779e-05 5.4042217723421660e-07 0.0000000000000000e+00  2.7986504455387811e-05 7.4453522319122553e-07 0.0000000000000000e+00  3.5764540750997675e-05 9.6816904848281011e-07 0.0000000000000000e+00  4.3892944795629514e-05 1.2142528338516218e-06 0.0000000000000000e+00  5.2235858535147235e-05 1.4832791149669221e-06 0.0000000000000000e+00  6.0499918644259368e-05 1.7714459219000004e-06 0.0000000000000000e+00  6.8170265358033066e-05 2.0677833124045454e-06 0.0000000000000000e+00  7.4432017031020821e-05 2.3499961887440948e-06 0.0000000000000000e+00  7.8082945580832725e-05 2.5789716325729092e-06 0.0000000000000000e+00  7.7455338633345048e-05 2.6925109383794828e-06 0.0000000000000000e+00  7.0391886563479908e-05 2.6001006192656754e-06 0.0000000000000000e+00  5.4377588453954325e-05 2.1823568331534371e-06 0.0000000000000000e+00  2.7038402422807992e-05 1.2986137321536660e-06 0.0000000000000000e+00  -1.2646896572926260e-05 -2.1374220470258628e-07 0.0000000000000000e+00  0.0000000000000000e+00 0.0000000000000000e+00 0.0000000000000000e+00  8.1418229597044219e-06 2.0668198472770037e-07 0.0000000000000000e+00  1.6467749372081230e-05 4.2022356711582012e-07 0.0000000000000000e+00  2.5153499139325603e-05 6.4756202465521105e-07 0.0000000000000000e+00  3.4350733334455093e-05 8.9562146220796308e-07 0.0000000000000000e+00  4.4168564173947964e-05 1.1711239334726533e-06 0.0000000000000000e+00  5.4646574077367734e-05 1.4801121563125806e-06 0.0000000000000000e+00  6.5715787236086178e-05 1.8269669335151915e-06 0.0000000000000000e+00  7.7143876812969144e-05 2.2125810941254621e-06 0.0000000000000000e+00  8.8461575129358816e-05 2.6311988834333372e-06 0.0000000000000000e+00  9.8869904552283653e-05 3.0652947832336086e-06 0.0000000000000000e+00  1.0713446262236486e-04 3.4778905608905165e-06 0.0000000000000000e+00  1.1148684424534103e-04 3.8021937168036812e-06 0.0000000000000000e+00  1.0957892100442646e-04 3.9298539772641367e-06 0.0000000000000000e+00  9.8576975330579903e-05 3.7018598071927949e-06 0.0000000000000000e+00  7.5533745383980894e-05 2.9095714425038114e-06 0.0000000000000000e+00  3.8195297181641020e-05 1.3156025184740047e-06 0.0000000000000000e+00  0.0000000000000000e+00 0.0000000000000000e+00 0.0000000000000000e+00  9.3972556410135561e-06 2.3317295440004388e-07 0.0000000000000000e+00  1.9046495290695989e-05 4.7479661160593246e-07 0.0000000000000000e+00  2.9195153827729733e-05 7.3358974518639555e-07 0.0000000000000000e+00  4.0074500453384892e-05 1.0186889288991792e-06 0.0000000000000000e+00  5.1884801855887353e-05 1.3397570017572289e-06 0.0000000000000000e+00  6.4771222317980899e-05 1.7068957843794126e-06 0.0000000000000000e+00  7.8785895501498190e-05 2.1301500730331872e-06 0.0000000000000000e+00  9.3830620636761765e-05 2.6182030123199804e-06 0.0000000000000000e+00  1.0957410749429957e-04 3.1755588854990544e-06 0.0000000000000000e+00  1.2533867908186825e-04 3.7970779905767596e-06 0.0000000000000000e+00  1.3995581034425577e-04 4.4582664425559892e-06 0.0000000000000000e+00  1.5160099278720135e-04 5.0996110650736581e-06 0.0000000000000000e+00  1.5764004614158189e-04 5.6044205833436361e-06 0.0000000000000000e+00  1.5455287677909046e-04 5.7737472297531194e-06 0.0000000000000000e+00  1.3803859046767049e-04 5.3108194623490323e-06 0.0000000000000000e+00  1.0341867288727016e-04 3.8410726667181019e-06 0.0000000000000000e+00  0.0000000000000000e+00 0.0000000000000000e+00 0.0000000000000000e+00  1.0394802439996524e-05 2.5106707516239370e-07 0.0000000000000000e+00  2.1115880629262495e-05 5.1193886989012415e-07 0.0000000000000000e+00  3.2491066069852556e-05 7.9290084266536476e-07 0.0000000000000000e+00  4.4845440621520276e-05 1.1051685382206489e-06 0.0000000000000000e+00  5.8493740494723147e-05 1.4613964623577573e-06 0.0000000000000000e+00  7.3723660312093359e-05 1.8761864609025229e-06 0.0000000000000000e+00  9.0764538227171653e-05 2.3664676478045189e-06 0.0000000000000000e+00  1.0973360190544095e-04 2.9514035267928632e-06 0.0000000000000000e+00  1.3054916736543308e-04 3.6510406637742860e-06 0.0000000000000000e+00  1.5279757121393063e-04 4.4820991107476304e-06 0.0000000000000000e+00  1.7553990786875671e-04 5.4479996671155403e-06 0.0000000000000000e+00  1.9704943384955592e-04 6.5186129954042579e-06 0.0000000000000000e+00  2.1448680437349997e-04 7.5944864151384021e-06 0.0000000000000000e+00  2.2355467002998700e-04 8.4538102151205520e-06 0.0000000000000000e+00  2.1822307213515403e-04 8.6940005885555123e-06 0.0000000000000000e+00  1.9065038046820582e-04 7.7066240242289462e-06 0.0000000000000000e+00  0.0000000000000000e+00 0.0000000000000000e+00 0.0000000000000000e+00  1.1060240888939276e-05 2.5902075212076570e-07 0.0000000000000000e+00  2.2520772677556437e-05 5.2873114106000573e-07 0.0000000000000000e+00  3.4791530812733733e-05 8.2048279370068394e-07 0.0000000000000000e+00  4.8298177766858719e-05 1.1470307274794871e-06 0.0000000000000000e+00  6.3485513880305231e-05 1.5234656881576156e-06 0.0000000000000000e+00  8.0813581107063158e-05 1.9684335459860506e-06 0.0000000000000000e+00  1.0074062841235145e-04 2.5057145578395924e-06 0.0000000000000000e+00  1.2368334012530371e-04 3.1660942309457467e-06 0.0000000000000000e+00  1.4993906263870629e-04 3.9890287621346098e-06 0.0000000000000000e+00  1.7954696375868003e-04 5.0225418765394842e-06 0.0000000000000000e+00  2.1205589297161245e-04 6.3175007784026432e-06 0.0000000000000000e+00  2.4615967505789421e-04 7.9082397606158626e-06 0.0000000000000000e+00  2.7916491037940558e-04 9.7656731271323590e-06 0.0000000000000000e+00  3.0628966623809264e-04 1.1705825393076755e-05 0.0000000000000000e+00  3.1987054150229557e-04 1.3250019742629003e-05 0.0000000000000000e+00  3.0864175125500153e-04 1.3484632923767607e-05 0.0000000000000000e+00  0.0000000000000000e+00 0.0000000000000000e+00 0.0000000000000000e+00  1.1319849329230922e-05 2.5616714168339497e-07 0.0000000000000000e+00  2.3104703546364251e-05 5.2323284651037267e-07 0.0000000000000000e+00  3.5838567668272135e-05 8.1284289062055171e-07 0.0000000000000000e+00  5.0043208198762479e-05 1.1383232072196305e-06 0.0000000000000000e+00  6.6295893680328851e-05 1.5159232266018793e-06 0.0000000000000000e+00  8.5243894328313578e-05 1.9666545351077037e-06 0.0000000000000000e+00  1.0761099198161874e-04 2.5191032527788024e-06 0.0000000000000000e+00  1.3418649030131458e-04 3.2136991134953168e-06 0.0000000000000000e+00  1.6577894523790772e-04 4.1088509384416670e-06 0.0000000000000000e+00  2.0310324000892771e-04 5.2886247949160971e-06 0.0000000000000000e+00  2.4654901629369246e-04 6.8690762738486353e-06 0.0000000000000000e+00  2.9575146286577340e-04 8.9935632363839124e-06 0.0000000000000000e+00  3.4886107008817220e-04 1.1792785203828735e-05 0.0000000000000000e+00  4.0141796438325847e-04 1.5262081315044427e-05 0.0000000000000000e+00  4.4484684114244106e-04 1.8995866559314286e-05 0.0000000000000000e+00  4.6486539512592505e-04 2.1793070537276411e-05 0.0000000000000000e+00  0.0000000000000000e+00 0.0000000000000000e+00 0.0000000000000000e+00  1.1109409507657966e-05 2.4232089592941832e-07 0.0000000000000000e+00  2.2728668820176189e-05 4.9496010037880301e-07 0.0000000000000000e+00  3.5396015402278734e-05 7.6891814567179520e-07 0.0000000000000000e+00  4.9710224407397263e-05 1.0768075605466779e-06 0.0000000000000000e+00  6.6364553708222316e-05 1.4341293899502102e-06 0.0000000000000000e+00  8.6183998672869022e-05 1.8613265804609292e-06 0.0000000000000000e+00  1.1016425637228515e-04 2.3872955264910276e-06 0.0000000000000000e+00  1.3950636709442351e-04 3.0555432270572268e-06 0.0000000000000000e+00  1.7563190642954125e-04 3.9349188623312977e-06 0.0000000000000000e+00  2.2014593663302132e-04 5.1375787263074576e-06 0.0000000000000000e+00  2.7468264655206687e-04 6.8463433875481954e-06 0.0000000000000000e+00  3.4051425944178998e-04 9.3478831041853550e-06 0.0000000000000000e+00  4.1772430320264866e-04 1.3046717839328212e-05 0.0000000000000000e+00  5.0366603775776854e-04 1.8376782629320181e-05 0.0000000000000000e+00  5.9046433053091228e-04 2.5416933325579147e-05 0.0000000000000000e+00  6.6170003928933577e-04 3.2945375224329794e-05 0.0000000000000000e+00  0.0000000000000000e+00 0.0000000000000000e+00 0.0000000000000000e+00  1.0384693392682992e-05 2.1808705802582491e-07 0.0000000000000000e+00  2.1293495162504516e-05 4.4516290446312865e-07 0.0000000000000000e+00  3.3286600486844412e-05 6.9067032613349329e-07 0.0000000000000000e+00  4.7004145917304755e-05 9.6518843293524048e-07 0.0000000000000000e+00  6.3215537494521368e-05 1.2813413886162009e-06 0.0000000000000000e+00  8.2880452963011344e-05 1.6553518547353039e-06 0.0000000000000000e+00  1.0722529924905627e-04 2.1099943776016555e-06 0.0000000000000000e+00  1.3783696479855321e-04 2.6805634174033537e-06 0.0000000000000000e+00  1.7676950402835298e-04 3.4272261977903766e-06 0.0000000000000000e+00  2.2664337373347457e-04 4.4604415332228267e-06 0.0000000000000000e+00  2.9067989071671725e-04 5.9914475529409423e-06 0.0000000000000000e+00  3.7253518561655870e-04 8.4251235822487535e-06 0.0000000000000000e+00  4.7564541671551026e-04 1.2504747310428091e-05 0.0000000000000000e+00  6.0153731340053423e-04 1.9446438116964867e-05 0.0000000000000000e+00  7.4629931811473634e-04 3.0722497623513225e-05 0.0000000000000000e+00  8.9516999813562886e-04 4.6815345206278918e-05 0.0000000000000000e+00  0.0000000000000000e+00 0.0000000000000000e+00 0.0000000000000000e+00  9.1320359052387533e-06 1.8481534321855904e-07 0.0000000000000000e+00  1.8762935905659481e-05 3.7675191385592498e-07 0.0000000000000000e+00  2.9431687481096468e-05 5.8304875602982393e-07 0.0000000000000000e+00  4.1768356607665961e-05 8.1130100591586296e-07 0.0000000000000000e+00  5.6554170621442804e-05 1.0696290312034042e-06 0.0000000000000000e+00  7.4801563512000670e-05 1.3669392461658819e-06 0.0000000000000000e+00  9.7864692747249034e-05 1.7136182632320911e-06 0.0000000000000000e+00  1.2759386699939641e-04 2.1237378057284635e-06 0.0000000000000000e+00  1.6654913166800370e-04 2.6218668941875253e-06 0.0000000000000000e+00  2.1828412576815084e-04 3.2628256314205784e-06 0.0000000000000000e+00  2.8768819952254082e-04 4.1854442290811144e-06 0.0000000000000000e+00  3.8130018565746764e-04 5.7494861520485286e-06 0.0000000000000000e+00  5.0730595760993947e-04 8.8562310304724455e-06 0.0000000000000000e+00  6.7444157338619705e-04 1.5597548320570060e-05 0.0000000000000000e+00  8.8793858530032037e-04 3.0060063149898986e-05 0.0000000000000000e+00  1.1395516959587190e-03 5.4885113488099046e-05 0.0000000000000000e+00  0.0000000000000000e+00 0.0000000000000000e+00 0.0000000000000000e+00  7.3770636250978193e-06 1.4438323881485027e-07 0.0000000000000000e+00  1.5183360788502513e-05 2.9381289650113575e-07 0.0000000000000000e+00  2.3886859540839428e-05 4.5313327575265903e-07 0.0000000000000000e+00  3.4044939316089030e-05 6.2675210093932774e-07 0.0000000000000000e+00  4.6366441320733053e-05 8.1796768466126976e-07 0.0000000000000000e+00  6.1798887538613465e-05 1.0275652585225055e-06 0.0000000000000000e+00  8.1657112125363676e-05 1.2510941677589533e-06 0.0000000000000000e+00  1.0781840418455794e-04 1.4739869256336775e-06 0.0000000000000000e+00  1.4302289547983208e-04 1.6638477585494596e-06 0.0000000000000000e+00  1.9133677385055529e-04 1.7616482420769562e-06 0.0000000000000000e+00  2.5885508269916013e-04 1.6847122296910575e-06 0.0000000000000000e+00  3.5471518360165446e-04 1.3953596139702309e-06 0.0000000000000000e+00  4.9236945058329516e-04 1.2246860561753798e-06 0.0000000000000000e+00  6.9053506139002852e-04 3.0721812617697697e-06 0.0000000000000000e+00  9.7142340030111508e-04 1.4633352597723697e-05 0.0000000000000000e+00  1.3471973190361153e-03 6.7760936005671857e-05 0.0000000000000000e+00  0.0000000000000000e+00 0.0000000000000000e+00 0.0000000000000000e+00  5.1893943767013185e-06 9.8861791746821576e-08 0.0000000000000000e+00  1.0695136393133268e-05 2.0081483746748985e-07 0.0000000000000000e+00  1.6864568663311240e-05 3.0859106632077343e-07 0.0000000000000000e+00  2.4117400558620245e-05 4.2406222982748040e-07 0.0000000000000000e+00  3.2997877001281989e-05 5.4708359479114657e-07 0.0000000000000000e+00  4.4251040414023961e-05 6.7301349756335843e-07 0.0000000000000000e+00  5.8940658312991178e-05 7.8740168786780913e-07 0.0000000000000000e+00  7.8638749060144859e-05 8.5461469471680172e-07 0.0000000000000000e+00  1.0573917535567921e-04 7.9343380087174788e-07 0.0000000000000000e+00  1.4398880933797788e-04 4.2481394186245382e-07 0.0000000000000000e+00  1.9940399009159174e-04 -6.3832939008001993e-07 0.0000000000000000e+00  2.8187111435902377e-04 -3.2141967277402663e-06 0.0000000000000000e+00  4.0794208239565871e-04 -8.9623230402120084e-06 0.0000000000000000e+00  6.0552625922321711e-04 -2.0987144701669793e-05 0.0000000000000000e+00  9.2015302296325310e-04 -4.4230946675724562e-05 0.0000000000000000e+00  1.4141347394564987e-03 -8.3366633416062793e-05 0.0000000000000000e+00  0.0000000000000000e+00 0.0000000000000000e+00 0.0000000000000000e+00  2.6813909384251799e-06 5.0189101779989121e-08 0.0000000000000000e+00  5.5311619770667192e-06 1.0180835647642104e-07 0.0000000000000000e+00  8.7350806449585627e-06 1.5601543128394343e-07 0.0000000000000000e+00  1.2519791399365007e-05 2.1329478179925818e-07 0.0000000000000000e+00  1.7183050231945541e-05 2.7255434551830129e-07 0.0000000000000000e+00  2.3139090957155551e-05 3.2912541281267704e-07 0.0000000000000000e+00  3.0990994173817265e-05 3.7023553105615437e-07 0.0000000000000000e+00  4.1651337124128619e-05 3.6449353960837784e-07 0.0000000000000000e+00  5.6550449432436626e-05 2.3664168199611709e-07 0.0000000000000000e+00  7.8005511620492644e-05 -1.9542943133271462e-07 0.0000000000000000e+00  1.0988223897440186e-04 -1.3839590277445245e-06 0.0000000000000000e+00  1.5875247603270090e-04 -4.4877168303438451e-06 0.0000000000000000e+00  2.3567918194359794e-04 -1.2547489608799266e-05 0.0000000000000000e+00  3.5768827580605269e-04 -3.3499978647213519e-05 0.0000000000000000e+00  5.4259004588374973e-04 -8.6364406676328465e-05 0.0000000000000000e+00  7.7564470598654042e-04 -2.0340837364168975e-04 0.0000000000000000e+00  0.0000000000000000e+00 0.0000000000000000e+00 0.0000000000000000e+00  0.0000000000000000e+00 0.0000000000000000e+00 0.0000000000000000e+00  0.0000000000000000e+00 0.0000000000000000e+00 0.0000000000000000e+00  0.0000000000000000e+00 0.0000000000000000e+00 0.0000000000000000e+00  0.0000000000000000e+00 0.0000000000000000e+00 0.0000000000000000e+00  0.0000000000000000e+00 0.0000000000000000e+00 0.0000000000000000e+00  0.0000000000000000e+00 0.0000000000000000e+00 0.0000000000000000e+00  0.0000000000000000e+00 0.0000000000000000e+00 0.0000000000000000e+00  0.0000000000000000e+00 0.0000000000000000e+00 0.0000000000000000e+00  0.0000000000000000e+00 0.0000000000000000e+00 0.0000000000000000e+00  0.0000000000000000e+00 0.0000000000000000e+00 0.0000000000000000e+00  0.0000000000000000e+00 0.0000000000000000e+00 0.0000000