<?xml version="1.0"?>
<VTKFile type="UnstructuredGrid"  version="0.1"  >
<UnstructuredGrid>
<Piece  NumberOfPoints="289" NumberOfCells="512">
<Points>
<DataArray  type="Float64"  NumberOfComponents="3"  format="ascii">0 0 0  0.0625 0 0  0.125 0 0  0.1875 0 0  0.25 0 0  0.3125 0 0  0.375 0 0  0.4375 0 0  0.5 0 0  0.5625 0 0  0.625 0 0  0.6875 0 0  0.75 0 0  0.8125 0 0  0.875 0 0  0.9375 0 0  1 0 0  0 0.0625 0  0.06245717672318195 0.06247782016444449 0  0.1249137385290191 0.06245525474963971 0  0.1873691284998799 0.06243195058232967 0  0.2498230158558274 0.06240763992749231 0  0.3122754536111422 0.06238219564707902 0  0.3747270985209515 0.06235569999175436 0  0.4371795270928034 0.06232852763420047 0  0.4996356999346705 0.06230143777437264 0  0.5621006668710736 0.06227565980915108 0  0.6245826996821641 0.06225294049604984 0  0.6870952765158725 0.06223549790191382 0  0.7496609690016117 0.06222580631001128 0  0.8123199979437461 0.06222614993398023 0  0.8751509459302483 0.06223806120162042 0  0.938323426820196 0.06226273714559855 0  1.002225870325427 0.06231075953613597 0  0 0.125 0  0.06241500825367155 0.1249560140984274 0  0.1248286940501028 0.1249112147255492 0  0.1872398432046256 0.1248648485211844 0  0.2496476681969452 0.1248163229813348 0  0.3120521095173189 0.1247653135052267 0  0.374454259374669 0.124711900974095 0  0.4368569714877548 0.1246567441694839 0  0.4992657495940285 0.1246012815561987 0  0.5616900629524227 0.1245479379904049 0  0.6241453502070339 0.124500278760338 0  0.6866562075845905 0.1244630018104401 0  0.7492617257860881 0.1244415929099968 0  0.8120247440803701 0.1244414240642152 0  0.875047561563036 0.1244661946015888 0  0.9384947549346286 0.1245162856063238 0  1.002612830870466 0.1245884598368949 0  0 0.1875 0  0.06237426726456647 0.1874350177896325 0  0.124746317597904 0.1873687168327924 0  0.1871140720536946 0.187299856341607 0  0.2494760160862597 0.187227410244699 0  0.3118316069462794 0.1871507176503778 0  0.3741818539765744 0.1870696856865082 0  0.436530156453234 0.1869850583466311 0  0.4988835105339858 0.1868987552611684 0  0.5612542362422051 0.1868142618992082 0  0.6236624306111226 0.1867370070738583 0  0.6861394159122471 0.1866745775613059 0  0.7487324534707435 0.1866364618711101 0  0.811510644884802 0.1866327091099672 0  0.8745703510671501 0.1866701735903466 0  0.9380337603264057 0.1867428844403275 0  1.002025814383933 0.186805966928202 0  0 0.25 0  0.06233591046482128 0.2499153436164964 0  0.1246684589556878 0.2498287618783346 0  0.186994419678803 0.2497384096206435 0  0.2493111741537487 0.2496426751603461 0  0.3116171679622379 0.2495403576280515 0  0.373912579007332 0.2494309224827544 0  0.4362002971931657 0.2493148649789705 0  0.4984873366842151 0.2491942083574492 0  0.5607868172108266 0.2490731484138261 0  0.623120638433617 0.2489588147281939 0  0.685522876889064 0.2488620258552811 0  0.7480436299893171 0.2487977279409108 0  0.8107522430603792 0.2487844559186972 0  0.873737143336152 0.2488415712607814 0  0.9370966900488322 0.2489823599608796 0  1.000913374557424 0.2492020640195289 0  0 0.3125 0  0.06230112787592439 0.3123976032506926 0  0.124597480628992 0.3122925668676918 0  0.1868843779150943 0.3121823122135277 0  0.2491576704966739 0.3120644632929799 0  0.3114141752370917 0.3119370234175881 0  0.3736523478222148 0.3117986550203466 0  0.4358733095258906 0.3116491138075013 0  0.4980823686054668 0.3114899000482817 0  0.5602911871583427 0.3113251964540907 0  0.6225207070916369 0.3111631497525043 0  0.684804797374401 0.3110174920010605 0  0.7471942046543977 0.310909332115858 0  0.8097596409018444 0.3108685910917907 0  0.8725917351713469 0.3109339223124638 0  0.9357948630432583 0.3111491313651797 0  0.9994742372735475 0.3115536428544211 0  0 0.375 0  0.06227134690174348 0.3748825128622765 0  0.1245362775282815 0.3747615819702246 0  0.1867883848493438 0.3746337794322399 0  0.2490215830407207 0.3744957871357728 0  0.3112304383918742 0.3743445330409778 0  0.3734107479908079 0.3741774459699773 0  0.4355605032199277 0.3739929014680344 0  0.4976814193043054 0.3737909640660565 0  0.559781252526609 0.3735745743558346 0  0.6218771317718241 0.3733513754108567 0  0.6840000360611204 0.37313639568169 0  0.7462002501265923 0.3729557349286927 0  0.8085530248524528 0.3728510890675135 0  0.8711628572205334 0.3728841628752575 0  0.9341645629034626 0.3731385505347993 0  0.9977216615164254 0.3737147105873024 0  0 0.4375 0  0.06224818321702692 0.4373708742944618 0  0.1244881850174614 0.4372374580122059 0  0.1867117036611791 0.4370954041524341 0  0.2489104135520523 0.436940315224298 0  0.3110761018915942 0.4367677899247032 0  0.373201036394783 0.4365735827848132 0  0.4352787207439215 0.4363539616075311 0  0.497305276058545 0.43610640261129 0  0.5592817968963419 0.4358308513840181 0  0.6212181555900844 0.4355319098116609 0  0.6831388186091866 0.4352224826926611 0  0.7450911738355896 0.4349295780714723 0  0.8071564476543568 0.4347029053061314 0  0.8694623586936141 0.4346261782278469 0  0.9321956335786249 0.4348288638944046 0  0.99561357892132 0.4354923139691967 0  0 0.5 0  0.06223333532200351 0.4998635273844619 0  0.1244567671234787 0.4997219526380274 0  0.1866601046927862 0.4995700220219477 0  0.2488326707913393 0.4994022110184286 0  0.310963153569451 0.4992126306508942 0  0.3730396294496763 0.4989950102988364 0  0.435049916589948 0.4987428337424102 0  0.4969825452900647 0.4984497737159195 0  0.5588288418856414 0.4981106959342094 0  0.6205869474864729 0.4977237281931294 0  0.6822690366527587 0.4972942722625621 0  0.7439134605500491 0.4968424200071779 0  0.8056036404574571 0.4964159098824683 0  0.8674944786127573 0.4961108542784571 0  0.9298441032466036 0.4961000758801781 0  0.9930464353539371 0.496661253742077 0  0 0.5625 0  0.06222842548920466 0.5623612722593797 0  0.1244454877393165 0.5622167703955969 0  0.1866393481076384 0.5620604617764274 0  0.2487971450825399 0.5618857872328221 0  0.3109044864136252 0.5616853883269625 0  0.3729449926074529 0.5614508402940835 0  0.4349000143383044 0.5611724301592298 0  0.4967488033987849 0.5608390796300713 0  0.5584697234023602 0.5604386404876952 0  0.6200436568744672 0.5599590614896193 0  0.6814617518186896 0.5593914918660029 0  0.7427411458690973 0.5587375230070367 0  0.8039539694411671 0.5580248394487802 0  0.8652750541423931 0.5573384183494499 0  0.9270482238570661 0.5568750806323862 0  0.9898559789405288 0.5570184549603718 0  0 0.625 0  0.06223479750887625 0.6248647663632686 0  0.1244572829508 0.6247233446200224 0  0.1866544862228222 0.6245691873440703 0  0.2488118796735831 0.6243949713653721 0  0.3109124763097821 0.6241921357709724 0  0.3729357967022582 0.623950329288221 0  0.4348567283077082 0.6236567406661078 0  0.4966444394461909 0.6232953065037593 0  0.558261842382237 0.6228458585951827 0  0.6196668492385591 0.6222834680989372 0  0.6808182539177193 0.6215787816435261 0  0.7416921782265941 0.6207015855390791 0  0.8023202482903183 0.6196335393586048 0  0.8628666186416554 0.6184045515531524 0  0.9237585086470359 0.6171805939429038 0  0.9858588917206919 0.6164251528229104 0  0 0.6875 0  0.06225329144993005 0.6873744083809218 0  0.1244940738281626 0.6872425857067183 0  0.1867090395980191 0.6870978685334344 0  0.2488828941571599 0.686932628401889 0  0.3109970977565349 0.686737652390545 0  0.3730282537743547 0.6865013345259168 0  0.434946003404633 0.6862085730885962 0  0.4967103261725582 0.6858392261381119 0  0.5582683444706042 0.6853659210961189 0  0.6195513777434883 0.6847509678993091 0  0.6804748024236142 0.6839422161770773 0  0.7409478959657462 0.6828684656962044 0  0.8009115991360332 0.6814386029339787 0  0.8604431165738666 0.6795627845460207 0  0.9199857981966352 0.6772618679016976 0  0.9807058502261418 0.6749760108172389 0  0 0.75 0  0.06228402667809457 0.7498902282575658 0  0.1245562849179956 0.749774637160357 0  0.1868041496075342 0.7496469499938173 0  0.2490127987964259 0.7494998477357403 0  0.3111637326128789 0.7493242691697393 0  0.373232734954376 0.7491084531530739 0  0.4351869452830172 0.7488365568804042 0  0.4969805691098099 0.7484865825383629 0  0.5585486161065696 0.7480271573912307 0  0.6197981021479224 0.7474123545168113 0  0.6805970750193022 0.7465730496438253 0  0.7407658935992049 0.7454020659721595 0  0.8000894512985706 0.7437289344559328 0  0.8584139142954832 0.7412844675591198 0  0.9160104115333974 0.7377156631218023 0  0.9742621915690746 0.7332979569142862 0  0 0.8125 0  0.06232623381911995 0.8124118065714302 0  0.1246424582232326 0.8123186915345246 0  0.1869378630131486 0.8122153120333868 0  0.2491995447590523 0.8120953523049965 0  0.3114110299310505 0.8119508530058174 0  0.3735501387107901 0.8117712707908609 0  0.4355857154977854 0.8115420877436788 0  0.4974724256261389 0.8112426737839716 0  0.5591422400955558 0.8108428815927495 0  0.6204902560976817 0.810297383858006 0  0.6813510841995025 0.8095356539692573 0  0.7414610451529963 0.8084425736100369 0  0.8004065921759353 0.8068164110764946 0  0.8575999694052924 0.8042668843771734 0  0.912556401988972 0.7999416141148484 0  0.967469731409499 0.791619176224937 0  0 0.875 0  0.06237817961535641 0.8749382451649341 0  0.1247490644063999 0.8748729168018093 0  0.1871047389003361 0.874800118288406 0  0.2494356451376179 0.874715200739884 0  0.3117293883252732 0.8746122375337494 0  0.3739689522343153 0.8744832807450944 0  0.4361298537745675 0.8743172584266404 0  0.4981753696606716 0.8740982951845185 0  0.5600481553390001 0.873803119297215 0  0.6216548556532738 0.8733970329662549 0  0.6828365446162312 0.8728275697814847 0  0.74330940423545 0.8720138805952429 0  0.8025411369740185 0.8708249827862089 0  0.859488824988226 0.8690163655233907 0  0.9120642520992799 0.8659886913278615 0  0.9562544837102401 0.8597766749132869 0  0 0.9375 0  0.06243722064258683 0.9374682031913198 0  0.1248705986977661 0.9374345267771642 0  0.1872959545110475 0.9373969160345582 0  0.2497082098532247 0.9373529067887543 0  0.3121007247020278 0.9372993379629797 0  0.3744642902193721 0.9372319446204143 0  0.4367854905016971 0.9371
[...]
<PointData  Vectors="f_54"> 
<DataArray  type="Float64"  Name="f_54"  NumberOfComponents="3" format="ascii">0.0000000000000000e+00 0.0000000000000000e+00 0.0000000000000000e+00  0.0000000000000000e+00 0.0000000000000000e+00 0.0000000000000000e+00  0.0000000000000000e+00 0.0000000000000000e+00 0.0000000000000000e+00  0.0000000000000000e+00 0.0000000000000000e+00 0.0000000000000000e+00  0.0000000000000000e+00 0.0000000000000000e+00 0.0000000000000000e+00  0.0000000000000000e+00 0.0000000000000000e+00 0.0000000000000000e+00  0.0000000000000000e+00 0.0000000000000000e+00 0.0000000000000000e+00  0.0000000000000000e+00 0.0000000000000000e+00 0.0000000000000000e+00  0.0000000000000000e+00 0.0000000000000000e+00 0.0000000000000000e+00  0.0000000000000000e+00 0.0000000000000000e+00 0.0000000000000000e+00  0.0000000000000000e+00 0.0000000000000000e+00 0.0000000000000000e+00  0.0000000000000000e+00 0.0000000000000000e+00 0.0000000000000000e+00  0.0000000000000000e+00 0.0000000000000000e+00 0.0000000000000000e+00  0.0000000000000000e+00 0.0000000000000000e+00 0.0000000000000000e+00  0.0000000000000000e+00 0.0000000000000000e+00 0.0000000000000000e+00  0.0000000000000000e+00 0.0000000000000000e+00 0.0000000000000000e+00  0.0000000000000000e+00 0.0000000000000000e+00 0.0000000000000000e+00  0.0000000000000000e+00 0.0000000000000000e+00 0.0000000000000000e+00  -7.0922888746961899e-07 -2.5884455413610584e-08 0.0000000000000000e+00  -1.4634978606666930e-06 -5.2858997711218559e-08 0.0000000000000000e+00  -2.3120542070939489e-06 -8.2067627651811177e-08 0.0000000000000000e+00  -3.3120153709375709e-06 -1.1472258821826214e-07 0.0000000000000000e+00  -4.5331323897213819e-06 -1.5211706117202167e-07 0.0000000000000000e+00  -6.0636331722656680e-06 -1.9559730231808108e-07 0.0000000000000000e+00  -8.0178307241664341e-06 -2.4645231727950068e-07 0.0000000000000000e+00  -1.0546837973591389e-05 -3.0564067785486080e-07 0.0000000000000000e+00  -1.3855488499811371e-05 -3.7319634417871771e-07 0.0000000000000000e+00  -1.8233368075785173e-05 -4.4697769687253717e-07 0.0000000000000000e+00  -2.4121459835026012e-05 -5.1994195104472209e-07 0.0000000000000000e+00  -3.2276405108455679e-05 -5.7358224528969540e-07 0.0000000000000000e+00  -4.4223308288779291e-05 -5.5955320245941942e-07 0.0000000000000000e+00  -6.3631110954812098e-05 -3.3927616123104396e-07 0.0000000000000000e+00  -1.0089948581274119e-04 5.4313611808694950e-07 0.0000000000000000e+00  -1.9006098054114864e-04 3.8133473105209870e-06 0.0000000000000000e+00  0.0000000000000000e+00 0.0000000000000000e+00 0.0000000000000000e+00  -1.3719200529017776e-06 -5.0624381304950426e-08 0.0000000000000000e+00  -2.8299934577616299e-06 -1.0338749020873669e-07 0.0000000000000000e+00  -4.4683644860895767e-06 -1.6054026451510944e-07 0.0000000000000000e+00  -6.3962207166622824e-06 -2.2448831476499610e-07 0.0000000000000000e+00  -8.7468573707004338e-06 -2.9783913590003022e-07 0.0000000000000000e+00  -1.1688668287407440e-05 -3.8338904388428219e-07 0.0000000000000000e+00  -1.5439055220846453e-05 -4.8398503706203371e-07 0.0000000000000000e+00  -2.0282906607630264e-05 -6.0214068319433107e-07 0.0000000000000000e+00  -2.6598957941746880e-05 -7.3918906593622084e-07 0.0000000000000000e+00  -3.4901457313146427e-05 -8.9359798071268451e-07 0.0000000000000000e+00  -4.5914396196342987e-05 -1.0578383623157638e-06 0.0000000000000000e+00  -6.0717668693140189e-05 -1.2130005568173906e-06 0.0000000000000000e+00  -8.1047257090339020e-05 -1.3212401264394399e-06 0.0000000000000000e+00  -1.0987508588011763e-04 -1.3248769838391891e-06 0.0000000000000000e+00  -1.5217235463164681e-04 -1.2177249569085537e-06 0.0000000000000000e+00  -2.1339738761279973e-04 -1.5939486382535116e-06 0.0000000000000000e+00  0.0000000000000000e+00 0.0000000000000000e+00 0.0000000000000000e+00  -1.9465615225277673e-06 -7.3155538292994283e-08 0.0000000000000000e+00  -4.0130740051423255e-06 -1.4941367380871473e-07 0.0000000000000000e+00  -6.3304993946815446e-06 -2.3205244614622766e-07 0.0000000000000000e+00  -9.0507812992426689e-06 -3.2461720347006313e-07 0.0000000000000000e+00  -1.2359463928008761e-05 -4.3103533745242693e-07 0.0000000000000000e+00  -1.6490847127429869e-05 -5.5568282628488904e-07 0.0000000000000000e+00  -2.1746617929563317e-05 -7.0333968719372138e-07 0.0000000000000000e+00  -2.8519009696123969e-05 -8.7891281733278323e-07 0.0000000000000000e+00  -3.7319769716691792e-05 -1.0867104501065029e-06 0.0000000000000000e+00  -4.8816612668061766e-05 -1.3289230301416783e-06 0.0000000000000000e+00  -6.3878943341504386e-05 -1.6028487985629566e-06 0.0000000000000000e+00  -8.3631226497380922e-05 -1.8964898605819017e-06 0.0000000000000000e+00  -1.0949084649588716e-04 -2.1829235588794447e-06 0.0000000000000000e+00  -1.4307320896559013e-04 -2.4156780061101622e-06 0.0000000000000000e+00  -1.8551219091101972e-04 -2.5232048367210385e-06 0.0000000000000000e+00  -2.3482658983431433e-04 -2.3146026114725665e-06 0.0000000000000000e+00  0.0000000000000000e+00 0.0000000000000000e+00 0.0000000000000000e+00  -2.3991233572250774e-06 -9.2502861784017577e-08 0.0000000000000000e+00  -4.9418767993668096e-06 -1.8893416270032289e-07 0.0000000000000000e+00  -7.7848848426965657e-06 -2.9346002325377405e-07 0.0000000000000000e+00  -1.1110015666024329e-05 -4.1064406000807491e-07 0.0000000000000000e+00  -1.5139665885016171e-05 -5.4565866161289577e-07 0.0000000000000000e+00  -2.0155162124888580e-05 -7.0449321083001704e-07 0.0000000000000000e+00  -2.6519160069615689e-05 -8.9412346974272089e-07 0.0000000000000000e+00  -3.4702466512080723e-05 -1.1225549951160397e-06 0.0000000000000000e+00  -4.5314554373200218e-05 -1.3985593070141092e-06 0.0000000000000000e+00  -5.9134320747851469e-05 -1.7307690234342056e-06 0.0000000000000000e+00  -7.7131319073329543e-05 -2.1256009908942123e-06 0.0000000000000000e+00  -1.0045280871756930e-04 -2.5833530704176990e-06 0.0000000000000000e+00  -1.3031669057598429e-04 -3.0921509215008730e-06 0.0000000000000000e+00  -1.6767040863683512e-04 -3.6211329606545770e-06 0.0000000000000000e+00  -2.1232218918727449e-04 -4.1199791967925804e-06 0.0000000000000000e+00  -2.6109753517883485e-04 -4.5576035993004784e-06 0.0000000000000000e+00  0.0000000000000000e+00 0.0000000000000000e+00 0.0000000000000000e+00  -2.7059340014989348e-06 -1.0783588473904066e-07 0.0000000000000000e+00  -5.5670681855589407e-06 -2.2022908984507647e-07 0.0000000000000000e+00  -8.7523268854508774e-06 -3.4202370107095703e-07 0.0000000000000000e+00  -1.2458046453240936e-05 -4.7858337343788003e-07 0.0000000000000000e+00  -1.6924899826018133e-05 -6.3610829632539825e-07 0.0000000000000000e+00  -2.2458698235714490e-05 -8.2201935669955736e-07 0.0000000000000000e+00  -2.9456238849175800e-05 -1.0454259052241482e-06 0.0000000000000000e+00  -3.8436775967402722e-05 -1.3176659636540053e-06 0.0000000000000000e+00  -5.0078068248482899e-05 -1.6528283225770919e-06 0.0000000000000000e+00  -6.5252164298019611e-05 -2.0679755703169416e-06 0.0000000000000000e+00  -8.5048042240027654e-05 -2.5823908184227113e-06 0.0000000000000000e+00  -1.1075232187554544e-04 -3.2144649266040339e-06 0.0000000000000000e+00  -1.4373034188779231e-04 -3.9738470888216445e-06 0.0000000000000000e+00  -1.8510440006440384e-04 -4.8457041316150754e-06 0.0000000000000000e+00  -2.3507841113478160e-04 -5.7648868556559219e-06 0.0000000000000000e+00  -2.9179208441751240e-04 -6.5819476083380631e-06 0.0000000000000000e+00  0.0000000000000000e+00 0.0000000000000000e+00 0.0000000000000000e+00  -2.8556991828734178e-06 -1.1852900504016131e-07 0.0000000000000000e+00  -5.8650958046226730e-06 -2.4199403735056162e-07 0.0000000000000000e+00  -9.1949139049385602e-06 -3.7563842189163493e-07 0.0000000000000000e+00  -1.3038907223793652e-05 -5.2530198128049757e-07 0.0000000000000000e+00  -1.7635123290615401e-05 -6.9781960982370386e-07 0.0000000000000000e+00  -2.3287983085307417e-05 -9.0156316710046264e-07 0.0000000000000000e+00  -3.0397114356273912e-05 -1.1472152241512813e-06 0.0000000000000000e+00  -3.9494757683778638e-05 -1.4488891892329638e-06 0.0000000000000000e+00  -5.1292614031898992e-05 -1.8257031554434053e-06 0.0000000000000000e+00  -6.6736167697122728e-05 -2.3037795863530346e-06 0.0000000000000000e+00  -8.7057972047678464e-05 -2.9181529542571352e-06 0.0000000000000000e+00  -1.1380849455442852e-04 -3.7127718068573746e-06 0.0000000000000000e+00  -1.4882159789652324e-04 -4.7340064664829963e-06 0.0000000000000000e+00  -1.9404434650614554e-04 -6.0083922457093703e-06 0.0000000000000000e+00  -2.5114699236517354e-04 -7.4900634024085499e-06 0.0000000000000000e+00  -3.2087957403291087e-04 -8.9621789371317387e-06 0.0000000000000000e+00  0.0000000000000000e+00 0.0000000000000000e+00 0.0000000000000000e+00  -2.8504384629644701e-06 -1.2421480120003517e-07 0.0000000000000000e+00  -5.8402801455809419e-06 -2.5346244218958356e-07 0.0000000000000000e+00  -9.1197198219289325e-06 -3.9306199566233962e-07 0.0000000000000000e+00  -1.2862589520633335e-05 -5.4892441888546623e-07 0.0000000000000000e+00  -1.7282218139677984e-05 -7.2796951649161190e-07 0.0000000000000000e+00  -2.2652917857566928e-05 -9.3873571624475565e-07 0.0000000000000000e+00  -2.9340123189622854e-05 -1.1923423546851905e-06 0.0000000000000000e+00  -3.7843117278416691e-05 -1.5040750241055318e-06 0.0000000000000000e+00  -4.8855047741266228e-05 -1.8960203616594973e-06 0.0000000000000000e+00  -6.3344788732894178e-05 -2.4013155033873416e-06 0.0000000000000000e+00  -8.2662494094139384e-05 -3.0704348743770715e-06 0.0000000000000000e+00  -1.0866249719641826e-04 -3.9787334310021019e-06 0.0000000000000000e+00  -1.4382003167646247e-04 -5.2304175311040090e-06 0.0000000000000000e+00  -1.9129277674665836e-04 -6.9443877942405509e-06 0.0000000000000000e+00  -2.5486341399734425e-04 -9.1908680841325583e-06 0.0000000000000000e+00  -3.3874954768397337e-04 -1.1832817396390892e-05 0.0000000000000000e+00  0.0000000000000000e+00 0.0000000000000000e+00 0.0000000000000000e+00  -2.7051216501763736e-06 -1.2481435172703405e-07 0.0000000000000000e+00  -5.5242836938596205e-06 -2.5448086329910215e-07 0.0000000000000000e+00  -8.5785658358549774e-06 -3.9407174589236314e-07 0.0000000000000000e+00  -1.2006002310813506e-05 -5.4914655364739740e-07 0.0000000000000000e+00  -1.5973806086769800e-05 -7.2609447354246021e-07 0.0000000000000000e+00  -2.0696337961826259e-05 -9.3265258042067607e-07 0.0000000000000000e+00  -2.6462815692997900e-05 -1.1787865960741801e-06 0.0000000000000000e+00  -3.3681010527617235e-05 -1.4783140673880652e-06 0.0000000000000000e+00  -4.2946428834735285e-05 -1.8520249977764323e-06 0.0000000000000000e+00  -5.5150587027260337e-05 -2.3337144763806449e-06 0.0000000000000000e+00  -7.1645816036208532e-05 -2.9814829913944878e-06 0.0000000000000000e+00  -9.4484046235202487e-05 -3.8972738737696213e-06 0.0000000000000000e+00  -1.2673557629359219e-04 -5.2552358191966723e-06 0.0000000000000000e+00  -1.7286143398108258e-04 -7.3266168076213520e-06 0.0000000000000000e+00  -2.3907132675582874e-04 -1.0453432606843578e-05 0.0000000000000000e+00  -3.3364705637098466e-04 -1.4873260614677055e-05 0.0000000000000000e+00  0.0000000000000000e+00 0.0000000000000000e+00 0.0000000000000000e+00  -2.4458228358844653e-06 -1.2052996364781811e-07 0.0000000000000000e+00  -4.9725085822693889e-06 -2.4550054378417255e-07 0.0000000000000000e+00  -7.6629429120535212e-06 -3.7947321175910102e-07 0.0000000000000000e+00  -1.0607189140966536e-05 -5.2730948253164902e-07 0.0000000000000000e+00  -1.3908586214275555e-05 -6.9434699289360702e-07 0.0000000000000000e+00  -1.7694359878283231e-05 -8.8664277736367060e-07 0.0000000000000000e+00  -2.2134960458577940e-05 -1.1113999767417586e-06 0.0000000000000000e+00  -2.7479804335301707e-05 -1.3778894407983654e-06 0.0000000000000000e+00  -3.4123015663402987e-05 -1.6996693017054464e-06 0.0000000000000000e+00  -4.2722274398199653e-05 -2.1000733923467135e-06 0.0000000000000000e+00  -5.4407663757286401e-05 -2.6254942540735866e-06 0.0000000000000000e+00  -7.1133449533826692e-05 -3.3758339971974263e-06 0.0000000000000000e+00  -9.6233263300550564e-05 -4.5679634044510120e-06 0.0000000000000000e+00  -1.3520840207270136e-04 -6.6457270750289793e-06 0.0000000000000000e+00  -1.9667335023507417e-04 -1.0396682584253405e-05 0.0000000000000000e+00  -2.9331705021157180e-04 -1.6854513794812927e-05 0.0000000000000000e+00  0.0000000000000000e+00 0.0000000000000000e+00 0.0000000000000000e+00  -2.1063294582595711e-06 -1.1179466628935190e-07 0.0000000000000000e+00  -4.2571690178355279e-06 -2.2746740977465423e-07 0.0000000000000000e+00  -6.4933525433604403e-06 -3.5091326719817008e-07 0.0000000000000000e+00  -8.8510043262046426e-06 -4.8611664181442780e-07 0.0000000000000000e+00  -1.1359333572709386e-05 -6.3712118236783769e-07 0.0000000000000000e+00  -1.4039898675163745e-05 -8.0788854179083122e-07 0.0000000000000000e+00  -1.6910356098343283e-05 -1.0019767672057919e-06 0.0000000000000000e+00  -1.9999574586660081e-05 -1.2219999948755514e-06 0.0000000000000000e+00  -2.3388655205485174e-05 -1.4690796207729445e-06 0.0000000000000000e+00  -2.7306940432077026e-05 -1.7434991860728149e-06 0.0000000000000000e+00  -3.2338216564449704e-05 -2.0510525746270689e-06 0.0000000000000000e+00  -3.9835243010240004e-05 -2.4290041405369530e-06 0.0000000000000000e+00  -5.2698659362787246e-05 -3.0293890903185667e-06 0.0000000000000000e+00  -7.6707648558328281e-05 -4.3443944777588209e-06 0.0000000000000000e+00  -1.2242690790274847e-04 -7.6826303084787271e-06 0.0000000000000000e+00  -2.0729044116292290e-04 -1.5709158289044437e-05 0.0000000000000000e+00  0.0000000000000000e+00 0.0000000000000000e+00 0.0000000000000000e+00  -1.7233869457810650e-06 -9.9188309103180839e-08 0.0000000000000000e+00  -3.4572739308055046e-06 -2.0162896506865471e-07 0.0000000000000000e+00  -5.2030434542771401e-06 -3.1051810112854212e-07 0.0000000000000000e+00  -6.9453095189201355e-06 -4.2899126356056699e-07 0.0000000000000000e+00  -8.6404174598640136e-06 -5.5994346851375413e-07 0.0000000000000000e+00  -1.0201659076159650e-05 -7.0558337556100571e-07 0.0000000000000000e+00  -1.1481206478180266e-05 -8.6643015971086701e-07 0.0000000000000000e+00  -1.2251443040640787e-05 -1.0391768105997064e-06 0.0000000000000000e+00  -1.2195156365177846e-05 -1.2123657662422672e-06 0.0000000000000000e+00  -1.0929992313012986e-05 -1.3582921032411516e-06 0.0000000000000000e+00  -8.1278968650192629e-06 -1.4201100955023162e-06 0.0000000000000000e+00  -3.8646652699795840e-06 -1.2998532501420659e-06 0.0000000000000000e+00  5.1860281211472895e-07 -8.8488807056780241e-07 0.0000000000000000e+00  5.1610171363425762e-07 -2.7095640172597940e-07 0.0000000000000000e+00  -1.5087425301211911e-05 -7.1384153333086996e-07 0.0000000000000000e+00  -6.8084048669373904e-05 -6.8636874913798431e-06 0.0000000000000000e+00  0.0000000000000000e+00 0.0000000000000000e+00 0.0000000000000000e+00  -1.3311183025823997e-06 -8.3346548976008629e-08 0.0000000000000000e+00  -2.6465470596898788e-06 -1.6931920435543523e-07 0.0000000000000000e+00  -3.9174901817749539e-06 -2.6046955821054136e-07 0.0000000000000000e+00  -5.0888853388074372e-06 -3.5926273211654433e-07 0.0000000000000000e+00  -6.0597465797264166e-06 -4.6789695543887394e-07 0.0000000000000000e+00  -6.6547593334655903e-06 -5.8785914432766457e-07 0.0000000000000000e+00  -6.5826342585974156e-06 -7.1885718127106993e-07 0.0000000000000000e+00  -5.3761591082001587e-06 -8.5625376328532490e-07 0.0000000000000000e+00  -2.3105552816916514e-06 -9.8486986419646361e-07 0.0000000000000000e+00  3.6941083756662769e-06 -1.0640986025244152e-06 0.0000000000000000e+00  1.4150269562432702e-05 -9.9304403942716003e-07 0.0000000000000000e+00  3.0937307433861604e-05 -5.3361453906451413e-07 0.0000000000000000e+00  5.5740943556466959e-05 8.3818094936712971e-07 0.0000000000000000e+00  8.8050346556885361e-05 4.1216155379534520e-06 0.0000000000000000e+00  1.1927779669146660e-04 1.0396864012953074e-05 0.0000000000000000e+00  1.2114640683596681e-04 1.3547465683457973e-05 0.0000000000000000e+00  0.0000000000000000e+00 0.0000000000000000e+00 0.0000000000000000e+00  -9.5555570401255223e-07 -6.4896523632362458e-08 0.0000000000000000e+00  -1.8812576385674502e-06 -1.3180722349450726e-07 0.0000000000000000e+00  -2.7327806062691058e-06 -2.0270300717212716e-07 0.0000000000000000e+00  -3.4355008942070039e-06 -2.7955624733161445e-07 0.0000000000000000e+00  -3.8605192387471917e-06 -3.6431704507223264e-07 0.0000000000000000e+00  -3.7877401633535438e-06 -4.5884566637357860e-07 0.0000000000000000e+00  -2.8470226031235965e-06 -5.6470526960005532e-07 0.0000000000000000e+00  -4.2322885454199546e-07 -6.8245131925934544e-07 0.0000000000000000e+00  4.4965287768759052e-06 -8.0909199538828433e-07 0.0000000000000000e+00  1.3563535497139726e-05 -9.2914479080890564e-07 0.0000000000000000e+00  2.9426491841548587e-05 -9.8439575680560659e-07 0.0000000000000000e+00  5.6197903197179696e-05 -7.7693159255833401e-07 0.0000000000000000e+00  9.9821318154070734e-05 3.2319533755277366e-07 0.0000000000000000e+00  1.6742224179461821e-04 4.2093061314011023e-06 0.0000000000000000e+00  2.6215877286069614e-04 1.6448222459588754e-05 0.0000000000000000e+00  3.5583159480522583e-04 5.7036842852682648e-05 0.0000000000000000e+00  0.0000000000000000e+00 0.0000000000000000e+00 0.0000000000000000e+00  -6.1051012384668979e-07 -4.4442147720223485e-08 0.0000000000000000e+00  -1.1907087279742932e-06 -9.0273608427053312e-08 0.0000000000000000e+00  -1.6978018790854536e-06 -1.3888508854842481e-07 0.0000000000000000e+00  -2.0621566349537705e-06 -1.9177372140745427e-07 0.0000000000000000e+00  -2.1651748805302185e-06 -2.5070479108566251e-07 0.0000000000000000e+00  -1.8036985736479895e-06 -3.1812599215763698e-07 0.0000000000000000e+00  -6.3006695101460219e-07 -3.9821988318666846e-07 0.0000000000000000e+00  1.9516593284312310e-06 -4.9951276760507585e-07 0.0000000000000000e+00  6.9688694879225055e-06 -6.4110702436864044e-07 0.0000000000000000e+00  1.6207926519235651e-05 -8.6669028150330941e-07 0.0000000000000000e+00  3.2801918227024621e-05 -1.2724919410736160e-06 0.0000000000000000e+00  6.2270515677602465e-05 -2.0485826481604631e-06 0.0000000000000000e+00  1.1426112717300724e-04 -3.4803380916723601e-06 0.0000000000000000e+00  2.0496387515813838e-04 -5.6654408520953822e-06 0.0000000000000000e+00  3.5793272163839367e-04 -7.3323087309369931e-06 0.0000000000000000e+00  5.9192003384544317e-04 -2.6605458250489241e-06 0.0000000000000000e+00  0.0000000000000000e+00 0.0000000000000000e+00 0.0000000000000000e+00  -2.9599861107017419e-07 -2.2592924073976210e-08 0.0000000000000000e+00  -5.7327698618442039e-07 -4.5903815967834956e-08 0.0000000000000000e+00  -8.0584544670866840e-07 -7.0669147495877241e-08 0.0000000000000000e+00  -9.5183739443750676e-07 -9.7737873947550335e-08 0.0000000000000000e+00  -9.4005074486965577e-07 -1.2825733262790250e-07 0.0000000000000000e+00  -6.4765849615296024e-07 -1.6417209832299609e-07 0.0000000000000000e+00  1.3870342780206694e-07 -2.0958652570233024e-07 0.0000000000000000e+00  1.7933896513461715e-06 -2.7454709199967243e-07 0.0000000000000000e+00  4.9831524906066562e-06 -3.8575647770153589e-07 0.0000000000000000e+00  1.0917918154195518e-05 -6.1761597007793014e-07 0.0000000000000000e+00  2.1832975512716233e-05 -1.1839011254312208e-06 0.0000000000000000e+00  4.1886909129705266e-05 -2.7096634911788420e-06 0.0000000000000000e+00  7.8605447139965703e-05 -7.0107067943302788e-06 0.0000000000000000e+00  1.4398213045759199e-04 -1.9048149146205495e-05 0.0000000000000000e+00  2.4942746780409704e-04 -4.9881417238873489e-05 0.0000000000000000e+00  3.7951155890940088e-04 -1.1116847070570651e-04 0.0000000000000000e+00  0.0000000000000000e+00 0.0000000000000000e+00 0.0000000000000000e+00  0.0000000000000000e+00 0.0000000000000000e+00 0.0000000000000000e+00  0.0000000000000000e+00 0.0000000000000000e+00 0.0000000000000000e+00  0.0000000000000000e+00 0.0000000000000000e+00 0.0000000000000000e+00  0.0000000000000000e+00 0.0000000000000000e+00 0.0000000000000000e+00  0.0000000000000000e+00 0.0000000000000000e+00 0.0000000000000000e+00