<?xml version="1.0"?>
<VTKFile type="UnstructuredGrid"  version="0.1"  >
<UnstructuredGrid>
<Piece  NumberOfPoints="289" NumberOfCells="512">
<Points>
<DataArray  type="Float64"  NumberOfComponents="3"  format="ascii">0 0 0  0.0625 0 0  0.125 0 0  0.1875 0 0  0.25 0 0  0.3125 0 0  0.375 0 0  0.4375 0 0  0.5 0 0  0.5625 0 0  0.625 0 0  0.6875 0 0  0.75 0 0  0.8125 0 0  0.875 0 0  0.9375 0 0  1 0 0  0 0.0625 0  0.06255789255713495 0.06247402965822586 0  0.1251184183595037 0.06244757030936068 0  0.1876843783750918 0.06242016216525833 0  0.2502589020168925 0.0623914303020526 0  0.3128456512844668 0.06236113906021106 0  0.3754490821334364 0.06232925910650652 0  0.4380748070777131 0.06229604610833554 0  0.5007301451504675 0.0622621219389027 0  0.5634250461995072 0.06222853347228627 0  0.6261738307074064 0.06219673274990686 0  0.6889988649975565 0.06216835686161194 0  0.7519392180279894 0.06214452924947575 0  0.8150731635713836 0.06212395319024197 0  0.8785820624250693 0.06209752873671737 0  0.942947334410813 0.06203129726582642 0  1.009621929964411 0.06180464457570204 0  0 0.125 0  0.06261314776209818 0.1249485214863849 0  0.125231431766104 0.1248960210053187 0  0.1878603164686556 0.1248415306297062 0  0.2505059127932002 0.1247842424337019 0  0.3131753789925045 0.124723614800034 0  0.3758774292792759 0.1246595084340016 0  0.4386230233703843 0.1245923543448267 0  0.5014263663437198 0.124523343623536 0  0.5643064687786712 0.1244546043956921 0  0.6272897791115308 0.1243892868991195 0  0.6904149641803493 0.1243314044314225 0  0.7537420617085658 0.1242851810985248 0  0.817370168560753 0.1242536380973212 0  0.8814689707684875 0.124236819293088 0  0.9463167773342848 0.1242345318800738 0  1.012240181535296 0.1242815654811452 0  0 0.1875 0  0.06266328023894902 0.1874240196256407 0  0.1253339177829916 0.1873464053178924 0  0.1880197356435532 0.1872655925929997 0  0.2507294806415404 0.187180230604876 0  0.3134733924138545 0.1870893327857054 0  0.3762639148185293 0.1869924806619005 0  0.4391166293829955 0.1868900934936745 0  0.502051528285923 0.1867837650806639 0  0.5650948067592297 0.1866766440804534 0  0.628281446425607 0.1865737852344516 0  0.6916589453630024 0.1864823115328876 0  0.7552924003260855 0.1864110816185468 0  0.8192698427347889 0.1863693079076532 0  0.8837012830634082 0.1863629918197686 0  0.9486877904809227 0.1863857351504347 0  1.014199184814044 0.1863884998445173 0  0 0.25 0  0.06270609894830935 0.2499011457179179 0  0.1254213613473905 0.2497999427156144 0  0.188155518114737 0.2496941117878946 0  0.2509194367690555 0.2495816050105728 0  0.3137258183136039 0.24946078444294 0  0.3765900595837767 0.2493306825954489 0  0.4395313569544826 0.2491913754244786 0  0.5025741377378861 0.2490444954269526 0  0.565749897567385 0.2488938974259243 0  0.6290994485525284 0.2487464501367193 0  0.6926753165579513 0.2486128411013339 0  0.7565432437456958 0.2485081162981174 0  0.8207797277268026 0.2484513737849879 0  0.8854580097959889 0.2484635229537817 0  0.9506073749532965 0.2485614201603689 0  1.016127391739556 0.2487480379005096 0  0 0.3125 0  0.06273982861136632 0.3123806211882581 0  0.1254901091970418 0.3122580704265506 0  0.1882619180085396 0.3121292237309113 0  0.2510675982552598 0.3119911539892051 0  0.3139215387448765 0.3118413092829685 0  0.3768411392428628 0.3116778012390588 0  0.4398480427050238 0.3114998579267819 0  0.5029697137817393 0.3113085084313322 0  0.5662414049783506 0.3111075744665288 0  0.6297084156558079 0.310905035038742 0  0.6934281885166643 0.3107147754536113 0  0.757470976671011 0.3105585794349845 0  0.8219162566323845 0.3104678891394343 0  0.8868397790282276 0.3104842557630808 0  0.9522849831348401 0.3106565968457727 0  1.018219701695981 0.3110328860515725 0  0 0.375 0  0.06276319985905701 0.3748632712574201 0  0.1255375590560864 0.3747224587236445 0  0.1883348668114944 0.3745734782592659 0  0.2511682125735258 0.3744123419174682 0  0.3140527933802873 0.3742352938231225 0  0.3770069313961271 0.3740390745112033 0  0.4400534043116544 0.3738213921098048 0  0.5032212086433682 0.3735817136978534 0  0.5665478690466116 0.3733225357014759 0  0.6300823265105583 0.3730513402381936 0  0.6938881898733625 0.3727834663846269 0  0.7580465763547098 0.3725460477929975 0  0.822656802288217 0.3723828379855084 0  0.8878321574279828 0.3723589262095902 0  0.9536886693603963 0.3725628756460382 0  1.02033156576005 0.3731020368738462 0  0 0.4375 0  0.06277550292311226 0.4373500037465377 0  0.1255622737300408 0.4371949744626339 0  0.1883721613658904 0.4370298018383296 0  0.2512182392630352 0.436849297836656 0  0.3141155766655495 0.4366482370512359 0  0.3770822373530318 0.4364215220300346 0  0.4401406449177799 0.4361645667722639 0  0.5033195177901394 0.4358740508098549 0  0.5666566611388995 0.4355492891474292 0  0.6302029891332074 0.4351945982863243 0  0.6940281848819929 0.4348232064504321 0  0.7582282706304646 0.4344633858813509 0  0.8229349086730117 0.4341673472923133 0  0.8883255680785527 0.4340225161709239 0  0.9546339756981178 0.4341624034389282 0  1.022165529861453 0.4347705277619052 0  0 0.5 0  0.06277660132993894 0.4998417571915397 0  0.1255640127935042 0.499677579470839 0  0.1883735238798963 0.4995013529306089 0  0.2512174591817699 0.4993066453375133 0  0.3141098354757316 0.4990865951338791 0  0.377067236940571 0.4988338887555584 0  0.4401100786077434 0.4985409136867058 0  0.5032645535137502 0.4982002506230668 0  0.566565775801776 0.4978058042990742 0  0.6300629841451901 0.497355109205839 0  0.6938281838947828 0.4968537339356134 0  0.7579702116144569 0.4963232623233328 0  0.8226565783096064 0.4958148589618788 0  0.8881449479145995 0.4954300650906254 0  0.9548247780814044 0.4953470145999824 0  1.023272772027558 0.4958410055197782 0  0 0.5625 0  0.06276690308178584 0.5623394165780007 0  0.125543674926785 0.5621721577380653 0  0.1883405184075867 0.5619912538125025 0  0.2511683800165237 0.5617891346885391 0  0.3140394091921162 0.5615573230246144 0  0.3769675761794001 0.5612861409905852 0  0.4399696140540157 0.560964481480777 0  0.5030666234706787 0.560579766542437 0  0.5662870269608454 0.5601183644089335 0  0.6296722325906658 0.559567041722059 0  0.6932875840691298 0.5589166439628604 0  0.757243131062847 0.5581703886573808 0  0.8217311974767358 0.5573611963193089 0  0.8870889181806869 0.5565848289980276 0  0.9538901589609914 0.5560539156314834 0  1.023064531761279 0.5561611780413477 0  0 0.625 0  0.06274728901413833 0.6248437012927588 0  0.1255031471213397 0.6246802786638197 0  0.1882763084285882 0.6245022038169202 0  0.2510758935453431 0.6243010691737461 0  0.3139116034157216 0.6240670700503732 0  0.376793948872956 0.6237883946697853 0  0.4397346130324593 0.6234505039637599 0  0.50274720975158 0.6230353185975634 0  0.5658490987696926 0.6225204292824108 0  0.6290658302612753 0.6218787054830052 0  0.6924417839727791 0.6210793446645156 0  0.7560646084117729 0.6200931053458809 0  0.8201181828148189 0.6189086706644646 0  0.8849874892525041 0.6175762416979432 0  0.9514370461386075 0.6163057505442716 0  1.020858643820623 0.6156226938409067 0  0 0.6875 0  0.06271900300055497 0.6873550379018788 0  0.1254450674801644 0.6872029215527404 0  0.1881852564500913 0.6870360108662956 0  0.2509466597841266 0.6868455698062484 0  0.3137363004796028 0.6866210673133516 0  0.3765609052159077 0.6863492721920358 0  0.4394264963150515 0.686013035745268 0  0.5023378309884207 0.6855896252623437 0  0.5652979746602104 0.6850484478073898 0  0.6283091059168437 0.6843480400181541 0  0.6913779386807628 0.6834324913763647 0  0.7545351719893543 0.6822287332626223 0  0.8178929992053723 0.6806510124111353 0  0.8817945668896774 0.6786369017514641 0  0.9471358020987418 0.6762972903925674 0  1.015853302372806 0.6743061344412667 0  0 0.75 0  0.06268351661606011 0.7498734382566153 0  0.1253725272722163 0.749740205202743 0  0.1880724031235213 0.7495931140829517 0  0.2507882582068726 0.7494237877557864 0  0.3135246172742846 0.7492218594265583 0  0.3762847783014537 0.7489738796431202 0  0.4390696505537544 0.7486617452958207 0  0.5018757345987492 0.7482603643413919 0  0.5646918022447724 0.747734096695345 0  0.6274939510706058 0.7470312156098849 0  0.6902399061446003 0.746075139643233 0  0.7528687094892788 0.7447505121270771 0  0.8153311149589546 0.7428824415536597 0  0.8777398889764325 0.7402171292595205 0  0.9409138163424492 0.7364948605105295 0  1.007333676219192 0.7323260228104531 0  0 0.8125 0  0.06264238974868308 0.8123984085116056 0  0.1252887606720656 0.8122911795720554 0  0.1879429124164813 0.8121721986486637 0  0.2506082466674001 0.8120342322249605 0  0.3132873190426363 0.8118681507274484 0  0.3759809909565713 0.8116618297919619 0  0.4386868306441282 0.8113985113567631 0  0.5013961091169881 0.8110542657294701 0  0.5640881603049849 0.8105939385224664 0  0.6267198351468896 0.8099644670621284 0  0.68920617872252 0.8090833856745487 0  0.7513873298948024 0.8078177898536466 0  0.8129833530728089 0.8059423761726217 0  0.873592149215582 0.8030480294503185 0  0.9331028156020015 0.7983405371599938 0  0.9954981191587444 0.7903886665945926 0  0 0.875 0  0.06259715437333316 0.8749289141822179 0  0.1251968868166485 0.8748537373295163 0  0.1878016091878778 0.8747700107647409 0  0.250413363282719 0.8746724049327415 0  0.3130334174752571 0.8745541017402345 0  0.3756614996049154 0.8744059040320127 0  0.4382943140406504 0.8742148813228277 0  0.5009226254508909 0.87396223678698 0  0.5635253836489383 0.8736198630960286 0  0.6260575270080937 0.8731446680026989 0  0.6884238491751642 0.8724690033289182 0  0.7504215051927335 0.8714836941313282 0  0.8116122377478905 0.8700036517458923 0  0.8710455288555105 0.8676768091888419 0  0.9267166771734908 0.8636631134293921 0  0.9747951602873665 0.8553606491274449 0  0 0.9375 0  0.06254924662037441 0.9374634188210532 0  0.1250997657332789 0.9374246872379495 0  0.1876527363332804 0.9373814550741201 0  0.2502091288025301 0.937330896286523 0  0.3127694801345297 0.9372693676021456 0  0.3753334653988912 0.9371919114291344 0  0.4378990596353415 0.937
[...]
<PointData  Vectors="f_54"> 
<DataArray  type="Float64"  Name="f_54"  NumberOfComponents="3" format="ascii">0.0000000000000000e+00 0.0000000000000000e+00 0.0000000000000000e+00  0.0000000000000000e+00 0.0000000000000000e+00 0.0000000000000000e+00  0.0000000000000000e+00 0.0000000000000000e+00 0.0000000000000000e+00  0.0000000000000000e+00 0.0000000000000000e+00 0.0000000000000000e+00  0.0000000000000000e+00 0.0000000000000000e+00 0.0000000000000000e+00  0.0000000000000000e+00 0.0000000000000000e+00 0.0000000000000000e+00  0.0000000000000000e+00 0.0000000000000000e+00 0.0000000000000000e+00  0.0000000000000000e+00 0.0000000000000000e+00 0.0000000000000000e+00  0.0000000000000000e+00 0.0000000000000000e+00 0.0000000000000000e+00  0.0000000000000000e+00 0.0000000000000000e+00 0.0000000000000000e+00  0.0000000000000000e+00 0.0000000000000000e+00 0.0000000000000000e+00  0.0000000000000000e+00 0.0000000000000000e+00 0.0000000000000000e+00  0.0000000000000000e+00 0.0000000000000000e+00 0.0000000000000000e+00  0.0000000000000000e+00 0.0000000000000000e+00 0.0000000000000000e+00  0.0000000000000000e+00 0.0000000000000000e+00 0.0000000000000000e+00  0.0000000000000000e+00 0.0000000000000000e+00 0.0000000000000000e+00  0.0000000000000000e+00 0.0000000000000000e+00 0.0000000000000000e+00  0.0000000000000000e+00 0.0000000000000000e+00 0.0000000000000000e+00  -4.3717790312493310e-06 -2.4882113828175828e-07 0.0000000000000000e+00  -8.8602943953334707e-06 -4.9818922622242454e-07 0.0000000000000000e+00  -1.3584204411099406e-05 -7.4785824993339826e-07 0.0000000000000000e+00  -1.8658368296872417e-05 -9.9549099691836666e-07 0.0000000000000000e+00  -2.4190513058997668e-05 -1.2353950259035653e-06 0.0000000000000000e+00  -3.0275896627494874e-05 -1.4570312286762446e-06 0.0000000000000000e+00  -3.6989228173697589e-05 -1.6433073240347251e-06 0.0000000000000000e+00  -4.4373152088394101e-05 -1.7687724535436474e-06 0.0000000000000000e+00  -5.2422905509409798e-05 -1.7979610199271378e-06 0.0000000000000000e+00  -6.1067845993443176e-05 -1.6841823918286175e-06 0.0000000000000000e+00  -7.0154148120214342e-05 -1.3685524814934143e-06 0.0000000000000000e+00  -7.9445200309400749e-05 -7.7629879360307406e-07 0.0000000000000000e+00  -8.8699801800584598e-05 2.0396791900548127e-07 0.0000000000000000e+00  -9.8052711466373895e-05 1.8167269711307838e-06 0.0000000000000000e+00  -1.0960523910755342e-04 4.8551088412590046e-06 0.0000000000000000e+00  -1.3470202817778421e-04 1.2593295639686713e-05 0.0000000000000000e+00  0.0000000000000000e+00 0.0000000000000000e+00 0.0000000000000000e+00  -8.6313832278013409e-06 -4.9733901271449764e-07 0.0000000000000000e+00  -1.7499081695112436e-05 -9.9679515496640141e-07 0.0000000000000000e+00  -2.6843633359482458e-05 -1.4989760875508058e-06 0.0000000000000000e+00  -3.6899502967673926e-05 -2.0004590795797602e-06 0.0000000000000000e+00  -4.7889233980438250e-05 -2.4912886537038094e-06 0.0000000000000000e+00  -6.0013609953840186e-05 -2.9519367123814327e-06 0.0000000000000000e+00  -7.3436230481090044e-05 -3.3496966107412395e-06 0.0000000000000000e+00  -8.8260778612794504e-05 -3.6346985370184702e-06 0.0000000000000000e+00  -1.0449926010994470e-04 -3.7361060855397981e-06 0.0000000000000000e+00  -1.2202977041221981e-04 -3.5596212136712299e-06 0.0000000000000000e+00  -1.4054298929871279e-04 -2.9881787863999871e-06 0.0000000000000000e+00  -1.5947690104874869e-04 -1.8887099083329849e-06 0.0000000000000000e+00  -1.7793285728207614e-04 -1.3048947149754547e-07 0.0000000000000000e+00  -1.9451434089022646e-04 2.3643652288863144e-06 0.0000000000000000e+00  -2.0671558962190957e-04 5.4247013267252896e-06 0.0000000000000000e+00  -2.0765798372375443e-04 7.6191433059910399e-06 0.0000000000000000e+00  0.0000000000000000e+00 0.0000000000000000e+00 0.0000000000000000e+00  -1.2655739902105594e-05 -7.4375110943371398e-07 0.0000000000000000e+00  -2.5671243151991382e-05 -1.4931296570097581e-06 0.0000000000000000e+00  -3.9413413292474080e-05 -2.2517122831296390e-06 0.0000000000000000e+00  -5.4243594412613202e-05 -3.0174752874702398e-06 0.0000000000000000e+00  -7.0510758591748880e-05 -3.7791663831911096e-06 0.0000000000000000e+00  -8.8538856698478893e-05 -4.5116942178637526e-06 0.0000000000000000e+00  -1.0860579876458486e-04 -5.1703467092906909e-06 0.0000000000000000e+00  -1.3091106057727366e-04 -5.6839193309660499e-06 0.0000000000000000e+00  -1.5552831862095988e-04 -5.9474103355431632e-06 0.0000000000000000e+00  -1.8233850219759177e-04 -5.8160680627441079e-06 0.0000000000000000e+00  -2.1093606516930783e-04 -5.1046913244059480e-06 0.0000000000000000e+00  -2.4049332513556478e-04 -3.6000877046005675e-06 0.0000000000000000e+00  -2.6954302566341369e-04 -1.1027104777930914e-06 0.0000000000000000e+00  -2.9556719357300186e-04 2.4688523864848159e-06 0.0000000000000000e+00  -3.1409708011568676e-04 6.8431175457020058e-06 0.0000000000000000e+00  -3.1674073990123916e-04 1.0968273877166006e-05 0.0000000000000000e+00  0.0000000000000000e+00 0.0000000000000000e+00 0.0000000000000000e+00  -1.6318607189278974e-05 -9.8432478336501704e-07 0.0000000000000000e+00  -3.3123939329145148e-05 -1.9804492735951919e-06 0.0000000000000000e+00  -5.0913595876422503e-05 -2.9978733486111284e-06 0.0000000000000000e+00  -7.0184049145975949e-05 -4.0395762817843246e-06 0.0000000000000000e+00  -9.1425137293521535e-05 -5.0975309194415718e-06 0.0000000000000000e+00  -1.1510723107506548e-04 -6.1466518403846704e-06 0.0000000000000000e+00  -1.4165762757717063e-04 -7.1366491473552381e-06 0.0000000000000000e+00  -1.7142186110354776e-04 -7.9814282121350389e-06 0.0000000000000000e+00  -2.0460451892013339e-04 -8.5462076489699715e-06 0.0000000000000000e+00  -2.4118253852386314e-04 -8.6338272424251823e-06 0.0000000000000000e+00  -2.8078091247815397e-04 -7.9745179744739512e-06 0.0000000000000000e+00  -3.2249379330680044e-04 -6.2289654186216761e-06 0.0000000000000000e+00  -3.6461844526427791e-04 -3.0247488172408280e-06 0.0000000000000000e+00  -4.0424193717886284e-04 1.9368822008525512e-06 0.0000000000000000e+00  -4.3660694105643268e-04 8.6467701864918365e-06 0.0000000000000000e+00  -4.5435703032088422e-04 1.6373969986046773e-05 0.0000000000000000e+00  0.0000000000000000e+00 0.0000000000000000e+00 0.0000000000000000e+00  -1.9491366441922382e-05 -1.2127072226117325e-06 0.0000000000000000e+00  -3.9597646630528068e-05 -2.4464391431084213e-06 0.0000000000000000e+00  -6.0949310584327356e-05 -3.7200908233692111e-06 0.0000000000000000e+00  -8.4184912980532814e-05 -5.0460983976297799e-06 0.0000000000000000e+00  -1.0994979112515988e-04 -6.4256044351945601e-06 0.0000000000000000e+00  -1.3888658320599740e-04 -7.8414209070893287e-06 0.0000000000000000e+00  -1.7161333798918052e-04 -9.2477440375669632e-06 0.0000000000000000e+00  -2.0868368103352906e-04 -1.0555415195595139e-05 0.0000000000000000e+00  -2.5052196508210811e-04 -1.1611595029134207e-05 0.0000000000000000e+00  -2.9732466224153430e-04 -1.2173486227837622e-05 0.0000000000000000e+00  -3.4891750948302372e-04 -1.1878162476917017e-05 0.0000000000000000e+00  -4.0455606678247742e-04 -1.0216396410891322e-05 0.0000000000000000e+00  -4.6265602475959833e-04 -6.5302664338050121e-06 0.0000000000000000e+00  -5.2044476844513880e-04 -7.4556196123004873e-08 0.0000000000000000e+00  -5.7356470836893115e-04 9.7926709731030355e-06 0.0000000000000000e+00  -6.1580753098583170e-04 2.3214580236808174e-05 0.0000000000000000e+00  0.0000000000000000e+00 0.0000000000000000e+00 0.0000000000000000e+00  -2.2045676746124576e-05 -1.4195750236020164e-06 0.0000000000000000e+00  -4.4831060878205598e-05 -2.8723603957265245e-06 0.0000000000000000e+00  -6.9117067317527443e-05 -4.3901362367382759e-06 0.0000000000000000e+00  -9.5687097005941441e-05 -5.9995902812717637e-06 0.0000000000000000e+00  -1.2535328064768533e-04 -7.7179426604825542e-06 0.0000000000000000e+00  -1.5895466087221787e-04 -9.5458802256305052e-06 0.0000000000000000e+00  -1.9734253920218630e-04 -1.1456167185691030e-05 0.0000000000000000e+00  -2.4134631946470754e-04 -1.3375583958660529e-05 0.0000000000000000e+00  -2.9171096963218188e-04 -1.5156967062732987e-05 0.0000000000000000e+00  -3.4899522562041824e-04 -1.6537388516946514e-05 0.0000000000000000e+00  -4.1341907979875576e-04 -1.7078885897932020e-05 0.0000000000000000e+00  -4.8465225497338439e-04 -1.6091978266983417e-05 0.0000000000000000e+00  -5.6154614536989018e-04 -1.2554038957360314e-05 0.0000000000000000e+00  -6.4183588751814014e-04 -5.0605518519214662e-06 0.0000000000000000e+00  -7.2188455529253071e-04 8.1115557752028853e-06 0.0000000000000000e+00  -7.9661280176797496e-04 2.8712859331474142e-05 0.0000000000000000e+00  0.0000000000000000e+00 0.0000000000000000e+00 0.0000000000000000e+00  -2.3858319327257969e-05 -1.5927673806859286e-06 0.0000000000000000e+00  -4.8570614354216877e-05 -3.2331797176509120e-06 0.0000000000000000e+00  -7.5018554635786143e-05 -4.9687288289876797e-06 0.0000000000000000e+00  -1.0412563019457422e-04 -6.8446836197391183e-06 0.0000000000000000e+00  -1.3687441620975011e-04 -8.9012567270123379e-06 0.0000000000000000e+00  -1.7431726594394040e-04 -1.1168032077075288e-05 0.0000000000000000e+00  -2.1757553535475317e-04 -1.3653596774545343e-05 0.0000000000000000e+00  -2.6781974057679171e-04 -1.6326954400823332e-05 0.0000000000000000e+00  -3.2621958927946733e-04 -1.9085089997051997e-05 0.0000000000000000e+00  -3.9384932450787260e-04 -2.1697773205535025e-05 0.0000000000000000e+00  -4.7153248108809545e-04 -2.3716587020410235e-05 0.0000000000000000e+00  -5.5961599520007867e-04 -2.4332322459657327e-05 0.0000000000000000e+00  -6.5768527760270165e-04 -2.2169868192716311e-05 0.0000000000000000e+00  -7.6427790626110929e-04 -1.5036252511847891e-05 0.0000000000000000e+00  -8.7671614893446929e-04 3.0137399855900506e-07 0.0000000000000000e+00  -9.9120762531568034e-04 2.8162593911549151e-05 0.0000000000000000e+00  0.0000000000000000e+00 0.0000000000000000e+00 0.0000000000000000e+00  -2.4818321291152000e-05 -1.7180275136175394e-06 0.0000000000000000e+00  -5.0584892720008169e-05 -3.4989826055203842e-06 0.0000000000000000e+00  -7.8282629113180354e-05 -5.4074294758319943e-06 0.0000000000000000e+00  -1.0895937438132429e-04 -7.5100071121084775e-06 0.0000000000000000e+00  -1.4375932911258962e-04 -9.8753298806761128e-06 0.0000000000000000e+00  -1.8395120414873485e-04 -1.2571828244363458e-05 0.0000000000000000e+00  -2.3094885041104310e-04 -1.5661536349878771e-05 0.0000000000000000e+00  -2.8631648778323557e-04 -1.9186016520608068e-05 0.0000000000000000e+00  -3.5174525723658548e-04 -2.3137178539409282e-05 0.0000000000000000e+00  -4.2898091306116425e-04 -2.7399440642952973e-05 0.0000000000000000e+00  -5.1967648116529701e-04 -3.1638722556115578e-05 0.0000000000000000e+00  -6.2514653622498838e-04 -3.5097042747161462e-05 0.0000000000000000e+00  -7.4602976132500038e-04 -3.6233517302775686e-05 0.0000000000000000e+00  -8.8195170222363402e-04 -3.2155856596518861e-05 0.0000000000000000e+00  -1.0314215626914518e-03 -1.7858196745297958e-05 0.0000000000000000e+00  -1.1922679588944867e-03 1.4594272613510606e-05 0.0000000000000000e+00  0.0000000000000000e+00 0.0000000000000000e+00 0.0000000000000000e+00  -2.4836122595104123e-05 -1.7804076499920823e-06 0.0000000000000000e+00  -5.0683591600052145e-05 -3.6378430540221951e-06 0.0000000000000000e+00  -7.8595240147177455e-05 -5.6530567821953066e-06 0.0000000000000000e+00  -1.0971343800976889e-04 -7.9141270928590648e-06 0.0000000000000000e+00  -1.4531780793778648e-04 -1.0520076053019980e-05 0.0000000000000000e+00  -1.8687511332170245e-04 -1.3583959296558856e-05 0.0000000000000000e+00  -2.3608901172452297e-04 -1.7234263851272348e-05 0.0000000000000000e+00  -2.9494312790610301e-04 -2.1611797173062726e-05 0.0000000000000000e+00  -3.6572333541889582e-04 -2.6855591166268806e-05 0.0000000000000000e+00  -4.5099290380893519e-04 -3.3063261470031172e-05 0.0000000000000000e+00  -5.5347766546241675e-04 -4.0193694963329275e-05 0.0000000000000000e+00  -6.7580557542423324e-04 -4.7843525074475919e-05 0.0000000000000000e+00  -8.2006689810373401e-04 -5.4762047084042376e-05 0.0000000000000000e+00  -9.8729786608975118e-04 -5.7883386681907090e-05 0.0000000000000000e+00  -1.1773503999733489e-03 -5.0667662748737856e-05 0.0000000000000000e+00  -1.3900989876340073e-03 -2.0840792396981835e-05 0.0000000000000000e+00  0.0000000000000000e+00 0.0000000000000000e+00 0.0000000000000000e+00  -2.3854140191759110e-05 -1.7662661657726553e-06 0.0000000000000000e+00  -4.8739810009314297e-05 -3.6200542837444595e-06 0.0000000000000000e+00  -7.5735734671293750e-05 -5.6546280535202960e-06 0.0000000000000000e+00  -1.0603279521974071e-04 -7.9758904641599980e-06 0.0000000000000000e+00  -1.4099822524815030e-04 -1.0710073440321079e-05 0.0000000000000000e+00  -1.8224952886921681e-04 -1.4013081819919522e-05 0.0000000000000000e+00  -2.3173961594325006e-04 -1.8081927146081841e-05 0.0000000000000000e+00  -2.9185094688346749e-04 -2.3168111311055685e-05 0.0000000000000000e+00  -3.6548795866402154e-04 -2.9590881669228531e-05 0.0000000000000000e+00  -4.5613942420128048e-04 -3.7742366444958618e-05 0.0000000000000000e+00  -5.6784999823213914e-04 -4.8059347740268399e-05 0.0000000000000000e+00  -7.0499133056325046e-04 -6.0887722063344983e-05 0.0000000000000000e+00  -8.7168568074060405e-04 -7.6035423456515485e-05 0.0000000000000000e+00  -1.0708587284776556e-03 -9.1509152832431641e-05 0.0000000000000000e+00  -1.3036055335306524e-03 -1.0055193940410445e-04 0.0000000000000000e+00  -1.5705746033111961e-03 -8.6669580913314637e-05 0.0000000000000000e+00  0.0000000000000000e+00 0.0000000000000000e+00 0.0000000000000000e+00  -2.1857612764310092e-05 -1.6656175221563545e-06 0.0000000000000000e+00  -4.4713463980998631e-05 -3.4232428825454126e-06 0.0000000000000000e+00  -6.9616312299337194e-05 -5.3721312153966910e-06 0.0000000000000000e+00  -9.7743184721659819e-05 -7.6283708136284430e-06 0.0000000000000000e+00  -1.3047725987087297e-04 -1.0336034959371878e-05 0.0000000000000000e+00  -1.6950428377043365e-04 -1.3682210016171051e-05 0.0000000000000000e+00  -2.1693485245303360e-04 -1.7918247555348742e-05 0.0000000000000000e+00  -2.7545893400944261e-04 -2.3390778451150388e-05 0.0000000000000000e+00  -3.4853323839373308e-04 -3.0587775960634103e-05 0.0000000000000000e+00  -4.4058404864720529e-04 -4.0206684741666072e-05 0.0000000000000000e+00  -5.5716253142745146e-04 -5.3249266142068458e-05 0.0000000000000000e+00  -7.0488922011019515e-04 -7.1122143332038622e-05 0.0000000000000000e+00  -8.9084176575951848e-04 -9.5593076491872587e-05 0.0000000000000000e+00  -1.1208833640438830e-03 -1.2791116412156638e-04 0.0000000000000000e+00  -1.3975739502698190e-03 -1.6454527065313336e-04 0.0000000000000000e+00  -1.7233792561898065e-03 -1.8778504601400897e-04 0.0000000000000000e+00  0.0000000000000000e+00 0.0000000000000000e+00 0.0000000000000000e+00  -1.8884140071632682e-05 -1.4744316428410838e-06 0.0000000000000000e+00  -3.8672521096789639e-05 -3.0374903839568013e-06 0.0000000000000000e+00  -6.0319435924207677e-05 -4.7856351047914090e-06 0.0000000000000000e+00  -8.4912146321893054e-05 -6.8340954085918327e-06 0.0000000000000000e+00  -1.1375581712845391e-04 -9.3298411077759188e-06 0.0000000000000000e+00  -1.4848504057827342e-04 -1.2469863081883191e-05 0.0000000000000000e+00  -1.9121628744634350e-04 -1.6528455946650940e-05 0.0000000000000000e+00  -2.4476011518575439e-04 -2.1899862583671711e-05 0.0000000000000000e+00  -3.1291511157836009e-04 -2.9168049783200944e-05 0.0000000000000000e+00  -4.0085983617674757e-04 -3.9226750021104970e-05 0.0000000000000000e+00  -5.1562248016209962e-04 -5.3496780681412044e-05 0.0000000000000000e+00  -6.6648220142901087e-04 -7.4333338491118972e-05 0.0000000000000000e+00  -8.6479536392464901e-04 -1.0577143781465524e-04 0.0000000000000000e+00  -1.1217987151820373e-03 -1.5459648885902182e-04 0.0000000000000000e+00  -1.4410790297706983e-03 -2.2926184844717319e-04 0.0000000000000000e+00  -1.8254387487158638e-03 -3.0592415825876894e-04 0.0000000000000000e+00  0.0000000000000000e+00 0.0000000000000000e+00 0.0000000000000000e+00  -1.5029979864235362e-05 -1.1963851690653052e-06 0.0000000000000000e+00  -3.0807841110278071e-05 -2.4693308453910575e-06 0.0000000000000000e+00  -4.8126072045202127e-05 -3.9026587958000358e-06 0.0000000000000000e+00  -6.7899336245925480e-05 -5.5979330526873048e-06 0.0000000000000000e+00  -9.1245918413592042e-05 -7.6869279397468474e-06 0.0000000000000000e+00  -1.1959995289420350e-04 -1.0349442350191231e-05 0.0000000000000000e+00  -1.5487442764232874e-04 -1.3840130111934799e-05 0.0000000000000000e+00  -1.9970621847389364e-04 -1.8530618216821564e-05 0.0000000000000000e+00  -2.5783172782508908e-04 -2.4978699541673591e-05 0.0000000000000000e+00  -3.3466450291417144e-04 -3.4049636741093437e-05 0.0000000000000000e+00  -4.3816260026079552e-04 -4.7150411783941222e-05 0.0000000000000000e+00  -5.8002912674889244e-04 -6.6741432342409734e-05 0.0000000000000000e+00  -7.7698801562562758e-04 -9.7593786039015248e-05 0.0000000000000000e+00  -1.0506243237275925e-03 -1.5013353039690979e-04 0.0000000000000000e+00  -1.4186514525067991e-03 -2.5005123458693142e-04 0.0000000000000000e+00  -1.8149068400464571e-03 -4.8099170357825225e-04 0.0000000000000000e+00  0.0000000000000000e+00 0.0000000000000000e+00 0.0000000000000000e+00  -1.0451108275843214e-05 -8.4360274133999558e-07 0.0000000000000000e+00  -2.1437063056655158e-05 -1.7435408847360089e-06 0.0000000000000000e+00  -3.3526446728311770e-05 -2.7617100648506543e-06 0.0000000000000000e+00  -4.7382082954841538e-05 -3.9737466511050724e-06 0.0000000000000000e+00  -6.3825986078736060e-05 -5.4786865849349052e-06 0.0000000000000000e+00  -8.3932240262039832e-05 -7.4126503875548920e-06 0.0000000000000000e+00  -1.0916836155338156e-04 -9.9689019249565646e-06 0.0000000000000000e+00  -1.4162082372244509e-04 -1.3427449375493824e-05 0.0000000000000000e+00  -1.8436872717231476e-04 -1.8198007672125319e-05 0.0000000000000000e+00  -2.4212204506357404e-04 -2.4880073328426385e-05 0.0000000000000000e+00  -3.2233453303178236e-04 -3.4344895407787041e-05 0.0000000000000000e+00  -4.3715192509659529e-04 -4.7869092045439560e-05 0.0000000000000000e+00  -6.0673672833311200e-04 -6.7535623923670348e-05 0.0000000000000000e+00  -8.6453059566243243e-04 -9.8048335454948359e-05 0.0000000000000000e+00  -1.2642608039816340e-03 -1.5430865612974822e-04 0.0000000000000000e+00  -1.8847839954289809e-03 -2.8339242038366477e-04 0.0000000000000000e+00  0.0000000000000000e+00 0.0000000000000000e+00 0.0000000000000000e+00  -5.3574837820536847e-06 -4.3610979081102990e-07 0.0000000000000000e+00  -1.0993721006925196e-05 -9.0205394046455173e-07 0.0000000000000000e+00  -1.7205649075352350e-05 -1.4306657347254426e-06 0.0000000000000000e+00  -2.4341587950552261e-05 -2.0622326357498137e-06 0.0000000000000000e+00  -3.2837421952704193e-05 -2.8496980872246043e-06 0.0000000000000000e+00  -4.3269596686731012e-05 -3.8658947302847376e-06 0.0000000000000000e+00  -5.6438280210902791e-05 -5.2136348179157035e-06 0.0000000000000000e+00  -7.3505293632719466e-05 -7.0387736859220915e-06 0.0000000000000000e+00  -9.6234269492899310e-05 -9.5425664617379962e-06 0.0000000000000000e+00  -1.2742710120071024e-04 -1.2974373787522408e-05 0.0000000000000000e+00  -1.7174152005169232e-04 -1.7529423737237357e-05 0.0000000000000000e+00  -2.3721402123789273e-04 -2.2877448932699983e-05 0.0000000000000000e+00  -3.3777206192046736e-04 -2.6398097615102684e-05 0.0000000000000000e+00  -4.9509551848611686e-04 -1.7572862825146746e-05 0.0000000000000000e+00  -7.2710623376048421e-04 3.3744868690308171e-05 0.0000000000000000e+00  -9.9000098210363040e-04 1.6753042945208830e-04 0.0000000000000000e+00  0.0000000000000000e+00 0.0000000000000000e+00 0.0000000000000000e+00  0.0000000000000000e+00 0.0000000000000000e+00 0.0000000000000000e+00  0.0000000000000000e+00 0.0000000000000000e+00 0.0000000000000000e+00  0.0000000000000000e+00 0.0000000000000000e+00 0.0000000000000000e+00  0.0000000000000000e+00 0.0000000000000000e+00 0.0000000000000000e+00  0.0000000000000000e+00 0.0000000000000000e+0