<?xml version="1.0"?>
<VTKFile type="UnstructuredGrid"  version="0.1"  >
<UnstructuredGrid>
<Piece  NumberOfPoints="289" NumberOfCells="512">
<Points>
<DataArray  type="Float64"  NumberOfComponents="3"  format="ascii">0 0 0  0.0625 0 0  0.125 0 0  0.1875 0 0  0.25 0 0  0.3125 0 0  0.375 0 0  0.4375 0 0  0.5 0 0  0.5625 0 0  0.625 0 0  0.6875 0 0  0.75 0 0  0.8125 0 0  0.875 0 0  0.9375 0 0  1 0 0  0 0.0625 0  0.06251583432884457 0.062479584717945 0  0.1250321756926151 0.06245880639494793 0  0.1875495323468329 0.06243733090288571 0  0.2500684345259243 0.06241489973054229 0  0.3125894493168493 0.06239137890403902 0  0.3751132038782666 0.0623668200807819 0  0.437640426630345 0.06234153436095358 0  0.5001720259504556 0.06231617415273296 0  0.5627092460867233 0.06229180901337004 0  0.6252539823305512 0.06226996612250368 0  0.6878094293089135 0.06225258499931165 0  0.7503814359523513 0.0622418171661378 0  0.8129813254227304 0.06223962192505499 0  0.8756312246804497 0.06224732270144658 0  0.9383692831450984 0.06226645537581465 0  1.001213270642517 0.06231049919812655 0  0 0.125 0  0.06253113333225178 0.1249595181745244 0  0.1250632820593743 0.1249182725322665 0  0.187597469929375 0.1248755528811491 0  0.2501347740303352 0.1248307913592014 0  0.3126763613563908 0.1247836574114583 0  0.3752235445106974 0.1247341800862449 0  0.4377778762097039 0.124682901563098 0  0.5003413205441137 0.12463105706975 0  0.562916573943268 0.1245807591664818 0  0.625507675174668 0.1245351338277015 0  0.6881211657759171 0.1244983070218242 0  0.7507682645221955 0.1244750750974105 0  0.8134687531021125 0.1244700392351994 0  0.8762571485829153 0.1244860609089588 0  0.9391904699027631 0.1245223776440612 0  1.00236284958762 0.1245726010785788 0  0 0.1875 0  0.06254541820021293 0.1874402081301855 0  0.1250923452538439 0.1873791829249174 0  0.1876423103818138 0.1873157605478809 0  0.2501969308030228 0.1872489669684695 0  0.3127579707038823 0.1871781514550684 0  0.3753274272361563 0.1871031669861239 0  0.437907668220015 0.1870246099620077 0  0.5005016655008522 0.1869441231154186 0  0.5631134000157979 0.1868647456444888 0  0.6257485635894372 0.1867912533904234 0  0.6884157426410584 0.1867303521558285 0  0.7511282931340019 0.1866904358286861 0  0.8139069336770931 0.1866803151463601 0  0.8767823013573089 0.1867055911683449 0  0.9397951711822655 0.1867591911372159 0  1.002993309070014 0.1867956696352064 0  0 0.25 0  0.06255822828230719 0.2499221302435222 0  0.1251184261491965 0.2498424678038064 0  0.1876825991121765 0.2497592913453986 0  0.2502528734413926 0.2496710854415118 0  0.3128315741728083 0.2495766977766561 0  0.375421333211146 0.2494755663628783 0  0.4380252518589889 0.249368043697159 0  0.500647156808361 0.2492558426281176 0  0.5632920074146557 0.2491426162570117 0  0.6259665271664842 0.249034648985379 0  0.6886801167930293 0.2489415545233815 0  0.7514459901049334 0.2488767071108308 0  0.8142821169436896 0.2488568027981552 0  0.8772108192166126 0.248899367753596 0  0.9402550851137921 0.2490162952813713 0  1.003430722696169 0.2492021697168823 0  0 0.3125 0  0.06256912767305751 0.3124058482006529 0  0.1251406357955816 0.3123092491912826 0  0.1877169586227946 0.3122078096939018 0  0.2503006790534991 0.3120993140769271 0  0.3128946210630051 0.3119818806112214 0  0.3755019718898465 0.3118542099624644 0  0.4381264562701061 0.3117159718804519 0  0.50077259561765 0.3115683870679252 0  0.5634460939026831 0.3114150689925158 0  0.6261543860923467 0.3112631838467096 0  0.6889073338408511 0.3111249417262773 0  0.7517179018528291 0.31101930090146 0  0.8146023435657274 0.3109734708153561 0  0.8775790689361693 0.3110232496497425 0  0.9406656839721665 0.3112104647725815 0  1.003876771680109 0.3115752503262728 0  0 0.375 0  0.06257771197026663 0.3748920180391269 0  0.125158150209904 0.3747808554154659 0  0.18774411382451 0.3746633446333656 0  0.2503385726081522 0.3745364121147034 0  0.3129447696710814 0.374397198035544 0  0.3755663523800997 0.3742432819495459 0  0.4382075542348277 0.3740730788053781 0  0.5008734627349242 0.3738864993505689 0  0.5635704212825822 0.3736860086661198 0  0.6263066161014369 0.3734782626550987 0  0.6890928672259597 0.3732765367945857 0  0.7519435349795162 0.3731041335457428 0  0.8148772421567408 0.3729987500008815 0  0.8779169047168058 0.3730172047279752 0  0.9410888886461508 0.3732387414103236 0  1.004423195057486 0.3737633695623788 0  0 0.4375 0  0.06258361703660219 0.4373813710084971 0  0.1251702280622851 0.4372587914335788 0  0.1877629187827147 0.4371282585933206 0  0.2503649619940533 0.4369857196826095 0  0.312979926472901 0.4368271113294999 0  0.375611812210579 0.4366485000702856 0  0.4382652384894176 0.4364463987128135 0  0.5009457336866834 0.4362183816208042 0  0.5636602119893316 0.4359641991786668 0  0.6264177735186238 0.4356877094373265 0  0.689231020645704 0.4354001078550699 0  0.7521181090680282 0.4351251149398181 0  0.8151056747154416 0.4349068455259409 0  0.8782325162215525 0.4348206820359313 0  0.9415535576148713 0.4349859961388387 0  1.005143953859852 0.435576697276734 0  0 0.5 0  0.0625865319272467 0.4998746706551646 0  0.1251762358516511 0.4997446543912785 0  0.1877723928233726 0.4996051261069825 0  0.2503784825980335 0.4994510126144354 0  0.3129982943847787 0.4992769067633956 0  0.3756360591837987 0.4990770506716422 0  0.4382966341851128 0.498845455912536 0  0.5009858072804931 0.4985762873617781 0  0.5637108659424169 0.4982647439958848 0  0.6264817175085692 0.4979088593077556 0  0.6893130878857 0.4975129685082034 0  0.7522286622569961 0.4970941031110042 0  0.8152683402524098 0.4966932401461652 0  0.8784996513979939 0.4963937312585454 0  0.9420331041717862 0.4963479722209617 0  1.006038995453523 0.4968080160251097 0  0 0.5625 0  0.06258621750344333 0.5623726430464583 0  0.1251756839761599 0.5622399901569896 0  0.1877717721016497 0.5620965101078725 0  0.2503780617912463 0.5619361931073457 0  0.3129984481590535 0.5617523047153359 0  0.3756372598772728 0.5615371472426903 0  0.4382994149697679 0.5612818650005339 0  0.5009906896597277 0.5609763818033415 0  0.5637182927861453 0.5606096666021501 0  0.6264921983709044 0.5601707444250333 0  0.6893282182254116 0.5596513229688107 0  0.7522547483317237 0.5590518126592789 0  0.8153265003925151 0.5583942117409475 0  0.8786496364838058 0.5577478952268015 0  0.942421236357494 0.5572759133140991 0  1.006978331304353 0.5573030895804677 0  0 0.625 0  0.06258253072683614 0.6248758842521746 0  0.1251682740608398 0.6247460976417966 0  0.1877605777509646 0.6246046416154211 0  0.2503630049073036 0.6244448128179938 0  0.3129794366244731 0.6242587864168694 0  0.3756141661278512 0.6240371224947305 0  0.4382719932654239 0.6237681764965662 0  0.5009583688407843 0.6234374162051658 0  0.5636797632805234 0.6230267090076901 0  0.6264447737882354 0.622513805506641 0  0.689267324638257 0.621872665923806 0  0.752175199047544 0.6210763621060408 0  0.8152308021850888 0.6201070574741893 0  0.8785764186130782 0.6189840895303099 0  0.9425189421965033 0.6178321948890843 0  1.007658003680812 0.6170095123171581 0  0 0.6875 0  0.06257545262518704 0.6873847556968925 0  0.1251539540540788 0.6872638022952048 0  0.1877386960967859 0.6871310347066739 0  0.2503330961415827 0.6869794682927711 0  0.3129408970845382 0.6868006773536848 0  0.3755662379077098 0.686584067923472 0  0.4382136709548257 0.6863158983380139 0  0.5008881047065854 0.68597793292978 0  0.5635947112355637 0.6855455834478252 0  0.6263391034340081 0.684985383110727 0  0.6891289877919127 0.6842517450811324 0  0.7519811697320569 0.683283552663928 0  0.8149448486427735 0.6820036598422368 0  0.8781678208505793 0.6803343753353259 0  0.9420533291596414 0.6782775668901624 0  1.007549046752822 0.6761612375743029 0  0 0.75 0  0.06256511596796122 0.7498992842366865 0  0.1251329741016423 0.7497932349027377 0  0.1877064624609162 0.7496760970737041 0  0.250288705656155 0.7495411603887036 0  0.3128831702370736 0.7493801184381289 0  0.3754937306320063 0.7491821953915319 0  0.4381246391031894 0.7489328955614566 0  0.5007802866713038 0.7486121535598889 0  0.5634645588417844 0.7481915306010974 0  0.6261795376693554 0.74762987406765 0  0.6889236032806464 0.7468664536714904 0  0.7516909802477105 0.745809902178034 0  0.8144833117204104 0.7443205272930918 0  0.8773747394738415 0.7421861205819927 0  0.9407633371814029 0.7391264969645313 0  1.00590285385971 0.7352026208642785 0  0 0.8125 0  0.06255182722617265 0.8124190876606974 0  0.1251059336320138 0.8123336617159866 0  0.1876647380599325 0.8122388177623577 0  0.2502308979118153 0.8121287529693023 0  0.3128074265638378 0.8119961437352821 0  0.3753977835898472 0.8118312696976955 0  0.4380058734373687 0.8116207148536025 0  0.500635789095759 0.8113453724506866 0  0.5632909112501053 0.8109772953676834 0  0.6259714808822272 0.8104745902089577 0  0.6886687938539536 0.8097728568370977 0  0.7513527717521231 0.8087700687931011 0  0.8139505397982022 0.8072975712388345 0  0.876335812806829 0.8050580032061817 0  0.9385106553489829 0.8014792767478122 0  1.002436245267419 0.7953778450924184 0  0 0.875 0  0.06253607663832993 0.8749433457135269 0  0.1250738081781072 0.8748834119153922 0  0.1876149667183121 0.8748166173131963 0  0.2501615366231874 0.8747386806085936 0  0.3127158349224419 0.8746441252188497 0  0.3752806344588193 0.8745255681621574 0  0.4378592535616512 0.874372643895623 0  0.5004554916645134 0.8741703190870322 0  0.563073055009787 0.8738961909042635 0  0.6257134629285697 0.8735160807395361 0  0.6883696096146273 0.8729767346169094 0  0.7510071333718354 0.8721933723493442 0  0.8135120860156247 0.871026437211317 0  0.8755480226481078 0.8692266807249539 0  0.9361865642458931 0.8662527785179721 0  0.9931059244701863 0.8604986537763338 0  0 0.9375 0  0.06251853033806742 0.937470830608426 0  0.125037942908806 0.9374399354900165 0  0.187559191207599 0.9374054245417661 0  0.2500833645640001 0.9373650244158527 0  0.3126117759261443 0.9373158039948462 0  0.3751460722833989 0.9372537756481738 0  0.4376883690566235 0.9371732845330206 0 
[...]
<PointData  Vectors="f_54"> 
<DataArray  type="Float64"  Name="f_54"  NumberOfComponents="3" format="ascii">0.0000000000000000e+00 0.0000000000000000e+00 0.0000000000000000e+00  0.0000000000000000e+00 0.0000000000000000e+00 0.0000000000000000e+00  0.0000000000000000e+00 0.0000000000000000e+00 0.0000000000000000e+00  0.0000000000000000e+00 0.0000000000000000e+00 0.0000000000000000e+00  0.0000000000000000e+00 0.0000000000000000e+00 0.0000000000000000e+00  0.0000000000000000e+00 0.0000000000000000e+00 0.0000000000000000e+00  0.0000000000000000e+00 0.0000000000000000e+00 0.0000000000000000e+00  0.0000000000000000e+00 0.0000000000000000e+00 0.0000000000000000e+00  0.0000000000000000e+00 0.0000000000000000e+00 0.0000000000000000e+00  0.0000000000000000e+00 0.0000000000000000e+00 0.0000000000000000e+00  0.0000000000000000e+00 0.0000000000000000e+00 0.0000000000000000e+00  0.0000000000000000e+00 0.0000000000000000e+00 0.0000000000000000e+00  0.0000000000000000e+00 0.0000000000000000e+00 0.0000000000000000e+00  0.0000000000000000e+00 0.0000000000000000e+00 0.0000000000000000e+00  0.0000000000000000e+00 0.0000000000000000e+00 0.0000000000000000e+00  0.0000000000000000e+00 0.0000000000000000e+00 0.0000000000000000e+00  0.0000000000000000e+00 0.0000000000000000e+00 0.0000000000000000e+00  0.0000000000000000e+00 0.0000000000000000e+00 0.0000000000000000e+00  4.7442686670177017e-06 4.8273519778309692e-08 0.0000000000000000e+00  9.6189125217758105e-06 9.6070881486476848e-08 0.0000000000000000e+00  1.4755741154693882e-05 1.4270378858517131e-07 0.0000000000000000e+00  2.0282869422434959e-05 1.8698775486391007e-07 0.0000000000000000e+00  2.6321118000014800e-05 2.2697730485243641e-07 0.0000000000000000e+00  3.2978022365572673e-05 2.5969925664439564e-07 0.0000000000000000e+00  4.0338518107140191e-05 2.8091691764863294e-07 0.0000000000000000e+00  4.8451420825405556e-05 2.8498572920203057e-07 0.0000000000000000e+00  5.7311256751832022e-05 2.6487765011782300e-07 0.0000000000000000e+00  6.6836555915713821e-05 2.1240040998006053e-07 0.0000000000000000e+00  7.6850577681075892e-05 1.1834096859033829e-07 0.0000000000000000e+00  8.7085750398359021e-05 -2.8850765966609465e-08 0.0000000000000000e+00  9.7284180953659784e-05 -2.5116968583578108e-07 0.0000000000000000e+00  1.0764906872414736e-04 -6.1601420732628840e-07 0.0000000000000000e+00  1.2059738257093982e-04 -1.3775353995995800e-06 0.0000000000000000e+00  1.4753418109710021e-04 -3.5582223116518649e-06 0.0000000000000000e+00  0.0000000000000000e+00 0.0000000000000000e+00 0.0000000000000000e+00  9.3575463041216916e-06 9.7014809274890416e-08 0.0000000000000000e+00  1.8977775684028522e-05 1.9332010711182061e-07 0.0000000000000000e+00  2.9126687178912950e-05 2.8779026467563447e-07 0.0000000000000000e+00  4.0064458087618959e-05 3.7831765964782191e-07 0.0000000000000000e+00  5.2039123863163549e-05 4.6127111097714918e-07 0.0000000000000000e+00  6.5275533765298712e-05 5.3092772255024599e-07 0.0000000000000000e+00  7.9957592412044259e-05 5.7893828046909503e-07 0.0000000000000000e+00  9.6201625786315056e-05 5.9395826033518200e-07 0.0000000000000000e+00  1.1401885166795387e-04 5.6166684889463988e-07 0.0000000000000000e+00  1.3326585574632293e-04 4.6547089190410958e-07 0.0000000000000000e+00  1.5358451924030574e-04 2.8816555607142340e-07 0.0000000000000000e+00  1.7433805928458721e-04 1.4615349631738013e-08 0.0000000000000000e+00  1.9455585523380569e-04 -3.6437497784086350e-07 0.0000000000000000e+00  2.1288007779861123e-04 -8.4173815984613209e-07 0.0000000000000000e+00  2.2728440576942792e-04 -1.3334155368563396e-06 0.0000000000000000e+00  2.3287995527112828e-04 -1.2916542566927189e-06 0.0000000000000000e+00  0.0000000000000000e+00 0.0000000000000000e+00 0.0000000000000000e+00  1.3704783938568513e-05 1.4642334223383203e-07 0.0000000000000000e+00  2.7807374577352151e-05 2.9238128382993265e-07 0.0000000000000000e+00  4.2711616765843101e-05 4.3681121762910844e-07 0.0000000000000000e+00  5.8816434177969633e-05 5.7721939152358282e-07 0.0000000000000000e+00  7.6508551986818863e-05 7.0884822305578412e-07 0.0000000000000000e+00  9.6148402435387723e-05 8.2374429382482798e-07 0.0000000000000000e+00  1.1804608167704860e-04 9.0978987639159781e-07 0.0000000000000000e+00  1.4242358295446256e-04 9.4988326574468476e-07 0.0000000000000000e+00  1.6935887825055753e-04 9.2165203482722039e-07 0.0000000000000000e+00  1.9870677792651115e-04 7.9836951306001716e-07 0.0000000000000000e+00  2.2999043829051945e-04 5.5208281459381202e-07 0.0000000000000000e+00  2.6225370681357593e-04 1.6018810040519959e-07 0.0000000000000000e+00  2.9385011622739166e-04 -3.8373641316271808e-07 0.0000000000000000e+00  3.2209457953981656e-04 -1.0573452370299463e-06 0.0000000000000000e+00  3.4256035833459561e-04 -1.8162966729272284e-06 0.0000000000000000e+00  3.4753117659481900e-04 -2.7522099477579190e-06 0.0000000000000000e+00  0.0000000000000000e+00 0.0000000000000000e+00 0.0000000000000000e+00  1.7648748911983045e-05 1.9622126997361510e-07 0.0000000000000000e+00  3.5832649335529876e-05 3.9290945353313653e-07 0.0000000000000000e+00  5.5096766032704252e-05 5.8980150702947528e-07 0.0000000000000000e+00  7.5986429713347547e-05 7.8484436271081742e-07 0.0000000000000000e+00  9.9041612242516399e-05 9.7307477511391378e-07 0.0000000000000000e+00  1.2478293510195755e-04 1.1452576794427189e-06 0.0000000000000000e+00  1.5368512237551451e-04 1.2862944983144917e-06 0.0000000000000000e+00  1.8613248847130831e-04 1.3735635999301820e-06 0.0000000000000000e+00  2.2234952784647394e-04 1.3756529119758038e-06 0.0000000000000000e+00  2.6229774837773303e-04 1.2524830230316953e-06 0.0000000000000000e+00  3.0552707632309258e-04 9.5869862723957779e-07 0.0000000000000000e+00  3.5096493109790613e-04 4.5344903745193435e-07 0.0000000000000000e+00  3.9661493932373354e-04 -2.7900411852677107e-07 0.0000000000000000e+00  4.3911599061676669e-04 -1.1930487863154548e-06 0.0000000000000000e+00  4.7309121184129784e-04 -2.1270366665917723e-06 0.0000000000000000e+00  4.9028890568367667e-04 -2.7217127769269809e-06 0.0000000000000000e+00  0.0000000000000000e+00 0.0000000000000000e+00 0.0000000000000000e+00  2.1050917451169438e-05 2.4544576404379494e-07 0.0000000000000000e+00  4.2773879984640134e-05 4.9313784068288700e-07 0.0000000000000000e+00  6.5856045679504776e-05 7.4454637369757526e-07 0.0000000000000000e+00  9.0995184299866606e-05 9.9917158943190682e-07 0.0000000000000000e+00  1.1889900584477084e-04 1.2531916867798648e-06 0.0000000000000000e+00  1.5027549191667797e-04 1.4976560480671751e-06 0.0000000000000000e+00  1.8580927587494753e-04 1.7161021232957894e-06 0.0000000000000000e+00  2.2611729922873095e-04 1.8815879154565182e-06 0.0000000000000000e+00  2.7167462126170507e-04 1.9534368584943829e-06 0.0000000000000000e+00  3.2269838988300338e-04 1.8746881744705352e-06 0.0000000000000000e+00  3.7897463533622517e-04 1.5726666827331937e-06 0.0000000000000000e+00  4.3960881120959561e-04 9.6769369305523984e-07 0.0000000000000000e+00  5.0267748785144260e-04 -8.3517850369830223e-10 0.0000000000000000e+00  5.6475914471772095e-04 -1.3162427000739029e-06 0.0000000000000000e+00  6.2034307742813127e-04 -2.7749550769893190e-06 0.0000000000000000e+00  6.6120452761123344e-04 -3.8102756893846601e-06 0.0000000000000000e+00  0.0000000000000000e+00 0.0000000000000000e+00 0.0000000000000000e+00  2.3774391354673104e-05 2.9229530411163789e-07 0.0000000000000000e+00  4.8352117915289838e-05 5.8952799986355904e-07 0.0000000000000000e+00  7.4558119875665086e-05 8.9594671775167051e-07 0.0000000000000000e+00  1.0324371402877000e-04 1.2139473800202454e-06 0.0000000000000000e+00  1.3529456126802316e-04 1.5426373776870846e-06 0.0000000000000000e+00  1.7163031882601887e-04 1.8756992610495036e-06 0.0000000000000000e+00  2.1319076677495964e-04 2.1982148000624165e-06 0.0000000000000000e+00  2.6090079435971977e-04 2.4820786430109289e-06 0.0000000000000000e+00  3.1560341117633839e-04 2.6797434997238679e-06 0.0000000000000000e+00  3.7794602271662637e-04 2.7165645781165572e-06 0.0000000000000000e+00  4.4820111772523306e-04 2.4835284362827322e-06 0.0000000000000000e+00  5.2599961173789653e-04 1.8357671725832944e-06 0.0000000000000000e+00  6.0995604085399904e-04 6.0974450972132273e-07 0.0000000000000000e+00  6.9717377637889503e-04 -1.3146992256846664e-06 0.0000000000000000e+00  7.8263928939941189e-04 -3.8623405363570785e-06 0.0000000000000000e+00  8.5853999567193895e-04 -6.4586410774291155e-06 0.0000000000000000e+00  0.0000000000000000e+00 0.0000000000000000e+00 0.0000000000000000e+00  2.5689194379023647e-05 3.3407183942058852e-07 0.0000000000000000e+00  5.2299681886768813e-05 6.7660152638801472e-07 0.0000000000000000e+00  8.0781851476766087e-05 1.0356226092650079e-06 0.0000000000000000e+00  1.1213307246662986e-04 1.4178501951847456e-06 0.0000000000000000e+00  1.4741790207884438e-04 1.8274321870698002e-06 0.0000000000000000e+00  1.8778232743486636e-04 2.2638133219228896e-06 0.0000000000000000e+00  2.3445733184538663e-04 2.7181214111155358e-06 0.0000000000000000e+00  2.8874416854940524e-04 3.1671944638614874e-06 0.0000000000000000e+00  3.5196955444799380e-04 3.5640180483050851e-06 0.0000000000000000e+00  4.2539355636151674e-04 3.8231179772760855e-06 0.0000000000000000e+00  5.1004695904993506e-04 3.7999569595510490e-06 0.0000000000000000e+00  6.0647072266857040e-04 3.2662156562944691e-06 0.0000000000000000e+00  7.1433271219241651e-04 1.8915909096363854e-06 0.0000000000000000e+00  8.3191285659845111e-04 -7.3604734397516757e-07 0.0000000000000000e+00  9.5547637725878522e-04 -4.9783231243856201e-06 0.0000000000000000e+00  1.0785594566887656e-03 -1.0760806791616984e-05 0.0000000000000000e+00  0.0000000000000000e+00 0.0000000000000000e+00 0.0000000000000000e+00  2.6679989948317666e-05 3.6726994241324570e-07 0.0000000000000000e+00  5.4375910224718156e-05 7.4706939434443870e-07 0.0000000000000000e+00  8.4140682873170246e-05 1.1519637492929390e-06 0.0000000000000000e+00  1.1709804165446689e-04 1.5942210439878591e-06 0.0000000000000000e+00  1.5447786318246938e-04 2.0851337545089109e-06 0.0000000000000000e+00  1.9764978218358604e-04 2.6334595062592401e-06 0.0000000000000000e+00  2.4815192560963771e-04 3.2422242962500599e-06 0.0000000000000000e+00  3.0770847161736031e-04 3.9025456447920786e-06 0.0000000000000000e+00  3.7822473775678581e-04 4.5821317751468123e-06 0.0000000000000000e+00  4.6174112967367192e-04 5.2045238729179000e-06 0.0000000000000000e+00  5.6031783983933442e-04 5.6130004761887798e-06 0.0000000000000000e+00  6.7581354153002551e-04 5.5113557188645080e-06 0.0000000000000000e+00  8.0952228942471522e-04 4.3765762092178757e-06 0.0000000000000000e+00  9.6166173734280687e-04 1.3571495042914912e-06 0.0000000000000000e+00  1.1307831152833805e-03 -4.7726795089768940e-06 0.0000000000000000e+00  1.3132719306640729e-03 -1.5419290363168167e-05 0.0000000000000000e+00  0.0000000000000000e+00 0.0000000000000000e+00 0.0000000000000000e+00  2.6655852225367880e-05 3.8785941941033864e-07 0.0000000000000000e+00  5.4387519597449091e-05 7.9237510328519666e-07 0.0000000000000000e+00  8.4315207470877211e-05 1.2308647649074300e-06 0.0000000000000000e+00  1.1765426240245023e-04 1.7218107487616344e-06 0.0000000000000000e+00  1.5576701819741408e-04 2.2851713473968850e-06 0.0000000000000000e+00  2.0021903839655245e-04 2.9421338808766713e-06 0.0000000000000000e+00  2.5283944920012987e-04 3.7136352441579317e-06 0.0000000000000000e+00  3.1578235325875349e-04 4.6162394653729133e-06 0.0000000000000000e+00  3.9158117083409454e-04 5.6524595765435609e-06 0.0000000000000000e+00  4.8317871348850684e-04 6.7895858496386764e-06 0.0000000000000000e+00  5.9390161487754046e-04 7.9151848352246587e-06 0.0000000000000000e+00  7.2732987870395365e-04 8.7467731501103608e-06 0.0000000000000000e+00  8.8700233192999555e-04 8.6571279347724343e-06 0.0000000000000000e+00  1.0759362091102205e-03 6.3640058162134865e-06 0.0000000000000000e+00  1.2961195794047582e-03 -5.3865350193653639e-07 0.0000000000000000e+00  1.5486084692736017e-03 -1.6099163103807407e-05 0.0000000000000000e+00  0.0000000000000000e+00 0.0000000000000000e+00 0.0000000000000000e+00  2.5561247207948737e-05 3.9178045316313334e-07 0.0000000000000000e+00  5.2211914090600608e-05 8.0371649752594430e-07 0.0000000000000000e+00  8.1091544374345365e-05 1.2573210773172044e-06 0.0000000000000000e+00  1.1345590733503374e-04 1.7769631106756927e-06 0.0000000000000000e+00  1.5074441997369741e-04 2.3914732347034452e-06 0.0000000000000000e+00  1.9465942912364614e-04 3.1358568853277654e-06 0.0000000000000000e+00  2.4726130808121964e-04 4.0528831361552404e-06 0.0000000000000000e+00  3.1108217281141060e-04 5.1937952910792180e-06 0.0000000000000000e+00  3.8925741907441574e-04 6.6160866893299307e-06 0.0000000000000000e+00  4.8566556639229882e-04 8.3730400625580676e-06 0.0000000000000000e+00  6.0504891820082956e-04 1.0481662137511631e-05 0.0000000000000000e+00  7.5305617884491912e-04 1.2835909402222187e-05 0.0000000000000000e+00  9.3610819057409920e-04 1.4986164686781079e-05 0.0000000000000000e+00  1.1609864875261025e-03 1.5612469651254368e-05 0.0000000000000000e+00  1.4342637150462402e-03 1.1391958432575712e-05 0.0000000000000000e+00  1.7624979765856739e-03 -5.0602265024276611e-06 0.0000000000000000e+00  0.0000000000000000e+00 0.0000000000000000e+00 0.0000000000000000e+00  2.3386898845890787e-05 3.7561743337213856e-07 0.0000000000000000e+00  4.7820725576095991e-05 7.7349612124284434e-07 0.0000000000000000e+00  7.4401293301370937e-05 1.2178681662482996e-06 0.0000000000000000e+00  1.0435812054812294e-04 1.7373706794967718e-06 0.0000000000000000e+00  1.3912943907051767e-04 2.3679578394970953e-06 0.0000000000000000e+00  1.8046068984465050e-04 3.1567767446648818e-06 0.0000000000000000e+00  2.3053174633981378e-04 4.1675090987394980e-06 0.0000000000000000e+00  2.9212399376725076e-04 5.4877997604637634e-06 0.0000000000000000e+00  3.6883917171954834e-04 7.2393476468146006e-06 0.0000000000000000e+00  4.6537837526762672e-04 9.5903448135924277e-06 0.0000000000000000e+00  5.8787464647454312e-04 1.2765674815945369e-05 0.0000000000000000e+00  7.4423261012069978e-04 1.7033539194931865e-05 0.0000000000000000e+00  9.4434641278212672e-04 2.2586963679004255e-05 0.0000000000000000e+00  1.1999602637386526e-03 2.9038812069844423e-05 0.0000000000000000e+00  1.5240868695950973e-03 3.3720456826921048e-05 0.0000000000000000e+00  1.9316517651807627e-03 2.8073914095991744e-05 0.0000000000000000e+00  0.0000000000000000e+00 0.0000000000000000e+00 0.0000000000000000e+00  2.0178820902497561e-05 3.3734874218544296e-07 0.0000000000000000e+00  4.1299934883442672e-05 6.9698766814832331e-07 0.0000000000000000e+00  6.4357087389964548e-05 1.1035358907122049e-06 0.0000000000000000e+00  9.0475390978239493e-05 1.5869813280430204e-06 0.0000000000000000e+00  1.2099457895602579e-04 2.1865030407646702e-06 0.0000000000000000e+00  1.5757763344202851e-04 2.9559834149809962e-06 0.0000000000000000e+00  2.0235918127314734e-04 3.9724189338811576e-06 0.0000000000000000e+00  2.5815419093485112e-04 5.3493253661221842e-06 0.0000000000000000e+00  3.2875587451056815e-04 7.2589946452647912e-06 0.0000000000000000e+00  4.1936092822752292e-04 9.9710271056381752e-06 0.0000000000000000e+00  5.3716386970803314e-04 1.3921537813875815e-05 0.0000000000000000e+00  6.9213973039281658e-04 1.9838386380738611e-05 0.0000000000000000e+00  8.9793277786789081e-04 2.8946575611462300e-05 0.0000000000000000e+00  1.1724831281520935e-03 4.3127711983294122e-05 0.0000000000000000e+00  1.5375479375223915e-03 6.3636776009942908e-05 0.0000000000000000e+00  2.0201522304565673e-03 7.7616009959771096e-05 0.0000000000000000e+00  0.0000000000000000e+00 0.0000000000000000e+00 0.0000000000000000e+00  1.6043612983380013e-05 2.7700900753458961e-07 0.0000000000000000e+00  3.2862395101388297e-05 5.7385141819110522e-07 0.0000000000000000e+00  5.1276529164689912e-05 9.1265822420859757e-07 0.0000000000000000e+00  7.2224426278202737e-05 1.3209501112693765e-06 0.0000000000000000e+00  9.6840056856033392e-05 1.8356149976029980e-06 0.0000000000000000e+00  1.2655751228062242e-04 2.5088336797298751e-06 0.0000000000000000e+00  1.6326022328100730e-04 3.4174247548709315e-06 0.0000000000000000e+00  2.0950236022031132e-04 4.6782614901026295e-06 0.0000000000000000e+00  2.6884694175807218e-04 6.4749600785814018e-06 0.0000000000000000e+00  3.4639297914834818e-04 9.1071193415356291e-06 0.0000000000000000e+00  4.4960626932583135e-04 1.3089569063037979e-05 0.0000000000000000e+00  5.8961995803602659e-04 1.9376040739593562e-05 0.0000000000000000e+00  7.8318042938026492e-04 2.9925007872858871e-05 0.0000000000000000e+00  1.0551357235341794e-03 4.9271288626318873e-05 0.0000000000000000e+00  1.4395271139547112e-03 8.9215288602095136e-05 0.0000000000000000e+00  1.9592973775097743e-03 1.8523161938493183e-04 0.0000000000000000e+00  0.0000000000000000e+00 0.0000000000000000e+00 0.0000000000000000e+00  1.1148283671921010e-05 1.9707941343182325e-07 0.0000000000000000e+00  2.2848780190482818e-05 4.0906535501276228e-07 0.0000000000000000e+00  3.5687216668257194e-05 6.5270049877789136e-07 0.0000000000000000e+00  5.0339026748345469e-05 9.4907509627667847e-07 0.0000000000000000e+00  6.7629400172931981e-05 1.3268771179390763e-06 0.0000000000000000e+00  8.8616607185129615e-05 1.8272583846146313e-06 0.0000000000000000e+00  1.1471475644767929e-04 2.5114512583745669e-06 0.0000000000000000e+00  1.4788325686787218e-04 3.4729671260748349e-06 0.0000000000000000e+00  1.9093106260724407e-04 4.8573537355587858e-06 0.0000000000000000e+00  2.4802359646582486e-04 6.8944780404951498e-06 0.0000000000000000e+00  3.2555836815239837e-04 9.9528430289629109e-06 0.0000000000000000e+00  4.3373341289166937e-04 1.4642110049147671e-05 0.0000000000000000e+00  5.8947199007582129e-04 2.2071985442753741e-05 0.0000000000000000e+00  8.2220624223138460e-04 3.4796412234423033e-05 0.0000000000000000e+00  1.1867191968996042e-03 6.0984450101209766e-05 0.0000000000000000e+00  1.7985260599392575e-03 1.3246913892957045e-04 0.0000000000000000e+00  0.0000000000000000e+00 0.0000000000000000e+00 0.0000000000000000e+00  5.7134737070806384e-06 1.0246296251975627e-07 0.0000000000000000e+00  1.1714197959453874e-05 2.1292520807094181e-07 0.0000000000000000e+00  1.8307309206365867e-05 3.4040268247151406e-07 0.0000000000000000e+00  2.5846350097412930e-05 4.9632853935358659e-07 0.0000000000000000e+00  3.4766121197179177e-05 6.9636077342174514e-07 0.0000000000000000e+00  4.5628966986965392e-05 9.6306384102937124e-07 0.0000000000000000e+00  5.9194247185539584e-05 1.3299816078067740e-06 0.0000000000000000e+00  7.6528000611384678e-05 1.8476695144240178e-06 0.0000000000000000e+00  9.9183888964002510e-05 2.5916286747101727e-06 0.0000000000000000e+00  1.2951418041972734e-04 3.6684176749922570e-06 0.0000000000000000e+00  1.7122285282140170e-04 5.2003285078607881e-06 0.0000000000000000e+00  2.3036195780039081e-04 7.2056702649146872e-06 0.0000000000000000e+00  3.1702060684515783e-04 9.0484106440284981e-06 0.0000000000000000e+00  4.4722610289976136e-04 7.2627776157680784e-06 0.0000000000000000e+00  6.3880048388382604e-04 -1.1636117422540876e-05 0.0000000000000000e+00  8.7313464225934859e-04 -8.2523082999974524e-05 0.0000000000000000e+00  0.0000000000000000e+00 0.0000000000000000e+00 0.0000000000000000e+00  0.0000000000000000e+00 0.0000000000000000e+00 0.0000000000000000e+00  0.0000000000000000e+00 0.0000000000000000e+00 0.0000000000000000e+00  0.0000000000000000e+00 0.0000000000000000e+00 0.0000000000000000e+00  0.0000000000000000e+00 0.0000000000000000e+00 0.0000000000000000e+00  0.0000000000000000e+00 0.0000000000000000e+00 0.0000000000000000e+00  0.0000000000000000e+00 0.0000000000000000e+00 0.0000000000000000e+00  0.0000000000000000e+00 0.0000000000000000e+00 0.0000000000000000e+00  0.0000000000000000e+00 0.0000000000000000e+00 0.0000000000000000e+00  0.0000000000000000e+00 0.0000000000000000e+00 0.0000000000000000e+00  0.0000000000000000e+00 0.0000000000000000e+00 0.0000000000000000e+00  0.0000000000000000e+00 0.0000000000000000e+00 0.