<?xml version="1.0"?>
<VTKFile type="UnstructuredGrid"  version="0.1"  >
<UnstructuredGrid>
<Piece  NumberOfPoints="289" NumberOfCells="512">
<Points>
<DataArray  type="Float64"  NumberOfComponents="3"  format="ascii">0 0 0  0.0625 0 0  0.125 0 0  0.1875 0 0  0.25 0 0  0.3125 0 0  0.375 0 0  0.4375 0 0  0.5 0 0  0.5625 0 0  0.625 0 0  0.6875 0 0  0.75 0 0  0.8125 0 0  0.875 0 0  0.9375 0 0  1 0 0  0 0.0625 0  0.06257694480145538 0.06249822040093707 0  0.1251563706907468 0.06249638398142651 0  0.1877407963044306 0.06249443339207003 0  0.250332806833682 0.06249231061996828 0  0.3129350790008745 0.06248995724280568 0  0.3755503985550379 0.06248731546039306 0  0.4381816756602932 0.0624843302263526 0  0.5008319797692584 0.06248095268948775 0  0.5635046572546206 0.06247714452663541 0  0.6262037038739584 0.06247288034800309 0  0.6889348610905706 0.06246813669342904 0  0.7517087700389514 0.06246282406209741 0  0.8145502337531528 0.06245649325604088 0  0.8775268804349085 0.06244713062144067 0  0.9408447302633471 0.06242609400014282 0  1.005200537945217 0.06235537359948585 0  0 0.125 0  0.06265149956424536 0.124996494696681 0  0.1253079391187373 0.1249928757954994 0  0.1879743385922941 0.1249890283846297 0  0.2506558607044141 0.124984835667744 0  0.3133578634629359 0.1249801791377507 0  0.3760859318167215 0.1249749402887187 0  0.4388458893615122 0.1249690046597865 0  0.5016438082693926 0.1249622691636499 0  0.5644860780118851 0.1249546536720943 0  0.6273796914513795 0.1249461175891999 0  0.6903331223788912 0.1249366823784059 0  0.7533586061641437 0.1249264688230213 0  0.8164773444022128 0.1249158170071469 0  0.8797292661862932 0.1249059074519554 0  0.9431814160165545 0.1249022046078768 0  1.006870756550142 0.1249330746567822 0  0 0.1875 0  0.062721204027475 0.1874948797219334 0  0.1254497448275484 0.1874895898095279 0  0.1881930903170116 0.187483958081947 0  0.2509589459140924 0.1874778082508433 0  0.3137553417834841 0.1874709593517138 0  0.3765906796842658 0.1874632273083597 0  0.4394737248325774 0.1874544299239138 0  0.5024135319959501 0.1874443971653686 0  0.5654193068001785 0.1874329894394774 0  0.6285002257215815 0.187420127837502 0  0.6916652583793664 0.1874058426115257 0  0.7549229672983573 0.1873903504844726 0  0.8182807505670788 0.1873741746632538 0  0.8817408698251957 0.1873582694164995 0  0.9452837947513855 0.18734356123036 0  1.008814233760789 0.1873253022705069 0  0 0.25 0  0.06278366121660392 0.2499934315331744 0  0.1255769446104499 0.2499866392981573 0  0.188389667943424 0.2499793951725067 0  0.2512320103227015 0.2499714633817556 0  0.3141146505585757 0.2499625982324449 0  0.3770488457487632 0.2499525441890951 0  0.4400464158337393 0.24994103991569 0  0.5031195854582827 0.249927828839779 0  0.5662806111638234 0.2499126802927818 0  0.6295410777737901 0.2498954276177385 0  0.6929106486053027 0.2498760330860654 0  0.7563948102976484 0.2498546935708257 0  0.8199905628213504 0.2498320016535575 0  0.8836777425518239 0.2498091604819908 0  0.9474017588630124 0.2497882170370213 0  1.011044016996498 0.2497726623509987 0  0 0.3125 0  0.06283658679448063 0.3124922042376111 0  0.1256849065512631 0.3124841342374512 0  0.1885569690432715 0.3124755090071357 0  0.2514653077514131 0.3124660349527991 0  0.3144231961265009 0.3124554008044889 0  0.377444794343286 0.3124432745179133 0  0.4405451771865681 0.3124293037438834 0  0.5037401643186895 0.3124131225808566 0  0.5670458260092422 0.3123943692376609 0  0.6304774570752369 0.3123727224321749 0  0.6940476758004764 0.3123479695558524 0  0.7577630787599006 0.3123201277247208 0  0.8216185471638974 0.3122896509880329 0  0.8855879796308351 0.3122577777391782 0  0.9496106089249048 0.3122271285854529 0  1.013575280531502 0.3122028607138285 0  0 0.375 0  0.06287787229345677 0.3749912482267213 0  0.125769332788588 0.3749821777951164 0  0.1886883452340689 0.3749724604287121 0  0.2516496013388368 0.3749617491415793 0  0.3146688487590172 0.3749496693344258 0  0.3777631580425427 0.374935810834005 0  0.4409510753651581 0.3749197219584024 0  0.5042525701741577 0.3749009076951759 0  0.5676886259183952 0.3748788359208293 0  0.631280226638439 0.3748529589607301 0  0.6950463506136408 0.3748227639236659 0  0.7590003949429527 0.3747878762533402 0  0.8231442737888323 0.3747482601029143 0  0.8874594565235505 0.3747045900593704 0  0.9518949429774733 0.3746589060034765 0  1.016354442023991 0.3746156346790125 0  0 0.4375 0  0.06290566593232147 0.437490607793224 0  0.1258264203939245 0.4374808614370155 0  0.1887778397708476 0.437470394121745 0  0.2517764674892942 0.4374588136699538 0  0.3148402870698543 0.4374456891657716 0  0.3779891658504713 0.4374305369177569 0  0.4412452276100082 0.4374128058486116 0  0.5046330741024807 0.4373918629017344 0  0.5681797124934934 0.4373669801096934 0  0.6319139461685761 0.4373373272261342 0  0.695864838930993 0.4373019786774469 0  0.7600586672700737 0.4372599540443057 0  0.8245135715649243 0.4372103335608662 0  0.8892310339820905 0.4371525362430397 0  0.9541836098504596 0.4370869388261946 0  1.019299291931076 0.437016181431458 0  0 0.5 0  0.06291847177309294 0.4999903182596732 0  0.1258530637256025 0.4999802588971998 0  0.188820500157047 0.4999694288168974 0  0.2518387262813628 0.4999574032530631 0  0.3149275492105626 0.4999437079515895 0  0.3781093046845467 0.4999277987895012 0  0.4414095356802769 0.499909037635158 0  0.5048576393285595 0.4998866629111867 0  0.5684873855787128 0.4998597528738146 0  0.6323371199657059 0.4998271791990248 0  0.6964493128067392 0.4997875486618164 0  0.7608688835411916 0.4997391335518296 0  0.8256393939416473 0.4996798031852152 0  0.8907957846237442 0.4996070066033789 0  0.95635192761906 0.499517963397613 0  1.02228110964986 0.4994104910859609 0  0 0.5625 0  0.06291526318005593 0.5624904029049971 0  0.1258470912071441 0.562480419616221 0  0.1888127582266466 0.5624696463374323 0  0.2518309952879395 0.5624576426963339 0  0.3149228011825772 0.5624439103007923 0  0.378112351814099 0.5624278669935743 0  0.4414280369685138 0.5624088143707916 0  0.5049036425382918 0.5623858948902681 0  0.5685796697318518 0.5623580326816112 0  0.6325047245045676 0.5623238481629337 0  0.69673679023655 0.5622815293065164 0  0.7613439591939938 0.5622286295960814 0  0.8264037471914837 0.5621617421657573 0  0.8919993071555428 0.5620759746866552 0  0.9582095666637512 0.5619641492092881 0  1.025088752466271 0.5618157735023785 0  0 0.625 0  0.06289560073390982 0.6249908701014281 0  0.1258075165568275 0.6249813625469757 0  0.1887528472600247 0.6249710810387061 0  0.251750326009757 0.6249595901334314 0  0.3148212724902562 0.6249463917403654 0  0.3779907233506989 0.6249308961807657 0  0.4412888206839558 0.6249123846022869 0  0.504752557350162 0.6248899577598098 0  0.5684279972063585 0.6248624628352059 0  0.6323730997860234 0.6248283834060874 0  0.6966612586235035 0.6247856640921917 0  0.7613855487870453 0.6247314120448194 0  0.8266633213688119 0.6246613524640744 0  0.892639837064937 0.6245687735811619 0  0.9594874629888571 0.6244424158027243 0  1.027393086886701 0.6242623816043588 0  0 0.6875 0  0.06285973922307635 0.6874917111269084 0  0.1257347719043323 0.6874830713587504 0  0.1886412026947143 0.687473711469171 0  0.2515968429946197 0.6874632234697015 0  0.3146222454398296 0.687451137084234 0  0.3777419836871278 0.6874368905126047 0  0.4409863087405593 0.6874197922171056 0  0.5043933655136519 0.6873989688105077 0  0.5680122327291279 0.6873732911365742 0  0.6319071664998861 0.6873412648513201 0  0.6961635951595257 0.6873008594161327 0  0.7608966322686139 0.6872492194748291 0  0.8262630850411798 0.6871821215578517 0  0.8924777927540295 0.6870927979854612 0  0.9598332698163208 0.6869689775595696 0  1.028714237230189 0.6867844224313614 0  0 0.75 0  0.06280870460685813 0.7499928990711012 0  0.1256308813146661 0.7499854919714627 0  0.1884807755845265 0.7499774559237338 0  0.2513742738445601 0.7499684328819638 0  0.3143299281290838 0.7499580080871654 0  0.3773702645900954 0.7499456834575607 0  0.4405235422545777 0.749930843100987 0  0.5038262109810713 0.7499127072532019 0  0.5673264546183363 0.7498902696358797 0  0.6310894357913481 0.7498622117920495 0  0.6952052580117162 0.7498267871370062 0  0.7598013854863198 0.7497816687863156 0  0.8250626455148545 0.7497237585535654 0  0.891264597593221 0.7496489383727059 0  0.9588300936059845 0.7495515437428992 0  1.028416554107638 0.7494216441465767 0  0 0.8125 0  0.06274432138715261 0.8124943891109312 0  0.1254995313215076 0.8124885330289945 0  0.1882771821440234 0.8124821729627349 0  0.2510902436590677 0.8124750211664764 0  0.3139540081426727 0.8124667433898495 0  0.3768872731596724 0.8124569372390641 0  0.4399139747232176 0.812445104511654 0  0.5030655395027178 0.812430615212099 0  0.5663843916931096 0.812412661101383 0  0.6299293467565523 0.8123901990430036 0  0.6937841764081963 0.812361895221322 0  0.7580717425806404 0.8123261215536967 0  0.8229786435205513 0.8122811961479026 0  0.8888021368736975 0.8122265334604784 0  0.9560515718570137 0.8121669473401779 0  1.025685727809756 0.8121283844799558 0  0 0.875 0  0.06266917465003462 0.8749961202319086 0  0.1253460026252984 0.8749920694645493 0  0.1880386234848681 0.8749876671154375 0  0.2507562196235754 0.8749827121692906 0  0.3135096922714573 0.8749769708486604 0  0.3763125588144544 0.8749701615017863 0  0.4391822139033841 0.8749619354363366 0  0.5021417813847421 0.8749518521862918 0  0.5652229334139784 0.8749393476106335 0  0.6284703212246942 0.874923694022023 0  0.691948758184874 0.8749039566844886 0  0.7557552699815591 0.8748789780220271 0  0.8200403334343306 0.8748475631741465 0  0.8850495125059984 0.8748098193947493 0  0.9512312036961474 0.8747751227339619 0  1.01972539356091 0.8748113752328036 0  0 0.9375 0  0.06258649924523613 0.9374980182707555 0  0.1251769446668831 0.9374959488630202 0  0.1877755388653009 0.9374936991786165 0  0.2503870357131929 0.9374911661251044 0  0.3130171006695356 0.9374882298100436 0  0.3756727930630476 0.9374847458381762 0  0.4383632503112169 0.93748053
[...]
<PointData  Vectors="f_54"> 
<DataArray  type="Float64"  Name="f_54"  NumberOfComponents="3" format="ascii">0.0000000000000000e+00 0.0000000000000000e+00 0.0000000000000000e+00  0.0000000000000000e+00 0.0000000000000000e+00 0.0000000000000000e+00  0.0000000000000000e+00 0.0000000000000000e+00 0.0000000000000000e+00  0.0000000000000000e+00 0.0000000000000000e+00 0.0000000000000000e+00  0.0000000000000000e+00 0.0000000000000000e+00 0.0000000000000000e+00  0.0000000000000000e+00 0.0000000000000000e+00 0.0000000000000000e+00  0.0000000000000000e+00 0.0000000000000000e+00 0.0000000000000000e+00  0.0000000000000000e+00 0.0000000000000000e+00 0.0000000000000000e+00  0.0000000000000000e+00 0.0000000000000000e+00 0.0000000000000000e+00  0.0000000000000000e+00 0.0000000000000000e+00 0.0000000000000000e+00  0.0000000000000000e+00 0.0000000000000000e+00 0.0000000000000000e+00  0.0000000000000000e+00 0.0000000000000000e+00 0.0000000000000000e+00  0.0000000000000000e+00 0.0000000000000000e+00 0.0000000000000000e+00  0.0000000000000000e+00 0.0000000000000000e+00 0.0000000000000000e+00  0.0000000000000000e+00 0.0000000000000000e+00 0.0000000000000000e+00  0.0000000000000000e+00 0.0000000000000000e+00 0.0000000000000000e+00  0.0000000000000000e+00 0.0000000000000000e+00 0.0000000000000000e+00  0.0000000000000000e+00 0.0000000000000000e+00 0.0000000000000000e+00  -5.4874288977707531e-07 -2.4436053801139671e-08 0.0000000000000000e+00  -1.0954339737205849e-06 -4.9225655748200302e-08 0.0000000000000000e+00  -1.6349837445828075e-06 -7.4707162136760776e-08 0.0000000000000000e+00  -2.1556906777519161e-06 -1.0119409713327250e-07 0.0000000000000000e+00  -2.6347405512581724e-06 -1.2899127568909199e-07 0.0000000000000000e+00  -3.0320824759750656e-06 -1.5846001993773159e-07 0.0000000000000000e+00  -3.2817231409722252e-06 -1.9017841953891239e-07 0.0000000000000000e+00  -3.2788200833860746e-06 -2.2528053183878926e-07 0.0000000000000000e+00  -2.8593912518002668e-06 -2.6613420667512790e-07 0.0000000000000000e+00  -1.7654707332677828e-06 -3.1769347112632239e-07 0.0000000000000000e+00  4.2233262506930671e-07 -3.9035060915935653e-07 0.0000000000000000e+00  4.4345439490364467e-06 -5.0668832143454330e-07 0.0000000000000000e+00  1.1692872536720780e-05 -7.2016291059225045e-07 0.0000000000000000e+00  2.5398318718655881e-05 -1.1754789687538614e-06 0.0000000000000000e+00  5.4016755085679908e-05 -2.3312483644502068e-06 0.0000000000000000e+00  1.2411880178000610e-04 -5.9081924285811049e-06 0.0000000000000000e+00  0.0000000000000000e+00 0.0000000000000000e+00 0.0000000000000000e+00  -1.1008364236434164e-06 -4.8577328920394799e-08 0.0000000000000000e+00  -2.2006739267270160e-06 -9.7883557518736052e-08 0.0000000000000000e+00  -3.2928499039994035e-06 -1.4860769379446833e-07 0.0000000000000000e+00  -4.3583417270450779e-06 -2.0136553966427050e-07 0.0000000000000000e+00  -5.3573219526833103e-06 -2.5670718042827157e-07 0.0000000000000000e+00  -6.2176945253327054e-06 -3.1520322251003989e-07 0.0000000000000000e+00  -6.8190011283925338e-06 -3.7768606201445758e-07 0.0000000000000000e+00  -6.9692723620926568e-06 -4.4577965612372354e-07 0.0000000000000000e+00  -6.3707224589779459e-06 -5.2294313211377132e-07 0.0000000000000000e+00  -4.5665355376964193e-06 -6.1639613891662942e-07 0.0000000000000000e+00  -8.5286687839030785e-07 -7.4048908512700311e-07 0.0000000000000000e+00  5.8773283268145646e-06 -9.2217152567309217e-07 0.0000000000000000e+00  1.7424869797486566e-05 -1.2079876287073529e-06 0.0000000000000000e+00  3.6807973395310212e-05 -1.6622766534437979e-06 0.0000000000000000e+00  6.8956659331294811e-05 -2.2881159024928750e-06 0.0000000000000000e+00  1.1984677206156380e-04 -2.4787456106199008e-06 0.0000000000000000e+00  0.0000000000000000e+00 0.0000000000000000e+00 0.0000000000000000e+00  -1.6551349605289069e-06 -7.2045230237944123e-08 0.0000000000000000e+00  -3.3161110935163748e-06 -1.4524320286804933e-07 0.0000000000000000e+00  -4.9813058801852955e-06 -2.2066752988432279e-07 0.0000000000000000e+00  -6.6327262733018588e-06 -2.9923318054886915e-07 0.0000000000000000e+00  -8.2247153396794670e-06 -3.8165347249032818e-07 0.0000000000000000e+00  -9.6685994909934846e-06 -4.6847165526428670e-07 0.0000000000000000e+00  -1.0811364596399692e-05 -5.6025202878091896e-07 0.0000000000000000e+00  -1.1405939210322464e-05 -6.5808124457308411e-07 0.0000000000000000e+00  -1.1069996290916247e-05 -7.6462363122238439e-07 0.0000000000000000e+00  -9.2294623671437405e-06 -8.8608046049923035e-07 0.0000000000000000e+00  -5.0428534646598660e-06 -1.0354507430744049e-06 0.0000000000000000e+00  2.6935543728978113e-06 -1.2372615980230505e-06 0.0000000000000000e+00  1.5638926966744861e-05 -1.5329501379802044e-06 0.0000000000000000e+00  3.5896655768785665e-05 -1.9842262120524396e-06 0.0000000000000000e+00  6.5524565678036441e-05 -2.6770096401480679e-06 0.0000000000000000e+00  1.0449025713497210e-04 -3.8146752344855039e-06 0.0000000000000000e+00  0.0000000000000000e+00 0.0000000000000000e+00 0.0000000000000000e+00  -2.2047007256048444e-06 -9.4412419758038832e-08 0.0000000000000000e+00  -4.4297307230863998e-06 -1.9049088969126489e-07 0.0000000000000000e+00  -6.6873148096222771e-06 -2.8977201496923734e-07 0.0000000000000000e+00  -8.9717278664037180e-06 -3.9351666280227123e-07 0.0000000000000000e+00  -1.1246618931793887e-05 -5.0257200394738437e-07 0.0000000000000000e+00  -1.3427538489289895e-05 -6.1726252411433929e-07 0.0000000000000000e+00  -1.5357571791064463e-05 -7.3737960872994839e-07 0.0000000000000000e+00  -1.6773789683508817e-05 -8.6241135075201690e-07 0.0000000000000000e+00  -1.7262518808310482e-05 -9.9226463123950697e-07 0.0000000000000000e+00  -1.6203119993684741e-05 -1.1288731509878051e-06 0.0000000000000000e+00  -1.2705220431997790e-05 -1.2792007924607678e-06 0.0000000000000000e+00  -5.5582192506630749e-06 -1.4600659198289610e-06 0.0000000000000000e+00  6.7546398309212012e-06 -1.7045557322143937e-06 0.0000000000000000e+00  2.5852345940199900e-05 -2.0679772962104599e-06 0.0000000000000000e+00  5.2807666967251337e-05 -2.6271282551929210e-06 0.0000000000000000e+00  8.6695589686909772e-05 -3.4497415171266148e-06 0.0000000000000000e+00  0.0000000000000000e+00 0.0000000000000000e+00 0.0000000000000000e+00  -2.7349872860372490e-06 -1.1516272418041087e-07 0.0000000000000000e+00  -5.5131414520138801e-06 -2.3264588550388567e-07 0.0000000000000000e+00  -8.3702774724391914e-06 -3.5459291682368956e-07 0.0000000000000000e+00  -1.1325610892822325e-05 -4.8275151847497622e-07 0.0000000000000000e+00  -1.4369433473113104e-05 -6.1821156910597664e-07 0.0000000000000000e+00  -1.7445493323780718e-05 -7.6108302634715672e-07 0.0000000000000000e+00  -2.0425666939776923e-05 -9.1013779844590247e-07 0.0000000000000000e+00  -2.3074264830730641e-05 -1.0625101719544868e-06 0.0000000000000000e+00  -2.4999697337923624e-05 -1.2136870023233063e-06 0.0000000000000000e+00  -2.5593327757403517e-05 -1.3582576304335185e-06 0.0000000000000000e+00  -2.3961345383000289e-05 -1.4922593080540692e-06 0.0000000000000000e+00  -1.8869345445380029e-05 -1.6184015915709146e-06 0.0000000000000000e+00  -8.7467224041309411e-06 -1.7557229182025945e-06 0.0000000000000000e+00  8.1573376014643978e-06 -1.9545359565896739e-06 0.0000000000000000e+00  3.3327599648538853e-05 -2.3139020226724013e-06 0.0000000000000000e+00  6.7136275435252462e-05 -2.9886022014936964e-06 0.0000000000000000e+00  0.0000000000000000e+00 0.0000000000000000e+00 0.0000000000000000e+00  -3.2231852190438015e-06 -1.3364081227976427e-07 0.0000000000000000e+00  -6.5200265056400657e-06 -2.7044579775222110e-07 0.0000000000000000e+00  -9.9590926905053589e-06 -4.1338081555238984e-07 0.0000000000000000e+00  -1.3596926652762820e-05 -5.6494474586823639e-07 0.0000000000000000e+00  -1.7468047636632458e-05 -7.2678966485610346e-07 0.0000000000000000e+00  -2.1569491745632325e-05 -8.9915639900092869e-07 0.0000000000000000e+00  -2.5836995360881169e-05 -1.0800648583256774e-06 0.0000000000000000e+00  -3.0109130630532879e-05 -1.2642392819030106e-06 0.0000000000000000e+00  -3.4075121275973945e-05 -1.4418772967770713e-06 0.0000000000000000e+00  -3.7202487600852477e-05 -1.5976902871193342e-06 0.0000000000000000e+00  -3.8643709153483978e-05 -1.7113247287214935e-06 0.0000000000000000e+00  -3.7129528823104362e-05 -1.7615597068477946e-06 0.0000000000000000e+00  -3.0873857018163095e-05 -1.7387403923472693e-06 0.0000000000000000e+00  -1.7542566937841033e-05 -1.6723853117207537e-06 0.0000000000000000e+00  5.6343572248287739e-06 -1.6817414134593279e-06 0.0000000000000000e+00  4.1534485478453688e-05 -2.0508261454796728e-06 0.0000000000000000e+00  0.0000000000000000e+00 0.0000000000000000e+00 0.0000000000000000e+00  -3.6389565402157551e-06 -1.4900548687701740e-07 0.0000000000000000e+00  -7.3874874147348082e-06 -3.0222960166465628e-07 0.0000000000000000e+00  -1.1353822411445913e-05 -4.6372652876219136e-07 0.0000000000000000e+00  -1.5641973514778314e-05 -6.3712795152966640e-07 0.0000000000000000e+00  -2.0346236462595925e-05 -8.2520770667963558e-07 0.0000000000000000e+00  -2.5540703613527782e-05 -1.0291276585106198e-06 0.0000000000000000e+00  -3.1260483777335983e-05 -1.2471812636508540e-06 0.0000000000000000e+00  -3.7469636762957842e-05 -1.4728081919496523e-06 0.0000000000000000e+00  -4.4008477886674415e-05 -1.6916729532502132e-06 0.0000000000000000e+00  -5.0510015905507911e-05 -1.8778324234324294e-06 0.0000000000000000e+00  -5.6272551215232590e-05 -1.9898031064584651e-06 0.0000000000000000e+00  -6.0074747157970897e-05 -1.9693632235229940e-06 0.0000000000000000e+00  -5.9924508495929531e-05 -1.7503292918359036e-06 0.0000000000000000e+00  -5.2749180584362926e-05 -1.2926335391414470e-06 0.0000000000000000e+00  -3.4066288997235663e-05 -6.6854054474168835e-07 0.0000000000000000e+00  2.2810758495801426e-06 -2.3605772812186456e-07 0.0000000000000000e+00  0.0000000000000000e+00 0.0000000000000000e+00 0.0000000000000000e+00  -3.9466703532771976e-06 -1.6020973207517670e-07 0.0000000000000000e+00  -8.0405451643756458e-06 -3.2586890361072064e-07 0.0000000000000000e+00  -1.2432454162215726e-05 -5.0237724816948049e-07 0.0000000000000000e+00  -1.7279624220081991e-05 -6.9493666574418189e-07 0.0000000000000000e+00  -2.2746862105549460e-05 -9.0819062228824120e-07 0.0000000000000000e+00  -2.9004289158244954e-05 -1.1454529292528246e-06 0.0000000000000000e+00  -3.6218450512644223e-05 -1.4072088365857778e-06 0.0000000000000000e+00  -4.4531089297120436e-05 -1.6883832121969736e-06 0.0000000000000000e+00  -5.4015558550102874e-05 -1.9736271902367862e-06 0.0000000000000000e+00  -6.4593815428589407e-05 -2.2296779934102245e-06 0.0000000000000000e+00  -7.5886284583463564e-05 -2.3940693676646710e-06 0.0000000000000000e+00  -8.6952617779216472e-05 -2.3611642945143754e-06 0.0000000000000000e+00  -9.5866867442961231e-05 -1.9721567653488451e-06 0.0000000000000000e+00  -9.9066863346626154e-05 -1.0303316997253747e-06 0.0000000000000000e+00  -9.0447575060147528e-05 6.0614425371694628e-07 0.0000000000000000e+00  -6.0260930663936455e-05 2.7498844211370870e-06 0.0000000000000000e+00  0.0000000000000000e+00 0.0000000000000000e+00 0.0000000000000000e+00  -4.1091013340112919e-06 -1.6603569835796569e-07 0.0000000000000000e+00  -8.3997881635569589e-06 -3.3881253553374409e-07 0.0000000000000000e+00  -1.3062934223754086e-05 -5.2522722444184557e-07 0.0000000000000000e+00  -1.8308178128230243e-05 -7.3241636994031494e-07 0.0000000000000000e+00  -2.4373557538638404e-05 -9.6765895291278264e-07 0.0000000000000000e+00  -3.1534630956047446e-05 -1.2378910854782627e-06 0.0000000000000000e+00  -4.0111095213233188e-05 -1.5484389645071319e-06 0.0000000000000000e+00  -5.0466151407838857e-05 -1.9002245687308255e-06 0.0000000000000000e+00  -6.2988394272838892e-05 -2.2840768679699200e-06 0.0000000000000000e+00  -7.8035510296818128e-05 -2.6697640356087710e-06 0.0000000000000000e+00  -9.5799956453443446e-05 -2.9859498735244456e-06 0.0000000000000000e+00  -1.1602452271942742e-04 -3.0861350523237462e-06 0.0000000000000000e+00  -1.3744803097033985e-04 -2.6977114931553544e-06 0.0000000000000000e+00  -1.5680886736657695e-04 -1.3656685081684444e-06 0.0000000000000000e+00  -1.6722122566200905e-04 1.5487321182312063e-06 0.0000000000000000e+00  -1.5586201057710979e-04 6.6343160000066845e-06 0.0000000000000000e+00  0.0000000000000000e+00 0.0000000000000000e+00 0.0000000000000000e+00  -4.0923389522656063e-06 -1.6520934213439234e-07 0.0000000000000000e+00  -8.3917302354066547e-06 -3.3830666314936747e-07 0.0000000000000000e+00  -1.3120032355286461e-05 -5.2761150246332855e-07 0.0000000000000000e+00  -1.8530209840501475e-05 -7.4230111414815431e-07 0.0000000000000000e+00  -2.4925140050383704e-05 -9.9277552328377455e-07 0.0000000000000000e+00  -3.2680173462404412e-05 -1.2908363301814402e-06 0.0000000000000000e+00  -4.2270015127848478e-05 -1.6493577952534845e-06 0.0000000000000000e+00  -5.4298744021015602e-05 -2.0807064934249289e-06 0.0000000000000000e+00  -6.9527261395835641e-05 -2.5922597109808272e-06 0.0000000000000000e+00  -8.8881734974086981e-05 -3.1754751318125685e-06 0.0000000000000000e+00  -1.1340277195701769e-04 -3.7811473015756996e-06 0.0000000000000000e+00  -1.4404539150889589e-04 -4.2663901948747599e-06 0.0000000000000000e+00  -1.8114517482891086e-04 -4.2879075004137372e-06 0.0000000000000000e+00  -2.2321179273670743e-04 -3.1077377273065506e-06 0.0000000000000000e+00  -2.6453962501805808e-04 6.9174885289936090e-07 0.0000000000000000e+00  -2.9116286681150650e-04 9.3924079973911676e-06 0.0000000000000000e+00  0.0000000000000000e+00 0.0000000000000000e+00 0.0000000000000000e+00  -3.8713767090271694e-06 -1.5660359430335958e-07 0.0000000000000000e+00  -7.9608375424442579e-06 -3.2182153464326002e-07 0.0000000000000000e+00  -1.2505580392042098e-05 -5.0498981777915654e-07 0.0000000000000000e+00  -1.7783844757769320e-05 -7.1697817791411606e-07 0.0000000000000000e+00  -2.4141877356478695e-05 -9.7114261627248892e-07 0.0000000000000000e+00  -3.2029542706147892e-05 -1.2844753421843007e-06 0.0000000000000000e+00  -4.2048856723850690e-05 -1.6789159243710249e-06 0.0000000000000000e+00  -5.5020501774047305e-05 -2.1825233893146214e-06 0.0000000000000000e+00  -7.2073002955932048e-05 -2.8294657337216529e-06 0.0000000000000000e+00  -9.4754615566393683e-05 -3.6557932422131246e-06 0.0000000000000000e+00  -1.2515079744270674e-04 -4.6827921519698852e-06 0.0000000000000000e+00  -1.6593952894586761e-04 -5.8666414641888904e-06 0.0000000000000000e+00  -2.2018446836986392e-04 -6.9613925643400588e-06 0.0000000000000000e+00  -2.9035873497432348e-04 -7.1721835422606891e-06 0.0000000000000000e+00  -3.7550893749966534e-04 -4.3552193070503757e-06 0.0000000000000000e+00  -4.6482421996895258e-04 6.5221816272114901e-06 0.0000000000000000e+00  0.0000000000000000e+00 0.0000000000000000e+00 0.0000000000000000e+00  -3.4355516552996941e-06 -1.3951008001645169e-07 0.0000000000000000e+00  -7.0814853027104854e-06 -2.8765196403408438e-07 0.0000000000000000e+00  -1.1169306447840878e-05 -4.5399730146227968e-07 0.0000000000000000e+00  -1.5976556743945973e-05 -6.5018551077778651e-07 0.0000000000000000e+00  -2.1858768119826855e-05 -8.9141603787022481e-07 0.0000000000000000e+00  -2.9294210571259249e-05 -1.1986003493212486e-06 0.0000000000000000e+00  -3.8949572135013962e-05 -1.6015853131810332e-06 0.0000000000000000e+00  -5.1779058314609482e-05 -2.1440222278171111e-06 0.0000000000000000e+00  -6.9176063989931195e-05 -2.8905509105324554e-06 0.0000000000000000e+00  -9.3205611215940002e-05 -3.9365567001226739e-06 0.0000000000000000e+00  -1.2695389463786050e-04 -5.4182286721425513e-06 0.0000000000000000e+00  -1.7502201631224338e-04 -7.5103784221832115e-06 0.0000000000000000e+00  -2.4410168481600884e-04 -1.0362195201053135e-05 0.0000000000000000e+00  -3.4319537362287593e-04 -1.3792120478926451e-05 0.0000000000000000e+00  -4.8183214614385441e-04 -1.6144370675499433e-05 0.0000000000000000e+00  -6.6205708636783169e-04 -1.0637118317751557e-05 0.0000000000000000e+00  0.0000000000000000e+00 0.0000000000000000e+00 0.0000000000000000e+00  -2.7927809472405787e-06 -1.1392360113303743e-07 0.0000000000000000e+00  -5.7675293104077134e-06 -2.3557241387219843e-07 0.0000000000000000e+00  -9.1262459972787711e-06 -3.7366851179879244e-07 0.0000000000000000e+00  -1.3115054761566930e-05 -5.3917453095415921e-07 0.0000000000000000e+00  -1.8056023504632215e-05 -7.4705169604690616e-07 0.0000000000000000e+00  -2.4393522600177185e-05 -1.0190161443357594e-06 0.0000000000000000e+00  -3.2765633987335200e-05 -1.3881128077361526e-06 0.0000000000000000e+00  -4.4118542164689052e-05 -1.9065964029483870e-06 0.0000000000000000e+00  -5.9895603950565816e-05 -2.6598988546039112e-06 0.0000000000000000e+00  -8.2358509585717549e-05 -3.7919347272802942e-06 0.0000000000000000e+00  -1.1514570426699766e-04 -5.5516017925707012e-06 0.0000000000000000e+00  -1.6425771427734079e-04 -8.3779766969242462e-06 0.0000000000000000e+00  -2.3978141609148573e-04 -1.3048434373079756e-05 0.0000000000000000e+00  -3.5868155954746404e-04 -2.0876681769382155e-05 0.0000000000000000e+00  -5.4781867855519060e-04 -3.3543447075224966e-05 0.0000000000000000e+00  -8.3742124917755140e-04 -4.8918000619620791e-05 0.0000000000000000e+00  0.0000000000000000e+00 0.0000000000000000e+00 0.0000000000000000e+00  -1.9715187128798908e-06 -8.0754924871766455e-08 0.0000000000000000e+00  -4.0770277510663308e-06 -1.6735160709001356e-07 0.0000000000000000e+00  -6.4661604236613194e-06 -2.6647024100921620e-07 0.0000000000000000e+00  -9.3232437994746511e-06 -3.8670059143501152e-07 0.0000000000000000e+00  -1.2892952214587561e-05 -5.4011554170661338e-07 0.0000000000000000e+00  -1.7518640057555033e-05 -7.4485306360601559e-07 0.0000000000000000e+00  -2.3703226905976755e-05 -1.0296286361347525e-06 0.0000000000000000e+00  -3.2210479634973474e-05 -1.4419968709705284e-06 0.0000000000000000e+00  -4.4240649369443312e-05 -2.0641194277588201e-06 0.0000000000000000e+00  -6.1748318043822024e-05 -3.0441639651658525e-06 0.0000000000000000e+00  -8.8045111087325484e-05 -4.6618351612189385e-06 0.0000000000000000e+00  -1.2900382060218108e-04 -7.4729141719162761e-06 0.0000000000000000e+00  -1.9560653015819444e-04 -1.2651126293450325e-05 0.0000000000000000e+00  -3.0967426064594630e-04 -2.2878812281949829e-05 0.0000000000000000e+00  -5.1754953926376219e-04 -4.5043117793399731e-05 0.0000000000000000e+00  -9.2526577019506841e-04 -1.0096568368952884e-04 0.0000000000000000e+00  0.0000000000000000e+00 0.0000000000000000e+00 0.0000000000000000e+00  -1.0196340601788405e-06 -4.1884041762389669e-08 0.0000000000000000e+00  -2.1101972246612509e-06 -8.6912821513301269e-08 0.0000000000000000e+00  -3.3511527474642931e-06 -1.3870865552032744e-07 0.0000000000000000e+00  -4.8409592315710517e-06 -2.0198905155064841e-07 0.0000000000000000e+00  -6.7112934187980347e-06 -2.8349161364620560e-07 0.0000000000000000e+00  -9.1485716490255515e-06 -3.9352496117228157e-07 0.0000000000000000e+00  -1.2428654432515066e-05 -5.4874349623837863e-07 0.0000000000000000e+00  -1.6975663669765732e-05 -7.7735940404928385e-07 0.0000000000000000e+00  -2.3466445944522393e-05 -1.1293747123563918e-06 0.0000000000000000e+00  -3.3025742383206649e-05 -1.6975892131852410e-06 0.0000000000000000e+00  -4.7613008887343118e-05 -2.6628351672292316e-06 0.0000000000000000e+00  -7.0845845157747894e-05 -4.3964612935782730e-06 0.0000000000000000e+00  -1.0991295930806109e-04 -7.7051442427013114e-06 0.0000000000000000e+00  -1.8051157996238352e-04 -1.4445377211991656e-05 0.0000000000000000e+00  -3.2116196294905945e-04 -2.9102720674108325e-05 0.0000000000000000e+00  -6.3798533111790055e-04 -6.2365999262146759e-05 0.0000000000000000e+00  0.0000000000000000e+00 0.0000000000000000e+00 0.0000000000000000e+00  0.0000000000000000e+00 0.0000000000000000e+00 0.0000000000000000e+00  0.0000000000000000e+00 0.0000000000000000e+00 0.0000000000000000e+00  0.0000000000000000e+00 0.0000000000000000e+00 0.0000000000000000e+00  0.0000000000000000e+00 0.0000000000000000e+00 0.0000000000000000e+00  0.0000000000000000e+00 0.0000000000000000e+00 0.0000000