<?xml version="1.0"?>
<VTKFile type="UnstructuredGrid"  version="0.1"  >
<UnstructuredGrid>
<Piece  NumberOfPoints="289" NumberOfCells="512">
<Points>
<DataArray  type="Float64"  NumberOfComponents="3"  format="ascii">0 0 0  0.0625 0 0  0.125 0 0  0.1875 0 0  0.25 0 0  0.3125 0 0  0.375 0 0  0.4375 0 0  0.5 0 0  0.5625 0 0  0.625 0 0  0.6875 0 0  0.75 0 0  0.8125 0 0  0.875 0 0  0.9375 0 0  1 0 0  0 0.0625 0  0.06244146729555806 0.06248634623585034 0  0.1248816534309541 0.06247244815568041 0  0.1873193198746604 0.0624580826900542 0  0.2497533871944293 0.06244307835680479 0  0.3121830527025022 0.06242734899215224 0  0.3746079591108235 0.06241093622725736 0  0.4370284380117203 0.06239406140490241 0  0.4994458599130951 0.06237718430665776 0  0.5618631377413094 0.0623610601251575 0  0.6242854637026051 0.06234677688521061 0  0.686721437191435 0.0623357443152477 0  0.7491849290765324 0.06232960129314951 0  0.8116984543620251 0.06233005086263556 0  0.8742995545389035 0.0623388717497738 0  0.937051086301335 0.06235949061607171 0  1.000037467809238 0.06240820201663138 0  0 0.125 0  0.06238427766964974 0.1249729332364734 0  0.1247659316242389 0.1249453529442445 0  0.1871424145929485 0.1249167849898156 0  0.2495114730554371 0.1248868520434272 0  0.3118713694390776 0.1248553387736372 0  0.3742212055091455 0.1248222763113257 0  0.4365613942449922 0.1247880491266644 0  0.4988943417642106 0.1247535217952625 0  0.561225425079515 0.1247201719869174 0  0.6235643970328453 0.124690196359082 0  0.6859274413396443 0.1246665251794249 0  0.7483402826131161 0.1246526404856578 0  0.8108430776829406 0.1246520546441973 0  0.8734982455403286 0.1246673061666546 0  0.9364029904666571 0.1246983190392334 0  0.9997155770020444 0.1247382038335826 0  0 0.1875 0  0.06232981434950626 0.1874600332811364 0  0.1246555394503616 0.1874192380146937 0  0.1869731756441105 0.1873768367596682 0  0.2492790959002183 0.187332180572603 0  0.3115703401791085 0.1872848401003124 0  0.3738450554861481 0.1872347291723704 0  0.436103149172393 0.1871822697400597 0  0.4983472394546252 0.1871286014213816 0  0.5605840078551769 0.1870758256638939 0  0.6228260830593153 0.1870272470881104 0  0.6850946098901003 0.1869875220468445 0  0.7474226544220373 0.1869625270233693 0  0.8098594660814059 0.1869585707422044 0  0.8724750855981805 0.1869801485355508 0  0.9353634707741274 0.1870242740198022 0  0.9986408815715061 0.1870660883355628 0  0 0.25 0  0.06227958146840744 0.2499479640849453 0  0.1245534509620317 0.2498947248196259 0  0.1868159682178762 0.2498391315948814 0  0.2490618611026113 0.2497801722798109 0  0.3112865426673465 0.249717079717257 0  0.3734866092525948 0.2496494860008168 0  0.4356606048885343 0.2495776430319185 0  0.4978101552380444 0.2495027263572694 0  0.5599415886982266 0.2494272305570836 0  0.6220681595285307 0.2493554398508057 0  0.6842129379537076 0.2492939015380906 0  0.7464122705532659 0.2492517160552903 0  0.8087193152661202 0.2492402461820872 0  0.871206333998558 0.2492715029464449 0  0.9339631187454703 0.249354092714844 0  0.997087658410364 0.2494861818991958 0  0 0.3125 0  0.06223522961203139 0.3124371023763015 0  0.1244629736555148 0.3123725636852356 0  0.1866757616659218 0.3123047835762007 0  0.2488663823063244 0.3122322798694878 0  0.311028159610586 0.312153793397616 0  0.373155433211825 0.3120684550311593 0  0.4352443450613397 0.3119760459918242 0  0.4972940604768334 0.3118773898517634 0  0.5593085708478195 0.3117749191789457 0  0.6212992182003954 0.311673453347205 0  0.6832880066314044 0.3115811890212325 0  0.7453115517000776 0.3115108082521943 0  0.8074250768156547 0.3114803994868562 0  0.8697051738715583 0.3115135129941654 0  0.9322494221444078 0.3116371687873398 0  0.9951715386407064 0.3118762704434581 0  0 0.375 0  0.06219854149225783 0.3749278865989607 0  0.1243877296370766 0.374853643072342 0  0.1865581269782812 0.3747751516414163 0  0.2487003299384056 0.3746903549977261 0  0.3108051301961505 0.3745973353136684 0  0.3728638849500416 0.3744944636880845 0  0.4348692152636809 0.374380663396143 0  0.4968161945414185 0.3742558501126356 0  0.558704235464363 0.3741216386591527 0  0.620539913924643 0.3739824350021262 0  0.6823409398063874 0.3738470495991577 0  0.7441413219233776 0.3737309345944848 0  0.8059973862419679 0.3736589777944275 0  0.8679936788965754 0.3736683347528712 0  0.930247228937413 0.3738098823030689 0  0.9929090924340013 0.3741455320601287 0  0 0.4375 0  0.06217137003834137 0.4374208049666117 0  0.1243315366573284 0.4373389685969228 0  0.1864690719731177 0.4372518166281819 0  0.2485722420467154 0.4371566374839619 0  0.3106289738565976 0.4370507059124862 0  0.3726270085531775 0.4369313725212143 0  0.4345543708391154 0.4367962689739968 0  0.4964003544215307 0.4366437112145946 0  0.5581573209150954 0.4364734356637381 0  0.6198237281792713 0.4362878831303852 0  0.6814089123349875 0.4360943530666996 0  0.7429401624492641 0.4359084601368244 0  0.8044723882824004 0.4357593306195545 0  0.8660999893793252 0.4356966047143861 0  0.9279694082880444 0.4357980652580711 0  0.9902902387038278 0.4361741676791765 0  0 0.5 0  0.06215552586806557 0.4999163660797079 0  0.1242981809563533 0.4998296049211013 0  0.186414697245759 0.4997364970607288 0  0.2484910661061034 0.4996336529302045 0  0.3105122348627603 0.4995174512151139 0  0.3724619274463758 0.4993840200441276 0  0.4343227117671408 0.4992293046965023 0  0.4960765358759325 0.4990493050362355 0  0.5577061196085434 0.4988406388022265 0  0.6191978445462539 0.4986017182603614 0  0.6805471442009561 0.4983350540186535 0  0.7417678014342531 0.4980515546804616 0  0.8029067677236145 0.4977781351419117 0  0.8640655326153632 0.4975701507617242 0  0.9254268384988212 0.4975290824329104 0  0.9872821392276767 0.4978215051368857 0  0 0.5625 0  0.06215261726603438 0.5624150515774727 0  0.124291085901122 0.5623265780695346 0  0.1864006727059529 0.5622308959875162 0  0.2484654185630645 0.562123999241669 0  0.3104675073679207 0.5620013901536874 0  0.3723866476218795 0.5618579101874158 0  0.4341995483260303 0.5616875906387224 0  0.4958796851772821 0.5614835764862877 0  0.5573977752700801 0.5612382476597163 0  0.6187237915514083 0.5609438138666287 0  0.6798320681690574 0.5605939786713335 0  0.7407121707728581 0.5601879165574409 0  0.8013895851627897 0.5597390140177753 0  0.8619609062441911 0.5592926437756901 0  0.9226451692745347 0.5589583982917528 0  0.9838416941881827 0.5589575814898413 0  0 0.625 0  0.06216385376032271 0.6249172539031181 0  0.1243128966827755 0.6248307434315324 0  0.1864315591710505 0.6247364838853267 0  0.2485025797983106 0.6246300212124402 0  0.3105060297732925 0.624506151170817 0  0.3724181909832718 0.6243585810009777 0  0.4342102813283517 0.6241795140196416 0  0.4958471126986966 0.6239591457654559 0  0.5572859897528109 0.623685091824401 0  0.6184766634411957 0.6233418650224626 0  0.6793642330018075 0.6229107984473177 0  0.7398990297730922 0.6223715718180128 0  0.8000612679877844 0.6217084748304945 0  0.8599132334420679 0.6209291930482801 0  0.9196931774683544 0.6201122561283522 0  0.9799495880529061 0.6195027142694692 0  0 0.6875 0  0.06218983395278037 0.687423206702366 0  0.1243650221182077 0.687342634760109 0  0.1865100343192093 0.6872542408414731 0  0.2486072938456745 0.6871534029159182 0  0.3106359049568405 0.6870345482938449 0  0.3725700497048173 0.686890667244838 0  0.4343769148482517 0.6867126467380772 0  0.4960140212994916 0.6864883291185161 0  0.5574259380271221 0.6862011566920218 0  0.6185407541480342 0.6858282113000831 0  0.6792678143764581 0.6853374524909221 0  0.7395011596670702 0.6846842576991609 0  0.7991400787954063 0.6838090105452626 0  0.8581525436131441 0.682644226711087 0  0.9167270787972847 0.6811627778060739 0  0.9755426714506209 0.6795387210888127 0  0 0.75 0  0.06223034817275474 0.7499329195045354 0  0.1244471977110185 0.7498623193668498 0  0.1866361254672679 0.7497844007050528 0  0.2487805163238174 0.7496947440984715 0  0.3108601220756578 0.7495878935750858 0  0.3728491281679586 0.749456788525689 0  0.4347134412277514 0.7492919445676312 0  0.4964067903501927 0.7490802219532061 0  0.5578650955910368 0.7488029018893871 0  0.6189985018540393 0.7484325583811073 0  0.6796809046053278 0.7479277458848224 0  0.7397390464566618 0.7472236274097258 0  0.7989515337786637 0.7462153595642647 0  0.8570945945867744 0.7447319840035855 0  0.9141442706628431 0.7425246816990893 0  0.970805183313601 0.7395370438846801 0  0 0.8125 0  0.06228423412975331 0.8124461305726633 0  0.1245571538140708 0.8123892906799852 0  0.1868065938233223 0.8123262533858434 0  0.2490183386239098 0.8122532160316218 0  0.3111747172585339 0.8121654052192685 0  0.3732526314875247 0.8120565262438251 0  0.4352206280398031 0.8119179537062261 0  0.4970343744248864 0.8117374934587656 0  0.5586294569950579 0.8114974164120169 0  0.6199096698620632 0.8111711864356184 0  0.6807277994860252 0.8107176304870647 0  0.7408546613380154 0.8100694763429637 0  0.799933742452518 0.8091078758633516 0  0.8574393142048343 0.8075984326918788 0  0.9127800207054616 0.8050125019248594 0  0.9664900677048224 0.7999417322894097 0  0 0.875 0  0.062349325178108 0.874962290728647 0  0.1246904796749725 0.8749224276958198 0  0.1870146379492725 0.8748780608868013 0  0.2493113795735817 0.8748263972076575 0  0.3115675646409247 0.8747638934058477 0  0.3737657071073004 0.8746858260015213 0  0.4358814676219254 0.8745856613400862 0  0.4978795931823346 0.8744541108244731 0  0.5597070457118519 0.8742777013319272 0  0.6212808544101367 0.8740366151458909 0  0.6824656255400354 0.8737014314825384 0  0.7430297716749065 0.873228013966832 0  0.802555729878321 0.8725477553175605 0  0.860247109785363 0.8715394654334659 0  0.9145122259685236 0.8699150593921654 0  0.9621833802750852 0.8666758623965435 0  0 0.9375 0  0.06242252221524133 0.9374805860873296 0  0.124840758014927 0.9374600400715652 0  0.1872500649545656 0.937437123608609 0  0.2496449283965731 0.9374103578444741 0  0.3120183369241639 0.9373778563231757 0  0.3743608643168068 0.9373370917451124 0  0.43665922713
[...]
<PointData  Vectors="f_54"> 
<DataArray  type="Float64"  Name="f_54"  NumberOfComponents="3" format="ascii">0.0000000000000000e+00 0.0000000000000000e+00 0.0000000000000000e+00  0.0000000000000000e+00 0.0000000000000000e+00 0.0000000000000000e+00  0.0000000000000000e+00 0.0000000000000000e+00 0.0000000000000000e+00  0.0000000000000000e+00 0.0000000000000000e+00 0.0000000000000000e+00  0.0000000000000000e+00 0.0000000000000000e+00 0.0000000000000000e+00  0.0000000000000000e+00 0.0000000000000000e+00 0.0000000000000000e+00  0.0000000000000000e+00 0.0000000000000000e+00 0.0000000000000000e+00  0.0000000000000000e+00 0.0000000000000000e+00 0.0000000000000000e+00  0.0000000000000000e+00 0.0000000000000000e+00 0.0000000000000000e+00  0.0000000000000000e+00 0.0000000000000000e+00 0.0000000000000000e+00  0.0000000000000000e+00 0.0000000000000000e+00 0.0000000000000000e+00  0.0000000000000000e+00 0.0000000000000000e+00 0.0000000000000000e+00  0.0000000000000000e+00 0.0000000000000000e+00 0.0000000000000000e+00  0.0000000000000000e+00 0.0000000000000000e+00 0.0000000000000000e+00  0.0000000000000000e+00 0.0000000000000000e+00 0.0000000000000000e+00  0.0000000000000000e+00 0.0000000000000000e+00 0.0000000000000000e+00  0.0000000000000000e+00 0.0000000000000000e+00 0.0000000000000000e+00  0.0000000000000000e+00 0.0000000000000000e+00 0.0000000000000000e+00  -4.4337208412628194e-07 -2.8819198989993158e-08 0.0000000000000000e+00  -9.2472250236019950e-07 -5.8769887280975655e-08 0.0000000000000000e+00  -1.4860722490059683e-06 -9.1047441884213571e-08 0.0000000000000000e+00  -2.1775861556028312e-06 -1.2695510184882493e-07 0.0000000000000000e+00  -3.0625668116047922e-06 -1.6796064030246011e-07 0.0000000000000000e+00  -4.2236674756442107e-06 -2.1575022442241425e-07 0.0000000000000000e+00  -5.7710569972015475e-06 -2.7226690313706346e-07 0.0000000000000000e+00  -7.8539164355537977e-06 -3.3970597909316212e-07 0.0000000000000000e+00  -1.0678364810750973e-05 -4.2041394139957233e-07 0.0000000000000000e+00  -1.4539589427996108e-05 -5.1659568568584085e-07 0.0000000000000000e+00  -1.9889144049001780e-05 -6.2965420431681698e-07 0.0000000000000000e+00  -2.7497466274687980e-05 -7.5874436262477576e-07 0.0000000000000000e+00  -3.8895365799281707e-05 -8.9703695925174377e-07 0.0000000000000000e+00  -5.7700249278004976e-05 -1.0186802250676420e-06 0.0000000000000000e+00  -9.3985734788055924e-05 -1.0211174806026450e-06 0.0000000000000000e+00  -1.7993559497257676e-04 -4.4301624809664630e-07 0.0000000000000000e+00  0.0000000000000000e+00 0.0000000000000000e+00 0.0000000000000000e+00  -8.4770057199552514e-07 -5.6439266059228632e-08 0.0000000000000000e+00  -1.7672516493779661e-06 -1.1508144757066634e-07 0.0000000000000000e+00  -2.8381475781898531e-06 -1.7825330590943513e-07 0.0000000000000000e+00  -4.1553305503565805e-06 -2.4849415158470753e-07 0.0000000000000000e+00  -5.8386241405931376e-06 -3.2867251035201820e-07 0.0000000000000000e+00  -8.0443413661555167e-06 -4.2210573768788340e-07 0.0000000000000000e+00  -1.0980142784890605e-05 -5.3266486690902319e-07 0.0000000000000000e+00  -1.4924860887145088e-05 -6.6482080776547041e-07 0.0000000000000000e+00  -2.0256603485592937e-05 -8.2354371283003288e-07 0.0000000000000000e+00  -2.7496393202220833e-05 -1.0139057594144706e-06 0.0000000000000000e+00  -3.7384050963556014e-05 -1.2401939937983092e-06 0.0000000000000000e+00  -5.1024323565127157e-05 -1.5045004786950854e-06 0.0000000000000000e+00  -7.0182623639876028e-05 -1.8060055284595085e-06 0.0000000000000000e+00  -9.7853098059180377e-05 -2.1488842822157378e-06 0.0000000000000000e+00  -1.3901833225189126e-04 -2.6018622830568208e-06 0.0000000000000000e+00  -1.9935292913240751e-04 -3.6414340091841509e-06 0.0000000000000000e+00  0.0000000000000000e+00 0.0000000000000000e+00 0.0000000000000000e+00  -1.1789516159334496e-06 -8.1778117501662880e-08 0.0000000000000000e+00  -2.4560601216666439e-06 -1.6672060838306563e-07 0.0000000000000000e+00  -3.9399503999941301e-06 -2.5816726358597465e-07 0.0000000000000000e+00  -5.7605475873725980e-06 -3.5976641638200648e-07 0.0000000000000000e+00  -8.0820751791982073e-06 -4.7565462848105813e-07 0.0000000000000000e+00  -1.1118916169057287e-05 -6.1065881192517906e-07 0.0000000000000000e+00  -1.5155396003968219e-05 -7.7051073942407940e-07 0.0000000000000000e+00  -2.0570645637886529e-05 -9.6203295132410133e-07 0.0000000000000000e+00  -2.7869885782021401e-05 -1.1931922717303102e-06 0.0000000000000000e+00  -3.7723769875005236e-05 -1.4728025715994313e-06 0.0000000000000000e+00  -5.1017414973160966e-05 -1.8094693078224982e-06 0.0000000000000000e+00  -6.8907542622225835e-05 -2.2090669522521606e-06 0.0000000000000000e+00  -9.2866593784897609e-05 -2.6693926821528104e-06 0.0000000000000000e+00  -1.2460777070773314e-04 -3.1678505191324522e-06 0.0000000000000000e+00  -1.6548410345283558e-04 -3.6209459762947601e-06 0.0000000000000000e+00  -2.1413645137831856e-04 -3.6860674501147709e-06 0.0000000000000000e+00  0.0000000000000000e+00 0.0000000000000000e+00 0.0000000000000000e+00  -1.4107275467167702e-06 -1.0386625959378639e-07 0.0000000000000000e+00  -2.9355899693321964e-06 -2.1170376464556597e-07 0.0000000000000000e+00  -4.7009666784547263e-06 -3.2769589991072475e-07 0.0000000000000000e+00  -6.8584453953029971e-06 -4.5641002642955660e-07 0.0000000000000000e+00  -9.6003385178438287e-06 -6.0303551897055722e-07 0.0000000000000000e+00  -1.3178687440402008e-05 -7.7367710096160013e-07 0.0000000000000000e+00  -1.7928787619059943e-05 -9.7571841826430746e-07 0.0000000000000000e+00  -2.4297824204921687e-05 -1.2182498095154621e-06 0.0000000000000000e+00  -3.2878050061306987e-05 -1.5124935124956078e-06 0.0000000000000000e+00  -4.4441209567924710e-05 -1.8720159389074334e-06 0.0000000000000000e+00  -5.9964673927548984e-05 -2.3122203723831141e-06 0.0000000000000000e+00  -8.0625443630221393e-05 -2.8480744152206194e-06 0.0000000000000000e+00  -1.0770526605407722e-04 -3.4881953612301256e-06 0.0000000000000000e+00  -1.4227740270255282e-04 -4.2226323895066389e-06 0.0000000000000000e+00  -1.8440778350045076e-04 -5.0040508168420181e-06 0.0000000000000000e+00  -2.3145924005440763e-04 -5.7510623237451727e-06 0.0000000000000000e+00  0.0000000000000000e+00 0.0000000000000000e+00 0.0000000000000000e+00  -1.5270808886101863e-06 -1.2189289067004149e-07 0.0000000000000000e+00  -3.1721337524446289e-06 -2.4837543625144254e-07 0.0000000000000000e+00  -5.0658843888916891e-06 -3.8426383101380097e-07 0.0000000000000000e+00  -7.3657890837410176e-06 -5.3479624199786206e-07 0.0000000000000000e+00  -1.0272865314717220e-05 -7.0590859183756261e-07 0.0000000000000000e+00  -1.4052767046825626e-05 -9.0460254370792716e-07 0.0000000000000000e+00  -1.9062449581640503e-05 -1.1394616237381876e-06 0.0000000000000000e+00  -2.5783222378519933e-05 -1.4213832768363319e-06 0.0000000000000000e+00  -3.4859417952151322e-05 -1.7645787159282738e-06 0.0000000000000000e+00  -4.7138194325747200e-05 -2.1877891347609094e-06 0.0000000000000000e+00  -6.3698108625982869e-05 -2.7153524159517751e-06 0.0000000000000000e+00  -8.5838653187528290e-05 -3.3770205341070681e-06 0.0000000000000000e+00  -1.1497521589509059e-04 -4.2040485627460290e-06 0.0000000000000000e+00  -1.5234093638977472e-04 -5.2171895679080767e-06 0.0000000000000000e+00  -1.9835160081968042e-04 -6.4014354978773505e-06 0.0000000000000000e+00  -2.5151297339892365e-04 -7.6666957044073562e-06 0.0000000000000000e+00  0.0000000000000000e+00 0.0000000000000000e+00 0.0000000000000000e+00  -1.5243540290381641e-06 -1.3524069108737598e-07 0.0000000000000000e+00  -3.1577403168146742e-06 -2.7548484244187895e-07 0.0000000000000000e+00  -5.0210068244004467e-06 -4.2594899176841089e-07 0.0000000000000000e+00  -7.2604212946282481e-06 -5.9225640933998461e-07 0.0000000000000000e+00  -1.0064331163864518e-05 -7.8070922607019987e-07 0.0000000000000000e+00  -1.3684936338847921e-05 -9.9867359048069944e-07 0.0000000000000000e+00  -1.8467287131735815e-05 -1.2551776694454231e-06 0.0000000000000000e+00  -2.4887576504650852e-05 -1.5618899643925062e-06 0.0000000000000000e+00  -3.3601961186456415e-05 -1.9347315814882768e-06 0.0000000000000000e+00  -4.5504490422215293e-05 -2.3964331131714884e-06 0.0000000000000000e+00  -6.1786442181276615e-05 -2.9802177760470484e-06 0.0000000000000000e+00  -8.3976784998529216e-05 -3.7340889121936745e-06 0.0000000000000000e+00  -1.1392187730164459e-04 -4.7231599749838497e-06 0.0000000000000000e+00  -1.5363285263371627e-04 -6.0230108670447321e-06 0.0000000000000000e+00  -2.0490573244341819e-04 -7.6895266863791263e-06 0.0000000000000000e+00  -2.6864343271249349e-04 -9.6809428953170650e-06 0.0000000000000000e+00  0.0000000000000000e+00 0.0000000000000000e+00 0.0000000000000000e+00  -1.4118085604372053e-06 -1.4350203115704522e-07 0.0000000000000000e+00  -2.9116853393634477e-06 -2.9222399629121141e-07 0.0000000000000000e+00  -4.5970127029616085e-06 -4.5155845739489016e-07 0.0000000000000000e+00  -6.5860432182859007e-06 -6.2723220868579753e-07 0.0000000000000000e+00  -9.0324750566138207e-06 -8.2551724298106071e-07 0.0000000000000000e+00  -1.2145796927250971e-05 -1.0535324393043012e-06 0.0000000000000000e+00  -1.6220552948240297e-05 -1.3197542291135115e-06 0.0000000000000000e+00  -2.1678674265703104e-05 -1.6349824901057989e-06 0.0000000000000000e+00  -2.9129948061669642e-05 -2.0142396081498848e-06 0.0000000000000000e+00  -3.9455830194255220e-05 -2.4804451664474076e-06 0.0000000000000000e+00  -5.3919577084614304e-05 -3.0711356317301190e-06 0.0000000000000000e+00  -7.4298113727082059e-05 -3.8495683948887483e-06 0.0000000000000000e+00  -1.0301377209289024e-04 -4.9199592564328151e-06 0.0000000000000000e+00  -1.4321370011673078e-04 -6.4404579124612097e-06 0.0000000000000000e+00  -1.9870849494117116e-04 -8.6127303634961308e-06 0.0000000000000000e+00  -2.7367332152249959e-04 -1.1603611154246352e-05 0.0000000000000000e+00  0.0000000000000000e+00 0.0000000000000000e+00 0.0000000000000000e+00  -1.2108302709593430e-06 -1.4647076180578596e-07 0.0000000000000000e+00  -2.4790484347196807e-06 -2.9821114899024367e-07 0.0000000000000000e+00  -3.8673149253675666e-06 -4.6060754660551991e-07 0.0000000000000000e+00  -5.4511964900289441e-06 -6.3927053109257202e-07 0.0000000000000000e+00  -7.3293044848047694e-06 -8.4013089449084019e-07 0.0000000000000000e+00  -9.6390745108525698e-06 -1.0695403343776207e-06 0.0000000000000000e+00  -1.2582188866285047e-05 -1.3344501354526942e-06 0.0000000000000000e+00  -1.6465947373523088e-05 -1.6428882720663201e-06 0.0000000000000000e+00  -2.1770261144880361e-05 -2.0052990572269463e-06 0.0000000000000000e+00  -2.9254335740957183e-05 -2.4380373122962460e-06 0.0000000000000000e+00  -4.0121600551517679e-05 -2.9716706465808726e-06 0.0000000000000000e+00  -5.6262873151247490e-05 -3.6688062262760250e-06 0.0000000000000000e+00  -8.0588474357365828e-05 -4.6578485726116689e-06 0.0000000000000000e+00  -1.1742658910071863e-04 -6.1856763621461906e-06 0.0000000000000000e+00  -1.7289814465088166e-04 -8.6719064982627966e-06 0.0000000000000000e+00  -2.5511725552510944e-04 -1.2698881081575986e-05 0.0000000000000000e+00  0.0000000000000000e+00 0.0000000000000000e+00 0.0000000000000000e+00  -9.5254965802159650e-07 -1.4410979076461557e-07 0.0000000000000000e+00  -1.9259892072340002e-06 -2.9341558711230145e-07 0.0000000000000000e+00  -2.9411730468277157e-06 -4.5318196610893428e-07 0.0000000000000000e+00  -4.0208371571923583e-06 -6.2879925374883489e-07 0.0000000000000000e+00  -5.1927778544720659e-06 -8.2574929389916398e-07 0.0000000000000000e+00  -6.4971189086847588e-06 -1.0494350021488938e-06 0.0000000000000000e+00  -8.0016935869546648e-06 -1.3048141770765460e-06 0.0000000000000000e+00  -9.8329727062075320e-06 -1.5958392996362941e-06 0.0000000000000000e+00  -1.2235814674878761e-05 -1.9249740625645948e-06 0.0000000000000000e+00  -1.5684791564541122e-05 -2.2938918982377768e-06 0.0000000000000000e+00  -2.1083907742644297e-05 -2.7086449465423412e-06 0.0000000000000000e+00  -3.0109071129373095e-05 -3.1975425404679082e-06 0.0000000000000000e+00  -4.5760536774917025e-05 -3.8592478401949871e-06 0.0000000000000000e+00  -7.3174840627861213e-05 -4.9696863008238580e-06 0.0000000000000000e+00  -1.2064564363151307e-04 -7.1668549485324123e-06 0.0000000000000000e+00  -2.0060474714453123e-04 -1.1631852691120841e-05 0.0000000000000000e+00  0.0000000000000000e+00 0.0000000000000000e+00 0.0000000000000000e+00  -6.7385912544686947e-07 -1.3650514841096551e-07 0.0000000000000000e+00  -1.3315568632333982e-06 -2.7804416615252892e-07 0.0000000000000000e+00  -1.9509473721668923e-06 -4.2970730997154439e-07 0.0000000000000000e+00  -2.4988633697021767e-06 -5.9669140627918873e-07 0.0000000000000000e+00  -2.9252590465057224e-06 -7.8419506413152011e-07 0.0000000000000000e+00  -3.1580542609055625e-06 -9.9704313863223486e-07 0.0000000000000000e+00  -3.1012672441623885e-06 -1.2387901155793586e-06 0.0000000000000000e+00  -2.6426435920330729e-06 -1.5098895451154167e-06 0.0000000000000000e+00  -1.6841881363486111e-06 -1.8043671620246465e-06 0.0000000000000000e+00  -2.2270690239591188e-07 -2.1046210481090240e-06 0.0000000000000000e+00  1.4678025950950110e-06 -2.3755923738007705e-06 0.0000000000000000e+00  2.4587150640253109e-06 -2.5657458540877911e-06 0.0000000000000000e+00  4.4113514332372249e-07 -2.6407151034730084e-06 0.0000000000000000e+00  -9.5577190505617856e-06 -2.7199964173268254e-06 0.0000000000000000e+00  -3.7168974544916676e-05 -3.4588317392703508e-06 0.0000000000000000e+00  -9.9154676587855897e-05 -6.7898499821088268e-06 0.0000000000000000e+00  0.0000000000000000e+00 0.0000000000000000e+00 0.0000000000000000e+00  -4.1207431079421428e-07 -1.2382871929243283e-07 0.0000000000000000e+00  -7.7640946513978883e-07 -2.5244006710094466e-07 0.0000000000000000e+00  -1.0336957319564046e-06 -3.9071560197504173e-07 0.0000000000000000e+00  -1.1009707394475965e-06 -5.4375556314034292e-07 0.0000000000000000e+00  -8.5599530232364424e-07 -7.1684722823542981e-07 0.0000000000000000e+00  -1.1729776260912878e-07 -9.1514512559420974e-07 0.0000000000000000e+00  1.3807512552727847e-06 -1.1426845214754201e-06 0.0000000000000000e+00  4.0162432054423957e-06 -1.3999117704507637e-06 0.0000000000000000e+00  8.3039812951630912e-06 -1.6780590229065424e-06 0.0000000000000000e+00  1.4894348530378608e-05 -1.9472168825082115e-06 0.0000000000000000e+00  2.4494577386571317e-05 -2.1331184252074674e-06 0.0000000000000000e+00  3.7595264178503978e-05 -2.0780677635831649e-06 0.0000000000000000e+00  5.3756490968306393e-05 -1.4958528290311016e-06 0.0000000000000000e+00  6.9979997036119913e-05 -9.5821485955754014e-10 0.0000000000000000e+00  7.7438704668757169e-05 2.4584269010097207e-06 0.0000000000000000e+00  5.6532156154744490e-05 4.0349047276230190e-06 0.0000000000000000e+00  0.0000000000000000e+00 0.0000000000000000e+00 0.0000000000000000e+00  -1.9886606148194934e-07 -1.0633695209021582e-07 0.0000000000000000e+00  -3.2965861155554709e-07 -2.1706314713309322e-07 0.0000000000000000e+00  -3.0877496330611896e-07 -3.3675464423985761e-07 0.0000000000000000e+00  -1.9512973389867238e-08 -4.7043642688813784e-07 0.0000000000000000e+00  7.1177543772348192e-07 -6.2379784558187212e-07 0.0000000000000000e+00  2.1494404550753800e-06 -8.0332088321310761e-07 0.0000000000000000e+00  4.6974160316228931e-06 -1.0160606985702866e-06 0.0000000000000000e+00  8.9695428126588181e-06 -1.2683209933144419e-06 0.0000000000000000e+00  1.5887208620419265e-05 -1.5611719087865911e-06 0.0000000000000000e+00  2.6804029705246709e-05 -1.8775474317761431e-06 0.0000000000000000e+00  4.3634395097173459e-05 -2.1482276341446657e-06 0.0000000000000000e+00  6.8895443822856095e-05 -2.1686771476222150e-06 0.0000000000000000e+00  1.0539349790190372e-04 -1.4142492311811796e-06 0.0000000000000000e+00  1.5483342070898059e-04 1.3037293398578192e-06 0.0000000000000000e+00  2.1351360987600015e-04 8.1381681333027404e-06 0.0000000000000000e+00  2.6155281189779397e-04 1.9398694152236335e-05 0.0000000000000000e+00  0.0000000000000000e+00 0.0000000000000000e+00 0.0000000000000000e+00  -5.4497446668165243e-08 -8.4422981883378587e-08 0.0000000000000000e+00  -3.6027597030212505e-08 -1.7260524186276309e-07 0.0000000000000000e+00  1.4500987116524833e-07 -2.6857942393627460e-07 0.0000000000000000e+00  6.1457339723487638e-07 -3.7706380978203420e-07 0.0000000000000000e+00  1.5627184876954989e-06 -5.0400451962035777e-07 0.0000000000000000e+00  3.2853393771011105e-06 -6.5742355384244895e-07 0.0000000000000000e+00  6.2494945826096614e-06 -8.4876738056024090e-07 0.0000000000000000e+00  1.1197453932727129e-05 -1.0949267366270033e-06 0.0000000000000000e+00  1.9313047343331315e-05 -1.4206260238961211e-06 0.0000000000000000e+00  3.2484884446265875e-05 -1.8586408994330313e-06 0.0000000000000000e+00  5.3709239006318226e-05 -2.4370166245718009e-06 0.0000000000000000e+00  8.7657742119502614e-05 -3.1152995268323579e-06 0.0000000000000000e+00  1.4131106112028375e-04 -3.5497810228956207e-06 0.0000000000000000e+00  2.2407092123259321e-04 -2.3288175513532253e-06 0.0000000000000000e+00  3.4505148077792043e-04 5.4822190286001125e-06 0.0000000000000000e+00  4.9839688142288337e-04 3.8473800445662730e-05 0.0000000000000000e+00  0.0000000000000000e+00 0.0000000000000000e+00 0.0000000000000000e+00  1.6319130457171360e-08 -5.8711077188484144e-08 0.0000000000000000e+00  9.3731140935281471e-08 -1.2022731809559828e-07 0.0000000000000000e+00  3.0746032760041014e-07 -1.8764434918386627e-07 0.0000000000000000e+00  7.6414405753103996e-07 -2.6480646230497075e-07 0.0000000000000000e+00  1.6268142055651613e-06 -3.5703015461884263e-07 0.0000000000000000e+00  3.1541204408601311e-06 -4.7247160783241538e-07 0.0000000000000000e+00  5.7649937227074722e-06 -6.2487943656786231e-07 0.0000000000000000e+00  1.0148543469531022e-05 -8.3934196726093584e-07 0.0000000000000000e+00  1.7454981091541449e-05 -1.1645177163722167e-06 0.0000000000000000e+00  2.9632875097354901e-05 -1.6986949336736759e-06 0.0000000000000000e+00  5.0031261778680244e-05 -2.6439840140923933e-06 0.0000000000000000e+00  8.4475489311537137e-05 -4.4115971076595990e-06 0.0000000000000000e+00  1.4315008132524622e-04 -7.7969526966150954e-06 0.0000000000000000e+00  2.4360797834655773e-04 -1.4177301355731227e-05 0.0000000000000000e+00  4.1378909123226650e-04 -2.5482677460735402e-05 0.0000000000000000e+00  6.8563071252921240e-04 -4.2904823051565569e-05 0.0000000000000000e+00  0.0000000000000000e+00 0.0000000000000000e+00 0.0000000000000000e+00  2.5667677193566336e-08 -3.0144865761844438e-08 0.0000000000000000e+00  8.6138022127110026e-08 -6.1805090851101126e-08 0.0000000000000000e+00  2.2439054635041386e-07 -9.6688284133518462e-08 0.0000000000000000e+00  5.0177323907355276e-07 -1.3700613247136405e-07 0.0000000000000000e+00  1.0130246334218700e-06 -1.8601236334680782e-07 0.0000000000000000e+00  1.9105333596821061e-06 -2.4910957340343795e-07 0.0000000000000000e+00  3.4457143817706198e-06 -3.3630327178269769e-07 0.0000000000000000e+00  6.0422665810508672e-06 -4.6795971293542637e-07 0.0000000000000000e+00  1.0429755346083815e-05 -6.8900312421012271e-07 0.0000000000000000e+00  1.7892618319708301e-05 -1.1055339363540357e-06 0.0000000000000000e+00  3.0737633125618224e-05 -1.9828984013498383e-06 0.0000000000000000e+00  5.3146651582576674e-05 -4.0143086957658234e-06 0.0000000000000000e+00  9.2547748374538331e-05 -9.0498583316530193e-06 0.0000000000000000e+00  1.6088441079635952e-04 -2.1920775359439522e-05 0.0000000000000000e+00  2.7144584146640761e-04 -5.3832569980584034e-05 0.0000000000000000e+00  4.1742319616111626e-04 -1.2193245028156842e-04 0.0000000000000000e+00  0.0000000000000000e+00 0.0000000000000000e+00 0.0000000000000000e+00  0.0000000000000000e+00 0.0000000000000000e+00 0.0000000000000000e+00  0.0000000000000000e+00 0.0000000000000000e+00 0.0000000000000000e+00  0.0000000000000000e+00 0.0000000000000000e+00 0.0000000000000000e+00  0.0000000000000000e+00 0.0000000000000000e+00 0.0000000000000000e+00  0.0000000000000000e+00 0.0000000000000000e+00 0.0000000000000000e+00  0.0000000000000000e+00 0.00000