<?xml version="1.0"?>
<VTKFile type="UnstructuredGrid"  version="0.1"  >
<UnstructuredGrid>
<Piece  NumberOfPoints="289" NumberOfCells="512">
<Points>
<DataArray  type="Float64"  NumberOfComponents="3"  format="ascii">0 0 0  0.0625 0 0  0.125 0 0  0.1875 0 0  0.25 0 0  0.3125 0 0  0.375 0 0  0.4375 0 0  0.5 0 0  0.5625 0 0  0.625 0 0  0.6875 0 0  0.75 0 0  0.8125 0 0  0.875 0 0  0.9375 0 0  1 0 0  0 0.0625 0  0.06249635291018534 0.06248714374131246 0  0.1249924816018613 0.06247406411865821 0  0.1874881364326821 0.06246055812594906 0  0.2499830326232729 0.06244647154941183 0  0.3124768309104364 0.06243173022973256 0  0.3749691171423267 0.06241637862521691 0  0.4374593813000033 0.06240062566568164 0  0.4999469962858189 0.06238489438122027 0  0.5624311935109081 0.06236986557889732 0  0.6249110171430462 0.06235649598474072 0  0.6873851816785012 0.06234597817112451 0  0.7498515465248683 0.06233959950284028 0  0.8123051047839389 0.06233847861175675 0  0.8747299765338188 0.06234332801486404 0  0.9370655729367642 0.06235528231984702 0  0.9990536231426198 0.06238469867808485 0  0 0.125 0  0.06249291111484333 0.124974505943909 0  0.1249853979702579 0.1249485413644839 0  0.1874769910198661 0.1249216737389172 0  0.2499671597989028 0.1248935626485628 0  0.3124552815808911 0.1248640206238528 0  0.3749406121346565 0.1248330905357498 0  0.4374222635766084 0.1248011413232176 0  0.4998991988583539 0.1247689778688776 0  0.5623702584003668 0.12473794938378 0  0.6248342392603962 0.1247100206398734 0  0.6872900406792319 0.1246877386828923 0  0.7497368386844748 0.1246739840765693 0  0.8121740759910786 0.12467135109017 0  0.8746007366678681 0.1246809893779153 0  0.9370147792082885 0.1247007309570777 0  0.9994369296075483 0.1247206913095407 0  0 0.1875 0  0.06248989574470595 0.1874623365484561 0  0.1249792031836726 0.1874239114925063 0  0.1874672750830665 0.1873840131349412 0  0.2499533852032315 0.1873420533177115 0  0.3124366897904043 0.187297653377305 0  0.3749161955239109 0.1872507588973972 0  0.4373907441237126 0.1872017901494649 0  0.4998590333987554 0.1871518290496857 0  0.5623197100041775 0.1871028299154084 0  0.6247715926703991 0.1870578140852386 0  0.687214117234845 0.1870209572018965 0  0.749648135634521 0.1869973836023314 0  0.8120772646478469 0.1869923005492823 0  0.8745102441590412 0.1870087013867227 0  0.9369663257474605 0.1870417923836982 0  0.9994926908937887 0.1870653679732333 0  0 0.25 0  0.0624874934245688 0.2499509291034261 0  0.124974278768736 0.2499007476320591 0  0.1874595815285081 0.2498483976570784 0  0.2499425353984076 0.2497929566930857 0  0.3124221384891184 0.2497337397785605 0  0.3748972185586799 0.2496704451225897 0  0.4373664204496522 0.2496033592972967 0  0.4998282407828242 0.2495336356146285 0  0.5622811534659977 0.2494636499467991 0  0.6247238960071408 0.2493974139130164 0  0.6871560196828295 0.2493409717806516 0  0.7495788405802908 0.2493025999282232 0  0.8119969628998319 0.2492924270617583 0  0.8744206510538773 0.249320755869114 0  0.9368698307033396 0.2493939568688343 0  0.9993818021139145 0.2495070961372268 0  0 0.3125 0  0.06248584056550906 0.3124406343562999 0  0.1249709031802359 0.312379747144351 0  0.1874543417892144 0.312315859471089 0  0.2499352094254337 0.3122476118826714 0  0.3124124092720962 0.3121738673041966 0  0.3748846541078042 0.3120938721599852 0  0.4373504474995934 0.3120075038343657 0  0.4998081119619626 0.311915638407826 0  0.562255906560152 0.3118206754418629 0  0.624692297962728 0.311727249133358 0  0.6871164690093498 0.3116431220947864 0  0.7495291562970897 0.311580170517025 0  0.8119339003189037 0.3115551813119212 0  0.8743388372771629 0.3115898425306596 0  0.9367595542408829 0.3117088339361451 0  0.9992248920600737 0.311934539633404 0  0 0.375 0  0.06248501093692721 0.3749318639818529 0  0.1249692274463445 0.37486174286861 0  0.1874517908402841 0.3747876686847765 0  0.2499317361168597 0.3747077415825161 0  0.31240793794567 0.3746202112941751 0  0.3748790614664497 0.3745236263004725 0  0.4373435298139043 0.3744170911671062 0  0.499799532274463 0.3743006898774584 0  0.5622451146778668 0.3741761556939505 0  0.6246784154490619 0.3740478927668949 0  0.6870981293399482 0.3739244693438126 0  0.7495042811964824 0.3738206752980254 0  0.8118993621523888 0.3737600984492815 0  0.8742898606606818 0.3737778013168519 0  0.9366884153072389 0.3739219169072507 0  0.9991176820687907 0.374251764557233 0  0 0.4375 0  0.06248500802065947 0.4374250807401922 0  0.1249692595768931 0.4373476865234162 0  0.1874519431055758 0.4372653173451275 0  0.2499321406667458 0.4371754510745683 0  0.312408770232954 0.4370755753166143 0  0.3748805271828916 0.4369632851251999 0  0.437345835077637 0.4368364944448479 0  0.4998028301666329 0.4366938386880396 0  0.5622494291064739 0.4365353924293319 0  0.6246835681461308 0.4363638956012709 0  0.6871037521196385 0.4361867748976643 0  0.749510095633236 0.4360193449789207 0  0.8119060328424583 0.4358895979660479 0  0.8743007488730485 0.4358447298945163 0  0.9367121255956175 0.4359586069764906 0  0.9991698836137961 0.4363373271551459 0  0 0.5 0  0.06248576394956758 0.4999207720933791 0  0.1249708613243301 0.4998385970726705 0  0.1874545846893829 0.4997504461248972 0  0.2499361281361125 0.4996531425152003 0  0.3124145292090625 0.49954331432898 0  0.374888602996405 0.4994173940333117 0  0.437356875970351 0.4992717092944704 0  0.4998175459048509 0.4991027465956516 0  0.562268534591537 0.4989077352619224 0  0.624707778994391 0.4986858146134334 0  0.6871340432552285 0.4984402402626015 0  0.7495487305914719 0.4981823859573593 0  0.811959358016318 0.4979386849689122 0  0.8743852698175988 0.4977619042645425 0  0.9368652863100764 0.4977474825984093 0  0.9994650220341235 0.4980524934815926 0  0 0.5625 0  0.06248714669909217 0.5624194062680447 0  0.1249737609935435 0.562335470648386 0  0.1874592884646376 0.5622447046461855 0  0.2499430948200776 0.5621433235705448 0  0.3124244129907072 0.56202709660684 0  0.3749022742600323 0.5618912051332814 0  0.4373754257108795 0.5617301346336114 0  0.4998422574476827 0.5615376593416196 0  0.5623008199301693 0.5613070470145022 0  0.62474914688359 0.5610317484205215 0  0.6871863867001765 0.5607071098304471 0  0.7496157796818631 0.5603341811548896 0  0.8120513144801657 0.5599276728975292 0  0.8745305490469395 0.5595316295303072 0  0.9371350691767072 0.5592476212139079 0  1.000014354411475 0.5592776070587644 0  0 0.625 0  0.06248897637325326 0.6249213730477226 0  0.1249775846263753 0.6248391555896955 0  0.1874654570864482 0.62474954768237 0  0.2499521771711923 0.624648305684065 0  0.3124372395174828 0.6245304812664574 0  0.3749199862547012 0.6243901144539623 0  0.4373995112955952 0.6242198709907382 0  0.4998745391914899 0.6240106295131695 0  0.5623433422610539 0.6237510647916837 0  0.6248039321658052 0.6234273765491838 0  0.6872552153414625 0.6230235698349955 0  0.7497008610703517 0.6225233286873315 0  0.812159770433218 0.6219160840570215 0  0.8746903570689162 0.621213470833814 0  0.9374379874842749 0.6204888988495356 0  1.00070771966131 0.6199558539573988 0  0 0.6875 0  0.06249104987403014 0.6874269158303329 0  0.1249819049760187 0.6873502056450812 0  0.1874723950401732 0.6872659863014078 0  0.2499623431239661 0.6871698148215348 0  0.3124515484787764 0.6870563312096055 0  0.3749397417701174 0.6869187969154593 0  0.4374264903420814 0.6867484751788213 0  0.4999110253981217 0.6865337829563406 0  0.5623919833034762 0.6862591269842984 0  0.6248671797604231 0.6859033336951609 0  0.6873340102300521 0.6854376501306982 0  0.7497925520374893 0.6848236364715404 0  0.8122575047686266 0.6840126487857063 0  0.874794547798139 0.6829537574154051 0  0.937611860769564 0.6816344239794387 0  1.001238365392399 0.6802126023521665 0  0 0.75 0  0.06249317120572713 0.7499360657257211 0  0.1249863036984774 0.7498687343252115 0  0.1874794052225957 0.7497943319944955 0  0.2499725242794611 0.7497085717388431 0  0.3124657646331554 0.7496061413427443 0  0.3749592782221118 0.7494801414539939 0  0.4374532043094256 0.7493212809035282 0  0.4999474883362782 0.74911668639783 0  0.5624414596251713 0.748848099474936 0  0.624932998408559 0.7484890889852771 0  0.6874172489382613 0.7480006541225203 0  0.749885874676519 0.7473241653120577 0  0.8123325550173794 0.7463700890134777 0  0.8747878522798958 0.7450021631750366 0  0.9374595107658903 0.7430342851568177 0  1.001100138495298 0.7404102120613558 0  0 0.8125 0  0.06249518259905033 0.8124485912794466 0  0.1249904378724338 0.8123943005206562 0  0.1874858990724705 0.8123339869076307 0  0.2499817802272544 0.812263929209141 0  0.3124784240661542 0.812179422021658 0  0.3749763468766694 0.8120742062285877 0  0.4374762538701856 0.8119396223660535 0  0.4999789486741326 0.8117633064299091 0  0.5624849405405509 0.8115271242504474 0  0.6249932789331037 0.8112038109408916 0  0.6874985772664981 0.810751318913581 0  0.749984285768593 0.8101028262811208 0  0.8124103923576595 0.8091476387443418 0  0.8747054734491289 0.8076905371238885 0  0.9368630973878526 0.805355405316922 0  0.9998923614293344 0.8013510112911557 0  0 0.875 0  0.06249699011529981 0.8749639773476189 0  0.1249940981499601 0.8749258562707796 0  0.1874915020724471 0.8748833372390717 0  0.2499894756162571 0.8748336661105532 0  0.3124884560018004 0.8747733106190484 0  0.3749891314334665 0.8746974942520442 0  0.4374925443710824 0.8745994878739922 0  0.5000001727126483 0.8744694947903865 0  0.5625138435315247 0.8742928516380404 0  0.62503500920774 0.874047068071758 0  0.6875619549289627 0.8736968636251601 0  0.7500806881340739 0.8731855937403715 0  0.8125370408091457 0.8724192608359455 0  0.8747539671275307 0.8712304595569663 0  0.9361961857050779 0.8692673335963834 0  0.9953972517891014 0.8655290206014702 0  0 0.9375 0  0.06249857705230365 0.9374814428609574 0  0.1249972436500605 0.9374617796940724 0  0.187496129075777 0.9374397944227564 0  0.2499954325776829 0.937414021068556 0  0.312495478320269 0.9373825635170169 0  0.374996797181277 0.9373428325966057 0  0.4375002497283293 0.9372911413674676 
[...]
<PointData  Vectors="f_54"> 
<DataArray  type="Float64"  Name="f_54"  NumberOfComponents="3" format="ascii">0.0000000000000000e+00 0.0000000000000000e+00 0.0000000000000000e+00  0.0000000000000000e+00 0.0000000000000000e+00 0.0000000000000000e+00  0.0000000000000000e+00 0.0000000000000000e+00 0.0000000000000000e+00  0.0000000000000000e+00 0.0000000000000000e+00 0.0000000000000000e+00  0.0000000000000000e+00 0.0000000000000000e+00 0.0000000000000000e+00  0.0000000000000000e+00 0.0000000000000000e+00 0.0000000000000000e+00  0.0000000000000000e+00 0.0000000000000000e+00 0.0000000000000000e+00  0.0000000000000000e+00 0.0000000000000000e+00 0.0000000000000000e+00  0.0000000000000000e+00 0.0000000000000000e+00 0.0000000000000000e+00  0.0000000000000000e+00 0.0000000000000000e+00 0.0000000000000000e+00  0.0000000000000000e+00 0.0000000000000000e+00 0.0000000000000000e+00  0.0000000000000000e+00 0.0000000000000000e+00 0.0000000000000000e+00  0.0000000000000000e+00 0.0000000000000000e+00 0.0000000000000000e+00  0.0000000000000000e+00 0.0000000000000000e+00 0.0000000000000000e+00  0.0000000000000000e+00 0.0000000000000000e+00 0.0000000000000000e+00  0.0000000000000000e+00 0.0000000000000000e+00 0.0000000000000000e+00  0.0000000000000000e+00 0.0000000000000000e+00 0.0000000000000000e+00  0.0000000000000000e+00 0.0000000000000000e+00 0.0000000000000000e+00  4.7384587450004711e-06 7.0235134576485348e-09 0.0000000000000000e+00  9.6051516470419531e-06 1.4048678137888957e-08 0.0000000000000000e+00  1.4728144874185548e-05 2.1069436240692173e-08 0.0000000000000000e+00  2.0230751389900916e-05 2.8063666431582403e-08 0.0000000000000000e+00  2.6227155050456579e-05 3.4999193769264774e-08 0.0000000000000000e+00  3.2815390157198233e-05 4.1860654229463041e-08 0.0000000000000000e+00  4.0066611560611633e-05 4.8709196516290251e-08 0.0000000000000000e+00  4.8009580744397241e-05 5.5785487653733510e-08 0.0000000000000000e+00  5.6609595569356201e-05 6.3651040829606612e-08 0.0000000000000000e+00  6.5742279317090665e-05 7.3310858811572563e-08 0.0000000000000000e+00  7.5166382008076801e-05 8.6117336137151155e-08 0.0000000000000000e+00  8.4511417835971271e-05 1.0286248072951261e-07 0.0000000000000000e+00  9.3334657245357948e-05 1.2020954328521629e-07 0.0000000000000000e+00  1.0144022358327889e-04 1.1762188609646075e-07 0.0000000000000000e+00  1.1017754748244547e-04 4.8945643510211597e-09 0.0000000000000000e+00  1.2743579361074566e-04 -6.0806618724568360e-07 0.0000000000000000e+00  0.0000000000000000e+00 0.0000000000000000e+00 0.0000000000000000e+00  9.3462132885994269e-06 1.4041657356915963e-08 0.0000000000000000e+00  1.8950886534368326e-05 2.8097086857036206e-08 0.0000000000000000e+00  2.9072752985471622e-05 4.2159618754602130e-08 0.0000000000000000e+00  3.9962698358813020e-05 5.6178981340385047e-08 0.0000000000000000e+00  5.1855964649092848e-05 7.0064000603579490e-08 0.0000000000000000e+00  6.4959169368421481e-05 8.3724376388126395e-08 0.0000000000000000e+00  7.9429927175698523e-05 9.7179591525186433e-08 0.0000000000000000e+00  9.5346627096573811e-05 1.1076967446446550e-07 0.0000000000000000e+00  1.1266596061167235e-04 1.2549412297830142e-07 0.0000000000000000e+00  1.3116652667641526e-04 1.4345543146975056e-07 0.0000000000000000e+00  1.5037896731135943e-04 1.6825573447673511e-07 0.0000000000000000e+00  1.6950744039112851e-04 2.0501966909249047e-07 0.0000000000000000e+00  1.8735224143135175e-04 2.6007290167399308e-07 0.0000000000000000e+00  2.0222802329672893e-04 3.4487094612031011e-07 0.0000000000000000e+00  2.1169760701024573e-04 5.1738196537396454e-07 0.0000000000000000e+00  2.1082072531954370e-04 1.1496749570441186e-06 0.0000000000000000e+00  0.0000000000000000e+00 0.0000000000000000e+00 0.0000000000000000e+00  1.3691371199588264e-05 2.1039540056499338e-08 0.0000000000000000e+00  2.7774688465569322e-05 4.2130912589712954e-08 0.0000000000000000e+00  4.2643793136832624e-05 6.3284293445310727e-08 0.0000000000000000e+00  5.8684825949156484e-05 8.4418576278217997e-08 0.0000000000000000e+00  7.6266926971039930e-05 1.0534196976083589e-07 0.0000000000000000e+00  9.5725506795066371e-05 1.2578075298306764e-07 0.0000000000000000e+00  1.1733468065508829e-04 1.4550278265134629e-07 0.0000000000000000e+00  1.4126478565580587e-04 1.6460963003550971e-07 0.0000000000000000e+00  1.6752027762931718e-04 1.8409601446558863e-07 0.0000000000000000e+00  1.9585287206669966e-04 2.0676401477583925e-07 0.0000000000000000e+00  2.2564446387594094e-04 2.3843719897868062e-07 0.0000000000000000e+00  2.5575288687404863e-04 2.8888842977339112e-07 0.0000000000000000e+00  2.8430562051284369e-04 3.7020491204016339e-07 0.0000000000000000e+00  3.0839495743523312e-04 4.8459511931389555e-07 0.0000000000000000e+00  3.2353202827320780e-04 5.7051687795211226e-07 0.0000000000000000e+00  3.2253780618453766e-04 2.6462176792407070e-07 0.0000000000000000e+00  0.0000000000000000e+00 0.0000000000000000e+00 0.0000000000000000e+00  1.7639168736146598e-05 2.7976500859899274e-08 0.0000000000000000e+00  3.5806728556329241e-05 5.6092601484682906e-08 0.0000000000000000e+00  5.5036228357101681e-05 8.4416593973066527e-08 0.0000000000000000e+00  7.5858251134762309e-05 1.1285597164784871e-07 0.0000000000000000e+00  9.8792425878543001e-05 1.4108982515484255e-07 0.0000000000000000e+00  1.2433036131262904e-04 1.6853822695086555e-07 0.0000000000000000e+00  1.5290499206227121e-04 1.9442678218976701e-07 0.0000000000000000e+00  1.8484059066575773e-04 2.1806171117684965e-07 0.0000000000000000e+00  2.2027626453323867e-04 2.3952197151601810e-07 0.0000000000000000e+00  2.5905422703645885e-04 2.6109712546442867e-07 0.0000000000000000e+00  3.0056250586504819e-04 2.8990048938544657e-07 0.0000000000000000e+00  3.4351958382878705e-04 3.4196945507256692e-07 0.0000000000000000e+00  3.8568438446738172e-04 4.4729168842761300e-07 0.0000000000000000e+00  4.2346763752790153e-04 6.5250087843782520e-07 0.0000000000000000e+00  4.5141866004757512e-04 1.0131937240010994e-06 0.0000000000000000e+00  4.6162777277939168e-04 1.5756515648934424e-06 0.0000000000000000e+00  0.0000000000000000e+00 0.0000000000000000e+00 0.0000000000000000e+00  2.1052437572389741e-05 3.4762458976311494e-08 0.0000000000000000e+00  4.2770161496045485e-05 6.9833830021419472e-08 0.0000000000000000e+00  6.5828793477526747e-05 1.0541928470133835e-07 0.0000000000000000e+00  9.0911233826651019e-05 1.4148251660000835e-07 0.0000000000000000e+00  1.1870452855925526e-04 1.7760438626070891e-07 0.0000000000000000e+00  1.4988697967966010e-04 2.1283513977718387e-07 0.0000000000000000e+00  1.8510017561273337e-04 2.4558527185703552e-07 0.0000000000000000e+00  2.2489874227534437e-04 2.7367788784942186e-07 0.0000000000000000e+00  2.6966826600684782e-04 2.9484548778121760e-07 0.0000000000000000e+00  3.1949917949553481e-04 3.0826156123257421e-07 0.0000000000000000e+00  3.7400182027342790e-04 3.1823854135271614e-07 0.0000000000000000e+00  4.3204617109332343e-04 3.4206028006516478e-07 0.0000000000000000e+00  4.9141075306488179e-04 4.2493919840776007e-07 0.0000000000000000e+00  5.4833356940610324e-04 6.6570947437559960e-07 0.0000000000000000e+00  5.9698801430228365e-04 1.2556544307050622e-06 0.0000000000000000e+00  6.2899472257829669e-04 2.5268760333570088e-06 0.0000000000000000e+00  0.0000000000000000e+00 0.0000000000000000e+00 0.0000000000000000e+00  2.3794249941293190e-05 4.1226289005062475e-08 0.0000000000000000e+00  4.8385995862390129e-05 8.3046311796880038e-08 0.0000000000000000e+00  7.4590169974808346e-05 1.2592727205041108e-07 0.0000000000000000e+00  1.0324500789357070e-04 1.7003027802123151e-07 0.0000000000000000e+00  1.3521772035269248e-04 2.1498584319915648e-07 0.0000000000000000e+00  1.7140110908250869e-04 2.5958436192119014e-07 0.0000000000000000e+00  2.1269551396517269e-04 3.0137140730093040e-07 0.0000000000000000e+00  2.5996793902665223e-04 3.3619614825988989e-07 0.0000000000000000e+00  3.1397678996646832e-04 3.5792488508488710e-07 0.0000000000000000e+00  3.7524647240719781e-04 3.5893763523699035e-07 0.0000000000000000e+00  4.4387171023293267e-04 3.3294550737028409e-07 0.0000000000000000e+00  5.1922830751497718e-04 2.8357418105679088e-07 0.0000000000000000e+00  5.9956813875836925e-04 2.4569686371263009e-07 0.0000000000000000e+00  6.8148619636661245e-04 3.3198301435412670e-07 0.0000000000000000e+00  7.5927186642679224e-04 8.2264362169414320e-07 0.0000000000000000e+00  8.2419386171169373e-04 2.3123591405890649e-06 0.0000000000000000e+00  0.0000000000000000e+00 0.0000000000000000e+00 0.0000000000000000e+00  2.5733138920476962e-05 4.7082210240105927e-08 0.0000000000000000e+00  5.2383439507593795e-05 9.5181742170187476e-08 0.0000000000000000e+00  8.0894190556571378e-05 1.4519383719257767e-07 0.0000000000000000e+00  1.1225317276580931e-04 1.9770107283244754e-07 0.0000000000000000e+00  1.4751099565772015e-04 2.5269272283974258e-07 0.0000000000000000e+00  1.8779283770545987e-04 3.0910409359240590e-07 0.0000000000000000e+00  2.3429850245862985e-04 3.6406906296807934e-07 0.0000000000000000e+00  2.8828260670396983e-04 4.1175491906127380e-07 0.0000000000000000e+00  3.5100217507276553e-04 4.4167911102295652e-07 0.0000000000000000e+00  4.2361272387246796e-04 4.3663964989874047e-07 0.0000000000000000e+00  5.0698638043201669e-04 3.7121247213808439e-07 0.0000000000000000e+00  6.0141823446172222e-04 2.1409953461712890e-07 0.0000000000000000e+00  7.0618360524191527e-04 -5.6634321022281356e-08 0.0000000000000000e+00  8.1891470053458749e-04 -4.0395966904237705e-07 0.0000000000000000e+00  9.3478123756817941e-04 -6.0370145230672356e-07 0.0000000000000000e+00  1.0454604822177584e-03 3.8926806606912566e-08 0.0000000000000000e+00  0.0000000000000000e+00 0.0000000000000000e+00 0.0000000000000000e+00  2.6750957772135276e-05 5.1907016808502776e-08 0.0000000000000000e+00  5.4515956865282120e-05 1.0538818723250401e-07 0.0000000000000000e+00  8.4344718304449833e-05 1.6194420064672773e-07 0.0000000000000000e+00  1.1735610752961021e-04 2.2285878247243763e-07 0.0000000000000000e+00  1.5477223094859522e-04 2.8893919754501445e-07 0.0000000000000000e+00  1.9795038996559640e-04 3.6001128008929569e-07 0.0000000000000000e+00  2.4840947164723814e-04 4.3396062310479114e-07 0.0000000000000000e+00  3.0784407401119928e-04 5.0495591109274818e-07 0.0000000000000000e+00  3.7811429719484922e-04 5.6024129812519289e-07 0.0000000000000000e+00  4.6119084475044862e-04 5.7455472574979564e-07 0.0000000000000000e+00  5.5902333351504616e-04 5.0102483862186295e-07 0.0000000000000000e+00  6.7328540612190935e-04 2.5819611047711237e-07 0.0000000000000000e+00  8.0493805631206379e-04 -2.8259820441099140e-07 0.0000000000000000e+00  9.5355383546780789e-04 -1.2897675978855687e-06 0.0000000000000000e+00  1.1163736770258366e-03 -2.8830000499306713e-06 0.0000000000000000e+00  1.2871064384309338e-03 -4.8161934988173085e-06 0.0000000000000000e+00  0.0000000000000000e+00 0.0000000000000000e+00 0.0000000000000000e+00  2.6753006964037016e-05 5.5146103836396258e-08 0.0000000000000000e+00  5.4582380868361724e-05 1.1250481942787960e-07 0.0000000000000000e+00  8.4609451674146004e-05 1.7431483726456897e-07 0.0000000000000000e+00  1.1804994470775183e-04 2.4281886281244224e-07 0.0000000000000000e+00  1.5626533418644753e-04 3.2014417032700590e-07 0.0000000000000000e+00  2.0081842706495825e-04 4.0796084229940412e-07 0.0000000000000000e+00  2.5353282358177287e-04 5.0667420788077989e-07 0.0000000000000000e+00  3.1655320590422652e-04 6.1364750011005656e-07 0.0000000000000000e+00  3.9239820050722413e-04 7.1940933770019781e-07 0.0000000000000000e+00  4.8398811210578741e-04 7.9970001669514882e-07 0.0000000000000000e+00  5.9461397601082470e-04 7.9909164833337490e-07 0.0000000000000000e+00  7.2779082918458305e-04 5.9832418386284473e-07 0.0000000000000000e+00  8.8691091221260762e-04 -4.6744302145137145e-08 0.0000000000000000e+00  1.0746027440566388e-03 -1.6045891977367958e-06 0.0000000000000000e+00  1.2917693148047772e-03 -4.8816367010443422e-06 0.0000000000000000e+00  1.5365310841328756e-03 -1.1000326690160805e-05 0.0000000000000000e+00  0.0000000000000000e+00 0.0000000000000000e+00 0.0000000000000000e+00  2.5679549115464605e-05 5.6165351476609408e-08 0.0000000000000000e+00  5.2451345021951889e-05 1.1515886238759346e-07 0.0000000000000000e+00  8.1460146531613743e-05 1.7997265012577240e-07 0.0000000000000000e+00  1.1396705431934229e-04 2.5392542824872967e-07 0.0000000000000000e+00  1.5141714040333226e-04 3.4080153980758991e-07 0.0000000000000000e+00  1.9551899904657346e-04 4.4491368488184796e-07 0.0000000000000000e+00  2.4834033749206191e-04 5.7094580535728108e-07 0.0000000000000000e+00  3.1242281076496143e-04 7.2320969317727936e-07 0.0000000000000000e+00  3.9091618094417479e-04 9.0338820815872614e-07 0.0000000000000000e+00  4.8772399055516927e-04 1.1044115448304024e-06 0.0000000000000000e+00  6.0763588438235015e-04 1.2944919721021693e-06 0.0000000000000000e+00  7.5638942723640641e-04 1.3763809002255128e-06 0.0000000000000000e+00  9.4055330012849704e-04 1.0861387981294476e-06 0.0000000000000000e+00  1.1670722750049170e-03 -2.4567425361811782e-07 0.0000000000000000e+00  1.4423622472460448e-03 -4.2013344208719330e-06 0.0000000000000000e+00  1.7712711809053268e-03 -1.4164604988923615e-05 0.0000000000000000e+00  0.0000000000000000e+00 0.0000000000000000e+00 0.0000000000000000e+00  2.3517314713447057e-05 5.4355358187163333e-08 0.0000000000000000e+00  4.8086160545994034e-05 1.1198716483329356e-07 0.0000000000000000e+00  7.4814770627373349e-05 1.7647776845350343e-07 0.0000000000000000e+00  1.0494186214161893e-04 2.5207985120231584e-07 0.0000000000000000e+00  1.3991636282553784e-04 3.4416594582022049e-07 0.0000000000000000e+00  1.8149677896397241e-04 4.5983564116237011e-07 0.0000000000000000e+00  2.3187968653858411e-04 6.0876687874782699e-07 0.0000000000000000e+00  2.9386907999456651e-04 8.0441217671769334e-07 0.0000000000000000e+00  3.7110001980297840e-04 1.0655730312653042e-06 0.0000000000000000e+00  4.6832871752950825e-04 1.4179122600930711e-06 0.0000000000000000e+00  5.9179104494944449e-04 1.8928217860133816e-06 0.0000000000000000e+00  7.4960046764121254e-04 2.5126635859015671e-06 0.0000000000000000e+00  9.5208534948782895e-04 3.2212044008490688e-06 0.0000000000000000e+00  1.2118441812818664e-03 3.6190355029196455e-06 0.0000000000000000e+00  1.5432356476799401e-03 2.0964712308772087e-06 0.0000000000000000e+00  1.9617871821566392e-03 -6.2643344699004679e-06 0.0000000000000000e+00  0.0000000000000000e+00 0.0000000000000000e+00 0.0000000000000000e+00  2.0309178901369899e-05 4.9274688569890420e-08 0.0000000000000000e+00  4.1566271322710598e-05 1.0195817783095506e-07 0.0000000000000000e+00  6.4775233013232152e-05 1.6186482374778037e-07 0.0000000000000000e+00  9.1072549171416361e-05 2.3372851286826183e-07 0.0000000000000000e+00  1.2181144810634809e-04 3.2389596491256403e-07 0.0000000000000000e+00  1.5867155499433869e-04 4.4138778754378777e-07 0.0000000000000000e+00  2.0380846769447458e-04 5.9964692803804112e-07 0.0000000000000000e+00  2.6006407378178012e-04 8.1961365465912593e-07 0.0000000000000000e+00  3.3126755127568601e-04 1.1354913498765891e-06 0.0000000000000000e+00  4.2266866814129073e-04 1.6062202440355700e-06 0.0000000000000000e+00  5.4155584288856590e-04 2.3392394438523917e-06 0.0000000000000000e+00  6.9810864428458740e-04 3.5392653860864166e-06 0.0000000000000000e+00  9.0648192763373274e-04 5.5958417051242486e-06 0.0000000000000000e+00  1.1859383408368961e-03 9.1500701302310635e-06 0.0000000000000000e+00  1.5614587251024433e-03 1.4465061446551377e-05 0.0000000000000000e+00  2.0637192715995010e-03 1.5141847848979359e-05 0.0000000000000000e+00  0.0000000000000000e+00 0.0000000000000000e+00 0.0000000000000000e+00  1.6159998602895530e-05 4.0796761631649110e-08 0.0000000000000000e+00  3.3100877494893742e-05 8.4713805536857311e-08 0.0000000000000000e+00  5.1653076587958741e-05 1.3529542346149491e-07 0.0000000000000000e+00  7.2766526726392863e-05 1.9706029947564372e-07 0.0000000000000000e+00  9.7588931638120153e-05 2.7626179160107755e-07 0.0000000000000000e+00  1.2757115913712773e-04 3.8207923584768910e-07 0.0000000000000000e+00  1.6461693309848620e-04 5.2861496156898672e-07 0.0000000000000000e+00  2.1130383684274783e-04 7.3845959362832879e-07 0.0000000000000000e+00  2.7121931994350225e-04 1.0495641210734787e-06 0.0000000000000000e+00  3.4948343453998851e-04 1.5298752609154262e-06 0.0000000000000000e+00  4.5357580323837762e-04 2.3124174101742710e-06 0.0000000000000000e+00  5.9465289242150495e-04 3.6898018003494748e-06 0.0000000000000000e+00  7.8961814021127875e-04 6.3935426377261904e-06 0.0000000000000000e+00  1.0641783119761231e-03 1.2470687211656713e-05 0.0000000000000000e+00  1.4564094993554781e-03 2.8161579019879566e-05 0.0000000000000000e+00  2.0137194942678178e-03 7.4483140603021425e-05 0.0000000000000000e+00  0.0000000000000000e+00 0.0000000000000000e+00 0.0000000000000000e+00  1.1236781256200572e-05 2.9212854584506177e-08 0.0000000000000000e+00  2.3030569358664136e-05 6.0816064099591130e-08 0.0000000000000000e+00  3.5975551275329443e-05 9.7548103441342002e-08 0.0000000000000000e+00  5.0756731705619224e-05 1.4294950898845816e-07 0.0000000000000000e+00  6.8210758999723110e-05 2.0198352133037694e-07 0.0000000000000000e+00  8.9409794239869684e-05 2.8197998470187689e-07 0.0000000000000000e+00  1.1578411879584910e-04 3.9411203223845008e-07 0.0000000000000000e+00  1.4930957492860099e-04 5.5569989977498219e-07 0.0000000000000000e+00  1.9280519193086215e-04 7.9370522323139078e-07 0.0000000000000000e+00  2.5042295269089051e-04 1.1497887341588117e-06 0.0000000000000000e+00  3.2848377431217299e-04 1.6876067590572080e-06 0.0000000000000000e+00  4.3696318087126118e-04 2.5073564521243257e-06 0.0000000000000000e+00  5.9226561799956506e-04 3.8054749013929646e-06 0.0000000000000000e+00  8.2279091356215594e-04 6.2139522535025189e-06 0.0000000000000000e+00  1.1815356342672935e-03 1.2677428312598239e-05 0.0000000000000000e+00  1.7815789475925403e-03 3.7979104455588829e-05 0.0000000000000000e+00  0.0000000000000000e+00 0.0000000000000000e+00 0.0000000000000000e+00  5.7620048861564506e-06 1.5251392306770291e-08 0.0000000000000000e+00  1.1814123672896913e-05 3.1799864228138534e-08 0.0000000000000000e+00  1.8466427504749770e-05 5.1137314082694441e-08 0.0000000000000000e+00  2.6078103493662055e-05 7.5203477122331898e-08 0.0000000000000000e+00  3.5090789011957377e-05 1.0672367711556795e-07 0.0000000000000000e+00  4.6075187750752379e-05 1.4969423237549909e-07 0.0000000000000000e+00  5.9800368312659156e-05 2.1004234234314556e-07 0.0000000000000000e+00  7.7341801222015319e-05 2.9630536540333031e-07 0.0000000000000000e+00  1.0025681636495259e-04 4.1939602077441911e-07 0.0000000000000000e+00  1.3088041989817059e-04 5.8754849809852279e-07 0.0000000000000000e+00  1.7284043310368422e-04 7.8156504111455008e-07 0.0000000000000000e+00  2.3196941585502032e-04 8.5504500712574868e-07 0.0000000000000000e+00  3.1786059062129059e-04 1.5469760038837851e-07 0.0000000000000000e+00  4.4591885352268207e-04 -3.8852204698147781e-06 0.0000000000000000e+00  6.3599941738008443e-04 -2.0585477269765867e-05 0.0000000000000000e+00  8.8488532729614881e-04 -7.7727324289742462e-05 0.0000000000000000e+00  0.0000000000000000e+00 0.0000000000000000e+00 0.0000000000000000e+00  0.0000000000000000e+00 0.0000000000000000e+00 0.0000000000000000e+00  0.0000000000000000e+00 0.0000000000000000e+00 0.0000000000000000e+00  0.0000000000000000e+00 0.0000000000000000e+00 0.0000000000000000e+00  0.0000000000000000e+00 0.0000000000000000e+00 0.0000000000000000e+00  0.0000000000000000e+00 0.0000000000000000e+00 0.0000000000000000e+00  0.0000000000000000e+00 0.0000000000000000e+00 0.0000000000000000e+00  0.0000000000000000e+00 0.0000000000000000e+00 0.0000000000000000e+00  0.0000000000000000e+00 0.0000000000000000e+00 0.0000000000000000e+00  0.0000000000000000e+00 0.0000000000000000e+00 0.0000000000000000e+00  0.0000000000000000e+00 0.0000000000000000e+00 0.0000000000000000e+00  0.0000000000000000e+00 0.0000000000000000e+00 0.000000000000000