<?xml version="1.0"?>
<VTKFile type="UnstructuredGrid"  version="0.1"  >
<UnstructuredGrid>
<Piece  NumberOfPoints="289" NumberOfCells="512">
<Points>
<DataArray  type="Float64"  NumberOfComponents="3"  format="ascii">0 0 0  0.0625 0 0  0.125 0 0  0.1875 0 0  0.25 0 0  0.3125 0 0  0.375 0 0  0.4375 0 0  0.5 0 0  0.5625 0 0  0.625 0 0  0.6875 0 0  0.75 0 0  0.8125 0 0  0.875 0 0  0.9375 0 0  1 0 0  0 0.0625 0  0.06257640216035758 0.06248597939583406 0  0.1251550607703354 0.06247167856485608 0  0.187738257468741 0.06245683473402672 0  0.2503282674729215 0.06244122937029103 0  0.3129273363555991 0.06242471803028288 0  0.3755376311990461 0.06240726901695456 0  0.4381611592868506 0.06238901208719725 0  0.5007996538427746 0.0623702956031801 0  0.5634544449721337 0.06235174490666909 0  0.6261263845778059 0.06233430458241102 0  0.6888160308729873 0.06231923039328957 0  0.7515246787271525 0.0623079699443073 0  0.8142579156207376 0.06230182713582275 0  0.8770365657706322 0.06230121105802817 0  0.9399288032183837 0.06230402084129512 0  1.003137169163199 0.06230344653689097 0  0 0.125 0  0.06265058506346476 0.1249722326631684 0  0.1253057023382838 0.1249438831203876 0  0.1879699451234176 0.1249144010867516 0  0.2506479213182159 0.124883318429941 0  0.3133442237460231 0.1248503063876485 0  0.3760633520819569 0.1248152518611197 0  0.4388095712731647 0.1247783569557289 0  0.5015866987542092 0.124740261513573 0  0.5643978345492062 0.1247021789702953 0  0.6272451011404695 0.1246660180744451 0  0.6901295730261431 0.1246344332352457 0  0.7530517815372879 0.1246107060911137 0  0.8160134104145539 0.1245983415192698 0  0.879020336915483 0.1246004255464597 0  0.9420825161592334 0.1246198164951221 0  1.005186073599939 0.1246651846700002 0  0 0.1875 0  0.06272026488042984 0.1874590649310414 0  0.1254473439838242 0.1874172065267885 0  0.1881881638880863 0.1873735417446224 0  0.2509497286937531 0.1873272944290321 0  0.3137391084595839 0.1872778740244943 0  0.3765633590479815 0.1872249856039207 0  0.4394293461197586 0.187168781125829 0  0.5023434460111191 0.1871100582771593 0  0.5653111016549781 0.1870505035536505 0  0.6283362237650597 0.1869929543306371 0  0.6914204331350738 0.1869416095207045 0  0.7545620684185796 0.1869020274197661 0  0.8177544836067587 0.1868805534747338 0  0.8809817556585487 0.1868823148971053 0  0.9442064710408226 0.1869052733455373 0  1.007340809167804 0.1869217028957033 0  0 0.25 0  0.06278316110888117 0.2499468199799967 0  0.1255753915009526 0.2498923256217631 0  0.1883859425626812 0.2498352418971286 0  0.2512242596898201 0.2497744047256428 0  0.314100021601789 0.2497088506105708 0  0.3770230970764774 0.2496379508214586 0  0.4400033788320398 0.2495616087865966 0  0.5030504425630354 0.2494805401660417 0  0.5661729614819482 0.2493966512590377 0  0.6293777734087113 0.2493135163173395 0  0.6926684190135767 0.2492369148961631 0  0.7560427708505293 0.2491753014751819 0  0.8194889019620107 0.2491398961407423 0  0.8829774422393808 0.2491437476637703 0  0.9464477584387844 0.2491987010197285 0  1.009787188971764 0.2493099009384552 0  0 0.3125 0  0.06283702550619005 0.3124358905518549 0  0.1256852895105793 0.3123700253963562 0  0.1885563017078046 0.3123006747701609 0  0.2514619427537188 0.3122261958653995 0  0.3144145943344276 0.3121451170231563 0  0.3774271851873031 0.312056277821644 0  0.440513104942533 0.3119590540940523 0  0.5036859160318725 0.3118537055307204 0  0.5669587588336392 0.3117418924055995 0  0.6303432843118369 0.3116274126361024 0  0.6938478367618681 0.3115172002346278 0  0.7574744073933291 0.31142257924712 0  0.8212135643218305 0.311360645266609 0  0.8850362881247199 0.3113554050798432 0  0.9488822010081195 0.3114379586807198 0  1.012647257271277 0.3116447417163198 0  0 0.375 0  0.06287969651861586 0.374926718438335 0  0.1257726272241345 0.3748512024730303 0  0.1886924035747845 0.3747712158495685 0  0.2516532443768594 0.374684551688687 0  0.3146702393820744 0.3745890891298994 0  0.3777595460409403 0.3744829108127523 0  0.440938474368305 0.3743645190744529 0  0.5042253898359598 0.3742332070217252 0  0.5676393242755657 0.3740896669591077 0  0.6311991198630308 0.3739369535752961 0  0.6949218256583398 0.3737819588132156 0  0.7588199053422238 0.3736375830033998 0  0.8228966214641429 0.3735257587507297 0  0.8871389034007394 0.3734813103339879 0  0.951507589413308 0.3735561754083498 0  1.015926999668447 0.3738226384700743 0  0 0.4375 0  0.06290918385084546 0.4374197811356539 0  0.1258333082799458 0.4373368406554568 0  0.1887878078009624 0.4372484128195748 0  0.2517890080394121 0.4371516688684965 0  0.3148545611217654 0.4370437203619842 0  0.3780038533093089 0.4369216768305452 0  0.4412583572306814 0.4367827985433667 0  0.5046418817413365 0.4366248118438106 0  0.5681806439386308 0.4364464981969066 0  0.6319030460966675 0.4362487374297325 0  0.6958389790882585 0.4360362897778296 0  0.7600183869265618 0.4358207409928785 0  0.8244687200628444 0.4356251753606893 0  0.8892108316205419 0.4354911562970217 0  0.9542529926998939 0.4354882064549754 0  1.019583312259046 0.4357249114488821 0  0 0.5 0  0.06292378348412493 0.4999155629344679 0  0.1258637865890323 0.4998279532079339 0  0.1888368395335055 0.4997339002079623 0  0.251860970046632 0.4996299487077284 0  0.3149560349607758 0.4995123840873014 0  0.3781443834687853 0.4993771901405545 0  0.441451555758149 0.4992200729201887 0  0.504907016571327 0.4990366135924754 0  0.56854492384751 0.4988226667869246 0  0.6324049469791652 0.4985752167499687 0  0.6965331914741599 0.4982940713982125 0  0.7609833693711159 0.4979850535096983 0  0.8258184635158903 0.4976657594951003 0  0.8911131811563744 0.4973753855403925 0  0.9569573145869731 0.4971900232030179 0  1.023459913696458 0.497242867625524 0  0 0.5625 0  0.06292221747810361 0.5624145104484375 0  0.1258613576418558 0.5623254908236541 0  0.18883505635043 0.5622292541422514 0  0.2518624393215481 0.5621217920533431 0  0.3149649512929917 0.5619986047537641 0  0.3781672898298516 0.5618545263523076 0  0.4414984882685567 0.5616835591230342 0  0.5049932096333248 0.5614787530401518 0  0.568693356422694 0.5612322141810596 0  0.6326502036960191 0.5609354222193773 0  0.6969274891306716 0.5605802346354248 0  0.7616063399261813 0.5601613531839701 0  0.8267936562191531 0.5596817903855789 0  0.8926364583281735 0.5591641223287486 0  0.9593450688087938 0.558671458777552 0  1.027227077349539 0.5583399151016989 0  0 0.625 0  0.06290378599936551 0.624916975722942 0  0.1258244799720466 0.6248302209933514 0  0.1887797754861341 0.6247357939418785 0  0.2517890890790365 0.6246293014422025 0  0.3148745584943372 0.6245056314483478 0  0.3780622212672491 0.6243586332333402 0  0.4413834606030579 0.6241807279823672 0  0.5048768437500186 0.6239624377896621 0  0.568590562487074 0.6236918405386933 0  0.6325858828366778 0.6233540132729383 0  0.696942476121223 0.6229306736999037 0  0.7617675514463222 0.6224006161261018 0  0.8272128472223281 0.6217425415313673 0  0.8935071210561484 0.620944312628645 0  0.9610155584049347 0.6200271231712211 0  1.030337320260185 0.6190932059077715 0  0 0.6875 0  0.06286851244257645 0.6874231537316499 0  0.125753087102492 0.6873425927366826 0  0.1886705980498768 0.6872543521268808 0  0.2516397682773223 0.687153919560437 0  0.3146822758823414 0.6870358881262389 0  0.3778241063954032 0.6868935094519082 0  0.4410972743147274 0.6867180943696921 0  0.5045420876469109 0.6864981895698559 0  0.5682102320408832 0.6862184333940377 0  0.6321691923866181 0.6858579659141579 0  0.6965091556990471 0.6853882600143314 0  0.7613552126672913 0.6847703547283638 0  0.8268920020501268 0.6839521542700734 0  0.8934179553967033 0.6828695161828404 0  0.96146350965576 0.6814666640293506 0  1.032017966266915 0.6797768040811643 0  0 0.75 0  0.06281725782277502 0.7499330243658257 0  0.1256488396778704 0.7498626084241623 0  0.1885098478777233 0.7497850493539132 0  0.2514172091649927 0.7496960602852062 0  0.3143907968665674 0.7495903832891112 0  0.3774548425483052 0.7494612680447543 0  0.4406397849937657 0.7492997349135037 0  0.5039847572909326 0.7490934993530772 0  0.5675409994864685 0.7488253651900162 0  0.6313766613469468 0.7484707761230608 0  0.6955839457682542 0.7479940050459067 0  0.7602911576913396 0.7473420780813508 0  0.825687884079272 0.7464349021029684 0  0.8920907887074971 0.7451498476936694 0  0.9601348571484335 0.74330696213544 0  1.031236753319318 0.7407557145406497 0  0 0.8125 0  0.06275177942722347 0.8124463108217238 0  0.1255152640111852 0.8123897290678596 0  0.1883028349390531 0.8123271208088707 0  0.2511284926308516 0.8122548090647914 0  0.314008878316658 0.8121682028434718 0  0.3769645933662983 0.8120612823990259 0  0.440021974825386 0.8119258477218243 0  0.5032155386613266 0.8117503837150131 0  0.5665913604339247 0.8115183041591408 0  0.6302117026344244 0.8112051769501998 0  0.6941611962094223 0.8107742358599804 0  0.7585550452131303 0.810168862311445 0  0.8235519611263835 0.8092992143990276 0  0.8893908472034324 0.808016122021851 0  0.9565697573393926 0.8060545977561603 0  1.026904508307269 0.8029080176704664 0  0 0.875 0  0.0626747122591207 0.8749624655937221 0  0.1253577295473454 0.8749228385451964 0  0.1880578607965913 0.8748788407099763 0  0.250785140224787 0.874827773415943 0  0.3135516188805192 0.8747662241451386 0  0.3763724131971353 0.8746896513483257 0  0.4392671578945471 0.8745917652414297 0  0.502262067806884 0.8744635723944315 0  0.565392869179612 0.8742918672642829 0  0.6287088371996337 0.8740568126681081 0  0.6922777944835504 0.8737280144019403 0  0.7561903130623073 0.873258051780222 0  0.8205561235329972 0.872571242843732 0  0.8854722014194254 0.8715406156703416 0  0.9509281530329089 0.8699234042880545 0  1.016830782083328 0.8671151718381682 0  0 0.9375 0  0.06258946055440155 0.9374806916302811 0  0.125183234947928 0.9374602845096456 0  0.1877859083186599 0.9374375789875102 0  0.2504027315483397 0.9374111456556498 0  0.313040060261261 0.9373791629832886 0  0.3757059499777638 0.9373391845236164 0  0.4384110053535594 0.9372877866405
[...]
<PointData  Vectors="f_54"> 
<DataArray  type="Float64"  Name="f_54"  NumberOfComponents="3" format="ascii">0.0000000000000000e+00 0.0000000000000000e+00 0.0000000000000000e+00  0.0000000000000000e+00 0.0000000000000000e+00 0.0000000000000000e+00  0.0000000000000000e+00 0.0000000000000000e+00 0.0000000000000000e+00  0.0000000000000000e+00 0.0000000000000000e+00 0.0000000000000000e+00  0.0000000000000000e+00 0.0000000000000000e+00 0.0000000000000000e+00  0.0000000000000000e+00 0.0000000000000000e+00 0.0000000000000000e+00  0.0000000000000000e+00 0.0000000000000000e+00 0.0000000000000000e+00  0.0000000000000000e+00 0.0000000000000000e+00 0.0000000000000000e+00  0.0000000000000000e+00 0.0000000000000000e+00 0.0000000000000000e+00  0.0000000000000000e+00 0.0000000000000000e+00 0.0000000000000000e+00  0.0000000000000000e+00 0.0000000000000000e+00 0.0000000000000000e+00  0.0000000000000000e+00 0.0000000000000000e+00 0.0000000000000000e+00  0.0000000000000000e+00 0.0000000000000000e+00 0.0000000000000000e+00  0.0000000000000000e+00 0.0000000000000000e+00 0.0000000000000000e+00  0.0000000000000000e+00 0.0000000000000000e+00 0.0000000000000000e+00  0.0000000000000000e+00 0.0000000000000000e+00 0.0000000000000000e+00  0.0000000000000000e+00 0.0000000000000000e+00 0.0000000000000000e+00  0.0000000000000000e+00 0.0000000000000000e+00 0.0000000000000000e+00  3.1869782760505383e-06 -1.1190127571842790e-07 0.0000000000000000e+00  6.4905378233810679e-06 -2.2905028815916235e-07 0.0000000000000000e+00  1.0032435996401546e-05 -3.5700828612829216e-07 0.0000000000000000e+00  1.3942018048560908e-05 -5.0185916647129285e-07 0.0000000000000000e+00  1.8360316824968950e-05 -6.7045308406844337e-07 0.0000000000000000e+00  2.3444549970895517e-05 -8.7060061405067679e-07 0.0000000000000000e+00  2.9373527768991563e-05 -1.1111576037006213e-06 0.0000000000000000e+00  3.6355284670243663e-05 -1.4019018934748959e-06 0.0000000000000000e+00  4.4640405126002345e-05 -1.7530743092759484e-06 0.0000000000000000e+00  5.4550438484194115e-05 -2.1745249426933830e-06 0.0000000000000000e+00  6.6547672671896183e-05 -2.6748994645640644e-06 0.0000000000000000e+00  8.1423155903812358e-05 -3.2634337430015201e-06 0.0000000000000000e+00  1.0084136882983888e-04 -3.9653604310280837e-06 0.0000000000000000e+00  1.2903104788204478e-04 -4.8955078805668511e-06 0.0000000000000000e+00  1.7843278818810174e-04 -6.5742782965157752e-06 0.0000000000000000e+00  2.9022445087955207e-04 -1.1295265495585970e-05 0.0000000000000000e+00  0.0000000000000000e+00 0.0000000000000000e+00 0.0000000000000000e+00  6.2639475112970743e-06 -2.1878877228883321e-07 0.0000000000000000e+00  1.2758539973973597e-05 -4.4786257242293488e-07 0.0000000000000000e+00  1.9724663387000571e-05 -6.9813883582015912e-07 0.0000000000000000e+00  2.7418495219709536e-05 -9.8161516627235732e-07 0.0000000000000000e+00  3.6119662478645906e-05 -1.3118964918737814e-06 0.0000000000000000e+00  4.6139934402382183e-05 -1.7046529857928512e-06 0.0000000000000000e+00  5.7832987935886098e-05 -2.1778965362995507e-06 0.0000000000000000e+00  7.1606546568752299e-05 -2.7518621744113447e-06 0.0000000000000000e+00  8.7940145658040684e-05 -3.4481294778434777e-06 0.0000000000000000e+00  1.0741654320918173e-04 -4.2874145277755142e-06 0.0000000000000000e+00  1.3078583350120286e-04 -5.2851926923469591e-06 0.0000000000000000e+00  1.5910462787546635e-04 -6.4437216952224506e-06 0.0000000000000000e+00  1.9403083665595785e-04 -7.7360954794822088e-06 0.0000000000000000e+00  2.3835448010001210e-04 -9.0603441718926081e-06 0.0000000000000000e+00  2.9638128464056786e-04 -1.0041873760956720e-05 0.0000000000000000e+00  3.7032373359197047e-04 -9.0257455718731140e-06 0.0000000000000000e+00  0.0000000000000000e+00 0.0000000000000000e+00 0.0000000000000000e+00  9.1156223422407500e-06 -3.1558751009811839e-07 0.0000000000000000e+00  1.8569723186869172e-05 -6.4601441686146007e-07 0.0000000000000000e+00  2.8715758817961200e-05 -1.0070670198768542e-06 0.0000000000000000e+00  3.9930220012136167e-05 -1.4162059868008775e-06 0.0000000000000000e+00  5.2624778270629369e-05 -1.8934380946220312e-06 0.0000000000000000e+00  6.7258860200840326e-05 -2.4621626473185696e-06 0.0000000000000000e+00  8.4352731770318665e-05 -3.1498657502616012e-06 0.0000000000000000e+00  1.0450116777800727e-04 -3.9883783338356682e-06 0.0000000000000000e+00  1.2838782784110433e-04 -5.0131331772062422e-06 0.0000000000000000e+00  1.5680033907686393e-04 -6.2603683841221666e-06 0.0000000000000000e+00  1.9064435247984735e-04 -7.7603891199876441e-06 0.0000000000000000e+00  2.3094510398488316e-04 -9.5235883053765095e-06 0.0000000000000000e+00  2.7878360775436772e-04 -1.1513800945058867e-05 0.0000000000000000e+00  3.3496596665118873e-04 -1.3602955495650926e-05 0.0000000000000000e+00  3.9877591757936896e-04 -1.5523948500670435e-05 0.0000000000000000e+00  4.6419797358747129e-04 -1.7039344319296684e-05 0.0000000000000000e+00  0.0000000000000000e+00 0.0000000000000000e+00 0.0000000000000000e+00  1.1633363789333676e-05 -3.9772415381941212e-07 0.0000000000000000e+00  2.3703059595725232e-05 -8.1407548538981438e-07 0.0000000000000000e+00  3.6664639646833445e-05 -1.2689147624281913e-06 0.0000000000000000e+00  5.1004467736863484e-05 -1.7843743588950307e-06 0.0000000000000000e+00  6.7255936080556526e-05 -2.3861295354829443e-06 0.0000000000000000e+00  8.6016084850678131e-05 -3.1047769571831002e-06 0.0000000000000000e+00  1.0796220773315409e-04 -3.9772515560211793e-06 0.0000000000000000e+00  1.3386718407884158e-04 -5.0480473846646284e-06 0.0000000000000000e+00  1.6461049157217219e-04 -6.3696731416636419e-06 0.0000000000000000e+00  2.0117787932328411e-04 -8.0011196256847057e-06 0.0000000000000000e+00  2.4463346974441970e-04 -1.0001889033286380e-05 0.0000000000000000e+00  2.9602635906629353e-04 -1.2416940933798073e-05 0.0000000000000000e+00  3.5614410316163811e-04 -1.5244277627493772e-05 0.0000000000000000e+00  4.2492320097798394e-04 -1.8371558006595412e-05 0.0000000000000000e+00  5.0017146698033829e-04 -2.1460007076357944e-05 0.0000000000000000e+00  5.7525401709727756e-04 -2.3719384843202845e-05 0.0000000000000000e+00  0.0000000000000000e+00 0.0000000000000000e+00 0.0000000000000000e+00  1.3719056716261918e-05 -4.6141359021649585e-07 0.0000000000000000e+00  2.7958551436855995e-05 -9.4419870451641000e-07 0.0000000000000000e+00  4.3261741759342850e-05 -1.4711800255324221e-06 0.0000000000000000e+00  6.0210435620132104e-05 -2.0679752788406059e-06 0.0000000000000000e+00  7.9445512024205786e-05 -2.7646723842626350e-06 0.0000000000000000e+00  1.0168828311553169e-04 -3.5978313881891717e-06 0.0000000000000000e+00  1.2776221084944520e-04 -4.6128905428741695e-06 0.0000000000000000e+00  1.5861327521436163e-04 -5.8669643402749805e-06 0.0000000000000000e+00  1.9532477692535066e-04 -7.4317778523153185e-06 0.0000000000000000e+00  2.3911723709019327e-04 -9.3959064030688398e-06 0.0000000000000000e+00  2.9131388377752487e-04 -1.1864231673145395e-05 0.0000000000000000e+00  3.5323299365373046e-04 -1.4949944683856306e-05 0.0000000000000000e+00  4.2593574793483343e-04 -1.8749452008730602e-05 0.0000000000000000e+00  5.0971610718917280e-04 -2.3281568600157626e-05 0.0000000000000000e+00  6.0320952354877948e-04 -2.8357308530133668e-05 0.0000000000000000e+00  7.0216286344056589e-04 -3.3324500730990385e-05 0.0000000000000000e+00  0.0000000000000000e+00 0.0000000000000000e+00 0.0000000000000000e+00  1.5288947204821444e-05 -5.0393485084020708e-07 0.0000000000000000e+00  3.1164964712202282e-05 -1.0307090331245676e-06 0.0000000000000000e+00  4.8240723490556052e-05 -1.6047171001024906e-06 0.0000000000000000e+00  6.7174841134797614e-05 -2.2534748557932388e-06 0.0000000000000000e+00  8.8696873114022616e-05 -3.0096143808436245e-06 0.0000000000000000e+00  1.1363423873759568e-04 -3.9134591765260193e-06 0.0000000000000000e+00  1.4294117939331184e-04 -5.0164785037752755e-06 0.0000000000000000e+00  1.7772889219283143e-04 -6.3859948546101937e-06 0.0000000000000000e+00  2.1929397839767461e-04 -8.1115544306244823e-06 0.0000000000000000e+00  2.6913837672826678e-04 -1.0313237126522192e-05 0.0000000000000000e+00  3.2896664179681993e-04 -1.3151557183929480e-05 0.0000000000000000e+00  4.0063439649775387e-04 -1.6836760166786230e-05 0.0000000000000000e+00  4.8600591264644010e-04 -2.1630760187400893e-05 0.0000000000000000e+00  5.8666895468387616e-04 -2.7824973381766618e-05 0.0000000000000000e+00  7.0348343275000020e-04 -3.5657946080529179e-05 0.0000000000000000e+00  8.3606727555931258e-04 -4.5104789907235074e-05 0.0000000000000000e+00  0.0000000000000000e+00 0.0000000000000000e+00 0.0000000000000000e+00  1.6277366911278707e-05 -5.2385939310384735e-07 0.0000000000000000e+00  3.3187438247610970e-05 -1.0706116650528060e-06 0.0000000000000000e+00  5.1390265229574829e-05 -1.6646414420285445e-06 0.0000000000000000e+00  7.1598284978122509e-05 -2.3334622101532800e-06 0.0000000000000000e+00  9.4605554540665767e-05 -3.1098193297465401e-06 0.0000000000000000e+00  1.2132055118466372e-04 -4.0345758920205411e-06 0.0000000000000000e+00  1.5280379771710542e-04 -5.1609048654520659e-06 0.0000000000000000e+00  1.9031142095821252e-04 -6.5606102148035627e-06 0.0000000000000000e+00  2.3534520754294323e-04 -8.3338687134946158e-06 0.0000000000000000e+00  2.8970838625466092e-04 -1.0624366031283635e-05 0.0000000000000000e+00  3.5556372559259559e-04 -1.3642653368331851e-05 0.0000000000000000e+00  4.3548641952912261e-04 -1.7701227724081896e-05 0.0000000000000000e+00  5.3250051688907569e-04 -2.3264166237010434e-05 0.0000000000000000e+00  6.5009266905202115e-04 -3.1009136286623575e-05 0.0000000000000000e+00  7.9223336986995383e-04 -4.1884276120612276e-05 0.0000000000000000e+00  9.6354504186372647e-04 -5.7108146770588605e-05 0.0000000000000000e+00  0.0000000000000000e+00 0.0000000000000000e+00 0.0000000000000000e+00  1.6640173797103648e-05 -5.2118095273816722e-07 0.0000000000000000e+00  3.3934654925843772e-05 -1.0639047710773055e-06 0.0000000000000000e+00  5.2565585131846847e-05 -1.6509512537163400e-06 0.0000000000000000e+00  7.3272117975302527e-05 -2.3078265653458748e-06 0.0000000000000000e+00  9.6882993597991222e-05 -3.0646566374842257e-06 0.0000000000000000e+00  1.2435445428440420e-04 -3.9589042035065465e-06 0.0000000000000000e+00  1.5681617815972254e-04 -5.0395568326903675e-06 0.0000000000000000e+00  1.9562886750948202e-04 -6.3739246298815982e-06 0.0000000000000000e+00  2.4245860004143473e-04 -8.0590872432587534e-06 0.0000000000000000e+00  2.9937525809823321e-04 -1.0241665932209655e-05 0.0000000000000000e+00  3.6898560380738566e-04 -1.3152513497411257e-05 0.0000000000000000e+00  4.5461640160535338e-04 -1.7167925927762587e-05 0.0000000000000000e+00  5.6057089731592689e-04 -2.2917006741907841e-05 0.0000000000000000e+00  6.9249861454503069e-04 -3.1466213193767971e-05 0.0000000000000000e+00  8.5796482115160875e-04 -4.4626000426180707e-05 0.0000000000000000e+00  1.0674489110591092e-03 -6.5445463465601069e-05 0.0000000000000000e+00  0.0000000000000000e+00 0.0000000000000000e+00 0.0000000000000000e+00  1.6357617440796861e-05 -4.9729571021068991e-07 0.0000000000000000e+00  3.3364960071992516e-05 -1.0135737953888439e-06 0.0000000000000000e+00  5.1698661750472079e-05 -1.5686234874871721e-06 0.0000000000000000e+00  7.2094288129381605e-05 -2.1841484968358806e-06 0.0000000000000000e+00  9.5380581838389424e-05 -2.8850949599350453e-06 0.0000000000000000e+00  1.2252042196729415e-04 -3.7016018255500077e-06 0.0000000000000000e+00  1.5466239135202657e-04 -4.6721417097941316e-06 0.0000000000000000e+00  1.9320889238465266e-04 -5.8489483080958294e-06 0.0000000000000000e+00  2.3991031670533047e-04 -7.3078971956518436e-06 0.0000000000000000e+00  2.9700091700067869e-04 -9.1672030121023398e-06 0.0000000000000000e+00  3.6740239574398751e-04 -1.1623847437266728e-05 0.0000000000000000e+00  4.5503803257714113e-04 -1.5026119107690307e-05 0.0000000000000000e+00  5.6532582203773865e-04 -2.0020144499490818e-05 0.0000000000000000e+00  7.0595663223426569e-04 -2.7847229519652012e-05 0.0000000000000000e+00  8.8812834411410599e-04 -4.0942834417626522e-05 0.0000000000000000e+00  1.1285950346439173e-03 -6.4128091547132837e-05 0.0000000000000000e+00  0.0000000000000000e+00 0.0000000000000000e+00 0.0000000000000000e+00  1.5436252310359969e-05 -4.5480108132277924e-07 0.0000000000000000e+00  3.1490585927170841e-05 -9.2518292639773782e-07 0.0000000000000000e+00  4.8805651287323217e-05 -1.4269955094525970e-06 0.0000000000000000e+00  6.8081590655718076e-05 -1.9769056083575767e-06 0.0000000000000000e+00  9.0109681305769736e-05 -2.5928796146548849e-06 0.0000000000000000e+00  1.1581316363091941e-04 -3.2948496897954384e-06 0.0000000000000000e+00  1.4629969066261110e-04 -4.1058127261206450e-06 0.0000000000000000e+00  1.8293254831235387e-04 -5.0539350035159515e-06 0.0000000000000000e+00  2.2743285556820749e-04 -6.1769783565930731e-06 0.0000000000000000e+00  2.8203446683859314e-04 -7.5321048348880156e-06 0.0000000000000000e+00  3.4973117537837018e-04 -9.2183041816084163e-06 0.0000000000000000e+00  4.3468877505067758e-04 -1.1429031193659858e-05 0.0000000000000000e+00  5.4295221893537686e-04 -1.4578699432099251e-05 0.0000000000000000e+00  6.8366847911495053e-04 -1.9612350336310388e-05 0.0000000000000000e+00  8.7116285131134149e-04 -2.8766984226165654e-05 0.0000000000000000e+00  1.1283786590112537e-03 -4.7408545402799323e-05 0.0000000000000000e+00  0.0000000000000000e+00 0.0000000000000000e+00 0.0000000000000000e+00  1.3909528375255799e-05 -3.9712118118302333e-07 0.0000000000000000e+00  2.8379124826039822e-05 -8.0606819306818216e-07 0.0000000000000000e+00  4.3989881565723383e-05 -1.2384015365154352e-06 0.0000000000000000e+00  6.1375409515787980e-05 -1.7053506749158300e-06 0.0000000000000000e+00  8.1252416071134429e-05 -2.2173670108877271e-06 0.0000000000000000e+00  1.0445778566625996e-04 -2.7832992833187022e-06 0.0000000000000000e+00  1.3199616170248785e-04 -3.4089660622922893e-06 0.0000000000000000e+00  1.6510459677414958e-04 -4.0948158096773200e-06 0.0000000000000000e+00  2.0534594129604071e-04 -4.8322945318576319e-06 0.0000000000000000e+00  2.5475317765988044e-04 -5.5986368240150728e-06 0.0000000000000000e+00  3.1606942203406290e-04 -6.3506530391209957e-06 0.0000000000000000e+00  3.9317740767957763e-04 -7.0219501022016170e-06 0.0000000000000000e+00  4.9191858212312253e-04 -7.5433272816656735e-06 0.0000000000000000e+00  6.2171790569716856e-04 -7.9639199181129304e-06 0.0000000000000000e+00  7.9877830077120643e-04 -8.9549005789340120e-06 0.0000000000000000e+00  1.0518163664902690e-03 -1.3540335599607328e-05 0.0000000000000000e+00  0.0000000000000000e+00 0.0000000000000000e+00 0.0000000000000000e+00  1.1836809542300738e-05 -3.2801752397087934e-07 0.0000000000000000e+00  2.4151650397871878e-05 -6.6425591863886328e-07 0.0000000000000000e+00  3.7439231956409618e-05 -1.0162643479991805e-06 0.0000000000000000e+00  5.2238689041546900e-05 -1.3903477349397375e-06 0.0000000000000000e+00  6.9158978232269932e-05 -1.7903652657023433e-06 0.0000000000000000e+00  8.8909102981337229e-05 -2.2156654111401037e-06 0.0000000000000000e+00  1.1233580162795929e-04 -2.6574911257201430e-06 0.0000000000000000e+00  1.4047279930143016e-04 -3.0926836475938617e-06 0.0000000000000000e+00  1.7460880034240846e-04 -3.4725372827266583e-06 0.0000000000000000e+00  2.1638854102194020e-04 -3.7027035877804690e-06 0.0000000000000000e+00  2.6797945812462336e-04 -3.6059812777343374e-06 0.0000000000000000e+00  3.3238648416792786e-04 -2.8512259727123565e-06 0.0000000000000000e+00  4.1413986470419150e-04 -8.1434185470955852e-07 0.0000000000000000e+00  5.2098731434692153e-04 3.6862294142343449e-06 0.0000000000000000e+00  6.6829001509938505e-04 1.2767889483488854e-05 0.0000000000000000e+00  8.8925733346597289e-04 2.8873277687048146e-05 0.0000000000000000e+00  0.0000000000000000e+00 0.0000000000000000e+00 0.0000000000000000e+00  9.3007871559886408e-06 -2.5108705334166997e-07 0.0000000000000000e+00  1.8977377050174718e-05 -5.0733779508853017e-07 0.0000000000000000e+00  2.9417611561905670e-05 -7.7306543422969928e-07 0.0000000000000000e+00  4.1043446430053874e-05 -1.0508980559754451e-06 0.0000000000000000e+00  5.4329859921104973e-05 -1.3402251865819260e-06 0.0000000000000000e+00  6.9826500031120193e-05 -1.6345584115608521e-06 0.0000000000000000e+00  8.8182940772460521e-05 -1.9169316414843590e-06 0.0000000000000000e+00  1.1017821699893675e-04 -2.1517626215606411e-06 0.0000000000000000e+00  1.3675475500225120e-04 -2.2701986470829539e-06 0.0000000000000000e+00  1.6905596212919702e-04 -2.1430398443901296e-06 0.0000000000000000e+00  2.0846751437749627e-04 -1.5286995342125206e-06 0.0000000000000000e+00  2.5667678773982542e-04 3.2981264961027006e-08 0.0000000000000000e+00  3.1585197481918389e-04 3.4573518323244601e-06 0.0000000000000000e+00  3.8946661812575153e-04 1.0709607928712345e-05 0.0000000000000000e+00  4.8616283908500363e-04 2.6536281934378826e-05 0.0000000000000000e+00  6.3628330420053994e-04 6.4351150055995727e-05 0.0000000000000000e+00  0.0000000000000000e+00 0.0000000000000000e+00 0.0000000000000000e+00  6.4035066219327848e-06 -1.6936656612817850e-07 0.0000000000000000e+00  1.3065332263633422e-05 -3.4158016941055819e-07 0.0000000000000000e+00  2.0251367398198259e-05 -5.1872490820513639e-07 0.0000000000000000e+00  2.8250194139876208e-05 -7.0133325131032638e-07 0.0000000000000000e+00  3.7385180328859249e-05 -8.8698264813411294e-07 0.0000000000000000e+00  4.8027561749832644e-05 -1.0679301033152121e-06 0.0000000000000000e+00  6.0610058418075225e-05 -1.2270169151338913e-06 0.0000000000000000e+00  7.5639108088280472e-05 -1.3304862070068492e-06 0.0000000000000000e+00  9.3700167448218852e-05 -1.3152559805967221e-06 0.0000000000000000e+00  1.1544157784380306e-04 -1.0661074508141104e-06 0.0000000000000000e+00  1.4150055641123073e-04 -3.7416228286889654e-07 0.0000000000000000e+00  1.7228292853799674e-04 1.1407112073749411e-06 0.0000000000000000e+00  2.0740263677104846e-04 4.1838131256679242e-06 0.0000000000000000e+00  2.4451723295599795e-04 1.0142243533951655e-05 0.0000000000000000e+00  2.7856908432499653e-04 2.2248976423880624e-05 0.0000000000000000e+00  3.1597713884310216e-04 5.1691612185871627e-05 0.0000000000000000e+00  0.0000000000000000e+00 0.0000000000000000e+00 0.0000000000000000e+00  3.2614256270770077e-06 -8.5141336478747240e-08 0.0000000000000000e+00  6.6539906776732761e-06 -1.7149889209305096e-07 0.0000000000000000e+00  1.0312386011326406e-05 -2.5984305150067967e-07 0.0000000000000000e+00  1.4382426207338909e-05 -3.5002788655520842e-07 0.0000000000000000e+00  1.9026755144571532e-05 -4.4017242455418841e-07 0.0000000000000000e+00  2.4430646330488863e-05 -5.2529224612320709e-07 0.0000000000000000e+00  3.0807193850572623e-05 -5.9495603102795154e-07 0.0000000000000000e+00  3.8399825606426313e-05 -6.2924756253568428e-07 0.0000000000000000e+00  4.7476590394515141e-05 -5.9184134275833709e-07 0.0000000000000000e+00  5.8301408028590207e-05 -4.1838272951925710e-07 0.0000000000000000e+00  7.1041215938889125e-05 1.7930911279192019e-09 0.0000000000000000e+00  8.5487393470199351e-05 8.4878203658089020e-07 0.0000000000000000e+00  1.0020114501085150e-04 2.3732136312201345e-06 0.0000000000000000e+00  1.0974408155254889e-04 4.7190147244366087e-06 0.0000000000000000e+00  9.5573141262418390e-05 6.8178700087514563e-06 0.0000000000000000e+00  3.4797940817005620e-06 1.9623668800948628e-06 0.0000000000000000e+00  0.0000000000000000e+00 0.0000000000000000e+00 0.0000000000000000e+00  0.0000000000000000e+00 0.0000000000000000e+00 0.0000000000000000e+00  0.0000000000000000e+00 0.0000000000000000e+00 0.0000000000000000e+00  0.0000000000000000e+00 0.0000000000000000e+00 0.0000000000000000e+00  0.0000000000000000e+00 0.0000000000000000e+00 0.0000000000000000e+00  0.0000000000000000e+00 0.0000000000000000e+00 0.0000000000000000e+00  0.0000000000000000e+00 0.0000000000000000e+00 0.0000000000000000e+00  0.0000000000000000e+00 0.0000000000000000e+00 0.0000000000000000e+00  0.0000000000000000e+00 0.0000000000000000e+00 0.0000000000000000e+00  0