<?xml version="1.0"?>
<VTKFile type="UnstructuredGrid"  version="0.1"  >
<UnstructuredGrid>
<Piece  NumberOfPoints="289" NumberOfCells="512">
<Points>
<DataArray  type="Float64"  NumberOfComponents="3"  format="ascii">0 0 0  0.0625 0 0  0.125 0 0  0.1875 0 0  0.25 0 0  0.3125 0 0  0.375 0 0  0.4375 0 0  0.5 0 0  0.5625 0 0  0.625 0 0  0.6875 0 0  0.75 0 0  0.8125 0 0  0.875 0 0  0.9375 0 0  1 0 0  0 0.0625 0  0.06252057859751159 0.06247963299146478 0  0.1250417946051369 0.06245890246582942 0  0.1875642880879876 0.06243747360667429 0  0.2500887173953467 0.06241508671829715 0  0.3126157704348493 0.06239160588134388 0  0.3751461819006321 0.06236707978003854 0  0.4376807651484521 0.06234181527787123 0  0.5002204773712811 0.06231645913846216 0  0.5627665573434751 0.06229207389102016 0  0.6253208188864668 0.06227017852291367 0  0.6878862798865946 0.06225270334028023 0  0.7504685217027497 0.06224178831537183 0  0.8130786096036841 0.06223937075536915 0  0.8757388737491739 0.06224670668723926 0  0.9384898805276694 0.06226507784041505 0  1.001360804823614 0.0623069409758149 0  0 0.125 0  0.06254049087855591 0.1249596151893336 0  0.1250822598350583 0.1249184658523736 0  0.1876265966165539 0.1248758406714138 0  0.2501748384884228 0.1248311696768611 0  0.3127284004802539 0.1247841186825693 0  0.3752888200444627 0.1247347110139675 0  0.4378578338021159 0.1246834805013785 0  0.5004375221699 0.1246316510280104 0  0.5630305927949359 0.1245813208333307 0  0.6256409410304143 0.1245355992985934 0  0.6882747502951574 0.1244985951873802 0  0.75094260258148 0.1244750897127602 0  0.8136633089573463 0.1244696748602216 0  0.8764700286607139 0.1244852191707989 0  0.9394177543085326 0.1245210442285243 0  1.002595729542891 0.1245713094243221 0  0 0.1875 0  0.06255912298415151 0.1874403545535277 0  0.1251201526284213 0.1873794753062012 0  0.1876850219985796 0.1873161973590986 0  0.2502557472372008 0.1872495441878611 0  0.3128344792558692 0.1871788603032914 0  0.3754235756385916 0.1871039907304177 0  0.438025714301692 0.1870255197518841 0  0.5006440890838066 0.1869450729986843 0  0.5632827588940484 0.1868656672965236 0  0.6259472703673638 0.1867920517599365 0  0.688645733079349 0.1867309042386431 0  0.7513905468408154 0.1866905960167865 0  0.8142007837933205 0.186679931409947 0  0.8771043959368487 0.1867045338231079 0  0.9401377315406001 0.186757374840543 0  1.003340840246609 0.1867929174252586 0  0 0.25 0  0.06257587703121917 0.2499223264647921 0  0.1251542587985321 0.24984286071326 0  0.1877376958782092 0.2497598811469056 0  0.250328859871106 0.2496718702858746 0  0.3129306157850508 0.2495776708514313 0  0.3755461161462479 0.2494767116205577 0  0.4381789369813645 0.2493693299916573 0  0.5008332892968324 0.2492572161917176 0  0.5635143569425022 0.2491439919099236 0  0.6262288249148619 0.249035901468402 0  0.6889856438693525 0.2489425132220087 0  0.7517969550360313 0.2488771605598682 0  0.8146787318830133 0.2488565237940367 0  0.8776499352072293 0.2488981747048097 0  0.9407281763256333 0.2490141682447047 0  1.003921011601852 0.2491994480041053 0  0 0.3125 0  0.06259017859050868 0.312406093646417 0  0.1251834096755662 0.3123097423291232 0  0.1877828146684741 0.3122085542402755 0  0.250391674237799 0.3121003132485165 0  0.3130135200688499 0.3119831338029082 0  0.3756522473817631 0.3118557076185125 0  0.4383122655459811 0.3117176879825752 0  0.5009987129168787 0.3115702686558407 0  0.5637177685239447 0.3114170224293743 0  0.6264770844822297 0.3112650585348841 0  0.6892863084761873 0.31112651439296 0  0.7521575106640387 0.3110202685951531 0  0.8151050210535788 0.3109734699801776 0  0.8781438280808871 0.3110219334070424 0  0.9412860270495946 0.3112076898175045 0  1.00453797620772 0.3115714400505834 0  0 0.375 0  0.0626014863616213 0.374892310334431 0  0.1252065023278192 0.3747814449434658 0  0.1878186719443856 0.3746642405800834 0  0.2504418163221809 0.3745376260620834 0  0.3130800642323494 0.3743987406729217 0  0.3757379826989257 0.3742451576488069 0  0.4384207450016026 0.3740752770201782 0  0.5011343635292839 0.3738889814292119 0  0.5638860246937585 0.3736886884096196 0  0.6266845621241536 0.3734809792196768 0  0.689541068343685 0.373279020323022 0  0.7524695345912541 0.3731059693129155 0  0.8154871981975949 0.3729993597453912 0  0.8786140784931847 0.3730158900287495 0  0.9418715279355502 0.3732348790697873 0  1.005281735053158 0.3737569109213014 0  0 0.4375 0  0.06260930623098121 0.4373817050803365 0  0.1252225277441719 0.4372594680351051 0  0.1878437006341914 0.4371292942159298 0  0.2504770950665199 0.4369871375328047 0  0.3131273443749798 0.436828938761687 0  0.3757995945380139 0.4366507638836075 0  0.438499695821263 0.4364491168342246 0  0.5012344778552328 0.436221548815268 0  0.5640121815437795 0.4359677631967151 0  0.6268431670749853 0.4356915325553038 0  0.6897410676047538 0.4354039078120294 0  0.7527245797906968 0.4351283811554744 0  0.8158200074276341 0.4349087371168506 0  0.879064429078151 0.4348199459885874 0  0.94250903399213 0.4349810178157143 0  1.006222513316541 0.4355659364699423 0  0 0.5 0  0.06261321191719502 0.499875037925107 0  0.1252306117618758 0.4997454014606729 0  0.1878565335062458 0.4996062780707318 0  0.2504955806396879 0.4994526068354794 0  0.3131527722479611 0.4992789918971501 0  0.3758337089659823 0.4990796841311484 0  0.4385447861107225 0.4988486981368323 0  0.5012935157521105 0.4985801899074229 0  0.5640890906801738 0.49826932612766 0  0.6269434586382429 0.4979140638316285 0  0.6898734057255393 0.4975185815086796 0  0.7529044757985262 0.4970996144667231 0  0.8160778625418346 0.4966976167223744 0  0.8794613131353367 0.4963950884080497 0  0.9431638872870696 0.4963431995414527 0  1.007352267384187 0.4967925967347465 0  0 0.5625 0  0.0626128733556687 0.5623730309058776 0  0.1252300714957574 0.5622407825320929 0  0.1878560873091206 0.5620977409726374 0  0.2504957160536487 0.5619379149180944 0  0.3131542151772509 0.5617545898866833 0  0.3758374789156694 0.5615400893765712 0  0.4385522544189681 0.5612855786357781 0  0.5013064720129865 0.5609809980428069 0  0.5641098739569793 0.5606153190617266 0  0.6269753770843929 0.560177534010883 0  0.6899221198402891 0.5596592381536459 0  0.7529820782104276 0.559060559432429 0  0.816213502724445 0.5584028688688822 0  0.879725572692916 0.5577542592326177 0  0.9437173559368988 0.5572753746605972 0  1.008526939773627 0.5572869904173638 0  0 0.625 0  0.06260809197404409 0.6248762760326277 0  0.1252204859749304 0.6247469013582941 0  0.187841669295339 0.6246058989364984 0  0.2504764608146386 0.6244465897811045 0  0.3131301810444468 0.624261177890104 0  0.3758088255569749 0.6240402583516158 0  0.4385192545735052 0.6237722293797024 0  0.5012694510135957 0.6234426100004569 0  0.5640690206995977 0.6230333250943794 0  0.6269304393546277 0.6225221785467036 0  0.6898723735564578 0.6218831475859434 0  0.752928255226389 0.621089198015443 0  0.8161669103756629 0.620122043638876 0  0.8797374051006043 0.6189997019999611 0  0.9439532059115496 0.6178435868475168 0  1.009420501657397 0.6170044520906557 0  0 0.6875 0  0.06259883952403293 0.6873851313143259 0  0.1252017747796549 0.687264575791326 0  0.1878130973900873 0.6871322525748401 0  0.2504374542621308 0.6869812056634507 0  0.3130800265236087 0.6868030453115243 0  0.3757466985975545 0.6865872247002167 0  0.4384442027011655 0.6863200658471126 0  0.5011802287003526 0.6859834207295405 0  0.5639635504072833 0.685552822795472 0  0.6268044818092757 0.6849949734555406 0  0.6897168624383873 0.6842645107559483 0  0.7527254023421776 0.683300586203123 0  0.8158891950555557 0.6820262468059157 0  0.879367781114318 0.6803634141473958 0  0.9435774160292364 0.6783112873469893 0  1.009480698518003 0.6761893114883989 0  0 0.75 0  0.06258529478886371 0.7498996215854287 0  0.1251742740365257 0.7497939318904059 0  0.1877708195483062 0.7496772006095948 0  0.2503791810471332 0.7495427473700316 0  0.3130041648160297 0.7493823049411696 0  0.3756513082654483 0.7491851513749468 0  0.4383269982844625 0.7489368679803905 0  0.5010384408622387 0.748617502885255 0  0.5637933147162949 0.7481987895957427 0  0.6265988985975829 0.7476398450947557 0  0.6894607671503544 0.7468803752093043 0  0.7523831199781034 0.7458297405644148 0  0.8153812444982783 0.7443494738687033 0  0.8785472226019936 0.7422292482939761 0  0.9423008851189253 0.7391901337405412 0  1.007923006090166 0.7352802368742383 0  0 0.8125 0  0.06256787083915603 0.8124193646697049 0  0.1251387960271152 0.8123342355674048 0  0.1877160145890972 0.812239730420582 0  0.2503031223380935 0.8121300739194136 0  0.3129042666206938 0.8119979793502796 0  0.3755243411021278 0.8118337785313752 0  0.4381691336606497 0.8116241322783574 0  0.5008452914559793 0.8113500507121767 0  0.5635597581918634 0.8109837703277619 0  0.6263178738613756 0.8104836973282993 0  0.6891184001232795 0.8097859464061606 0  0.7519423917101592 0.8087894448338406 0  0.8147337202275825 0.8073274962467074 0  0.8773909485303633 0.805107274494808 0  0.9399501824629376 0.8015684920364142 0  1.004395542644928 0.7955630767118033 0  0 0.875 0  0.06254722492200185 0.8749435427929404 0  0.1250966569582977 0.8748838209807472 0  0.1876506539349803 0.874817270013695 0  0.2502118756499357 0.8747396296836899 0  0.3127834643226148 0.8746454520959677 0  0.3753692510660044 0.874527395420542 0  0.4379739683180989 0.8743751553468814 0  0.5006033749213813 0.8741737920541583 0  0.5632639860723943 0.8739010482579991 0  0.6259614865250355 0.8735229752175766 0  0.6886951679827797 0.8729866874599383 0  0.7514408667847271 0.8722080144593934 0  0.8141015580057006 0.8710485091967598 0  0.8763702288903392 0.8692614771371884 0  0.9373732834427927 0.8663137629680733 0  0.9949044505301256 0.8606311229152634 0  0 0.9375 0  0.0625242438117745 0.9374709330713885 0  0.1250496571067654 0.9374401484152245 0  0.1875774985168054 0.9374057649444486 0  0.2501092109140975 0.9373655207443921 0  0.3126465420473415 0.9373165003556195 0  0.3751917012503858 0.9372547387120148 0  0.437747563303809 0.93717461451462
[...]
<PointData  Vectors="f_54"> 
<DataArray  type="Float64"  Name="f_54"  NumberOfComponents="3" format="ascii">0.0000000000000000e+00 0.0000000000000000e+00 0.0000000000000000e+00  0.0000000000000000e+00 0.0000000000000000e+00 0.0000000000000000e+00  0.0000000000000000e+00 0.0000000000000000e+00 0.0000000000000000e+00  0.0000000000000000e+00 0.0000000000000000e+00 0.0000000000000000e+00  0.0000000000000000e+00 0.0000000000000000e+00 0.0000000000000000e+00  0.0000000000000000e+00 0.0000000000000000e+00 0.0000000000000000e+00  0.0000000000000000e+00 0.0000000000000000e+00 0.0000000000000000e+00  0.0000000000000000e+00 0.0000000000000000e+00 0.0000000000000000e+00  0.0000000000000000e+00 0.0000000000000000e+00 0.0000000000000000e+00  0.0000000000000000e+00 0.0000000000000000e+00 0.0000000000000000e+00  0.0000000000000000e+00 0.0000000000000000e+00 0.0000000000000000e+00  0.0000000000000000e+00 0.0000000000000000e+00 0.0000000000000000e+00  0.0000000000000000e+00 0.0000000000000000e+00 0.0000000000000000e+00  0.0000000000000000e+00 0.0000000000000000e+00 0.0000000000000000e+00  0.0000000000000000e+00 0.0000000000000000e+00 0.0000000000000000e+00  0.0000000000000000e+00 0.0000000000000000e+00 0.0000000000000000e+00  0.0000000000000000e+00 0.0000000000000000e+00 0.0000000000000000e+00  0.0000000000000000e+00 0.0000000000000000e+00 0.0000000000000000e+00  4.7863388505288293e-06 3.7398656754935286e-08 0.0000000000000000e+00  9.7066035096785194e-06 7.3903111274691887e-08 0.0000000000000000e+00  1.4896546897177382e-05 1.0839157481678515e-07 0.0000000000000000e+00  2.0488993050600234e-05 1.3923106123767177e-07 0.0000000000000000e+00  2.6610708294654676e-05 1.6401222955142786e-07 0.0000000000000000e+00  3.3376990820657509e-05 1.7929377193348418e-07 0.0000000000000000e+00  4.0883103791358715e-05 1.8039716631563962e-07 0.0000000000000000e+00  4.9191768568060862e-05 1.6132384685519394e-07 0.0000000000000000e+00  5.8316486320517055e-05 1.1488663587102403e-07 0.0000000000000000e+00  6.8202336100896689e-05 3.3093848704982441e-08 0.0000000000000000e+00  7.8711704686304195e-05 -9.2496396731772413e-08 0.0000000000000000e+00  8.9640605703740259e-05 -2.7195082721390195e-07 0.0000000000000000e+00  1.0085158856046650e-04 -5.2550686088712237e-07 0.0000000000000000e+00  1.1282332627606473e-04 -9.2158831594943432e-07 0.0000000000000000e+00  1.2872765471508814e-04 -1.7320909559689009e-06 0.0000000000000000e+00  1.6236208123597776e-04 -4.0740341197365579e-06 0.0000000000000000e+00  0.0000000000000000e+00 0.0000000000000000e+00 0.0000000000000000e+00  9.4388781864847712e-06 7.5689950085192286e-08 0.0000000000000000e+00  1.9147269665043122e-05 1.4984149175373585e-07 0.0000000000000000e+00  2.9398757237733047e-05 2.2046708073931779e-07 0.0000000000000000e+00  4.0462578483031822e-05 2.8456018207671532e-07 0.0000000000000000e+00  5.2598209293275534e-05 3.3754727209979790e-07 0.0000000000000000e+00  6.6045424133663041e-05 3.7273339051405285e-07 0.0000000000000000e+00  8.1007929788574440e-05 3.8081672688153469e-07 0.0000000000000000e+00  9.7628533195899279e-05 3.4962819918911521e-07 0.0000000000000000e+00  1.1595403876763307e-04 2.6435359936586872e-07 0.0000000000000000e+00  1.3588923580982060e-04 1.0858297689327259e-07 0.0000000000000000e+00  1.5714248710896152e-04 -1.3348235710312915e-07 0.0000000000000000e+00  1.7917201384581462e-04 -4.7353073734528775e-07 0.0000000000000000e+00  2.0115046252625171e-04 -9.1402379777160624e-07 0.0000000000000000e+00  2.2194689480602080e-04 -1.4353886080891934e-06 0.0000000000000000e+00  2.3988045740821470e-04 -1.9266541642475978e-06 0.0000000000000000e+00  2.5036250702034429e-04 -1.7559834809197395e-06 0.0000000000000000e+00  0.0000000000000000e+00 0.0000000000000000e+00 0.0000000000000000e+00  1.3819271689042789e-05 1.1548979182259645e-07 0.0000000000000000e+00  2.8045855118255112e-05 2.2929307795791533e-07 0.0000000000000000e+00  4.3094148373212423e-05 3.3907244139528004e-07 0.0000000000000000e+00  5.9375702962680226e-05 4.4098889307878628e-07 0.0000000000000000e+00  7.7293216652797556e-05 5.2884660600779535e-07 0.0000000000000000e+00  9.7227984190862484e-05 5.9316123612813023e-07 0.0000000000000000e+00  1.1951776666181765e-04 6.2023475419490332e-07 0.0000000000000000e+00  1.4442138906786982e-04 5.9145607446006063e-07 0.0000000000000000e+00  1.7206570226082106e-04 4.8326716882510814e-07 0.0000000000000000e+00  2.0236985199392082e-04 2.6855249493858202e-07 0.0000000000000000e+00  2.3494058184168006e-04 -7.9406685550612907e-08 0.0000000000000000e+00  2.6892803167853852e-04 -5.7898121925990480e-07 0.0000000000000000e+00  3.0281487035273768e-04 -1.2271667466347493e-06 0.0000000000000000e+00  3.3405384666175368e-04 -1.9837606604469365e-06 0.0000000000000000e+00  3.5830064363354737e-04 -2.7748247954401864e-06 0.0000000000000000e+00  3.6765978204465608e-04 -3.6575909597188335e-06 0.0000000000000000e+00  0.0000000000000000e+00 0.0000000000000000e+00 0.0000000000000000e+00  1.7787610956667833e-05 1.5691614429843900e-07 0.0000000000000000e+00  3.6121669947043508e-05 3.1272097828252362e-07 0.0000000000000000e+00  5.5559786461372800e-05 4.6549623032016931e-07 0.0000000000000000e+00  7.6662347013452403e-05 6.1141742767636935e-07 0.0000000000000000e+00  9.9988441926024779e-05 7.4358286430890546e-07 0.0000000000000000e+00  1.2608377400132587e-04 8.5061796452427952e-07 0.0000000000000000e+00  1.5545646267671603e-04 9.1508596584697392e-07 0.0000000000000000e+00  1.8853538940568742e-04 9.1190401026732714e-07 0.0000000000000000e+00  2.2560408649392367e-04 8.0729141613923948e-07 0.0000000000000000e+00  2.6670096604147330e-04 5.5936523703403801e-07 0.0000000000000000e+00  3.1147324482010130e-04 1.2245940555347839e-07 0.0000000000000000e+00  3.5896529636224994e-04 -5.4138383111487834e-07 0.0000000000000000e+00  4.0730797499100762e-04 -1.4387883040983691e-06 0.0000000000000000e+00  4.5324793734076977e-04 -2.5036840845102312e-06 0.0000000000000000e+00  4.9142467716307482e-04 -3.5341880484162276e-06 0.0000000000000000e+00  5.1337045022295232e-04 -4.0963863494338619e-06 0.0000000000000000e+00  0.0000000000000000e+00 0.0000000000000000e+00 0.0000000000000000e+00  2.1203601821343618e-05 1.9936443520706835e-07 0.0000000000000000e+00  4.3091254893481733e-05 3.9909656372339350e-07 0.0000000000000000e+00  6.6363453745164530e-05 5.9868745627019886e-07 0.0000000000000000e+00  9.1734044351240846e-05 7.9548813159676519e-07 0.0000000000000000e+00  1.1993128153137887e-04 9.8326778635566046e-07 0.0000000000000000e+00  1.5169032548467107e-04 1.1503180151614845e-06 0.0000000000000000e+00  1.8773236690196500e-04 1.2769925507472610e-06 0.0000000000000000e+00  2.2872370484299483e-04 1.3327017992295343e-06 0.0000000000000000e+00  2.7520561219401992e-04 1.2727175591877111e-06 0.0000000000000000e+00  3.2748262385634975e-04 1.0358981053763161e-06 0.0000000000000000e+00  3.8545283703835572e-04 5.4597107734254177e-07 0.0000000000000000e+00  4.4835872520378000e-04 -2.7819246234559735e-07 0.0000000000000000e+00  5.1443110603829380e-04 -1.4933509050188893e-06 0.0000000000000000e+00  5.8039610906095228e-04 -3.0676725845660437e-06 0.0000000000000000e+00  6.4083349327618958e-04 -4.7601201614249108e-06 0.0000000000000000e+00  6.8746855342246053e-04 -5.9250432598508297e-06 0.0000000000000000e+00  0.0000000000000000e+00 0.0000000000000000e+00 0.0000000000000000e+00  2.3929680923345782e-05 2.4133207847076484e-07 0.0000000000000000e+00  4.8674235955196356e-05 4.8550403705835377e-07 0.0000000000000000e+00  7.5071420119451231e-05 7.3454733444504412e-07 0.0000000000000000e+00  1.0398807852774924e-04 9.8841793913290444e-07 0.0000000000000000e+00  1.3632988598571996e-04 1.2434279865550703e-06 0.0000000000000000e+00  1.7304330549905046e-04 1.4899527023666847e-06 0.0000000000000000e+00  2.1510477908405108e-04 1.7090677983866150e-06 0.0000000000000000e+00  2.6348976545985078e-04 1.8677487599894608e-06 0.0000000000000000e+00  3.1911095913667644e-04 1.9123966212866017e-06 0.0000000000000000e+00  3.8271089269591944e-04 1.7610276839586565e-06 0.0000000000000000e+00  4.5468954142923162e-04 1.2960817657278120e-06 0.0000000000000000e+00  5.3484370030881410e-04 3.6361908046649537e-07 0.0000000000000000e+00  6.2199436871087938e-04 -1.2074525214152290e-06 0.0000000000000000e+00  7.1348574021751286e-04 -3.5384437548716960e-06 0.0000000000000000e+00  8.0456018246917774e-04 -6.5382504974746671e-06 0.0000000000000000e+00  8.8764370629744395e-04 -9.5774352498866930e-06 0.0000000000000000e+00  0.0000000000000000e+00 0.0000000000000000e+00 0.0000000000000000e+00  2.5836403891252780e-05 2.8033613700089071e-07 0.0000000000000000e+00  5.2604026404209195e-05 5.6691878225848139e-07 0.0000000000000000e+00  8.1264255932473402e-05 8.6544109751125438e-07 0.0000000000000000e+00  1.1282785047795874e-04 1.1800173514641432e-06 0.0000000000000000e+00  1.4837678492311953e-04 1.5117656233995325e-06 0.0000000000000000e+00  1.8908074594320372e-04 1.8564508470905265e-06 0.0000000000000000e+00  2.3620389152093538e-04 2.2005688226070955e-06 0.0000000000000000e+00  2.9109468757780431e-04 2.5149528106322154e-06 0.0000000000000000e+00  3.5514756870909283e-04 2.7446295591156964e-06 0.0000000000000000e+00  4.2971978860444125e-04 2.7934346472094499e-06 0.0000000000000000e+00  5.1598075753702852e-04 2.5024418883829850e-06 0.0000000000000000e+00  6.1466661213972480e-04 1.6242097567058572e-06 0.0000000000000000e+00  7.2571459836105984e-04 -1.9613277382778799e-07 0.0000000000000000e+00  8.4776710473006970e-04 -3.4001624315142818e-06 0.0000000000000000e+00  9.7756485282093626e-04 -8.3797867034081610e-06 0.0000000000000000e+00  1.1092613566047902e-03 -1.5079006106137068e-05 0.0000000000000000e+00  0.0000000000000000e+00 0.0000000000000000e+00 0.0000000000000000e+00  2.6810124420096766e-05 3.1297960703327716e-07 0.0000000000000000e+00  5.4643520093719060e-05 6.3628495383923124e-07 0.0000000000000000e+00  8.4561176770317926e-05 9.8015427672780596e-07 0.0000000000000000e+00  1.1769664117018738e-04 1.3542598385079857e-06 0.0000000000000000e+00  1.5529263870796335e-04 1.7668454051655962e-06 0.0000000000000000e+00  1.9873660324324572e-04 2.2229078569985926e-06 0.0000000000000000e+00  2.4959236429671365e-04 2.7206144270445702e-06 0.0000000000000000e+00  3.0962233510635804e-04 3.2445311388321210e-06 0.0000000000000000e+00  3.8078986997367635e-04 3.7531924715902869e-06 0.0000000000000000e+00  4.6522452620490130e-04 4.1568926284028911e-06 0.0000000000000000e+00  5.6512403859086680e-04 4.2793557400248977e-06 0.0000000000000000e+00  6.8255861984272044e-04 3.7951497755141263e-06 0.0000000000000000e+00  8.1914430092601507e-04 2.1374097724925627e-06 0.0000000000000000e+00  9.7558074554150351e-04 -1.6111222437054321e-06 0.0000000000000000e+00  1.1511279944266147e-03 -8.7750251511746541e-06 0.0000000000000000e+00  1.3432093416969775e-03 -2.0912086736173164e-05 0.0000000000000000e+00  0.0000000000000000e+00 0.0000000000000000e+00 0.0000000000000000e+00  2.6762579273268112e-05 3.3521869835772292e-07 0.0000000000000000e+00  5.4605084400344769e-05 6.8502183212961383e-07 0.0000000000000000e+00  8.4652090824061205e-05 1.0645554050284267e-06 0.0000000000000000e+00  1.1812412218908811e-04 1.4898931595689577e-06 0.0000000000000000e+00  1.5639020415761189e-04 1.9781798024695927e-06 0.0000000000000000e+00  2.0102532607168351e-04 2.5471358366738504e-06 0.0000000000000000e+00  2.5387293796049235e-04 3.2131835041483433e-06 0.0000000000000000e+00  3.1711023537994926e-04 3.9866671054135993e-06 0.0000000000000000e+00  3.9330939638298682e-04 4.8610523552632316e-06 0.0000000000000000e+00  4.8547978734776753e-04 5.7898207504802026e-06 0.0000000000000000e+00  5.9706330696735843e-04 6.6386472193612017e-06 0.0000000000000000e+00  7.3183892116039726e-04 7.0894214245368343e-06 0.0000000000000000e+00  8.9368422664415348e-04 6.4559836424134040e-06 0.0000000000000000e+00  1.0861800627262152e-03 3.3572775088974392e-06 0.0000000000000000e+00  1.3122242260744407e-03 -4.7824149158732530e-06 0.0000000000000000e+00  1.5743018049944929e-03 -2.2318088076191470e-05 0.0000000000000000e+00  0.0000000000000000e+00 0.0000000000000000e+00 0.0000000000000000e+00  2.5641532130918723e-05 3.4285611843306946e-07 0.0000000000000000e+00  5.2373177684889644e-05 7.0403785074954044e-07 0.0000000000000000e+00  8.1334901175304618e-05 1.1031679828660166e-06 0.0000000000000000e+00  1.1378256580675501e-04 1.5625607795952446e-06 0.0000000000000000e+00  1.5115528340091218e-04 2.1087127449496365e-06 0.0000000000000000e+00  1.9515486395540812e-04 2.7738411773699728e-06 0.0000000000000000e+00  2.4784164913216073e-04 3.5971783543136890e-06 0.0000000000000000e+00  3.1175022963067316e-04 4.6251471691229336e-06 0.0000000000000000e+00  3.9002564668264407e-04 5.9081257584840631e-06 0.0000000000000000e+00  4.8657326926467281e-04 7.4880464034823573e-06 0.0000000000000000e+00  6.0619986444138466e-04 9.3626170144662527e-06 0.0000000000000000e+00  7.5469574816485157e-04 1.1391544709464200e-05 0.0000000000000000e+00  9.3877314820145854e-04 1.3063042025052195e-05 0.0000000000000000e+00  1.1657794020541142e-03 1.2943070297005726e-05 0.0000000000000000e+00  1.4433222519808140e-03 7.4956379777177968e-06 0.0000000000000000e+00  1.7797511215396353e-03 -1.1081124494810790e-05 0.0000000000000000e+00  0.0000000000000000e+00 0.0000000000000000e+00 0.0000000000000000e+00  2.3441171592989656e-05 3.3223034880999611e-07 0.0000000000000000e+00  4.7926902422828211e-05 6.8521205842014076e-07 0.0000000000000000e+00  7.4553853884418646e-05 1.0816558474058484e-06 0.0000000000000000e+00  1.0454692040817186e-04 1.5486134141642469e-06 0.0000000000000000e+00  1.3933730136259865e-04 2.1203575184276766e-06 0.0000000000000000e+00  1.8065988322996958e-04 2.8422149106118790e-06 0.0000000000000000e+00  2.3067924502870535e-04 3.7758263517061132e-06 0.0000000000000000e+00  2.9215575963685537e-04 5.0063800574194617e-06 0.0000000000000000e+00  3.6866468124743508e-04 6.6522086313517661e-06 0.0000000000000000e+00  4.6487902973650934e-04 8.8760018267307623e-06 0.0000000000000000e+00  5.8691517544631462e-04 1.1892090894211598e-05 0.0000000000000000e+00  7.4270618605647739e-04 1.5946507230239540e-05 0.0000000000000000e+00  9.4229703737669097e-04 2.1184552651534096e-05 0.0000000000000000e+00  1.1978654854309088e-03 2.7118149907184173e-05 0.0000000000000000e+00  1.5234288061186806e-03 3.0871121813644481e-05 0.0000000000000000e+00  1.9358724038050982e-03 2.3404859667537414e-05 0.0000000000000000e+00  0.0000000000000000e+00 0.0000000000000000e+00 0.0000000000000000e+00  2.0210597819167363e-05 3.0099776885591722e-07 0.0000000000000000e+00  4.1358947637946005e-05 6.2313112388546521e-07 0.0000000000000000e+00  6.4433091889998822e-05 9.8989878778903934e-07 0.0000000000000000e+00  9.0550062781751659e-05 1.4302071633918448e-06 0.0000000000000000e+00  1.2103744618070779e-04 1.9822526686169152e-06 0.0000000000000000e+00  1.5753966777780855e-04 2.6991496008992780e-06 0.0000000000000000e+00  2.0216309285097538e-04 3.6575433958074313e-06 0.0000000000000000e+00  2.5768017872586200e-04 4.9713341310010550e-06 0.0000000000000000e+00  3.2782151780231047e-04 6.8143533969288507e-06 0.0000000000000000e+00  4.1769474030295254e-04 9.4592281552226271e-06 0.0000000000000000e+00  5.3437561768633309e-04 1.3346098385688897e-05 0.0000000000000000e+00  6.8770165563110744e-04 1.9204385588335381e-05 0.0000000000000000e+00  8.9121546059085549e-04 2.8246456170680210e-05 0.0000000000000000e+00  1.1629616834558357e-03 4.2296858676118344e-05 0.0000000000000000e+00  1.5254436062569364e-03 6.2459626069654865e-05 0.0000000000000000e+00  2.0077607256218906e-03 7.5892078351671069e-05 0.0000000000000000e+00  0.0000000000000000e+00 0.0000000000000000e+00 0.0000000000000000e+00  1.6058585588906363e-05 2.4883819418348508e-07 0.0000000000000000e+00  3.2886930721746888e-05 5.1670240215778508e-07 0.0000000000000000e+00  5.1298505359643458e-05 8.2497955410128290e-07 0.0000000000000000e+00  7.2222230251647353e-05 1.2005582471914371e-06 0.0000000000000000e+00  9.6777712306623379e-05 1.6799357146207965e-06 0.0000000000000000e+00  1.2637669512287418e-04 2.3153890907502221e-06 0.0000000000000000e+00  1.6286747965795024e-04 3.1847815558328995e-06 0.0000000000000000e+00  2.0874880879997925e-04 4.4078294065118693e-06 0.0000000000000000e+00  2.6749620115383354e-04 6.1743152259483025e-06 0.0000000000000000e+00  3.4407099454265833e-04 8.7959264284532572e-06 0.0000000000000000e+00  4.4572485796866382e-04 1.2809453406048386e-05 0.0000000000000000e+00  5.8326797878072308e-04 1.9204725099936878e-05 0.0000000000000000e+00  7.7299666426143359e-04 2.9988234609148974e-05 0.0000000000000000e+00  1.0392634493680162e-03 4.9718033436416099e-05 0.0000000000000000e+00  1.4160526324098503e-03 8.9999661316898626e-05 0.0000000000000000e+00  1.9286773207307470e-03 1.8449018855804978e-04 0.0000000000000000e+00  0.0000000000000000e+00 0.0000000000000000e+00 0.0000000000000000e+00  1.1153000878181554e-05 1.7788844197124035e-07 0.0000000000000000e+00  2.2853416876151830e-05 3.7018481281688899e-07 0.0000000000000000e+00  3.5681038323861696e-05 5.9319912074374583e-07 0.0000000000000000e+00  5.0302875013552894e-05 8.6771783616161683e-07 0.0000000000000000e+00  6.7531253772847288e-05 1.2223993172493867e-06 0.0000000000000000e+00  8.8404118653674210e-05 1.6989222908009280e-06 0.0000000000000000e+00  1.1430286819677428e-04 2.3601613982751813e-06 0.0000000000000000e+00  1.4713355524809845e-04 3.3035073169336976e-06 0.0000000000000000e+00  1.8961692010510426e-04 4.6829099873164562e-06 0.0000000000000000e+00  2.4577036304307485e-04 6.7458842997112662e-06 0.0000000000000000e+00  3.2173905941197212e-04 9.8976259434284137e-06 0.0000000000000000e+00  4.2728457556574209e-04 1.4823480201942858e-05 0.0000000000000000e+00  5.7856964096875162e-04 2.2785887229577434e-05 0.0000000000000000e+00  8.0372680671705389e-04 3.6632812918073362e-05 0.0000000000000000e+00  1.1556019160483203e-03 6.5087039286812148e-05 0.0000000000000000e+00  1.7490108005899483e-03 1.4143460735370445e-04 0.0000000000000000e+00  0.0000000000000000e+00 0.0000000000000000e+00 0.0000000000000000e+00  5.7138564169074839e-06 9.2747719863355051e-08 0.0000000000000000e+00  1.1712119747582795e-05 1.9325936467433002e-07 0.0000000000000000e+00  1.8296408789306712e-05 3.1035675729249326e-07 0.0000000000000000e+00  2.5815255789576714e-05 4.5536276590152400e-07 0.0000000000000000e+00  3.4695757344028784e-05 6.4400389607740001e-07 0.0000000000000000e+00  4.5487951401540842e-05 8.9928074739416228e-07 0.0000000000000000e+00  5.8931083509370062e-05 1.2559299741555193e-06 0.0000000000000000e+00  7.6057677497443231e-05 1.7672871359352944e-06 0.0000000000000000e+00  9.8364389025095011e-05 2.5150770493057538e-06 0.0000000000000000e+00  1.2810422302420105e-04 3.6199102522276352e-06 0.0000000000000000e+00  1.6880388230495414e-04 5.2369742084129290e-06 0.0000000000000000e+00  2.2619169407323234e-04 7.4656482831534613e-06 0.0000000000000000e+00  3.0976249368797954e-04 9.8799701909576486e-06 0.0000000000000000e+00  4.3450750820835446e-04 9.5666551613126031e-06 0.0000000000000000e+00  6.1684166616311450e-04 -5.6607050245919188e-06 0.0000000000000000e+00  8.3798767349775203e-04 -6.9056539968410992e-05 0.0000000000000000e+00  0.0000000000000000e+00 0.0000000000000000e+00 0.0000000000000000e+00  0.0000000000000000e+00 0.0000000000000000e+00 0.0000000000000000e+00  0.0000000000000000e+00 0.0000000000000000e+00 0.0000000000000000e+00  0.0000000000000000e+00 0.0000000000000000e+00 0.0000000000000000e+00  0.0000000000000000e+00 0.0000000000000000e+00 0.0000000000000000e+00  0.0000000000000000e+00 0.0000000000000000e+00 0.0000000000000000e+00  0.0000000000000000e+00 0.0000000000000000e+00 0.0000000000000000e+00  0.0000000000000000e+00 0.0000000000000000e+00 0.0000000000000000e+00  0.0000000000000000e+00 0.0000000000000000e+00 0.0000000000000000e+00  0.0000000000000000e+00 0.0000000000000000e+00 0.0000000000000000e+00  0.0000000000000000e+00 0.0000000000000000e+00 0.0000000000000000e+00  0.0000000000000000e+00 0.0000000000000