<?xml version="1.0"?>
<VTKFile type="UnstructuredGrid"  version="0.1"  >
<UnstructuredGrid>
<Piece  NumberOfPoints="289" NumberOfCells="512">
<Points>
<DataArray  type="Float64"  NumberOfComponents="3"  format="ascii">0 0 0  0.0625 0 0  0.125 0 0  0.1875 0 0  0.25 0 0  0.3125 0 0  0.375 0 0  0.4375 0 0  0.5 0 0  0.5625 0 0  0.625 0 0  0.6875 0 0  0.75 0 0  0.8125 0 0  0.875 0 0  0.9375 0 0  1 0 0  0 0.0625 0  0.06258180879239306 0.06247231236700412 0  0.1251662553033483 0.06244408470198972 0  0.1877560554786787 0.06241480656516944 0  0.2503540154597443 0.06238405694112865 0  0.3129630774254969 0.06235156362903986 0  0.375586369875503 0.06231727935000802 0  0.4382272777392449 0.06228147619835042 0  0.5008895717573737 0.06224485359299734 0  0.5635776931309083 0.06220864210969611 0  0.6262974271425142 0.06217466194094657 0  0.6890575524041256 0.06214525267399996 0  0.751874009252494 0.06212291570727857 0  0.8147808534146285 0.06210936230758506 0  0.8778602291382053 0.06210330927172986 0  0.9413267696396638 0.0620954855710867 0  1.005762967968883 0.06206034407383231 0  0 0.125 0  0.06266099631880899 0.1249451364070495 0  0.1253272542742589 0.1248891465008581 0  0.1880041991522983 0.1248309578722238 0  0.2506974577518653 0.1247696649102052 0  0.3134129622942376 0.1247046433652906 0  0.3761570630683486 0.1246357019699754 0  0.4389366744346116 0.1245632782357036 0  0.5017595136211667 0.1244886755364382 0  0.5646345662215314 0.1244143175956732 0  0.6275730690475319 0.1243439568898976 0  0.6905906209279536 0.1242827066645567 0  0.7537116329030081 0.1242366734869779 0  0.8169781926528727 0.1242119105680529 0  0.8804653382439627 0.1242127287008599 0  0.9442968865367294 0.1242415070333014 0  1.008616023262654 0.1243102668098209 0  0 0.1875 0  0.06273493673551377 0.1874190710496355 0  0.1254776901676661 0.1873363474127274 0  0.1882363301777233 0.1872501016928557 0  0.2510192592190829 0.1871588250299622 0  0.3138353822895614 0.1870613860860181 0  0.376694283247866 0.1869572524028357 0  0.4396064277959461 0.1868467932031513 0  0.5025834389277146 0.1867316746445621 0  0.5656385363545784 0.186615337364504 0  0.6287873020807309 0.1865034994845891 0  0.6920490062989472 0.1864045343396672 0  0.7554486565845651 0.186329388842699 0  0.8190191761730897 0.1862903264851409 0  0.8828001154712605 0.1862968034762282 0  0.9468211139957685 0.1863435421377002 0  1.011046283458544 0.1863734274219566 0  0 0.25 0  0.0628010881115563 0.2498947955255698 0  0.1256124139791447 0.2497870231680729 0  0.1884445592850294 0.2496741786432118 0  0.251308589348068 0.2495539869074024 0  0.3142162980313144 0.2494245852188583 0  0.3771804523777841 0.2492847969386202 0  0.4402150446380469 0.2491345340493445 0  0.5033355660842223 0.2489753678505783 0  0.5665593194732021 0.2488112989190094 0  0.6299057615658508 0.2486497251771439 0  0.6933967414130201 0.2485025232973846 0  0.7570560866957045 0.2483869707641316 0  0.8209068910698939 0.2483258451354328 0  0.8849625234533689 0.2483452930237834 0  0.9492041984799576 0.248468013307935 0  1.01353922314317 0.2487002196433999 0  0 0.3125 0  0.06285704709328314 0.3123730903417347 0  0.1257265434962438 0.3122427324918909 0  0.1886213716845756 0.312105515153083 0  0.2515550700720606 0.3119582102538562 0  0.3145421662217719 0.3117979474622015 0  0.3775985073138999 0.31162250477822 0  0.4407415857696482 0.3114307762221464 0  0.5039908508872813 0.31122349636298 0  0.5673679729002196 0.3110043206519461 0  0.6308969533737989 0.3107813695891998 0  0.6946037876748036 0.3105693175542044 0  0.7585149592108513 0.310391987473043 0  0.8226532454047751 0.3102850979346164 0  0.8870282963766237 0.3102981697322629 0  0.9516196813191432 0.3104936516483459 0  1.016356336145192 0.3109406734346251 0  0 0.375 0  0.06290061388984863 0.3748548377807193 0  0.1258155927707835 0.3747052651364797 0  0.1887598192139071 0.3745468546145595 0  0.2517490239979842 0.3743752469503469 0  0.3148002242481784 0.3741862718463345 0  0.3779321684691779 0.3739761973505835 0  0.4411657887823138 0.3737421894093123 0  0.5045246540705445 0.3734831039286831 0  0.5680353975877606 0.3732007923807766 0  0.6317280370609988 0.3729021782295158 0  0.6956359713160805 0.3726024400243533 0  0.7597951632919153 0.3723296630364499 0  0.8242415858867717 0.3721311577347807 0  0.8890056730403588 0.3720810424215802 0  0.9541033673631496 0.3722874147529034 0  1.019527806172651 0.3728957496084545 0  0 0.4375 0  0.06292987159016432 0.4373409952720619 0  0.1258756312594674 0.4371765936358689 0  0.1888537595843499 0.4370012996185456 0  0.2518817901412093 0.4368094983032845 0  0.3149788666147131 0.4365954687012229 0  0.3781663310566292 0.4363535141687765 0  0.4414683607338675 0.4360782999277812 0  0.5049126811884557 0.4357655488506318 0  0.5685314011519995 0.4354133477801594 0  0.6323620402145512 0.4350244769930508 0  0.6964488428218901 0.4346104101639422 0  0.7608444664875944 0.434197918509657 0  0.825612068377186 0.4338393985800815 0  0.890827753251789 0.4336276905981928 0  0.9565837644606453 0.4337145497664288 0  1.022995417094317 0.4343291730341852 0  0 0.5 0  0.06294328174912817 0.4998325371206617 0  0.1259034779872803 0.4996587573923024 0  0.1888981552104926 0.4994721416949431 0  0.251946134990073 0.4992658020173488 0  0.3150681739838381 0.4990323348064228 0  0.3782877093569116 0.4987637470278929 0  0.4416317133062645 0.4984515313076279 0  0.5051317385764619 0.4980870366169381 0  0.5688253198995841 0.497662410709781 0  0.6327580623795978 0.4971726271563418 0  0.6969870481814323 0.4966195278813699 0  0.7615866646521638 0.4960194960766048 0  0.8266585446891982 0.4954172912518996 0  0.8923477560668506 0.494909129817856 0  0.9588674113444722 0.4946762336222378 0  1.026535283470962 0.4950224027723376 0  0 0.5625 0  0.0629397938431695 0.5623303644518726 0  0.1258969268862537 0.5621536764848679 0  0.1888894283000664 0.5619625679542528 0  0.2519367598673213 0.5617490193484803 0  0.3150606071917597 0.5615040158662381 0  0.3782857710653279 0.5612171979458467 0  0.4416412259614562 0.5608765405377921 0  0.5051614769164159 0.5604681529346586 0  0.5688884992087914 0.559976413089414 0  0.6328748882999595 0.5593849094454473 0  0.6971895586129171 0.5586792118136015 0  0.761928650897965 0.5578536302795133 0  0.8272363657938682 0.5569263039433279 0  0.8933427179326681 0.5559702161602006 0  0.9606260486402398 0.5551687566182854 0  1.029707141363126 0.5548922855666709 0  0 0.625 0  0.06291896046173964 0.624835189737137 0  0.1258549871318109 0.6246629066063197 0  0.1888258474642084 0.6244752575605174 0  0.2518508691957376 0.6242634287213178 0  0.314951814342742 0.6240171382089735 0  0.3781538796835396 0.6237239817874413 0  0.4414868979271751 0.6233686381267609 0  0.5049868828347081 0.6229319191694951 0  0.5686982471954279 0.6223897119284996 0  0.6326775003851797 0.6217120317458756 0  0.6970003923083999 0.6208628847720516 0  0.7617770637579878 0.6198029443907622 0  0.8271848340075285 0.6185005663776104 0  0.8935358430470459 0.6169652734641746 0  0.9614022441898304 0.6153310516083471 0  1.031818253241403 0.6139996661068742 0  0 0.6875 0  0.06288104441188576 0.6873474098768512 0  0.1257781102063284 0.687187363765028 0  0.1887079008386749 0.687011912207061 0  0.2516887318894524 0.6868119849341756 0  0.3147414455741723 0.6865766778171726 0  0.3778904674731104 0.686292330315492 0  0.4411650664730261 0.6859412827700241 0  0.5046009159619521 0.6855001645618041 0  0.5682421827622445 0.6849375180084365 0  0.6321447939488781 0.6842105318535737 0  0.6963828408777732 0.6832607468057652 0  0.7610638455896782 0.6820092480747105 0  0.8263684762062541 0.6803549517913174 0  0.8926518828664378 0.6781929760369207 0  0.9606685947133324 0.6755225843965095 0  1.031988095451529 0.6727806577389563 0  0 0.75 0  0.06282709981747393 0.7498669886247434 0  0.1256683668968821 0.7497270635901824 0  0.1885385975891113 0.7495727963077791 0  0.2514541508535281 0.7493955612726194 0  0.3144338497878061 0.7491847400040942 0  0.3775000364092261 0.7489266419203195 0  0.4406798196307166 0.7486029688763586 0  0.5040065330848116 0.7481885587411725 0  0.5675213892731081 0.7476479904310437 0  0.631275372265352 0.7469303702453802 0  0.6953320207484393 0.7459611526426084 0  0.7597748163532961 0.7446290279541137 0  0.8247353332005887 0.7427648435043008 0  0.8905031268359701 0.7401116517054021 0  0.957912611670831 0.7363236734677101 0  1.029014637962132 0.7315015495595587 0  0 0.8125 0  0.06275900801064403 0.8123933727570204 0  0.1255295346650124 0.8122809296230139 0  0.1883236363901361 0.8121563836186525 0  0.2511547565098643 0.8120123357274844 0  0.3140385466044955 0.8118395127697939 0  0.3769938524572251 0.8116257032003764 0  0.440043899627096 0.8113541932560143 0  0.5032176456078516 0.8110013893503667 0  0.5665510695986632 0.810533111363074 0  0.630087688571015 0.809898681239171 0  0.6938765962750369 0.8090212286257786 0  0.7579650469167266 0.8077810586554894 0  0.8223851484452125 0.8059848581293406 0  0.887167434528993 0.8033026060452437 0  0.9526397672763673 0.7991310120036684 0  1.022072829252521 0.7923570808571448 0  0 0.875 0  0.06267945116674935 0.8749254647560495 0  0.1253670593577137 0.8748467227005271 0  0.188071384247282 0.8747592066576848 0  0.2508020502192506 0.8746574901691621 0  0.3135703998930062 0.8745346867062589 0  0.3763903118969136 0.8743815944576004 0  0.4392792365596984 0.87418541388336 0  0.5022594509036272 0.8739277588972444 0  0.5653593230964367 0.8735815035528537 0  0.6286136768260936 0.8731057106095507 0  0.6920602160441901 0.8724373908337535 0  0.7557228619618098 0.8714778115938732 0  0.8195566955039799 0.870067555509452 0  0.8832932818984455 0.8679273840013284 0  0.9460828726761211 0.8644582304310134 0  1.006005116914439 0.8579181160983009 0  0 0.9375 0  0.06259181236106226 0.9374616670502559 0  0.1251878647859852 0.9374211270488879 0  0.1877926184121099 0.9373759778471012 0  0.2504111266951969 0.937323349350454 0  0.3130494137323441 0.9372595723756326 0  0.375714971438138 0.9371797015507426 0  0.4384174354579636 0.93707
[...]
<PointData  Vectors="f_54"> 
<DataArray  type="Float64"  Name="f_54"  NumberOfComponents="3" format="ascii">0.0000000000000000e+00 0.0000000000000000e+00 0.0000000000000000e+00  0.0000000000000000e+00 0.0000000000000000e+00 0.0000000000000000e+00  0.0000000000000000e+00 0.0000000000000000e+00 0.0000000000000000e+00  0.0000000000000000e+00 0.0000000000000000e+00 0.0000000000000000e+00  0.0000000000000000e+00 0.0000000000000000e+00 0.0000000000000000e+00  0.0000000000000000e+00 0.0000000000000000e+00 0.0000000000000000e+00  0.0000000000000000e+00 0.0000000000000000e+00 0.0000000000000000e+00  0.0000000000000000e+00 0.0000000000000000e+00 0.0000000000000000e+00  0.0000000000000000e+00 0.0000000000000000e+00 0.0000000000000000e+00  0.0000000000000000e+00 0.0000000000000000e+00 0.0000000000000000e+00  0.0000000000000000e+00 0.0000000000000000e+00 0.0000000000000000e+00  0.0000000000000000e+00 0.0000000000000000e+00 0.0000000000000000e+00  0.0000000000000000e+00 0.0000000000000000e+00 0.0000000000000000e+00  0.0000000000000000e+00 0.0000000000000000e+00 0.0000000000000000e+00  0.0000000000000000e+00 0.0000000000000000e+00 0.0000000000000000e+00  0.0000000000000000e+00 0.0000000000000000e+00 0.0000000000000000e+00  0.0000000000000000e+00 0.0000000000000000e+00 0.0000000000000000e+00  0.0000000000000000e+00 0.0000000000000000e+00 0.0000000000000000e+00  4.1361606062469278e-06 -3.3489394974258980e-08 0.0000000000000000e+00  8.4084991472396794e-06 -7.1847699691733112e-08 0.0000000000000000e+00  1.2959266517710263e-05 -1.2051323924757051e-07 0.0000000000000000e+00  1.7935624655304973e-05 -1.8603484515533992e-07 0.0000000000000000e+00  2.3491851780058646e-05 -2.7667710285663272e-07 0.0000000000000000e+00  2.9791069260020780e-05 -4.0305099978992040e-07 0.0000000000000000e+00  3.7006566580715691e-05 -5.7872728627971828e-07 0.0000000000000000e+00  4.5323407287215462e-05 -8.2075399180688275e-07 0.0000000000000000e+00  5.4942757004298341e-05 -1.1500141864840584e-06 0.0000000000000000e+00  6.6096388488975851e-05 -1.5916200600085415e-06 0.0000000000000000e+00  7.9093445816649422e-05 -2.1767184297246834e-06 0.0000000000000000e+00  9.4466257595336514e-05 -2.9515294499838207e-06 0.0000000000000000e+00  1.1342703313646122e-04 -4.0157070112771895e-06 0.0000000000000000e+00  1.3935044608171895e-04 -5.6732740205434476e-06 0.0000000000000000e+00  1.8288865378565731e-04 -9.0243649937132423e-06 0.0000000000000000e+00  2.8140247071906647e-04 -1.8433328541510039e-05 0.0000000000000000e+00  0.0000000000000000e+00 0.0000000000000000e+00 0.0000000000000000e+00  8.1435783367238460e-06 -6.2182772301383576e-08 0.0000000000000000e+00  1.6558696019317586e-05 -1.3361123570519908e-07 0.0000000000000000e+00  2.5528976073370079e-05 -2.2464911839546864e-07 0.0000000000000000e+00  3.5348582620692997e-05 -3.4787574203737271e-07 0.0000000000000000e+00  4.6326953902468513e-05 -5.1932541172095972e-07 0.0000000000000000e+00  5.8792419505542096e-05 -7.5981897923520235e-07 0.0000000000000000e+00  7.3094459682456462e-05 -1.0963053468515583e-06 0.0000000000000000e+00  8.9604864522020884e-05 -1.5630042077428809e-06 0.0000000000000000e+00  1.0871954131286550e-04 -2.2019710674718486e-06 0.0000000000000000e+00  1.3086658460192686e-04 -3.0625415668455635e-06 0.0000000000000000e+00  1.5653537532390134e-04 -4.1990807412064241e-06 0.0000000000000000e+00  1.8636075987338703e-04 -5.6665650156981965e-06 0.0000000000000000e+00  2.2132645134484934e-04 -7.5117572832610869e-06 0.0000000000000000e+00  2.6313873194963458e-04 -9.7386269560176083e-06 0.0000000000000000e+00  3.1435115680684094e-04 -1.2098010298982375e-05 0.0000000000000000e+00  3.7436503722162041e-04 -1.2794784590296478e-05 0.0000000000000000e+00  0.0000000000000000e+00 0.0000000000000000e+00 0.0000000000000000e+00  1.1883658227307447e-05 -8.1701453469385254e-08 0.0000000000000000e+00  2.4170746138737649e-05 -1.7600436021661475e-07 0.0000000000000000e+00  3.7282509617697563e-05 -2.9711346526772781e-07 0.0000000000000000e+00  5.1657509037141591e-05 -4.6249046193041020e-07 0.0000000000000000e+00  6.7759468560978767e-05 -6.9475296872248519e-07 0.0000000000000000e+00  8.6083292145857794e-05 -1.0238210840164448e-06 0.0000000000000000e+00  1.0715830926844673e-04 -1.4892387978274007e-06 0.0000000000000000e+00  1.3154757654930825e-04 -2.1423723846246438e-06 0.0000000000000000e+00  1.5984182851601421e-04 -3.0477673920480621e-06 0.0000000000000000e+00  1.9264621176698867e-04 -4.2821838999272415e-06 0.0000000000000000e+00  2.3055577078636910e-04 -5.9284394249285748e-06 0.0000000000000000e+00  2.7410535623865410e-04 -8.0584988192141579e-06 0.0000000000000000e+00  3.2363770464556688e-04 -1.0694627515023167e-05 0.0000000000000000e+00  3.7888521766725599e-04 -1.3726306457584189e-05 0.0000000000000000e+00  4.3761496786468999e-04 -1.6753462095003338e-05 0.0000000000000000e+00  4.9172007902622021e-04 -1.8964275621270134e-05 0.0000000000000000e+00  0.0000000000000000e+00 0.0000000000000000e+00 0.0000000000000000e+00  1.5222180002028044e-05 -8.8715763112506753e-08 0.0000000000000000e+00  3.0972969588647829e-05 -1.9187884022419313e-07 0.0000000000000000e+00  4.7804073770847048e-05 -3.2590324738052119e-07 0.0000000000000000e+00  6.6292827955082866e-05 -5.1132989847527475e-07 0.0000000000000000e+00  8.7054133302231094e-05 -7.7536918138953439e-07 0.0000000000000000e+00  1.1075010844776463e-04 -1.1549734679792113e-06 0.0000000000000000e+00  1.3809583675098179e-04 -1.7004914175778109e-06 0.0000000000000000e+00  1.6985853931792428e-04 -2.4797122082060636e-06 0.0000000000000000e+00  2.0684560854432047e-04 -3.5815646644283161e-06 0.0000000000000000e+00  2.4987312664004666e-04 -5.1176023800123265e-06 0.0000000000000000e+00  2.9969798836107948e-04 -7.2171500851040819e-06 0.0000000000000000e+00  3.5687662632456296e-04 -1.0007689428403173e-05 0.0000000000000000e+00  4.2146632162237484e-04 -1.3564347611477023e-05 0.0000000000000000e+00  4.9238651805893477e-04 -1.7800051732694994e-05 0.0000000000000000e+00  5.6610909154118010e-04 -2.2252963446496742e-05 0.0000000000000000e+00  6.3437731371958675e-04 -2.5712129514287309e-05 0.0000000000000000e+00  0.0000000000000000e+00 0.0000000000000000e+00 0.0000000000000000e+00  1.8032910574609945e-05 -8.1431126745663648e-08 0.0000000000000000e+00  3.6708890228453937e-05 -1.7725123237528501e-07 0.0000000000000000e+00  5.6698768738167942e-05 -3.0398208742269840e-07 0.0000000000000000e+00  7.8709071697006427e-05 -4.8280189144761651e-07 0.0000000000000000e+00  1.0349933220565825e-04 -7.4260983652526026e-07 0.0000000000000000e+00  1.3189734862739078e-04 -1.1240198118950459e-06 0.0000000000000000e+00  1.6481051474285494e-04 -1.6846130947331076e-06 0.0000000000000000e+00  2.0322984156857590e-04 -2.5056725705437810e-06 0.0000000000000000e+00  2.4822062166945550e-04 -3.7002358246905628e-06 0.0000000000000000e+00  3.0088882417296395e-04 -5.4212843377858877e-06 0.0000000000000000e+00  3.6230324165983306e-04 -7.8665430157694437e-06 0.0000000000000000e+00  4.3333664434400425e-04 -1.1271497950360449e-05 0.0000000000000000e+00  5.1436059580041102e-04 -1.5873093916515920e-05 0.0000000000000000e+00  6.0469139552961760e-04 -2.1811518071230093e-05 0.0000000000000000e+00  7.0168065158631289e-04 -2.8917754492035832e-05 0.0000000000000000e+00  7.9952221956451533e-04 -3.6320841545469376e-05 0.0000000000000000e+00  0.0000000000000000e+00 0.0000000000000000e+00 0.0000000000000000e+00  2.0201869015971781e-05 -5.9970006615816030e-08 0.0000000000000000e+00  4.1145682887597489e-05 -1.3214599469140759e-07 0.0000000000000000e+00  6.3605016496275440e-05 -2.3075299203140782e-07 0.0000000000000000e+00  8.8400770768169782e-05 -3.7464730173359738e-07 0.0000000000000000e+00  1.1642520111313218e-04 -5.9060566130368747e-07 0.0000000000000000e+00  1.4866507525674010e-04 -9.1796890882246340e-07 0.0000000000000000e+00  1.8622250149250412e-04 -1.4153698281705673e-06 0.0000000000000000e+00  2.3033048689415485e-04 -2.1704853203885517e-06 0.0000000000000000e+00  2.8235777599988556e-04 -3.3138918175625256e-06 0.0000000000000000e+00  3.4379337160789848e-04 -5.0378850873149627e-06 0.0000000000000000e+00  4.1619458258418488e-04 -7.6198673122135324e-06 0.0000000000000000e+00  5.0107310390232109e-04 -1.1446154775212781e-05 0.0000000000000000e+00  5.9968373246671873e-04 -1.7023159953937874e-05 0.0000000000000000e+00  7.1268119809810655e-04 -2.4944969870523859e-05 0.0000000000000000e+00  8.3965640886082132e-04 -3.5755838890520728e-05 0.0000000000000000e+00  9.7872035425548647e-04 -4.9603103416614173e-05 0.0000000000000000e+00  0.0000000000000000e+00 0.0000000000000000e+00 0.0000000000000000e+00  2.1632273056116254e-05 -2.6572144273798617e-08 0.0000000000000000e+00  4.4084171445344229e-05 -6.1089863665884065e-08 0.0000000000000000e+00  6.8209804241130896e-05 -1.1305892055303269e-07 0.0000000000000000e+00  9.4923088779260309e-05 -1.9583329521643054e-07 0.0000000000000000e+00  1.2522948212688483e-04 -3.2961945743278021e-07 0.0000000000000000e+00  1.6025901287401403e-04 -5.4611304111257240e-07 0.0000000000000000e+00  2.0130025983024373e-04 -8.9589416934989236e-07 0.0000000000000000e+00  2.4983389250589626e-04 -1.4603600193216137e-06 0.0000000000000000e+00  3.0756269389741348e-04 -2.3709604722090499e-06 0.0000000000000000e+00  3.7643244678217696e-04 -3.8398461802176217e-06 0.0000000000000000e+00  4.5863489399357408e-04 -6.2074767801615227e-06 0.0000000000000000e+00  5.5658184038438546e-04 -1.0013190277855157e-05 0.0000000000000000e+00  6.7284410610032170e-04 -1.6091300770065448e-05 0.0000000000000000e+00  8.1007592572968686e-04 -2.5682297561647217e-05 0.0000000000000000e+00  9.7102865752570215e-04 -4.0519897142609777e-05 0.0000000000000000e+00  1.1589600701915970e-03 -6.2816318968407828e-05 0.0000000000000000e+00  0.0000000000000000e+00 0.0000000000000000e+00 0.0000000000000000e+00  2.2250014437610099e-05 1.4476040104543474e-08 0.0000000000000000e+00  4.5370132082033219e-05 2.6947368053556114e-08 0.0000000000000000e+00  7.0266537123040145e-05 3.4665957048093277e-08 0.0000000000000000e+00  9.7917301567239731e-05 3.2676613115392418e-08 0.0000000000000000e+00  1.2941202946829066e-04 1.1775980795533466e-08 0.0000000000000000e+00  1.6599574873300401e-04 -4.5079105947712673e-08 0.0000000000000000e+00  2.0911836337054736e-04 -1.6922777592831414e-07 0.0000000000000000e+00  2.6049071545307043e-04 -4.1798975806421385e-07 0.0000000000000000e+00  3.2214783369075581e-04 -8.9584005768261464e-07 0.0000000000000000e+00  3.9651938418750919e-04 -1.7926792868215420e-06 0.0000000000000000e+00  4.8650748910702274e-04 -3.4524425220942553e-06 0.0000000000000000e+00  5.9557582181068134e-04 -6.4940151787653711e-06 0.0000000000000000e+00  7.2786978327883515e-04 -1.2017814112156338e-05 0.0000000000000000e+00  8.8843823515463802e-04 -2.1941773618705211e-05 0.0000000000000000e+00  1.0837661166615308e-03 -3.9517223729507578e-05 0.0000000000000000e+00  1.3231710215986267e-03 -7.0125356264776195e-05 0.0000000000000000e+00  0.0000000000000000e+00 0.0000000000000000e+00 0.0000000000000000e+00  2.2009283716161064e-05 5.7257501000863999e-08 0.0000000000000000e+00  4.4906150094267208e-05 1.1935457056494829e-07 0.0000000000000000e+00  6.9614384829725162e-05 1.9148886205818463e-07 0.0000000000000000e+00  9.7139665738661904e-05 2.7904685887876289e-07 0.0000000000000000e+00  1.2861621747425130e-04 3.8722260167098282e-07 0.0000000000000000e+00  1.6536102130701371e-04 5.1968392202932512e-07 0.0000000000000000e+00  2.0893889426398506e-04 6.7520855539700161e-07 0.0000000000000000e+00  2.6124249102307264e-04 8.4006378496186481e-07 0.0000000000000000e+00  3.2459233405788049e-04 9.7154719431235274e-07 0.0000000000000000e+00  4.0186367367556891e-04 9.6327617544003470e-07 0.0000000000000000e+00  4.9665043645485854e-04 5.7298279023497001e-07 0.0000000000000000e+00  6.1348529167609765e-04 -7.2596721799599819e-07 0.0000000000000000e+00  7.5815978847293853e-04 -4.0447450677830706e-06 0.0000000000000000e+00  9.3826189399540908e-04 -1.1667219984543213e-05 0.0000000000000000e+00  1.1642633263843096e-03 -2.8147964119428705e-05 0.0000000000000000e+00  1.4520956731627270e-03 -6.2304054874693309e-05 0.0000000000000000e+00  0.0000000000000000e+00 0.0000000000000000e+00 0.0000000000000000e+00  2.0897748828248527e-05 9.5008378727485848e-08 0.0000000000000000e+00  4.2662782935609885e-05 2.0150800350192374e-07 0.0000000000000000e+00  6.6197093694045012e-05 3.3255961477904684e-07 0.0000000000000000e+00  9.2490648830802159e-05 5.0419795363426808e-07 0.0000000000000000e+00  1.2267287330985314e-04 7.3718339808541632e-07 0.0000000000000000e+00  1.5807478626336045e-04 1.0589009816674440e-06 0.0000000000000000e+00  2.0030714447946186e-04 1.5050837917725368e-06 0.0000000000000000e+00  2.5136184434165667e-04 2.1203107644926957e-06 0.0000000000000000e+00  3.1374669534540859e-04 2.9544458010226565e-06 0.0000000000000000e+00  3.9066809557896065e-04 4.0478193645438595e-06 0.0000000000000000e+00  4.8628358397831981e-04 5.3872048048936400e-06 0.0000000000000000e+00  6.0606090438174935e-04 6.7880784651479161e-06 0.0000000000000000e+00  7.5731461511687620e-04 7.5940054114829188e-06 0.0000000000000000e+00  9.5008314757067433e-04 5.9377652220346220e-06 0.0000000000000000e+00  1.1987748698718426e-03 -2.9565311040880226e-06 0.0000000000000000e+00  1.5257858357329279e-03 -3.0304059842105890e-05 0.0000000000000000e+00  0.0000000000000000e+00 0.0000000000000000e+00 0.0000000000000000e+00  1.8940546211456631e-05 1.2120297738237359e-07 0.0000000000000000e+00  3.8687431391048586e-05 2.5911389165189956e-07 0.0000000000000000e+00  6.0078560502379627e-05 4.3307760844043296e-07 0.0000000000000000e+00  8.4040295937758133e-05 6.6799069054188594e-07 0.0000000000000000e+00  1.1164034983362453e-04 9.9818370472602984e-07 0.0000000000000000e+00  1.4415357720322489e-04 1.4727931451890816e-06 0.0000000000000000e+00  1.8314771000098429e-04 2.1634168851135016e-06 0.0000000000000000e+00  2.3059915976459517e-04 3.1750485418255834e-06 0.0000000000000000e+00  2.8905387451646179e-04 4.6612909774304693e-06 0.0000000000000000e+00  3.6185594438921983e-04 6.8438738099086893e-06 0.0000000000000000e+00  4.5347946765257239e-04 1.0031766338380546e-05 0.0000000000000000e+00  5.7002297666296426e-04 1.4616897193411567e-05 0.0000000000000000e+00  7.1997810418266350e-04 2.0957235018724309e-05 0.0000000000000000e+00  9.1551958828262926e-04 2.8828695400412034e-05 0.0000000000000000e+00  1.1749391319218622e-03 3.5474008895982258e-05 0.0000000000000000e+00  1.5278151563191923e-03 3.1077176714707762e-05 0.0000000000000000e+00  0.0000000000000000e+00 0.0000000000000000e+00 0.0000000000000000e+00  1.6202317305089381e-05 1.3076789906975719e-07 0.0000000000000000e+00  3.3109223635509509e-05 2.8090172041224863e-07 0.0000000000000000e+00  5.1452212151291090e-05 4.7305650513790734e-07 0.0000000000000000e+00  7.2044963046248722e-05 7.3712772593307772e-07 0.0000000000000000e+00  9.5833314137223208e-05 1.1156490070230354e-06 0.0000000000000000e+00  1.2395889416437806e-04 1.6718073551328532e-06 0.0000000000000000e+00  1.5784434994256438e-04 2.5019239930951187e-06 0.0000000000000000e+00  1.9931211741562149e-04 3.7554958741197365e-06 0.0000000000000000e+00  2.5075533248939189e-04 5.6681809322871138e-06 0.0000000000000000e+00  3.1539057660288065e-04 8.6173568191278647e-06 0.0000000000000000e+00  3.9764131875052495e-04 1.3217626592130921e-05 0.0000000000000000e+00  5.0373672752202631e-04 2.0485787577623037e-05 0.0000000000000000e+00  6.4268801448101403e-04 3.2108741428241615e-05 0.0000000000000000e+00  8.2800748452589571e-04 5.0723804062328311e-05 0.0000000000000000e+00  1.0812039723181435e-03 7.8950581984805354e-05 0.0000000000000000e+00  1.4427257389930937e-03 1.0778392703326933e-04 0.0000000000000000e+00  0.0000000000000000e+00 0.0000000000000000e+00 0.0000000000000000e+00  1.2786643949502575e-05 1.2116862636195461e-07 0.0000000000000000e+00  2.6138438271662244e-05 2.6109026232476854e-07 0.0000000000000000e+00  4.0641523829608243e-05 4.4184186979589968e-07 0.0000000000000000e+00  5.6950933726449941e-05 6.9300007024494818e-07 0.0000000000000000e+00  7.5832971422236639e-05 1.0574122626702013e-06 0.0000000000000000e+00  9.8220097963504989e-05 1.6000392917140001e-06 0.0000000000000000e+00  1.2528592412529340e-04 2.4222061685658394e-06 0.0000000000000000e+00  1.5855216752628265e-04 3.6853878273872163e-06 0.0000000000000000e+00  2.0004681092670990e-04 5.6522052194869570e-06 0.0000000000000000e+00  2.5254569947545424e-04 8.7597888011596410e-06 0.0000000000000000e+00  3.1995365437309856e-04 1.3757886261463193e-05 0.0000000000000000e+00  4.0792850634477872e-04 2.1988028156731734e-05 0.0000000000000000e+00  5.2495878143630538e-04 3.6003408124393270e-05 0.0000000000000000e+00  6.8437509850221667e-04 6.1095183843812119e-05 0.0000000000000000e+00  9.0813536079569466e-04 1.0933438797850610e-04 0.0000000000000000e+00  1.2229602110928766e-03 2.0906260216038203e-04 0.0000000000000000e+00  0.0000000000000000e+00 0.0000000000000000e+00 0.0000000000000000e+00  8.8325029296137191e-06 9.3089616562821701e-08 0.0000000000000000e+00  1.8059543456922931e-05 2.0097461913877497e-07 0.0000000000000000e+00  2.8089880424742881e-05 3.4113493620171422e-07 0.0000000000000000e+00  3.9381658708371127e-05 5.3719322783632583e-07 0.0000000000000000e+00  5.2472976394156961e-05 8.2371019161099130e-07 0.0000000000000000e+00  6.8021870592778537e-05 1.2536206405812506e-06 0.0000000000000000e+00  8.6861581501323866e-05 1.9103268064476694e-06 0.0000000000000000e+00  1.1008041208101897e-04 2.9279561007918731e-06 0.0000000000000000e+00  1.3914156157728596e-04 4.5260618827027351e-06 0.0000000000000000e+00  1.7606902862944175e-04 7.0703406432874051e-06 0.0000000000000000e+00  2.2374510170889119e-04 1.1181836018687975e-05 0.0000000000000000e+00  2.8640426834625909e-04 1.7943902926252786e-05 0.0000000000000000e+00  3.7052293030665027e-04 2.9346108902743191e-05 0.0000000000000000e+00  4.8686483255251125e-04 4.9516217646347246e-05 0.0000000000000000e+00  6.5791245443716940e-04 8.9511546177899895e-05 0.0000000000000000e+00  9.5420314482245084e-04 1.8944726702679418e-04 0.0000000000000000e+00  0.0000000000000000e+00 0.0000000000000000e+00 0.0000000000000000e+00  4.5077407116373347e-06 5.0494753925786842e-08 0.0000000000000000e+00  9.2177563954926746e-06 1.0912178031299246e-07 0.0000000000000000e+00  1.4339389812230790e-05 1.8550241793158888e-07 0.0000000000000000e+00  2.0107528191717746e-05 2.9268890760336355e-07 0.0000000000000000e+00  2.6798419651126067e-05 4.4985183701233848e-07 0.0000000000000000e+00  3.4750413692371427e-05 6.8645034376584429e-07 0.0000000000000000e+00  4.4392687429932474e-05 1.0489803138781164e-06 0.0000000000000000e+00  5.6286795889995804e-05 1.6120934584158343e-06 0.0000000000000000e+00  7.1188826755548432e-05 2.4968705074903830e-06 0.0000000000000000e+00  9.0144217319374189e-05 3.8997199983005112e-06 0.0000000000000000e+00  1.1463010055362823e-04 6.1320249908637738e-06 0.0000000000000000e+00  1.4674017131836305e-04 9.6448329076535152e-06 0.0000000000000000e+00  1.8924408920936858e-04 1.4879793396836559e-05 0.0000000000000000e+00  2.4445631296081410e-04 2.1195838035380517e-05 0.0000000000000000e+00  3.0727105448710652e-04 2.2248409680065321e-05 0.0000000000000000e+00  3.4615798527530875e-04 -2.4656508150763765e-06 0.0000000000000000e+00  0.0000000000000000e+00 0.0000000000000000e+00 0.0000000000000000e+00  0.0000000000000000e+00 0.0000000000000000e+00 0.0000000000000000e+00  0.0000000000000000e+00 0.0000000000000000e+00 0.0000000000000000e+00  0.0000000000000000e+00 0.0000000000000000e+00 0.0000000000000000e+00  0.0000000000000000e+00 0.0000000000000000e+00 0.0000000000000000e+00  0.0000000000000000e+00 0.0000000000000000e+00 0.0000000000000000e+00  0.0000000000000000e+00 0.0000000000000000e+00 0.0000000000000000e+00  0.0000000000000000e+00 0.0000000000000000e+00 0.0000000000000000e+00  0.0000000000000000e+00 0.0000000000000000e+00 0.0000000000000000e+00  0.0000000000000000e+00 0.0000000000000000e+00 0.0000000000000000e+00  0.0000000000000000e+0