<?xml version="1.0"?>
<VTKFile type="UnstructuredGrid"  version="0.1"  >
<UnstructuredGrid>
<Piece  NumberOfPoints="289" NumberOfCells="512">
<Points>
<DataArray  type="Float64"  NumberOfComponents="3"  format="ascii">0 0 0  0.0625 0 0  0.125 0 0  0.1875 0 0  0.25 0 0  0.3125 0 0  0.375 0 0  0.4375 0 0  0.5 0 0  0.5625 0 0  0.625 0 0  0.6875 0 0  0.75 0 0  0.8125 0 0  0.875 0 0  0.9375 0 0  1 0 0  0 0.0625 0  0.0625037180532772 0.06246194406742959 0  0.1250081575666302 0.0624232066449791 0  0.1875140859001641 0.06238314841969445 0  0.2500224936031349 0.06234126860673006 0  0.3125347453888317 0.06229729458368312 0  0.3750527920424542 0.06225129447427653 0  0.4375794861008213 0.06220381396338495 0  0.5001190778056807 0.06215602895328053 0  0.5626780410655016 0.06210988767468277 0  0.6252665486347281 0.06206818495962645 0  0.687901334150698 0.06203446235374127 0  0.7506117743986793 0.06201255676471275 0  0.8134540201780923 0.06200553218601903 0  0.8765462950833265 0.06201368201481825 0  0.9401603660339253 0.06203187597496494 0  1.004947717859327 0.06205607664499502 0  0 0.125 0  0.06250671132849919 0.1249245234300025 0  0.1250147804671418 0.124847611514448 0  0.1875256583033076 0.1247679062308951 0  0.2500412310178717 0.1246843100917885 0  0.312564116048399 0.124596160274659 0  0.375098077248745 0.1245034545314934 0  0.4376486378287228 0.1244071370268114 0  0.5002240227330951 0.1243094364658133 0  0.5628366666125318 0.1242142174603878 0  0.6255057340150108 0.1241272496476195 0  0.6882615229863869 0.1240562086846898 0  0.7511534385643664 0.1240101047462682 0  0.8142645341599675 0.1239977644584166 0  0.877736517223905 0.1240253230534323 0  0.9418040139066053 0.1240946400358912 0  1.006810968227459 0.1242098046955182 0  0 0.1875 0  0.06250843534213173 0.1873885159949919 0  0.1250186767122063 0.1872747134090126 0  0.1875326623794386 0.1871563713385364 0  0.2500529320418385 0.1870316154596404 0  0.3125830365602311 0.1868991626035907 0  0.3751281100217421 0.1867586544658306 0  0.4376957006990856 0.1866111052733554 0  0.5002970064219473 0.1864594737954199 0  0.5629487392116341 0.1863093353415976 0  0.6256759648026317 0.1861695568922029 0  0.688516413529187 0.1860527392757217 0  0.751526813773181 0.1859749304082716 0  0.8147912252918604 0.18595359365344 0  0.8784285376108871 0.1860015253890681 0  0.9425880849275853 0.1861102436099618 0  1.007409331278589 0.1862011514671598 0  0 0.25 0  0.06250853157767881 0.2498548260262346 0  0.1250190483400703 0.249706282407853 0  0.1875336913015617 0.24955109398002 0  0.250055295096057 0.2493863593685134 0  0.312587863280004 0.2492098381493756 0  0.375137231675297 0.2490203709979307 0  0.4377120209977597 0.2488184857807827 0  0.5003250137945294 0.2486072408145423 0  0.562995125465648 0.248393336884332 0  0.6257501479190477 0.2481884694226006 0  0.6886303470965994 0.2480107490079509 0  0.7516925845479629 0.2478857138389437 0  0.8150134533721765 0.2478458505970428 0  0.8786872651059836 0.2479264118110061 0  0.9428105744087579 0.2481536884231812 0  1.007443577330443 0.2485226408767003 0  0 0.3125 0  0.06250688455371466 0.3123245193271545 0  0.1250156190011988 0.3121444412025356 0  0.1875282119914982 0.3119552270682128 0  0.2500473656555885 0.3117526561262695 0  0.3125769595005448 0.311533108627454 0  0.3751227347671239 0.3112940240498553 0  0.4376932838805578 0.311034623660184 0  0.5003014758474529 0.3107570109514302 0  0.56296645977427 0.3104677828927033 0  0.6257163431181336 0.3101802782115201 0  0.688591448492209 0.3099175068450295 0  0.7516475515206296 0.3097155473558185 0  0.8149574998646247 0.3096265942420736 0  0.8786082088165702 0.3097196815946053 0  0.9426897332077999 0.3100754785331913 0  1.007279196823182 0.3107706261392102 0  0 0.375 0  0.0625036451489079 0.3747988286705547 0  0.1250086895332639 0.3745916869934516 0  0.1875166703962068 0.3743725887788764 0  0.2500297170355117 0.374135705689418 0  0.3125509818139694 0.3738755799481385 0  0.3750852733577214 0.3735875369623647 0  0.4376400075629714 0.3732684231190113 0  0.5002266312114967 0.3729178541237897 0  0.5628627054359319 0.3725402416085499 0  0.6255748247385668 0.372147961293895 0  0.6884024142816905 0.3717660926250632 0  0.7514020727867317 0.3714390763958175 0  0.8146514247190246 0.3712391363862495 0  0.8782506924648756 0.3712749729874233 0  0.9423208543560422 0.3716968161727321 0  1.007002969804662 0.3726913156170381 0  0 0.4375 0  0.06249921744052842 0.4372791191454752 0  0.1249991154465701 0.4370508307381138 0  0.1875004669431445 0.4368075959452763 0  0.2500044347420502 0.4365417614751121 0  0.312512884899147 0.4362456195436579 0  0.3750288881169916 0.4359116572690082 0  0.4375575419774169 0.43553314055912 0  0.5001073222074419 0.4351052751646984 0  0.5626922764962288 0.434627346484464 0  0.6253354967854443 0.4341064831504847 0  0.6880743923746055 0.4335640195607096 0  0.7509682107475867 0.4330457566511179 0  0.8141078253588996 0.4326373788646892 0  0.8776270023168726 0.4324850281119979 0  0.9417141458619883 0.4328175082452813 0  1.006627650187788 0.4339618876677294 0  0 0.5 0  0.06249421033416307 0.4997668058491331 0  0.124988208352481 0.4995248348754085 0  0.1874818049929235 0.4992650297910678 0  0.2499749109652696 0.4989778471420652 0  0.3124676669781093 0.4986530806218623 0  0.3749607182111392 0.4982798115457779 0  0.4374557746424382 0.497846617275272 0  0.4999567239593464 0.4973422883048146 0  0.5624717843823402 0.4967575270160407 0  0.6250175454633201 0.4960885040352456 0  0.6876262629020906 0.4953438449067265 0  0.7503583361056414 0.4945576994757631 0  0.8133220651365738 0.4938127844179533 0  0.8767016923796991 0.4932773138949526 0  0.9407921506098781 0.4932549931230435 0  1.00604009680943 0.494234840726194 0  0 0.5625 0  0.06248935832169459 0.5622632226162496 0  0.1249775689097666 0.5620165429546763 0  0.1874634209618637 0.5617496129096905 0  0.2499454555985827 0.5614511686443618 0  0.3124218560936336 0.5611085540012444 0  0.3748903925822547 0.5607072519738748 0  0.4373485381932938 0.5602304928252586 0  0.4997940360789163 0.5596591136831068 0  0.5622265371030127 0.5589720723311311 0  0.6246515993452303 0.5581485053982601 0  0.6870895533401514 0.5571732540188771 0  0.7495936106720995 0.5560498920326207 0  0.812283595249092 0.5548291666747039 0  0.8754014179805676 0.5536657725308795 0  0.9393876087494576 0.5529151574323771 0  1.00496598548977 0.5532593764951155 0  0 0.625 0  0.06248541858118913 0.6247694503089531 0  0.1249688643240979 0.6245283156138698 0  0.1874482108809764 0.6242654111339314 0  0.2499207300506044 0.6239682191718884 0  0.3123827125571205 0.6236220966929327 0  0.3748290016280952 0.6232093297953619 0  0.4372524728293277 0.6227079947871975 0  0.4996436404983648 0.6220906284165181 0  0.5619909532503323 0.6213228414039859 0  0.6242832604050172 0.6203623805967654 0  0.6865179783318931 0.6191601636926188 0  0.7487225854965016 0.6176675772123913 0  0.8110037768234303 0.6158616147652819 0  0.8736443091883812 0.6138162243172898 0  0.9372577066214832 0.6118683048595354 0  1.00298620359279 0.6108816637580902 0  0 0.6875 0  0.06248305527264814 0.6872861251687645 0  0.124963571769859 0.6870616144609072 0  0.1874387823046691 0.6868151229854869 0  0.2499050288657921 0.6865336569311929 0  0.3123571364847009 0.6862015183951085 0  0.3747875262874327 0.6857989312492891 0  0.437184953845642 0.6853001774478652 0  0.4995327985684947 0.684671013581295 0  0.5618070623115239 0.6838650718182405 0  0.6239750549703922 0.6828189390668897 0  0.6859981835508338 0.6814459204882115 0  0.7478487856533944 0.6796302201244344 0  0.8095664350805906 0.6772308075134159 0  0.8714069918151107 0.6741348658632691 0  0.934131289655837 0.6705078180493279 0  0.9993999160899034 0.6673835538575882 0  0 0.75 0  0.06248272653064924 0.74981325884799 0  0.1249627213798836 0.7496166020442051 0  0.1874369866432596 0.7493993716480998 0  0.249901484270564 0.7491491327988905 0  0.3123503553188359 0.7488504831183297 0  0.374774726242794 0.748483423860164 0  0.4371608158289808 0.7480210166158365 0  0.4994869019546368 0.7474258919591181 0  0.5617185404422081 0.7466449000858332 0  0.6238014926822335 0.7456006951748013 0  0.6856531116072683 0.7441781382215891 0  0.7471589893633338 0.7422019161086458 0  0.8082040961660353 0.7394008416527129 0  0.8688422675888182 0.73536621715916 0  0.929910893275165 0.7296386936397723 0  0.9933679377950903 0.7233022016985217 0  0 0.8125 0  0.06248459409641258 0.8123501079816943 0  0.1249666856477853 0.8121918427467529 0  0.1874435198159584 0.8120161515357152 0  0.2499113441400024 0.8118123237138857 0  0.3123646277751358 0.8115668472497937 0  0.3747948083451766 0.811261798925767 0  0.4371881671896002 0.8108724568406673 0  0.4995220884488222 0.8103636281391664 0  0.5617582917573614 0.8096838258484201 0  0.6238304105729627 0.8087557199228337 0  0.6856213974833764 0.8074597166556191 0  0.7469249624415342 0.8056035659729038 0  0.8073937345515582 0.8028601302995122 0  0.8665430185984198 0.7986269790213418 0  0.9242792430212357 0.7917033223514698 0  0.9862002749752106 0.7796270709377128 0  0 0.875 0  0.0624884769600125 0.8748951288947214 0  0.1249750683674271 0.8747841867932709 0  0.187457700745609 0.8746605835267193 0  0.2499335384917251 0.8745164468246499 0  0.3123983756484948 0.8743417226429273 0  0.3748456338410087 0.8741228890721054 0  0.4372645971983667 0.8738410234090719 0  0.4996371269220913 0.8734688058922708 0  0.5619312180629688 0.8729657858367667 0  0.6240877030264051 0.8722708099455289 0  0.685991507215058 0.8712897191822605 0  0.7474073218703975 0.8698742285003964 0  0.8078341554140011 0.8677784295453621 0  0.8661875119241585 0.8645327744019047 0  0.920181314459656 0.8589703825125171 0  0.9654542375082827 0.8474694587598665 0  0 0.9375 0  0.06249386549482627 0.9374460407498927 0  0.1249867357132766 0.9373888930691974 0  0.187477522084684 0.9373250880924888 0  0.2499647410532535 0.9372504596019027 0  0.3124462003463275 0.9371596503660427 0  0.3749184809182807 0.9370454013945648 0  0.4373760161072934 0.936897479136885
[...]
<PointData  Vectors="f_54"> 
<DataArray  type="Float64"  Name="f_54"  NumberOfComponents="3" format="ascii">0.0000000000000000e+00 0.0000000000000000e+00 0.0000000000000000e+00  0.0000000000000000e+00 0.0000000000000000e+00 0.0000000000000000e+00  0.0000000000000000e+00 0.0000000000000000e+00 0.0000000000000000e+00  0.0000000000000000e+00 0.0000000000000000e+00 0.0000000000000000e+00  0.0000000000000000e+00 0.0000000000000000e+00 0.0000000000000000e+00  0.0000000000000000e+00 0.0000000000000000e+00 0.0000000000000000e+00  0.0000000000000000e+00 0.0000000000000000e+00 0.0000000000000000e+00  0.0000000000000000e+00 0.0000000000000000e+00 0.0000000000000000e+00  0.0000000000000000e+00 0.0000000000000000e+00 0.0000000000000000e+00  0.0000000000000000e+00 0.0000000000000000e+00 0.0000000000000000e+00  0.0000000000000000e+00 0.0000000000000000e+00 0.0000000000000000e+00  0.0000000000000000e+00 0.0000000000000000e+00 0.0000000000000000e+00  0.0000000000000000e+00 0.0000000000000000e+00 0.0000000000000000e+00  0.0000000000000000e+00 0.0000000000000000e+00 0.0000000000000000e+00  0.0000000000000000e+00 0.0000000000000000e+00 0.0000000000000000e+00  0.0000000000000000e+00 0.0000000000000000e+00 0.0000000000000000e+00  0.0000000000000000e+00 0.0000000000000000e+00 0.0000000000000000e+00  0.0000000000000000e+00 0.0000000000000000e+00 0.0000000000000000e+00  3.0283710809024262e-06 2.1250132455628162e-07 0.0000000000000000e+00  6.1164716437973692e-06 4.2724209012922977e-07 0.0000000000000000e+00  9.3232114915330897e-06 6.4614136790480946e-07 0.0000000000000000e+00  1.2698145465334744e-05 8.6992706719656952e-07 0.0000000000000000e+00  1.6274999765980131e-05 1.0974200314465606e-06 0.0000000000000000e+00  2.0062729342033201e-05 1.3246938045353392e-06 0.0000000000000000e+00  2.4033035831765647e-05 1.5441341662523252e-06 0.0000000000000000e+00  2.8102928066635067e-05 1.7435043409634457e-06 0.0000000000000000e+00  3.2110094005765841e-05 1.9052518711218010e-06 0.0000000000000000e+00  3.5776737709742229e-05 2.0064823710968179e-06 0.0000000000000000e+00  3.8651688130132811e-05 2.0202900479041077e-06 0.0000000000000000e+00  4.0003630277641320e-05 1.9195756099377376e-06 0.0000000000000000e+00  3.8586250409867334e-05 1.6856906476477823e-06 0.0000000000000000e+00  3.2024493956870521e-05 1.3291460543199183e-06 0.0000000000000000e+00  1.4955109044166541e-05 9.5189512983484791e-07 0.0000000000000000e+00  -2.7425293842890194e-05 9.8852991592998535e-07 0.0000000000000000e+00  0.0000000000000000e+00 0.0000000000000000e+00 0.0000000000000000e+00  5.9936895143212827e-06 4.2252718912646729e-07 0.0000000000000000e+00  1.2111371390354839e-05 8.5011220481866098e-07 0.0000000000000000e+00  1.8475861581815585e-05 1.2872110720163512e-06 0.0000000000000000e+00  2.5192863324107812e-05 1.7359981891869290e-06 0.0000000000000000e+00  3.2338933867053614e-05 2.1949560971683118e-06 0.0000000000000000e+00  3.9944668033694818e-05 2.6571671510118272e-06 0.0000000000000000e+00  4.7971098154150449e-05 3.1083172897502746e-06 0.0000000000000000e+00  5.6276848567631629e-05 3.5245696723230522e-06 0.0000000000000000e+00  6.4572658888001442e-05 3.8707109120188031e-06 0.0000000000000000e+00  7.2357755382143540e-05 4.0993294140061292e-06 0.0000000000000000e+00  7.8827355125272921e-05 4.1522121647519318e-06 0.0000000000000000e+00  8.2728196755352690e-05 3.9654574528753728e-06 0.0000000000000000e+00  8.2111697690799760e-05 3.4794303234855571e-06 0.0000000000000000e+00  7.3885992481663668e-05 2.6516648222995388e-06 0.0000000000000000e+00  5.3051025055869574e-05 1.4559274902594910e-06 0.0000000000000000e+00  1.2014526682665070e-05 -2.2836048979467357e-07 0.0000000000000000e+00  0.0000000000000000e+00 0.0000000000000000e+00 0.0000000000000000e+00  8.8282737773811969e-06 6.2700875656627603e-07 0.0000000000000000e+00  1.7852986943103954e-05 1.2629901545279871e-06 0.0000000000000000e+00  2.7269900136972168e-05 1.9161183846772926e-06 0.0000000000000000e+00  3.7252961540864639e-05 2.5914203493732589e-06 0.0000000000000000e+00  4.7938446586175620e-05 3.2887383129352891e-06 0.0000000000000000e+00  5.9402245975886366e-05 4.0001378086651792e-06 0.0000000000000000e+00  7.1627517883439377e-05 4.7066857686079903e-06 0.0000000000000000e+00  8.4459550330789375e-05 5.3747042539864881e-06 0.0000000000000000e+00  9.7544240822178158e-05 5.9519451012352843e-06 0.0000000000000000e+00  1.1024595895143872e-04 6.3646916621381111e-06 0.0000000000000000e+00  1.2153944354711369e-04 6.5175766696805283e-06 0.0000000000000000e+00  1.2986891322654047e-04 6.2987158368701915e-06 0.0000000000000000e+00  1.3296926873231885e-04 5.5929616065256681e-06 0.0000000000000000e+00  1.2766817295878626e-04 4.3042881160640976e-06 0.0000000000000000e+00  1.0980628234332492e-04 2.3825460814282508e-06 0.0000000000000000e+00  7.4825819294116534e-05 -1.5580188357281067e-07 0.0000000000000000e+00  0.0000000000000000e+00 0.0000000000000000e+00 0.0000000000000000e+00  1.1456844708145936e-05 8.2180996445533903e-07 0.0000000000000000e+00  2.3192901261212881e-05 1.6580009749442520e-06 0.0000000000000000e+00  3.5488365321418268e-05 2.5221012305552377e-06 0.0000000000000000e+00  4.8601277964317895e-05 3.4240140513462018e-06 0.0000000000000000e+00  6.2750291605902423e-05 4.3675079932967993e-06 0.0000000000000000e+00  7.8088796517837108e-05 5.3468073260432418e-06 0.0000000000000000e+00  9.4666843246097709e-05 6.3420220570156594e-06 0.0000000000000000e+00  1.1237696296740411e-04 7.3133029755466973e-06 0.0000000000000000e+00  1.3088001853118765e-04 8.1939747275227533e-06 0.0000000000000000e+00  1.4950806364304192e-04 8.8836610963573442e-06 0.0000000000000000e+00  1.6714365063766543e-04 9.2437756295294870e-06 0.0000000000000000e+00  1.8208090654436192e-04 9.0998236574863217e-06 0.0000000000000000e+00  1.9188790663906850e-04 8.2574881797312949e-06 0.0000000000000000e+00  1.9332596312247069e-04 6.5413246668913928e-06 0.0000000000000000e+00  1.8246940522816764e-04 3.8633661793942663e-06 0.0000000000000000e+00  1.5533676270529495e-04 3.1788182659509040e-07 0.0000000000000000e+00  0.0000000000000000e+00 0.0000000000000000e+00 0.0000000000000000e+00  1.3794739118443834e-05 1.0013546519594177e-06 0.0000000000000000e+00  2.7961776637630754e-05 2.0241888756841816e-06 0.0000000000000000e+00  4.2877437957200632e-05 3.0892832357993112e-06 0.0000000000000000e+00  5.8900984263430391e-05 4.2139018743669366e-06 0.0000000000000000e+00  7.6359107355950442e-05 5.4091027814113025e-06 0.0000000000000000e+00  9.5520372834926432e-05 6.6757574229801006e-06 0.0000000000000000e+00  1.1655512480120497e-04 7.9987216791375452e-06 0.0000000000000000e+00  1.3947573204230101e-04 9.3385937120546759e-06 0.0000000000000000e+00  1.6405198683520019e-04 1.0620712002196471e-05 0.0000000000000000e+00  1.8969781403840530e-04 1.1721805038143766e-05 0.0000000000000000e+00  2.1532959603040705e-04 1.2456563153716179e-05 0.0000000000000000e+00  2.3920542916565105e-04 1.2570173501173530e-05 0.0000000000000000e+00  2.5877131611092827e-04 1.1749289409234149e-05 0.0000000000000000e+00  2.7056795423108167e-04 9.6726235998367958e-06 0.0000000000000000e+00  2.7029069452453198e-04 6.1298269251051662e-06 0.0000000000000000e+00  2.5312265423709521e-04 1.2351135563579035e-06 0.0000000000000000e+00  0.0000000000000000e+00 0.0000000000000000e+00 0.0000000000000000e+00  1.5748263213094860e-05 1.1584586949569936e-06 0.0000000000000000e+00  3.1969533986666305e-05 2.3470894041110270e-06 0.0000000000000000e+00  4.9145379562008103e-05 3.5957885238167946e-06 0.0000000000000000e+00  6.7751566723867036e-05 4.9318301366720520e-06 0.0000000000000000e+00  8.8247977619971708e-05 6.3774679735517913e-06 0.0000000000000000e+00  1.1105771950997453e-04 7.9459186548931731e-06 0.0000000000000000e+00  1.3652987922650934e-04 9.6347974031140281e-06 0.0000000000000000e+00  1.6487892158158381e-04 1.1415758126185707e-05 0.0000000000000000e+00  1.9609264460101678e-04 1.3218838390559342e-05 0.0000000000000000e+00  2.2980100344297588e-04 1.4910211499633577e-05 0.0000000000000000e+00  2.6510198351541571e-04 1.6263639014401045e-05 0.0000000000000000e+00  3.0035078293309689e-04 1.6930788044739854e-05 0.0000000000000000e+00  3.3293674681277588e-04 1.6426651319800432e-05 0.0000000000000000e+00  3.5909456060826024e-04 1.4165877608009828e-05 0.0000000000000000e+00  3.7380113813137515e-04 9.6101251420255597e-06 0.0000000000000000e+00  3.7074698385509633e-04 2.5991838269197787e-06 0.0000000000000000e+00  0.0000000000000000e+00 0.0000000000000000e+00 0.0000000000000000e+00  1.7217653231368839e-05 1.2844549681959993e-06 0.0000000000000000e+00  3.5010928147439986e-05 2.6088926842422297e-06 0.0000000000000000e+00  5.3969997307319151e-05 4.0137455457590895e-06 0.0000000000000000e+00  7.4696868035953817e-05 5.5386371692848312e-06 0.0000000000000000e+00  9.7804863376119283e-05 7.2209250188558858e-06 0.0000000000000000e+00  1.2390773604655219e-04 9.0925373389814735e-06 0.0000000000000000e+00  1.5359191151573701e-04 1.1173853959089604e-05 0.0000000000000000e+00  1.8736253583698844e-04 1.3462615201598287e-05 0.0000000000000000e+00  2.2555078418069727e-04 1.5914738131414403e-05 0.0000000000000000e+00  2.6816744854973759e-04 1.8412646316175396e-05 0.0000000000000000e+00  3.1468898595315395e-04 2.0716202549891694e-05 0.0000000000000000e+00  3.6377210012493699e-04 2.2394434019966887e-05 0.0000000000000000e+00  4.1291728311717343e-04 2.2749506262281688e-05 0.0000000000000000e+00  4.5813627266938186e-04 2.0777801869557927e-05 0.0000000000000000e+00  4.9368107637021109e-04 1.5269420792183855e-05 0.0000000000000000e+00  5.1175653019639941e-04 5.2003918769963953e-06 0.0000000000000000e+00  0.0000000000000000e+00 0.0000000000000000e+00 0.0000000000000000e+00  1.8102904276523996e-05 1.3696898295913237e-06 0.0000000000000000e+00  3.6877153091605283e-05 2.7893869178178160e-06 0.0000000000000000e+00  5.7015849636927093e-05 4.3105470889976077e-06 0.0000000000000000e+00  7.9247269233796114e-05 5.9865233522164586e-06 0.0000000000000000e+00  1.0434815159704241e-04 7.8727916679548719e-06 0.0000000000000000e+00  1.3314900165976596e-04 1.0025831127965101e-05 0.0000000000000000e+00  1.6652459712376456e-04 1.2499352200101068e-05 0.0000000000000000e+00  2.0535835690857257e-04 1.5335392009459508e-05 0.0000000000000000e+00  2.5046276455662039e-04 1.8545656662559604e-05 0.0000000000000000e+00  3.0243027747383191e-04 2.2074844211421749e-05 0.0000000000000000e+00  3.6138330623368159e-04 2.5732301376489784e-05 0.0000000000000000e+00  4.2659696675651485e-04 2.9073196784447249e-05 0.0000000000000000e+00  4.9600226265814941e-04 3.1214772218432343e-05 0.0000000000000000e+00  5.6565663154680540e-04 3.0612177473717469e-05 0.0000000000000000e+00  6.2934590209685328e-04 2.4922756947482358e-05 0.0000000000000000e+00  6.7831294170825785e-04 1.1206944215838852e-05 0.0000000000000000e+00  0.0000000000000000e+00 0.0000000000000000e+00 0.0000000000000000e+00  1.8312425874356359e-05 1.4044299118644177e-06 0.0000000000000000e+00  3.7373553091753552e-05 2.8678010668649800e-06 0.0000000000000000e+00  5.7961706452305722e-05 4.4516598016746163e-06 0.0000000000000000e+00  8.0917497006801001e-05 6.2227675239987941e-06 0.0000000000000000e+00  1.0717457285232872e-04 8.2556512043109255e-06 0.0000000000000000e+00  1.3778743682797844e-04 1.0634744959487649e-05 0.0000000000000000e+00  1.7395072231390110e-04 1.3455269031645556e-05 0.0000000000000000e+00  2.1699827151352980e-04 1.6820777481030950e-05 0.0000000000000000e+00  2.6836011856359035e-04 2.0832611610586256e-05 0.0000000000000000e+00  3.2943972473097814e-04 2.5560650587729136e-05 0.0000000000000000e+00  4.0135373620888988e-04 3.0972680320753082e-05 0.0000000000000000e+00  4.8446278380908649e-04 3.6777412344000223e-05 0.0000000000000000e+00  5.7765086943095667e-04 4.2105724527177428e-05 0.0000000000000000e+00  6.7746512797367227e-04 4.4953731066404687e-05 0.0000000000000000e+00  7.7757169616997715e-04 4.1461517181632605e-05 0.0000000000000000e+00  8.6928788176578219e-04 2.5419597972802698e-05 0.0000000000000000e+00  0.0000000000000000e+00 0.0000000000000000e+00 0.0000000000000000e+00  1.7774051622285327e-05 1.3801397975177914e-06 0.0000000000000000e+00  3.6342668283532190e-05 2.8255042183592942e-06 0.0000000000000000e+00  5.6537575222486177e-05 4.4050290173751609e-06 0.0000000000000000e+00  7.9280181756931242e-05 6.1962247517675488e-06 0.0000000000000000e+00  1.0563171082619615e-04 8.2903092319611200e-06 0.0000000000000000e+00  1.3684848186932660e-04 1.0798349742645493e-05 0.0000000000000000e+00  1.7444035843023898e-04 1.3858613899796703e-05 0.0000000000000000e+00  2.2022413718578360e-04 1.7644787207023874e-05 0.0000000000000000e+00  2.7635080374109557e-04 2.2372931816917923e-05 0.0000000000000000e+00  3.4526103093978565e-04 2.8299681154618137e-05 0.0000000000000000e+00  4.2948108517406409e-04 3.5688856005703577e-05 0.0000000000000000e+00  5.3111209586101913e-04 4.4682730290008970e-05 0.0000000000000000e+00  6.5082822210191628e-04 5.4915821416745751e-05 0.0000000000000000e+00  7.8636402309886864e-04 6.4535139006961938e-05 0.0000000000000000e+00  9.3125057926416355e-04 6.8313932273637339e-05 0.0000000000000000e+00  1.0750822144178344e-03 5.5366395263959609e-05 0.0000000000000000e+00  0.0000000000000000e+00 0.0000000000000000e+00 0.0000000000000000e+00  1.6447366447077879e-05 1.2909815810904646e-06 0.0000000000000000e+00  3.3690656548248931e-05 2.6492718714778561e-06 0.0000000000000000e+00  5.2568717650359774e-05 4.1466827608948824e-06 0.0000000000000000e+00  7.4032701634864194e-05 5.8662248440483221e-06 0.0000000000000000e+00  9.9214300645953814e-05 7.9094272701436518e-06 0.0000000000000000e+00  1.2950960406863047e-04 1.0406149692596860e-05 0.0000000000000000e+00  1.6668317415083575e-04 1.3528448338284981e-05 0.0000000000000000e+00  2.1299330064979041e-04 1.7510882468477839e-05 0.0000000000000000e+00  2.7132830468838259e-04 2.2680725921248222e-05 0.0000000000000000e+00  3.4531556324710522e-04 2.9501839220451708e-05 0.0000000000000000e+00  4.3930103055057033e-04 3.8630117949922176e-05 0.0000000000000000e+00  5.5796774076770621e-04 5.0944577865586422e-05 0.0000000000000000e+00  7.0514624440495626e-04 6.7375412337286939e-05 0.0000000000000000e+00  8.8123722169291684e-04 8.7833220464346985e-05 0.0000000000000000e+00  1.0802726683380927e-03 1.0727477965486392e-04 0.0000000000000000e+00  1.2928117352893529e-03 1.1238470454108765e-04 0.0000000000000000e+00  0.0000000000000000e+00 0.0000000000000000e+00 0.0000000000000000e+00  1.4335675362147667e-05 1.1352748364421173e-06 0.0000000000000000e+00  2.9413685726042221e-05 2.3345539285621099e-06 0.0000000000000000e+00  4.6021518119509412e-05 3.6665833384861593e-06 0.0000000000000000e+00  6.5070774630763965e-05 5.2124339508953900e-06 0.0000000000000000e+00  8.7677635838518157e-05 7.0738896410538952e-06 0.0000000000000000e+00  1.1526956620930301e-04 9.3852281674637952e-06 0.0000000000000000e+00  1.4973167188664312e-04 1.2330899057015595e-05 0.0000000000000000e+00  1.9360886881021388e-04 1.6173686625849100e-05 0.0000000000000000e+00  2.5037870566849526e-04 2.1302414060914320e-05 0.0000000000000000e+00  3.2479306363325251e-04 2.8317824407022771e-05 0.0000000000000000e+00  4.2322510421618034e-04 3.8194434040428416e-05 0.0000000000000000e+00  5.5377746251577512e-04 5.2585494279247481e-05 0.0000000000000000e+00  7.2544136134672550e-04 7.4331657102827449e-05 0.0000000000000000e+00  9.4448552474630425e-04 1.0783023669864894e-04 0.0000000000000000e+00  1.2043528071703112e-03 1.5536578371349314e-04 0.0000000000000000e+00  1.4984574342520422e-03 1.7462316681721591e-04 0.0000000000000000e+00  0.0000000000000000e+00 0.0000000000000000e+00 0.0000000000000000e+00  1.1495367057706481e-05 9.1658782877911121e-07 0.0000000000000000e+00  2.3619463912805393e-05 1.8879895004519804e-06 0.0000000000000000e+00  3.7043195072850293e-05 2.9733238745331217e-06 0.0000000000000000e+00  5.2556975917544046e-05 4.2432134204867757e-06 0.0000000000000000e+00  7.1152360999684951e-05 5.7876699737872069e-06 0.0000000000000000e+00  9.4136779071108266e-05 7.7272004892481289e-06 0.0000000000000000e+00  1.2330288054762081e-04 1.0229392163088846e-05 0.0000000000000000e+00  1.6118566596103244e-04 1.3535120356262822e-05 0.0000000000000000e+00  2.1145724677932497e-04 1.8003165494664133e-05 0.0000000000000000e+00  2.7952679675396954e-04 2.4194787066674092e-05 0.0000000000000000e+00  3.7340931404424330e-04 3.3056983035016836e-05 0.0000000000000000e+00  5.0481633812628104e-04 4.6371292447475274e-05 0.0000000000000000e+00  6.8993353976388950e-04 6.7932128485925729e-05 0.0000000000000000e+00  9.4764231786405339e-04 1.0666754168742167e-04 0.0000000000000000e+00  1.2862680970782536e-03 1.8496583196994095e-04 0.0000000000000000e+00  1.6003759182440544e-03 3.7483614040698311e-04 0.0000000000000000e+00  0.0000000000000000e+00 0.0000000000000000e+00 0.0000000000000000e+00  8.0401625398990910e-06 6.4415636790295133e-07 0.0000000000000000e+00  1.6538207656900257e-05 1.3284420823125717e-06 0.0000000000000000e+00  2.5985079822624320e-05 2.0962265294885706e-06 0.0000000000000000e+00  3.6967122966268278e-05 2.9996792633470172e-06 0.0000000000000000e+00  5.0233903786182509e-05 4.1056929136897681e-06 0.0000000000000000e+00  6.6797790275602382e-05 5.5039178033016397e-06 0.0000000000000000e+00  8.8089165440381450e-05 7.3178063876996552e-06 0.0000000000000000e+00  1.1620902838394732e-04 9.7193659248611294e-06 0.0000000000000000e+00  1.5435391439938776e-04 1.2947324264362403e-05 0.0000000000000000e+00  2.0754818251345744e-04 1.7326465114176624e-05 0.0000000000000000e+00  2.8391966806596501e-04 2.3288415935284290e-05 0.0000000000000000e+00  3.9688805478827458e-04 3.1440468540019117e-05 0.0000000000000000e+00  5.6865956970502882e-04 4.3008017717937888e-05 0.0000000000000000e+00  8.3470671714655574e-04 6.2148809022941591e-05 0.0000000000000000e+00  1.2456160761480672e-03 1.0504086312049947e-04 0.0000000000000000e+00  1.8539128422134120e-03 2.2296848020293691e-04 0.0000000000000000e+00  0.0000000000000000e+00 0.0000000000000000e+00 0.0000000000000000e+00  4.1380700102690910e-06 3.3246172123979704e-07 0.0000000000000000e+00  8.5177691000262361e-06 6.8613949004948301e-07 0.0000000000000000e+00  1.3399013921395354e-05 1.0839793649193349e-06 0.0000000000000000e+00  1.9094990746688134e-05 1.5536632606263635e-06 0.0000000000000000e+00  2.6011039413148166e-05 2.1307057874961141e-06 0.0000000000000000e+00  3.4703387950853377e-05 2.8623999198399468e-06 0.0000000000000000e+00  4.5974021761631773e-05 3.8123770364946692e-06 0.0000000000000000e+00  6.1032201286725495e-05 5.0637083495650498e-06 0.0000000000000000e+00  8.1782341048893049e-05 6.7119064342232791e-06 0.0000000000000000e+00  1.1135809334198086e-04 8.8166610722739652e-06 0.0000000000000000e+00  1.5514051986411314e-04 1.1205218749540480e-05 0.0000000000000000e+00  2.2267930118923145e-04 1.2771658996214516e-05 0.0000000000000000e+00  3.3086350433265488e-04 9.1808910347371829e-06 0.0000000000000000e+00  5.0599187872514908e-04 -1.3511397287121019e-05 0.0000000000000000e+00  7.6744539452840361e-04 -8.8133780107742759e-05 0.0000000000000000e+00  1.0561825503910625e-03 -2.3791690935924772e-04 0.0000000000000000e+00  0.0000000000000000e+00 0.0000000000000000e+00 0.0000000000000000e+00  0.0000000000000000e+00 0.0000000000000000e+00 0.0000000000000000e+00  0.0000000000000000e+00 0.0000000000000000e+00 0.0000000000000000e+00  0.0000000000000000e+00 0.0000000000000000e+00 0.0000000000000000e+00  0.0000000000000000e+00 0.0000000000000000e+00 0.0000000000000000e+00  0.0000000000000000e+00 0.0000000000000000e+00 0.0000000000000000e+00  0.0000000000000000e+00 0.0000000000000000e+00 0.0000000000000000e+00  0.0000000000000000e+00 0.0000000000000000e+00 0.0000000000000000e+00  0.0000000000000000e+00 0.0000000000000000e+00 0.0000000000000000e+00  0.0000000000000000e+00 0.0000000000000000e+00 0.0000000000000000e+00  0.0000000000000000e+00 0.0000000000000000e+00 0.0000000000000000e+00  0.0000000000000000e+00 0.0000000000000000e+00 0.0000000000000000e+00  0.0000