<?xml version="1.0"?>
<VTKFile type="UnstructuredGrid"  version="0.1"  >
<UnstructuredGrid>
<Piece  NumberOfPoints="289" NumberOfCells="512">
<Points>
<DataArray  type="Float64"  NumberOfComponents="3"  format="ascii">0 0 0  0.0625 0 0  0.125 0 0  0.1875 0 0  0.25 0 0  0.3125 0 0  0.375 0 0  0.4375 0 0  0.5 0 0  0.5625 0 0  0.625 0 0  0.6875 0 0  0.75 0 0  0.8125 0 0  0.875 0 0  0.9375 0 0  1 0 0  0 0.0625 0  0.06253787961001553 0.06249792781301846 0  0.1250773256385118 0.0624958139004825 0  0.1876199795840995 0.06249361891773705 0  0.2501676405544574 0.06249130873039393 0  0.3127223604923167 0.06248885753117716 0  0.3752865644214586 0.06248625128646671 0  0.4378632168782338 0.06248349099141497 0  0.5004560780595636 0.06248059429548243 0  0.5630701475243576 0.06247759215933736 0  0.6257125317253823 0.0624745128600009 0  0.688394345752656 0.06247133404092237 0  0.7511353408998349 0.06246784652256449 0  0.8139763143924241 0.06246323808225145 0  0.8770156785506629 0.06245465847338635 0  0.9405280850957055 0.06243165161620878 0  1.005395810055861 0.0623519809071463 0  0 0.125 0  0.06257421214008171 0.1249958939226963 0  0.1251514861899705 0.1249917015834378 0  0.1877350295157733 0.1249873412480636 0  0.2503283540510843 0.1249827412203195 0  0.3129354573943889 0.1249778461681253 0  0.3755610457169644 0.1249726245899138 0  0.4382108290329148 0.124967076836724 0  0.5008919458446663 0.1249612417684334 0  0.5636136323746906 0.1249551977226727 0  0.6263883805477819 0.1249490495440653 0  0.6892341118146381 0.1249428883992065 0  0.7521784845723031 0.1249367120933163 0  0.8152674982015439 0.1249303456943621 0  0.8785812989142162 0.1249237529484675 0  0.9422530594898851 0.1249200835141479 0  1.00642416169218 0.12494419336184 0  0 0.1875 0  0.06260750481242386 0.1874939430034777 0  0.1252194248614496 0.1874877501369793 0  0.1878403818135665 0.18748129164179 0  0.2504754281102265 0.1874744516107295 0  0.3131302977199966 0.1874671374452415 0  0.3758117044897847 0.1874592919975494 0  0.4385277144497306 0.1874509084022267 0  0.5012882317422745 0.1874420462555242 0  0.564105660745422 0.1874328453383971 0  0.6269958412163696 0.187423529056343 0  0.6899793823242163 0.1874143841141944 0  0.7530834431643816 0.1874056963662298 0  0.8163433994242811 0.1873976121857241 0  0.8798012513009092 0.1873898235668034 0  0.9434890254385506 0.1873803761863885 0  1.007364289747419 0.1873586390740671 0  0 0.25 0  0.06263640760677833 0.2499921247899019 0  0.1252783797969981 0.2499840573418004 0  0.1879317363543687 0.249975612076809 0  0.2506028280471849 0.2499666190763148 0  0.3132988401013143 0.2499569360448747 0  0.3760281427669541 0.2499464652191672 0  0.4388007056471398 0.2499351765283295 0  0.5016285888097685 0.2499231373915404 0  0.5645265083436256 0.2499105474366717 0  0.6275124259181873 0.2498977722927765 0  0.690607976601141 0.2498853633298121 0  0.7538381918615156 0.2498740383144221 0  0.817229092459952 0.2498645788413592 0  0.8807997781697821 0.2498575708948814 0  0.944542288616342 0.2498529177961354 0  1.008380666496762 0.2498496978199458 0  0 0.3125 0  0.06265977404577894 0.3124904957214363 0  0.1253260085201907 0.3124807354430006 0  0.1880054542137173 0.3124704687471664 0  0.2507054650788206 0.3124594593664441 0  0.3134343398954057 0.3124474980847028 0  0.3762017114255934 0.3124344232272486 0  0.4390189942330658 0.312420152003258 0  0.5018998893937364 0.3124047260619756 0  0.5648609104210425 0.3123883737218323 0  0.627921814723637 0.3123715881172062 0  0.691105650029933 0.3123552127459379 0  0.7544377719662131 0.3123405104452633 0  0.8179425527404737 0.312329166462757 0  0.8816355900395253 0.3123231491589724 0  0.9455086758094474 0.3123243753299809 0  1.009507119036362 0.3123343654808745 0  0 0.375 0  0.06267670963516332 0.3749891195248389 0  0.1253604863225267 0.374977912913578 0  0.1880587079924268 0.3749660563173951 0  0.2507793981622488 0.3749532337987866 0  0.3135315925182965 0.3749391483690455 0  0.3763257585896184 0.3749235429383452 0  0.4391742835974099 0.3749062367821721 0  0.5020920353485775 0.3748871849697872 0  0.5650969730134602 0.3748665698299914 0  0.6282107191391593 0.3748449333939228 0  0.6914588680126831 0.3748233543061 0  0.7548705539072821 0.374803654975723 0  0.8184764106372413 0.374788583506139 0  0.8823036242525812 0.3747818374246784 0  0.946366791898 0.3747876779018642 0  1.010654864461915 0.374809721646336 0  0 0.4375 0  0.06268660675531507 0.4374880661467195 0  0.1253805771895774 0.4374757329203068 0  0.1880895904063548 0.4374625973211761 0  0.2508219805805085 0.437448252217975 0  0.3135871127429264 0.4374322914587718 0  0.3763958212071682 0.4374143258389395 0  0.4392609380459361 0.4373940176153481 0  0.5021979421778117 0.4373711454759611 0  0.5652257574364976 0.4373457176596131 0  0.6283677103418055 0.4373181574116274 0  0.6916526051062545 0.4372895884978655 0  0.7551157508405462 0.4372622387745618 0  0.8187995411303316 0.4372399333657964 0  0.8827528213271839 0.4372285228921513 0  0.9470278805990632 0.4372358331327446 0  1.011673783262431 0.4372703358261509 0  0 0.5 0  0.06268916513067428 0.4999874084515863 0  0.125385676131928 0.4999743471216629 0  0.1880971815291785 0.4999603341191569 0  0.2508319574902312 0.4999448654212714 0  0.3135992714792268 0.4999274091730324 0  0.3764098156432204 0.4999074091556871 0  0.4392762518270427 0.4998843058739582 0  0.5022139321413309 0.4998575903191342 0  0.5652418945315646 0.4998269164347624 0  0.6283842860238011 0.4997923152588665 0  0.6916724353458455 0.4997545765181625 0  0.7551478565470141 0.4997158844486433 0  0.8188664299964113 0.4996807836646964 0  0.8829036670282212 0.4996574248062058 0  0.9473599550588554 0.4996586237864349 0  1.012362717217419 0.4997013253420332 0  0 0.5625 0  0.06268439665128113 0.5624872163003729 0  0.1253758201626645 0.5624739037688359 0  0.1880815697419922 0.5624595111567308 0  0.2508095061360247 0.5624434425129012 0  0.3135683762847243 0.5624250360214013 0  0.3763682036345838 0.5624035466822535 0  0.439220793300315 0.5623781393952945 0  0.5021404395856791 0.5623479066606122 0  0.5651449960358953 0.5623119399944625 0  0.6282576011444448 0.5622695122339736 0  0.6915095817641429 0.562220478294871 0  0.754945407937413 0.562166084126307 0  0.8186309895564013 0.5621104800802782 0  0.8826667379623101 0.5620632784426659 0  0.9472056470383547 0.5620431421313004 0  1.012472382875761 0.5620808101596334 0  0 0.625 0  0.06267261320953575 0.6249875480761995 0  0.1253516640808933 0.6249745299962135 0  0.1880438171182314 0.6249603466204169 0  0.2507561978727105 0.6249443302739796 0  0.3134966509289642 0.6249257053624574 0  0.3762740417706167 0.6249035438066286 0  0.4390986427464603 0.6248767163623952 0  0.5019826851519879 0.6248438464849912 0  0.564941249475834 0.6248032868949195 0  0.6279938557194595 0.624753170416099 0  0.6911675032997043 0.6246916576490888 0  0.754502658713188 0.6246176587203015 0  0.8180649905137118 0.6245326211977189 0  0.8819674253517474 0.6244445212349076 0  0.946407898090262 0.6243757205080124 0  1.011722901590976 0.6243750119238504 0  0 0.6875 0  0.06265439722448317 0.6874884404153913 0  0.1253144189837878 0.6874763096960786 0  0.1879858616658838 0.6874629951507436 0  0.2506748605937218 0.6874477955084988 0  0.3133880614840801 0.6874298643113681 0  0.3761327967677813 0.6874081369851044 0  0.4389172779259913 0.687381233979075 0  0.5017508386373394 0.6873473317995061 0  0.564644328638224 0.687303996917249 0  0.6276109287876829 0.6872479933058888 0  0.6906680896171782 0.6871751284246258 0  0.7538423519755917 0.687080367883353 0  0.8171812646602358 0.6869589288693928 0  0.880781776743585 0.6868103782632864 0  0.9448528472251245 0.6866509195493335 0  1.009833011016693 0.6865435590254579 0  0 0.75 0  0.0626305569661062 0.7499898977097664 0  0.1252657569581281 0.7499792602451072 0  0.1879103588387098 0.7499675067706212 0  0.2505693367824439 0.7499539574042411 0  0.3132479623043308 0.7499377654252357 0  0.3759518453283255 0.7499178232495656 0  0.4386869028780939 0.7498926252836036 0  0.5014592079693027 0.7498600614242099 0  0.5642746591467681 0.7498171001505585 0  0.6271384387055743 0.7497592986289416 0  0.6900544259474448 0.7496800539955563 0  0.7530255399352956 0.7495695227420601 0  0.8160587974080987 0.7494133741608805 0  0.8791878030716618 0.7491928874897857 0  0.9425504883881053 0.7488942473089453 0  1.006604647203218 0.7485614045083638 0  0 0.8125 0  0.06260207210696354 0.8124918836218262 0  0.1252076934956389 0.8124833130381856 0  0.1878204810933615 0.8124737907005594 0  0.2504441638234405 0.8124627238950556 0  0.3130825937329025 0.8124493565618951 0  0.3757396819265991 0.8124326703056319 0  0.438419190177995 0.8124112320270903 0  0.5011242484081795 0.8123829493303502 0  0.5638563533236364 0.8123446639715871 0  0.6266133923894669 0.8122914530831612 0  0.689385881821917 0.8122153837716891 0  0.7521501698735776 0.812103198655092 0  0.814857679375833 0.8119318105158975 0  0.8774253678939341 0.8116592308646617 0  0.9397708949919803 0.8112075278193835 0  1.00214964605449 0.8104556016719099 0  0 0.875 0  0.06257003774762794 0.8749943170705512 0  0.1251424665255985 0.8749883034947454 0  0.1877197105357525 0.8749815946754337 0  0.2503042378912165 0.874973750886644 0  0.3128985359625702 0.8749642018910638 0  0.3755050066294321 0.8749521643330124 0  0.4381257019667347 0.8749365107588497 0  0.5007617399452113 0.8749155524782385 0  0.5634120658669134 0.8748866657504208 0  0.6260708403271381 0.8748456239913023 0  0.6887218533314962 0.8747853543136781 0  0.7513262832027796 0.87469349455627 0  0.8137951123819952 0.8745471897837246 0  0.8759257816817761 0.8743004278340044 0  0.9372607260385384 0.8738459458421628 0  0.9968485529387543 0.872858555839291 0  0 0.9375 0  0.0625356158027628 0.9374970746302186 0  0.1250724332399151 0.9374939752060263 0  0.1876116665411652 0.9374905090804664 0  0.2501545415768836 0.9374864422956719 0  0.3127022726734652 0.937481468690351 0  0.3752559889572426 0.9374751632346324 0  0.4378165583411147 0.9374669071108228 0 
[...]
<PointData  Vectors="f_54"> 
<DataArray  type="Float64"  Name="f_54"  NumberOfComponents="3" format="ascii">0.0000000000000000e+00 0.0000000000000000e+00 0.0000000000000000e+00  0.0000000000000000e+00 0.0000000000000000e+00 0.0000000000000000e+00  0.0000000000000000e+00 0.0000000000000000e+00 0.0000000000000000e+00  0.0000000000000000e+00 0.0000000000000000e+00 0.0000000000000000e+00  0.0000000000000000e+00 0.0000000000000000e+00 0.0000000000000000e+00  0.0000000000000000e+00 0.0000000000000000e+00 0.0000000000000000e+00  0.0000000000000000e+00 0.0000000000000000e+00 0.0000000000000000e+00  0.0000000000000000e+00 0.0000000000000000e+00 0.0000000000000000e+00  0.0000000000000000e+00 0.0000000000000000e+00 0.0000000000000000e+00  0.0000000000000000e+00 0.0000000000000000e+00 0.0000000000000000e+00  0.0000000000000000e+00 0.0000000000000000e+00 0.0000000000000000e+00  0.0000000000000000e+00 0.0000000000000000e+00 0.0000000000000000e+00  0.0000000000000000e+00 0.0000000000000000e+00 0.0000000000000000e+00  0.0000000000000000e+00 0.0000000000000000e+00 0.0000000000000000e+00  0.0000000000000000e+00 0.0000000000000000e+00 0.0000000000000000e+00  0.0000000000000000e+00 0.0000000000000000e+00 0.0000000000000000e+00  0.0000000000000000e+00 0.0000000000000000e+00 0.0000000000000000e+00  0.0000000000000000e+00 0.0000000000000000e+00 0.0000000000000000e+00  -4.1899832955640034e-06 -4.9137350419311164e-08 0.0000000000000000e+00  -8.4934489463392665e-06 -9.7464832682909003e-08 0.0000000000000000e+00  -1.3022489102722744e-05 -1.4384674982600098e-07 0.0000000000000000e+00  -1.7885074706882735e-05 -1.8646357137060328e-07 0.0000000000000000e+00  -2.3181295869227464e-05 -2.2241388235426501e-07 0.0000000000000000e+00  -2.8997449663403355e-05 -2.4726711269504000e-07 0.0000000000000000e+00  -3.5397156781625924e-05 -2.5458704839671221e-07 0.0000000000000000e+00  -4.2408725249175702e-05 -2.3548690231305637e-07 0.0000000000000000e+00  -5.0008275048842886e-05 -1.7832574715222015e-07 0.0000000000000000e+00  -5.8099146428377115e-05 -6.8661535283151604e-08 0.0000000000000000e+00  -6.6491211694552835e-05 1.1068251377574831e-07 0.0000000000000000e+00  -7.4893561364107301e-05 3.8095227939346368e-07 0.0000000000000000e+00  -8.2967840293526499e-05 7.7748342729627750e-07 0.0000000000000000e+00  -9.0615279253601307e-05 1.3992243665420176e-06 0.0000000000000000e+00  -9.9184620844647276e-05 2.6292857491638058e-06 0.0000000000000000e+00  -1.1680183149277263e-04 6.1642211769433007e-06 0.0000000000000000e+00  0.0000000000000000e+00 0.0000000000000000e+00 0.0000000000000000e+00  -8.2713261823128078e-06 -9.9138815513237263e-08 0.0000000000000000e+00  -1.6772002462832003e-05 -1.9698653989387089e-07 0.0000000000000000e+00  -2.5729293280213456e-05 -2.9162260155054868e-07 0.0000000000000000e+00  -3.5363715188448137e-05 -3.7979634906584166e-07 0.0000000000000000e+00  -4.5882331169856883e-05 -4.5613090413732124e-07 0.0000000000000000e+00  -5.7467763467707115e-05 -5.1219960365522200e-07 0.0000000000000000e+00  -7.0261172570194134e-05 -5.3549815539230953e-07 0.0000000000000000e+00  -8.4337325602280546e-05 -5.0842439352400004e-07 0.0000000000000000e+00  -9.9669971866019055e-05 -4.0752922647997376e-07 0.0000000000000000e+00  -1.1608630235436764e-04 -2.0354027807000276e-07 0.0000000000000000e+00  -1.3321057968355670e-04 1.3698355834006032e-07 0.0000000000000000e+00  -1.5039882087046678e-04 6.4686216644142305e-07 0.0000000000000000e+00  -1.6666415807923426e-04 1.3467198723802369e-06 0.0000000000000000e+00  -1.8055669681501572e-04 2.2118921991351874e-06 0.0000000000000000e+00  -1.8972618362565990e-04 3.0408563089132488e-06 0.0000000000000000e+00  -1.8853374568505760e-04 2.7984408593125609e-06 0.0000000000000000e+00  0.0000000000000000e+00 0.0000000000000000e+00 0.0000000000000000e+00  -1.2127755746821450e-05 -1.5047757166574083e-07 0.0000000000000000e+00  -2.4604131110697132e-05 -2.9981932969981825e-07 0.0000000000000000e+00  -3.7776264665528458e-05 -4.4600968567763136e-07 0.0000000000000000e+00  -5.1984753064027318e-05 -5.8515353374846523e-07 0.0000000000000000e+00  -6.7555608806614591e-05 -7.1030040993489779e-07 0.0000000000000000e+00  -8.4785966348756246e-05 -8.1001155417808948e-07 0.0000000000000000e+00  -1.0392074888852306e-04 -8.6665272195280038e-07 0.0000000000000000e+00  -1.2511702911518601e-04 -8.5451085684090702e-07 0.0000000000000000e+00  -1.4839238927404037e-04 -7.3806676062762366e-07 0.0000000000000000e+00  -1.7355324900231989e-04 -4.7120575706946793e-07 0.0000000000000000e+00  -2.0009854609875712e-04 1.0087964982975568e-09 0.0000000000000000e+00  -2.2709154566438053e-04 7.3478190379559702e-07 0.0000000000000000e+00  -2.5298163238045762e-04 1.7679438350359664e-06 0.0000000000000000e+00  -2.7532086712120780e-04 3.0762353007076647e-06 0.0000000000000000e+00  -2.9022221235854023e-04 4.4892584277729968e-06 0.0000000000000000e+00  -2.9128772853547201e-04 5.6065541281427982e-06 0.0000000000000000e+00  0.0000000000000000e+00 0.0000000000000000e+00 0.0000000000000000e+00  -1.5639654110052263e-05 -2.0298904275258932e-07 0.0000000000000000e+00  -3.1750244187647214e-05 -4.0588870944227451e-07 0.0000000000000000e+00  -4.8803653347159333e-05 -6.0757381134236583e-07 0.0000000000000000e+00  -6.7269449945014579e-05 -8.0467140729796114e-07 0.0000000000000000e+00  -8.7607908015763778e-05 -9.9006822069464936e-07 0.0000000000000000e+00  -1.1025520851421515e-04 -1.1509740893682789e-06 0.0000000000000000e+00  -1.3559699601122061e-04 -1.2664179971603156e-06 0.0000000000000000e+00  -1.6392548905659818e-04 -1.3041387500205178e-06 0.0000000000000000e+00  -1.9537425935125524e-04 -1.2170540104145023e-06 0.0000000000000000e+00  -2.2982372322758235e-04 -9.3998887002903869e-07 0.0000000000000000e+00  -2.6676937563962176e-04 -3.8836251573400443e-07 0.0000000000000000e+00  -3.0514359719287752e-04 5.3755098825954384e-07 0.0000000000000000e+00  -3.4307995105245851e-04 1.9359274011388924e-06 0.0000000000000000e+00  -3.7760819259565533e-04 3.8630201680390097e-06 0.0000000000000000e+00  -4.0428948802416031e-04 6.2556360798243037e-06 0.0000000000000000e+00  -4.1694607485350920e-04 8.8128686503232476e-06 0.0000000000000000e+00  0.0000000000000000e+00 0.0000000000000000e+00 0.0000000000000000e+00  -1.8684496179138035e-05 -2.5561898596356576e-07 0.0000000000000000e+00  -3.7963009792906404e-05 -5.1324643355817840e-07 0.0000000000000000e+00  -5.8435124304734080e-05 -7.7384193704360958e-07 0.0000000000000000e+00  -8.0707238188862011e-05 -1.0360385329724804e-06 0.0000000000000000e+00  -1.0538974614995877e-04 -1.2944741102144071e-06 0.0000000000000000e+00  -1.3308557720247764e-04 -1.5374615486153510e-06 0.0000000000000000e+00  -1.6436537324441593e-04 -1.7437023315888319e-06 0.0000000000000000e+00  -1.9972297445926566e-04 -1.8777273327893257e-06 0.0000000000000000e+00  -2.3950292780251925e-04 -1.8838182341577503e-06 0.0000000000000000e+00  -2.8378973299337721e-04 -1.6784731830105671e-06 0.0000000000000000e+00  -3.3224717353461943e-04 -1.1423293772516670e-06 0.0000000000000000e+00  -3.8389690046975632e-04 -1.1437436293782427e-07 0.0000000000000000e+00  -4.3683204442749159e-04 1.6049495004874085e-06 0.0000000000000000e+00  -4.8788287321432894e-04 4.2287677795635956e-06 0.0000000000000000e+00  -5.3230876582891688e-04 7.9152069388239238e-06 0.0000000000000000e+00  -5.6372498620847050e-04 1.2624443355987107e-05 0.0000000000000000e+00  0.0000000000000000e+00 0.0000000000000000e+00 0.0000000000000000e+00  -2.1139205578399558e-05 -3.0626658899198057e-07 0.0000000000000000e+00  -4.2991676207947827e-05 -6.1770743430185480e-07 0.0000000000000000e+00  -6.6283168069116772e-05 -9.3862501561953822e-07 0.0000000000000000e+00  -9.1760648803084936e-05 -1.2713190420598491e-06 0.0000000000000000e+00  -1.2019721682050460e-04 -1.6144859158434019e-06 0.0000000000000000e+00  -1.5238871630872096e-04 -1.9607756668919803e-06 0.0000000000000000e+00  -1.8913680642880163e-04 -2.2930107354231776e-06 0.0000000000000000e+00  -2.3121084552748812e-04 -2.5783711281348960e-06 0.0000000000000000e+00  -2.7927776674101625e-04 -2.7596148704484194e-06 0.0000000000000000e+00  -3.3378539335260311e-04 -2.7422283299935061e-06 0.0000000000000000e+00  -3.9478133177300179e-04 -2.3765727018868437e-06 0.0000000000000000e+00  -4.6164921367785136e-04 -1.4353026687113510e-06 0.0000000000000000e+00  -5.3275215651586998e-04 4.0997901071365271e-07 0.0000000000000000e+00  -6.0500008764091705e-04 3.6002447046816038e-06 0.0000000000000000e+00  -6.7341739203479194e-04 8.6598083170659585e-06 0.0000000000000000e+00  -7.3088669321115757e-04 1.6074217993139537e-05 0.0000000000000000e+00  0.0000000000000000e+00 0.0000000000000000e+00 0.0000000000000000e+00  -2.2884799387763981e-05 -3.5177099556963261e-07 0.0000000000000000e+00  -4.6591235612019805e-05 -7.1277508057525131e-07 0.0000000000000000e+00  -7.1962426168191990e-05 -1.0917694490889987e-06 0.0000000000000000e+00  -9.9881966341201206e-05 -1.4963148846257138e-06 0.0000000000000000e+00  -1.3129025018557844e-04 -1.9315881593469881e-06 0.0000000000000000e+00  -1.6719444117212868e-04 -2.3983042160849587e-06 0.0000000000000000e+00  -2.0866702047519549e-04 -2.8891010923933927e-06 0.0000000000000000e+00  -2.5682464646021203e-04 -3.3823334687857053e-06 0.0000000000000000e+00  -3.1277431528744788e-04 -3.8315726689104167e-06 0.0000000000000000e+00  -3.7750731279112277e-04 -4.1481561651879037e-06 0.0000000000000000e+00  -4.5171369722220029e-04 -4.1729301538646054e-06 0.0000000000000000e+00  -5.3548346176777865e-04 -3.6324181271191559e-06 0.0000000000000000e+00  -6.2786148281201992e-04 -2.0758576610403894e-06 0.0000000000000000e+00  -7.2624437883727277e-04 1.2024483757994953e-06 0.0000000000000000e+00  -8.2566471483413637e-04 7.2270575150910213e-06 0.0000000000000000e+00  -9.1810220596081282e-04 1.7311520161911076e-05 0.0000000000000000e+00  0.0000000000000000e+00 0.0000000000000000e+00 0.0000000000000000e+00  -2.3813430073354944e-05 -3.8808800430144959e-07 0.0000000000000000e+00  -4.8536757278959257e-05 -7.8996540179756116e-07 0.0000000000000000e+00  -7.5111719181221323e-05 -1.2195497204500757e-06 0.0000000000000000e+00  -1.0454327409850411e-04 -1.6908476605141571e-06 0.0000000000000000e+00  -1.3793046777491557e-04 -2.2175768889614749e-06 0.0000000000000000e+00  -1.7649489043892582e-04 -2.8120818146676390e-06 0.0000000000000000e+00  -2.2160294402929516e-04 -3.4828986060855732e-06 0.0000000000000000e+00  -2.7477445860446081e-04 -4.2297755499011396e-06 0.0000000000000000e+00  -3.3766400946473395e-04 -5.0339403819284074e-06 0.0000000000000000e+00  -4.1199141485818535e-04 -5.8395773648405104e-06 0.0000000000000000e+00  -4.9938332189631955e-04 -6.5193309922210749e-06 0.0000000000000000e+00  -6.0106906510621803e-04 -6.8117516955416424e-06 0.0000000000000000e+00  -7.1735668072855896e-04 -6.2126077670034673e-06 0.0000000000000000e+00  -8.4681595678521920e-04 -3.7999234174536755e-06 0.0000000000000000e+00  -9.8514785784537288e-04 2.0089585410837563e-06 0.0000000000000000e+00  -1.1238540572975383e-03 1.3695094018793397e-05 0.0000000000000000e+00  0.0000000000000000e+00 0.0000000000000000e+00 0.0000000000000000e+00  -2.3837565476616164e-05 -4.1068516583804145e-07 0.0000000000000000e+00  -4.8642470369050309e-05 -8.3960771201495129e-07 0.0000000000000000e+00  -7.5424429320490604e-05 -1.3058787023051346e-06 0.0000000000000000e+00  -1.0528005734438251e-04 -1.8303320435151758e-06 0.0000000000000000e+00  -1.3944008472867848e-04 -2.4363016071367546e-06 0.0000000000000000e+00  -1.7932017365818753e-04 -3.1501567374113548e-06 0.0000000000000000e+00  -2.2657437960432524e-04 -4.0011977617862183e-06 0.0000000000000000e+00  -2.8314697506694035e-04 -5.0200128431087195e-06 0.0000000000000000e+00  -3.5131177087685940e-04 -6.2333312590626653e-06 0.0000000000000000e+00  -4.3367567076717212e-04 -7.6511397042742315e-06 0.0000000000000000e+00  -5.3310115672665186e-04 -9.2370521977922259e-06 0.0000000000000000e+00  -6.5246636042877405e-04 -1.0843178703567741e-05 0.0000000000000000e+00  -7.9413054536436986e-04 -1.2072279675719640e-05 0.0000000000000000e+00  -9.5892332479546958e-04 -1.2000730844131760e-05 0.0000000000000000e+00  -1.1444909544392637e-03 -8.6701581764425691e-06 0.0000000000000000e+00  -1.3430526978791993e-03 1.6943074792034105e-06 0.0000000000000000e+00  0.0000000000000000e+00 0.0000000000000000e+00 0.0000000000000000e+00  -2.2900586598787551e-05 -4.1514441370342689e-07 0.0000000000000000e+00  -4.6784204614037727e-05 -8.5211678116301854e-07 0.0000000000000000e+00  -7.2685320947990880e-05 -1.3343807941309393e-06 0.0000000000000000e+00  -1.0174628291062689e-04 -1.8888324160896958e-06 0.0000000000000000e+00  -1.3528039096961936e-04 -2.5478918010722295e-06 0.0000000000000000e+00  -1.7484617853591789e-04 -3.3520417016891708e-06 0.0000000000000000e+00  -2.2233643677004803e-04 -4.3529117324158407e-06 0.0000000000000000e+00  -2.8008398366681129e-04 -5.6168343311693552e-06 0.0000000000000000e+00  -3.5098156173308653e-04 -7.2282636406764678e-06 0.0000000000000000e+00  -4.3860178431266321e-04 -9.2909191950021122e-06 0.0000000000000000e+00  -5.4727740975476374e-04 -1.1920283231726088e-05 0.0000000000000000e+00  -6.8204944027264289e-04 -1.5209642239262853e-05 0.0000000000000000e+00  -8.4829190075267865e-04 -1.9122075025718949e-05 0.0000000000000000e+00  -1.0506664052546107e-03 -2.3188960117597773e-05 0.0000000000000000e+00  -1.2909076414961277e-03 -2.5751603424725766e-05 0.0000000000000000e+00  -1.5641006465296719e-03 -2.2328448595397530e-05 0.0000000000000000e+00  0.0000000000000000e+00 0.0000000000000000e+00 0.0000000000000000e+00  -2.0987575772476545e-05 -3.9790576413983702e-07 0.0000000000000000e+00  -4.2922682941129728e-05 -8.1960609602704199e-07 0.0000000000000000e+00  -6.6809961298070947e-05 -1.2911464339965205e-06 0.0000000000000000e+00  -9.3775858716951634e-05 -1.8434165586802587e-06 0.0000000000000000e+00  -1.2514392463229177e-04 -2.5154109463027869e-06 0.0000000000000000e+00  -1.6252924047965262e-04 -3.3586635312268770e-06 0.0000000000000000e+00  -2.0796121728828776e-04 -4.4435685655016674e-06 0.0000000000000000e+00  -2.6404595908937598e-04 -5.8686641065147566e-06 0.0000000000000000e+00  -3.3418023549979735e-04 -7.7745217060930775e-06 0.0000000000000000e+00  -4.2282525393185925e-04 -1.0364620346487322e-05 0.0000000000000000e+00  -5.3583076858188970e-04 -1.3935857275423158e-05 0.0000000000000000e+00  -6.8074693441667682e-04 -1.8917858700200696e-05 0.0000000000000000e+00  -8.6692495931766213e-04 -2.5899169928711067e-05 0.0000000000000000e+00  -1.1048981579074716e-03 -3.5528683573988059e-05 0.0000000000000000e+00  -1.4039668875729448e-03 -4.7861561687157209e-05 0.0000000000000000e+00  -1.7664999471211592e-03 -5.9883514508536039e-05 0.0000000000000000e+00  0.0000000000000000e+00 0.0000000000000000e+00 0.0000000000000000e+00  -1.8134610573970621e-05 -3.5702763195445996e-07 0.0000000000000000e+00  -3.7124096014902022e-05 -7.3757327868042145e-07 0.0000000000000000e+00  -5.7880906904794712e-05 -1.1677141086027533e-06 0.0000000000000000e+00  -8.1441896062907286e-05 -1.6791102328429244e-06 0.0000000000000000e+00  -1.0904866918638747e-04 -2.3129470774953613e-06 0.0000000000000000e+00  -1.4225326339414532e-04 -3.1255598616941589e-06 0.0000000000000000e+00  -1.8306390324911818e-04 -4.1969138849190371e-06 0.0000000000000000e+00  -2.3415222943882073e-04 -5.6439465907092725e-06 0.0000000000000000e+00  -2.9915294227936777e-04 -7.6424336099382526e-06 0.0000000000000000e+00  -3.8309873208289654e-04 -1.0464496758218045e-05 0.0000000000000000e+00  -4.9304283815132662e-04 -1.4546316649523692e-05 0.0000000000000000e+00  -6.3890924877984655e-04 -2.0616388325178102e-05 0.0000000000000000e+00  -8.3451208766546997e-04 -2.9943617059253874e-05 0.0000000000000000e+00  -1.0983029928822825e-03 -4.4786208802342415e-05 0.0000000000000000e+00  -1.4521826838998723e-03 -6.8899903593535558e-05 0.0000000000000000e+00  -1.9139743779343786e-03 -1.0573925788311257e-04 0.0000000000000000e+00  0.0000000000000000e+00 0.0000000000000000e+00 0.0000000000000000e+00  -1.4434615489441156e-05 -2.9280097624963275e-07 0.0000000000000000e+00  -2.9573690911825554e-05 -6.0628994457323809e-07 0.0000000000000000e+00  -4.6173285196293088e-05 -9.6360990934023474e-07 0.0000000000000000e+00  -6.5102046893102358e-05 -1.3932983269719821e-06 0.0000000000000000e+00  -8.7416464263094905e-05 -1.9331829578373500e-06 0.0000000000000000e+00  -1.1446348284188647e-04 -2.6360406281759027e-06 0.0000000000000000e+00  -1.4802841687453758e-04 -3.5782600791163614e-06 0.0000000000000000e+00  -1.9055678510879889e-04 -4.8736266266521824e-06 0.0000000000000000e+00  -2.4549714325071133e-04 -6.6961156429831468e-06 0.0000000000000000e+00  -3.1784347509123924e-04 -9.3195412715978653e-06 0.0000000000000000e+00  -4.1500826154903896e-04 -1.3191951011110153e-05 0.0000000000000000e+00  -5.4823921012646783e-04 -1.9091270173417527e-05 0.0000000000000000e+00  -7.3489258865698851e-04 -2.8497206815887988e-05 0.0000000000000000e+00  -1.0018542631830289e-03 -4.4601146441595079e-05 0.0000000000000000e+00  -1.3893455037549229e-03 -7.5336324289151777e-05 0.0000000000000000e+00  -1.9453828370916582e-03 -1.4334044625980262e-04 0.0000000000000000e+00  0.0000000000000000e+00 0.0000000000000000e+00 0.0000000000000000e+00  -1.0037919878400245e-05 -2.0805752744390503e-07 0.0000000000000000e+00  -2.0578169916314998e-05 -4.3152522990044431e-07 0.0000000000000000e+00  -3.2162086937842221e-05 -6.8773820255084626e-07 0.0000000000000000e+00  -4.5416718126121699e-05 -9.9827462651208129e-07 0.0000000000000000e+00  -6.1113539497289910e-05 -1.3920410053152605e-06 0.0000000000000000e+00  -8.0250631235473748e-05 -1.9097521566359727e-06 0.0000000000000000e+00  -1.0417490604562893e-04 -2.6107089963722069e-06 0.0000000000000000e+00  -1.3477253028956092e-04 -3.5832338894422044e-06 0.0000000000000000e+00  -1.7477738035675473e-04 -4.9607453122505928e-06 0.0000000000000000e+00  -2.2828917027829310e-04 -6.9461462619000922e-06 0.0000000000000000e+00  -3.0167603517337166e-04 -9.8478110349367930e-06 0.0000000000000000e+00  -4.0520939416111896e-04 -1.4132335850549605e-05 0.0000000000000000e+00  -5.5616644264469995e-04 -2.0517114709357491e-05 0.0000000000000000e+00  -7.8512430316107437e-04 -3.0256334871235125e-05 0.0000000000000000e+00  -1.1502710589244248e-03 -4.6533731118372525e-05 0.0000000000000000e+00  -1.7776346189952476e-03 -8.1779107162673528e-05 0.0000000000000000e+00  0.0000000000000000e+00 0.0000000000000000e+00 0.0000000000000000e+00  -5.1462550476232903e-06 -1.0806581462282920e-07 0.0000000000000000e+00  -1.0553864056869376e-05 -2.2435216560844535e-07 0.0000000000000000e+00  -1.6505168016365718e-05 -3.5813337864891587e-07 0.0000000000000000e+00  -2.3328815960228300e-05 -5.2100858913370944e-07 0.0000000000000000e+00  -3.1431962887531913e-05 -7.2859017148146245e-07 0.0000000000000000e+00  -4.1346033456963207e-05 -1.0029345551541929e-06 0.0000000000000000e+00  -5.3796081880991521e-05 -1.3761309575425612e-06 0.0000000000000000e+00  -6.9811310906043924e-05 -1.8955015824474506e-06 0.0000000000000000e+00  -9.0908982836585328e-05 -2.6304530664621338e-06 0.0000000000000000e+00  -1.1941309187524552e-04 -3.6786677004370713e-06 0.0000000000000000e+00  -1.5902739419460581e-04 -5.1595045484040553e-06 0.0000000000000000e+00  -2.1589397702719969e-04 -7.1446546892590504e-06 0.0000000000000000e+00  -3.0054098095045565e-04 -9.3338224072308224e-06 0.0000000000000000e+00  -4.3111096889907139e-04 -9.7593786289578741e-06 0.0000000000000000e+00  -6.3611822892034652e-04 -3.0693118119386124e-08 0.0000000000000000e+00  -9.4027009840558749e-04 4.9282209274711526e-05 0.0000000000000000e+00  0.0000000000000000e+00 0.0000000000000000e+00 0.0000000000000000e+00  0.0000000000000000e+00 0.0000000000000000e+00 0.0000000000000000e+00  0.0000000000000000e+00 0.0000000000000000e+00 0.0000000000000000e+00  0.0000000000000000e+00 0.0000000000000000e+00 0.0000000000000000e+00  0.0000000000000000e+00 0.0000000000000000e+00 0.0000000000000000e+00  0.0000000000000000e+00 0.0000000000000000e+00 0.000000000000