<?xml version="1.0"?>
<VTKFile type="UnstructuredGrid"  version="0.1"  >
<UnstructuredGrid>
<Piece  NumberOfPoints="289" NumberOfCells="512">
<Points>
<DataArray  type="Float64"  NumberOfComponents="3"  format="ascii">0 0 0  0.0625 0 0  0.125 0 0  0.1875 0 0  0.25 0 0  0.3125 0 0  0.375 0 0  0.4375 0 0  0.5 0 0  0.5625 0 0  0.625 0 0  0.6875 0 0  0.75 0 0  0.8125 0 0  0.875 0 0  0.9375 0 0  1 0 0  0 0.0625 0  0.06249233229222999 0.06246099145622785 0  0.1249852068970543 0.06242129107975099 0  0.1874792217280921 0.06238025059370429 0  0.2499752474261153 0.06233736549477412 0  0.3124746115235942 0.06229236782348706 0  0.3749793549523528 0.06224534239345027 0  0.4374926088946582 0.06219686759494912 0  0.5000191758421606 0.06214817177359975 0  0.5625664774902155 0.06210127741693658 0  0.6251462164341327 0.06205907312536153 0  0.6877775588697372 0.06202520167219966 0  0.750493864448596 0.06200357487825763 0  0.8133583701654913 0.06199721646427013 0  0.8765038259997797 0.06200600523213941 0  0.9402377491754779 0.06202313432392785 0  1.005318417337541 0.06203805396256579 0  0 0.125 0  0.06248413423213438 0.1249226298440487 0  0.1249692443558014 0.1248438011148984 0  0.1874564162624518 0.124762135153177 0  0.2499472629123781 0.1246765238877475 0  0.3124442824484696 0.1245863101614887 0  0.3749513574672963 0.1244915211060475 0  0.4374744833384839 0.1243931625956377 0  0.5000228691715584 0.1242935662768271 0  0.5626106653631452 0.1241967479794733 0  0.6252597962296519 0.1241086778980234 0  0.6880048352083628 0.1240372698468728 0  0.7509017560531167 0.1239917756601352 0  0.8140438748967612 0.1239812021466431 0  0.8775894542062458 0.1240117246791935 0  0.9418001060555129 0.1240852003330951 0  1.007057815653085 0.1242071868933105 0  0 0.1875 0  0.06247507736746689 0.1873857070902714 0  0.1249513326012023 0.1872690546643244 0  0.1874300953525915 0.1871477843195307 0  0.2499134167575895 0.1870199981104773 0  0.3124045623712884 0.186884412107715 0  0.3749086987461666 0.1867407015257857 0  0.4374338826623422 0.1865899625368905 0  0.4999925124718952 0.1864353005981128 0  0.562603482289975 0.1862825187889254 0  0.6252954035926922 0.1861408045656528 0  0.6881114144152471 0.1860231706405688 0  0.7511161527114664 0.1859461428487898 0  0.814404859793303 0.1859276700656817 0  0.8781115356377884 0.1859809590210898 0  0.9424038838106831 0.186097808157477 0  1.007436738793435 0.186199759014626 0  0 0.25 0  0.06246506073982702 0.2498511461672944 0  0.1249311758067106 0.2496988574747155 0  0.1873995712272224 0.2495397972007317 0  0.2498722950895265 0.2493710183973457 0  0.3123527860482812 0.249190262146121 0  0.3748466695003379 0.2489963928171186 0  0.4373628982936097 0.248790024454868 0  0.4999153891726149 0.2485743900419066 0  0.5625253390025685 0.248356484146182 0  0.6252244062479966 0.24814844596646 0  0.6880588271403532 0.2479690008268245 0  0.7510940805527839 0.2478444654901723 0  0.8144184283483853 0.2478082070621963 0  0.8781407409284848 0.2478963152537124 0  0.9423732791006406 0.2481356363484523 0  1.007187840528846 0.2485211277848246 0  0 0.3125 0  0.06245427961626927 0.3123200379181775 0  0.1249091159531719 0.3121353814588492 0  0.1873652291651705 0.311941398098918 0  0.2498241447512833 0.3117337885479052 0  0.3122887667149658 0.3115088819335478 0  0.3747641980116487 0.3112641116652763 0  0.4372589328365997 0.3109987640086559 0  0.499786573100162 0.3107151154822123 0  0.5623682304858679 0.3104200937374378 0  0.6250357187725042 0.3101275866095291 0  0.6878354198151623 0.3098614338743854 0  0.7508321461556077 0.3096588625854159 0  0.8141112124378371 0.3095734945435549 0  0.8777753462336365 0.3096758627606995 0  0.9419325464923161 0.3100477128180494 0  1.006677020970457 0.3107654430679735 0  0 0.375 0  0.06244325059820025 0.374793647218194 0  0.1248861944746166 0.3745811884708086 0  0.1873286481680994 0.3743565030178892 0  0.2497710867374733 0.3741136394212287 0  0.3122151432781521 0.373847038821982 0  0.374664362375759 0.3735519653830273 0  0.4371253487013475 0.3732252733677345 0  0.4996094967017193 0.3728667019465118 0  0.5621355224524734 0.3724809724094782 0  0.6247330007919333 0.3720810572368625 0  0.6874469516449194 0.3716930499818689 0  0.7503430835542143 0.3713629593410522 0  0.8135124949804328 0.3711651998279655 0  0.8770737603629305 0.3712111253798825 0  0.9411709688723606 0.3716534273530682 0  1.005972379586017 0.3726795713719865 0  0 0.4375 0  0.06243278809183431 0.4372733777465061 0  0.124864110821229 0.4370391687919996 0  0.1872925527236974 0.4367896529974246 0  0.2497170787504408 0.4365169990925907 0  0.3121373759248667 0.4362133309648176 0  0.3745544348224621 0.4358709909624567 0  0.4369715350858829 0.4354831509163625 0  0.4993958873284114 0.435045022705353 0  0.5618413028837482 0.4345560842160254 0  0.6243323937893178 0.4340239858793029 0  0.6869108806553968 0.4334711353717463 0  0.7496444546637725 0.4329452671541359 0  0.8126380863388735 0.4325351986720291 0  0.8760467035143206 0.4323915599288372 0  0.9400879839406472 0.4327484974438409 0  1.005058929942826 0.4339374349839801 0  0 0.5 0  0.06242393196569445 0.4997606874430164 0  0.1248450765679108 0.4995123745994683 0  0.1872605922176086 0.4992457741404556 0  0.2496676231678283 0.4989511038363392 0  0.3120633970558441 0.498617908630316 0  0.3744455096933634 0.4982350157574463 0  0.4368125733537972 0.4977907595173209 0  0.4991655519634305 0.4972737375770335 0  0.5615103581734832 0.4966745927845506 0  0.6238626845001767 0.4959897342064258 0  0.6862565844002315 0.4952286325727497 0  0.7487588523939503 0.4944274276639514 0  0.811491251593248 0.4936727972834562 0  0.8746611757011012 0.4931398638445891 0  0.938598474086953 0.4931426575589526 0  1.003798467925743 0.4941826827189474 0  0 0.5625 0  0.06241783053843224 0.5622569531757335 0  0.1248315714688439 0.5620037413249181 0  0.1872369529208546 0.5617297419405977 0  0.2496292178628219 0.5614233933544487 0  0.312002899676059 0.5610717065356323 0  0.374351675461692 0.5606597865394758 0  0.4366684428889258 0.5601704358574304 0  0.4989459615669173 0.5595840236055578 0  0.5611787916624058 0.5588790446503284 0  0.6233680124404198 0.5580343072228487 0  0.6855315156819349 0.5570347765581949 0  0.7477246106106924 0.5558853175787479 0  0.8100775376560958 0.5546405915953025 0  0.8728554921847904 0.5534643462741606 0  0.9365384205011582 0.5527292970875525 0  1.001904832507857 0.5531444095581463 0  0 0.625 0  0.06241558783425667 0.6247632933338836 0  0.124826017011422 0.6245157115734606 0  0.1872258185882741 0.6242457634075469 0  0.2496085523019622 0.6239405864501392 0  0.3119662229463332 0.623585131818141 0  0.3742885936911362 0.6231611907965926 0  0.4365624448898696 0.6226462221018442 0  0.4987710068543591 0.6220119832909318 0  0.5608942440071188 0.6212231092975411 0  0.6229117131217496 0.6202361768084861 0  0.6848119803988945 0.6190008832863949 0  0.7466169836384756 0.6174679296455234 0  0.8084366266579481 0.6156159482619554 0  0.8705737937048921 0.6135274211949814 0  0.9336863009969741 0.6115633145069864 0  0.9989858226145688 0.6106363261242543 0  0 0.6875 0  0.06241809034510006 0.6872803695363621 0  0.1248303969012271 0.6870498045055848 0  0.1872307185183961 0.6867966415569026 0  0.2496114816605391 0.6865075189856032 0  0.3119628209370725 0.6861662891327089 0  0.3742713328981408 0.6857526005174363 0  0.4365183732994667 0.6852399717380475 0  0.4986778293934954 0.6845931153715098 0  0.5607135922620324 0.6837641986530741 0  0.6225779231227911 0.6826877148073092 0  0.6842146776275478 0.6812739772558444 0  0.7455785412114897 0.6794031355148464 0  0.8066980324886166 0.6769298313298421 0  0.8678386514127069 0.6737417402960116 0  0.9298081812035484 0.6700286454686574 0  0.9943395948863185 0.6668888529928894 0  0 0.75 0  0.06242583636566208 0.7498082002599618 0  0.1248458733273972 0.7496062014484087 0  0.1872538405994566 0.7493830415895604 0  0.2496418814256734 0.7491259278535511 0  0.3119994144481483 0.7488190092897622 0  0.3743114640094055 0.7484416963898777 0  0.4365561133266127 0.7479662399675554 0  0.4987005716810059 0.74735411449861 0  0.5606951951481517 0.7465504530978037 0  0.6224649631496681 0.7454752361357333 0  0.6838995402644367 0.7440089348306976 0  0.7448500453865065 0.7419686817912819 0  0.8051654632597381 0.7390701374265922 0  0.8648819817773226 0.7348840243938413 0  0.9248922631063671 0.728939883265721 0  0.9872314604352581 0.7225230455094749 0  0 0.8125 0  0.06243879842020449 0.8123460257174103 0  0.1248724684771002 0.8121834359584561 0  0.1872954343949896 0.8120029171826889 0  0.2497005870147242 0.8117934481169878 0  0.3120781322735967 0.8115411223554889 0  0.3744138125175343 0.8112274912016871 0  0.4366860007657861 0.8108271058353628 0  0.4988607692320298 0.8103037339349471 0  0.5608832942651937 0.8096043453365561 0  0.6226626746887549 0.808649191467165 0  0.684045413765565 0.8073145524007589 0  0.7447721769334755 0.8054002522381635 0  0.8044234869541844 0.8025618915610889 0  0.8624347416012086 0.7981559181255685 0  0.9186931473102166 0.7908782691948611 0  0.9793364583634511 0.7779253627927597 0  0 0.875 0  0.06245635237812791 0.8748922608950838 0  0.1249088920939525 0.8747782736945241 0  0.1873534634245786 0.8746512573305213 0  0.2497847153213397 0.8745031108606116 0  0.3121951802150912 0.8743234888923834 0  0.3745738072866127 0.874098482571809 0  0.4369034657116872 0.8738086432711354 0  0.4991564585241227 0.8734259326132557 0  0.561286047866657 0.8729089323773934 0  0.6232096500233851 0.8721952353166749 0  0.6847740021569613 0.8711891335584356 0  0.7456805391000759 0.869740287759671 0  0.8053241256594975 0.8675981866741478 0  0.8624574140722463 0.8642751506508281 0  0.9145762758644528 0.8585315590410065 0  0.9571412615556583 0.8465217064487572 0  0 0.9375 0  0.06247730076547693 0.9374445607240345 0  0.1249525842819978 0.9373858394563284 0  0.1874236534138945 0.9373202664544084 0  0.2498876721000679 0.9372435544422362 0  0.3123406702701619 0.9371501921956147 0  0.3747767481887686 0.937032718433723 0  0.43718670146
[...]
<PointData  Vectors="f_54"> 
<DataArray  type="Float64"  Name="f_54"  NumberOfComponents="3" format="ascii">0.0000000000000000e+00 0.0000000000000000e+00 0.0000000000000000e+00  0.0000000000000000e+00 0.0000000000000000e+00 0.0000000000000000e+00  0.0000000000000000e+00 0.0000000000000000e+00 0.0000000000000000e+00  0.0000000000000000e+00 0.0000000000000000e+00 0.0000000000000000e+00  0.0000000000000000e+00 0.0000000000000000e+00 0.0000000000000000e+00  0.0000000000000000e+00 0.0000000000000000e+00 0.0000000000000000e+00  0.0000000000000000e+00 0.0000000000000000e+00 0.0000000000000000e+00  0.0000000000000000e+00 0.0000000000000000e+00 0.0000000000000000e+00  0.0000000000000000e+00 0.0000000000000000e+00 0.0000000000000000e+00  0.0000000000000000e+00 0.0000000000000000e+00 0.0000000000000000e+00  0.0000000000000000e+00 0.0000000000000000e+00 0.0000000000000000e+00  0.0000000000000000e+00 0.0000000000000000e+00 0.0000000000000000e+00  0.0000000000000000e+00 0.0000000000000000e+00 0.0000000000000000e+00  0.0000000000000000e+00 0.0000000000000000e+00 0.0000000000000000e+00  0.0000000000000000e+00 0.0000000000000000e+00 0.0000000000000000e+00  0.0000000000000000e+00 0.0000000000000000e+00 0.0000000000000000e+00  0.0000000000000000e+00 0.0000000000000000e+00 0.0000000000000000e+00  0.0000000000000000e+00 0.0000000000000000e+00 0.0000000000000000e+00  1.7421209829098405e-06 1.6931473913224414e-07 0.0000000000000000e+00  3.5038039679528531e-06 3.4044890487985463e-07 0.0000000000000000e+00  5.3019693220545630e-06 5.1497820615434875e-07 0.0000000000000000e+00  7.1434639814233123e-06 6.9354684290183894e-07 0.0000000000000000e+00  9.0184423206966144e-06 8.7531596127029805e-07 0.0000000000000000e+00  1.0891624624410352e-05 1.0573317952002560e-06 0.0000000000000000e+00  1.2690439002997719e-05 1.2338551834512432e-06 0.0000000000000000e+00  1.4288553802218979e-05 1.3957866784270520e-06 0.0000000000000000e+00  1.5482018200245475e-05 1.5304907907567713e-06 0.0000000000000000e+00  1.5951722779054276e-05 1.6226449649416594e-06 0.0000000000000000e+00  1.5195975178411459e-05 1.6574420999210737e-06 0.0000000000000000e+00  1.2387585916160643e-05 1.6293866831132207e-06 0.0000000000000000e+00  6.0171497817875717e-06 1.5662890640260374e-06 0.0000000000000000e+00  -7.1308707018932184e-06 1.6022194598638693e-06 0.0000000000000000e+00  -3.5293782642845703e-05 2.2334541041573735e-06 0.0000000000000000e+00  -1.0391222433426108e-04 5.3579283578543524e-06 0.0000000000000000e+00  0.0000000000000000e+00 0.0000000000000000e+00 0.0000000000000000e+00  3.4620555602686386e-06 3.3655492172578197e-07 0.0000000000000000e+00  6.9680098210102880e-06 6.7719982677918726e-07 0.0000000000000000e+00  1.0556988957763616e-05 1.0255654800186509e-06 0.0000000000000000e+00  1.4249317976994289e-05 1.3834936246916733e-06 0.0000000000000000e+00  1.8034069367867343e-05 1.7499423481843002e-06 0.0000000000000000e+00  2.1852547683968795e-05 2.1196802147013321e-06 0.0000000000000000e+00  2.5575963476514399e-05 2.4818071043680960e-06 0.0000000000000000e+00  2.8974981057822746e-05 2.8182891775239278e-06 0.0000000000000000e+00  3.1677501102110153e-05 3.1029563543341914e-06 0.0000000000000000e+00  3.3107791660030580e-05 3.3018299779743091e-06 0.0000000000000000e+00  3.2392156072232833e-05 3.3762562057800763e-06 0.0000000000000000e+00  2.8197917464368093e-05 3.2910194642880956e-06 0.0000000000000000e+00  1.8434494317661866e-05 3.0295138440110277e-06 0.0000000000000000e+00  -3.0779214581261374e-07 2.6114684897803052e-06 0.0000000000000000e+00  -3.3618275639142379e-05 2.0611182477573998e-06 0.0000000000000000e+00  -8.9022630570968856e-05 9.7484196191848042e-07 0.0000000000000000e+00  0.0000000000000000e+00 0.0000000000000000e+00 0.0000000000000000e+00  5.1333771547916698e-06 4.9924645479198880e-07 0.0000000000000000e+00  1.0343861898884074e-05 1.0057115619051878e-06 0.0000000000000000e+00  1.5702608789573064e-05 1.5260021032766198e-06 0.0000000000000000e+00  2.1255813230475198e-05 2.0642475152513089e-06 0.0000000000000000e+00  2.7007886625935994e-05 2.6205030517031088e-06 0.0000000000000000e+00  3.2898859817404608e-05 3.1887304758316815e-06 0.0000000000000000e+00  3.8773753641451278e-05 3.7543175024543340e-06 0.0000000000000000e+00  4.4341395183690054e-05 4.2912602313155004e-06 0.0000000000000000e+00  4.9119795899810069e-05 4.7594350852633720e-06 0.0000000000000000e+00  5.2364603816315601e-05 5.1028719193346765e-06 0.0000000000000000e+00  5.2976275854245536e-05 5.2505637782012295e-06 0.0000000000000000e+00  4.9382015083084307e-05 5.1217698811089955e-06 0.0000000000000000e+00  3.9399490531821678e-05 4.6368721427263176e-06 0.0000000000000000e+00  2.0150081944650533e-05 3.7300096562405025e-06 0.0000000000000000e+00  -1.1668542455739826e-05 2.3486362956732907e-06 0.0000000000000000e+00  -5.8106071004326038e-05 4.4000189719080113e-07 0.0000000000000000e+00  0.0000000000000000e+00 0.0000000000000000e+00 0.0000000000000000e+00  6.7210386029386766e-06 6.5408086609869952e-07 0.0000000000000000e+00  1.3564102988850493e-05 1.3196816653396974e-06 0.0000000000000000e+00  2.0645388087206309e-05 2.0076669610169590e-06 0.0000000000000000e+00  2.8053634474732942e-05 2.7260374472186622e-06 0.0000000000000000e+00  3.5830945187455004e-05 3.4779451606912218e-06 0.0000000000000000e+00  4.3946282699921485e-05 4.2589955098315025e-06 0.0000000000000000e+00  5.2258857830303631e-05 5.0536321775092171e-06 0.0000000000000000e+00  6.0468646144329032e-05 5.8305208204798400e-06 0.0000000000000000e+00  6.8051859409307231e-05 6.5371420828469411e-06 0.0000000000000000e+00  7.4181031999611240e-05 7.0943950779455895e-06 0.0000000000000000e+00  7.7633888947012755e-05 7.3930042383829856e-06 0.0000000000000000e+00  7.6705854218839047e-05 7.2948421864080805e-06 0.0000000000000000e+00  6.9167045612370323e-05 6.6433371820356296e-06 0.0000000000000000e+00  5.2367619374041328e-05 5.2863902460587336e-06 0.0000000000000000e+00  2.3731653461029154e-05 3.1101573568442566e-06 0.0000000000000000e+00  -1.7929724698047815e-05 6.7638710936206599e-08 0.0000000000000000e+00  0.0000000000000000e+00 0.0000000000000000e+00 0.0000000000000000e+00  8.1787333483459287e-06 7.9661978216459629e-07 0.0000000000000000e+00  1.6537153097234994e-05 1.6103905315913117e-06 0.0000000000000000e+00  2.5250798267180999e-05 2.4579282053828008e-06 0.0000000000000000e+00  3.4469875958499168e-05 3.3530644614689753e-06 0.0000000000000000e+00  4.4300255045076820e-05 4.3047065188099810e-06 0.0000000000000000e+00  5.4775718299969929e-05 5.3136556709962496e-06 0.0000000000000000e+00  6.5817882435103731e-05 6.3679258550670341e-06 0.0000000000000000e+00  7.7180086224101660e-05 7.4360887752989665e-06 0.0000000000000000e+00  8.8372322397598486e-05 8.4583323069003851e-06 0.0000000000000000e+00  9.8567040591197755e-05 9.3355056205946310e-06 0.0000000000000000e+00  1.0649225108138567e-04 9.9178732101889235e-06 0.0000000000000000e+00  1.1033182583103657e-04 9.9982065931095916e-06 0.0000000000000000e+00  1.0767756323513207e-04 9.3186547764977391e-06 0.0000000000000000e+00  9.5617634779071161e-05 7.6070084546694497e-06 0.0000000000000000e+00  7.1095182643203549e-05 4.6628919210459495e-06 0.0000000000000000e+00  3.1671750074466014e-05 5.1465405466003879e-07 0.0000000000000000e+00  0.0000000000000000e+00 0.0000000000000000e+00 0.0000000000000000e+00  9.4480905859798031e-06 9.2116013656495244e-07 0.0000000000000000e+00  1.9145026706449959e-05 1.8663559563917514e-06 0.0000000000000000e+00  2.9338913187409303e-05 2.8594232714985703e-06 0.0000000000000000e+00  4.0260035069615449e-05 3.9221246162854768e-06 0.0000000000000000e+00  5.2105120156997196e-05 5.0722373760910564e-06 0.0000000000000000e+00  6.5011754717288005e-05 6.3203301020737490e-06 0.0000000000000000e+00  7.9018210571279659e-05 7.6644591850911870e-06 0.0000000000000000e+00  9.4003060466726516e-05 9.0817410140291258e-06 0.0000000000000000e+00  1.0959877976194810e-04 1.0515527144683131e-05 0.0000000000000000e+00  1.2507534887599685e-04 1.1857059826927453e-05 0.0000000000000000e+00  1.3919590011112780e-04 1.2921819227042324e-05 0.0000000000000000e+00  1.5005965729906532e-04 1.3424915660688552e-05 0.0000000000000000e+00  1.5496954249796845e-04 1.2969261660143557e-05 0.0000000000000000e+00  1.5038699342009320e-04 1.1076416349021822e-05 0.0000000000000000e+00  1.3203805001136212e-04 7.3084137045512515e-06 0.0000000000000000e+00  9.5150537186173103e-05 1.5331964027187725e-06 0.0000000000000000e+00  0.0000000000000000e+00 0.0000000000000000e+00 0.0000000000000000e+00  1.0460141161405801e-05 1.0208327331617912e-06 0.0000000000000000e+00  2.1245899388299181e-05 2.0734588865344836e-06 0.0000000000000000e+00  3.2687316197668777e-05 3.1900478898066239e-06 0.0000000000000000e+00  4.5109942988765813e-05 4.4021465373259276e-06 0.0000000000000000e+00  5.8826023724504297e-05 5.7395252264053092e-06 0.0000000000000000e+00  7.4115550699557710e-05 7.2276485842970249e-06 0.0000000000000000e+00  9.1191174010096806e-05 8.8827413858168000e-06 0.0000000000000000e+00  1.1013862106007845e-04 1.0702772783721363e-05 0.0000000000000000e+00  1.3082186125670589e-04 1.2651741633235453e-05 0.0000000000000000e+00  1.5274102819310602e-04 1.4633572537582143e-05 0.0000000000000000e+00  1.7483395986158586e-04 1.6451578300955550e-05 0.0000000000000000e+00  1.9522402468559000e-04 1.7752439124820343e-05 0.0000000000000000e+00  2.1094219457208551e-04 1.7965935835778969e-05 0.0000000000000000e+00  2.1768219794324851e-04 1.6281798219000753e-05 0.0000000000000000e+00  2.0963463198275497e-04 1.1753049077356858e-05 0.0000000000000000e+00  1.7927482570589842e-04 3.6508157313801309e-06 0.0000000000000000e+00  0.0000000000000000e+00 0.0000000000000000e+00 0.0000000000000000e+00  1.1139356775877818e-05 1.0879993294558560e-06 0.0000000000000000e+00  2.2682019018977983e-05 2.2156979251525911e-06 0.0000000000000000e+00  3.5042472149815035e-05 3.4239623114136459e-06 0.0000000000000000e+00  4.8649629305773902e-05 4.7551985386834965e-06 0.0000000000000000e+00  6.3948948319096608e-05 6.2535584042258986e-06 0.0000000000000000e+00  8.1395758022258572e-05 7.9640813771507475e-06 0.0000000000000000e+00  1.0143293243967402e-04 9.9297109308059167e-06 0.0000000000000000e+00  1.2444181245563926e-04 1.2184138968842280e-05 0.0000000000000000e+00  1.5064935666368661e-04 1.4736617819731133e-05 0.0000000000000000e+00  1.7996761332793405e-04 1.7541771645736641e-05 0.0000000000000000e+00  2.1173695456242362e-04 2.0442908683051040e-05 0.0000000000000000e+00  2.4435070070100265e-04 2.3073389211532467e-05 0.0000000000000000e+00  2.7477169531880101e-04 2.4706435383908065e-05 0.0000000000000000e+00  2.9802082190273367e-04 2.4083521639752287e-05 0.0000000000000000e+00  3.0675780150074788e-04 1.9352754020511902e-05 0.0000000000000000e+00  2.9081364824401371e-04 8.3543102113475915e-06 0.0000000000000000e+00  0.0000000000000000e+00 0.0000000000000000e+00 0.0000000000000000e+00  1.1410350238833082e-05 1.1149794538870292e-06 0.0000000000000000e+00  2.3293290137500487e-05 2.2766693303414649e-06 0.0000000000000000e+00  3.6140443897461807e-05 3.5338555902496911e-06 0.0000000000000000e+00  5.0481060962553453e-05 4.9394982351442297e-06 0.0000000000000000e+00  6.6898880798533077e-05 6.5528057601634722e-06 0.0000000000000000e+00  8.6044031518536104e-05 8.4410314113713332e-06 0.0000000000000000e+00  1.0863357367502651e-04 1.0680330091110010e-05 0.0000000000000000e+00  1.3542824154812283e-04 1.3354014820563269e-05 0.0000000000000000e+00  1.6716280423285449e-04 1.6544276861604029e-05 0.0000000000000000e+00  2.0439204860627245e-04 2.0308402653118987e-05 0.0000000000000000e+00  2.4719487004487209e-04 2.4620023839657138e-05 0.0000000000000000e+00  2.9466550814164150e-04 2.9236649676289545e-05 0.0000000000000000e+00  3.4414784917119744e-04 3.3429902813434852e-05 0.0000000000000000e+00  3.9030931673927303e-04 3.5524579560024173e-05 0.0000000000000000e+00  4.2442880935578950e-04 3.2363345772440250e-05 0.0000000000000000e+00  4.3433088702390986e-04 1.9165310788796659e-05 0.0000000000000000e+00  0.0000000000000000e+00 0.0000000000000000e+00 0.0000000000000000e+00  1.1206978739701824e-05 1.0950723129731617e-06 0.0000000000000000e+00  2.2936204887779637e-05 2.2417322112668612e-06 0.0000000000000000e+00  3.5736975433959839e-05 3.4944957178113388e-06 0.0000000000000000e+00  5.0220909188165208e-05 4.9146850184336074e-06 0.0000000000000000e+00  6.7096136387543250e-05 6.5745483265560776e-06 0.0000000000000000e+00  8.7203384256269244e-05 8.5622669197437560e-06 0.0000000000000000e+00  1.1155038079701428e-04 1.0988089810120253e-05 0.0000000000000000e+00  1.4133429711216553e-04 1.3991447270817680e-05 0.0000000000000000e+00  1.7792853837549205e-04 1.7747457386047868e-05 0.0000000000000000e+00  2.2278507687564314e-04 2.2466646848431201e-05 0.0000000000000000e+00  2.7716076214947492e-04 2.8368209368909454e-05 0.0000000000000000e+00  3.4151573734050443e-04 3.5570403165471175e-05 0.0000000000000000e+00  4.1439061828587524e-04 4.3753135700675326e-05 0.0000000000000000e+00  4.9072236259825879e-04 5.1295601122445890e-05 0.0000000000000000e+00  5.6029923992072174e-04 5.3671405788425799e-05 0.0000000000000000e+00  6.0728794327482444e-04 4.1894312906118478e-05 0.0000000000000000e+00  0.0000000000000000e+00 0.0000000000000000e+00 0.0000000000000000e+00  1.0483090486050100e-05 1.0237483006317965e-06 0.0000000000000000e+00  2.1506756299001372e-05 2.1006122124404348e-06 0.0000000000000000e+00  3.3645360739969140e-05 3.2872210440177341e-06 0.0000000000000000e+00  4.7557403740611302e-05 4.6490069151188900e-06 0.0000000000000000e+00  6.4036925211391314e-05 6.2659994002441371e-06 0.0000000000000000e+00  8.4076330993791917e-05 8.2406773741779117e-06 0.0000000000000000e+00  1.0894290655626754e-04 1.0709250988905429e-05 0.0000000000000000e+00  1.4026661041655151e-04 1.3858563200808776e-05 0.0000000000000000e+00  1.8012412019397105e-04 1.7951938145405180e-05 0.0000000000000000e+00  2.3107382543051207e-04 2.3367857724124197e-05 0.0000000000000000e+00  2.9602995635107012e-04 3.0650420090690783e-05 0.0000000000000000e+00  3.7773098906117151e-04 4.0539890959980604e-05 0.0000000000000000e+00  4.7733152559524073e-04 5.3820432527541774e-05 0.0000000000000000e+00  5.9147491042450947e-04 7.0340524037189111e-05 0.0000000000000000e+00  7.0875873557593218e-04 8.5325509698849140e-05 0.0000000000000000e+00  8.1175283329748592e-04 8.6132165350975040e-05 0.0000000000000000e+00  0.0000000000000000e+00 0.0000000000000000e+00 0.0000000000000000e+00  9.2235346690232936e-06 8.9979383468682156e-07 0.0000000000000000e+00  1.8964583292775500e-05 1.8499722379159455e-06 0.0000000000000000e+00  2.9778103337348527e-05 2.9045688061210269e-06 0.0000000000000000e+00  4.2316576409470758e-05 4.1271861664633737e-06 0.0000000000000000e+00  5.7394310695226165e-05 5.5975079536013152e-06 0.0000000000000000e+00  7.6073428365629604e-05 7.4204830041210055e-06 0.0000000000000000e+00  9.9782181866240899e-05 9.7402525776309802e-06 0.0000000000000000e+00  1.3047741408385799e-04 1.2762765760779618e-05 0.0000000000000000e+00  1.7085896999175879e-04 1.6795157459087938e-05 0.0000000000000000e+00  2.2462283210402002e-04 2.2318931681231834e-05 0.0000000000000000e+00  2.9667133448462850e-04 3.0131864976741803e-05 0.0000000000000000e+00  3.9301026419244690e-04 4.1620310874824111e-05 0.0000000000000000e+00  5.1958673721774491e-04 5.9216550283307653e-05 0.0000000000000000e+00  6.7817117640504984e-04 8.6738987643797903e-05 0.0000000000000000e+00  8.5508140258945553e-04 1.2622135828987895e-04 0.0000000000000000e+00  1.0291995674365517e-03 1.3937105685333089e-04 0.0000000000000000e+00  0.0000000000000000e+00 0.0000000000000000e+00 0.0000000000000000e+00  7.4534459044791049e-06 7.2614346316110390e-07 0.0000000000000000e+00  1.5354108751920174e-05 1.4953342665992683e-06 0.0000000000000000e+00  2.4185448033000853e-05 2.3538796374334684e-06 0.0000000000000000e+00  3.4527937180347185e-05 3.3568856595377429e-06 0.0000000000000000e+00  4.7126920237709326e-05 4.5742107547094536e-06 0.0000000000000000e+00  6.2989456845221852e-05 6.0987613467352239e-06 0.0000000000000000e+00  8.3529046387277543e-05 8.0587844414964058e-06 0.0000000000000000e+00  1.1078703690834458e-04 1.0637327102244513e-05 0.0000000000000000e+00  1.4777276728061112e-04 1.4106060042483587e-05 0.0000000000000000e+00  1.9897527456430450e-04 1.8892307555837919e-05 0.0000000000000000e+00  2.7108180154146759e-04 2.5732571817019963e-05 0.0000000000000000e+00  3.7380385833595074e-04 3.6064201153790841e-05 0.0000000000000000e+00  5.2019548425345590e-04 5.3064255995456101e-05 0.0000000000000000e+00  7.2417555672034633e-04 8.4348384975013320e-05 0.0000000000000000e+00  9.8685901607287641e-04 1.4899426272828946e-04 0.0000000000000000e+00  1.2008415811259378e-03 3.1077609197957480e-04 0.0000000000000000e+00  0.0000000000000000e+00 0.0000000000000000e+00 0.0000000000000000e+00  5.2434509417919721e-06 5.1016456077155435e-07 0.0000000000000000e+00  1.0817358974522371e-05 1.0517841179735186e-06 0.0000000000000000e+00  1.7081285832038544e-05 1.6587275304687555e-06 0.0000000000000000e+00  2.4473995953259677e-05 2.3714892546528721e-06 0.0000000000000000e+00  3.3571399911739833e-05 3.2415009309691006e-06 0.0000000000000000e+00  4.5173324328158428e-05 4.3367310514836757e-06 0.0000000000000000e+00  6.0441197991574917e-05 5.7488371718433367e-06 0.0000000000000000e+00  8.1125424188982503e-05 7.6014774004338487e-06 0.0000000000000000e+00  1.0995180270127226e-04 1.0057647576026359e-05 0.0000000000000000e+00  1.5129016532779138e-04 1.3321026510589356e-05 0.0000000000000000e+00  2.1231233386120898e-04 1.7628663186469619e-05 0.0000000000000000e+00  3.0493164449059418e-04 2.3281452624218107e-05 0.0000000000000000e+00  4.4870304862294682e-04 3.1033417893643402e-05 0.0000000000000000e+00  6.7376590292573125e-04 4.4181702888697146e-05 0.0000000000000000e+00  1.0186685813464225e-03 7.6091901542618662e-05 0.0000000000000000e+00  1.5085810800901018e-03 1.6691424739591663e-04 0.0000000000000000e+00  0.0000000000000000e+00 0.0000000000000000e+00 0.0000000000000000e+00  2.7086260952279290e-06 2.6328221300379555e-07 0.0000000000000000e+00  5.5932390068592246e-06 5.4317856245037133e-07 0.0000000000000000e+00  8.8461702360056033e-06 8.5757693717144290e-07 0.0000000000000000e+00  1.2704623281060604e-05 1.2278875831227690e-06 0.0000000000000000e+00  1.7484500779969868e-05 1.6812168862152086e-06 0.0000000000000000e+00  2.3632697025486933e-05 2.2528733306206114e-06 0.0000000000000000e+00  3.1813446079976372e-05 2.9885164257115835e-06 0.0000000000000000e+00  4.3058306441009178e-05 3.9429698183510238e-06 0.0000000000000000e+00  5.9038177468109042e-05 5.1651428369556224e-06 0.0000000000000000e+00  8.2574828295754589e-05 6.6337459359408478e-06 0.0000000000000000e+00  1.1862277865444233e-04 8.0284324760799910e-06 0.0000000000000000e+00  1.7611045139096651e-04 7.9721492148605968e-06 0.0000000000000000e+00  2.7085882945111404e-04 1.7107891369502301e-06 0.0000000000000000e+00  4.2683980478367496e-04 -2.4704609699110104e-05 0.0000000000000000e+00  6.5873804759688376e-04 -1.0028559077302300e-04 0.0000000000000000e+00  9.0720273962728462e-04 -2.3644209901288007e-04 0.0000000000000000e+00  0.0000000000000000e+00 0.0000000000000000e+00 0.0000000000000000e+00  0.0000000000000000e+00 0.0000000000000000e+00 0.0000000000000000e+00  0.0000000000000000e+00 0.0000000000000000e+00 0.0000000000000000e+00  0.0000000000000000e+00 0.0000000000000000e+00 0.0000000000000000e+00  0.0000000000000000e+00 0.0000000000000000e+00 0.0000000000000000e+00  0.0000000000000000e+00 0.0000000000000000e+00 0.0000000000000000e+00  0.0000000000000000e+00 0.0000000000000000e+00 0.0000000000000000e+00  0.0000000000000000e+00 0.0000000000000000e+00 0.0000000000000000e+00  0.0000000000000000e+00 0.0000000000000000e+00 0.0000000000000000e+00  0.0000000000000000e+00 0.0000000000000000e+00 0.0000000000000000e+00  0.0000000000000000e+00 0.0000000000000000e+00 0.0000000000000000e+00  0.0000000000000000e+00 0.0000000000000000e+00 0.0000000000000000e+00  