<?xml version="1.0"?>
<VTKFile type="UnstructuredGrid"  version="0.1"  >
<UnstructuredGrid>
<Piece  NumberOfPoints="289" NumberOfCells="512">
<Points>
<DataArray  type="Float64"  NumberOfComponents="3"  format="ascii">0 0 0  0.0625 0 0  0.125 0 0  0.1875 0 0  0.25 0 0  0.3125 0 0  0.375 0 0  0.4375 0 0  0.5 0 0  0.5625 0 0  0.625 0 0  0.6875 0 0  0.75 0 0  0.8125 0 0  0.875 0 0  0.9375 0 0  1 0 0  0 0.0625 0  0.06249609317037343 0.0624613426193379 0  0.1249927759764499 0.06242199720726769 0  0.1874906887076498 0.06238131878379009 0  0.2499907242562056 0.06233880421326737 0  0.3124941989962977 0.06229418382856475 0  0.3750030916719877 0.06224753634071468 0  0.4375203962834232 0.0621994282280908 0  0.50005066985555 0.06215106886763287 0  0.5626009322457642 0.06210445423444652 0  0.6251822527278966 0.06206244035841725 0  0.6878127992312144 0.06202863737438424 0  0.750524288520117 0.06200694094825353 0  0.8133769783153275 0.06200041997558915 0  0.8764973293479664 0.06200919500207068 0  0.940176895034361 0.06202736969329906 0  1.005125019902109 0.06204788730380584 0  0 0.125 0  0.06249160313025769 0.1249233278510488 0  0.124984286346491 0.1248452056656865 0  0.1874792308561761 0.1247642623719804 0  0.2499781074421959 0.1246793937840301 0  0.3124834096128303 0.1245899406565355 0  0.3749989195982035 0.1244959193404768 0  0.4375303915276161 0.1243983131374417 0  0.5000865907134677 0.1242994162159751 0  0.5626809357295105 0.1242031897815829 0  0.6253342082532155 0.1241155326047826 0  0.6880792392624967 0.124044276109666 0  0.7509693403720268 0.1239985943163487 0  0.8140936563920894 0.1239874500243014 0  0.8776036656815188 0.124017042837285 0  0.9417498757830505 0.12408926486064 0  1.006899150883018 0.1242089204229968 0  0 0.1875 0  0.06248614008099794 0.1873867424653423 0  0.1249736367987312 0.1872711404622192 0  0.1874639876551599 0.1871509493732618 0  0.2499593620370336 0.1870242799179415 0  0.3124630604939868 0.1868898484050569 0  0.3749801558439455 0.1867473176711642 0  0.4375184204703629 0.1865977537315432 0  0.5000896940907227 0.1864442082112067 0  0.5627119268123062 0.1862924009053376 0  0.6254122549108166 0.1861514027172232 0  0.6882316206274547 0.1860340778094148 0  0.7512315040885619 0.1859567818930944 0  0.8145027449871238 0.1859372942352733 0  0.8781735020270237 0.1859886797570685 0  0.9424046749825435 0.1861026280569532 0  1.007346477917478 0.186200587058584 0  0 0.25 0  0.06247952458645204 0.2498525025519174 0  0.124960380123936 0.2497015942262531 0  0.187444058890803 0.2495439609353323 0  0.2499328210224224 0.2493766724549106 0  0.3124302248034097 0.2491974765799732 0  0.3749418696511136 0.249005228804529 0  0.4374764628979692 0.2488005112227676 0  0.5000473558045849 0.2485864922187646 0  0.5626747281614524 0.2483700578706259 0  0.6253886057697874 0.2481631837197934 0  0.6882327877125308 0.2479843686570417 0  0.7512693254359081 0.247859642802066 0  0.8145819582336628 0.2478220480922819 0  0.8782741137554625 0.2479073593766284 0  0.9424526073570095 0.2481421930195097 0  1.007186288834728 0.2485214323022693 0  0 0.3125 0  0.06247185116213845 0.3123216897363633 0  0.1249446586760445 0.3121387207566516 0  0.187419535603597 0.3119464951039906 0  0.2498983509883977 0.3117407423197124 0  0.3123842654550604 0.3115178102179658 0  0.3748824962542445 0.3112751341886355 0  0.437401428911977 0.3110119761145743 0  0.4999542201182887 0.3107305480353856 0  0.5625610469391346 0.3104376545666716 0  0.6252521059853704 0.3101469793146457 0  0.6880712576814366 0.309882053355263 0  0.7510796765316269 0.3096796761853872 0  0.8143578054405155 0.3095929372177475 0  0.8780024084787235 0.3096918071148643 0  0.9421150906545823 0.3100576177071149 0  1.006784683694339 0.3107668272777784 0  0 0.375 0  0.06246351198990607 0.3747955570670368 0  0.1249272622668453 0.374585058091926 0  0.1873916127200123 0.3743624318590759 0  0.2498575502328402 0.3741217721994029 0  0.3123271556267442 0.3738575573380198 0  0.3748043065389072 0.3735650737057732 0  0.4372957457431496 0.3732411721070193 0  0.4998126892918532 0.3728855451862289 0  0.5623731834407363 0.3725027982527665 0  0.6250054047538981 0.3721056805934621 0  0.6877519502872905 0.3717199066139102 0  0.7506747547948831 0.3713908990027149 0  0.8138595081246291 0.3711922542956034 0  0.8774176223198991 0.3712343382223911 0  0.9414844425652796 0.3716689314545655 0  1.006218327326748 0.3726832095287705 0  0 0.4375 0  0.06245517662746718 0.4372754939950126 0  0.1249095924752898 0.4370434672668346 0  0.1873625475449296 0.4367962664466 0  0.2498137163787173 0.4365261257818301 0  0.3122634735726735 0.4362252310666141 0  0.3747134386787718 0.4358859777588573 0  0.4371673925015367 0.4355015718749397 0  0.4996328001667081 0.4350672220465919 0  0.5621232904269662 0.4345823332192528 0  0.6246625689176972 0.4340543595902886 0  0.6872903237632206 0.4335053060146802 0  0.7500705739199232 0.4329821821707503 0  0.8131024077228648 0.432572633726428 0  0.8765321516181628 0.4324256207013574 0  0.9405658089972007 0.4327733255524011 0  1.005485194017094 0.4339456295292738 0  0 0.5 0  0.0624477281396718 0.4997629426552426 0  0.1248935333883324 0.4995169673487536 0  0.1873354631802944 0.4992528715027206 0  0.2497715838378667 0.4989609608527489 0  0.3122000845218916 0.4986308719712233 0  0.3746195508780519 0.4982515256506858 0  0.4370295708266325 0.4978113455788487 0  0.4994319735161795 0.4972989999885998 0  0.5618332420300346 0.4967051523569369 0  0.6242490236379047 0.49602612059766 0  0.6867121955214656 0.4952710563579917 0  0.749286489450249 0.4944753501381359 0  0.8120877446167361 0.493724191364295 0  0.8753135380306982 0.493190118481473 0  0.9392791713645201 0.493183341133875 0  1.004459784733251 0.4942008596110093 0  0 0.5625 0  0.06244215994736183 0.5622592640373676 0  0.1248812357881022 0.5620084598586557 0  0.187314003499251 0.5617370660676646 0  0.2497368323836809 0.561433630758797 0  0.3121454992494284 0.5610852876177045 0  0.3745350686948039 0.5606772811019206 0  0.4368999745891226 0.5601925715970886 0  0.4992346188216999 0.5596117010843433 0  0.561535174733926 0.5589133353693717 0  0.6238040015416161 0.5580764031108517 0  0.6860593490315645 0.5570858194590262 0  0.7483549465286784 0.5559459581977526 0  0.8108159855213123 0.5547099970950564 0  0.8736972945898729 0.5535382625646541 0  0.9374617375808092 0.5527969973389085 0  1.002864012940035 0.5531852853858676 0  0 0.625 0  0.0624394417716268 0.6247655626892855 0  0.124874829598369 0.6245203571608662 0  0.1873018556230803 0.6242530050404931 0  0.2497153713869392 0.6239507709640747 0  0.3121088760724393 0.623598755673801 0  0.3744739061001398 0.6231789330258646 0  0.4367993677085263 0.6226689899101526 0  0.4990710206720144 0.622040972320404 0  0.5612717433608291 0.6212598773110699 0  0.6233842042292346 0.6202827169605137 0  0.6853997410115888 0.6190596431166593 0  0.7473415295609368 0.617541607311293 0  0.8093169431035515 0.6157066029894103 0  0.8716192145084406 0.6136338301351115 0  0.9348863379861128 0.6116750524082394 0  1.000299178677373 0.610724577855939 0  0 0.6875 0  0.06244036833171834 0.6872824908845914 0  0.1248760911650067 0.6870541572169468 0  0.1873021753836698 0.6868034529313954 0  0.2497124302771038 0.6865171518198789 0  0.3120986547607252 0.6861792719081862 0  0.3744495216216979 0.6857696737971074 0  0.4367490339719845 0.6852621578135687 0  0.4989744812131213 0.6846218226692071 0  0.5610940901404927 0.6838013791823004 0  0.6230654751639723 0.682736100837848 0  0.6848386283975522 0.6813374213577978 0  0.7463741126858231 0.6794870140369861 0  0.8077032731201785 0.6770411416222857 0  0.8690855675916371 0.673887217489142 0  0.9313068924488178 0.6702054293197596 0  0.9960667077664844 0.667068681939112 0  0 0.75 0  0.0624454110293422 0.7498100646135616 0  0.1248861085605219 0.7496100345008058 0  0.1873169850417794 0.7493890595851597 0  0.249731547901872 0.7491344787416507 0  0.3121209139535142 0.7488306060017532 0  0.3744723167202565 0.7484570691001701 0  0.4367668030454887 0.7479864171000008 0  0.4989756346724066 0.7473805503066934 0  0.5610547512528766 0.7465852361060602 0  0.6229367723928537 0.7455214474095686 0  0.6845215068900915 0.7440712960856696 0  0.7456725519714141 0.7420547591364107 0  0.8062514230342293 0.7391924792034583 0  0.8662987000316847 0.7350629997022918 0  0.9266808685550665 0.7292000709807913 0  0.9893936005869131 0.722811250331587 0  0 0.8125 0  0.06245459908589801 0.8123475301804086 0  0.1249050057372744 0.812186534031286 0  0.1873466541842039 0.8120077939143425 0  0.2497736449258342 0.811800402688499 0  0.3121777324566277 0.8115505986527147 0  0.3745467449441007 0.8112401255954755 0  0.4368619744764231 0.8108438004628994 0  0.4990936979397389 0.8103257703127086 0  0.561193276683996 0.8096335678775092 0  0.6230790208164225 0.8086883288586426 0  0.6846111440413111 0.8073678530903404 0  0.745550230034132 0.8054749187098477 0  0.805503646049928 0.8026716332214214 0  0.8639356886476058 0.7983300239322728 0  0.9207370662121962 0.7911851018823209 0  0.9818297417194487 0.778563730117284 0  0 0.875 0  0.06246745896367983 0.8748933178326597 0  0.1249317955561523 0.8747804527103963 0  0.1873896036850694 0.8746546937146352 0  0.249836444527585 0.874508023797386 0  0.3122660438933053 0.874330204175332 0  0.3746690026344329 0.8741074670132067 0  0.4370305804078961 0.8738205541580115 0  0.4993266720120804 0.8734416849190094 0  0.5615161176766439 0.8729297823695995 0  0.6235252556990205 0.8722228693709005 0  0.6852154413126079 0.8712257456788499 0  0.7463123720428175 0.8697887220244903 0  0.8062507634351318 0.8676628672844094 0  0.8638449011490882 0.8643672540915945 0  0.9166703791481369 0.8586896149057742 0  0.9602430180677254 0.8468669516186806 0  0 0.9375 0  0.06248303520264073 0.9374451061616922 0  0.1249644203569517 0.9373869647380163 0  0.1874423588024255 0.9373220430384797 0  0.24991450693058 0.9372460981546642 0  0.3123775481871208 0.9371536750848407 0  0.3748265039423731 0.9370373859142392 0  0.4372535339799679 0.936886826460109
[...]
<PointData  Vectors="f_54"> 
<DataArray  type="Float64"  Name="f_54"  NumberOfComponents="3" format="ascii">0.0000000000000000e+00 0.0000000000000000e+00 0.0000000000000000e+00  0.0000000000000000e+00 0.0000000000000000e+00 0.0000000000000000e+00  0.0000000000000000e+00 0.0000000000000000e+00 0.0000000000000000e+00  0.0000000000000000e+00 0.0000000000000000e+00 0.0000000000000000e+00  0.0000000000000000e+00 0.0000000000000000e+00 0.0000000000000000e+00  0.0000000000000000e+00 0.0000000000000000e+00 0.0000000000000000e+00  0.0000000000000000e+00 0.0000000000000000e+00 0.0000000000000000e+00  0.0000000000000000e+00 0.0000000000000000e+00 0.0000000000000000e+00  0.0000000000000000e+00 0.0000000000000000e+00 0.0000000000000000e+00  0.0000000000000000e+00 0.0000000000000000e+00 0.0000000000000000e+00  0.0000000000000000e+00 0.0000000000000000e+00 0.0000000000000000e+00  0.0000000000000000e+00 0.0000000000000000e+00 0.0000000000000000e+00  0.0000000000000000e+00 0.0000000000000000e+00 0.0000000000000000e+00  0.0000000000000000e+00 0.0000000000000000e+00 0.0000000000000000e+00  0.0000000000000000e+00 0.0000000000000000e+00 0.0000000000000000e+00  0.0000000000000000e+00 0.0000000000000000e+00 0.0000000000000000e+00  0.0000000000000000e+00 0.0000000000000000e+00 0.0000000000000000e+00  0.0000000000000000e+00 0.0000000000000000e+00 0.0000000000000000e+00  2.2868625324597603e-06 1.9247753522897290e-07 0.0000000000000000e+00  4.6096372411312966e-06 3.8706302902911517e-07 0.0000000000000000e+00  7.0022818555337661e-06 5.8558782386061293e-07 0.0000000000000000e+00  9.4887857489718010e-06 7.8882702821385175e-07 0.0000000000000000e+00  1.2076493792362642e-05 9.9586721211507211e-07 0.0000000000000000e+00  1.4747138067556731e-05 1.2033701712519922e-06 0.0000000000000000e+00  1.7444541517195113e-05 1.4047654327372380e-06 0.0000000000000000e+00  2.0057516375683011e-05 1.5894928690624884e-06 0.0000000000000000e+00  2.2395370508630617e-05 1.7425714880946015e-06 0.0000000000000000e+00  2.4150449619600138e-05 1.8450410587302072e-06 0.0000000000000000e+00  2.4833744754736049e-05 1.8763521075928309e-06 0.0000000000000000e+00  2.3644836021556283e-05 1.8210978741741357e-06 0.0000000000000000e+00  1.9159936675715036e-05 1.6867517213883748e-06 0.0000000000000000e+00  8.4606233497443216e-06 1.5553826307098878e-06 0.0000000000000000e+00  -1.5635193213304356e-05 1.7607059005997588e-06 0.0000000000000000e+00  -7.4575766661778329e-05 3.6000440424656048e-06 0.0000000000000000e+00  0.0000000000000000e+00 0.0000000000000000e+00 0.0000000000000000e+00  4.5346835570788939e-06 3.8258259360683850e-07 0.0000000000000000e+00  9.1459397933002077e-06 7.6989269606762849e-07 0.0000000000000000e+00  1.3906930491514145e-05 1.1661384767045251e-06 0.0000000000000000e+00  1.8872347647731882e-05 1.5735045739817697e-06 0.0000000000000000e+00  2.4065910834598178e-05 1.9909035301319429e-06 0.0000000000000000e+00  2.9463452903369714e-05 2.4124692338793467e-06 0.0000000000000000e+00  3.4969726270442641e-05 2.8258148175412680e-06 0.0000000000000000e+00  4.0386535241585295e-05 3.2102266440275754e-06 0.0000000000000000e+00  4.5368629470870661e-05 3.5352223086608238e-06 0.0000000000000000e+00  4.9360965460919688e-05 3.7602984676635396e-06 0.0000000000000000e+00  5.1504032886413435e-05 3.8372352941441817e-06 0.0000000000000000e+00  5.0477745807381081e-05 3.7168735874821112e-06 0.0000000000000000e+00  4.4220271360572481e-05 3.3620745480754024e-06 0.0000000000000000e+00  2.9406440598585288e-05 2.7634075209036137e-06 0.0000000000000000e+00  6.1719972803455075e-07 1.9196763954480610e-06 0.0000000000000000e+00  -4.9783873583667550e-05 5.3577365949710868e-07 0.0000000000000000e+00  0.0000000000000000e+00 0.0000000000000000e+00 0.0000000000000000e+00  6.7001357101032963e-06 5.6746634596715679e-07 0.0000000000000000e+00  1.3526248073080538e-05 1.1432501163078338e-06 0.0000000000000000e+00  2.0600370538060520e-05 1.7349807936137400e-06 0.0000000000000000e+00  2.8020369536366892e-05 2.3474964444651970e-06 0.0000000000000000e+00  3.5843204264558104e-05 2.9810348005543136e-06 0.0000000000000000e+00  4.4061895117539664e-05 3.6289311663444805e-06 0.0000000000000000e+00  5.2573703938546044e-05 4.2747623805030254e-06 0.0000000000000000e+00  6.1136730336842102e-05 4.8890456594467835e-06 0.0000000000000000e+00  6.9311744210657280e-05 5.4259196936185197e-06 0.0000000000000000e+00  7.6385467559885307e-05 5.8207552269022945e-06 0.0000000000000000e+00  8.1270567168894640e-05 5.9903397025071435e-06 0.0000000000000000e+00  8.2377298656411953e-05 5.8378764312731344e-06 0.0000000000000000e+00  7.7459138770758913e-05 5.2646213316067508e-06 0.0000000000000000e+00  6.3481345592831110e-05 4.1864662212841633e-06 0.0000000000000000e+00  3.6756182436501824e-05 2.5451954154990966e-06 0.0000000000000000e+00  -5.8001434826507404e-06 3.1214974881032919e-07 0.0000000000000000e+00  0.0000000000000000e+00 0.0000000000000000e+00 0.0000000000000000e+00  8.7315387715771686e-06 7.4333675863751562e-07 0.0000000000000000e+00  1.7649816765187581e-05 1.4999024312646540e-06 0.0000000000000000e+00  2.6938362407364432e-05 2.2821951357090548e-06 0.0000000000000000e+00  3.6754837240047095e-05 3.0995012907925594e-06 0.0000000000000000e+00  4.7212277154211915e-05 3.9556634871403596e-06 0.0000000000000000e+00  5.8352369398690774e-05 4.8460379867840808e-06 0.0000000000000000e+00  7.0107630538233481e-05 5.7534039814079893e-06 0.0000000000000000e+00  8.2249241317079971e-05 6.6427146724286171e-06 0.0000000000000000e+00  9.4317685135988645e-05 7.4549025141120099e-06 0.0000000000000000e+00  1.0553482055463109e-04 8.1006116870752205e-06 0.0000000000000000e+00  1.1469979292386426e-04 8.4558787821663879e-06 0.0000000000000000e+00  1.2008011367960374e-04 8.3634262104655999e-06 0.0000000000000000e+00  1.1933081670565394e-04 7.6449201002882418e-06 0.0000000000000000e+00  1.0952747164863677e-04 6.1299108080608693e-06 0.0000000000000000e+00  8.7517021739604429e-05 3.7036065139931074e-06 0.0000000000000000e+00  5.0973364871493115e-05 3.6238042472302446e-07 0.0000000000000000e+00  0.0000000000000000e+00 0.0000000000000000e+00 0.0000000000000000e+00  1.0566509224408844e-05 9.0512910517315359e-07 0.0000000000000000e+00  2.1392521603459787e-05 1.8298912264113291e-06 0.0000000000000000e+00  3.2736572532748370e-05 2.7933311030415934e-06 0.0000000000000000e+00  4.4834648001508109e-05 3.8113892573517490e-06 0.0000000000000000e+00  5.7882206961607688e-05 4.8945121912017660e-06 0.0000000000000000e+00  7.2006790368979426e-05 6.0440964714843968e-06 0.0000000000000000e+00  8.7227215396583447e-05 7.2472535855617875e-06 0.0000000000000000e+00  1.0339504184018120e-04 8.4693649955407780e-06 0.0000000000000000e+00  1.2011446178171297e-04 9.6440730190335427e-06 0.0000000000000000e+00  1.3663901463444644e-04 1.0661002922129773e-05 0.0000000000000000e+00  1.5174926980837428e-04 1.1353126093984120e-05 0.0000000000000000e+00  1.6362750775537004e-04 1.1488945574943809e-05 0.0000000000000000e+00  1.6976721943934035e-04 1.0780194166072885e-05 0.0000000000000000e+00  1.6699075432791190e-04 8.9230086741397357e-06 0.0000000000000000e+00  1.5169394808986047e-04 5.6965620074387899e-06 0.0000000000000000e+00  1.2044831121238393e-04 1.1423849123489557e-06 0.0000000000000000e+00  0.0000000000000000e+00 0.0000000000000000e+00 0.0000000000000000e+00  1.2131595353099146e-05 1.0463603832828400e-06 0.0000000000000000e+00  2.4605626101237860e-05 2.1201579467621164e-06 0.0000000000000000e+00  3.7767458349971495e-05 3.2486242739295022e-06 0.0000000000000000e+00  5.1949019516037088e-05 4.4567016856907995e-06 0.0000000000000000e+00  6.7454982356912458e-05 5.7649248695357280e-06 0.0000000000000000e+00  8.4538540333423955e-05 7.1858447406095062e-06 0.0000000000000000e+00  1.0336163215586500e-04 8.7181456333039682e-06 0.0000000000000000e+00  1.2393335797909939e-04 1.0337302792466103e-05 0.0000000000000000e+00  1.4601979949821313e-04 1.1981374944931859e-05 0.0000000000000000e+00  1.6901975661144593e-04 1.3530678109857409e-05 0.0000000000000000e+00  1.9180620003429291e-04 1.4781506644150468e-05 0.0000000000000000e+00  2.1254541787645438e-04 1.5418504292896440e-05 0.0000000000000000e+00  2.2852670246885818e-04 1.5000402223273662e-05 0.0000000000000000e+00  2.3605964318842241e-04 1.2991494688456790e-05 0.0000000000000000e+00  2.3049892052067451e-04 8.8921221687178273e-06 0.0000000000000000e+00  2.0638019971821344e-04 2.5288498489090834e-06 0.0000000000000000e+00  0.0000000000000000e+00 0.0000000000000000e+00 0.0000000000000000e+00  1.3344355003538821e-05 1.1592473014427924e-06 0.0000000000000000e+00  2.7119571691549056e-05 2.3547021785399375e-06 0.0000000000000000e+00  4.1765008427830107e-05 3.6230167296107640e-06 0.0000000000000000e+00  5.7721837502629779e-05 5.0001925474201954e-06 0.0000000000000000e+00  7.5427300534787752e-05 6.5203213552687336e-06 0.0000000000000000e+00  9.5298542042664762e-05 8.2128027977366589e-06 0.0000000000000000e+00  1.1769969999380616e-04 1.0096906943841081e-05 0.0000000000000000e+00  1.4288337730597179e-04 1.2171840799987320e-05 0.0000000000000000e+00  1.7089485244878720e-04 1.4399448182450927e-05 0.0000000000000000e+00  2.0142568614051556e-04 1.6675480600108903e-05 0.0000000000000000e+00  2.3360564356863394e-04 1.8784905414628019e-05 0.0000000000000000e+00  2.6573312811349701e-04 2.0339710511407230e-05 0.0000000000000000e+00  2.9496965075609448e-04 2.0710379733319391e-05 0.0000000000000000e+00  3.1705657412664230e-04 1.8993886224756679e-05 0.0000000000000000e+00  3.2610520309212524e-04 1.4112886734828695e-05 0.0000000000000000e+00  3.1435148251338421e-04 5.1833355525780629e-06 0.0000000000000000e+00  0.0000000000000000e+00 0.0000000000000000e+00 0.0000000000000000e+00  1.4118168764137013e-05 1.2351584496753199e-06 0.0000000000000000e+00  2.8753477252275369e-05 2.5154435060161344e-06 0.0000000000000000e+00  4.4438598619121846e-05 3.8873150756060967e-06 0.0000000000000000e+00  6.1729012451592957e-05 5.3990118904064098e-06 0.0000000000000000e+00  8.1209511113364551e-05 7.1008163652602532e-06 0.0000000000000000e+00  1.0349203991898308e-04 9.0441422098930959e-06 0.0000000000000000e+00  1.2919789794483205e-04 1.1278278564619200e-05 0.0000000000000000e+00  1.5891289540722681e-04 1.3842550995552257e-05 0.0000000000000000e+00  1.9309784091017861e-04 1.6749687653840210e-05 0.0000000000000000e+00  2.3192940987290918e-04 1.9952798367658900e-05 0.0000000000000000e+00  2.7504130461951398e-04 2.3283399413431258e-05 0.0000000000000000e+00  3.2114157531894325e-04 2.6343329746338191e-05 0.0000000000000000e+00  3.6751591586929778e-04 2.8338555547214401e-05 0.0000000000000000e+00  4.0950107021504319e-04 2.7882594421443537e-05 0.0000000000000000e+00  4.4006740037450589e-04 2.2901100830293974e-05 0.0000000000000000e+00  4.4941916714969762e-04 1.0882647133057914e-05 0.0000000000000000e+00  0.0000000000000000e+00 0.0000000000000000e+00 0.0000000000000000e+00  1.4369828794302672e-05 1.2654336249385968e-06 0.0000000000000000e+00  2.9330586845337074e-05 2.5838902936240763e-06 0.0000000000000000e+00  4.5496721729080416e-05 4.0107453022349549e-06 0.0000000000000000e+00  6.3530650067510045e-05 5.6061079724500889e-06 0.0000000000000000e+00  8.4165337742881776e-05 7.4371730097248293e-06 0.0000000000000000e+00  1.0822257842647959e-04 9.5802604282375771e-06 0.0000000000000000e+00  1.3662074879908042e-04 1.2121813542566819e-05 0.0000000000000000e+00  1.7035965222339113e-04 1.5156534588594172e-05 0.0000000000000000e+00  2.1045971426354436e-04 1.8778376630317231e-05 0.0000000000000000e+00  2.5781700374923581e-04 2.3054696283080509e-05 0.0000000000000000e+00  3.1291557256095094e-04 2.7962596826401452e-05 0.0000000000000000e+00  3.7532500791184249e-04 3.3245681070627498e-05 0.0000000000000000e+00  4.4293954270488531e-04 3.8121837969034531e-05 0.0000000000000000e+00  5.1106335102867495e-04 4.0777922630555891e-05 0.0000000000000000e+00  5.7175408303475393e-04 3.7751641154387155e-05 0.0000000000000000e+00  6.1399349311133287e-04 2.3643839481654419e-05 0.0000000000000000e+00  0.0000000000000000e+00 0.0000000000000000e+00 0.0000000000000000e+00  1.4029558333074528e-05 1.2425309557544532e-06 0.0000000000000000e+00  2.8699162918638576e-05 2.5435685074970528e-06 0.0000000000000000e+00  4.4680341771227732e-05 3.9649307917368733e-06 0.0000000000000000e+00  6.2718817459126382e-05 5.5761272618199867e-06 0.0000000000000000e+00  8.3675537440342800e-05 7.4589971185367690e-06 0.0000000000000000e+00  1.0857085925030414e-04 9.7133212744547310e-06 0.0000000000000000e+00  1.3862883330210455e-04 1.2463657317049429e-05 0.0000000000000000e+00  1.7531186827529312e-04 1.5867210684427341e-05 0.0000000000000000e+00  2.2032261570324594e-04 2.0120993576163788e-05 0.0000000000000000e+00  2.7552457699273216e-04 2.5461607238960313e-05 0.0000000000000000e+00  3.4268973926100980e-04 3.2136652301155546e-05 0.0000000000000000e+00  4.2292096824118197e-04 4.0287927434496790e-05 0.0000000000000000e+00  5.1555711791380094e-04 4.9592891109063521e-05 0.0000000000000000e+00  6.1653012943475968e-04 5.8347783401157444e-05 0.0000000000000000e+00  7.1690771689327957e-04 6.1734524269433166e-05 0.0000000000000000e+00  8.0268751736565906e-04 4.9956349353617901e-05 0.0000000000000000e+00  0.0000000000000000e+00 0.0000000000000000e+00 0.0000000000000000e+00  1.3052581752819482e-05 1.1613628015519553e-06 0.0000000000000000e+00  2.6757207613336809e-05 2.3829376355908058e-06 0.0000000000000000e+00  4.1803881936367943e-05 3.7289128829324676e-06 0.0000000000000000e+00  5.8979364664798777e-05 5.2734271605343868e-06 0.0000000000000000e+00  7.9226096691511639e-05 7.1070963442697668e-06 0.0000000000000000e+00  1.0371434773430994e-04 9.3458170222598473e-06 0.0000000000000000e+00  1.3393075798973279e-04 1.2143332736335209e-05 0.0000000000000000e+00  1.7178205526546098e-04 1.5709902785179070e-05 0.0000000000000000e+00  2.1970042275036214e-04 2.0340592072375900e-05 0.0000000000000000e+00  2.8070691355696524e-04 2.6457257418095863e-05 0.0000000000000000e+00  3.5832262399072108e-04 3.4663136236782519e-05 0.0000000000000000e+00  4.5608372715154035e-04 4.5776914680981019e-05 0.0000000000000000e+00  5.7619221145810699e-04 6.0675947288588491e-05 0.0000000000000000e+00  7.1667978705148064e-04 7.9276067093563118e-05 0.0000000000000000e+00  8.6807179124982509e-04 9.6709277267801274e-05 0.0000000000000000e+00  1.0157652636079712e-03 1.0010268194551189e-04 0.0000000000000000e+00  0.0000000000000000e+00 0.0000000000000000e+00 0.0000000000000000e+00  1.1430725056492199e-05 1.0205814126966498e-06 0.0000000000000000e+00  2.3477957917976870e-05 2.0982740215384063e-06 0.0000000000000000e+00  3.6799338289052103e-05 3.2943308274569693e-06 0.0000000000000000e+00  5.2162314221239678e-05 4.6808499138197172e-06 0.0000000000000000e+00  7.0515968541992483e-05 6.3481445303575917e-06 0.0000000000000000e+00  9.3086670540801740e-05 8.4151084044404941e-06 0.0000000000000000e+00  1.2150942592876991e-04 1.1044851453017048e-05 0.0000000000000000e+00  1.5800855606574627e-04 1.4469877502097842e-05 0.0000000000000000e+00  2.0563820986394931e-04 1.9035437248778105e-05 0.0000000000000000e+00  2.6857333165611878e-04 2.5279139362161049e-05 0.0000000000000000e+00  3.5237431317077677e-04 3.4083823459409166e-05 0.0000000000000000e+00  4.6395950710100903e-04 4.6969521166837548e-05 0.0000000000000000e+00  6.1053975384157847e-04 6.6584769964116701e-05 0.0000000000000000e+00  7.9562017640338217e-04 9.7079716173073248e-05 0.0000000000000000e+00  1.0080272798906930e-03 1.4072276934354549e-04 0.0000000000000000e+00  1.2322474473645633e-03 1.5704146641753482e-04 0.0000000000000000e+00  0.0000000000000000e+00 0.0000000000000000e+00 0.0000000000000000e+00  9.2019200037645469e-06 8.2351929402728403e-07 0.0000000000000000e+00  1.8931605780440834e-05 1.6958408797212846e-06 0.0000000000000000e+00  2.9756050137096742e-05 2.6694845445873511e-06 0.0000000000000000e+00  4.2349962000149676e-05 3.8069871886772272e-06 0.0000000000000000e+00  5.7570308484485345e-05 5.1877032413895069e-06 0.0000000000000000e+00  7.6561972997828007e-05 6.9173052814426974e-06 0.0000000000000000e+00  1.0091475848356636e-04 9.1418797416132584e-06 0.0000000000000000e+00  1.3290270000126974e-04 1.2070179350058862e-05 0.0000000000000000e+00  1.7585137697418788e-04 1.6011907116889911e-05 0.0000000000000000e+00  2.3469236012326283e-04 2.1452183633188063e-05 0.0000000000000000e+00  3.1675078589602320e-04 2.9218573889615101e-05 0.0000000000000000e+00  4.3268323977477426e-04 4.0901487526933585e-05 0.0000000000000000e+00  5.9696607753554254e-04 5.9967974313858438e-05 0.0000000000000000e+00  8.2561485098949286e-04 9.4685355380587905e-05 0.0000000000000000e+00  1.1223883941756090e-03 1.6583680617266228e-04 0.0000000000000000e+00  1.3786196002128818e-03 3.4234826407609614e-04 0.0000000000000000e+00  0.0000000000000000e+00 0.0000000000000000e+00 0.0000000000000000e+00  6.4551515149902880e-06 5.7852076047220792e-07 0.0000000000000000e+00  1.3297675509203922e-05 1.1927099678371443e-06 0.0000000000000000e+00  2.0946141543311857e-05 1.8810036915610192e-06 0.0000000000000000e+00  2.9906235577598852e-05 2.6894221818117988e-06 0.0000000000000000e+00  4.0833701570318381e-05 3.6765623807862537e-06 0.0000000000000000e+00  5.4627795192040474e-05 4.9201861288283343e-06 0.0000000000000000e+00  7.2578440859472106e-05 6.5258782556178708e-06 0.0000000000000000e+00  9.6607717802087536e-05 8.6377100899430754e-06 0.0000000000000000e+00  1.2967841833916598e-04 1.1449261495730678e-05 0.0000000000000000e+00  1.7649955264405136e-04 1.5210574276055715e-05 0.0000000000000000e+00  2.4475048185989667e-04 2.0228694309050974e-05 0.0000000000000000e+00  3.4715002034613413e-04 2.6907922807524123e-05 0.0000000000000000e+00  5.0463240602255095e-04 3.6157628853121573e-05 0.0000000000000000e+00  7.4991226148476856e-04 5.1596948385113381e-05 0.0000000000000000e+00  1.1267085841558972e-03 8.7803501198739100e-05 0.0000000000000000e+00  1.6703728185569050e-03 1.8964923441568455e-04 0.0000000000000000e+00  0.0000000000000000e+00 0.0000000000000000e+00 0.0000000000000000e+00  3.3286277884928082e-06 2.9853191238408986e-07 0.0000000000000000e+00  6.8627019337388258e-06 6.1590522994668840e-07 0.0000000000000000e+00  1.0825085826759137e-05 9.7242794201064120e-07 0.0000000000000000e+00  1.5487708642044993e-05 1.3924583506429924e-06 0.0000000000000000e+00  2.1208046504396960e-05 1.9069592327480411e-06 0.0000000000000000e+00  2.8484969711559695e-05 2.5565647569102617e-06 0.0000000000000000e+00  3.8050114685633579e-05 3.3946016215801883e-06 0.0000000000000000e+00  5.1025282564648295e-05 4.4873042610177804e-06 0.0000000000000000e+00  6.9205854401659529e-05 5.9010249673011553e-06 0.0000000000000000e+00  9.5590752995542897e-05 7.6415901826725069e-06 0.0000000000000000e+00  1.3539659503787816e-04 9.4301976628480233e-06 0.0000000000000000e+00  1.9796310202962545e-04 9.9445908615871152e-06 0.0000000000000000e+00  2.9981953610083798e-04 4.4411538619921400e-06 0.0000000000000000e+00  4.6626549477802036e-04 -2.1439521544444519e-05 0.0000000000000000e+00  7.1398331782761466e-04 -9.8966959648127565e-05 0.0000000000000000e+00  9.8243409416744068e-04 -2.4413348840632350e-04 0.0000000000000000e+00  0.0000000000000000e+00 0.0000000000000000e+00 0.0000000000000000e+00  0.0000000000000000e+00 0.0000000000000000e+00 0.0000000000000000e+00  0.0000000000000000e+00 0.0000000000000000e+00 0.0000000000000000e+00  0.0000000000000000e+00 0.0000000000000000e+00 0.0000000000000000e+00  0.0000000000000000e+00 0.0000000000000000e+00 0.0000000000000000e+00  0.0000000000000000e+00 0.0000000000000000e+00 0.0000000000000000e+00  0.0000000000000000e+00 0.0000000000000000e+00 0.0000000000000000e+00  0.0000000000000000e+00 0.0000000000000000e+00 0.0000000000000000e+00  0.0000000000000000e+00 0.0000000000000000e+00 0.0000000000000000e+00  0.0000000000000000e+00 0.0000000000000000e+00 0.0000000000000000e+00  0.0000000000000000e+00 0.0000000000000000e+00 0.0000000000000000e+00  0.0000000000000000e+00 0.0000000000000000e+00 0.0000000000000000e+00  0.000