<?xml version="1.0"?>
<VTKFile type="UnstructuredGrid"  version="0.1"  >
<UnstructuredGrid>
<Piece  NumberOfPoints="289" NumberOfCells="512">
<Points>
<DataArray  type="Float64"  NumberOfComponents="3"  format="ascii">0 0 0  0.0625 0 0  0.125 0 0  0.1875 0 0  0.25 0 0  0.3125 0 0  0.375 0 0  0.4375 0 0  0.5 0 0  0.5625 0 0  0.625 0 0  0.6875 0 0  0.75 0 0  0.8125 0 0  0.875 0 0  0.9375 0 0  1 0 0  0 0.0625 0  0.06253368962671997 0.06249787867566804 0  0.1250688321895654 0.06249571643564981 0  0.1876069570949968 0.06249347507098723 0  0.2501497554797505 0.06249112226682256 0  0.3126991791964475 0.06248863511729481 0  0.3752575669717952 0.06248600401935402 0  0.4378278197214522 0.06248323640436658 0  0.5004136693343144 0.06248035880858012 0  0.5630201392493087 0.06247741383359021 0  0.6256544325789539 0.06247444419846562 0  0.6883278545409615 0.06247144472343615 0  0.7510604473384708 0.06246822747484388 0  0.8138933465521306 0.06246401556567874 0  0.8769250632714093 0.06245605769775289 0  0.9404289004748608 0.06243428090195794 0  1.005279008224368 0.06235814512832324 0  0 0.125 0  0.06256594081389941 0.1249957947838808 0  0.1251347141875077 0.1249915045968979 0  0.1877093002224931 0.1249870496254621 0  0.2502929903358959 0.1249823614239704 0  0.312889575063219 0.1249773900372212 0  0.3755035779534966 0.1249721123903102 0  0.4381405678603446 0.1249665413385686 0  0.500807608519064 0.1249607333440399 0  0.5635139624028246 0.1249547901934462 0  0.6262722942454275 0.1249488460037872 0  0.6891009012349546 0.1249430253827648 0  0.7520280857514327 0.1249373589554827 0  0.8151008340434647 0.1249316924142345 0  0.8784007422174012 0.1249259648406666 0  0.9420633333062595 0.1249231243704568 0  1.006235627946495 0.1249469918026993 0  0 0.1875 0  0.06259537705667703 0.187493792525906 0  0.1251948207303389 0.1874874503176496 0  0.1878026055489009 0.1874808456321043 0  0.2504234433571625 0.1874738664571957 0  0.31306274211119 0.1874664271448316 0  0.3757269185234359 0.1874584819859952 0  0.4384237937008421 0.1874500417495047 0  0.5011631147131593 0.1874411917446673 0  0.563957268356148 0.1874321072716365 0  0.6268222879673673 0.1874230578505859 0  0.6897792837781176 0.1874143851229909 0  0.7528563516187172 0.1874064311481335 0  0.8160904177919007 0.1873993801295591 0  0.879525930433788 0.1873928998021041 0  0.9431988032261921 0.1873848654448163 0  1.007073002018884 0.1873642456281953 0  0 0.25 0  0.06262076795266827 0.2499919218008592 0  0.1252466295528104 0.2499836514530909 0  0.1878829327010215 0.2499750045029977 0  0.2505355585972399 0.2499658144049075 0  0.3132112321932985 0.249955945976654 0  0.3759178875584399 0.2499453142450778 0  0.4386651086511286 0.2499339101103323 0  0.5014646633207118 0.2499218332527904 0  0.5643311340842744 0.2499093303826613 0  0.6272826021949598 0.2498968323039065 0  0.6903412072255014 0.2498849749672964 0  0.7535330482643227 0.2498745758654103 0  0.8168860125088996 0.2498665147687603 0  0.8804221699771864 0.2498614339150494 0  0.9441379991283179 0.2498591734322152 0  1.007963720421909 0.2498585106885961 0  0 0.3125 0  0.06264108954959979 0.3124902401024504 0  0.1252880455103978 0.312480222196567 0  0.1879470190894126 0.3124696949052294 0  0.2506247578406317 0.3124584233279111 0  0.3133289501492557 0.3124462036105926 0  0.376068625848391 0.3124328857656999 0  0.4388546288598213 0.3124184083009264 0  0.5017001664192772 0.3124028483346428 0  0.56462140749324 0.3123864899035981 0  0.6276380249906436 0.3123699096440232 0  0.6907734028563983 0.3123540704165606 0  0.7540538750657433 0.3123403960709004 0  0.8175057206960462 0.3123307714122575 0  0.881147707166311 0.312327377926752 0  0.9449763670436185 0.3123322905369197 0  1.008943394050153 0.3123469899242304 0  0 0.375 0  0.06265557042958492 0.37498881325825 0  0.1253174946463188 0.3749772952061437 0  0.1879924248243577 0.3749651176923795 0  0.2506876375134457 0.3749519624797445 0  0.313411395301476 0.3749375338831297 0  0.3761733698733097 0.3749215821626783 0  0.4389851467909811 0.3749039437714367 0  0.50186082450305 0.3748846065986591 0  0.5648176952467192 0.374863810215121 0  0.6278769337458067 0.3748421911655929 0  0.6910640866809101 0.3748209777333981 0  0.7544089046936042 0.3748022196730543 0  0.8179436584807255 0.3747889934851497 0  0.8816986241649403 0.374785437669383 0  0.9456933745059652 0.3747963377101813 0  1.009923977768704 0.3748257958643291 0  0 0.4375 0  0.0626637219559273 0.4374877143757239 0  0.1253339859539654 0.4374750201452262 0  0.1880176279801866 0.4374615055517271 0  0.2507220986141673 0.4374467559030904 0  0.3134558224927408 0.4374303598706124 0  0.3762286267659961 0.4374119275347234 0  0.4390522710254609 0.4373911285142557 0  0.5019411175313514 0.4373677631424923 0  0.5649129831212102 0.4373418860869441 0  0.6279902030290144 0.4373140092554622 0  0.6912008914090323 0.4372854155677117 0  0.7545802673787784 0.4372586063564347 0  0.8181716796475196 0.4372378575081354 0  0.8820265769483466 0.4372297253405271 0  0.946202215884229 0.4372430601902597 0  1.01075568105647 0.4372876473463129 0  0 0.5 0  0.06266535170060093 0.499987020363582 0  0.125337139374649 0.4999735571562611 0  0.1880220698099973 0.4999591145694364 0  0.2507274142161328 0.4999431745736109 0  0.3134613410114518 0.4999251915961435 0  0.3762333207527815 0.4999045970738724 0  0.4390546488830134 0.4998808229753521 0  0.5019391576827265 0.4998533605435843 0  0.5649042305220998 0.4998218824943805 0  0.627972294608943 0.4997864756815017 0  0.6911730520239492 0.4997480571871703 0  0.7545467874819078 0.4997090726969478 0  0.8181490733156828 0.4996745710569294 0  0.8820568510714359 0.4996536248827884 0  0.94637480720101 0.499660632744976 0  1.011238863160122 0.499715020436052 0  0 0.5625 0  0.06266055908580451 0.562486805615207 0  0.1253271776922955 0.5624730641611239 0  0.1880061453126717 0.5624582052780285 0  0.2507042260786803 0.5624416121808578 0  0.3134289361999957 0.5624225997197941 0  0.3761888834609256 0.562400396525516 0  0.4389942189207107 0.5623741381975327 0  0.5018572926106122 0.5623428866477691 0  0.5647936842650184 0.5623057066632035 0  0.6278239254736777 0.5622618610942693 0  0.6909764806074162 0.5622112412426732 0  0.7542929415769842 0.5621552409476034 0  0.817836859011037 0.5620984078006025 0  0.8817078146375146 0.5620512777118217 0  0.9460611560839155 0.562034471973124 0  1.011129330177881 0.5620825044671126 0  0 0.625 0  0.06264971262293696 0.6249871329317858 0  0.1253048798762793 0.6249736778794324 0  0.1879711317972834 0.6249590122396228 0  0.2506544515897998 0.6249424414415634 0  0.3133613705379946 0.6249231574706563 0  0.3760991955920808 0.6249001917649269 0  0.4388763063096903 0.6248723634506628 0  0.501702601168321 0.62483822965066 0  0.5645902679141009 0.6247960586312789 0  0.6275552539351469 0.624743879496904 0  0.6906202258899495 0.6246797373658571 0  0.7538206092729154 0.6246024490780623 0  0.8172166986129592 0.6245134991226932 0  0.8809167589464928 0.62442133227479 0  0.945116990448766 0.6243499689045876 0  1.010158800944446 0.624352683475255 0  0 0.6875 0  0.0626334096487107 0.6874880425096271 0  0.1252714963008466 0.6874754900899827 0  0.1879190517045858 0.6874617040043096 0  0.2505810847350049 0.68744595209194 0  0.3132629175594478 0.6874273489004218 0  0.3759702675273017 0.6874047783215732 0  0.4387093167087031 0.6873767904105095 0  0.50148679267825 0.6873414631353996 0  0.5643101484027242 0.6872962223955429 0  0.627188103533751 0.6872376286855423 0  0.6901322588485963 0.6871611925673504 0  0.753161605041175 0.6870614500246528 0  0.8163143397009182 0.6869330296994641 0  0.8796768785856776 0.6867748495797124 0  0.9434488803375516 0.6866030579876464 0  1.008066511069572 0.6864836755109494 0  0 0.75 0  0.06261242235553223 0.7499895406821345 0  0.1252286328621132 0.7499785226718285 0  0.187852477931805 0.7499663390565126 0  0.250487894886381 0.7499522782940082 0  0.3131389136351445 0.7499354524781582 0  0.3758095920649314 0.7499146976897039 0  0.4385038389748448 0.7498884283697187 0  0.5012250557398639 0.7498544174776192 0  0.5639755062044888 0.7498094577169485 0  0.6267553399734914 0.7497488341321834 0  0.6895613831092935 0.7496655076789067 0  0.7523866306865158 0.7495489063537349 0  0.8152242853204332 0.7493834305438213 0  0.8780895000787795 0.7491481012809834 0  0.9410983057042054 0.7488253474053518 0  1.004690672825284 0.7484556652504807 0  0 0.8125 0  0.0625876374914741 0.81249159082085 0  0.1251781198047271 0.812482706748241 0  0.1877743078081652 0.8124728270906501 0  0.2503790617765474 0.8124613305967286 0  0.3129951772686395 0.8124474233789373 0  0.3756252184437572 0.8124300342650037 0  0.4382711617611204 0.8124076537670112 0  0.5009336916230707 0.8123780757037236 0  0.5636108561803856 0.8123379678559441 0  0.6262955489143757 0.8122821335418896 0  0.6889708735603679 0.812202191820678 0  0.7516019306634512 0.8120841073849185 0  0.814122786787176 0.8119033133090816 0  0.8764235136307511 0.8116146297182202 0  0.9383815494882254 0.8111321914950944 0  1.000204263217398 0.81031226122565 0  0 0.875 0  0.06255999982774954 0.8749941090130238 0  0.1251218883556822 0.8749878719695156 0  0.1876875484488146 0.8749809069372312 0  0.2502588211730904 0.8749727526120175 0  0.3128374224230729 0.8749628098500585 0  0.3754247559981967 0.8749502545808557 0  0.438021527060689 0.8749339000498534 0  0.5006269674149217 0.874911969244349 0  0.5632372884865566 0.8748817050051086 0  0.6258425511568598 0.8748386778450403 0  0.6884201772963228 0.8747755065026431 0  0.7509210738086185 0.8746793622204194 0  0.8132389459393505 0.8745266726690152 0  0.8751406573786151 0.8742701714991332 0  0.936110454979614 0.8737994121110444 0  0.995070918319759 0.8727767767321283 0  0 0.9375 0  0.06253046954771518 0.937496966564404 0  0.1250618793758582 0.9374937508538607 0  0.1875951613731488 0.9374901509470878 0  0.2501312127609234 0.9374859212870827 0  0.3126708407105777 0.9374807401001795 0  0.3752146429237856 0.9374741603000772 0  0.4377627622592337 0.9374655309798653 0  0.5003
[...]
<PointData  Vectors="f_54"> 
<DataArray  type="Float64"  Name="f_54"  NumberOfComponents="3" format="ascii">0.0000000000000000e+00 0.0000000000000000e+00 0.0000000000000000e+00  0.0000000000000000e+00 0.0000000000000000e+00 0.0000000000000000e+00  0.0000000000000000e+00 0.0000000000000000e+00 0.0000000000000000e+00  0.0000000000000000e+00 0.0000000000000000e+00 0.0000000000000000e+00  0.0000000000000000e+00 0.0000000000000000e+00 0.0000000000000000e+00  0.0000000000000000e+00 0.0000000000000000e+00 0.0000000000000000e+00  0.0000000000000000e+00 0.0000000000000000e+00 0.0000000000000000e+00  0.0000000000000000e+00 0.0000000000000000e+00 0.0000000000000000e+00  0.0000000000000000e+00 0.0000000000000000e+00 0.0000000000000000e+00  0.0000000000000000e+00 0.0000000000000000e+00 0.0000000000000000e+00  0.0000000000000000e+00 0.0000000000000000e+00 0.0000000000000000e+00  0.0000000000000000e+00 0.0000000000000000e+00 0.0000000000000000e+00  0.0000000000000000e+00 0.0000000000000000e+00 0.0000000000000000e+00  0.0000000000000000e+00 0.0000000000000000e+00 0.0000000000000000e+00  0.0000000000000000e+00 0.0000000000000000e+00 0.0000000000000000e+00  0.0000000000000000e+00 0.0000000000000000e+00 0.0000000000000000e+00  0.0000000000000000e+00 0.0000000000000000e+00 0.0000000000000000e+00  0.0000000000000000e+00 0.0000000000000000e+00 0.0000000000000000e+00  -4.3211453845030278e-06 -5.7072440662307976e-08 0.0000000000000000e+00  -8.7602728021247443e-06 -1.1357596581907222e-07 0.0000000000000000e+00  -1.3434099304825616e-05 -1.6861050968566816e-07 0.0000000000000000e+00  -1.8455455221951028e-05 -2.2057654725737496e-07 0.0000000000000000e+00  -2.3929656210991864e-05 -2.6675952747610718e-07 0.0000000000000000e+00  -2.9948752663942472e-05 -3.0285135629811535e-07 0.0000000000000000e+00  -3.6582880403779166e-05 -3.2242076617896903e-07 0.0000000000000000e+00  -4.3868030982702163e-05 -3.1638140604923903e-07 0.0000000000000000e+00  -5.1789995659211533e-05 -2.7254872631176675e-07 0.0000000000000000e+00  -6.0265602878576834e-05 -1.7536636561857660e-07 0.0000000000000000e+00  -6.9126432591221120e-05 -5.5768857925532677e-09 0.0000000000000000e+00  -7.8122857229489726e-05 2.6192481125166094e-07 0.0000000000000000e+00  -8.7008943767813307e-05 6.7021393812505521e-07 0.0000000000000000e+00  -9.5924995065713108e-05 1.3366232688612855e-06 0.0000000000000000e+00  -1.0692432998606513e-04 2.6988145161675118e-06 0.0000000000000000e+00  -1.3052719719168206e-04 6.6555952230332227e-06 0.0000000000000000e+00  0.0000000000000000e+00 0.0000000000000000e+00 0.0000000000000000e+00  -8.5287083903391760e-06 -1.1476964677945806e-07 0.0000000000000000e+00  -1.7295610508220915e-05 -2.2873750992957635e-07 0.0000000000000000e+00  -2.6537059719465457e-05 -3.4046559421199115e-07 0.0000000000000000e+00  -3.6483121352745401e-05 -4.4716331087467431e-07 0.0000000000000000e+00  -4.7351118192603817e-05 -5.4386254896956842e-07 0.0000000000000000e+00  -5.9334937033849532e-05 -6.2244024730321456e-07 0.0000000000000000e+00  -7.2588400390883849e-05 -6.7049639262197610e-07 0.0000000000000000e+00  -8.7200951811082538e-05 -6.7017777793806413e-07 0.0000000000000000e+00  -1.0316414856061336e-04 -5.9718116710099561e-07 0.0000000000000000e+00  -1.2032834613119455e-04 -4.2039685623706140e-07 0.0000000000000000e+00  -1.3835099253544825e-04 -1.0299886927200826e-07 0.0000000000000000e+00  -1.5664126340673998e-04 3.9356264055440316e-07 0.0000000000000000e+00  -1.7430625004782882e-04 1.0989320110370473e-06 0.0000000000000000e+00  -1.9007029662133568e-04 2.0007531723163422e-06 0.0000000000000000e+00  -2.0188584869502892e-04 2.9048091183069566e-06 0.0000000000000000e+00  -2.0441996696363778e-04 2.7173046788704598e-06 0.0000000000000000e+00  0.0000000000000000e+00 0.0000000000000000e+00 0.0000000000000000e+00  -1.2502059422429442e-05 -1.7331597495280510e-07 0.0000000000000000e+00  -2.5365656718816530e-05 -3.4624317399083980e-07 0.0000000000000000e+00  -3.8951205202564271e-05 -5.1751163006819321e-07 0.0000000000000000e+00  -5.3613245191023467e-05 -6.8395765782150408e-07 0.0000000000000000e+00  -6.9692752062763068e-05 -8.3931919915775886e-07 0.0000000000000000e+00  -8.7503223005136783e-05 -9.7274218007894107e-07 0.0000000000000000e+00  -1.0730779194361856e-04 -1.0669601368158957e-06 0.0000000000000000e+00  -1.2928417999251920e-04 -1.0962154864306068e-06 0.0000000000000000e+00  -1.5347392515770861e-04 -1.0242141144499611e-06 0.0000000000000000e+00  -1.7971209271477922e-04 -8.0284657245962932e-07 0.0000000000000000e+00  -2.0753315917005445e-04 -3.7325837048968315e-07 0.0000000000000000e+00  -2.3604592296461399e-04 3.2750312088572968e-07 0.0000000000000000e+00  -2.6375767810237432e-04 1.3477736730714213e-06 0.0000000000000000e+00  -2.8828359969621024e-04 2.6779384138097895e-06 0.0000000000000000e+00  -3.0575470415611345e-04 4.1655532293203716e-06 0.0000000000000000e+00  -3.0955375802691788e-04 5.4357448188460818e-06 0.0000000000000000e+00  0.0000000000000000e+00 0.0000000000000000e+00 0.0000000000000000e+00  -1.6117492656382102e-05 -2.3228887139148095e-07 0.0000000000000000e+00  -3.2722536205119120e-05 -4.6549756389950069e-07 0.0000000000000000e+00  -5.0304087194213368e-05 -6.9952210823463573e-07 0.0000000000000000e+00  -6.9349651411400166e-05 -9.3202362464251014e-07 0.0000000000000000e+00  -9.0338738952675771e-05 -1.1569215034265517e-06 0.0000000000000000e+00  -1.1372850443102647e-04 -1.3624106716870622e-06 0.0000000000000000e+00  -1.3992775089453809e-04 -1.5283559586838260e-06 0.0000000000000000e+00  -1.6925449564258847e-04 -1.6229888161561093e-06 0.0000000000000000e+00  -2.0187118684906850e-04 -1.5990353888436839e-06 0.0000000000000000e+00  -2.3769048772708713e-04 -1.3898829181572204e-06 0.0000000000000000e+00  -2.7624321192301914e-04 -9.0739926842261171e-07 0.0000000000000000e+00  -3.1649788038117427e-04 -4.4967799573099761e-08 0.0000000000000000e+00  -3.5661706967871196e-04 1.3073253127972705e-06 0.0000000000000000e+00  -3.9362947956295607e-04 3.2237045070049099e-06 0.0000000000000000e+00  -4.2300766974248167e-04 5.6653928908780168e-06 0.0000000000000000e+00  -4.3827865468126635e-04 8.3587315403754141e-06 0.0000000000000000e+00  0.0000000000000000e+00 0.0000000000000000e+00 0.0000000000000000e+00  -1.9248771689174522e-05 -2.9037182168892886e-07 0.0000000000000000e+00  -3.9111390179054178e-05 -5.8401456140080808e-07 0.0000000000000000e+00  -6.0207821814763032e-05 -8.8318324709967404e-07 0.0000000000000000e+00  -8.3165900783796520e-05 -1.1878642314320220e-06 0.0000000000000000e+00  -1.0861902698845632e-04 -1.4941224353098241e-06 0.0000000000000000e+00  -1.3719520228335592e-04 -1.7917643348900886e-06 0.0000000000000000e+00  -1.6949266746231037e-04 -2.0609995159648314e-06 0.0000000000000000e+00  -2.0603575785265880e-04 -2.2677450527127658e-06 0.0000000000000000e+00  -2.4720257838697457e-04 -2.3572579682456953e-06 0.0000000000000000e+00  -2.9311393536905468e-04 -2.2460478206920200e-06 0.0000000000000000e+00  -3.4347121994899205e-04 -1.8128139137696647e-06 0.0000000000000000e+00  -3.9733094352493835e-04 -8.9101782513794958e-07 0.0000000000000000e+00  -4.5280863945055123e-04 7.3051942955179368e-07 0.0000000000000000e+00  -5.0672354082086741e-04 3.2860344736185013e-06 0.0000000000000000e+00  -5.5425054416766769e-04 6.9679040456560465e-06 0.0000000000000000e+00  -5.8878525426816401e-04 1.1785424991619042e-05 0.0000000000000000e+00  0.0000000000000000e+00 0.0000000000000000e+00 0.0000000000000000e+00  -2.1769588572959641e-05 -3.4521061733293495e-07 0.0000000000000000e+00  -4.4274901196389090e-05 -6.9708115147861140e-07 0.0000000000000000e+00  -6.8264796533907106e-05 -1.0614581856125251e-06 0.0000000000000000e+00  -9.4510586132242637e-05 -1.4423003936207612e-06 0.0000000000000000e+00  -1.2381155947188555e-04 -1.8401365679336105e-06 0.0000000000000000e+00  -1.5699217740591960e-04 -2.2496775317303145e-06 0.0000000000000000e+00  -1.9488566420586368e-04 -2.6560737038875227e-06 0.0000000000000000e+00  -2.3829630442145569e-04 -3.0290921263320924e-06 0.0000000000000000e+00  -2.8792951225642519e-04 -3.3142146527270979e-06 0.0000000000000000e+00  -3.4427490020005620e-04 -3.4194153828143679e-06 0.0000000000000000e+00  -4.0742403310799717e-04 -3.1964255170685857e-06 0.0000000000000000e+00  -4.7680375392641846e-04 -2.4163130817754993e-06 0.0000000000000000e+00  -5.5081336730178245e-04 -7.4265030297221460e-07 0.0000000000000000e+00  -6.2637998456759579e-04 2.2860074919566716e-06 0.0000000000000000e+00  -6.9850644045971991e-04 7.2360170101677916e-06 0.0000000000000000e+00  -7.5998991902025690e-04 1.4668190500917247e-05 0.0000000000000000e+00  0.0000000000000000e+00 0.0000000000000000e+00 0.0000000000000000e+00  -2.3558310033178353e-05 -3.9342082526638409e-07 0.0000000000000000e+00  -4.7962657697078703e-05 -7.9772754521291388e-07 0.0000000000000000e+00  -7.4081289398103217e-05 -1.2234132363829073e-06 0.0000000000000000e+00  -1.0282435797774053e-04 -1.6799467175791183e-06 0.0000000000000000e+00  -1.3516094626838919e-04 -2.1746911552351354e-06 0.0000000000000000e+00  -1.7212971822149189e-04 -2.7109573147839920e-06 0.0000000000000000e+00  -2.1483810443410543e-04 -3.2845510959559017e-06 0.0000000000000000e+00  -2.6444172442799396e-04 -3.8777581331037827e-06 0.0000000000000000e+00  -3.2209099426512398e-04 -4.4490303603934232e-06 0.0000000000000000e+00  -3.8882535972892355e-04 -4.9156090753731112e-06 0.0000000000000000e+00  -4.6538783812051759e-04 -5.1249495742264004e-06 0.0000000000000000e+00  -5.5192595699658635e-04 -4.8095588731124596e-06 0.0000000000000000e+00  -6.4754615206736633e-04 -3.5204604792139935e-06 0.0000000000000000e+00  -7.4970984676785873e-04 -5.4162995851504184e-07 0.0000000000000000e+00  -8.5351733579073846e-04 5.1890850277413741e-06 0.0000000000000000e+00  -9.5102138186629632e-04 1.5075028872633695e-05 0.0000000000000000e+00  0.0000000000000000e+00 0.0000000000000000e+00 0.0000000000000000e+00  -2.4505121881520701e-05 -4.3079029116151384e-07 0.0000000000000000e+00  -4.9945692779228939e-05 -8.7710835075551003e-07 0.0000000000000000e+00  -7.7289806310818147e-05 -1.3547101386560529e-06 0.0000000000000000e+00  -1.0757038207230929e-04 -1.8796548372947990e-06 0.0000000000000000e+00  -1.4191683203283454e-04 -2.4680726002875904e-06 0.0000000000000000e+00  -1.8158430672904010e-04 -3.1352822934819354e-06 0.0000000000000000e+00  -2.2797672836109750e-04 -3.8936487548924618e-06 0.0000000000000000e+00  -2.8265614248695398e-04 -4.7480310734894254e-06 0.0000000000000000e+00  -3.4732476603594164e-04 -5.6866618607806114e-06 0.0000000000000000e+00  -4.2375633600508439e-04 -6.6634358116856774e-06 0.0000000000000000e+00  -5.1363901625602298e-04 -7.5643015600714772e-06 0.0000000000000000e+00  -6.1827383474855968e-04 -8.1451506072725579e-06 0.0000000000000000e+00  -7.3805605131743127e-04 -7.9216565998338342e-06 0.0000000000000000e+00  -8.7166886081790603e-04 -5.9875571789134339e-06 0.0000000000000000e+00  -1.0149723264635659e-03 -7.5334703824197964e-07 0.0000000000000000e+00  -1.1597049672301535e-03 1.0330566384308100e-05 0.0000000000000000e+00  0.0000000000000000e+00 0.0000000000000000e+00 0.0000000000000000e+00  -2.4521312239414667e-05 -4.5269964749840526e-07 0.0000000000000000e+00  -5.0035777586513704e-05 -9.2536087489966621e-07 0.0000000000000000e+00  -7.7579790295319499e-05 -1.4389218831133199e-06 0.0000000000000000e+00  -1.0827840094885877e-04 -2.0162684522083828e-06 0.0000000000000000e+00  -1.4339341777240192e-04 -2.6831732987469373e-06 0.0000000000000000e+00  -1.8437510871573286e-04 -3.4690716917619831e-06 0.0000000000000000e+00  -2.3291653115625654e-04 -4.4073364618816835e-06 0.0000000000000000e+00  -2.9100619283515850e-04 -5.5342571107614497e-06 0.0000000000000000e+00  -3.6096820738720748e-04 -6.8849254242225383e-06 0.0000000000000000e+00  -4.4546685780329871e-04 -8.4820418531669328e-06 0.0000000000000000e+00  -5.4743083669218603e-04 -1.0308929515979051e-05 0.0000000000000000e+00  -6.6981726378424397e-04 -1.2248138658345006e-05 0.0000000000000000e+00  -8.1508641143578965e-04 -1.3947707084774458e-05 0.0000000000000000e+00  -9.8421118553853291e-04 -1.4545201248637535e-05 0.0000000000000000e+00  -1.1750635238030114e-03 -1.2147797010793381e-05 0.0000000000000000e+00  -1.3802415901818786e-03 -3.0072779162089587e-06 0.0000000000000000e+00  0.0000000000000000e+00 0.0000000000000000e+00 0.0000000000000000e+00  -2.3549969290663657e-05 -4.5474317950944616e-07 0.0000000000000000e+00  -4.8108069199656829e-05 -9.3292028919516116e-07 0.0000000000000000e+00  -7.4734771515047181e-05 -1.4596892917457318e-06 0.0000000000000000e+00  -1.0460029055584343e-04 -2.0638349597385271e-06 0.0000000000000000e+00  -1.3904860910084839e-04 -2.7800030576544177e-06 0.0000000000000000e+00  -1.7967271697470459e-04 -3.6514567444566315e-06 0.0000000000000000e+00  -2.2840456367918428e-04 -4.7335272018317207e-06 0.0000000000000000e+00  -2.8762165623516501e-04 -6.0978254357109303e-06 0.0000000000000000e+00  -3.6026760205556382e-04 -7.8368796856026455e-06 0.0000000000000000e+00  -4.4997250314841695e-04 -1.0067576576759778e-05 0.0000000000000000e+00  -5.6113382264525802e-04 -1.2927960679951114e-05 0.0000000000000000e+00  -6.9886666715304486e-04 -1.6551076186420645e-05 0.0000000000000000e+00  -8.6863654905095010e-04 -2.0970102813433972e-05 0.0000000000000000e+00  -1.0752376200465802e-03 -2.5835683806434801e-05 0.0000000000000000e+00  -1.3206361029022709e-03 -2.9673745928051151e-05 0.0000000000000000e+00  -1.6003630657124674e-03 -2.8231779813981554e-05 0.0000000000000000e+00  0.0000000000000000e+00 0.0000000000000000e+00 0.0000000000000000e+00  -2.1576858659047688e-05 -4.3347707750907540e-07 0.0000000000000000e+00  -4.4124591612849869e-05 -8.9214555969096637e-07 0.0000000000000000e+00  -6.8672095032813889e-05 -1.4035059413030197e-06 0.0000000000000000e+00  -9.6371974422201174e-05 -2.0000295912681315e-06 0.0000000000000000e+00  -1.2857683030768246e-04 -2.7225030179703012e-06 0.0000000000000000e+00  -1.6693469845645019e-04 -3.6245862800227676e-06 0.0000000000000000e+00  -2.1351281125422109e-04 -4.7793477689928994e-06 0.0000000000000000e+00  -2.7096072379223269e-04 -6.2889694011133793e-06 0.0000000000000000e+00  -3.4272454188933709e-04 -8.2995392780556893e-06 0.0000000000000000e+00  -4.3331993531611285e-04 -1.1023938836076702e-05 0.0000000000000000e+00  -5.4865385458438716e-04 -1.4776890562798546e-05 0.0000000000000000e+00  -6.9633229921747743e-04 -2.0024385902733813e-05 0.0000000000000000e+00  -8.8575817463628324e-04 -2.7431753929254681e-05 0.0000000000000000e+00  -1.1275239227126028e-03 -3.7809555489603768e-05 0.0000000000000000e+00  -1.4310608355558680e-03 -5.1538272203796619e-05 0.0000000000000000e+00  -1.7991444178451636e-03 -6.6190809084375752e-05 0.0000000000000000e+00  0.0000000000000000e+00 0.0000000000000000e+00 0.0000000000000000e+00  -1.8639785274747235e-05 -3.8716698916550772e-07 0.0000000000000000e+00  -3.8154959030254388e-05 -7.9897743684646786e-07 0.0000000000000000e+00  -5.9479361510743600e-05 -1.2626551228213999e-06 0.0000000000000000e+00  -8.3673079451632566e-05 -1.8110465115168883e-06 0.0000000000000000e+00  -1.1200378828141865e-04 -2.4865653516314057e-06 0.0000000000000000e+00  -1.4605346886886002e-04 -3.3467944954249445e-06 0.0000000000000000e+00  -1.8786517507817934e-04 -4.4729085511787834e-06 0.0000000000000000e+00  -2.4015102532161375e-04 -5.9829295008273790e-06 0.0000000000000000e+00  -3.0659182430476338e-04 -8.0535564993566645e-06 0.0000000000000000e+00  -3.9227002750690860e-04 -1.0958015796456359e-05 0.0000000000000000e+00  -5.0428611373537968e-04 -1.5135579458891992e-05 0.0000000000000000e+00  -6.5259453070064689e-04 -2.1326332325133262e-05 0.0000000000000000e+00  -8.5099643040035253e-04 -3.0839547194603370e-05 0.0000000000000000e+00  -1.1178521991674179e-03 -4.6060647077272294e-05 0.0000000000000000e+00  -1.4748992248463909e-03 -7.1113035832955833e-05 0.0000000000000000e+00  -1.9399238858590598e-03 -1.1036432592221520e-04 0.0000000000000000e+00  0.0000000000000000e+00 0.0000000000000000e+00 0.0000000000000000e+00  -1.4834478170458069e-05 -3.1637383936326916e-07 0.0000000000000000e+00  -3.0390047164997682e-05 -6.5426341876224187e-07 0.0000000000000000e+00  -4.7440173769992183e-05 -1.0376292142382290e-06 0.0000000000000000e+00  -6.6872568329097006e-05 -1.4957909841646370e-06 0.0000000000000000e+00  -8.9765361712018063e-05 -2.0672522867736143e-06 0.0000000000000000e+00  -1.1749074255164685e-04 -2.8051961453524980e-06 0.0000000000000000e+00  -1.5186393550438898e-04 -3.7858049067261783e-06 0.0000000000000000e+00  -1.9536594642328097e-04 -5.1213575669871689e-06 0.0000000000000000e+00  -2.5148654552085108e-04 -6.9816958702235676e-06 0.0000000000000000e+00  -3.2526449420652902e-04 -9.6314197679736932e-06 0.0000000000000000e+00  -4.2415235698188200e-04 -1.3500079928021244e-05 0.0000000000000000e+00  -5.5941017950476683e-04 -1.9331783916687509e-05 0.0000000000000000e+00  -7.4832238080874938e-04 -2.8552917884517881e-05 0.0000000000000000e+00  -1.0174962631099823e-03 -4.4300763656245484e-05 0.0000000000000000e+00  -1.4064734862267029e-03 -7.4598377391587225e-05 0.0000000000000000e+00  -1.9625193974909878e-03 -1.4324420848909871e-04 0.0000000000000000e+00  0.0000000000000000e+00 0.0000000000000000e+00 0.0000000000000000e+00  -1.0315129767229662e-05 -2.2422624959014060e-07 0.0000000000000000e+00  -2.1144373797161378e-05 -4.6439725579061748e-07 0.0000000000000000e+00  -3.3041453225458300e-05 -7.3835786026010775e-07 0.0000000000000000e+00  -4.6647090993648545e-05 -1.0681269366450396e-06 0.0000000000000000e+00  -6.2748490327471215e-05 -1.4828810298837882e-06 0.0000000000000000e+00  -8.2362400285702895e-05 -2.0232116207044317e-06 0.0000000000000000e+00  -1.0685837413875325e-04 -2.7474243038224126e-06 0.0000000000000000e+00  -1.3815026525510919e-04 -3.7409511662294942e-06 0.0000000000000000e+00  -1.7900538799567152e-04 -5.1302269555190000e-06 0.0000000000000000e+00  -2.3356164353206316e-04 -7.1022992666370114e-06 0.0000000000000000e+00  -3.0822349216805359e-04 -9.9302970631042211e-06 0.0000000000000000e+00  -4.1327371949843866e-04 -1.4002763646039189e-05 0.0000000000000000e+00  -5.6590683809591561e-04 -1.9863449537950968e-05 0.0000000000000000e+00  -7.9632588210075417e-04 -2.8373798155817986e-05 0.0000000000000000e+00  -1.1614362470641548e-03 -4.1770627777114921e-05 0.0000000000000000e+00  -1.7822636041842027e-03 -6.9667905886205942e-05 0.0000000000000000e+00  0.0000000000000000e+00 0.0000000000000000e+00 0.0000000000000000e+00  -5.2883031699677790e-06 -1.1628559996905221e-07 0.0000000000000000e+00  -1.0844110266835616e-05 -2.4105219959358622e-07 0.0000000000000000e+00  -1.6956250205557887e-05 -3.8381563545158895e-07 0.0000000000000000e+00  -2.3960594227822524e-05 -5.5636518641642395e-07 0.0000000000000000e+00  -3.2272707481738109e-05 -7.7438033854588921e-07 0.0000000000000000e+00  -4.2434178437665760e-05 -1.0597042727345902e-06 0.0000000000000000e+00  -5.5182700396532419e-05 -1.4435868403520603e-06 0.0000000000000000e+00  -7.1563484097252213e-05 -1.9711153578037154e-06 0.0000000000000000e+00  -9.3114103292363639e-05 -2.7063116806325729e-06 0.0000000000000000e+00  -1.2218341232221407e-04 -3.7341874495419337e-06 0.0000000000000000e+00  -1.6250110688019313e-04 -5.1440137092104732e-06 0.0000000000000000e+00  -2.2021734733103729e-04 -6.9342394831306750e-06 0.0000000000000000e+00  -3.0577103312629737e-04 -8.6214777748231894e-06 0.0000000000000000e+00  -4.3681091785303965e-04 -7.7777979414375395e-06 0.0000000000000000e+00  -6.3987093688066383e-04 5.0657697431103310e-06 0.0000000000000000e+00  -9.3338820887948603e-04 6.1107281384579980e-05 0.0000000000000000e+00  0.0000000000000000e+00 0.0000000000000000e+00 0.0000000000000000e+00  0.0000000000000000e+00 0.0000000000000000e+00 0.0000000000000000e+00  0.0000000000000000e+00 0.0000000000000000e+00 0.0000000000000000e+00  0.0000000000000000e+00 0.0000000000000000e+00 0.0000000000000000e+00  0.0000000000000000e+00 0.0000000000000000e+00 0.0000000000000000e+00  0.0000000000000000e+00 0.0000000000000000e+00 0.00000