<?xml version="1.0"?>
<VTKFile type="UnstructuredGrid"  version="0.1"  >
<UnstructuredGrid>
<Piece  NumberOfPoints="289" NumberOfCells="512">
<Points>
<DataArray  type="Float64"  NumberOfComponents="3"  format="ascii">0 0 0  0.0625 0 0  0.125 0 0  0.1875 0 0  0.25 0 0  0.3125 0 0  0.375 0 0  0.4375 0 0  0.5 0 0  0.5625 0 0  0.625 0 0  0.6875 0 0  0.75 0 0  0.8125 0 0  0.875 0 0  0.9375 0 0  1 0 0  0 0.0625 0  0.06261509154001228 0.06247159519572409 0  0.1252340065808613 0.06244259584280398 0  0.1878607114475865 0.06241243138718085 0  0.2504993349269591 0.06238061042850906 0  0.3131542536754543 0.06234677428166252 0  0.3758301855709242 0.06231076663924859 0  0.4385323115347197 0.06227272097692985 0  0.5012664785220137 0.0622331608771941 0  0.5640396146439969 0.06219309487124697 0  0.6268606846347767 0.06215405977297683 0  0.6897430370110654 0.06211800899802535 0  0.7527104649430534 0.06208681116470766 0  0.8158136772080502 0.06206077359838947 0  0.8791775327244875 0.06203449415057503 0  0.9431439337003223 0.0619844068218823 0  1.008730067731599 0.06182913386699485 0  0 0.125 0  0.06272645216424223 0.1249437547225004 0  0.1254605189623336 0.1248862783729023 0  0.1882101058023252 0.1248263828482818 0  0.2509834670969582 0.1247630264541937 0  0.3137893900005465 0.1246954166876806 0  0.3766373917100344 0.1246231486067553 0  0.4395379607480835 0.1245463860312979 0  0.5025029157067163 0.124466083493851 0  0.5655460500171403 0.1243842266637621 0  0.6286844375751812 0.1243040296911042 0  0.6919412075215313 0.1242299597554488 0  0.7553514351172846 0.1241673644274897 0  0.818974042652546 0.1241214456853573 0  0.8829124861521837 0.1240958891366075 0  0.9473341709107682 0.1240951804087496 0  1.012400640312683 0.1241521750574453 0  0 0.1875 0  0.06283026301420717 0.1874171281115213 0  0.1256718091212817 0.187332315614647 0  0.1885363583940287 0.1872436736443259 0  0.2514361886848984 0.1871495021537879 0  0.3143844260197282 0.1870484312145066 0  0.37739534524623 0.1869396218050388 0  0.4404847029895051 0.1868230451148297 0  0.5036701515651845 0.1866998528505875 0  0.5669718306720752 0.1865728330037348 0  0.630413306008994 0.1864469052765156 0  0.6940230809943343 0.1863295300127914 0  0.7578367335965176 0.1862307520141215 0  0.8218985151752437 0.1861622935076963 0  0.8862565700648227 0.1861343049144691 0  0.9509325853538304 0.1861453469886659 0  1.015823064743655 0.1861474547011576 0  0 0.25 0  0.06292285086245133 0.2498924357826462 0  0.1258604286184666 0.2497821300460819 0  0.1888280357216016 0.249666385979999 0  0.2518417637771917 0.2495426987103601 0  0.3149189011685224 0.2494089152209511 0  0.3780783441269043 0.2492634798702249 0  0.4413410159250241 0.2491058023840751 0  0.504730298697705 0.2489367882875246 0  0.5682724695848771 0.248759567395325 0  0.6319970712842994 0.248580433029326 0  0.695936931772316 0.248409941349748 0  0.7601269098653222 0.2482639748525444 0  0.8245988015965484 0.2481642670063716 0  0.8893663430000338 0.2481372857276355 0  0.9543892263783164 0.2482095096678411 0  1.019506376198983 0.2483981877021127 0  0 0.3125 0  0.06300078249327414 0.3123704856448614 0  0.126019397089185 0.3122373386575787 0  0.1890743774348519 0.3120969429508098 0  0.2521853009468081 0.3119458238518921 0  0.3153733301854174 0.3117807953337277 0  0.3786617594179671 0.3115992151857017 0  0.4420765604094933 0.3113994058265597 0  0.505646903752068 0.311181317489752 0  0.5694055851777425 0.310947531885977 0  0.6333891668569944 0.3107047203291969 0  0.6976373585737075 0.3104656603791756 0  0.7621905457359632 0.3102518338850321 0  0.8270832284397183 0.3100963912693057 0  0.8923296484428368 0.3100467583990881 0  0.9578980049659646 0.3101653886492317 0  1.023677967547302 0.3105266177765216 0  0 0.375 0  0.06306096982057338 0.3748521702225671 0  0.1261424124151998 0.3746997536167355 0  0.1892656103630189 0.3745381269982067 0  0.2524531637329808 0.3743626937116023 0  0.3157296844552175 0.3741689756367016 0  0.3791225161731744 0.3739528227051517 0  0.4426624812295603 0.373710815200377 0  0.5063846412441646 0.3734409724999221 0  0.5703290197421268 0.373143937949365 0  0.6345411444739371 0.3728248841921057 0  0.6990720679957244 0.3724964651099615 0  0.7639771444325931 0.3721831835689345 0  0.8293122744225492 0.3719274289848068 0  0.8951259672161148 0.3717969452470713 0  0.9614469398112254 0.371892410459769 0  1.028273485353471 0.3723523948041923 0  0 0.4375 0  0.06310078896347995 0.4373384382607912 0  0.1262240908770591 0.4371713298067446 0  0.1893933129347625 0.4369930139207557 0  0.2526334591507913 0.4367976749605765 0  0.3159719907900656 0.4365793296301258 0  0.3794397528956677 0.4363319186682373 0  0.4430719964511446 0.4360495840938046 0  0.506909534358413 0.4357272686138793 0  0.5710000827532874 0.4353618655823717 0  0.6353998541522081 0.4349542934334407 0  0.7001754742675272 0.4345130813771045 0  0.7654062719680654 0.4340603113465066 0  0.8311869563892814 0.4336409212197549 0  0.8976308636792173 0.4333360207159682 0  0.9648752382379027 0.4332793096915183 0  1.033095090905479 0.4336728986757927 0  0 0.5 0  0.06311821347067682 0.4998302369392249 0  0.1262602394965612 0.4996540493444884 0  0.1894508387836052 0.4994648016592487 0  0.2527166297686246 0.4992554666225728 0  0.3160871116759447 0.4990184603744055 0  0.3795958067207828 0.4987455390014868 0  0.443281590921783 0.4984278233192961 0  0.5071903295528778 0.4980560808110732 0  0.5713770296408734 0.4976215083136805 0  0.6359089098395282 0.4971174673026565 0  0.7008701263682332 0.4965429890072339 0  0.7663694385614828 0.4959094556227548 0  0.8325528469612439 0.4952526186432313 0  0.8996240997283795 0.4946524069002968 0  0.9678771886311496 0.4942606765539599 0  1.03774982126929 0.4943282396785443 0  0 0.5625 0  0.06311195633558021 0.5623284250347574 0  0.126248150620388 0.5621497417174705 0  0.1894337865057678 0.5619565259541101 0  0.252696136215744 0.5617406975213127 0  0.3160656995053011 0.5614931706975692 0  0.3795775329774778 0.5612034931639074 0  0.4432728552684171 0.5608595005234407 0  0.5072011164395601 0.5604470637276746 0  0.5714229054260413 0.5599501127877782 0  0.6360144696007037 0.5593513450247301 0  0.7010754335774555 0.5586345009861564 0  0.7667428080164681 0.5577900703367338 0  0.8332167660671581 0.5568281396355736 0  0.9008065741579054 0.5558046827276216 0  0.9700074138377601 0.5548673737234229 0  1.041622552983851 0.5543122879052145 0  0 0.625 0  0.06308160878648601 0.6248336634398957 0  0.126186894073262 0.6246598512912958 0  0.1893404760004274 0.6244706771045129 0  0.2525691703128057 0.624257349314067 0  0.3159032330524075 0.6240096343489401 0  0.3793778113218005 0.6237152146244356 0  0.4430347207409229 0.6233589073225315 0  0.5069247651542917 0.6229217250450849 0  0.5711110472567378 0.6223798111034146 0  0.6356742859349995 0.6217034321443067 0  0.7007224879563834 0.620856626361596 0  0.7664102479112626 0.6197992476390062 0  0.8329786528576203 0.6184962275921527 0  0.9008354652790783 0.6169463580527562 0  0.9707025254225672 0.6152535596514476 0  1.043858258044027 0.6137415978263462 0  0 0.6875 0  0.06302775801194312 0.68734629638714 0  0.12607756950868 0.6871851796518088 0  0.189172369755575 0.6870087605372672 0  0.2523373022877411 0.6868080632223355 0  0.315600981641312 0.6865723375983832 0  0.3789969770627323 0.6862881733158712 0  0.442565624604308 0.6859383118133783 0  0.5063563393017056 0.6855000174694214 0  0.5704307796508222 0.6849428273851255 0  0.6348677451578233 0.6842254726206485 0  0.6997722203526222 0.6832918475324156 0  0.7652952434397878 0.6820665014891775 0  0.8316822769869422 0.680452942035059 0  0.8993918138263776 0.6783502479867095 0  0.9693545848770292 0.675751891847136 0  1.043449443012866 0.6730525981894044 0  0 0.75 0  0.06295206279624938 0.7498662428100248 0  0.1259234748740498 0.7497256447025399 0  0.1889343671161704 0.7495708719778132 0  0.2520069522009871 0.749393440222746 0  0.3151667272736856 0.7491829537720147 0  0.3784438974084472 0.7489260803675477 0  0.4418750977447538 0.748605100975936 0  0.505505489778552 0.7481957928316544 0  0.5693913175616115 0.7476642690433105 0  0.6336031516526459 0.7469621720174525 0  0.69823086440547 0.7460192269071377 0  0.7633949885308785 0.7447314975256881 0  0.8292831046868103 0.7429429074126689 0  0.8962793335944649 0.7404198634097566 0  0.9654029104914502 0.7368536470653441 0  1.039107489706516 0.7323484937752294 0  0 0.8125 0  0.06285726660730673 0.8123929203815586 0  0.1257301481855738 0.8122801066772271 0  0.1886349034228102 0.8121553761986838 0  0.2515895885187038 0.812011482453566 0  0.3146151133103688 0.8118393907120972 0  0.3777365111065848 0.8116272718836552 0  0.4409844811194957 0.8113590324305887 0  0.5043972029263278 0.8110120930086298 0  0.5680222402714936 0.8105539499434183 0  0.6319178966886555 0.8099367412743361 0  0.6961524718595182 0.809088447774642 0  0.7607988874067965 0.8078980747113224 0  0.8259259064447821 0.8061889545923844 0  0.8916252361063148 0.8036662290173857 0  0.9583567005175173 0.7998117413445939 0  1.029731404266992 0.7937627912510345 0  0 0.875 0  0.06274713217708147 0.8749252231078625 0  0.1255052486370284 0.8748463087606845 0  0.1882858004095139 0.8747587772766932 0  0.2511015837029066 0.8746573291886605 0  0.3139675507161312 0.8745352754539942 0  0.3769018136333389 0.8743837301394747 0  0.4399269053675997 0.874190405165489 0  0.5030713051910871 0.8739377488205804 0  0.5663710120516293 0.8736000056480344 0  0.6298702036662868 0.8731385060536727 0  0.6936177664631843 0.872494045025483 0  0.7576501012277969 0.8715742881018134 0  0.8219342413391344 0.8702310012846571 0  0.8862123894920302 0.8682067158312524 0  0.9496753030140136 0.8649585538194909 0  1.010724378029302 0.858953484870613 0  0 0.9375 0  0.06262628952109163 0.9374615661857805 0  0.1252582576502199 0.9374209647661269 0  0.1879018330585291 0.937375843076395 0  0.2505636768756505 0.9373234025193957 0  0.3132516380438858 0.9372600846508846 0  0.3759753394997105 0.9371811205691114 0  0.4387469567102346 0.93707984775
[...]
<PointData  Vectors="f_54"> 
<DataArray  type="Float64"  Name="f_54"  NumberOfComponents="3" format="ascii">0.0000000000000000e+00 0.0000000000000000e+00 0.0000000000000000e+00  0.0000000000000000e+00 0.0000000000000000e+00 0.0000000000000000e+00  0.0000000000000000e+00 0.0000000000000000e+00 0.0000000000000000e+00  0.0000000000000000e+00 0.0000000000000000e+00 0.0000000000000000e+00  0.0000000000000000e+00 0.0000000000000000e+00 0.0000000000000000e+00  0.0000000000000000e+00 0.0000000000000000e+00 0.0000000000000000e+00  0.0000000000000000e+00 0.0000000000000000e+00 0.0000000000000000e+00  0.0000000000000000e+00 0.0000000000000000e+00 0.0000000000000000e+00  0.0000000000000000e+00 0.0000000000000000e+00 0.0000000000000000e+00  0.0000000000000000e+00 0.0000000000000000e+00 0.0000000000000000e+00  0.0000000000000000e+00 0.0000000000000000e+00 0.0000000000000000e+00  0.0000000000000000e+00 0.0000000000000000e+00 0.0000000000000000e+00  0.0000000000000000e+00 0.0000000000000000e+00 0.0000000000000000e+00  0.0000000000000000e+00 0.0000000000000000e+00 0.0000000000000000e+00  0.0000000000000000e+00 0.0000000000000000e+00 0.0000000000000000e+00  0.0000000000000000e+00 0.0000000000000000e+00 0.0000000000000000e+00  0.0000000000000000e+00 0.0000000000000000e+00 0.0000000000000000e+00  0.0000000000000000e+00 0.0000000000000000e+00 0.0000000000000000e+00  2.1464509315938812e-06 -1.0829013486960092e-07 0.0000000000000000e+00  4.3819054147338065e-06 -2.2193958429642060e-07 0.0000000000000000e+00  6.8017192214010834e-06 -3.4677655766658024e-07 0.0000000000000000e+00  9.5104888850174320e-06 -4.8940905271685070e-07 0.0000000000000000e+00  1.2627666263560302e-05 -6.5770348910795945e-07 0.0000000000000000e+00  1.6294451143595487e-05 -8.6137067525536016e-07 0.0000000000000000e+00  2.0682955830090322e-05 -1.1127194760034096e-06 0.0000000000000000e+00  2.6009645548907449e-05 -1.4276942481902040e-06 0.0000000000000000e+00  3.2557596515938533e-05 -1.8274902675822983e-06 0.0000000000000000e+00  4.0718825391854330e-05 -2.3416273979826390e-06 0.0000000000000000e+00  5.1086730623425169e-05 -3.0153286332110545e-06 0.0000000000000000e+00  6.4684647069975664e-05 -3.9308211115581047e-06 0.0000000000000000e+00  8.3594620738946450e-05 -5.2763320553073837e-06 0.0000000000000000e+00  1.1285937459064146e-04 -7.5869092570359559e-06 0.0000000000000000e+00  1.6681784671855230e-04 -1.2646547329945124e-05 0.0000000000000000e+00  2.9337802003105056e-04 -2.7308846897197916e-05 0.0000000000000000e+00  0.0000000000000000e+00 0.0000000000000000e+00 0.0000000000000000e+00  4.2101126192516313e-06 -2.1153822103694544e-07 0.0000000000000000e+00  8.5952469404743062e-06 -4.3350721451785660e-07 0.0000000000000000e+00  1.3342766034007128e-05 -6.7724420978298817e-07 0.0000000000000000e+00  1.8658290927029039e-05 -9.5561475436190113e-07 0.0000000000000000e+00  2.4776698223580134e-05 -1.2839537846303947e-06 0.0000000000000000e+00  3.1975405799464382e-05 -1.6812149787471256e-06 0.0000000000000000e+00  4.0591456030089496e-05 -2.1714196039057837e-06 0.0000000000000000e+00  5.1045086065807594e-05 -2.7855264783110999e-06 0.0000000000000000e+00  6.3875127987043470e-05 -3.5639228509064480e-06 0.0000000000000000e+00  7.9797601774433041e-05 -4.5599416085356606e-06 0.0000000000000000e+00  9.9812307983821957e-05 -5.8452696661762528e-06 0.0000000000000000e+00  1.2541029169613340e-04 -7.5186161293815187e-06 0.0000000000000000e+00  1.5898205636908082e-04 -9.7161167477614876e-06 0.0000000000000000e+00  2.0453786199517765e-04 -1.2592073187036735e-05 0.0000000000000000e+00  2.6836633047639362e-04 -1.6045604439143275e-05 0.0000000000000000e+00  3.5534563871888255e-04 -1.7848103212687396e-05 0.0000000000000000e+00  0.0000000000000000e+00 0.0000000000000000e+00 0.0000000000000000e+00  6.1033489234704855e-06 -3.0459757870527162e-07 0.0000000000000000e+00  1.2460543651417588e-05 -6.2405983948533515e-07 0.0000000000000000e+00  1.9342863908700452e-05 -9.7451861027361314e-07 0.0000000000000000e+00  2.7048054995807464e-05 -1.3742873268981240e-06 0.0000000000000000e+00  3.5916090047254734e-05 -1.8452143158185573e-06 0.0000000000000000e+00  4.6347847669114956e-05 -2.4143441282790858e-06 0.0000000000000000e+00  5.8828172494417411e-05 -3.1159993414594692e-06 0.0000000000000000e+00  7.3955338807650276e-05 -3.9943683503923677e-06 0.0000000000000000e+00  9.2479808872533549e-05 -5.1065719994413577e-06 0.0000000000000000e+00  1.1535622508404096e-04 -6.5258253557704248e-06 0.0000000000000000e+00  1.4381227803931417e-04 -8.3432534252557558e-06 0.0000000000000000e+00  1.7942908877290934e-04 -1.0663817294212181e-05 0.0000000000000000e+00  2.2418155705908671e-04 -1.3582938150303171e-05 0.0000000000000000e+00  2.8020924729609215e-04 -1.7107738100892601e-05 0.0000000000000000e+00  3.4852242492012424e-04 -2.0950176043696857e-05 0.0000000000000000e+00  4.2451950707660211e-04 -2.4226755691899148e-05 0.0000000000000000e+00  0.0000000000000000e+00 0.0000000000000000e+00 0.0000000000000000e+00  7.7463112729280856e-06 -3.8299367141893952e-07 0.0000000000000000e+00  1.5814235309858060e-05 -7.8434380304982420e-07 0.0000000000000000e+00  2.4546603459668675e-05 -1.2239171217757147e-06 0.0000000000000000e+00  3.4319675228018980e-05 -1.7242557831799572e-06 0.0000000000000000e+00  4.5562890879866943e-05 -2.3122599666898166e-06 0.0000000000000000e+00  5.8781995158569732e-05 -3.0212912231896695e-06 0.0000000000000000e+00  7.4586796958287660e-05 -3.8938656694778680e-06 0.0000000000000000e+00  9.3724643783013985e-05 -4.9850781588033325e-06 0.0000000000000000e+00  1.1711977169199375e-04 -6.3667381033168812e-06 0.0000000000000000e+00  1.4591568867420264e-04 -8.1316721476365354e-06 0.0000000000000000e+00  1.8150909130593297e-04 -1.0396204029275747e-05 0.0000000000000000e+00  2.2554045943136981e-04 -1.3295238277221571e-05 0.0000000000000000e+00  2.7974772137956980e-04 -1.6956367899774767e-05 0.0000000000000000e+00  3.4545859787152251e-04 -2.1424291786292814e-05 0.0000000000000000e+00  4.2228041519655013e-04 -2.6487121948324217e-05 0.0000000000000000e+00  5.0550971935447455e-04 -3.1349462564086353e-05 0.0000000000000000e+00  0.0000000000000000e+00 0.0000000000000000e+00 0.0000000000000000e+00  9.0709610533334431e-06 -4.4323411106949944e-07 0.0000000000000000e+00  1.8516940322571148e-05 -9.0714552143232141e-07 0.0000000000000000e+00  2.8736372661931110e-05 -1.4140143579783112e-06 0.0000000000000000e+00  4.0166487975789016e-05 -1.9890651496246011e-06 0.0000000000000000e+00  5.3306215155600931e-05 -2.6623514241528667e-06 0.0000000000000000e+00  6.8743032099254382e-05 -3.4711779929174812e-06 0.0000000000000000e+00  8.7185114601074195e-05 -4.4633367715161037e-06 0.0000000000000000e+00  1.0949968148500631e-04 -5.7014979869368528e-06 0.0000000000000000e+00  1.3675689646667450e-04 -7.2691190587928558e-06 0.0000000000000000e+00  1.7027459686501590e-04 -9.2780640756132861e-06 0.0000000000000000e+00  2.1164946785373433e-04 -1.1877413681476693e-05 0.0000000000000000e+00  2.6273961343383433e-04 -1.5260938505259516e-05 0.0000000000000000e+00  3.2552452295815030e-04 -1.9666135405809552e-05 0.0000000000000000e+00  4.0171203608299139e-04 -2.5349350784497228e-05 0.0000000000000000e+00  4.9193969490955150e-04 -3.2511045134561379e-05 0.0000000000000000e+00  5.9463971807686316e-04 -4.1143990646660707e-05 0.0000000000000000e+00  0.0000000000000000e+00 0.0000000000000000e+00 0.0000000000000000e+00  1.0024427790070866e-05 -4.8303562430149410e-07 0.0000000000000000e+00  2.0460353059607467e-05 -9.8777503975928613e-07 0.0000000000000000e+00  3.1743143140190047e-05 -1.5374471539660626e-06 0.0000000000000000e+00  4.4350362405386768e-05 -2.1582117281246872e-06 0.0000000000000000e+00  5.8826831905091657e-05 -2.8810621959413530e-06 0.0000000000000000e+00  7.5814438474547309e-05 -3.7443413614830217e-06 0.0000000000000000e+00  9.6088621692745440e-05 -4.7972619795997578e-06 0.0000000000000000e+00  1.2060340553131501e-04 -6.1050452646787604e-06 0.0000000000000000e+00  1.5054605160757487e-04 -7.7566538399562186e-06 0.0000000000000000e+00  1.8739989026183925e-04 -9.8766686904815640e-06 0.0000000000000000e+00  2.3300790182115334e-04 -1.2643700355591328e-05 0.0000000000000000e+00  2.8961802872038735e-04 -1.6318796837783171e-05 0.0000000000000000e+00  3.5987424904667845e-04 -2.1288295537470496e-05 0.0000000000000000e+00  4.4670830973825287e-04 -2.8125637746742181e-05 0.0000000000000000e+00  5.5313882654447078e-04 -3.7674812252071842e-05 0.0000000000000000e+00  6.8222812512752596e-04 -5.1155816803556297e-05 0.0000000000000000e+00  0.0000000000000000e+00 0.0000000000000000e+00 0.0000000000000000e+00  1.0571512650671130e-05 -5.0143909880328352e-07 0.0000000000000000e+00  2.1572432784202792e-05 -1.0243199081872486e-06 0.0000000000000000e+00  3.3454709649043517e-05 -1.5913637694203696e-06 0.0000000000000000e+00  4.6713510746656155e-05 -2.2278997289726439e-06 0.0000000000000000e+00  6.1913113874216983e-05 -2.9635556236605455e-06 0.0000000000000000e+00  7.9718393612476039e-05 -3.8345296654878061e-06 0.0000000000000000e+00  1.0093475913106170e-04 -4.8868792903451132e-06 0.0000000000000000e+00  1.2656027395333840e-04 -6.1816091373731060e-06 0.0000000000000000e+00  1.5785468985153077e-04 -7.8030238667883179e-06 0.0000000000000000e+00  1.9643095426511353e-04 -9.8731733863843467e-06 0.0000000000000000e+00  2.4437482103092082e-04 -1.2577912831811384e-05 0.0000000000000000e+00  3.0439703345009603e-04 -1.6215298766310424e-05 0.0000000000000000e+00  3.8002226305659798e-04 -2.1286581940289288e-05 0.0000000000000000e+00  4.7583331988664831e-04 -2.8666309471614750e-05 0.0000000000000000e+00  5.9786731779739753e-04 -3.9914351034253848e-05 0.0000000000000000e+00  7.5452910736782469e-04 -5.7843129119982157e-05 0.0000000000000000e+00  0.0000000000000000e+00 0.0000000000000000e+00 0.0000000000000000e+00  1.0696159326690007e-05 -4.9879094493711857e-07 0.0000000000000000e+00  2.1820532961553258e-05 -1.0176164498590024e-06 0.0000000000000000e+00  3.3820884605676299e-05 -1.5774105504570883e-06 0.0000000000000000e+00  4.7186476323574108e-05 -2.2011136017216628e-06 0.0000000000000000e+00  6.2473052387281290e-05 -2.9149221810698257e-06 0.0000000000000000e+00  8.0333872420283644e-05 -3.7499362576270009e-06 0.0000000000000000e+00  1.0156053300794827e-04 -4.7445397797607826e-06 0.0000000000000000e+00  1.2713935133194779e-04 -5.9481810500302744e-06 0.0000000000000000e+00  1.5833241542918504e-04 -7.4279555727104388e-06 0.0000000000000000e+00  1.9679766519211555e-04 -9.2810669629005970e-06 0.0000000000000000e+00  2.4477025541403742e-04 -1.1660075056415708e-05 0.0000000000000000e+00  3.0533850372641924e-04 -1.4826572710982708e-05 0.0000000000000000e+00  3.8286275988276552e-04 -1.9268330182176907e-05 0.0000000000000000e+00  4.8361176823095243e-04 -2.5956053411679939e-05 0.0000000000000000e+00  6.1677226228726691e-04 -3.6898619786123179e-05 0.0000000000000000e+00  7.9629664674386847e-04 -5.6328950311304868e-05 0.0000000000000000e+00  0.0000000000000000e+00 0.0000000000000000e+00 0.0000000000000000e+00  1.0401724459174861e-05 -4.7658507816307745e-07 0.0000000000000000e+00  2.1212090130310529e-05 -9.7091686423214597e-07 0.0000000000000000e+00  3.2854951245284623e-05 -1.5011914459704392e-06 0.0000000000000000e+00  4.5791101695706553e-05 -2.0868353242252903e-06 0.0000000000000000e+00  6.0540316003643350e-05 -2.7491590642003962e-06 0.0000000000000000e+00  7.7709002983765156e-05 -3.5120969461928012e-06 0.0000000000000000e+00  9.8027514981299129e-05 -4.4031151759724793e-06 0.0000000000000000e+00  1.2240411775786444e-04 -5.4544948409851975e-06 0.0000000000000000e+00  1.5200812861826423e-04 -6.7055458995679629e-06 0.0000000000000000e+00  1.8840474678558485e-04 -8.2073108958205958e-06 0.0000000000000000e+00  2.3378165328157512e-04 -1.0034199636400290e-05 0.0000000000000000e+00  2.9133609462461766e-04 -1.2315258094321881e-05 0.0000000000000000e+00  3.6593208707790665e-04 -1.5321063346167278e-05 0.0000000000000000e+00  4.6518446136303854e-04 -1.9705098608630222e-05 0.0000000000000000e+00  6.0118644307847135e-04 -2.7153550553122428e-05 0.0000000000000000e+00  7.9336936874105466e-04 -4.2033478795519253e-05 0.0000000000000000e+00  0.0000000000000000e+00 0.0000000000000000e+00 0.0000000000000000e+00  9.7099351767208332e-06 -4.3718524817586827e-07 0.0000000000000000e+00  1.9792563131808670e-05 -8.8928773451798296e-07 0.0000000000000000e+00  3.0630665144707118e-05 -1.3712387664431000e-06 0.0000000000000000e+00  4.2636949774026966e-05 -1.8984086465634765e-06 0.0000000000000000e+00  5.6271205330323792e-05 -2.4866499554458850e-06 0.0000000000000000e+00  7.2061415001984451e-05 -3.1520882798605882e-06 0.0000000000000000e+00  9.0632123359999511e-05 -3.9104298890275432e-06 0.0000000000000000e+00  1.1274644015942560e-04 -4.7753552241358457e-06 0.0000000000000000e+00  1.3937454680823511e-04 -5.7551911743951086e-06 0.0000000000000000e+00  1.7181504405038126e-04 -6.8464163709359190e-06 0.0000000000000000e+00  2.1192298558620319e-04 -8.0217643997739672e-06 0.0000000000000000e+00  2.6255225945361153e-04 -9.2111504989384632e-06 0.0000000000000000e+00  3.2841550811872042e-04 -1.0282815613269101e-05 0.0000000000000000e+00  4.1769577053233557e-04 -1.1082107977593827e-05 0.0000000000000000e+00  5.4480537969164172e-04 -1.1789695191688475e-05 0.0000000000000000e+00  7.3465362572891469e-04 -1.4483838272827592e-05 0.0000000000000000e+00  0.0000000000000000e+00 0.0000000000000000e+00 0.0000000000000000e+00  8.6585570232435881e-06 -3.8347584653355162e-07 0.0000000000000000e+00  1.7640583863912364e-05 -7.7884437322493191e-07 0.0000000000000000e+00  2.7274489133663925e-05 -1.1976735133545315e-06 0.0000000000000000e+00  3.7910118609557093e-05 -1.6513283178867756e-06 0.0000000000000000e+00  4.9929733364660499e-05 -2.1505466739383844e-06 0.0000000000000000e+00  6.3760200591979902e-05 -2.7045325666702990e-06 0.0000000000000000e+00  7.9887706690501097e-05 -3.3191248105639360e-06 0.0000000000000000e+00  9.8878254625345776e-05 -3.9931561643452726e-06 0.0000000000000000e+00  1.2141220612379754e-04 -4.7111261278904164e-06 0.0000000000000000e+00  1.4835378323487181e-04 -5.4280252910184881e-06 0.0000000000000000e+00  1.8090809131248911e-04 -6.0367756506557644e-06 0.0000000000000000e+00  2.2099585679661394e-04 -6.2961072692430211e-06 0.0000000000000000e+00  2.7215857253685966e-04 -5.6682481275986329e-06 0.0000000000000000e+00  3.4168444696218556e-04 -2.9646425158686625e-06 0.0000000000000000e+00  4.4504053273354739e-04 4.2843017169131359e-06 0.0000000000000000e+00  6.1257476430017540e-04 2.0204726660280134e-05 0.0000000000000000e+00  0.0000000000000000e+00 0.0000000000000000e+00 0.0000000000000000e+00  7.2980081754078793e-06 -3.1850907091073509e-07 0.0000000000000000e+00  1.4860756245651298e-05 -6.4597652366481330e-07 0.0000000000000000e+00  2.2953598371848109e-05 -9.9084728314751354e-07 0.0000000000000000e+00  3.1854807422183242e-05 -1.3609821250292942e-06 0.0000000000000000e+00  4.1860307235621183e-05 -1.7630096339899670e-06 0.0000000000000000e+00  5.3286463452375527e-05 -2.2011624346113415e-06 0.0000000000000000e+00  6.6469460349058627e-05 -2.6751659874875168e-06 0.0000000000000000e+00  8.1759305878554271e-05 -3.1763372162328611e-06 0.0000000000000000e+00  9.9506892863271415e-05 -3.6800893043518303e-06 0.0000000000000000e+00  1.2004706678490508e-04 -4.1306197975247441e-06 0.0000000000000000e+00  1.4370046843122268e-04 -4.4070078093316288e-06 0.0000000000000000e+00  1.7088826752178967e-04 -4.2409137875708880e-06 0.0000000000000000e+00  2.0269068023369224e-04 -2.9966013763545711e-06 0.0000000000000000e+00  2.4293201034913391e-04 9.7749026526163885e-07 0.0000000000000000e+00  3.0509613490849760e-04 1.2420586167806096e-05 0.0000000000000000e+00  4.2670908544930632e-04 4.3544282069515852e-05 0.0000000000000000e+00  0.0000000000000000e+00 0.0000000000000000e+00 0.0000000000000000e+00  5.6873932258029545e-06 -2.4521656389389843e-07 0.0000000000000000e+00  1.1575108261688411e-05 -4.9672455167976454e-07 0.0000000000000000e+00  1.7861313209042951e-05 -7.6027464201290727e-07 0.0000000000000000e+00  2.4750089211106874e-05 -1.0409334960156269e-06 0.0000000000000000e+00  3.2451301548390131e-05 -1.3424543969515750e-06 0.0000000000000000e+00  4.1176125744883981e-05 -1.6662708491602286e-06 0.0000000000000000e+00  5.1124269461938413e-05 -2.0098841575571165e-06 0.0000000000000000e+00  6.2455623823545742e-05 -2.3643002945217384e-06 0.0000000000000000e+00  7.5233054650683409e-05 -2.7099511427481354e-06 0.0000000000000000e+00  8.9312956035866116e-05 -3.0099914289988215e-06 0.0000000000000000e+00  1.0414735809703676e-04 -3.1980769809811558e-06 0.0000000000000000e+00  1.1846488213156904e-04 -3.1506480460166442e-06 0.0000000000000000e+00  1.2992033359313727e-04 -2.6022875656560166e-06 0.0000000000000000e+00  1.3549329239674992e-04 -8.0537574080919930e-07 0.0000000000000000e+00  1.3661104139123598e-04 5.2535668088562460e-06 0.0000000000000000e+00  1.7390710770319936e-04 3.6213645637566570e-05 0.0000000000000000e+00  0.0000000000000000e+00 0.0000000000000000e+00 0.0000000000000000e+00  3.8906009359246815e-06 -1.6623182052599019e-07 0.0000000000000000e+00  7.9146472249959852e-06 -3.3641239676819524e-07 0.0000000000000000e+00  1.2202593743468494e-05 -5.1405721868178392e-07 0.0000000000000000e+00  1.6886397886296136e-05 -7.0212034865722338e-07 0.0000000000000000e+00  2.2097038959895181e-05 -9.0253936540995527e-07 0.0000000000000000e+00  2.7957159779114097e-05 -1.1155947395455441e-06 0.0000000000000000e+00  3.4564056938779941e-05 -1.3390759202850032e-06 0.0000000000000000e+00  4.1953487382709139e-05 -1.5674286253178336e-06 0.0000000000000000e+00  5.0024551166061434e-05 -1.7916212978302566e-06 0.0000000000000000e+00  5.8383521139610740e-05 -2.0020995005745540e-06 0.0000000000000000e+00  6.6015035899457490e-05 -2.2018047964932839e-06 0.0000000000000000e+00  7.0584526918514924e-05 -2.4492096040166555e-06 0.0000000000000000e+00  6.6997854480562637e-05 -2.9880515609970504e-06 0.0000000000000000e+00  4.4825652642420994e-05 -4.6260301850682352e-06 0.0000000000000000e+00  -1.3904644641153234e-05 -9.8623319105554363e-06 0.0000000000000000e+00  -1.2627905621775807e-04 -2.7009537329842880e-05 0.0000000000000000e+00  0.0000000000000000e+00 0.0000000000000000e+00 0.0000000000000000e+00  1.9731178830535109e-06 -8.3834944948042306e-08 0.0000000000000000e+00  4.0125421224014058e-06 -1.6955723566287093e-07 0.0000000000000000e+00  6.1825318752640822e-06 -2.5881697330111827e-07 0.0000000000000000e+00  8.5471792080695923e-06 -3.5295669000837511e-07 0.0000000000000000e+00  1.1168286657448194e-05 -4.5278404790940451e-07 0.0000000000000000e+00  1.4100080184308529e-05 -5.5828981365586091e-07 0.0000000000000000e+00  1.7377561763112956e-05 -6.6837876952721447e-07 0.0000000000000000e+00  2.0991871887217473e-05 -7.8089434009508328e-07 0.0000000000000000e+00  2.4838130382188869e-05 -8.9383115577256960e-07 0.0000000000000000e+00  2.8601939245699292e-05 -1.0103682741809550e-06 0.0000000000000000e+00  3.1500411235814729e-05 -1.1552910127209917e-06 0.0000000000000000e+00  3.1653815604009240e-05 -1.4244160315834197e-06 0.0000000000000000e+00  2.4466903739931309e-05 -2.1271726361595742e-06 0.0000000000000000e+00  -1.5633596820147140e-06 -4.1643578836836912e-06 0.0000000000000000e+00  -7.3104699369505257e-05 -9.6954854061235207e-06 0.0000000000000000e+00  -2.2382549204879085e-04 -2.0977623178449435e-05 0.0000000000000000e+00  0.0000000000000000e+00 0.0000000000000000e+00 0.0000000000000000e+00  0.0000000000000000e+00 0.0000000000000000e+00 0.0000000000000000e+00  0.0000000000000000e+00 0.0000000000000000e+00 0.0000000000000000e+00  0.0000000000000000e+00 0.0000000000000000e+00 0.0000000000000000e+00  0.0000000000000000e+00 0.0000000000000000e+00 0.0000000000000000e+00  0.0000000000000000e+00 0.0000000000000000e+00 0.0000000000000000e+00  0.0000000000000000e+00 0.0000000000000000e+00 0.0000000000000000e+00  0.0000000000000000e+00 0.0000000000000000e+00 0.0000000000000000e+00  0.0000000000000000e+00 0.0000000000000000e+00 0.000000