<?xml version="1.0"?>
<VTKFile type="UnstructuredGrid"  version="0.1"  >
<UnstructuredGrid>
<Piece  NumberOfPoints="289" NumberOfCells="512">
<Points>
<DataArray  type="Float64"  NumberOfComponents="3"  format="ascii">0 0 0  0.0625 0 0  0.125 0 0  0.1875 0 0  0.25 0 0  0.3125 0 0  0.375 0 0  0.4375 0 0  0.5 0 0  0.5625 0 0  0.625 0 0  0.6875 0 0  0.75 0 0  0.8125 0 0  0.875 0 0  0.9375 0 0  1 0 0  0 0.0625 0  0.06250346375192563 0.06248906585524167 0  0.1250076478978246 0.06247794191470149 0  0.1875133661750059 0.06246645583806497 0  0.2500216460205415 0.0624544763807637 0  0.3125338662831144 0.06244193948795073 0  0.3750519375356544 0.06242888009954013 0  0.4375785513636492 0.06241546922489537 0  0.5001175453180234 0.06240205249444102 0  0.5626744792046412 0.06238918029475985 0  0.6252576433612896 0.06237760903082969 0  0.6878800564150921 0.06236823494829811 0  0.7505639706842399 0.06236188800863995 0  0.8133523107359253 0.06235883129652759 0  0.8763408188574527 0.06235753731097507 0  0.9397767027547822 0.06235121677288986 0  1.004388931747988 0.06231661856360859 0  0 0.125 0  0.0625061927572995 0.1249783144563582 0  0.1250137315004821 0.1249562290379376 0  0.1875241407478734 0.1249333765599293 0  0.2500393545198364 0.1249094676513192 0  0.3125619808237547 0.1248843417912113 0  0.3750956468735893 0.1248580316248321 0  0.4376454698489136 0.1248308413857231 0  0.5002187240094846 0.1248034346599949 0  0.562825830575076 0.1247769161880707 0  0.6254819193292133 0.1247528742680363 0  0.6882094807380887 0.1247333226767465 0  0.7510431916991361 0.1247204490220056 0  0.8140389959032558 0.1247160811614125 0  0.8772903013150152 0.1247210324425276 0  0.9409487593820524 0.1247359361289051 0  1.005202081965276 0.124771854503397 0  0 0.1875 0  0.06250758014193937 0.1874679579478724 0  0.1250169442437047 0.1874352685674384 0  0.1875301211340571 0.1874013276913808 0  0.2500497032858651 0.1873656360014405 0  0.3125792122617626 0.1873278716284343 0  0.3751235743634094 0.1872879864733109 0  0.4376897590348892 0.1872463313500244 0  0.5002876488235334 0.1872038093069006 0  0.5629312340458817 0.187162044114854 0  0.62564025792231 0.1871235268767774 0  0.6884424604799358 0.1870916601896846 0  0.7513764783587363 0.1870705426946806 0  0.8144948363995088 0.1870641917830862 0  0.8778639457228367 0.1870745433085349 0  0.9415500601625076 0.1870962883376121 0  1.005561984518502 0.1871010205276025 0  0 0.25 0  0.06250720899997182 0.2499582456152186 0  0.1250163794650625 0.2499155470405656 0  0.187529756239903 0.2498710059825257 0  0.2500502405287887 0.2498238397928542 0  0.3125818203114707 0.2497734684200567 0  0.3751301337670806 0.2497196380355947 0  0.4377032223726646 0.2496625943314321 0  0.5003125343808942 0.2496033158239623 0  0.5629742294574854 0.2495438083421419 0  0.6257107845917307 0.2494874394034612 0  0.6885527442661117 0.2494392437027922 0  0.75154003806763 0.2494060395594483 0  0.8147212665600516 0.2493960335854059 0  0.8781471449561605 0.2494173369249299 0  0.941850542750265 0.2494746035448751 0  1.005803020989069 0.2495640603797213 0  0 0.3125 0  0.06250491923173253 0.3124494756146512 0  0.1250116737372932 0.3123976569467316 0  0.1875223859451553 0.3123432874580488 0  0.2500398503281748 0.3122852134337082 0  0.3125679852820965 0.3122224725628779 0  0.3751124375652117 0.3121544323769991 0  0.4376814054750275 0.3120810023914007 0  0.5002867495845584 0.3120029481156922 0  0.5629454402125299 0.311922336038299 0  0.6256813139040992 0.3118431291429242 0  0.6885269080457034 0.3117719183190849 0  0.7515246940101183 0.3117186912538136 0  0.8147261808478317 0.3116973718118861 0  0.8781860927285211 0.3117255860893952 0  0.9419478753630728 0.3118227985585951 0  1.006019118798213 0.3120059082375596 0  0 0.375 0  0.06250084472276048 0.3749419984626763 0  0.1250030888178109 0.3748823070444244 0  0.1875083831378494 0.3748192519222016 0  0.2500189774730842 0.3747512189314855 0  0.3125381424759305 0.3746767246703033 0  0.3750707593830135 0.3745945465349884 0  0.4376241622868723 0.3745039468672796 0  0.5002093362469122 0.3744050411246856 0  0.5628425805089498 0.3742993783332935 0  0.62554771006224 0.3741908194828958 0  0.6883587333399962 0.3740868020794771 0  0.751322618705568 0.374000033300799 0  0.8145011598306615 0.3739504929846304 0  0.8779701474849042 0.3739672448424475 0  0.9418137000169036 0.3740888448019727 0  1.006113403375156 0.3743601118392345 0  0 0.4375 0  0.06249541496181055 0.4374362090151511 0  0.1249915201243402 0.4373703091267696 0  0.1874891803163825 0.4373001711940132 0  0.2499896911068001 0.4372236486396875 0  0.3124951104057353 0.4371386065551095 0  0.3750087601490261 0.4370430089392322 0  0.4375360053227537 0.4369351066605256 0  0.5000854677839056 0.4368137950114725 0  0.5626708977951974 0.4366792505233203 0  0.6253139950386928 0.436534015271323 0  0.6880485051955896 0.4363847688423165 0  0.7509258321774328 0.4362450833314394 0  0.8140220551994563 0.4361393994288648 0  0.8774454912430075 0.4361080678214984 0  0.9413429878104513 0.4362121963415623 0  1.005903151928542 0.4365349634744067 0  0 0.5 0  0.06248931731029943 0.499932524224331 0  0.124978423158627 0.4998625346931256 0  0.1874671658064614 0.499787448220849 0  0.2499555648705807 0.4997045557132245 0  0.3124439858048052 0.4996109830265804 0  0.3749334589072537 0.4995036937666446 0  0.4374262625870424 0.4993795743949748 0  0.4999269786130884 0.4992356762553246 0  0.5624443735507332 0.4990697502039587 0  0.6249946894741851 0.4988813150853779 0  0.6876072479372893 0.4986736737374022 0  0.7503336281842388 0.4984575401933746 0  0.8132618405277546 0.4982572045683312 0  0.876536322419059 0.498120122404511 0  0.9403825043363081 0.4981295907751102 0  1.005131787259491 0.4984162634794993 0  0 0.5625 0  0.06248341886823324 0.5624313456179771 0  0.1249656537070248 0.5623598381437486 0  0.1874454377377771 0.5622824983764827 0  0.2499213459137044 0.5621960925658867 0  0.312391749031606 0.5620970036926259 0  0.3748548437753506 0.5619811105020012 0  0.4373088613751132 0.561843697792841 0  0.4997526710115034 0.5616794534851963 0  0.5621872144688926 0.5614826739009549 0  0.6246186197600117 0.5612479329935794 0  0.6870645632162401 0.5609717400420127 0  0.7495665875545274 0.5606562264131461 0  0.812212510998947 0.560316799220329 0  0.8751738164265989 0.5599968859353117 0  0.9387602432629939 0.559793077915311 0  1.003484175519266 0.5598887039983991 0  0 0.625 0  0.06247865132731952 0.6249330083337297 0  0.124955226011376 0.6248629492013981 0  0.1874274142516479 0.6247865740330367 0  0.2498923917439632 0.6247002513995984 0  0.3123465124059644 0.6245997408127348 0  0.3747849597632933 0.6244799254550806 0  0.4372013957938431 0.6243344949227332 0  0.4995877473612204 0.6241555832822375 0  0.5619345072975319 0.6239334079911931 0  0.6242324558199019 0.6236560616325688 0  0.6864778315995754 0.6233098814697058 0  0.748685219324865 0.6228815089309913 0  0.8109164019561975 0.6223644200065122 0  0.873338904000211 0.621776390148593 0  0.9363301022730037 0.6212003270884787 0  1.000627414998012 0.6208604447477994 0  0 0.6875 0  0.06247586902442172 0.6874377223486725 0  0.1249490076283295 0.687372345770735 0  0.1874163218791338 0.6873005485863602 0  0.2498738864029517 0.6872185255061127 0  0.312316380823995 0.6871216771598986 0  0.3747363336900856 0.687004206027736 0  0.437123099591404 0.6868585685875419 0  0.4994615254351022 0.6866747158301565 0  0.5617303978807908 0.6864390344391613 0  0.6239011961176286 0.6861328953493879 0  0.6859388787723461 0.6857307933908082 0  0.7478095416404579 0.685198479419996 0  0.8095072317439651 0.6844931751812906 0  0.8711280047028888 0.6835740859443148 0  0.9330427929779483 0.6824509214266101 0  0.9962091650850776 0.6813319939422815 0  0 0.75 0  0.06247569904094343 0.74994551538873 0  0.1249483897137493 0.7498881275155393 0  0.1874146212785887 0.7498246935803973 0  0.2498699113002282 0.7497515417874654 0  0.3123079965423798 0.7496641138717389 0  0.3747197470241409 0.7495564743129153 0  0.4370915328459164 0.7494206005816063 0  0.4994027376302427 0.7492453180055305 0  0.5616220059143264 0.7490146520300229 0  0.6237018012724271 0.7487052042208732 0  0.6855713487154615 0.7482818517902619 0  0.7471304389767157 0.747690552734892 0  0.8082553548060459 0.7468465521368615 0  0.8688567744213899 0.745618634358909 0  0.9291114041977291 0.7438354205732314 0  0.9900819636572934 0.741531924537003 0  0 0.8125 0  0.06247841035780343 0.8124561895444796 0  0.1249539920345071 0.8124099169567111 0  0.1874234725150596 0.8123584966292755 0  0.2498825308254592 0.8122987439258256 0  0.3123250006569646 0.8122266270108259 0  0.3747416575984585 0.8121367740932285 0  0.437118278251772 0.8120217371329985 0  0.49943243289147 0.8118708477524873 0  0.5616480645759615 0.8116683774000208 0  0.6237061927361635 0.8113904622554388 0  0.6855089465258417 0.8109996870262663 0  0.7468929103864731 0.8104347966658684 0  0.8075894648604279 0.8095890853505819 0  0.8671912063282453 0.8082597540557501 0  0.9252746942744617 0.8060182835848103 0  0.9826880446960009 0.8018611824237627 0  0 0.875 0  0.06248383299009928 0.8749693034723659 0  0.1249654739783668 0.8749368154023024 0  0.1874423729225642 0.8749005712100905 0  0.2499111268098405 0.874858217268858 0  0.3123668119994755 0.8748067344339304 0  0.3748019363978174 0.8747420407617268 0  0.4372046965390984 0.8746583904470063 0  0.4995559508150971 0.8745474343041515 0  0.5618237558448552 0.8743967184605832 0  0.6239531125485904 0.874187243279418 0  0.6858459257522693 0.8738894084597917 0  0.7473201775212366 0.8734559434796018 0  0.8080233951581294 0.8728078909924274 0  0.8672438022891408 0.8717986524113479 0  0.9235022516410162 0.8700897614432357 0  0.9738016103936781 0.8666168876530738 0  0 0.9375 0  0.06249135366621226 0.9374841884563914 0  0.1249815155963754 0.9374674333506625 0  0.187469095749824 0.9374486967869587 0  0.2499522294338071 0.9374267280109398 0  0.3124282003349652 0.937399910805639 0  0.3748928398093012 0.9373660429585597 0  0.4373395083090943 0.937322
[...]
<PointData  Vectors="f_54"> 
<DataArray  type="Float64"  Name="f_54"  NumberOfComponents="3" format="ascii">0.0000000000000000e+00 0.0000000000000000e+00 0.0000000000000000e+00  0.0000000000000000e+00 0.0000000000000000e+00 0.0000000000000000e+00  0.0000000000000000e+00 0.0000000000000000e+00 0.0000000000000000e+00  0.0000000000000000e+00 0.0000000000000000e+00 0.0000000000000000e+00  0.0000000000000000e+00 0.0000000000000000e+00 0.0000000000000000e+00  0.0000000000000000e+00 0.0000000000000000e+00 0.0000000000000000e+00  0.0000000000000000e+00 0.0000000000000000e+00 0.0000000000000000e+00  0.0000000000000000e+00 0.0000000000000000e+00 0.0000000000000000e+00  0.0000000000000000e+00 0.0000000000000000e+00 0.0000000000000000e+00  0.0000000000000000e+00 0.0000000000000000e+00 0.0000000000000000e+00  0.0000000000000000e+00 0.0000000000000000e+00 0.0000000000000000e+00  0.0000000000000000e+00 0.0000000000000000e+00 0.0000000000000000e+00  0.0000000000000000e+00 0.0000000000000000e+00 0.0000000000000000e+00  0.0000000000000000e+00 0.0000000000000000e+00 0.0000000000000000e+00  0.0000000000000000e+00 0.0000000000000000e+00 0.0000000000000000e+00  0.0000000000000000e+00 0.0000000000000000e+00 0.0000000000000000e+00  0.0000000000000000e+00 0.0000000000000000e+00 0.0000000000000000e+00  0.0000000000000000e+00 0.0000000000000000e+00 0.0000000000000000e+00  -4.6079154580637624e-06 -1.7013660193920902e-07 0.0000000000000000e+00  -9.3467122785650545e-06 -3.4216078515807237e-07 0.0000000000000000e+00  -1.4348108291324728e-05 -5.1750557347733410e-07 0.0000000000000000e+00  -1.9741886614024676e-05 -6.9651142381723206e-07 0.0000000000000000e+00  -2.5653577525765454e-05 -8.7771404091669069e-07 0.0000000000000000e+00  -3.2200421354116355e-05 -1.0569407136957742e-06 0.0000000000000000e+00  -3.9485136069159858e-05 -1.2261776809408551e-06 0.0000000000000000e+00  -4.7587384777145757e-05 -1.3722079499118129e-06 0.0000000000000000e+00  -5.6553955270774334e-05 -1.4750629252429781e-06 0.0000000000000000e+00  -6.6391819336983441e-05 -1.5063036558685945e-06 0.0000000000000000e+00  -7.7077322052787508e-05 -1.4267092119224863e-06 0.0000000000000000e+00  -8.8622451139770445e-05 -1.1807878092253170e-06 0.0000000000000000e+00  -1.0133007391539051e-04 -6.7655628923190031e-07 0.0000000000000000e+00  -1.1669305731677462e-04 2.9734945280164047e-07 0.0000000000000000e+00  -1.4064978961803658e-04 2.4195883845856419e-06 0.0000000000000000e+00  -1.9661609943654902e-04 8.3995160620459260e-06 0.0000000000000000e+00  0.0000000000000000e+00 0.0000000000000000e+00 0.0000000000000000e+00  -9.0838350807095412e-06 -3.3834299727586250e-07 0.0000000000000000e+00  -1.8430364803855680e-05 -6.8097917099952498e-07 0.0000000000000000e+00  -2.8304401666564144e-05 -1.0313572048088637e-06 0.0000000000000000e+00  -3.8968142049789530e-05 -1.3908746928574544e-06 0.0000000000000000e+00  -5.0677180809364337e-05 -1.7575099386913785e-06 0.0000000000000000e+00  -6.3673023247707089e-05 -2.1240476173629474e-06 0.0000000000000000e+00  -7.8170873594660863e-05 -2.4758026873137204e-06 0.0000000000000000e+00  -9.4341746206296688e-05 -2.7878271797790304e-06 0.0000000000000000e+00  -1.1228887611622839e-04 -3.0217450314234269e-06 0.0000000000000000e+00  -1.3202082464012257e-04 -3.1226353082216039e-06 0.0000000000000000e+00  -1.5342919764089192e-04 -3.0168096070875191e-06 0.0000000000000000e+00  -1.7628997187133321e-04 -2.6120923567023328e-06 0.0000000000000000e+00  -2.0032309646509944e-04 -1.8048759368470294e-06 0.0000000000000000e+00  -2.2532757164240419e-04 -5.1322852103147419e-07 0.0000000000000000e+00  -2.5107874255827671e-04 1.1554299512744312e-06 0.0000000000000000e+00  -2.7428267060974307e-04 1.9731701818462610e-06 0.0000000000000000e+00  0.0000000000000000e+00 0.0000000000000000e+00 0.0000000000000000e+00  -1.3294393881523267e-05 -5.0215132534299728e-07 0.0000000000000000e+00  -2.6984365396555594e-05 -1.0119637384818920e-06 0.0000000000000000e+00  -4.1469717600670128e-05 -1.5359948800417526e-06 0.0000000000000000e+00  -5.7149333792204256e-05 -2.0780694512901476e-06 0.0000000000000000e+00  -7.4416824151131699e-05 -2.6373814683558695e-06 0.0000000000000000e+00  -9.3650910297560894e-05 -3.2059392709868900e-06 0.0000000000000000e+00  -1.1519832065600029e-04 -3.7651480319000344e-06 0.0000000000000000e+00  -1.3934671210594102e-04 -4.2814114525624272e-06 0.0000000000000000e+00  -1.6628499876312374e-04 -4.7008717023354769e-06 0.0000000000000000e+00  -1.9604840322469307e-04 -4.9439453614240974e-06 0.0000000000000000e+00  -2.2844471198904065e-04 -4.9014336091754083e-06 0.0000000000000000e+00  -2.6295273618034834e-04 -4.4362436127112961e-06 0.0000000000000000e+00  -2.9855963667469034e-04 -3.3992992580783796e-06 0.0000000000000000e+00  -3.3341531692819912e-04 -1.6766818832185243e-06 0.0000000000000000e+00  -3.6391175238486043e-04 7.0860881770062932e-07 0.0000000000000000e+00  -3.8220416377801402e-04 3.5049957996325070e-06 0.0000000000000000e+00  0.0000000000000000e+00 0.0000000000000000e+00 0.0000000000000000e+00  -1.7105444462695584e-05 -6.5813667901356360e-07 0.0000000000000000e+00  -3.4739377262786814e-05 -1.3285692374863246e-06 0.0000000000000000e+00  -5.3437783341209563e-05 -2.0224295450047064e-06 0.0000000000000000e+00  -7.3740833363142541e-05 -2.7478649533962685e-06 0.0000000000000000e+00  -9.6190167967904856e-05 -3.5078322802555502e-06 0.0000000000000000e+00  -1.2131946924027215e-04 -4.2969599479948565e-06 0.0000000000000000e+00  -1.4963505104343466e-04 -5.0970908929999286e-06 0.0000000000000000e+00  -1.8158229205564072e-04 -5.8711258951286694e-06 0.0000000000000000e+00  -2.1749250149355638e-04 -6.5549451635748442e-06 0.0000000000000000e+00  -2.5750287113497021e-04 -7.0477080291578417e-06 0.0000000000000000e+00  -3.0143830392482022e-04 -7.2021248077234364e-06 0.0000000000000000e+00  -3.4863475438761066e-04 -6.8190755608151531e-06 0.0000000000000000e+00  -3.9766160203287863e-04 -5.6562711428389430e-06 0.0000000000000000e+00  -4.4585348327424079e-04 -3.4694342152925100e-06 0.0000000000000000e+00  -4.8849496877009162e-04 -1.1557104510626947e-07 0.0000000000000000e+00  -5.1755768255933087e-04 4.2408527714482916e-06 0.0000000000000000e+00  0.0000000000000000e+00 0.0000000000000000e+00 0.0000000000000000e+00  -2.0383284818506814e-05 -8.0161954136066793e-07 0.0000000000000000e+00  -4.1425288787958679e-05 -1.6215286009732085e-06 0.0000000000000000e+00  -6.3796897796951864e-05 -2.4770511543058064e-06 0.0000000000000000e+00  -8.8182475127118520e-05 -3.3828557387308624e-06 0.0000000000000000e+00  -1.1528142928042976e-04 -4.3487827190259212e-06 0.0000000000000000e+00  -1.4580230488679615e-04 -5.3765004458099481e-06 0.0000000000000000e+00  -1.8044531035295511e-04 -6.4543672015343799e-06 0.0000000000000000e+00  -2.1986769084505757e-04 -7.5496954208642428e-06 0.0000000000000000e+00  -2.6462430025606326e-04 -8.5974755889780751e-06 0.0000000000000000e+00  -3.1507290836474736e-04 -9.4847147502172652e-06 0.0000000000000000e+00  -3.7122974244030665e-04 -1.0030333075114256e-05 0.0000000000000000e+00  -4.3255468977335148e-04 -9.9629615879176313e-06 0.0000000000000000e+00  -4.9763695344512643e-04 -8.9045692620046832e-06 0.0000000000000000e+00  -5.6374500889971304e-04 -6.3786359332446096e-06 0.0000000000000000e+00  -6.2622540874115442e-04 -1.8785756666468316e-06 0.0000000000000000e+00  -6.7787029814561834e-04 4.9481311192131533e-06 0.0000000000000000e+00  0.0000000000000000e+00 0.0000000000000000e+00 0.0000000000000000e+00  -2.2997517139252811e-05 -9.2658186536533867e-07 0.0000000000000000e+00  -4.6776582866459885e-05 -1.8786183130825520e-06 0.0000000000000000e+00  -7.2137038165373969e-05 -2.8810933851870421e-06 0.0000000000000000e+00  -9.9905987925926490e-05 -3.9573556004737670e-06 0.0000000000000000e+00  -1.3094670890373978e-04 -5.1274438112884613e-06 0.0000000000000000e+00  -1.6616037921054455e-04 -6.4051452778012022e-06 0.0000000000000000e+00  -2.0647615395603749e-04 -7.7929497420895125e-06 0.0000000000000000e+00  -2.5282307914217085e-04 -9.2736184567582474e-06 0.0000000000000000e+00  -3.0607459128691351e-04 -1.0796448213337181e-05 0.0000000000000000e+00  -3.6695293782146185e-04 -1.2255526126277878e-05 0.0000000000000000e+00  -4.3587716156634807e-04 -1.3456656166806311e-05 0.0000000000000000e+00  -5.1273555103630898e-04 -1.4070180333236324e-05 0.0000000000000000e+00  -5.9656485430160900e-04 -1.3570963532769680e-05 0.0000000000000000e+00  -6.8513159564076594e-04 -1.1178660720599413e-05 0.0000000000000000e+00  -7.7445117369609614e-04 -5.8359561127401625e-06 0.0000000000000000e+00  -8.5837151913553374e-04 3.7020108481103369e-06 0.0000000000000000e+00  0.0000000000000000e+00 0.0000000000000000e+00 0.0000000000000000e+00  -2.4825854103559725e-05 -1.0258620449368974e-06 0.0000000000000000e+00  -5.0541836597519108e-05 -2.0850050606071800e-06 0.0000000000000000e+00  -7.8063749979591046e-05 -3.2110226111300977e-06 0.0000000000000000e+00  -1.0835256347453826e-04 -4.4375962010586974e-06 0.0000000000000000e+00  -1.4243374100847102e-04 -5.7978624373615476e-06 0.0000000000000000e+00  -1.8141107603803931e-04 -7.3226872838422175e-06 0.0000000000000000e+00  -2.2647077999635897e-04 -9.0369490920264067e-06 0.0000000000000000e+00  -2.7886906265035556e-04 -1.0952245680888798e-05 0.0000000000000000e+00  -3.3989291681777920e-04 -1.3053239788080492e-05 0.0000000000000000e+00  -4.1077936181289427e-04 -1.5272862975842549e-05 0.0000000000000000e+00  -4.9257381381789692e-04 -1.7448596327077839e-05 0.0000000000000000e+00  -5.8590598509947992e-04 -1.9248422206510892e-05 0.0000000000000000e+00  -6.9066723623919266e-04 -2.0053230363667072e-05 0.0000000000000000e+00  -8.0559577795435348e-04 -1.8789697919781794e-05 0.0000000000000000e+00  -9.2782357823002000e-04 -1.3737894443971516e-05 0.0000000000000000e+00  -1.0524978426371353e-03 -2.4029591603989493e-06 0.0000000000000000e+00  0.0000000000000000e+00 0.0000000000000000e+00 0.0000000000000000e+00  -2.5760953343461202e-05 -1.0916697259267055e-06 0.0000000000000000e+00  -5.2497613620814705e-05 -2.2242801705474292e-06 0.0000000000000000e+00  -8.1219481542890479e-05 -3.4400802481256995e-06 0.0000000000000000e+00  -1.1300199502950963e-04 -4.7836889246017590e-06 0.0000000000000000e+00  -1.4901885155682603e-04 -6.3030093602259822e-06 0.0000000000000000e+00  -1.9057213923679800e-04 -8.0495873920648573e-06 0.0000000000000000e+00  -2.3911707011175975e-04 -1.0077745126816385e-05 0.0000000000000000e+00  -2.9627525939617319e-04 -1.2441081483003460e-05 0.0000000000000000e+00  -3.6382608514156500e-04 -1.5183416703986036e-05 0.0000000000000000e+00  -4.4365940942360147e-04 -1.8318222712931840e-05 0.0000000000000000e+00  -5.3766534243657237e-04 -2.1784763437029686e-05 0.0000000000000000e+00  -6.4753056465432211e-04 -2.5358932728757417e-05 0.0000000000000000e+00  -7.7441392309464895e-04 -2.8481732277217298e-05 0.0000000000000000e+00  -9.1850296290663807e-04 -2.9955304749977010e-05 0.0000000000000000e+00  -1.0785274852058214e-03 -2.7472231479724251e-05 0.0000000000000000e+00  -1.2514056257318872e-03 -1.7037736077284851e-05 0.0000000000000000e+00  0.0000000000000000e+00 0.0000000000000000e+00 0.0000000000000000e+00  -2.5719032522485514e-05 -1.1164129959297079e-06 0.0000000000000000e+00  -5.2466336569864795e-05 -2.2801904800008809e-06 0.0000000000000000e+00  -8.1311965646477176e-05 -3.5410629796606187e-06 0.0000000000000000e+00  -1.1341332510051424e-04 -4.9536378744513926e-06 0.0000000000000000e+00  -1.5006190248957192e-04 -6.5801564389069985e-06 0.0000000000000000e+00  -1.9273277058069185e-04 -8.4935672207564211e-06 0.0000000000000000e+00  -2.4313577240823493e-04 -1.0780834517036244e-05 0.0000000000000000e+00  -3.0326450507432359e-04 -1.3545970983232328e-05 0.0000000000000000e+00  -3.7543419255590412e-04 -1.6911133445268115e-05 0.0000000000000000e+00  -4.6229111140903481e-04 -2.1011176718918439e-05 0.0000000000000000e+00  -5.6676350002441724e-04 -2.5969847102838557e-05 0.0000000000000000e+00  -6.9190811226073237e-04 -3.1829110920745960e-05 0.0000000000000000e+00  -8.4059666919727625e-04 -3.8367945312124796e-05 0.0000000000000000e+00  -1.0150115154387849e-03 -4.4685473111887005e-05 0.0000000000000000e+00  -1.2160467490156715e-03 -4.8360766502922566e-05 0.0000000000000000e+00  -1.4430312451902253e-03 -4.4070808739965164e-05 0.0000000000000000e+00  0.0000000000000000e+00 0.0000000000000000e+00 0.0000000000000000e+00  -2.4649617691156833e-05 -1.0937594313773658e-06 0.0000000000000000e+00  -5.0336885202697500e-05 -2.2389177897504038e-06 0.0000000000000000e+00  -7.8147889638916120e-05 -3.4901546916930582e-06 0.0000000000000000e+00  -1.0927496615655928e-04 -4.9092682857226510e-06 0.0000000000000000e+00  -1.4507734799038935e-04 -6.5696837775809442e-06 0.0000000000000000e+00  -1.8715091259809605e-04 -8.5622780101224325e-06 0.0000000000000000e+00  -2.3740928830086178e-04 -1.1003273380120987e-05 0.0000000000000000e+00  -2.9817668311735168e-04 -1.4045231103369762e-05 0.0000000000000000e+00  -3.7228824230240402e-04 -1.7892348534903911e-05 0.0000000000000000e+00  -4.6318409375922505e-04 -2.2820599850229823e-05 0.0000000000000000e+00  -5.7496484797452086e-04 -2.9199182893346880e-05 0.0000000000000000e+00  -7.1234547766930848e-04 -3.7494316621334576e-05 0.0000000000000000e+00  -8.8040387809449705e-04 -4.8187737376632530e-05 0.0000000000000000e+00  -1.0840025589412790e-03 -6.1409655924680423e-05 0.0000000000000000e+00  -1.3268912625961160e-03 -7.5808184580853467e-05 0.0000000000000000e+00  -1.6109674130391797e-03 -8.5924025580580839e-05 0.0000000000000000e+00  0.0000000000000000e+00 0.0000000000000000e+00 0.0000000000000000e+00  -2.2545348346762312e-05 -1.0197733810707858e-06 0.0000000000000000e+00  -4.6085733223841787e-05 -2.0915729049828098e-06 0.0000000000000000e+00  -7.1668521020384990e-05 -3.2712664133600889e-06 0.0000000000000000e+00  -1.0045986675489425e-04 -4.6232881613270504e-06 0.0000000000000000e+00  -1.3381618034007849e-04 -6.2263319413443381e-06 0.0000000000000000e+00  -1.7337151130250109e-04 -8.1811243703300036e-06 0.0000000000000000e+00  -2.2114756772404176e-04 -1.0621764472761985e-05 0.0000000000000000e+00  -2.7969335054003859e-04 -1.3733215394685729e-05 0.0000000000000000e+00  -3.5225953142750406e-04 -1.7779623213390067e-05 0.0000000000000000e+00  -4.4300524679497536e-04 -2.3151881051035950e-05 0.0000000000000000e+00  -5.5721484032942735e-04 -3.0448494615009581e-05 0.0000000000000000e+00  -7.0145669579299921e-04 -4.0607589492494070e-05 0.0000000000000000e+00  -8.8352945693507363e-04 -5.5086873733170518e-05 0.0000000000000000e+00  -1.1119194329889570e-03 -7.5942539446966737e-05 0.0000000000000000e+00  -1.3945310651583018e-03 -1.0503895833647392e-04 0.0000000000000000e+00  -1.7376839572062035e-03 -1.4049089940416576e-04 0.0000000000000000e+00  0.0000000000000000e+00 0.0000000000000000e+00 0.0000000000000000e+00  -1.9450372545844714e-05 -8.9391242841066826e-07 0.0000000000000000e+00  -3.9795543866350509e-05 -1.8364184052371157e-06 0.0000000000000000e+00  -6.1982335469866083e-05 -2.8800130883571006e-06 0.0000000000000000e+00  -8.7078613702062810e-05 -4.0860211490976899e-06 0.0000000000000000e+00  -1.1634940727385156e-04 -5.5305290917215082e-06 0.0000000000000000e+00  -1.5135470084754946e-04 -7.3125670462628531e-06 0.0000000000000000e+00  -1.9408038103690937e-04 -9.5661902026111985e-06 0.0000000000000000e+00  -2.4711757282593375e-04 -1.2479524316331824e-05 0.0000000000000000e+00  -3.1390949877908213e-04 -1.6327033229078965e-05 0.0000000000000000e+00  -3.9908605183441701e-04 -2.1528726008611425e-05 0.0000000000000000e+00  -5.0889590446007041e-04 -2.8767520587113217e-05 0.0000000000000000e+00  -6.5170234787448311e-04 -3.9235440527091957e-05 0.0000000000000000e+00  -8.3838278658049414e-04 -5.5157957161461507e-05 0.0000000000000000e+00  -1.0821696332580315e-03 -8.0841232892089315e-05 0.0000000000000000e+00  -1.3969278402915133e-03 -1.2408515117373270e-04 0.0000000000000000e+00  -1.7940386729193866e-03 -1.9032866244561366e-04 0.0000000000000000e+00  0.0000000000000000e+00 0.0000000000000000e+00 0.0000000000000000e+00  -1.5465616012778834e-05 -7.1965829592428678e-07 0.0000000000000000e+00  -3.1667500418498530e-05 -1.4802986845877294e-06 0.0000000000000000e+00  -4.9388340589598349e-05 -2.3263333244358669e-06 0.0000000000000000e+00  -6.9520748678853476e-05 -3.3099849140239712e-06 0.0000000000000000e+00  -9.3138992845898745e-05 -4.4964336566817446e-06 0.0000000000000000e+00  -1.2159496818110452e-04 -5.9706955487808388e-06 0.0000000000000000e+00  -1.5665328940966654e-04 -7.8472472541852602e-06 0.0000000000000000e+00  -2.0068799785805753e-04 -1.0284065288167617e-05 0.0000000000000000e+00  -2.5697503949949926e-04 -1.3504410999362630e-05 0.0000000000000000e+00  -3.3013096848609778e-04 -1.7834690104145238e-05 0.0000000000000000e+00  -4.2676622065326554e-04 -2.3782974572601287e-05 0.0000000000000000e+00  -5.5642368314469067e-04 -3.2236573354181686e-05 0.0000000000000000e+00  -7.3279575999808850e-04 -4.5033406722511980e-05 0.0000000000000000e+00  -9.7484092955507000e-04 -6.6746626749243841e-05 0.0000000000000000e+00  -1.3060262712349838e-03 -1.1075820463764027e-04 0.0000000000000000e+00  -1.7435181049633547e-03 -2.2681692082463929e-04 0.0000000000000000e+00  0.0000000000000000e+00 0.0000000000000000e+00 0.0000000000000000e+00  -1.0749231167700811e-05 -5.0462047431050518e-07 0.0000000000000000e+00  -2.2023550473222485e-05 -1.0388940029478891e-06 0.0000000000000000e+00  -3.4383225223769152e-05 -1.6349919257406399e-06 0.0000000000000000e+00  -4.8472831961352328e-05 -2.3308208907005458e-06 0.0000000000000000e+00  -6.5077902285622601e-05 -3.1736455165053965e-06 0.0000000000000000e+00  -8.5203150308385683e-05 -4.2245787346600499e-06 0.0000000000000000e+00  -1.1018698351996562e-04 -5.5639334381943489e-06 0.0000000000000000e+00  -1.4187645627518382e-04 -7.2965886961118145e-06 0.0000000000000000e+00  -1.8290358220351125e-04 -9.5541571934618354e-06 0.0000000000000000e+00  -2.3713347373771135e-04 -1.2484770004928025e-05 0.0000000000000000e+00  -3.1040653135703449e-04 -1.6208041859013209e-05 0.0000000000000000e+00  -4.1178716805239290e-04 -2.0689843675461468e-05 0.0000000000000000e+00  -5.5569060192810248e-04 -2.5478085296820374e-05 0.0000000000000000e+00  -7.6551910156418316e-04 -2.9349794047971103e-05 0.0000000000000000e+00  -1.0794055894235142e-03 -3.0458594083698229e-05 0.0000000000000000e+00  -1.5551238338962607e-03 -2.9168293371231665e-05 0.0000000000000000e+00  0.0000000000000000e+00 0.0000000000000000e+00 0.0000000000000000e+00  -5.5109558059466778e-06 -2.6007136492362902e-07 0.0000000000000000e+00  -1.1295527311897717e-05 -5.3570598534715149e-07 0.0000000000000000e+00  -1.7646394086015652e-05 -8.4379153711047753e-07 0.0000000000000000e+00  -2.4902247234689494e-05 -1.2042246080470653e-06 0.0000000000000000e+00  -3.3479328253706784e-05 -1.6417257053195271e-06 0.0000000000000000e+00  -4.3915936066711138e-05 -2.1878784740951467e-06 0.0000000000000000e+00  -5.6939336512566684e-05 -2.8829160156374369e-06 0.0000000000000000e+00  -7.3571312399603423e-05 -3.7753597608154721e-06 0.0000000000000000e+00  -9.5301141010574963e-05 -4.9132787353337281e-06 0.0000000000000000e+00  -1.2437693276649885e-04 -6.3077171951314633e-06 0.0000000000000000e+00  -1.6429919848404834e-04 -7.8083948504138250e-06 0.0000000000000000e+00  -2.2061552288212956e-04 -8.7088534948038730e-06 0.0000000000000000e+00  -3.0191706220774093e-04 -6.5426666782709994e-06 0.0000000000000000e+00  -4.1961313147451259e-04 6.3164506330608428e-06 0.0000000000000000e+00  -5.7964606076638234e-04 5.0237138519504562e-05 0.0000000000000000e+00  -7.4916252820836100e-04 1.6225796760771795e-04 0.0000000000000000e+00  0.0000000000000000e+00 0.0000000000000000e+00 0.0000000000000000e+00  0.0000000000000000e+00 0.0000000000000000e+00 0.0000000000000000e+00  0.0000000000000000e+00 0.0000000000000000e+00 0.0000000000000000e+00  0.0000000000000000e+00 0.0000000000000000e+00 0.0000000000000000e+00  0.0000000000000000e+00 0.0000000000000000e+00 0.0000000000000000e+00  0.0000000000000000e+00 0.0000000000