<?xml version="1.0"?>
<VTKFile type="UnstructuredGrid"  version="0.1"  >
<UnstructuredGrid>
<Piece  NumberOfPoints="289" NumberOfCells="512">
<Points>
<DataArray  type="Float64"  NumberOfComponents="3"  format="ascii">0 0 0  0.0625 0 0  0.125 0 0  0.1875 0 0  0.25 0 0  0.3125 0 0  0.375 0 0  0.4375 0 0  0.5 0 0  0.5625 0 0  0.625 0 0  0.6875 0 0  0.75 0 0  0.8125 0 0  0.875 0 0  0.9375 0 0  1 0 0  0 0.0625 0  0.06243351987080348 0.06249491968360425 0  0.1248654825993014 0.06248973582971801 0  0.1872943889527767 0.06248435234210303 0  0.2497188922321234 0.06247869016896136 0  0.3121379153803768 0.06247269920960093 0  0.3745508213983521 0.0624663741720095 0  0.4369576613996052 0.06245977525267607 0  0.4993595316119555 0.06245305364458126 0  0.5617590832217052 0.06244648019050804 0  0.6241612556913565 0.06244047283103111 0  0.6865743685314082 0.06243561579471257 0  0.749011871533669 0.06243266623762741 0  0.8114954836874626 0.0624325754636304 0  0.874061540711547 0.06243670808999765 0  0.9367747811754995 0.06244816696887606 0  0.9997558448401027 0.06247912369726424 0  0 0.125 0  0.06236866918585902 0.1249899420952097 0  0.1247341641221959 0.1249796691887255 0  0.1870934125984648 0.1249689798362144 0  0.2494436163930534 0.1249577039870656 0  0.3117824670086307 0.1249457255834692 0  0.374108464351273 0.1249330134366061 0  0.4364213851183829 0.124919662629999 0  0.4987229594821072 0.12490594729277 0  0.561017833045001 0.1248923823809843 0  0.623314923999 0.1248797859255046 0  0.6856293528801268 0.12486932284568 0  0.7479852685523959 0.1248624965530871 0  0.8104202032985864 0.1248610365390598 0  0.8729921889622663 0.1248666013829989 0  0.9357919703594204 0.1248800380923508 0  0.9989663470177339 0.1248982423423391 0  0 0.1875 0  0.06230707926768758 0.1874851791988892 0  0.1246092535346657 0.1874700175155164 0  0.1869017365346735 0.1874541910675436 0  0.2491800755012967 0.1874374161998392 0  0.311440428409247 0.1874194800989178 0  0.3736799862481484 0.1874002845162523 0  0.4358976062223895 0.1873799071927129 0  0.4980947357753047 0.1873586845060624 0  0.5602767233662558 0.187337315354928 0  0.622454628892357 0.1873169778484922 0  0.6846476619918742 0.1872994325874268 0  0.7468863790798024 0.1872870508873027 0  0.8092167122441472 0.1872826340232424 0  0.8717046190735241 0.1872887239774674 0  0.9344401763820483 0.1873056682031287 0  0.9975372378257421 0.1873265802444062 0  0 0.25 0  0.06225049446970864 0.2499807573499831 0  0.1244942158967332 0.24996102978603 0  0.1867244879502928 0.2499403488365751 0  0.2489349395791243 0.2499182866716021 0  0.3111197907162961 0.2498944901896642 0  0.3732743145092259 0.2498687331424342 0  0.4353955585126854 0.2498409943289025 0  0.4974834241623287 0.2498115705869795 0  0.559542217746587 0.2497812320297084 0  0.6215827863671296 0.2497514206288396 0  0.6836253170811151 0.2497244758918232 0  0.745702761932068 0.2497038324354997 0  0.8078645679506248 0.2496940574280254 0  0.8701797831760011 0.2497004667016864 0  0.9327374682562356 0.2497279242023341 0  0.9956405640282572 0.2497787030407088 0  0 0.3125 0  0.06220079312969962 0.312476820941248 0  0.1243928265387649 0.3124529951709039 0  0.186567368759699 0.3124278867279989 0  0.2487158593889284 0.3124008896281962 0  0.3108301376713876 0.3123714586909078 0  0.3729028650100864 0.3123391622671076 0  0.4349282387134298 0.3123037689174535 0  0.4969031190022572 0.3122653840993834 0  0.5588287131346845 0.312224657003479 0  0.6207129640792166 0.312183079303363 0  0.6825737454247001 0.3121433906292395 0  0.7444428135119912 0.3121100773512292 0  0.8063701279563098 0.3120898797291151 0  0.868427535415653 0.3120920800867575 0  0.9307099370106876 0.3121281247562558 0  0.9933313023096155 0.3122098953122818 0  0 0.375 0  0.06215996651485224 0.3749735319207513 0  0.1243091373806288 0.3749462432386093 0  0.1864366274698547 0.3749173126506136 0  0.248531474528796 0.3748859253674567 0  0.310582736658067 0.3748512918938157 0  0.3725797814468006 0.3748126896508578 0  0.4345128757954555 0.3747695427405834 0  0.4963742250762975 0.3747215634159133 0  0.5581596557043549 0.3746689908961791 0  0.6198711731495669 0.3746129788434214 0  0.6815206269534315 0.3745561983282261 0  0.7431346157069553 0.3745037254019699 0  0.8047604746927869 0.3744642385399625 0  0.8664726062253154 0.3744513951439956 0  0.9283775328542738 0.3744848886094129 0  0.9906151523791894 0.3745900312271614 0  0 0.4375 0  0.06213004795419746 0.4374710640341544 0  0.1242473383240897 0.4374411330849787 0  0.1863388606823665 0.4374091945563792 0  0.2483911712271791 0.437374206311523 0  0.3103902828688898 0.4373350935641195 0  0.3723217168923046 0.437290764559232 0  0.4341708282619912 0.4372401607909799 0  0.4959235763478866 0.4371823694222711 0  0.5575679966363162 0.4371168461003205 0  0.6190967345805735 0.4370438300399692 0  0.6805111107809252 0.436965083920176 0  0.7418272398056992 0.4368851546710208 0  0.8030845974283034 0.4368133953367678 0  0.8643569089975319 0.4367669098006174 0  0.9257640794087111 0.4367741504795034 0  0.9874821543018524 0.4368777801258339 0  0 0.5 0  0.06211298954488787 0.4999695911742004 0  0.1242115067446384 0.4999380297328531 0  0.1862806292949436 0.4999041246593785 0  0.2483045613784813 0.4998666098499637 0  0.3102662475679895 0.4998241103073872 0  0.372147081491856 0.4997751167222736 0  0.4339268061654103 0.4997179797175996 0  0.4955837809206297 0.4996509475626129 0  0.557095917564724 0.499572296150999 0  0.6184427862774607 0.4994806486602668 0  0.6796096732394034 0.4993756729269243 0  0.7405947112390369 0.4992595006090517 0  0.8014204596969509 0.4991394412764215 0  0.8621510853943968 0.4990327815471763 0  0.922914825053831 0.4989742937899156 0  0.9839279832363864 0.499025608310244 0  0 0.5625 0  0.06211049061351945 0.5624692701655772 0  0.1242052515731025 0.5624372680821911 0  0.1862678938863903 0.5624026614245937 0  0.2482806772880355 0.5623639941813641 0  0.310223801435815 0.5623196173501933 0  0.3720746830278236 0.5622676118395542 0  0.4338072713592621 0.5622057044727445 0  0.4953915372074544 0.562131185553416 0  0.556793426928345 0.5620408557733558 0  0.617975860673377 0.5619310774546037 0  0.6789018499154653 0.5617981156005603 0  0.7395415939317208 0.5616391989708278 0  0.7998864543383347 0.5614552290586582 0  0.8599735215067594 0.5612569263702496 0  0.9199234375870706 0.5610771840651485 0  0.9799877287331826 0.5609918103379533 0  0 0.625 0  0.06212379064903757 0.6249702196227022 0  0.1242312760336379 0.6249391075705065 0  0.1863053009176025 0.6249052535700217 0  0.2483269126285638 0.6248670811627853 0  0.3102743243602297 0.624822745107437 0  0.3721217184189752 0.6247700024501394 0  0.433837861271864 0.6247060435766635 0  0.495384559947777 0.6246272659120518 0  0.5567151299432586 0.6245289721786739 0  0.6177733604917875 0.6244049894989496 0  0.6784941278743775 0.624247273764549 0  0.7388081156742791 0.6240457959103456 0  0.7986554330492353 0.6237896867899242 0  0.8580163401987968 0.6234723625660487 0  0.9169699262778926 0.6231070095026564 0  0.9757861359851921 0.6227632139691665 0  0 0.6875 0  0.06215344924661961 0.6874724979290076 0  0.1242909043515241 0.6874436839979602 0  0.1863953870362847 0.6874121565810527 0  0.2484477938194607 0.6873763213324962 0  0.3104255870058485 0.6873342660520561 0  0.3723011641113251 0.6872835942960738 0  0.4340397658204085 0.6872211905547939 0  0.4955967761955552 0.6871428725458284 0  0.5569143155073408 0.6870428554983307 0  0.6179172281679781 0.6869129024733309 0  0.6785091728067694 0.68674096694493 0  0.738571093203214 0.6865091141153464 0  0.7979680690970132 0.6861908591144185 0  0.8565784036872409 0.6857500061547569 0  0.9143717295636073 0.685150362300309 0  0.971567678870032 0.6844041690810206 0  0 0.75 0  0.06219914523329191 0.74997608443172 0  0.1243836398872159 0.7499509676111322 0  0.1865378095727178 0.7499233578412596 0  0.2486437355390268 0.7498917676959215 0  0.3106798016523284 0.7498543842149193 0  0.3726187832741854 0.7498088926969819 0  0.4344252206454599 0.7497522218249671 0  0.496051716883012 0.7496801535496316 0  0.557433670943014 0.7495866901138464 0  0.6184818455121612 0.7494629594401639 0  0.679072265358428 0.749295195449877 0  0.7390338673754581 0.7490608125105326 0  0.7981380062566824 0.7487206578101055 0  0.8561058973841796 0.7482047530900782 0  0.9126839290795498 0.7473944137278732 0  0.9679021953390133 0.7461595232959786 0  0 0.8125 0  0.06225953388952079 0.8124808680904719 0  0.1245068393704712 0.8124607371759971 0  0.1867287477091437 0.8124385286164438 0  0.2489100061146545 0.81241299102785 0  0.3110318759626219 0.8123825859714647 0  0.3730702131003398 0.812345334222117 0  0.4349926953694879 0.8122985978774957 0  0.4967546685801744 0.8122387574730942 0  0.5582927541402477 0.8121607077947431 0  0.6195148166201782 0.8120570063010581 0  0.6802840274408418 0.8119162532949211 0  0.7403936091585311 0.8117195087066157 0  0.7995283784464681 0.8114311303474221 0  0.857215394900536 0.8109728333297791 0  0.9128095461379223 0.8101459296487714 0  0.9658040899970421 0.8083860327288203 0  0 0.875 0  0.06233220147806943 0.8749866467310279 0  0.12465559179774 0.8749725774310746 0  0.1869606348424177 0.8749570173015768 0  0.2492361754631213 0.8749390642727246 0  0.3114683198717283 0.8749176064172847 0  0.3736388577603719 0.8748912148288706 0  0.4357229034074064 0.8748580024737603 0  0.497685211176043 0.8748154430730649 0  0.5594742056385895 0.8747601597550854 0  0.6210119668849113 0.8746877399609371 0  0.6821768028617951 0.8745927459033599 0  0.74277160402231 0.8744692931108504 0  0.8024632864595286 0.8743126314331829 0  0.8606596612046602 0.8741201849441615 0  0.9162492252973891 0.8738754280006086 0  0.9671039668495004 0.8734000145701466 0  0 0.9375 0  0.06241374688393449 0.9374931379138012 0  0.1248228726063627 0.9374859022532155 0  0.1872223597198276 0.9374778884468563 0  0.2496063017156943 0.9374686250117913 0  0.3119672774684308 0.9374575312227496 0  0.3742954540233257 0.9374438648179951 0  0.4365772174409618 0.9374266606042
[...]
<PointData  Vectors="f_54"> 
<DataArray  type="Float64"  Name="f_54"  NumberOfComponents="3" format="ascii">0.0000000000000000e+00 0.0000000000000000e+00 0.0000000000000000e+00  0.0000000000000000e+00 0.0000000000000000e+00 0.0000000000000000e+00  0.0000000000000000e+00 0.0000000000000000e+00 0.0000000000000000e+00  0.0000000000000000e+00 0.0000000000000000e+00 0.0000000000000000e+00  0.0000000000000000e+00 0.0000000000000000e+00 0.0000000000000000e+00  0.0000000000000000e+00 0.0000000000000000e+00 0.0000000000000000e+00  0.0000000000000000e+00 0.0000000000000000e+00 0.0000000000000000e+00  0.0000000000000000e+00 0.0000000000000000e+00 0.0000000000000000e+00  0.0000000000000000e+00 0.0000000000000000e+00 0.0000000000000000e+00  0.0000000000000000e+00 0.0000000000000000e+00 0.0000000000000000e+00  0.0000000000000000e+00 0.0000000000000000e+00 0.0000000000000000e+00  0.0000000000000000e+00 0.0000000000000000e+00 0.0000000000000000e+00  0.0000000000000000e+00 0.0000000000000000e+00 0.0000000000000000e+00  0.0000000000000000e+00 0.0000000000000000e+00 0.0000000000000000e+00  0.0000000000000000e+00 0.0000000000000000e+00 0.0000000000000000e+00  0.0000000000000000e+00 0.0000000000000000e+00 0.0000000000000000e+00  0.0000000000000000e+00 0.0000000000000000e+00 0.0000000000000000e+00  0.0000000000000000e+00 0.0000000000000000e+00 0.0000000000000000e+00  -1.7400232248173883e-06 -8.9701066489159255e-08 0.0000000000000000e+00  -3.5513914754297689e-06 -1.8236685962914336e-07 0.0000000000000000e+00  -5.5088572006012567e-06 -2.8100060049730823e-07 0.0000000000000000e+00  -7.6937556748978014e-06 -3.8864497788044476e-07 0.0000000000000000e+00  -1.0197780837747133e-05 -5.0835899645621607e-07 0.0000000000000000e+00  -1.3127496111231282e-05 -6.4313226921962737e-07 0.0000000000000000e+00  -1.6610257434443515e-05 -7.9569801646270643e-07 0.0000000000000000e+00  -2.0803072213485453e-05 -9.6819140547696293e-07 0.0000000000000000e+00  -2.5908098004355621e-05 -1.1615864000166709e-06 0.0000000000000000e+00  -3.2204247330385378e-05 -1.3748415949227700e-06 0.0000000000000000e+00  -4.0120263403562547e-05 -1.6037018013190812e-06 0.0000000000000000e+00  -5.0421201023164888e-05 -1.8390681493879016e-06 0.0000000000000000e+00  -6.4727086644024223e-05 -2.0641381747893030e-06 0.0000000000000000e+00  -8.7084476649597865e-05 -2.2442649762088057e-06 0.0000000000000000e+00  -1.2917096566670536e-04 -2.2721751383190780e-06 0.0000000000000000e+00  -2.2913320510810727e-04 -1.6575015274345850e-06 0.0000000000000000e+00  0.0000000000000000e+00 0.0000000000000000e+00 0.0000000000000000e+00  -3.4046227695003710e-06 -1.7622832624854014e-07 0.0000000000000000e+00  -6.9481893854995594e-06 -3.5833504660200844e-07 0.0000000000000000e+00  -1.0776188965018771e-05 -5.5228841148324721e-07 0.0000000000000000e+00  -1.5046751675554136e-05 -7.6416822322241789e-07 0.0000000000000000e+00  -1.9937781647995176e-05 -1.0001464355300384e-06 0.0000000000000000e+00  -2.5655226472399486e-05 -1.2663562929009177e-06 0.0000000000000000e+00  -3.2443332626866244e-05 -1.5685772640952709e-06 0.0000000000000000e+00  -4.0598620908355947e-05 -1.9116303734983709e-06 0.0000000000000000e+00  -5.0491450896184296e-05 -2.2983422304744830e-06 0.0000000000000000e+00  -6.2604096823697726e-05 -2.7279198374697903e-06 0.0000000000000000e+00  -7.7605901304316052e-05 -3.1936664492632102e-06 0.0000000000000000e+00  -9.6511505107744312e-05 -3.6804706880207236e-06 0.0000000000000000e+00  -1.2101621860508276e-04 -4.1646984472499079e-06 0.0000000000000000e+00  -1.5414925848823374e-04 -4.6290185874199562e-06 0.0000000000000000e+00  -2.0112676364845061e-04 -5.1530100902707477e-06 0.0000000000000000e+00  -2.6763507810597628e-04 -6.3934891538332668e-06 0.0000000000000000e+00  0.0000000000000000e+00 0.0000000000000000e+00 0.0000000000000000e+00  -4.9259454434794057e-06 -2.5665578138377895e-07 0.0000000000000000e+00  -1.0051739790517744e-05 -5.2201081893905948e-07 0.0000000000000000e+00  -1.5586492507233008e-05 -8.0492865524972457e-07 0.0000000000000000e+00  -2.1757233790006809e-05 -1.1145153086358642e-06 0.0000000000000000e+00  -2.8818844646762093e-05 -1.4601519074377883e-06 0.0000000000000000e+00  -3.7065172739197456e-05 -1.8513921719274651e-06 0.0000000000000000e+00  -4.6841854992124470e-05 -2.2976285536922440e-06 0.0000000000000000e+00  -5.8561604501134686e-05 -2.8073757253303072e-06 0.0000000000000000e+00  -7.2723235330709456e-05 -3.3869383617328062e-06 0.0000000000000000e+00  -8.9936622356091034e-05 -4.0381172576977584e-06 0.0000000000000000e+00  -1.1095670306921462e-04 -4.7544619842419119e-06 0.0000000000000000e+00  -1.3672713178016895e-04 -5.5153640288513589e-06 0.0000000000000000e+00  -1.6841282407491725e-04 -6.2766218139069364e-06 0.0000000000000000e+00  -2.0730316402607215e-04 -6.9522531478096711e-06 0.0000000000000000e+00  -2.5411928412077375e-04 -7.3578822747461354e-06 0.0000000000000000e+00  -3.0631453125848498e-04 -6.9347510316384977e-06 0.0000000000000000e+00  0.0000000000000000e+00 0.0000000000000000e+00 0.0000000000000000e+00  -6.2428612895869181e-06 -3.2815147649645341e-07 0.0000000000000000e+00  -1.2737189968536946e-05 -6.6766206944760389e-07 0.0000000000000000e+00  -1.9745912049254105e-05 -1.0301558820157200e-06 0.0000000000000000e+00  -2.7554260720171514e-05 -1.4276997256012476e-06 0.0000000000000000e+00  -3.6482010081335134e-05 -1.8729473117280802e-06 0.0000000000000000e+00  -4.6896858580900698e-05 -2.3791602986025219e-06 0.0000000000000000e+00  -5.9229048584772109e-05 -2.9600078639246807e-06 0.0000000000000000e+00  -7.3986807458249263e-05 -3.6289760066941421e-06 0.0000000000000000e+00  -9.1771077046689191e-05 -4.3980961954240918e-06 0.0000000000000000e+00  -1.1328545679886265e-04 -5.2754965195483059e-06 0.0000000000000000e+00  -1.3933133513056251e-04 -6.2609346620952660e-06 0.0000000000000000e+00  -1.7076391694753677e-04 -7.3379142013185418e-06 0.0000000000000000e+00  -2.0835076209896808e-04 -8.4601280961663361e-06 0.0000000000000000e+00  -2.5239749630655349e-04 -9.5289874094788516e-06 0.0000000000000000e+00  -3.0185950503177603e-04 -1.0360946783892299e-05 0.0000000000000000e+00  -3.5251614641687920e-04 -1.0676066115494253e-05 0.0000000000000000e+00  0.0000000000000000e+00 0.0000000000000000e+00 0.0000000000000000e+00  -7.3036057751390440e-06 -3.8804709649399823e-07 0.0000000000000000e+00  -1.4898847286430592e-05 -7.8985326202334224e-07 0.0000000000000000e+00  -2.3090428513061820e-05 -1.2195638293753992e-06 0.0000000000000000e+00  -3.2208771633256607e-05 -1.6920261265825098e-06 0.0000000000000000e+00  -4.2624172186216366e-05 -2.2231004423016653e-06 0.0000000000000000e+00  -5.4762300572571913e-05 -2.8298996939110575e-06 0.0000000000000000e+00  -6.9121011883545517e-05 -3.5308879526866759e-06 0.0000000000000000e+00  -8.6287571846742589e-05 -4.3457029170863788e-06 0.0000000000000000e+00  -1.0695354680182546e-04 -5.2944398112252398e-06 0.0000000000000000e+00  -1.3192072687892356e-04 -6.3958862045534288e-06 0.0000000000000000e+00  -1.6208367539516193e-04 -7.6637290832200369e-06 0.0000000000000000e+00  -1.9835963234329367e-04 -9.0989262164773891e-06 0.0000000000000000e+00  -2.4151017812796584e-04 -1.0675155563622775e-05 0.0000000000000000e+00  -2.9175928244500748e-04 -1.2312943525329937e-05 0.0000000000000000e+00  -3.4807538116016462e-04 -1.3839130508140733e-05 0.0000000000000000e+00  -4.0703245003011814e-04 -1.4939047468066731e-05 0.0000000000000000e+00  0.0000000000000000e+00 0.0000000000000000e+00 0.0000000000000000e+00  -8.0679799022653354e-06 -4.3393796962015075e-07 0.0000000000000000e+00  -1.6454642400097871e-05 -8.8365053742821564e-07 0.0000000000000000e+00  -2.5492667578928057e-05 -1.3654259626416523e-06 0.0000000000000000e+00  -3.5542709092941983e-05 -1.8965410723478276e-06 0.0000000000000000e+00  -4.7009056440959521e-05 -2.4957711605703173e-06 0.0000000000000000e+00  -6.0357213301770796e-05 -3.1839121336580184e-06 0.0000000000000000e+00  -7.6133734282515241e-05 -3.9843044926294623e-06 0.0000000000000000e+00  -9.4988006611126894e-05 -4.9233186385294083e-06 0.0000000000000000e+00  -1.1769411922275693e-04 -6.0306830834020292e-06 0.0000000000000000e+00  -1.4516765574186164e-04 -7.3393434034212517e-06 0.0000000000000000e+00  -1.7846571974442771e-04 -8.8840812392471579e-06 0.0000000000000000e+00  -2.1874669022030704e-04 -1.0697101896949076e-05 0.0000000000000000e+00  -2.6714728848953252e-04 -1.2796699647595646e-05 0.0000000000000000e+00  -3.2451034728953721e-04 -1.5161233207244220e-05 0.0000000000000000e+00  -3.9088176309841956e-04 -1.7674445092254154e-05 0.0000000000000000e+00  -4.6473180085221459e-04 -2.0019247535269218e-05 0.0000000000000000e+00  0.0000000000000000e+00 0.0000000000000000e+00 0.0000000000000000e+00  -8.5090359617948816e-06 -4.6380818412046947e-07 0.0000000000000000e+00  -1.7349598537280027e-05 -9.4488642973581588e-07 0.0000000000000000e+00  -2.6867333258252048e-05 -1.4611316904437335e-06 0.0000000000000000e+00  -3.7436629997101157e-05 -2.0316958573529125e-06 0.0000000000000000e+00  -4.9477113165535679e-05 -2.6776874528780488e-06 0.0000000000000000e+00  -6.3472850628989966e-05 -3.4229777784226095e-06 0.0000000000000000e+00  -7.9995423409477478e-05 -4.2951769687036111e-06 0.0000000000000000e+00  -9.9732025386219209e-05 -5.3268768477326693e-06 0.0000000000000000e+00  -1.2351940635309711e-04 -6.5572921202612920e-06 0.0000000000000000e+00  -1.5238313840892353e-04 -8.0344301455751388e-06 0.0000000000000000e+00  -1.8757820600750171e-04 -9.8177484256039987e-06 0.0000000000000000e+00  -2.3061922774969396e-04 -1.1980537073907692e-05 0.0000000000000000e+00  -2.8327363700043494e-04 -1.4609045328138926e-05 0.0000000000000000e+00  -3.4746592594710060e-04 -1.7789648501012996e-05 0.0000000000000000e+00  -4.2500765874575047e-04 -2.1562848508960256e-05 0.0000000000000000e+00  -5.1704440402448859e-04 -2.5801215133356065e-05 0.0000000000000000e+00  0.0000000000000000e+00 0.0000000000000000e+00 0.0000000000000000e+00  -8.6141457045317266e-06 -4.7616609597218130e-07 0.0000000000000000e+00  -1.7558115547275859e-05 -9.7045191445137763e-07 0.0000000000000000e+00  -2.7175039239680146e-05 -1.5016826407096121e-06 0.0000000000000000e+00  -3.7835682081089525e-05 -2.0901341808025739e-06 0.0000000000000000e+00  -4.9954644816237504e-05 -2.7583743175691795e-06 0.0000000000000000e+00  -6.4009926854677172e-05 -3.5322756908008588e-06 0.0000000000000000e+00  -8.0567891556911932e-05 -4.4423279048313241e-06 0.0000000000000000e+00  -1.0031665041820091e-04 -5.5254725793856063e-06 0.0000000000000000e+00  -1.2411227175023116e-04 -6.8278629703758103e-06 0.0000000000000000e+00  -1.5304389716106512e-04 -8.4092555279535162e-06 0.0000000000000000e+00  -1.8852512408874830e-04 -1.0350195310219889e-05 0.0000000000000000e+00  -2.3241772917487275e-04 -1.2763595455403346e-05 0.0000000000000000e+00  -2.8718459300805798e-04 -1.5811863655285588e-05 0.0000000000000000e+00  -3.5604052480013240e-04 -1.9726460078338312e-05 0.0000000000000000e+00  -4.4300632562256154e-04 -2.4811115988061481e-05 0.0000000000000000e+00  -5.5266752745550393e-04 -3.1370115522146421e-05 0.0000000000000000e+00  0.0000000000000000e+00 0.0000000000000000e+00 0.0000000000000000e+00  -8.3853030133409560e-06 -4.7016899229406271e-07 0.0000000000000000e+00  -1.7084734753927098e-05 -9.5856768197464946e-07 0.0000000000000000e+00  -2.6423935710214790e-05 -1.4841611791207191e-06 0.0000000000000000e+00  -3.6752935095868071e-05 -2.0674539455169470e-06 0.0000000000000000e+00  -4.8460519813525571e-05 -2.7313839291648392e-06 0.0000000000000000e+00  -6.1991945513291261e-05 -3.5024007916269701e-06 0.0000000000000000e+00  -7.7872548612892327e-05 -4.4118667315816844e-06 0.0000000000000000e+00  -9.6741668417719924e-05 -5.4980405319406761e-06 0.0000000000000000e+00  -1.1940448482376615e-04 -6.8091695975696708e-06 0.0000000000000000e+00  -1.4691459188981114e-04 -8.4087819172017711e-06 0.0000000000000000e+00  -1.8070788650806046e-04 -1.0385452149014332e-05 0.0000000000000000e+00  -2.2281793340331698e-04 -1.2871620275346898e-05 0.0000000000000000e+00  -2.7620926376090415e-04 -1.6079911737848556e-05 0.0000000000000000e+00  -3.4525106025038273e-04 -2.0369535615501100e-05 0.0000000000000000e+00  -4.3627758532192905e-04 -2.6349918987433641e-05 0.0000000000000000e+00  -5.5797953717065627e-04 -3.4976695514662612e-05 0.0000000000000000e+00  0.0000000000000000e+00 0.0000000000000000e+00 0.0000000000000000e+00  -7.8385075701005976e-06 -4.4571494752382406e-07 0.0000000000000000e+00  -1.5962991961142483e-05 -9.0898380543244655e-07 0.0000000000000000e+00  -2.4668296900751995e-05 -1.4080747043759995e-06 0.0000000000000000e+00  -3.4268396254200755e-05 -1.9627673602863419e-06 0.0000000000000000e+00  -4.5107250181142974e-05 -2.5952075566920387e-06 0.0000000000000000e+00  -5.7571903591454855e-05 -3.3308957948628021e-06 0.0000000000000000e+00  -7.2110040248450297e-05 -4.1998897236954576e-06 0.0000000000000000e+00  -8.9256382586945469e-05 -5.2383670005149556e-06 0.0000000000000000e+00  -1.0967659877903453e-04 -6.4908757500189815e-06 0.0000000000000000e+00  -1.3424546235291907e-04 -8.0140958784066103e-06 0.0000000000000000e+00  -1.6419061513094497e-04 -9.8842844517133254e-06 0.0000000000000000e+00  -2.0135793597259586e-04 -1.2214136466614652e-05 0.0000000000000000e+00  -2.4869135013494745e-04 -1.5193678492484073e-05 0.0000000000000000e+00  -3.1105986539735439e-04 -1.9190019231797904e-05 0.0000000000000000e+00  -3.9655228196253480e-04 -2.4977853496936180e-05 0.0000000000000000e+00  -5.1810685159624399e-04 -3.4197226498998855e-05 0.0000000000000000e+00  0.0000000000000000e+00 0.0000000000000000e+00 0.0000000000000000e+00  -7.0021563011047164e-06 -4.0348623232392595e-07 0.0000000000000000e+00  -1.4252111269163386e-05 -8.2307131432118497e-07 0.0000000000000000e+00  -2.2003397418922179e-05 -1.2755048067878249e-06 0.0000000000000000e+00  -3.0522098331639398e-05 -1.7789233934951469e-06 0.0000000000000000e+00  -4.0092891564274023e-05 -2.3536006276805000e-06 0.0000000000000000e+00  -5.1025093330462763e-05 -3.0227489660500586e-06 0.0000000000000000e+00  -6.3659416948753540e-05 -3.8133502958801248e-06 0.0000000000000000e+00  -7.8377635290693138e-05 -4.7569280680271295e-06 0.0000000000000000e+00  -9.5620909184188056e-05 -5.8900653255943131e-06 0.0000000000000000e+00  -1.1593071323896317e-04 -7.2543555767779101e-06 0.0000000000000000e+00  -1.4004416516381299e-04 -8.8956400414499328e-06 0.0000000000000000e+00  -1.6911311328589846e-04 -1.0864108117489138e-05 0.0000000000000000e+00  -2.0519185158356413e-04 -1.3224706856926933e-05 0.0000000000000000e+00  -2.5228072712227338e-04 -1.6116256212008721e-05 0.0000000000000000e+00  -3.1843726114193498e-04 -1.9992052252737711e-05 0.0000000000000000e+00  -4.1953323978724012e-04 -2.6433391355597058e-05 0.0000000000000000e+00  0.0000000000000000e+00 0.0000000000000000e+00 0.0000000000000000e+00  -5.9145492087934950e-06 -3.4494019202298437e-07 0.0000000000000000e+00  -1.2031686907261313e-05 -7.0379722420846384e-07 0.0000000000000000e+00  -1.8556682638525710e-05 -1.0910468179630622e-06 0.0000000000000000e+00  -2.5700697030874904e-05 -1.5223646159583505e-06 0.0000000000000000e+00  -3.3681707205876642e-05 -2.0152517855196550e-06 0.0000000000000000e+00  -4.2722556360467593e-05 -2.5896568356369567e-06 0.0000000000000000e+00  -5.3044373533322548e-05 -3.2684977497119747e-06 0.0000000000000000e+00  -6.4853163279982970e-05 -4.0778120695365875e-06 0.0000000000000000e+00  -7.8317660375216074e-05 -5.0458390044492227e-06 0.0000000000000000e+00  -9.3539633483502674e-05 -6.1993503748453423e-06 0.0000000000000000e+00  -1.1052925460606914e-04 -7.5533694807347509e-06 0.0000000000000000e+00  -1.2923211827314390e-04 -9.0861169283434953e-06 0.0000000000000000e+00  -1.4974623048107346e-04 -1.0684566842757155e-05 0.0000000000000000e+00  -1.7310493328688908e-04 -1.2045359636456404e-05 0.0000000000000000e+00  -2.0361449875650188e-04 -1.2572232136168309e-05 0.0000000000000000e+00  -2.5523400157968269e-04 -1.1731168994177908e-05 0.0000000000000000e+00  0.0000000000000000e+00 0.0000000000000000e+00 0.0000000000000000e+00  -4.6208581362484761e-06 -2.7225516725727548e-07 0.0000000000000000e+00  -9.3950717507173610e-06 -5.5560400025002605e-07 0.0000000000000000e+00  -1.4476336145470786e-05 -8.6158891549902105e-07 0.0000000000000000e+00  -2.0018982800536256e-05 -1.2027261031447110e-06 0.0000000000000000e+00  -2.6174903243168022e-05 -1.5930174004680273e-06 0.0000000000000000e+00  -3.3085174623212360e-05 -2.0484704479356898e-06 0.0000000000000000e+00  -4.0862095897342011e-05 -2.5875665932711076e-06 0.0000000000000000e+00  -4.9554268811224955e-05 -3.2314841052437047e-06 0.0000000000000000e+00  -5.9082287707583162e-05 -4.0035137440892101e-06 0.0000000000000000e+00  -6.9124990551891336e-05 -4.9260324896962987e-06 0.0000000000000000e+00  -7.8927154872254139e-05 -6.0102751832339905e-06 0.0000000000000000e+00  -8.6997000130889746e-05 -7.2251468590220977e-06 0.0000000000000000e+00  -9.0697780651266994e-05 -8.4063559338508698e-06 0.0000000000000000e+00  -8.5921625956798377e-05 -9.0011067073715281e-06 0.0000000000000000e+00  -6.7742231451032347e-05 -7.3654026867155722e-06 0.0000000000000000e+00  -3.5671697906983857e-05 1.3718933565914647e-06 0.0000000000000000e+00  0.0000000000000000e+00 0.0000000000000000e+00 0.0000000000000000e+00  -3.1701210559489088e-06 -1.8824449170162906e-07 0.0000000000000000e+00  -6.4427378103386064e-06 -3.8422842833951961e-07 0.0000000000000000e+00  -9.9195139934807877e-06 -5.9601232609435473e-07 0.0000000000000000e+00  -1.3700069190761642e-05 -8.3236342296210962e-07 0.0000000000000000e+00  -1.7877329079322161e-05 -1.1031503824752375e-06 0.0000000000000000e+00  -2.2526938710654216e-05 -1.4198020129955081e-06 0.0000000000000000e+00  -2.7685307317892586e-05 -1.7958918722516050e-06 0.0000000000000000e+00  -3.3305975406298768e-05 -2.2480027629666276e-06 0.0000000000000000e+00  -3.9174441708588029e-05 -2.7972681244941276e-06 0.0000000000000000e+00  -4.4742933968402955e-05 -3.4725722468834248e-06 0.0000000000000000e+00  -4.8810551608558264e-05 -4.3176158574380128e-06 0.0000000000000000e+00  -4.8906372641154447e-05 -5.4060205729132456e-06 0.0000000000000000e+00  -4.0114920843747387e-05 -6.8701573036082439e-06 0.0000000000000000e+00  -1.2936352546682507e-05 -8.9488337662106610e-06 0.0000000000000000e+00  4.9984961559128986e-05 -1.2086148012388618e-05 0.0000000000000000e+00  1.7510665862038922e-04 -1.7312706912973474e-05 0.0000000000000000e+00  0.0000000000000000e+00 0.0000000000000000e+00 0.0000000000000000e+00  -1.6128916602890662e-06 -9.6247816674959961e-08 0.0000000000000000e+00  -3.2771060141483772e-06 -1.9648354292083086e-07 0.0000000000000000e+00  -5.0431769419085347e-06 -3.0486641793475885e-07 0.0000000000000000e+00  -6.9597216836930970e-06 -4.2593776532064676e-07 0.0000000000000000e+00  -9.0701145557773630e-06 -5.6485092017120699e-07 0.0000000000000000e+00  -1.1405167473529895e-05 -7.2767829510573446e-07 0.0000000000000000e+00  -1.3967891073424185e-05 -9.2191403207339815e-07 0.0000000000000000e+00  -1.6702466322687930e-05 -1.1575182238314161e-06 0.0000000000000000e+00  -1.9431284434446161e-05 -1.4495478390066188e-06 0.0000000000000000e+00  -2.1726574354264112e-05 -1.8255752240676015e-06 0.0000000000000000e+00  -2.2647781826679723e-05 -2.3477253610369476e-06 0.0000000000000000e+00  -2.0210543851705252e-05 -3.1791702128593453e-06 0.0000000000000000e+00  -1.0367831885443695e-05 -4.7819532835165861e-06 0.0000000000000000e+00  1.4653662360125767e-05 -8.4730558606598156e-06 0.0000000000000000e+00  6.7794544602807968e-05 -1.7775173064979467e-05 0.0000000000000000e+00  1.6307545946232530e-04 -4.0519357522566575e-05 0.0000000000000000e+00  0.0000000000000000e+00 0.0000000000000000e+00 0.0000000000000000e+00  0.0000000000000000e+00 0.0000000000000000e+00 0.0000000000000000e+00  0.0000000000000000e+00 0.0000000000000000e+00 0.0000000000000000e+00  0.0000000000000000e+00 0.0000000000000000e+00 0.0000000000000000e+00  0.0000000000000000e+00 0.0000000000000000e+00 0.0000000000000000e+00  0.0000000000000000e+00 0.000