<?xml version="1.0"?>
<VTKFile type="UnstructuredGrid"  version="0.1"  >
<UnstructuredGrid>
<Piece  NumberOfPoints="289" NumberOfCells="512">
<Points>
<DataArray  type="Float64"  NumberOfComponents="3"  format="ascii">0 0 0  0.0625 0 0  0.125 0 0  0.1875 0 0  0.25 0 0  0.3125 0 0  0.375 0 0  0.4375 0 0  0.5 0 0  0.5625 0 0  0.625 0 0  0.6875 0 0  0.75 0 0  0.8125 0 0  0.875 0 0  0.9375 0 0  1 0 0  0 0.0625 0  0.06257635021013019 0.06249837112489947 0  0.1251550895699846 0.06249668991071818 0  0.187738632289992 0.06249490361368314 0  0.2503294328126557 0.0624929590794754 0  0.3129299936805452 0.06249080320886652 0  0.3755428604859409 0.06248838433825799 0  0.438170605803321 0.06248565497895479 0  0.5008158174246671 0.06248257635466008 0  0.5634811410680026 0.06247912479928253 0  0.626169518820284 0.06247529834697146 0  0.6888850128195216 0.06247111523959473 0  0.7516353260444896 0.06246657097268624 0  0.8144394038806397 0.06246142082426019 0  0.8773512455456931 0.0624542374220781 0  0.9405397529006206 0.06243834666279319 0  1.00458302466225 0.06238339356081838 0  0 0.125 0  0.06265040070785413 0.1249967920314482 0  0.1253055691743213 0.1249934793626942 0  0.1879703293892949 0.1249899562029301 0  0.250649598128927 0.1249861153241432 0  0.3133484050407175 0.124981848598412 0  0.3760718819699208 0.1249770492995096 0  0.4388252168818818 0.124971617154093 0  0.5016135817365175 0.1249654674218129 0  0.5644420790115472 0.1249585455303732 0  0.6273158337811714 0.1249508489221645 0  0.6902405383015255 0.124942458509557 0  0.7532241176730338 0.1249335898042302 0  0.8162807559746109 0.1249247263596313 0  0.8794385234212505 0.1249172009867364 0  0.9427451477401511 0.1249162152882189 0  1.006216268525394 0.1249467920141099 0  0 0.1875 0  0.06271977137872792 0.1874953151257129 0  0.1254466498523516 0.1874904737789448 0  0.1881878413626947 0.1874853172180097 0  0.2509507211120969 0.1874796831312374 0  0.3137428766154601 0.1874734054792691 0  0.3765720973294956 0.1874663167087014 0  0.4394462902151467 0.1874582538396842 0  0.5023733027585005 0.1874490706301657 0  0.5653606445081379 0.187438658997055 0  0.6284151182673494 0.1874269842216328 0  0.6915423928490934 0.187414140409281 0  0.7547464996997183 0.1874004353562384 0  0.8180288220202283 0.1873865124966617 0  0.8813843944707621 0.1873734587965963 0  0.9447877287406078 0.1873623314243247 0  1.008148216380684 0.1873489577839169 0  0 0.25 0  0.06278212245351994 0.2499939921903877 0  0.1255736114426791 0.2499877778420784 0  0.1883839919101317 0.2499811463475946 0  0.2512230712729087 0.249973879968116 0  0.3141010263438005 0.249965751908519 0  0.3770284152597106 0.2499565269010727 0  0.4400160740310313 0.2499459661072242 0  0.503074843064849 0.249933839222156 0  0.5662150481769801 0.2499199483254532 0  0.6294456251322702 0.2499041704383192 0  0.6927727016759362 0.2498865288669717 0  0.7561972682699932 0.2498673060256043 0  0.8197111227898626 0.2498472072148225 0  0.8832893197392806 0.2498275607254937 0  0.9468759694203764 0.249810492241809 0  1.010361037699592 0.2497993313642448 0  0 0.3125 0  0.06283519535018141 0.3124928732602493 0  0.1256818785318433 0.3124854933807731 0  0.1885517766245907 0.3124776007381216 0  0.2514570601117139 0.3124689235519811 0  0.3144105056741554 0.3124591729900895 0  0.3774255724266519 0.3124480402489377 0  0.440516335267035 0.3124351973242099 0  0.5036971900048461 0.3124203044796925 0  0.5669822003516621 0.312403029626084 0  0.6303838879017305 0.31238308844097 0  0.6939111584499457 0.3123603196973131 0  0.7575658929142134 0.3123348183189048 0  0.8213375104412256 0.3123071590016911 0  0.8851946667629121 0.3122787573220511 0  0.9490737890286436 0.3122524531530292 0  1.012867144713314 0.3122335545083227 0  0 0.375 0  0.06287687105834541 0.3749920048607955 0  0.125767132729538 0.3749837158464177 0  0.188684518216282 0.3749748297435408 0  0.2516434172763853 0.3749650250387342 0  0.3146591546947178 0.3749539530001614 0  0.3777481892960214 0.374941229444814 0  0.4409281714088736 0.3749264282475665 0  0.5042177574704448 0.3749090788192486 0  0.5676360197962672 0.374888672039068 0  0.6312011996470459 0.3748646834024544 0  0.6949284275519104 0.3748366300167243 0  0.7588258874564523 0.374804191944497 0  0.8228887942161707 0.3747674511414251 0  0.8870906837126596 0.3747273335993383 0  0.951372331873695 0.3746863680510549 0  1.015630811308081 0.3746498081495222 0  0 0.4375 0  0.06290525052233632 0.4374914276125521 0  0.1258254721647436 0.437482529347743 0  0.1887761006534727 0.4374729670443678 0  0.2517734871047836 0.4374623777316438 0  0.3148353324338689 0.437450360129417 0  0.3779810741623302 0.4374364599079973 0  0.4412321726566614 0.437420153508525 0  0.5046122006042157 0.4374008308474534 0  0.568146569983692 0.4373777785970512 0  0.6318616242370504 0.4373501690731671 0  0.6957826716612638 0.4373170674750169 0  0.759930346763013 0.4372774871186787 0  0.8243145122936197 0.4372305570916692 0  0.8889249027943537 0.4371759326066164 0  0.9537181347710966 0.4371146883952755 0  1.018601838979073 0.4370510883122656 0  0 0.5 0  0.06291875825221016 0.4999911733750583 0  0.1258536226127741 0.4999820005888151 0  0.1888212943670362 0.4999721206306992 0  0.2518396740340884 0.4999611418677345 0  0.3149284820992266 0.4999486242177346 0  0.3781098905858455 0.4999340579150227 0  0.4414091395430554 0.4999168370232233 0  0.5048550741262672 0.4998962251843272 0  0.568480470350053 0.499871310374542 0  0.6323219031295088 0.4998409452994678 0  0.6964187255701872 0.4998036725511964 0  0.7608104503763473 0.4997576444343436 0  0.8255314487832746 0.4997005804518946 0  0.8906014683130732 0.4996298916394141 0  0.9560102048524074 0.4995432985811947 0  1.02169438632473 0.4994406669038815 0  0 0.5625 0  0.06291626523219999 0.562491262278299 0  0.1258491936511067 0.5624821724545588 0  0.1888161663094836 0.562472361884031 0  0.2518360370882649 0.5624614273294579 0  0.3149299485839763 0.5624489100287016 0  0.3781222397467133 0.562434269572759 0  0.4414414647416471 0.5624168492186187 0  0.5049215212633589 0.5623958271978877 0  0.5686028397011629 0.5623701449941242 0  0.6325334880113396 0.5623383975801794 0  0.6967698583121902 0.5622986615015347 0  0.7613762498095671 0.5622482257749861 0  0.8264220473425685 0.5621831876437821 0  0.8919742142881565 0.5620979162338507 0  0.9580815125522243 0.5619845712942555 0  1.02474577799596 0.5618333890415869 0  0 0.625 0  0.06289722079370638 0.6249917001150208 0  0.1258109591909473 0.6249830582939236 0  0.1887585443169042 0.6249737156124625 0  0.2517589947518362 0.6249632773326521 0  0.3148340061530173 0.6249512909098672 0  0.3780091225581318 0.6249372180663717 0  0.4413151703600288 0.6249203968284834 0  0.5047900441923079 0.6248999864659532 0  0.5684809345329979 0.6248748824422038 0  0.6324470560799006 0.6248435768403884 0  0.6967628245590949 0.6248039164132078 0  0.7615211305711207 0.6247526646945789 0  0.8268356549051581 0.6246846909378532 0  0.8928396730988953 0.6245914813157273 0  0.959676036991397 0.6244585789352517 0  1.027469305388998 0.6242619759825584 0  0 0.6875 0  0.06286177671329748 0.6874924765915238 0  0.1257391272664774 0.687484638032539 0  0.1886484791373435 0.6874761531268698 0  0.2516080579258609 0.6874666567523073 0  0.314638984545616 0.6874557291946872 0  0.3777666402712861 0.6874428701847159 0  0.4410224413939353 0.6874274641129851 0  0.5044462181366896 0.6874087303224621 0  0.5680894665742028 0.6873856469018749 0  0.632019836204173 0.6873568241412902 0  0.6963273098444346 0.6873202750007372 0  0.7611325505314406 0.6872729597598249 0  0.8265975943900995 0.6872098079772004 0  0.89293778567156 0.6871214923278941 0  0.9604298932642606 0.6869892114217008 0  1.029401726336131 0.6867724649588968 0  0 0.75 0  0.06281088202513156 0.7499935648239511 0  0.125635552628042 0.7499868570111448 0  0.18848862554569 0.7499795900671193 0  0.2513864688576384 0.7499714482467329 0  0.3143483121854799 0.7499620692681299 0  0.3773976749839178 0.7499510234866994 0  0.4405643063710435 0.7499377877474164 0  0.5038869224742049 0.7499217113549854 0  0.5674171836632811 0.7499019699480283 0  0.6312256088001335 0.7498774989016121 0  0.6954105370736644 0.7498468857134675 0  0.7601119096947211 0.7498081614564116 0  0.8255326462792514 0.7497582967795516 0  0.8919715819710017 0.7496917418037692 0  0.9598714731109321 0.7495957921791437 0  1.029874162462131 0.7494358462175797 0  0 0.8125 0  0.06274632568703238 0.8124949222352412 0  0.1255038415165972 0.8124896279088757 0  0.1882844534117778 0.8124838896744203 0  0.2511015998221718 0.8124774575384591 0  0.3139712438518651 0.8124700461180816 0  0.3769131877026285 0.8124613204073168 0  0.4399529151456626 0.8124508802548203 0  0.5031242881804499 0.8124382451539529 0  0.5664736363789376 0.8124228444241757 0  0.6300661594272244 0.8124040264431682 0  0.6939962743471871 0.8123811218928642 0  0.7584049296164398 0.8123536488304193 0  0.8235098287528015 0.8123218714553657 0  0.88966118562468 0.8122881422408528 0  0.9574512650389232 0.8122592201595483 0  1.027923483609045 0.8122438880016435 0  0 0.875 0  0.06267070777521168 0.8749964927261322 0  0.1253493045669784 0.8749928354376091 0  0.1880442076099102 0.8749888708652207 0  0.2507649705725569 0.874984426608421 0  0.3135230322065801 0.8749793070990117 0  0.3763327262442637 0.8749732854914924 0  0.439212727174123 0.874966096760016 0  0.5021882181110903 0.8749574356290597 0  0.565294271640296 0.8749469685992718 0  0.6285813205966376 0.8749343833238796 0  0.6921243556931324 0.8749195357448285 0  0.7560390818948217 0.8749028650198513 0  0.8205120056935171 0.874886619049236 0  0.8858622263681124 0.8748789262644794 0  0.952696957257659 0.8749098562672614 0  1.022509946783695 0.8751102562686097 0  0 0.9375 0  0.06258732880296658 0.93749820976959 0  0.1251787326850016 0.9374963429575555 0  0.1877785664864208 0.9374943193793986 0  0.2503917885382512 0.9374920513793955 0  0.3130243620066108 0.9374894400510392 0  0.3756838015456158 0.9374863717723689 0  0.4383799647067508 0.9374827160791427 0  
[...]
<PointData  Vectors="f_54"> 
<DataArray  type="Float64"  Name="f_54"  NumberOfComponents="3" format="ascii">0.0000000000000000e+00 0.0000000000000000e+00 0.0000000000000000e+00  0.0000000000000000e+00 0.0000000000000000e+00 0.0000000000000000e+00  0.0000000000000000e+00 0.0000000000000000e+00 0.0000000000000000e+00  0.0000000000000000e+00 0.0000000000000000e+00 0.0000000000000000e+00  0.0000000000000000e+00 0.0000000000000000e+00 0.0000000000000000e+00  0.0000000000000000e+00 0.0000000000000000e+00 0.0000000000000000e+00  0.0000000000000000e+00 0.0000000000000000e+00 0.0000000000000000e+00  0.0000000000000000e+00 0.0000000000000000e+00 0.0000000000000000e+00  0.0000000000000000e+00 0.0000000000000000e+00 0.0000000000000000e+00  0.0000000000000000e+00 0.0000000000000000e+00 0.0000000000000000e+00  0.0000000000000000e+00 0.0000000000000000e+00 0.0000000000000000e+00  0.0000000000000000e+00 0.0000000000000000e+00 0.0000000000000000e+00  0.0000000000000000e+00 0.0000000000000000e+00 0.0000000000000000e+00  0.0000000000000000e+00 0.0000000000000000e+00 0.0000000000000000e+00  0.0000000000000000e+00 0.0000000000000000e+00 0.0000000000000000e+00  0.0000000000000000e+00 0.0000000000000000e+00 0.0000000000000000e+00  0.0000000000000000e+00 0.0000000000000000e+00 0.0000000000000000e+00  0.0000000000000000e+00 0.0000000000000000e+00 0.0000000000000000e+00  5.6626578295583385e-07 -4.6241544092886942e-08 0.0000000000000000e+00  1.1678933138269530e-06 -9.4060736899701925e-08 0.0000000000000000e+00  1.8433868279461944e-06 -1.4509003594683657e-07 0.0000000000000000e+00  2.6377513150857207e-06 -2.0106931767993150e-07 0.0000000000000000e+00  3.6065941615720151e-06 -2.6391482955605154e-07 0.0000000000000000e+00  4.8214128218172495e-06 -3.3581154925281794e-07 0.0000000000000000e+00  6.3768731652297795e-06 -4.1934893291949868e-07 0.0000000000000000e+00  8.4015995284019986e-06 -5.1774055374804431e-07 0.0000000000000000e+00  1.1075775663753774e-05 -6.3522209685266611e-07 0.0000000000000000e+00  1.4663506746613120e-05 -7.7788198239415171e-07 0.0000000000000000e+00  1.9580736218908654e-05 -9.5569728991218251e-07 0.0000000000000000e+00  2.6557156133648352e-05 -1.1883517652778352e-06 0.0000000000000000e+00  3.7068437660099688e-05 -1.5240803643401302e-06 0.0000000000000000e+00  5.4612324310924854e-05 -2.1069007614476334e-06 0.0000000000000000e+00  8.8865500021033161e-05 -3.4373674043478449e-06 0.0000000000000000e+00  1.7104367195727474e-04 -7.5010926372936116e-06 0.0000000000000000e+00  0.0000000000000000e+00 0.0000000000000000e+00 0.0000000000000000e+00  1.0985873232338004e-06 -9.1018215705427118e-08 0.0000000000000000e+00  2.2651275908872827e-06 -1.8515653736201252e-07 0.0000000000000000e+00  3.5736012347341675e-06 -2.8564090497443936e-07 0.0000000000000000e+00  5.1104580370898064e-06 -3.9590392751679216e-07 0.0000000000000000e+00  6.9824363092325323e-06 -5.1971442672869630e-07 0.0000000000000000e+00  9.3265082212818075e-06 -6.6134595393264327e-07 0.0000000000000000e+00  1.2323186190352861e-05 -8.2581332291541735e-07 0.0000000000000000e+00  1.6215236241099680e-05 -1.0192258747507435e-06 0.0000000000000000e+00  2.1335645481822972e-05 -1.2493419485607940e-06 0.0000000000000000e+00  2.8152782968732988e-05 -1.5264730481557967e-06 0.0000000000000000e+00  3.7349926089111658e-05 -1.8649724648814972e-06 0.0000000000000000e+00  4.9976048865390064e-05 -2.2854366071953500e-06 0.0000000000000000e+00  6.7740157087416695e-05 -2.8158626449545024e-06 0.0000000000000000e+00  9.3546180870506847e-05 -3.4770204127996803e-06 0.0000000000000000e+00  1.3211864386973219e-04 -4.1623617416602776e-06 0.0000000000000000e+00  1.8836273807345053e-04 -3.9134179205160788e-06 0.0000000000000000e+00  0.0000000000000000e+00 0.0000000000000000e+00 0.0000000000000000e+00  1.5643781799590119e-06 -1.3278452280564604e-07 0.0000000000000000e+00  3.2236842938620553e-06 -2.7014905331636842e-07 0.0000000000000000e+00  5.0812096375325490e-06 -4.1682233101571572e-07 0.0000000000000000e+00  7.2575615671588837e-06 -5.7782208986402324e-07 0.0000000000000000e+00  9.9014572097658229e-06 -7.5862986798708990e-07 0.0000000000000000e+00  1.3203254266008304e-05 -9.6541010896258892e-07 0.0000000000000000e+00  1.7412475094613463e-05 -1.2053034237427511e-06 0.0000000000000000e+00  2.2860922678813847e-05 -1.4868349478067412e-06 0.0000000000000000e+00  2.9993472915201712e-05 -1.8204823655173426e-06 0.0000000000000000e+00  3.9409155386412764e-05 -2.2194153978592820e-06 0.0000000000000000e+00  5.1914857207717343e-05 -2.7002645049993318e-06 0.0000000000000000e+00  6.8588870694467373e-05 -3.2832823456740262e-06 0.0000000000000000e+00  9.0825904389225563e-05 -3.9900321453542401e-06 0.0000000000000000e+00  1.2023660521624912e-04 -4.8353075222754670e-06 0.0000000000000000e+00  1.5795768857781019e-04 -5.8206319912621647e-06 0.0000000000000000e+00  2.0215930998485673e-04 -7.0596160517316772e-06 0.0000000000000000e+00  0.0000000000000000e+00 0.0000000000000000e+00 0.0000000000000000e+00  1.9367023027433050e-06 -1.7007876968252899e-07 0.0000000000000000e+00  3.9873735597764663e-06 -3.4607478815453775e-07 0.0000000000000000e+00  6.2759038830895688e-06 -5.3408705091396002e-07 0.0000000000000000e+00  8.9467823823758949e-06 -7.4056574080205102e-07 0.0000000000000000e+00  1.2177943032823623e-05 -9.7251469557966070e-07 0.0000000000000000e+00  1.6196776398024246e-05 -1.2377344069361676e-06 0.0000000000000000e+00  2.1300480070519581e-05 -1.5451351240923549e-06 0.0000000000000000e+00  2.7881743258783638e-05 -1.9051604847442044e-06 0.0000000000000000e+00  3.6459947725003596e-05 -2.3303609138056810e-06 0.0000000000000000e+00  4.7715623240897665e-05 -2.8361056781493187e-06 0.0000000000000000e+00  6.2519454247890580e-05 -3.4412319311276958e-06 0.0000000000000000e+00  8.1931204060867025e-05 -4.1679137811522273e-06 0.0000000000000000e+00  1.0710675191465626e-04 -5.0389213651498465e-06 0.0000000000000000e+00  1.3897301098828249e-04 -6.0685702167031739e-06 0.0000000000000000e+00  1.7740080863968207e-04 -7.2408401095853276e-06 0.0000000000000000e+00  2.1954360886456442e-04 -8.4527232541167799e-06 0.0000000000000000e+00  0.0000000000000000e+00 0.0000000000000000e+00 0.0000000000000000e+00  2.1965682135593336e-06 -2.0156349335133397e-07 0.0000000000000000e+00  4.5166465699780892e-06 -4.1022735018010330e-07 0.0000000000000000e+00  7.0942742716650466e-06 -6.3329809721615287e-07 0.0000000000000000e+00  1.0085476324977964e-05 -8.7847831710385762e-07 0.0000000000000000e+00  1.3682132618516477e-05 -1.1540799635871992e-06 0.0000000000000000e+00  1.8129442538377903e-05 -1.4692646178904162e-06 0.0000000000000000e+00  2.3748301489208138e-05 -1.8343396933613022e-06 0.0000000000000000e+00  3.0963599158167357e-05 -2.2611627630330895e-06 0.0000000000000000e+00  4.0338246177470985e-05 -2.7637370042301633e-06 0.0000000000000000e+00  5.2609459963014586e-05 -3.3591024225931893e-06 0.0000000000000000e+00  6.8716219803464896e-05 -4.0685807803843883e-06 0.0000000000000000e+00  8.9790950584555900e-05 -4.9191601341211137e-06 0.0000000000000000e+00  1.1705939628446484e-04 -5.9439552525487969e-06 0.0000000000000000e+00  1.5154947273193908e-04 -7.1785316348901556e-06 0.0000000000000000e+00  1.9347629194094325e-04 -8.6449476732242728e-06 0.0000000000000000e+00  2.4124243069933245e-04 -1.0304928610103590e-05 0.0000000000000000e+00  0.0000000000000000e+00 0.0000000000000000e+00 0.0000000000000000e+00  2.3344654749331514e-06 -2.2605722898927932e-07 0.0000000000000000e+00  4.7918398360658116e-06 -4.6021947654852338e-07 0.0000000000000000e+00  7.5050931863810496e-06 -7.1081828744758469e-07 0.0000000000000000e+00  1.0628395673193702e-05 -9.8661813422114583e-07 0.0000000000000000e+00  1.4350818374347572e-05 -1.2970278964912130e-06 0.0000000000000000e+00  1.8914077674650727e-05 -1.6523120252602332e-06 0.0000000000000000e+00  2.4636128742012327e-05 -2.0638209740575310e-06 0.0000000000000000e+00  3.1942527470322351e-05 -2.5442979938297748e-06 0.0000000000000000e+00  4.1407010808066429e-05 -3.1084006350670228e-06 0.0000000000000000e+00  5.3800783033376773e-05 -3.7737325642426719e-06 0.0000000000000000e+00  7.0144859221838248e-05 -4.5629456333390891e-06 0.0000000000000000e+00  9.1748935597147692e-05 -5.5078177446957546e-06 0.0000000000000000e+00  1.2020108559893064e-04 -6.6563863129754328e-06 0.0000000000000000e+00  1.5724655580812201e-04 -8.0833372574830664e-06 0.0000000000000000e+00  2.0447573183829073e-04 -9.8997309036044480e-06 0.0000000000000000e+00  2.6276743229938521e-04 -1.2247182542256399e-05 0.0000000000000000e+00  0.0000000000000000e+00 0.0000000000000000e+00 0.0000000000000000e+00  2.3509804807343758e-06 -2.4255912911777267e-07 0.0000000000000000e+00  4.8145364881229795e-06 -4.9402770804414353e-07 0.0000000000000000e+00  7.5116954150879775e-06 -7.6356568831292185e-07 0.0000000000000000e+00  1.0581523118523877e-05 -1.0608112765373803e-06 0.0000000000000000e+00  1.4193211693450771e-05 -1.3960885566343303e-06 0.0000000000000000e+00  1.8562443823900123e-05 -1.7805722224252469e-06 0.0000000000000000e+00  2.3974504020871627e-05 -2.2263976341591406e-06 0.0000000000000000e+00  3.0817579420084618e-05 -2.7467355128311032e-06 0.0000000000000000e+00  3.9630866371367231e-05 -3.3559531540565905e-06 0.0000000000000000e+00  5.1173131312379867e-05 -4.0702555550102877e-06 0.0000000000000000e+00  6.6517357171409677e-05 -4.9098274156813533e-06 0.0000000000000000e+00  8.7174142349849169e-05 -5.9047776003596687e-06 0.0000000000000000e+00  1.1523743060733922e-04 -7.1094117968225970e-06 0.0000000000000000e+00  1.5352703447609728e-04 -8.6322128889276911e-06 0.0000000000000000e+00  2.0567068502395827e-04 -1.0689653731193335e-05 0.0000000000000000e+00  2.7602300039110205e-04 -1.3681251860820194e-05 0.0000000000000000e+00  0.0000000000000000e+00 0.0000000000000000e+00 0.0000000000000000e+00  2.2563700109371763e-06 -2.5027093627036305e-07 0.0000000000000000e+00  4.6067861506736873e-06 -5.1002889505338974e-07 0.0000000000000000e+00  7.1510421868549715e-06 -7.8904835687009253e-07 0.0000000000000000e+00  1.0001427649359604e-05 -1.0976577014465607e-06 0.0000000000000000e+00  1.3291518502337276e-05 -1.4469614962645455e-06 0.0000000000000000e+00  1.7188840735567867e-05 -1.8489721222866932e-06 0.0000000000000000e+00  2.1914302859790802e-05 -2.3165809096593517e-06 0.0000000000000000e+00  2.7773232574064743e-05 -2.8632790342967903e-06 0.0000000000000000e+00  3.5206069377546081e-05 -3.5025680905053329e-06 0.0000000000000000e+00  4.4871828566323297e-05 -4.2472107700868705e-06 0.0000000000000000e+00  5.7784777103709149e-05 -5.1092025724368070e-06 0.0000000000000000e+00  7.5533756555744535e-05 -6.1033748054266546e-06 0.0000000000000000e+00  1.0062064756179037e-04 -7.2624096230638426e-06 0.0000000000000000e+00  1.3694941648559230e-04 -8.6811180089704142e-06 0.0000000000000000e+00  1.9045956419754006e-04 -1.0624662190107581e-05 0.0000000000000000e+00  2.6979927667087304e-04 -1.3753316803935089e-05 0.0000000000000000e+00  0.0000000000000000e+00 0.0000000000000000e+00 0.0000000000000000e+00  2.0690259170894030e-06 -2.4862358281449331e-07 0.0000000000000000e+00  4.2079961547085215e-06 -5.0704451908345371e-07 0.0000000000000000e+00  6.4890370366007134e-06 -7.8540480606279108e-07 0.0000000000000000e+00  8.9892359012164770e-06 -1.0945259507242716e-06 0.0000000000000000e+00  1.1794445146463913e-05 -1.4461924561339932e-06 0.0000000000000000e+00  1.5005497492346263e-05 -1.8533205969521598e-06 0.0000000000000000e+00  1.8749391327016608e-05 -2.3298779506698224e-06 0.0000000000000000e+00  2.3200509773137353e-05 -2.8903027441303307e-06 0.0000000000000000e+00  2.8621743615465874e-05 -3.5479980934356006e-06 0.0000000000000000e+00  3.5444322660711031e-05 -4.3122940981787330e-06 0.0000000000000000e+00  4.4420991635782506e-05 -5.1833568900684474e-06 0.0000000000000000e+00  5.6913061321074719e-05 -6.1458665262737193e-06 0.0000000000000000e+00  7.5408354424445149e-05 -7.1677937110842374e-06 0.0000000000000000e+00  1.0440319468125313e-04 -8.2275224120349884e-06 0.0000000000000000e+00  1.5177825946149158e-04 -9.4352506274961943e-06 0.0000000000000000e+00  2.3067796587997077e-04 -1.1400352747645185e-05 0.0000000000000000e+00  0.0000000000000000e+00 0.0000000000000000e+00 0.0000000000000000e+00  1.8128712039225602e-06 -2.3731706634306304e-07 0.0000000000000000e+00  3.6694986022750917e-06 -4.8441391199650709e-07 0.0000000000000000e+00  5.6118685028060017e-06 -7.5149130192319362e-07 0.0000000000000000e+00  7.6783528403815359e-06 -1.0496076876432971e-06 0.0000000000000000e+00  9.9013080165878932e-06 -1.3910921881721350e-06 0.0000000000000000e+00  1.2304414050460904e-05 -1.7898841454614985e-06 0.0000000000000000e+00  1.4900809701107520e-05 -2.2616447410023845e-06 0.0000000000000000e+00  1.7695166305345592e-05 -2.8232776663230069e-06 0.0000000000000000e+00  2.0697596385619314e-05 -3.4910611498723439e-06 0.0000000000000000e+00  2.3967725378681559e-05 -4.2757329230380780e-06 0.0000000000000000e+00  2.7729276164445887e-05 -5.1713210216249086e-06 0.0000000000000000e+00  3.2639625073413138e-05 -6.1322992550490721e-06 0.0000000000000000e+00  4.0379889013986546e-05 -7.0327337289015217e-06 0.0000000000000000e+00  5.4857734488799757e-05 -7.6113506939648809e-06 0.0000000000000000e+00  8.4446880696456014e-05 -7.4625898163919779e-06 0.0000000000000000e+00  1.4564530646968269e-04 -6.3287064876470734e-06 0.0000000000000000e+00  0.0000000000000000e+00 0.0000000000000000e+00 0.0000000000000000e+00  1.5139088061119049e-06 -2.1637995708841773e-07 0.0000000000000000e+00  3.0471799969262209e-06 -4.4211516887132139e-07 0.0000000000000000e+00  4.6137679986464038e-06 -6.8706190130067989e-07 0.0000000000000000e+00  6.2159185694451692e-06 -9.6213341969790206e-07 0.0000000000000000e+00  7.8354221049480070e-06 -1.2799025336884275e-06 0.0000000000000000e+00  9.4211011919681096e-06 -1.6552650117649708e-06 0.0000000000000000e+00  1.0870941239304938e-05 -2.1060943693752105e-06 0.0000000000000000e+00  1.2007589520132330e-05 -2.6536208532467526e-06 0.0000000000000000e+00  1.2547889529255900e-05 -3.3217458479663683e-06 0.0000000000000000e+00  1.2073735677249132e-05 -4.1331692586991441e-06 0.0000000000000000e+00  1.0030572582115487e-05 -5.0968921410836246e-06 0.0000000000000000e+00  5.8300304523273367e-06 -6.1737368774779702e-06 0.0000000000000000e+00  -7.4410904441927007e-07 -7.1890306694935291e-06 0.0000000000000000e+00  -8.3570039338724689e-06 -7.6297482028577862e-06 0.0000000000000000e+00  -1.1215615120696006e-05 -6.2378111121071881e-06 0.0000000000000000e+00  7.0209665702391418e-06 -4.4975827446129744e-07 0.0000000000000000e+00  0.0000000000000000e+00 0.0000000000000000e+00 0.0000000000000000e+00  1.1963807214000788e-06 -1.8624669444236226e-07 0.0000000000000000e+00  2.3931050709827361e-06 -3.8093594527824861e-07 0.0000000000000000e+00  3.5825842926123650e-06 -5.9306413507293484e-07 0.0000000000000000e+00  4.7397428584188671e-06 -8.3283315110472681e-07 0.0000000000000000e+00  5.8083465660533737e-06 -1.1124443790403426e-06 0.0000000000000000e+00  6.6802069441069275e-06 -1.4471565519780805e-06 0.0000000000000000e+00  7.1625805126594281e-06 -1.8567401820209139e-06 0.0000000000000000e+00  6.9265590414645644e-06 -2.3674530882939766e-06 0.0000000000000000e+00  5.4255985656398334e-06 -3.0144864782622236e-06 0.0000000000000000e+00  1.7691963811758348e-06 -3.8440410439894233e-06 0.0000000000000000e+00  -5.4637385839837506e-06 -4.9113251710017633e-06 0.0000000000000000e+00  -1.8467115600219916e-05 -6.2611093895294271e-06 0.0000000000000000e+00  -4.0400928356216736e-05 -7.8460366507716382e-06 0.0000000000000000e+00  -7.5069056887290352e-05 -9.2391709035932801e-06 0.0000000000000000e+00  -1.2454603125376280e-04 -8.7152874627354684e-06 0.0000000000000000e+00  -1.8112410279085559e-04 -7.1473497549707932e-07 0.0000000000000000e+00  0.0000000000000000e+00 0.0000000000000000e+00 0.0000000000000000e+00  8.7921744228155983e-07 -1.4783688204776006e-07 0.0000000000000000e+00  1.7476196565299177e-06 -3.0266336666422441e-07 0.0000000000000000e+00  2.5857219961119475e-06 -4.7201078497804289e-07 0.0000000000000000e+00  3.3547143100532672e-06 -6.6461924652954477e-07 0.0000000000000000e+00  3.9808756277223735e-06 -8.9132382353555094e-07 0.0000000000000000e+00  4.3309947184993228e-06 -1.1663832173991054e-06 0.0000000000000000e+00  4.1718999338992986e-06 -1.5096143488159543e-06 0.0000000000000000e+00  3.1019982068784432e-06 -1.9499916320492445e-06 0.0000000000000000e+00  4.3292274923795046e-07 -2.5319207942432989e-06 0.0000000000000000e+00  -5.0191060904449123e-06 -3.3263692170749883e-06 0.0000000000000000e+00  -1.5306940150378330e-05 -4.4504623144884054e-06 0.0000000000000000e+00  -3.4024997573686978e-05 -6.0997083236118382e-06 0.0000000000000000e+00  -6.7488428002683779e-05 -8.5871175396059213e-06 0.0000000000000000e+00  -1.2655593508647566e-04 -1.2307531398828118e-05 0.0000000000000000e+00  -2.2799978679873624e-04 -1.7084160473703256e-05 0.0000000000000000e+00  -3.8704652318035336e-04 -1.7636652047528583e-05 0.0000000000000000e+00  0.0000000000000000e+00 0.0000000000000000e+00 0.0000000000000000e+00  5.7356042115683747e-07 -1.0260596478946893e-07 0.0000000000000000e+00  1.1337235935630200e-06 -2.1022308149743782e-07 0.0000000000000000e+00  1.6597640346911155e-06 -3.2830042803608203e-07 0.0000000000000000e+00  2.1145045511544530e-06 -4.6328140416964017e-07 0.0000000000000000e+00  2.4307768753471757e-06 -6.2338631345472312e-07 0.0000000000000000e+00  2.4895840224901205e-06 -8.1987091085176385e-07 0.0000000000000000e+00  2.0830739603352637e-06 -1.0692206927515981e-06 0.0000000000000000e+00  8.4945224146762058e-07 -1.3972252081873824e-06 0.0000000000000000e+00  -1.8454117399654518e-06 -1.8469698024055814e-06 0.0000000000000000e+00  -7.1315647519782758e-06 -2.4953532516829709e-06 0.0000000000000000e+00  -1.7075715320442838e-05 -3.4890894730935895e-06 0.0000000000000000e+00  -3.5593666702398573e-05 -5.1277464221716767e-06 0.0000000000000000e+00  -7.0442746536114042e-05 -8.0677579578262933e-06 0.0000000000000000e+00  -1.3779991857383478e-04 -1.3862212597991190e-05 0.0000000000000000e+00  -2.7304473836334525e-04 -2.6529599686941201e-05 0.0000000000000000e+00  -5.5329004427077260e-04 -5.7808795294471154e-05 0.0000000000000000e+00  0.0000000000000000e+00 0.0000000000000000e+00 0.0000000000000000e+00  2.8202454965036287e-07 -5.2530244798161892e-08 0.0000000000000000e+00  5.5530410057435245e-07 -1.0767569694586991e-07 0.0000000000000000e+00  8.0692122748519644e-07 -1.6829637173172729e-07 0.0000000000000000e+00  1.0145584381478464e-06 -2.3781361433908372e-07 0.0000000000000000e+00  1.1386863132173919e-06 -3.2066923529623225e-07 0.0000000000000000e+00  1.1098276146308771e-06 -4.2309054352346109e-07 0.0000000000000000e+00  8.0665954085318730e-07 -5.5447671466104968e-07 0.0000000000000000e+00  1.6810658892449154e-08 -7.3008330043563613e-07 0.0000000000000000e+00  -1.6362088136049893e-06 -9.7653771390587188e-07 0.0000000000000000e+00  -4.8356943903125428e-06 -1.3438481691968753e-06 0.0000000000000000e+00  -1.0866798233652290e-05 -1.9331769266000359e-06 0.0000000000000000e+00  -2.2272386882223679e-05 -2.9654171586817919e-06 0.0000000000000000e+00  -4.4452271601754495e-05 -4.9634674564418620e-06 0.0000000000000000e+00  -9.0051978010362998e-05 -9.2800195091333353e-06 0.0000000000000000e+00  -1.9289625556835101e-04 -1.9786141462752363e-05 0.0000000000000000e+00  -4.5949429143231596e-04 -4.8807445108141102e-05 0.0000000000000000e+00  0.0000000000000000e+00 0.0000000000000000e+00 0.0000000000000000e+00  0.0000000000000000e+00 0.0000000000000000e+00 0.0000000000000000e+00  0.0000000000000000e+00 0.0000000000000000e+00 0.0000000000000000e+00  0.0000000000000000e+00 0.0000000000000000e+00 0.0000000000000000e+00  0.0000000000000000e+00 0.0000000000000000e+00 0.0000000000000000e+00  0.0000000000000000e+00 0.0000000000000000e+00 0.0000000000000000e+00  0.0000000000000000e+00 0.0000000000000000e+00 0.0000000000000000e+00  0.0000000000000000e+00 0.0000000000000000e+00 0.0000000000000000e+00  0.0000000000000000e+