<?xml version="1.0"?>
<VTKFile type="UnstructuredGrid"  version="0.1"  >
<UnstructuredGrid>
<Piece  NumberOfPoints="289" NumberOfCells="512">
<Points>
<DataArray  type="Float64"  NumberOfComponents="3"  format="ascii">0 0 0  0.0625 0 0  0.125 0 0  0.1875 0 0  0.25 0 0  0.3125 0 0  0.375 0 0  0.4375 0 0  0.5 0 0  0.5625 0 0  0.625 0 0  0.6875 0 0  0.75 0 0  0.8125 0 0  0.875 0 0  0.9375 0 0  1 0 0  0 0.0625 0  0.06252094368062069 0.06246301433742101 0  0.1250429811586853 0.06242535747352321 0  0.1875672521288365 0.06238639863788232 0  0.2500950765277134 0.06234563934105013 0  0.3126280749865756 0.06230279927067053 0  0.375168337652895 0.06225792450285815 0  0.4377186788922525 0.06221151942471218 0  0.5002830476483124 0.06216469447853225 0  0.5628672334806777 0.06211930440886374 0  0.625480170369941 0.0620780214585766 0  0.6881365389278551 0.0620442393765039 0  0.7508624072170186 0.06202163244212949 0  0.8137084781065196 0.0620131016180054 0  0.876783269259818 0.06201878038270957 0  0.9403385942561427 0.06203332186332109 0  1.004976149314203 0.06205211084770317 0  0 0.125 0  0.06254077547795252 0.1249266527281004 0  0.1250836747533961 0.1248518937341753 0  0.1876309168332867 0.1247743853270968 0  0.2501850783215964 0.1246930383604238 0  0.3127493329935291 0.1246071789898254 0  0.3753277861262717 0.12451676569388 0  0.4379259719826001 0.1244226647634337 0  0.5005516338492685 0.1243269774131596 0  0.5632160067827311 0.124233381442296 0  0.6259360255162341 0.1241473955788442 0  0.688738284848873 0.1240763859967926 0  0.7516663472916278 0.1240290167772109 0  0.8147941934796699 0.1240137741085146 0  0.8782492819525836 0.1240365172568507 0  0.9422432725476961 0.1240989567935032 0  1.007083099934693 0.1242052460368114 0  0 0.1875 0  0.06255853818323651 0.1873916784869589 0  0.1251200797149121 0.1872810811264674 0  0.1876877683675511 0.1871660253491925 0  0.2502652525918822 0.1870446585697997 0  0.3128570218950208 0.1869156920865715 0  0.37546887045757 0.1867787212903195 0  0.4381085700377805 0.1866346566558747 0  0.5007868810557929 0.186486276499984 0  0.5635191076477136 0.1863388795275298 0  0.6263275198143058 0.1862009456270294 0  0.6892451103321087 0.1860845783250674 0  0.7523211971647096 0.1860052471350851 0  0.815628796222797 0.1859798310730615 0  0.8792709154337343 0.1860206709492241 0  0.9433750276913568 0.1861191439155539 0  1.008053349098156 0.1861969721024502 0  0 0.25 0  0.06257342638518031 0.2498589756502092 0  0.1251505129066081 0.2497146513934895 0  0.1877350950782501 0.2495638170362509 0  0.2503316085770729 0.2494036169519517 0  0.312945486927366 0.2492318240317696 0  0.3755837031209466 0.2490472420172134 0  0.4382555376445594 0.2488502878844224 0  0.5009736867116764 0.2486438050403212 0  0.5637558580454107 0.248434140476663 0  0.6266270120500959 0.2482324629946127 0  0.6896223160709244 0.2480561638642445 0  0.7527904861415263 0.2479298885297891 0  0.8161960543459463 0.2478851560707535 0  0.8799165650474621 0.2479564089117545 0  0.9440268826965104 0.2481697049685094 0  1.008562216117758 0.2485209624701385 0  0 0.3125 0  0.06258483695071673 0.3123295821633233 0  0.1251737202497745 0.3121546726060607 0  0.187770892163306 0.3119708344574051 0  0.250381226003042 0.3117739297648641 0  0.3130106442185319 0.3115603885189606 0  0.3756666862015778 0.3113276458983081 0  0.4383593070336983 0.3110748344048048 0  0.5011020104014141 0.3108038416146189 0  0.5639134279672307 0.310520865000988 0  0.6268194151952103 0.3102385927864405 0  0.6898555553033665 0.3099790678482686 0  0.7530694953722865 0.309777054849378 0  0.8165215999274719 0.3096831610023954 0  0.8802811110826749 0.3097648536897517 0  0.9444148781508057 0.3101019296973421 0  1.008971990521109 0.3107720511518504 0  0 0.375 0  0.0625923966522875 0.3748046943646041 0  0.1251889382744948 0.3746035686848193 0  0.1877939692621493 0.3743907851744637 0  0.2504124258150527 0.3741606495130904 0  0.3130502319105205 0.3739078106510421 0  0.3757148439781043 0.3736276520736836 0  0.4384160316715393 0.3733169949927875 0  0.5011670130889413 0.3729752924758663 0  0.563986087989069 0.3726065747303721 0  0.6268988997483483 0.3722225026392221 0  0.6899413375985693 0.3718469619370067 0  0.7531627569954753 0.3715225728404977 0  0.8166285717211773 0.3713190477628807 0  0.8804206193400788 0.3713420953218408 0  0.9446343902198335 0.3717392809868553 0  1.009377668829778 0.3726967291488246 0  0 0.4375 0  0.06259596648744019 0.4372856328942653 0  0.1251959049726855 0.4370640593094043 0  0.1878039718114603 0.4368279433430527 0  0.2504248067511516 0.4365698295233195 0  0.3130638628629994 0.4362821946067337 0  0.3757278748233955 0.4359576797677607 0  0.4384255663209009 0.4355896417004581 0  0.5011687581992165 0.4351732548295161 0  0.5639741270649009 0.4347075501239983 0  0.6268659720846078 0.4341990130577454 0  0.6898804359252509 0.4336676909870847 0  0.7530715937211868 0.4331571004273871 0  0.8165195118989034 0.4327492511681923 0  0.8803397475069125 0.4325850178564333 0  0.9446935986339777 0.4328868564229078 0  1.009801978463997 0.433976454452032 0  0 0.5 0  0.06259562510850428 0.4997737628788674 0  0.1251948248466818 0.4995390023464958 0  0.1878013246535447 0.4992869216301968 0  0.2504191643656807 0.499008246711684 0  0.3130529173629651 0.4986930501257439 0  0.3757080180144464 0.4983306946141989 0  0.4383913068876044 0.4979100204606801 0  0.5011120059386758 0.4974200141206187 0  0.563883524401064 0.4968514069725351 0  0.6267268176503589 0.4962000371790575 0  0.6896765084757023 0.4954734767888851 0  0.7527915649254726 0.4947034789152247 0  0.8161726626701838 0.4939680573892557 0  0.8799876741839049 0.4934272247149599 0  0.944504603988056 0.4933721854801491 0  1.010131867237904 0.4942759612558102 0  0 0.5625 0  0.0625916351998464 0.5622703673086276 0  0.1251862954980154 0.5620311328943595 0  0.187787108155536 0.5617722624651458 0  0.2503973048833891 0.56148283232069 0  0.3130202902967217 0.5611505653755189 0  0.375659755884053 0.5607613727076816 0  0.4383199316862439 0.560298964466648 0  0.5010062016389432 0.5597446937387184 0  0.5637265996735195 0.5590780107040377 0  0.6264952988799602 0.5582783615671784 0  0.6893403210055783 0.5573303374971446 0  0.7523194997219705 0.5562358763338191 0  0.8155508759129818 0.5550410356313799 0  0.8792642185148066 0.5538898406256669 0  0.9438753676072795 0.5531171755173654 0  1.010074852553166 0.553371468414891 0  0 0.625 0  0.06258439727016302 0.6247764819568441 0  0.1251712040886711 0.624542713238363 0  0.1877628766825113 0.6242878626355246 0  0.250361758372536 0.6239998101997677 0  0.312969975484769 0.6236643811076253 0  0.3755892784750623 0.6232644312836891 0  0.4382208561673908 0.6227787451196283 0  0.5008652693615741 0.6221807452976664 0  0.5635229722825336 0.6214371365376641 0  0.6261966937418502 0.6205069477914426 0  0.6888987957974947 0.6193423768274424 0  0.7516705439620271 0.6178953986866395 0  0.8146267483424996 0.6161408860525354 0  0.8780457482318084 0.6141428875854223 0  0.9425187263297219 0.6122107622485392 0  1.009150884326621 0.6111503929855017 0  0 0.6875 0  0.06257439614301483 0.6872927115977139 0  0.1251506043549059 0.6870751338383487 0  0.1877304337837032 0.686836292008137 0  0.2503154010025689 0.6865636208834038 0  0.3129064671506946 0.6862419477007886 0  0.3755035987072382 0.6858521689796897 0  0.4381050656274851 0.6853694583756815 0  0.5007064154996659 0.6847607869232279 0  0.5632992458311757 0.6839814759312589 0  0.6258705868430319 0.6829704922024329 0  0.6884058467001841 0.6816444750375492 0  0.7509041830407147 0.6798920361121246 0  0.8134296282375333 0.6775766868573037 0  0.8762485398070265 0.6745847834598653 0  0.9401053212106203 0.6710557128219176 0  1.006633382496954 0.6679544518466636 0  0 0.75 0  0.06256214699082049 0.7498190577940385 0  0.1251255901025591 0.7496285306390589 0  0.1876915920686201 0.749418116484594 0  0.2502610261198614 0.7491758012869123 0  0.3128340150394014 0.7488867127487249 0  0.375409293056937 0.7485315537980883 0  0.4379830748175354 0.7480843526658977 0  0.5005470783222641 0.7475091194362299 0  0.5630851824589369 0.746754744613889 0  0.6255681963205767 0.7457470234953069 0  0.6879472326617183 0.7443758755895284 0  0.7501513917765187 0.7424744813738008 0  0.8121156763633856 0.7397860792077352 0  0.8739343942280907 0.7359240041811914 0  0.9364296176192168 0.7304394638827435 0  1.001556719828887 0.7242039116958037 0  0 0.8125 0  0.06254814957876589 0.81235479438628 0  0.1250971876801106 0.8122014995878231 0  0.1876479650526635 0.8120313699723476 0  0.2502009540437309 0.8118340631813342 0  0.3127558875625792 0.8115965389119991 0  0.3753110930226914 0.811301509158869 0  0.4378622308253642 0.8109251409812468 0  0.5003998615658404 0.8104335273698074 0  0.5629046886131751 0.8097771068114873 0  0.6253382068141196 0.8088815675529587 0  0.6876246135246253 0.807632385619328 0  0.7496181002502473 0.8058467261469754 0  0.8110558871355367 0.8032171629274281 0  0.8715553646654167 0.7991870396032522 0  0.9310807752378908 0.7926694959435949 0  0.9947322513525053 0.7815567347312676 0  0 0.875 0  0.06253285980400858 0.8748984246376271 0  0.1250662925750499 0.8747909866431826 0  0.1876008498611492 0.8746713217408896 0  0.2501368111700565 0.8745318307014948 0  0.3126739207616678 0.8743628119493145 0  0.3752108886570577 0.8741512201213164 0  0.4377444047639724 0.8738787963414674 0  0.5002671150290963 0.8735191604826125 0  0.5627632929703392 0.8730331959991297 0  0.625199183606438 0.872361627294879 0  0.6875006182197468 0.8714129141210408 0  0.7494997025875716 0.8700426199367258 0  0.8108074061510425 0.8680122863050227 0  0.8705206950779156 0.8648751764276739 0  0.9266233831681737 0.8595498542993228 0  0.9750761633729857 0.8486896668424834 0  0 0.9375 0  0.06251668466308795 0.9374477423666753 0  0.1250336675718193 0.9373924065798506 0  0.1875512451589748 0.9373306434617068 0  0.2500695909258524 0.9372584319901575 0  0.3125886380271736 0.9371706027456438 0  0.3751078552460106 0.9370601497725627 0  0.4376257971662362 0.936917
[...]
<PointData  Vectors="f_54"> 
<DataArray  type="Float64"  Name="f_54"  NumberOfComponents="3" format="ascii">0.0000000000000000e+00 0.0000000000000000e+00 0.0000000000000000e+00  0.0000000000000000e+00 0.0000000000000000e+00 0.0000000000000000e+00  0.0000000000000000e+00 0.0000000000000000e+00 0.0000000000000000e+00  0.0000000000000000e+00 0.0000000000000000e+00 0.0000000000000000e+00  0.0000000000000000e+00 0.0000000000000000e+00 0.0000000000000000e+00  0.0000000000000000e+00 0.0000000000000000e+00 0.0000000000000000e+00  0.0000000000000000e+00 0.0000000000000000e+00 0.0000000000000000e+00  0.0000000000000000e+00 0.0000000000000000e+00 0.0000000000000000e+00  0.0000000000000000e+00 0.0000000000000000e+00 0.0000000000000000e+00  0.0000000000000000e+00 0.0000000000000000e+00 0.0000000000000000e+00  0.0000000000000000e+00 0.0000000000000000e+00 0.0000000000000000e+00  0.0000000000000000e+00 0.0000000000000000e+00 0.0000000000000000e+00  0.0000000000000000e+00 0.0000000000000000e+00 0.0000000000000000e+00  0.0000000000000000e+00 0.0000000000000000e+00 0.0000000000000000e+00  0.0000000000000000e+00 0.0000000000000000e+00 0.0000000000000000e+00  0.0000000000000000e+00 0.0000000000000000e+00 0.0000000000000000e+00  0.0000000000000000e+00 0.0000000000000000e+00 0.0000000000000000e+00  0.0000000000000000e+00 0.0000000000000000e+00 0.0000000000000000e+00  3.9949079291463825e-06 2.0716861803454710e-07 0.0000000000000000e+00  8.0850167399501934e-06 4.1589627303210640e-07 0.0000000000000000e+00  1.2366788643868626e-05 6.2734715241163023e-07 0.0000000000000000e+00  1.6929519210119851e-05 8.4136665705228424e-07 0.0000000000000000e+00  2.1849974716988963e-05 1.0557005091427299e-06 0.0000000000000000e+00  2.7184519186117979e-05 1.2650908569573423e-06 0.0000000000000000e+00  3.2957700495232285e-05 1.4602735305556635e-06 0.0000000000000000e+00  3.9146093060045063e-05 1.6269719733359503e-06 0.0000000000000000e+00  4.5655930515847571e-05 1.7450724808090225e-06 0.0000000000000000e+00  5.2292565917568490e-05 1.7882184404275939e-06 0.0000000000000000e+00  5.8718727875922088e-05 1.7238888840739735e-06 0.0000000000000000e+00  6.4396207563100386e-05 1.5130311172847958e-06 0.0000000000000000e+00  6.8501035227825553e-05 1.1045467003065389e-06 0.0000000000000000e+00  6.9796285841286398e-05 4.0636259248094634e-07 0.0000000000000000e+00  6.6459374405883882e-05 -8.3700485105581144e-07 0.0000000000000000e+00  5.6061494374461667e-05 -3.5545099479215272e-06 0.0000000000000000e+00  0.0000000000000000e+00 0.0000000000000000e+00 0.0000000000000000e+00  7.8926222931780200e-06 4.1266839352489033e-07 0.0000000000000000e+00  1.5979409694385782e-05 8.2910064754054461e-07 0.0000000000000000e+00  2.4457415316862325e-05 1.2523109871032078e-06 0.0000000000000000e+00  3.3511024127232078e-05 1.6827717838795214e-06 0.0000000000000000e+00  4.3302161946870390e-05 2.1168680166133514e-06 0.0000000000000000e+00  5.3955591444837266e-05 2.5450554295468157e-06 0.0000000000000000e+00  6.5537253756174391e-05 2.9497415783520393e-06 0.0000000000000000e+00  7.8023277265380328e-05 3.3030574433084107e-06 0.0000000000000000e+00  9.1256799517299786e-05 3.5649152471964239e-06 0.0000000000000000e+00  1.0488888722313563e-04 3.6820360443972588e-06 0.0000000000000000e+00  1.1829784955899967e-04 3.5888690120091538e-06 0.0000000000000000e+00  1.3047606652261169e-04 3.2112615020299917e-06 0.0000000000000000e+00  1.3985932001412966e-04 2.4731943228215176e-06 0.0000000000000000e+00  1.4403271892932169e-04 1.3077431787784346e-06 0.0000000000000000e+00  1.3911576066591544e-04 -3.0846809681078733e-07 0.0000000000000000e+00  1.1812105185014263e-04 -2.1432754190224762e-06 0.0000000000000000e+00  0.0000000000000000e+00 0.0000000000000000e+00 0.0000000000000000e+00  1.1589862571815930e-05 6.1405108912422088e-07 0.0000000000000000e+00  2.3479215886829491e-05 1.2352989168349627e-06 0.0000000000000000e+00  3.5972721142590834e-05 1.8699257362944607e-06 0.0000000000000000e+00  4.9360052403736510e-05 2.5205710154467570e-06 0.0000000000000000e+00  6.3903484103552114e-05 3.1840802493247960e-06 0.0000000000000000e+00  7.9818400996318318e-05 3.8486938878538876e-06 0.0000000000000000e+00  9.7243721211255095e-05 4.4906227804419698e-06 0.0000000000000000e+00  1.1619872886305398e-04 5.0701638219860828e-06 0.0000000000000000e+00  1.3652224944288332e-04 5.5278924341321680e-06 0.0000000000000000e+00  1.5778933100976761e-04 5.7821008977999611e-06 0.0000000000000000e+00  1.7919907593319341e-04 5.7295748344419430e-06 0.0000000000000000e+00  1.9942356648454480e-04 5.2529636081341612e-06 0.0000000000000000e+00  2.1639900702961277e-04 4.2392233603380500e-06 0.0000000000000000e+00  2.2702260790842776e-04 2.6144945552890372e-06 0.0000000000000000e+00  2.2669880483081460e-04 3.9838482431178126e-07 0.0000000000000000e+00  2.0873847090378380e-04 -2.2538072966133930e-06 0.0000000000000000e+00  0.0000000000000000e+00 0.0000000000000000e+00 0.0000000000000000e+00  1.4977849262681183e-05 8.0766437385922922e-07 0.0000000000000000e+00  3.0367899699150426e-05 1.6276490515935751e-06 0.0000000000000000e+00  4.6590685863942429e-05 2.4711486227620293e-06 0.0000000000000000e+00  6.4053960129479832e-05 3.3452077722526483e-06 0.0000000000000000e+00  8.3140267033194188e-05 4.2499095298101945e-06 0.0000000000000000e+00  1.0418566643696812e-04 5.1746328056877101e-06 0.0000000000000000e+00  1.2744566210900744e-04 6.0931406692907078e-06 0.0000000000000000e+00  1.5304367095419472e-04 6.9574554499859560e-06 0.0000000000000000e+00  1.8089671034752410e-04 7.6909387078014713e-06 0.0000000000000000e+00  2.1061252994926031e-04 8.1819383217396351e-06 0.0000000000000000e+00  2.4135220280386863e-04 8.2810821656334220e-06 0.0000000000000000e+00  2.7165203367055386e-04 7.8080816611226479e-06 0.0000000000000000e+00  2.9919868352704928e-04 6.5778267005703994e-06 0.0000000000000000e+00  3.2055588550578061e-04 4.4598926390267497e-06 0.0000000000000000e+00  3.3087248201459427e-04 1.4875427008036602e-06 0.0000000000000000e+00  3.2373605792040966e-04 -1.9741710739920760e-06 0.0000000000000000e+00  0.0000000000000000e+00 0.0000000000000000e+00 0.0000000000000000e+00  1.7941752606192471e-05 9.8821393585479194e-07 0.0000000000000000e+00  3.6414590371742853e-05 1.9958201848674185e-06 0.0000000000000000e+00  5.5962112348651443e-05 3.0412034985428130e-06 0.0000000000000000e+00  7.7122911176091363e-05 4.1386027738349783e-06 0.0000000000000000e+00  1.0042143836616094e-04 5.2950290348818657e-06 0.0000000000000000e+00  1.2634885532232485e-04 6.5058084933515202e-06 0.0000000000000000e+00  1.5532902531728072e-04 7.7481899173608745e-06 0.0000000000000000e+00  1.8766365220629358e-04 8.9724977981154132e-06 0.0000000000000000e+00  2.2344954395512044e-04 1.0090637467379288e-05 0.0000000000000000e+00  2.6246055629895943e-04 1.0962737589885243e-05 0.0000000000000000e+00  3.0398766525097895e-04 1.1385010602285157e-05 0.0000000000000000e+00  3.4663370946509702e-04 1.1086511149580929e-05 0.0000000000000000e+00  3.8806575640649836e-04 9.7504012266191233e-06 0.0000000000000000e+00  4.2474032858642137e-04 7.0864728559649536e-06 0.0000000000000000e+00  4.5164280689045228e-04 2.9919720013648195e-06 0.0000000000000000e+00  4.6213648358741798e-04 -2.1652978081429228e-06 0.0000000000000000e+00  0.0000000000000000e+00 0.0000000000000000e+00 0.0000000000000000e+00  2.0362319957469179e-05 1.1485364879837383e-06 0.0000000000000000e+00  4.1376828395960977e-05 2.3254367006658864e-06 0.0000000000000000e+00  6.3713454489548255e-05 3.5584793004961108e-06 0.0000000000000000e+00  8.8051055201884636e-05 4.8721447365613033e-06 0.0000000000000000e+00  1.1507540936633242e-04 6.2847534437101560e-06 0.0000000000000000e+00  1.4546698657958300e-04 7.8038240855771621e-06 0.0000000000000000e+00  1.7987285804109095e-04 9.4186643714906122e-06 0.0000000000000000e+00  2.1885522091719828e-04 1.1088905923805910e-05 0.0000000000000000e+00  2.6280704741449404e-04 1.2727508276956516e-05 0.0000000000000000e+00  3.1182413797144155e-04 1.4177123639599083e-05 0.0000000000000000e+00  3.6552387294377209e-04 1.5180665932703650e-05 0.0000000000000000e+00  4.2280649493667846e-04 1.5352528957831286e-05 0.0000000000000000e+00  4.8156688974523187e-04 1.4169408610766902e-05 0.0000000000000000e+00  5.3838203237740882e-04 1.1022103578842513e-05 0.0000000000000000e+00  5.8820917206081885e-04 5.3996680226297364e-06 0.0000000000000000e+00  6.2409799081894512e-04 -2.6989922066229557e-06 0.0000000000000000e+00  0.0000000000000000e+00 0.0000000000000000e+00 0.0000000000000000e+00  2.2120112172000816e-05 1.2796809986878415e-06 0.0000000000000000e+00  4.5008769798991438e-05 2.5981388398898701e-06 0.0000000000000000e+00  6.9458420593762100e-05 3.9943398871289993e-06 0.0000000000000000e+00  9.6290430825878866e-05 5.5058196828870535e-06 0.0000000000000000e+00  1.2636430512408901e-04 7.1667453008358580e-06 0.0000000000000000e+00  1.6057791146261639e-04 9.0040301197769496e-06 0.0000000000000000e+00  1.9985264648554677e-04 1.1030113855158778e-05 0.0000000000000000e+00  2.4509449108276431e-04 1.3230212403405686e-05 0.0000000000000000e+00  2.9711822905540076e-04 1.5540702007128627e-05 0.0000000000000000e+00  3.5651863750324665e-04 1.7814033571099008e-05 0.0000000000000000e+00  4.2347164566240014e-04 1.9765155125158735e-05 0.0000000000000000e+00  4.9745519852549362e-04 2.0897795961630970e-05 0.0000000000000000e+00  5.7690055512777587e-04 2.0422844224417294e-05 0.0000000000000000e+00  6.5882080417123856e-04 1.7216034133580720e-05 0.0000000000000000e+00  7.3848644063975331e-04 9.9238096995284472e-06 0.0000000000000000e+00  8.0914444253555608e-04 -2.6053144315397330e-06 0.0000000000000000e+00  0.0000000000000000e+00 0.0000000000000000e+00 0.0000000000000000e+00  2.3102519913036261e-05 1.3713912850588082e-06 0.0000000000000000e+00  4.7075309596834374e-05 2.7924801579783746e-06 0.0000000000000000e+00  7.2819331557283604e-05 4.3142642097116784e-06 0.0000000000000000e+00  1.0128943273098521e-04 5.9892101608915714e-06 0.0000000000000000e+00  1.3351867326378297e-04 7.8710808388521152e-06 0.0000000000000000e+00  1.7063691648763171e-04 1.0013125940502204e-05 0.0000000000000000e+00  2.1387800295164902e-04 1.2463117525369676e-05 0.0000000000000000e+00  2.6456558635304573e-04 1.5252412808396404e-05 0.0000000000000000e+00  3.2406152280254388e-04 1.8373908976451046e-05 0.0000000000000000e+00  3.9365298432673365e-04 2.1739865397514950e-05 0.0000000000000000e+00  4.7434803448831664e-04 2.5104859191414672e-05 0.0000000000000000e+00  5.6655281376441946e-04 2.7933424510121901e-05 0.0000000000000000e+00  6.6963512617443507e-04 2.9194980157401831e-05 0.0000000000000000e+00  7.8146227483857206e-04 2.7103983472694295e-05 0.0000000000000000e+00  8.9811567924295973e-04 1.8920335893987665e-05 0.0000000000000000e+00  1.0139564501134260e-03 1.0346622161956913e-06 0.0000000000000000e+00  0.0000000000000000e+00 0.0000000000000000e+00 0.0000000000000000e+00  2.3213372717453210e-05 1.4130458758778187e-06 0.0000000000000000e+00  4.7371891876671181e-05 2.8858206613878372e-06 0.0000000000000000e+00  7.3458240250884007e-05 4.4806849282901237e-06 0.0000000000000000e+00  1.0253657061202015e-04 6.2651384304361849e-06 0.0000000000000000e+00  1.3579485572764647e-04 8.3141856328109200e-06 0.0000000000000000e+00  1.7458727828993084e-04 1.0712027978600909e-05 0.0000000000000000e+00  2.2047286395024559e-04 1.3551979327658557e-05 0.0000000000000000e+00  2.7524140541505820e-04 1.6932085480487461e-05 0.0000000000000000e+00  3.4090878276383889e-04 2.0940901709952751e-05 0.0000000000000000e+00  4.1964973410894287e-04 2.5621511184419363e-05 0.0000000000000000e+00  5.1361788743791196e-04 3.0888985208276139e-05 0.0000000000000000e+00  6.2459019293052687e-04 3.6352817600176005e-05 0.0000000000000000e+00  7.5340070198057522e-04 4.0962128758068638e-05 0.0000000000000000e+00  8.9928201655547840e-04 4.2379471356706517e-05 0.0000000000000000e+00  1.0596164031588221e-03 3.6104288331535878e-05 0.0000000000000000e+00  1.2311300799520604e-03 1.4614229688308911e-05 0.0000000000000000e+00  0.0000000000000000e+00 0.0000000000000000e+00 0.0000000000000000e+00  2.2384488582053553e-05 1.3950300830602145e-06 0.0000000000000000e+00  4.5748831709127015e-05 2.8572101419264649e-06 0.0000000000000000e+00  7.1116400277875151e-05 4.4576497072778635e-06 0.0000000000000000e+00  9.9618439007895243e-05 6.2764428574269864e-06 0.0000000000000000e+00  1.3255530594982195e-04 8.4079667733761464e-06 0.0000000000000000e+00  1.7146610989686001e-04 1.0967062970818013e-05 0.0000000000000000e+00  2.1820702669223544e-04 1.4096093311642498e-05 0.0000000000000000e+00  2.7503382815776767e-04 1.7972082450739182e-05 0.0000000000000000e+00  3.4467380851480219e-04 2.2810926546447456e-05 0.0000000000000000e+00  4.3035174805999479e-04 2.8859483711583774e-05 0.0000000000000000e+00  5.3569828822663834e-04 3.6349780306363693e-05 0.0000000000000000e+00  6.6441755361771422e-04 4.5346667472528938e-05 0.0000000000000000e+00  8.1955969741077158e-04 5.5318588119408284e-05 0.0000000000000000e+00  1.0024004260378828e-03 6.4076044058932136e-05 0.0000000000000000e+00  1.2116888791970412e-03 6.5675045332601724e-05 0.0000000000000000e+00  1.4449108828844385e-03 4.7475128272962505e-05 0.0000000000000000e+00  0.0000000000000000e+00 0.0000000000000000e+00 0.0000000000000000e+00  2.0587960146503060e-05 1.3103950589175019e-06 0.0000000000000000e+00  4.2137792066446014e-05 2.6909880277632474e-06 0.0000000000000000e+00  6.5658737027429797e-05 4.2169578341429586e-06 0.0000000000000000e+00  9.2288034787906898e-05 5.9756289333229566e-06 0.0000000000000000e+00  1.2336860690206737e-04 8.0744012620015050e-06 0.0000000000000000e+00  1.6054519282508389e-04 1.0651302962173463e-05 0.0000000000000000e+00  2.0588576487846113e-04 1.3889679149512482e-05 0.0000000000000000e+00  2.6203325753937714e-04 1.8039157127984179e-05 0.0000000000000000e+00  3.3238508174482167e-04 2.3445648475915517e-05 0.0000000000000000e+00  4.2127624875582643e-04 3.0592484658038936e-05 0.0000000000000000e+00  5.3408975237733455e-04 4.0147180448559944e-05 0.0000000000000000e+00  6.7710852783832562e-04 5.2971669197870571e-05 0.0000000000000000e+00  8.5673929134611599e-04 6.9907826349211423e-05 0.0000000000000000e+00  1.0776375729210624e-03 9.0635224336974821e-05 0.0000000000000000e+00  1.3406968954572719e-03 1.0967276563022377e-04 0.0000000000000000e+00  1.6467882035248972e-03 1.1239788562366226e-04 0.0000000000000000e+00  0.0000000000000000e+00 0.0000000000000000e+00 0.0000000000000000e+00  1.7847407054595346e-05 1.1565276004209665e-06 0.0000000000000000e+00  3.6576754614884960e-05 2.3805100682882313e-06 0.0000000000000000e+00  5.7117614268102348e-05 3.7448002823849965e-06 0.0000000000000000e+00  8.0535709268764991e-05 5.3359739386505852e-06 0.0000000000000000e+00  1.0812019863241697e-04 7.2637604782807963e-06 0.0000000000000000e+00  1.4149889676293083e-04 9.6743371029616060e-06 0.0000000000000000e+00  1.8279632641029757e-04 1.2770224792073847e-05 0.0000000000000000e+00  2.3485387159440880e-04 1.6841592708216027e-05 0.0000000000000000e+00  3.0153363424076910e-04 2.2318002543139048e-05 0.0000000000000000e+00  3.8811906152974872e-04 2.9858352990659561e-05 0.0000000000000000e+00  5.0178090022856472e-04 4.0513796959052804e-05 0.0000000000000000e+00  6.5193224096535014e-04 5.6023427616744086e-05 0.0000000000000000e+00  8.4990109424097334e-04 7.9288018639021645e-05 0.0000000000000000e+00  1.1063910521331552e-03 1.1463844790163632e-04 0.0000000000000000e+00  1.4237111384321017e-03 1.6385085744454004e-04 0.0000000000000000e+00  1.8103376697415161e-03 1.8497490166703167e-04 0.0000000000000000e+00  0.0000000000000000e+00 0.0000000000000000e+00 0.0000000000000000e+00  1.4245984327689615e-05 9.3646362847708690e-07 0.0000000000000000e+00  2.9228683203409691e-05 1.9311684339269310e-06 0.0000000000000000e+00  4.5727808271077683e-05 3.0473792880211081e-06 0.0000000000000000e+00  6.4650500434994753e-05 4.3614633128684311e-06 0.0000000000000000e+00  8.7116782083845423e-05 5.9720840511290800e-06 0.0000000000000000e+00  1.1457826081437956e-04 8.0134005001688678e-06 0.0000000000000000e+00  1.4899172161349594e-04 1.0675124967578910e-05 0.0000000000000000e+00  1.9308145786501294e-04 1.4234530926070087e-05 0.0000000000000000e+00  2.5074283953540721e-04 1.9110554674639280e-05 0.0000000000000000e+00  3.2766352330461162e-04 2.5962956210149753e-05 0.0000000000000000e+00  4.3225272658123538e-04 3.5895165073170256e-05 0.0000000000000000e+00  5.7690629314797678e-04 5.0922589399295664e-05 0.0000000000000000e+00  7.7926100392312057e-04 7.5160446638608509e-05 0.0000000000000000e+00  1.0616138944262573e-03 1.1795811838795207e-04 0.0000000000000000e+00  1.4402985422315119e-03 2.0223117210408747e-04 0.0000000000000000e+00  1.8273123242477578e-03 3.9500924063546483e-04 0.0000000000000000e+00  0.0000000000000000e+00 0.0000000000000000e+00 0.0000000000000000e+00  9.9288330808333596e-06 6.5948327539040320e-07 0.0000000000000000e+00  2.0388586932002239e-05 1.3618478232899277e-06 0.0000000000000000e+00  3.1943050227267775e-05 2.1538334332199627e-06 0.0000000000000000e+00  4.5255611317786912e-05 3.0923962159274551e-06 0.0000000000000000e+00  6.1158391222936723e-05 4.2518745212987918e-06 0.0000000000000000e+00  8.0752030869011735e-05 5.7341629797459876e-06 0.0000000000000000e+00  1.0555880811436585e-04 7.6836526687966384e-06 0.0000000000000000e+00  1.3776862858479329e-04 1.0309331413418087e-05 0.0000000000000000e+00  1.8064915372118160e-04 1.3917075568555298e-05 0.0000000000000000e+00  2.3925048458858553e-04 1.8956030904305075e-05 0.0000000000000000e+00  3.2164074164348349e-04 2.6088722424790753e-05 0.0000000000000000e+00  4.4107603450514851e-04 3.6337907192183423e-05 0.0000000000000000e+00  6.1968059429133419e-04 5.1615821004241919e-05 0.0000000000000000e+00  8.9406186551645953e-04 7.7111930405443852e-05 0.0000000000000000e+00  1.3219587583705114e-03 1.3114196640708555e-04 0.0000000000000000e+00  1.9849305309850396e-03 2.7386166608113694e-04 0.0000000000000000e+00  0.0000000000000000e+00 0.0000000000000000e+00 0.0000000000000000e+00  5.0981228439747218e-06 3.4075319237184811e-07 0.0000000000000000e+00  1.0474452750150689e-05 7.0424433522425617e-07 0.0000000000000000e+00  1.6425063951313388e-05 1.1152979973536189e-06 0.0000000000000000e+00  2.3300834859275137e-05 1.6043059058164427e-06 0.0000000000000000e+00  3.1546335379015974e-05 2.2110901105254512e-06 0.0000000000000000e+00  4.1757337108737125e-05 2.9902419086076794e-06 0.0000000000000000e+00  5.4771794787928147e-05 4.0184192065033823e-06 0.0000000000000000e+00  7.1821781776918567e-05 5.4032009660236768e-06 0.0000000000000000e+00  9.4799699522773892e-05 7.2890154520179348e-06 0.0000000000000000e+00  1.2674553248276144e-04 9.8398635639364175e-06 0.0000000000000000e+00  1.7276919887630092e-04 1.3120889268247196e-05 0.0000000000000000e+00  2.4180054986058225e-04 1.6597210842405015e-05 0.0000000000000000e+00  3.4958409039712013e-04 1.7299070744590011e-05 0.0000000000000000e+00  5.2123022899629417e-04 4.0460991664094073e-06 0.0000000000000000e+00  7.7813525011714553e-04 -5.3844919604789956e-05 0.0000000000000000e+00  1.0696257007313246e-03 -1.8937337325247545e-04 0.0000000000000000e+00  0.0000000000000000e+00 0.0000000000000000e+00 0.0000000000000000e+00  0.0000000000000000e+00 0.0000000000000000e+00 0.0000000000000000e+00  0.0000000000000000e+00 0.0000000000000000e+00 0.0000000000000000e+00  0.0000000000000000e+00 0.0000000000000000e+00 0.0000000000000000e+00  0.0000000000000000e+00 0.0000000000000000e+00 0.0000000000000000e+00  0.0000000000000000e+00 0.0000000000000000e+00 0.0000000000000000e+00  0.0000000000000000e+00 0.0000000000000000e+00 0.0000000000000000e+00  0.0000000000000000e+00 0.0000000000000000e+00 0.0000000000000000e+00  0.0000000000000000e+00 0.0000000000000000e+00 0.0000000000000000e+00  0.0000000000000000e+00 0.0000000000000000e+00 0.0000000000000000e+00  0.0000000000000000e+00 0.0000000000000000e+00 0.0000000000000000e+00  0.0000000000000000e+00 0.0000000000000000e+00 0.0000000000000000e+00  0