<?xml version="1.0"?>
<VTKFile type="UnstructuredGrid"  version="0.1"  >
<UnstructuredGrid>
<Piece  NumberOfPoints="289" NumberOfCells="512">
<Points>
<DataArray  type="Float64"  NumberOfComponents="3"  format="ascii">0 0 0  0.0625 0 0  0.125 0 0  0.1875 0 0  0.25 0 0  0.3125 0 0  0.375 0 0  0.4375 0 0  0.5 0 0  0.5625 0 0  0.625 0 0  0.6875 0 0  0.75 0 0  0.8125 0 0  0.875 0 0  0.9375 0 0  1 0 0  0 0.0625 0  0.06258574862931368 0.06249159804564567 0  0.125174152863287 0.06248300527186336 0  0.1877679046417398 0.06247403884188185 0  0.2503697246068163 0.0624645358791379 0  0.3129823567628814 0.062454367792165 0  0.3756085379840546 0.06244345973434578 0  0.4382509356790437 0.06243181637140849 0  0.5009120546303353 0.06241955398569906 0  0.5635941382508775 0.06240693639586399 0  0.626299159190784 0.06239440684815744 0  0.6890291934434226 0.06238259677267646 0  0.7517880607428085 0.06237226538527665 0  0.814586942711202 0.06236404405008308 0  0.8774626834915168 0.06235756408342719 0  0.9405381691593886 0.06234832837166201 0  1.004229926057418 0.06231594254183011 0  0 0.125 0  0.06266892476756582 0.1249833829550475 0  0.1253431626880079 0.1249663743913344 0  0.1880281092757979 0.1249485970222294 0  0.2507292416461097 0.1249297098185298 0  0.3134521218051377 0.1249094349914167 0  0.3762023503037787 0.1248875957436461 0  0.4389854526705086 0.1248641679025483 0  0.5018066871256048 0.1248393470269871 0  0.5646707839994346 0.1248136289464599 0  0.6275816860897583 0.1247878944439299 0  0.6905424957145185 0.1247634768472833 0  0.7535561064224585 0.1247421793905475 0  0.8166273688881287 0.1247262353098722 0  0.8797672455339924 0.124718469228573 0  0.9429927906200494 0.1247243825846437 0  1.006277015558324 0.1247647299278043 0  0 0.1875 0  0.06274686253217977 0.1874755564902213 0  0.1255016687109927 0.1874505035685145 0  0.1882725055822994 0.1874242488861784 0  0.251067634129717 0.1873962453044643 0  0.3138955243348335 0.1873660268988171 0  0.3767648181498614 0.1873332618808059 0  0.4396841869010228 0.187297828620938 0  0.5026620438959456 0.187259920181172 0  0.5657060692948739 0.1872201796571562 0  0.6288225019571438 0.1871798606729785 0  0.6920151345160176 0.1871409898612558 0  0.7552838271886849 0.1871064708002713 0  0.8186218178910809 0.1870799800604749 0  0.8820092187802168 0.1870652313032552 0  0.9453948802855681 0.187063066949377 0  1.008650130643675 0.1870596788490523 0  0 0.25 0  0.06281692996952246 0.2499683373663554 0  0.1256443591290053 0.2499358265739638 0  0.1884930100435828 0.2499016342900189 0  0.2513739236070777 0.2498649702587815 0  0.3142985589932172 0.2498251262569123 0  0.3772788069858785 0.2497815379763612 0  0.4403268677649275 0.2497338801163341 0  0.5034549235864005 0.2496822063840019 0  0.5666745039921306 0.2496271461349294 0  0.6299953827683346 0.2495701654918495 0  0.693423726148103 0.2495138877250797 0  0.7569589431853969 0.2494624347338404 0  0.8205880916683662 0.2494216776475775 0  0.8842755375667941 0.2493991400179917 0  0.9479441620955495 0.2494031335491153 0  1.011445955508369 0.2494413872587434 0  0 0.3125 0  0.06287657516894478 0.3124619647849131 0  0.1257660575661353 0.3124228235645867 0  0.1886816780762888 0.3123814764580532 0  0.2516371892876713 0.3123368500981218 0  0.3146470715358189 0.3122879307728393 0  0.377726653584009 0.3122338249344664 0  0.4408920914995075 0.3121738617026491 0  0.5041601178425728 0.3121077568614828 0  0.5675474215804257 0.312035863636532 0  0.6310694317346165 0.3119595409721339 0  0.6947381268312318 0.3118816718652533 0  0.7585582368573207 0.3118073556700169 0  0.8225208228080836 0.3117447678184164 0  0.8865928650320283 0.3117061197533683 0  0.9507019688900064 0.3117085921376203 0  1.014718882882368 0.3117751753271813 0  0 0.375 0  0.06292339668592781 0.3749566965774378 0  0.1258618610837783 0.3749120188566248 0  0.1888309025710243 0.3748645827241193 0  0.2518468119142541 0.3748129974767437 0  0.3149270168694102 0.3747558820196063 0  0.3780903758325304 0.3746919092900833 0  0.4413573593652299 0.3746198966575957 0  0.5047500353738659 0.3745389687796601 0  0.5682917179839441 0.3744488322343674 0  0.6320060497636449 0.37435021915158 0  0.6959151445357705 0.374245580051047 0  0.7600362118306055 0.374140131110518 0  0.8243758487716024 0.3740433776037005 0  0.8889211120890449 0.3739712177449333 0  0.9536271055733611 0.3739486259427919 0  1.018402989275083 0.3740125962831408 0  0 0.4375 0  0.06295524186846055 0.437452800499425 0  0.1259273385617232 0.4374039643393576 0  0.1889337147890663 0.4373518221687555 0  0.251992877224804 0.4372946486131171 0  0.3151249562953635 0.4372306492905726 0  0.3783522337785002 0.4371579712833983 0  0.4416996287224734 0.4370747548829871 0  0.505195087511121 0.436979256033075 0  0.5688697803491125 0.4368700878229408 0  0.6327579368602267 0.4367466594509311 0  0.6968960461616153 0.436609937032482 0  0.7613209932311474 0.4364637159071172 0  0.8260665193448504 0.4363166732705309 0  0.891157269155378 0.4361855303747422 0  0.956599845950692 0.4360996079478922 0  1.0223710283714 0.4361067798760292 0  0 0.5 0  0.06297033184737016 0.4999505378725819 0  0.1259587882714077 0.4998992064546292 0  0.1889841896236236 0.4998440757237653 0  0.2520667505640516 0.4997830974152708 0  0.3152288273076562 0.4997140517924443 0  0.3784957193953241 0.4996345061917395 0  0.4418965364034346 0.4995417985625419 0  0.5054651307671069 0.4994330711312873 0  0.569241083629219 0.4993054005128447 0  0.6332707097450377 0.4991561077444197 0  0.6976080170892657 0.4989833954179261 0  0.7623155085368083 0.498787563497762 0  0.8274646231293631 0.4985732100485392 0  0.8931354353937484 0.4983529982365272 0  0.9594149334759519 0.4981535999331976 0  1.026393035250304 0.4980238258227447 0  0 0.5625 0  0.06296740567956285 0.5624501398964287 0  0.1259535399961732 0.5623982369683495 0  0.1889779344539506 0.5623421578658481 0  0.252061798190807 0.5622795833890303 0  0.315228963068885 0.5622079081689197 0  0.3785069638136729 0.562124133858288 0  0.4419283114251401 0.5620247591379405 0  0.5055320340953712 0.5619056782113083 0  0.5693655899960456 0.561762116379949 0  0.6334873152548274 0.5615886649275311 0  0.6979696839154367 0.5613795434760601 0  0.7629038557825223 0.5611293442790749 0  0.8284062692949076 0.560834740862335 0  0.8946282475288349 0.5604979897331174 0  0.9617692924934236 0.5601333039333699 0  1.030093690962062 0.5597762109346196 0  0 0.625 0  0.06294586943661899 0.6249517784803238 0  0.12591027236983 0.6249014310618242 0  0.1889126152430726 0.6248467145909699 0  0.2519741891058307 0.6247851379159072 0  0.3151192719978252 0.6247138149808315 0  0.3783764451037373 0.6246292890772904 0  0.4417802296501152 0.6245273173232504 0  0.5053731948513424 0.6244026051869755 0  0.5692087671698773 0.6242484857345958 0  0.6333551281970677 0.6240565536911633 0  0.6979009093250667 0.6238163057983092 0  0.7629640419754482 0.6235149438251847 0  0.8287063454019516 0.6231377518939077 0  0.8953583275870717 0.622670024307057 0  0.9632603501164478 0.6221023898073871 0  1.03292501244663 0.6214404913439521 0  0 0.6875 0  0.06290593031823821 0.6874555351459077 0  0.1258293033042331 0.6874089800821006 0  0.1887884506054227 0.6873581091947994 0  0.2518036727303407 0.6873004049298183 0  0.3148984246487818 0.6872328743621858 0  0.3781007766688392 0.6871518150838702 0  0.4414452967248762 0.6870525038499371 0  0.5049755647184043 0.686928771925442 0  0.5687476465438338 0.6867724180036173 0  0.6328350884062048 0.6865723933440845 0  0.6973365033914362 0.6863136794960688 0  0.7623880190901359 0.6859757918777206 0  0.8281856754750805 0.685530989186811 0  0.8950290214363222 0.6849429520544729 0  0.9634076524671784 0.6841691341231607 0  1.034158566517102 0.6831746388949753 0  0 0.75 0  0.06284869267385092 0.7499613730100095 0  0.1257128038321789 0.7499208297108962 0  0.1886085902068657 0.7498763139093394 0  0.2515542021720666 0.7498254637807862 0  0.3145708506401825 0.7497654117967173 0  0.3776842796012643 0.7496925184396815 0  0.4409267112942888 0.7496020004778504 0  0.5043395042301666 0.749487395352421 0  0.5679768884863968 0.7493397721892822 0  0.6319113768824716 0.7491465493547576 0  0.6962419730858 0.7488896942533416 0  0.7611076842763674 0.7485429406430762 0  0.8267129688222543 0.7480674581859463 0  0.8933843487387458 0.7474054237417752 0  0.9617126166815138 0.7464735296605918 0  1.032892116600487 0.7451803038564832 0  0 0.8125 0  0.06277619345427157 0.812469117586521 0  0.125564886320935 0.8124366362064815 0  0.1883792931896642 0.812400829549354 0  0.251234268669901 0.8123596904512758 0  0.3141473372377979 0.8123107415283941 0  0.3771400179533119 0.812250775716301 0  0.4402396088551816 0.812175482215662 0  0.5034816657787112 0.8120788885749584 0  0.5669135137791299 0.81195250809284 0  0.6305992819495273 0.8117840112510497 0  0.6946272095385164 0.8115551157753254 0  0.7591206248160637 0.8112381544423716 0  0.824256636673141 0.8107902868277477 0  0.8903095236563831 0.8101432527055846 0  0.9578013552402515 0.8091850280260116 0  1.028168529648658 0.8077390664535308 0  0 0.875 0  0.06269135980651948 0.8749784517107025 0  0.1253915284401265 0.8749557527037038 0  0.1881098381951919 0.8749306549479411 0  0.2508568347050357 0.8749016944022245 0  0.3136450508253181 0.8748670422775139 0  0.376490018367701 0.8748242970339363 0  0.4394116549892157 0.8747701776426579 0  0.5024362226905658 0.874700054853831 0  0.5655991307851453 0.874607216606397 0  0.6289489192198925 0.8744816947368231 0  0.692552678970116 0.8743083613893481 0  0.7565025241766767 0.8740637823428812 0  0.8209204347401949 0.8737107959558009 0  0.885953751999738 0.8731880968087309 0  0.9517631304471101 0.8723855178335631 0  1.018791670907849 0.871068834775235 0  0 0.9375 0  0.0625978810633367 0.9374889280910316 0  0.1252003141666289 0.9374772537888967 0  0.1878121284954749 0.9374643219069089 0  0.2504387999519277 0.937449359608523 0  0.3130868686975638 0.9374313942898196 0  0.3757644924394904 0.9374091371730351 0  0.4384822174173081 0.9373808089137957 0  0.5
[...]
<PointData  Vectors="f_54"> 
<DataArray  type="Float64"  Name="f_54"  NumberOfComponents="3" format="ascii">0.0000000000000000e+00 0.0000000000000000e+00 0.0000000000000000e+00  0.0000000000000000e+00 0.0000000000000000e+00 0.0000000000000000e+00  0.0000000000000000e+00 0.0000000000000000e+00 0.0000000000000000e+00  0.0000000000000000e+00 0.0000000000000000e+00 0.0000000000000000e+00  0.0000000000000000e+00 0.0000000000000000e+00 0.0000000000000000e+00  0.0000000000000000e+00 0.0000000000000000e+00 0.0000000000000000e+00  0.0000000000000000e+00 0.0000000000000000e+00 0.0000000000000000e+00  0.0000000000000000e+00 0.0000000000000000e+00 0.0000000000000000e+00  0.0000000000000000e+00 0.0000000000000000e+00 0.0000000000000000e+00  0.0000000000000000e+00 0.0000000000000000e+00 0.0000000000000000e+00  0.0000000000000000e+00 0.0000000000000000e+00 0.0000000000000000e+00  0.0000000000000000e+00 0.0000000000000000e+00 0.0000000000000000e+00  0.0000000000000000e+00 0.0000000000000000e+00 0.0000000000000000e+00  0.0000000000000000e+00 0.0000000000000000e+00 0.0000000000000000e+00  0.0000000000000000e+00 0.0000000000000000e+00 0.0000000000000000e+00  0.0000000000000000e+00 0.0000000000000000e+00 0.0000000000000000e+00  0.0000000000000000e+00 0.0000000000000000e+00 0.0000000000000000e+00  0.0000000000000000e+00 0.0000000000000000e+00 0.0000000000000000e+00  3.7570667037309722e-07 -7.3032730874532642e-08 0.0000000000000000e+00  7.8783528712623713e-07 -1.4829380037924236e-07 0.0000000000000000e+00  1.2772336131562978e-06 -2.2808637754249923e-07 0.0000000000000000e+00  1.8939070143054937e-06 -3.1483206518794676e-07 0.0000000000000000e+00  2.7029969325342577e-06 -4.1116097572659362e-07 0.0000000000000000e+00  3.7926856910758641e-06 -5.2004935115090652e-07 0.0000000000000000e+00  5.2852622635225448e-06 -6.4504413686433654e-07 0.0000000000000000e+00  7.3535421661822424e-06 -7.9064502787574870e-07 0.0000000000000000e+00  1.0247115587576047e-05 -9.6298278527276203e-07 0.0000000000000000e+00  1.4338718331917534e-05 -1.1711151205494537e-06 0.0000000000000000e+00  2.0216908900561504e-05 -1.4298381082260392e-06 0.0000000000000000e+00  2.8897626570549410e-05 -1.7669379422897712e-06 0.0000000000000000e+00  4.2372355777400589e-05 -2.2454159435823788e-06 0.0000000000000000e+00  6.5198746962606658e-05 -3.0412696906124628e-06 0.0000000000000000e+00  1.0962230479086432e-04 -4.7432151740466240e-06 0.0000000000000000e+00  2.1412534371841396e-04 -9.6282393538782227e-06 0.0000000000000000e+00  0.0000000000000000e+00 0.0000000000000000e+00 0.0000000000000000e+00  7.1600871286458257e-07 -1.4402143547981683e-07 0.0000000000000000e+00  1.5009126001099769e-06 -2.9247222980786351e-07 0.0000000000000000e+00  2.4320049964375036e-06 -4.4992171410627216e-07 0.0000000000000000e+00  3.6039939636302738e-06 -6.2115766224265908e-07 0.0000000000000000e+00  5.1403346745844069e-06 -8.1134762186481293e-07 0.0000000000000000e+00  7.2080845940196837e-06 -1.0262809299613009e-06 0.0000000000000000e+00  1.0038291006429545e-05 -1.2727572188856402e-06 0.0000000000000000e+00  1.3955088462645808e-05 -1.5592282229649850e-06 0.0000000000000000e+00  1.9419114177804813e-05 -1.8968603481442016e-06 0.0000000000000000e+00  2.7096115263428958e-05 -2.3012674101136236e-06 0.0000000000000000e+00  3.7973136929925505e-05 -2.7952283154433746e-06 0.0000000000000000e+00  5.3568729770721716e-05 -3.4124365013854829e-06 0.0000000000000000e+00  7.6325490624089151e-05 -4.1997475561792965e-06 0.0000000000000000e+00  1.1029644511187610e-04 -5.1994026044515806e-06 0.0000000000000000e+00  1.6190611757689298e-04 -6.3041175144266760e-06 0.0000000000000000e+00  2.3779241621165405e-04 -6.4062223458745783e-06 0.0000000000000000e+00  0.0000000000000000e+00 0.0000000000000000e+00 0.0000000000000000e+00  9.8842751470292363e-07 -2.1074570436259245e-07 0.0000000000000000e+00  2.0703837862174503e-06 -4.2804935441584713e-07 0.0000000000000000e+00  3.3508222780961009e-06 -6.5865520946377223e-07 0.0000000000000000e+00  4.9584835909105494e-06 -9.0959084894698282e-07 0.0000000000000000e+00  7.0613349318982575e-06 -1.1883642034330130e-06 0.0000000000000000e+00  9.8866326527479095e-06 -1.5032498309650456e-06 0.0000000000000000e+00  1.3747862475921017e-05 -1.8637432187259861e-06 0.0000000000000000e+00  1.9081511387988846e-05 -2.2813084584445767e-06 0.0000000000000000e+00  2.6497593352317445e-05 -2.7705951667051581e-06 0.0000000000000000e+00  3.6848933109627038e-05 -3.3513119328877118e-06 0.0000000000000000e+00  5.1324219947492604e-05 -4.0507819205140345e-06 0.0000000000000000e+00  7.1563322044958103e-05 -4.9065248944217210e-06 0.0000000000000000e+00  9.9759586441805197e-05 -5.9663587602494254e-06 0.0000000000000000e+00  1.3858468821786066e-04 -7.2808437747784584e-06 0.0000000000000000e+00  1.9036349619254417e-04 -8.8937429211050577e-06 0.0000000000000000e+00  2.5396946713247587e-04 -1.0978543374474302e-05 0.0000000000000000e+00  0.0000000000000000e+00 0.0000000000000000e+00 0.0000000000000000e+00  1.1684046960595996e-06 -2.7106248321708285e-07 0.0000000000000000e+00  2.4441211676564110e-06 -5.5070810370862505e-07 0.0000000000000000e+00  3.9475895063707276e-06 -8.4773178303933636e-07 0.0000000000000000e+00  5.8267798061979750e-06 -1.1712391630995731e-06 0.0000000000000000e+00  8.2751190508652061e-06 -1.5308369939801995e-06 0.0000000000000000e+00  1.1554755485518847e-05 -1.9368897388080312e-06 0.0000000000000000e+00  1.6027464945912951e-05 -2.4009214440605434e-06 0.0000000000000000e+00  2.2195673846888627e-05 -2.9363045117455750e-06 0.0000000000000000e+00  3.0755628981449389e-05 -3.5594605035709535e-06 0.0000000000000000e+00  4.2662472613776957e-05 -4.2918693423154667e-06 0.0000000000000000e+00  5.9199886175249813e-05 -5.1631258803840138e-06 0.0000000000000000e+00  8.2027915908266486e-05 -6.2147997390420664e-06 0.0000000000000000e+00  1.1313606856592741e-04 -7.5033456894900541e-06 0.0000000000000000e+00  1.5452804690065732e-04 -9.0967975465984661e-06 0.0000000000000000e+00  2.0729602967985530e-04 -1.1052068586486746e-05 0.0000000000000000e+00  2.6966192578707659e-04 -1.3327567397429222e-05 0.0000000000000000e+00  0.0000000000000000e+00 0.0000000000000000e+00 0.0000000000000000e+00  1.2422752490998616e-06 -3.2293933397491070e-07 0.0000000000000000e+00  2.5930292829006752e-06 -6.5636682209895431e-07 0.0000000000000000e+00  4.1740021670868159e-06 -1.0109941914577090e-06 0.0000000000000000e+00  6.1350660031965425e-06 -1.3978503762320360e-06 0.0000000000000000e+00  8.6727946735433063e-06 -1.8284285844126680e-06 0.0000000000000000e+00  1.2054858565509001e-05 -2.3148378747501157e-06 0.0000000000000000e+00  1.6652761959030128e-05 -2.8700159797684652e-06 0.0000000000000000e+00  2.2985535574681820e-05 -3.5081422668560142e-06 0.0000000000000000e+00  3.1776245025189431e-05 -4.2455418848603154e-06 0.0000000000000000e+00  4.4020232394058446e-05 -5.1026247889002111e-06 0.0000000000000000e+00  6.1056182215894615e-05 -6.1077576425041181e-06 0.0000000000000000e+00  8.4613672007327183e-05 -7.3043030900169674e-06 0.0000000000000000e+00  1.1677763918463183e-04 -8.7619194574785597e-06 0.0000000000000000e+00  1.5976045761990375e-04 -1.0591313778939849e-05 0.0000000000000000e+00  2.1533800672713423e-04 -1.2954926061174677e-05 0.0000000000000000e+00  2.8391599952561428e-04 -1.6049100749603330e-05 0.0000000000000000e+00  0.0000000000000000e+00 0.0000000000000000e+00 0.0000000000000000e+00  1.2089755408622113e-06 -3.6447331520257454e-07 0.0000000000000000e+00  2.5147149133830135e-06 -7.4120841742736362e-07 0.0000000000000000e+00  4.0256880745530812e-06 -1.1427058941871277e-06 0.0000000000000000e+00  5.8756504534726445e-06 -1.5818068871670196e-06 0.0000000000000000e+00  8.2408068815730642e-06 -2.0717830688354225e-06 0.0000000000000000e+00  1.1363039514102091e-05 -2.6263285460424878e-06 0.0000000000000000e+00  1.5582193427859813e-05 -3.2594465977912982e-06 0.0000000000000000e+00  2.1381036653692526e-05 -3.9852988362993527e-06 0.0000000000000000e+00  2.9446736310034366e-05 -4.8182794326220932e-06 0.0000000000000000e+00  4.0751601647494469e-05 -5.7740241101132141e-06 0.0000000000000000e+00  5.6651708083273239e-05 -6.8729881293465234e-06 0.0000000000000000e+00  7.8992277954595476e-05 -8.1499446527112378e-06 0.0000000000000000e+00  1.1019150011404912e-04 -9.6755119879148459e-06 0.0000000000000000e+00  1.5325479247958534e-04 -1.1599229789064204e-05 0.0000000000000000e+00  2.1167596376403273e-04 -1.4225553110557327e-05 0.0000000000000000e+00  2.8927532271709125e-04 -1.8129520359991843e-05 0.0000000000000000e+00  0.0000000000000000e+00 0.0000000000000000e+00 0.0000000000000000e+00  1.0802481133711484e-06 -3.9390391893048144e-07 0.0000000000000000e+00  2.2340374015135630e-06 -8.0168857312376214e-07 0.0000000000000000e+00  3.5434050615499165e-06 -1.2375170094827986e-06 0.0000000000000000e+00  5.1093151446179735e-06 -1.7159891118001397e-06 0.0000000000000000e+00  7.0651650640883634e-06 -2.2522059594317546e-06 0.0000000000000000e+00  9.5960645184735775e-06 -2.8616090002604545e-06 0.0000000000000000e+00  1.2967387595309207e-05 -3.5594700170380482e-06 0.0000000000000000e+00  1.7567674761068373e-05 -4.3599070916196596e-06 0.0000000000000000e+00  2.3973088273977591e-05 -5.2744125772821984e-06 0.0000000000000000e+00  3.3043129941965176e-05 -6.3103126560055867e-06 0.0000000000000000e+00  4.6059572430636265e-05 -7.4708138390590666e-06 0.0000000000000000e+00  6.4921165307843109e-05 -8.7613076295430683e-06 0.0000000000000000e+00  9.2403916747281132e-05 -1.0213115864720276e-05 0.0000000000000000e+00  1.3249129967319215e-04 -1.1948147392904962e-05 0.0000000000000000e+00  1.9078197216167137e-04 -1.4327186626084639e-05 0.0000000000000000e+00  2.7502965197055679e-04 -1.8246477212807009e-05 0.0000000000000000e+00  0.0000000000000000e+00 0.0000000000000000e+00 0.0000000000000000e+00  8.7922050228861211e-07 -4.0963726370366752e-07 0.0000000000000000e+00  1.8002674737257908e-06 -8.3455989598997094e-07 0.0000000000000000e+00  2.8088338116760450e-06 -1.2904329654048419e-06 0.0000000000000000e+00  3.9599939197458462e-06 -1.7935883375336547e-06 0.0000000000000000e+00  5.3257327527835537e-06 -2.3611598345396529e-06 0.0000000000000000e+00  7.0069772202731300e-06 -3.0108904421046066e-06 0.0000000000000000e+00  9.1536859350441114e-06 -3.7603395450487027e-06 0.0000000000000000e+00  1.1999090471000652e-05 -4.6250555456652732e-06 0.0000000000000000e+00  1.5918467858565321e-05 -5.6150943313386477e-06 0.0000000000000000e+00  2.1529757438586000e-05 -6.7292143120093378e-06 0.0000000000000000e+00  2.9863832477044776e-05 -7.9466928302039419e-06 0.0000000000000000e+00  4.2646436598302201e-05 -9.2194658084007415e-06 0.0000000000000000e+00  6.2749238135073474e-05 -1.0475805394224615e-05 0.0000000000000000e+00  9.4876807854020785e-05 -1.1668580381560100e-05 0.0000000000000000e+00  1.4655025041875497e-04 -1.2948786772354447e-05 0.0000000000000000e+00  2.2944160643467455e-04 -1.5131527581620213e-05 0.0000000000000000e+00  0.0000000000000000e+00 0.0000000000000000e+00 0.0000000000000000e+00  6.3737298776277199e-07 -4.1030502347773095e-07 0.0000000000000000e+00  1.2808234826451373e-06 -8.3696613295374307e-07 0.0000000000000000e+00  1.9347462046445914e-06 -1.2968843155794730e-06 0.0000000000000000e+00  2.6010956346867620e-06 -1.8080283633530367e-06 0.0000000000000000e+00  3.2789252339242112e-06 -2.3898015950670286e-06 0.0000000000000000e+00  3.9657988287278374e-06 -3.0630819474148587e-06 0.0000000000000000e+00  4.6636756908932738e-06 -3.8495592929403951e-06 0.0000000000000000e+00  5.3947945702994397e-06 -4.7696316788732452e-06 0.0000000000000000e+00  6.2388043833884542e-06 -5.8374713396944644e-06 0.0000000000000000e+00  7.4132101915641145e-06 -7.0507928796338013e-06 0.0000000000000000e+00  9.4386833897209908e-06 -8.3713587674579078e-06 0.0000000000000000e+00  1.3463185925354158e-05 -9.6911748110686400e-06 0.0000000000000000e+00  2.1865551072424711e-05 -1.0782495335062226e-05 0.0000000000000000e+00  3.9307944414002319e-05 -1.1249791500778032e-05 0.0000000000000000e+00  7.4414127975891341e-05 -1.0571322597322224e-05 0.0000000000000000e+00  1.4215611943014931e-04 -8.4955238049564194e-06 0.0000000000000000e+00  0.0000000000000000e+00 0.0000000000000000e+00 0.0000000000000000e+00  3.9010414659288874e-07 -3.9488090175581188e-07 0.0000000000000000e+00  7.5193043636952006e-07 -8.0666449825507604e-07 0.0000000000000000e+00  1.0498395557680244e-06 -1.2530188014758769e-06 0.0000000000000000e+00  1.2332771275818664e-06 -1.7532282429280582e-06 0.0000000000000000e+00  1.2272325141215302e-06 -2.3289756126980446e-06 0.0000000000000000e+00  9.2056621895457594e-07 -3.0049805080798266e-06 0.0000000000000000e+00  1.5247446595373420e-07 -3.8091701681845847e-06 0.0000000000000000e+00  -1.3005288982642058e-06 -4.7715959387340079e-06 0.0000000000000000e+00  -3.7295897148097694e-06 -5.9202905611724303e-06 0.0000000000000000e+00  -7.4711439219183047e-06 -7.2700641419948566e-06 0.0000000000000000e+00  -1.2812297630725177e-05 -8.7956393209066730e-06 0.0000000000000000e+00  -1.9726741922444464e-05 -1.0371484296402517e-05 0.0000000000000000e+00  -2.7246616031348603e-05 -1.1645327253804772e-05 0.0000000000000000e+00  -3.2124897384182425e-05 -1.1796491360465520e-05 0.0000000000000000e+00  -2.6305572201587076e-05 -9.1605573339701620e-06 0.0000000000000000e+00  7.1343322408252198e-06 -9.5969287210710062e-07 0.0000000000000000e+00  0.0000000000000000e+00 0.0000000000000000e+00 0.0000000000000000e+00  1.7136458897145707e-07 -3.6286485784508170e-07 0.0000000000000000e+00  2.8710870592365803e-07 -7.4241109602609433e-07 0.0000000000000000e+00  2.7945874072590001e-07 -1.1563122452561820e-06 0.0000000000000000e+00  5.4849622396983865e-08 -1.6244416145594587e-06 0.0000000000000000e+00  -5.2417025001850541e-07 -2.1701879639935697e-06 0.0000000000000000e+00  -1.6639249574027462e-06 -2.8220061159285163e-06 0.0000000000000000e+00  -3.6747818566526903e-06 -3.6151655541067680e-06 0.0000000000000000e+00  -7.0200596302058496e-06 -4.5933614704310052e-06 0.0000000000000000e+00  -1.2380857786217228e-05 -5.8090032852556275e-06 0.0000000000000000e+00  -2.0732390402860919e-05 -7.3186803815566063e-06 0.0000000000000000e+00  -3.3406124136749577e-05 -9.1641201325291320e-06 0.0000000000000000e+00  -5.2052654738601906e-05 -1.1312629385274596e-05 0.0000000000000000e+00  -7.8269671095195303e-05 -1.3488727469481136e-05 0.0000000000000000e+00  -1.1231923050441671e-04 -1.4725094760144903e-05 0.0000000000000000e+00  -1.4976412902835320e-04 -1.2252164149114493e-05 0.0000000000000000e+00  -1.7454693597183260e-04 7.8108866349932940e-07 0.0000000000000000e+00  0.0000000000000000e+00 0.0000000000000000e+00 0.0000000000000000e+00  8.1218651808007640e-09 -3.1451871647575489e-07 0.0000000000000000e+00  -5.4920403856392937e-08 -6.4448567664778852e-07 0.0000000000000000e+00  -2.7529237457970930e-07 -1.0064948855544205e-06 0.0000000000000000e+00  -7.7174923163683413e-07 -1.4197629527899002e-06 0.0000000000000000e+00  -1.7196707764929419e-06 -1.9079259962769131e-06 0.0000000000000000e+00  -3.3862013747785757e-06 -2.5015385364326425e-06 0.0000000000000000e+00  -6.1836540975885130e-06 -3.2417054792577241e-06 0.0000000000000000e+00  -1.0752131296746099e-05 -4.1854460829188316e-06 0.0000000000000000e+00  -1.8087865521635474e-05 -5.4134851840752220e-06 0.0000000000000000e+00  -2.9740366599841900e-05 -7.0407212181692345e-06 0.0000000000000000e+00  -4.8103617556687120e-05 -9.2268523237521929e-06 0.0000000000000000e+00  -7.6801491780480974e-05 -1.2173032850922786e-05 0.0000000000000000e+00  -1.2103431880820480e-04 -1.6045813247837267e-05 0.0000000000000000e+00  -1.8725229317318612e-04 -2.0599479559101746e-05 0.0000000000000000e+00  -2.7996363756249161e-04 -2.3616752287289387e-05 0.0000000000000000e+00  -3.9099245865329059e-04 -1.5189962891320991e-05 0.0000000000000000e+00  0.0000000000000000e+00 0.0000000000000000e+00 0.0000000000000000e+00  -8.4346840138542690e-08 -2.5110155611331278e-07 0.0000000000000000e+00  -2.4072883806858625e-07 -5.1524617775731391e-07 0.0000000000000000e+00  -5.5628056726567474e-07 -8.0661813180673509e-07 0.0000000000000000e+00  -1.1514321084143212e-06 -1.1420693226398493e-06 0.0000000000000000e+00  -2.2053052538320771e-06 -1.5431146686349941e-06 0.0000000000000000e+00  -3.9942323901178737e-06 -2.0389695015178684e-06 0.0000000000000000e+00  -6.9531103800516058e-06 -2.6714830260165644e-06 0.0000000000000000e+00  -1.1776310009589230e-05 -3.5035302151772946e-06 0.0000000000000000e+00  -1.9587841097911145e-05 -4.6338114686516378e-06 0.0000000000000000e+00  -3.2234424510514675e-05 -6.2237465785556168e-06 0.0000000000000000e+00  -5.2798064773786979e-05 -8.5475301406745605e-06 0.0000000000000000e+00  -8.6493705218510745e-05 -1.2086480101408938e-05 0.0000000000000000e+00  -1.4218511353050753e-04 -1.7703399218152934e-05 0.0000000000000000e+00  -2.3456581918919109e-04 -2.6918948290708100e-05 0.0000000000000000e+00  -3.8506373039204448e-04 -4.1920262656075775e-05 0.0000000000000000e+00  -6.0496654597576142e-04 -6.0127551712141618e-05 0.0000000000000000e+00  0.0000000000000000e+00 0.0000000000000000e+00 0.0000000000000000e+00  -1.0528512283556109e-07 -1.7502396548284975e-07 0.0000000000000000e+00  -2.6867856730368406e-07 -3.5952467601900414e-07 0.0000000000000000e+00  -5.6048328968882489e-07 -5.6390592400807530e-07 0.0000000000000000e+00  -1.0781484862915553e-06 -8.0076738672978081e-07 0.0000000000000000e+00  -1.9674303307616797e-06 -1.0866377782866882e-06 0.0000000000000000e+00  -3.4552447702764080e-06 -1.4447493244478343e-06 0.0000000000000000e+00  -5.9035661991739361e-06 -1.9098041209281893e-06 0.0000000000000000e+00  -9.9015246024244898e-06 -2.5366099570065349e-06 0.0000000000000000e+00  -1.6428771440402331e-05 -3.4164699023662639e-06 0.0000000000000000e+00  -2.7156917633313830e-05 -4.7097370003569418e-06 0.0000000000000000e+00  -4.5030368603130902e-05 -6.7137244937385225e-06 0.0000000000000000e+00  -7.5438932296832215e-05 -1.0012758377418611e-05 0.0000000000000000e+00  -1.2869669924490075e-04 -1.5835591896089403e-05 0.0000000000000000e+00  -2.2547741710865067e-04 -2.7006645824430696e-05 0.0000000000000000e+00  -4.0891377314567748e-04 -5.0988532402659272e-05 0.0000000000000000e+00  -7.7302568514279536e-04 -1.1350865358273437e-04 0.0000000000000000e+00  0.0000000000000000e+00 0.0000000000000000e+00 0.0000000000000000e+00  -6.8594532518105393e-08 -8.9836273599863091e-08 0.0000000000000000e+00  -1.6947124982408378e-07 -1.8465535140501625e-07 0.0000000000000000e+00  -3.4168520104893949e-07 -2.8995806805091623e-07 0.0000000000000000e+00  -6.3944186838653090e-07 -4.1248093851205038e-07 0.0000000000000000e+00  -1.1440308242122139e-06 -5.6119830088816201e-07 0.0000000000000000e+00  -1.9825630905528123e-06 -7.4896505837292651e-07 0.0000000000000000e+00  -3.3591567475517542e-06 -9.9540839082091741e-07 0.0000000000000000e+00  -5.6092351419475714e-06 -1.3322968366934357e-06 0.0000000000000000e+00  -9.2983196632825010e-06 -1.8139751672166716e-06 0.0000000000000000e+00  -1.5410881413549833e-05 -2.5385249616452110e-06 0.0000000000000000e+00  -2.5733158490000552e-05 -3.6924267125051589e-06 0.0000000000000000e+00  -4.3685523505355032e-05 -5.6481153213875660e-06 0.0000000000000000e+00  -7.6284532413987914e-05 -9.1806967510161561e-06 0.0000000000000000e+00  -1.3915722430709741e-04 -1.5929454666330534e-05 0.0000000000000000e+00  -2.6979654556075384e-04 -2.9110521274462137e-05 0.0000000000000000e+00  -5.5449680611162182e-04 -5.2219306320472808e-05 0.0000000000000000e+00  0.0000000000000000e+00 0.0000000000000000e+00 0.0000000000000000e+00  0.0000000000000000e+00 0.0000000000000000e+00 0.0000000000000000e+00  0.0000000000000000e+00 0.0000000000000000e+00 0.0000000000000000e+00  0.0000000000000000e+00 0.0000000000000000e+00 0.0000000000000000e+00  0.0000000000000000e+00 0.0000000000000000e+00 0.0000000000000000e+00  0.0000000000000000e+00 0.0000000000000000e+00 0.0000000000000000e+00  0.0000000000000000e+00 0.0000000000000000e+00 0.0000000000000000e+00  0.0000000000000000e+00 0.000000000000000