<?xml version="1.0"?>
<VTKFile type="UnstructuredGrid"  version="0.1"  >
<UnstructuredGrid>
<Piece  NumberOfPoints="289" NumberOfCells="512">
<Points>
<DataArray  type="Float64"  NumberOfComponents="3"  format="ascii">0 0 0  0.0625 0 0  0.125 0 0  0.1875 0 0  0.25 0 0  0.3125 0 0  0.375 0 0  0.4375 0 0  0.5 0 0  0.5625 0 0  0.625 0 0  0.6875 0 0  0.75 0 0  0.8125 0 0  0.875 0 0  0.9375 0 0  1 0 0  0 0.0625 0  0.06257556210264599 0.06247938607754794 0  0.1251534428470814 0.06245837126192019 0  0.1877360083015058 0.06243657938836961 0  0.2503256584887761 0.06241370172993392 0  0.3129248344292752 0.06238954187977914 0  0.3755360140707185 0.06236407326782671 0  0.4381617006603064 0.06233751066751075 0  0.5008044212443967 0.06231039239721751 0  0.5634667877809284 0.06228366087013671 0  0.6261517600109591 0.06225871288177158 0  0.6888634730828588 0.06223736369119902 0  0.7516095990702046 0.06222162508118659 0  0.8144079210913039 0.0622131257148887 0  0.8773046995454257 0.06221186409311987 0  0.9404259669884979 0.06221372952943163 0  1.0041130554405 0.0622083056051736 0  0 0.125 0  0.06264882342383679 0.1249591582411936 0  0.1253022894220063 0.1249174807718523 0  0.1879651443277287 0.1248741771647213 0  0.2506422264935517 0.1248285827529944 0  0.313338494906195 0.1247802450809057 0  0.3760590372322035 0.1247290381434601 0  0.4388090611648788 0.1246753098458929 0  0.5015938928352872 0.1246200608069676 0  0.5644190512284576 0.1245651373856856 0  0.6272905653465665 0.1245133932583879 0  0.6902159014635867 0.1244687261335502 0  0.7532062372707666 0.1244358305216358 0  0.8162813071737407 0.124419466753777 0  0.8794777406579196 0.1244232561105186 0  0.9428560383054124 0.1244493858058072 0  1.006475294107813 0.1245056452218376 0  0 0.1875 0  0.06271745524068494 0.18743975827362 0  0.1254418522024683 0.1873781851670513 0  0.1881803024845226 0.1873140065252739 0  0.2509400985106624 0.1872461130104393 0  0.3137287800989534 0.1871736799098382 0  0.3765541693153768 0.187096333380455 0  0.4394243697224913 0.187014377235724 0  0.5023477384181589 0.1869290882928341 0  0.5653328638418992 0.1868430724345298 0  0.6283886219637544 0.1867606385903441 0  0.6915244206850589 0.186688077151882 0  0.7547506756400548 0.1866335897663154 0  0.818079019632991 0.1866063234848075 0  0.8815197088645202 0.1866132156289942 0  0.9450684150305173 0.1866499456078533 0  1.008668119702906 0.1866733991137576 0  0 0.25 0  0.06277916575188601 0.2499216878081819 0  0.125567502453959 0.2498414706128065 0  0.1883744269837638 0.2497574991856901 0  0.2512096625283908 0.2496680975027898 0  0.3140833638546788 0.2495719006126595 0  0.3770062007454341 0.2494680597053529 0  0.4399893835324573 0.2493565421760366 0  0.5030446126955881 0.249238555143958 0  0.5661839280680511 0.2491171139896372 0  0.6294194066606926 0.2489977524975544 0  0.6927625635966599 0.248889307613666 0  0.7562230247775672 0.2488045705649153 0  0.8198053074062356 0.2487603065612736 0  0.8835010495576461 0.248775609586676 0  0.9472721936343043 0.2488668590412918 0  1.01102228146358 0.2490384236992473 0  0 0.3125 0  0.06283173784404837 0.3124055244809653 0  0.1256747428329234 0.3123084905327557 0  0.1885406131375021 0.3122063760857897 0  0.2514414194666825 0.3120967984426498 0  0.3143899153457377 0.3119776458994312 0  0.3773997033572402 0.3118472950432484 0  0.4404853327689684 0.3117049581927119 0  0.5036622907727497 0.3115512184956007 0  0.5669468221144136 0.3113888231562755 0  0.6303554499664562 0.3112238103696239 0  0.6939039307876621 0.311067024386877 0  0.7576050815668608 0.3109359872853425 0  0.8214643964824545 0.310856877633569 0  0.8854717746585096 0.310865933580548 0  0.949588097822052 0.3110089709673141 0  1.013730086046208 0.3113372498829845 0  0 0.375 0  0.06287308475727181 0.3748919228166722 0  0.1257593168834786 0.3747805725591468 0  0.1886722661991722 0.3746626718987902 0  0.2516261811066282 0.3745349977988967 0  0.3146363132087431 0.3743944733757091 0  0.3777192103535294 0.3742383545029527 0  0.4408929559010772 0.3740645704530637 0  0.5041773172896955 0.3738723066941417 0  0.5675937391896001 0.373662959172301 0  0.6311650607241026 0.3734416427910887 0  0.6949147246222814 0.3732194927620938 0  0.7588650424790363 0.3730170216117134 0  0.823033785829804 0.3728687003957283 0  0.8874281872131048 0.3728285568194269 0  0.9520360967937509 0.3729757310479563 0  1.016817024744692 0.3734175896055519 0  0 0.4375 0  0.06290132799872046 0.437381594874253 0  0.1258173653304138 0.437259183504053 0  0.1887633362562911 0.4371286932497631 0  0.2517553803058175 0.4369859668244565 0  0.3148110173300424 0.436826774665004 0  0.3779496109715754 0.4366469135160045 0  0.4411928245145564 0.4364424565211769 0  0.5045650589573447 0.4362102633435009 0  0.5680938590494691 0.4359489298111376 0  0.631810267331913 0.4356604686294856 0  0.6957490920896743 0.4353531775282555 0  0.7599490177089748 0.4350463590565622 0  0.82445241153621 0.4347777209655858 0  0.8893046107838077 0.434614142349122 0  0.9545526574896313 0.4346655465739911 0  1.020244683347605 0.4350996622019306 0  0 0.5 0  0.06291489874311544 0.4998752672391862 0  0.1258456329981598 0.4997458438071241 0  0.1888086388668065 0.4996068930872265 0  0.2518215159786607 0.4994533089320142 0  0.3149036477752233 0.4992796095788241 0  0.3780768649769383 0.4990798853160685 0  0.4413661734100262 0.4988478551086582 0  0.5048005836685154 0.4985771367489307 0  0.5684141210333407 0.4982619253682734 0  0.6322471836509513 0.4978984379014993 0  0.6963485891472228 0.4974877663809107 0  0.7607789325418539 0.4970412511349054 0  0.8256162411020646 0.4965901376363264 0  0.890965175060332 0.4962018065707756 0  0.9569708902458925 0.4960040763723913 0  1.02383877957703 0.4962146000390634 0  0 0.5625 0  0.06291265895351481 0.5623736141612303 0  0.125841719702091 0.5622419893532679 0  0.18880425380073 0.5620996531406511 0  0.2518187279929293 0.5619406538691269 0  0.3149057760904032 0.5617583083907977 0  0.378089066025544 0.5615449462749983 0  0.4413963136425571 0.5612916751257503 0  0.5048605334407019 0.5609882317989184 0  0.5685217109017222 0.5606230680812724 0  0.6324292980891197 0.5601839937138685 0  0.6966463958087896 0.5596600615525738 0  0.7612573669693667 0.5590461180482967 0  0.8263820478432947 0.5583528542209106 0  0.8922013923436477 0.5576273958431143 0  0.9590000812422391 0.5569908460544366 0  1.027230170897588 0.556693106086638 0  0 0.625 0  0.06289403228682326 0.6248771714464627 0  0.1258043552698314 0.6247487888945392 0  0.1887479718375706 0.6246089836973728 0  0.2517434608093624 0.6244512073766688 0  0.314811874361572 0.6242678283247858 0  0.3779777806421925 0.624049650467733 0  0.4412705269385104 0.6237853295462273 0  0.5047258489952774 0.623460675214029 0  0.5683880804292892 0.6230578673772579 0  0.632313541095984 0.6225547276977806 0  0.6965764733370107 0.6219244892455983 0  0.7612806849974209 0.6211373130855123 0  0.8265836612059468 0.6201669222557997 0  0.8927457018458421 0.6190108743980596 0  0.9602219995865908 0.6177417284532702 0  1.029813876446709 0.6166015501012975 0  0 0.6875 0  0.06285912878311596 0.6873862413919525 0  0.1257336658002063 0.6872669381178929 0  0.1886397374386599 0.6871361730393349 0  0.2515951393705831 0.686987199385597 0  0.3146203107146346 0.6868119134744601 0  0.3777394945197198 0.6866001739434722 0  0.4409821715693877 0.6863388867036415 0  0.5043848947341926 0.6860107468470104 0  0.5679937586163182 0.6855924940320619 0  0.6318680531202955 0.6850525093978715 0  0.6960865743131689 0.6843476200404871 0  0.7607606918996507 0.6834193370732786 0  0.8260651989996769 0.6821914998914093 0  0.892313755417722 0.6805787760074437 0  0.9601294932169837 0.6785442096639503 0  1.030770619349101 0.6762932994245229 0  0 0.75 0  0.0628088428868421 0.7499008042008108 0  0.1256313885799464 0.7497964635828114 0  0.188482018879668 0.7496814424263906 0  0.25137675622611 0.7495493169107158 0  0.3143342446024933 0.7493921846556257 0  0.3773769456696144 0.7491998658156112 0  0.4405326405899009 0.748958768646 0  0.5038363406729686 0.7486502261446117 0  0.5673327327370672 0.7482479998760664 0  0.6310793857579748 0.7477144586550007 0  0.6951514452851731 0.7469946067065729 0  0.7596507341268682 0.7460065455762316 0  0.824730786581569 0.7446261124035716 0  0.8906800504852473 0.7426642230904816 0  0.9581978517629581 0.7398567453814048 0  1.028996820035041 0.7361346106782676 0  0 0.8125 0  0.0627449029136853 0.8124204541590372 0  0.1255009895113257 0.8123365771491616 0  0.1882800311237362 0.8122436785621726 0  0.2510952606926565 0.8121362408816293 0  0.313962270487509 0.8120073524277546 0  0.3769001372337535 0.8118479166433181 0  0.4399328703126623 0.8116454917155184 0  0.5030912718308435 0.8113825288496763 0  0.5664152298889314 0.8110336300149054 0  0.6299562456213915 0.8105611842718002 0  0.6937794852802448 0.809908241365846 0  0.7579640040134069 0.808986393594317 0  0.8226017620499243 0.8076537046933397 0  0.8878192100661857 0.8056703092644619 0  0.9540015809102005 0.8026010354812854 0  1.02353323349084 0.7976146766102652 0  0 0.875 0  0.06266985263595116 0.8749443778132905 0  0.1253476411355336 0.8748856202185085 0  0.1880417416054788 0.8748203159727461 0  0.2507616470145899 0.8747444131701322 0  0.3135186740132608 0.8746527708228753 0  0.3763268786821397 0.8745385210481567 0  0.4392042823105907 0.8743921131317904 0  0.5021745135036608 0.8741998312636666 0  0.5652689028767891 0.8739414429619146 0  0.6285287252066799 0.8735864100153967 0  0.6920060782840776 0.8730877119707536 0  0.7557581249577797 0.8723715763769937 0  0.8198187317704578 0.8713191223909296 0  0.8841054033973542 0.8697256228663028 0  0.948181597834503 0.8671727048903033 0  1.010952960936995 0.8625040374871361 0  0 0.9375 0  0.06258695260997264 0.9374713857518188 0  0.1251780320471486 0.9374411251648691 0  0.187777604831489 0.9374074220955638 0  0.2503906524744501 0.9373681306737612 0  0.3130231724563503 0.9373205073929766 0  0.3756827161672496 0.9372608540426519 0  0.4383791434513222 0.9371839748812162 0  0
[...]
<PointData  Vectors="f_54"> 
<DataArray  type="Float64"  Name="f_54"  NumberOfComponents="3" format="ascii">0.0000000000000000e+00 0.0000000000000000e+00 0.0000000000000000e+00  0.0000000000000000e+00 0.0000000000000000e+00 0.0000000000000000e+00  0.0000000000000000e+00 0.0000000000000000e+00 0.0000000000000000e+00  0.0000000000000000e+00 0.0000000000000000e+00 0.0000000000000000e+00  0.0000000000000000e+00 0.0000000000000000e+00 0.0000000000000000e+00  0.0000000000000000e+00 0.0000000000000000e+00 0.0000000000000000e+00  0.0000000000000000e+00 0.0000000000000000e+00 0.0000000000000000e+00  0.0000000000000000e+00 0.0000000000000000e+00 0.0000000000000000e+00  0.0000000000000000e+00 0.0000000000000000e+00 0.0000000000000000e+00  0.0000000000000000e+00 0.0000000000000000e+00 0.0000000000000000e+00  0.0000000000000000e+00 0.0000000000000000e+00 0.0000000000000000e+00  0.0000000000000000e+00 0.0000000000000000e+00 0.0000000000000000e+00  0.0000000000000000e+00 0.0000000000000000e+00 0.0000000000000000e+00  0.0000000000000000e+00 0.0000000000000000e+00 0.0000000000000000e+00  0.0000000000000000e+00 0.0000000000000000e+00 0.0000000000000000e+00  0.0000000000000000e+00 0.0000000000000000e+00 0.0000000000000000e+00  0.0000000000000000e+00 0.0000000000000000e+00 0.0000000000000000e+00  0.0000000000000000e+00 0.0000000000000000e+00 0.0000000000000000e+00  3.9015998568347895e-06 -7.8075069685607871e-08 0.0000000000000000e+00  7.9358389193702522e-06 -1.6131175367224165e-07 0.0000000000000000e+00  1.2240841152102022e-05 -2.5530924890511532e-07 0.0000000000000000e+00  1.6960593395326223e-05 -3.6644886903749257e-07 0.0000000000000000e+00  2.2247758385809405e-05 -5.0228981007098097e-07 0.0000000000000000e+00  2.8266251599417831e-05 -6.7193646231459883e-07 0.0000000000000000e+00  3.5193776282420432e-05 -8.8631651752167486e-07 0.0000000000000000e+00  4.3225177623135920e-05 -1.1582676947853504e-06 0.0000000000000000e+00  5.2579374455852846e-05 -1.5023170605551200e-06 0.0000000000000000e+00  6.3517982484996688e-05 -1.9341862254637971e-06 0.0000000000000000e+00  7.6399243845249343e-05 -2.4708476124933836e-06 0.0000000000000000e+00  9.1837904729850602e-05 -3.1350916427854124e-06 0.0000000000000000e+00  1.1119317138698191e-04 -3.9803385684098648e-06 0.0000000000000000e+00  1.3812852445498731e-04 -5.1965754756190553e-06 0.0000000000000000e+00  1.8392289209836281e-04 -7.5411711622367560e-06 0.0000000000000000e+00  2.8716621237914411e-04 -1.4151053324188107e-05 0.0000000000000000e+00  0.0000000000000000e+00 0.0000000000000000e+00 0.0000000000000000e+00  7.6776625125824865e-06 -1.5113803282773436e-07 0.0000000000000000e+00  1.5619102514805283e-05 -3.1226256086046735e-07 0.0000000000000000e+00  2.4099027729065186e-05 -4.9423068440571543e-07 0.0000000000000000e+00  3.3404394000841197e-05 -7.0948638787256560e-07 0.0000000000000000e+00  4.3840235955251350e-05 -9.7289181275376655e-07 0.0000000000000000e+00  5.5734830040764073e-05 -1.3025386246329661e-06 0.0000000000000000e+00  6.9444144706199830e-05 -1.7204238778852549e-06 0.0000000000000000e+00  8.5356098378035834e-05 -2.2527537160352303e-06 0.0000000000000000e+00  1.0389677205072215e-04 -2.9294684760266122e-06 0.0000000000000000e+00  1.2554489274948626e-04 -3.7823885202524330e-06 0.0000000000000000e+00  1.5087075444081998e-04 -4.8412207531274790e-06 0.0000000000000000e+00  1.8063660266206711e-04 -6.1264281113293352e-06 0.0000000000000000e+00  2.1602889779117579e-04 -7.6357188090793233e-06 0.0000000000000000e+00  2.5908545357624253e-04 -9.3032672198255032e-06 0.0000000000000000e+00  3.1291527180830176e-04 -1.0800810825115464e-05 0.0000000000000000e+00  3.7787690569166497e-04 -1.0428260920261482e-05 0.0000000000000000e+00  0.0000000000000000e+00 0.0000000000000000e+00 0.0000000000000000e+00  1.1194799291809803e-05 -2.1433227392838332e-07 0.0000000000000000e+00  2.2779948302391433e-05 -4.4275011824930146e-07 0.0000000000000000e+00  3.5161966762902118e-05 -7.0061505619685649e-07 0.0000000000000000e+00  4.8766815135381814e-05 -1.0056831188846276e-06 0.0000000000000000e+00  6.4049139159254835e-05 -1.3794264709930667e-06 0.0000000000000000e+00  8.1500289919776543e-05 -1.8484237625926727e-06 0.0000000000000000e+00  1.0165442234721933e-04 -2.4456932858559469e-06 0.0000000000000000e+00  1.2509176859169926e-04 -3.2116409234659276e-06 0.0000000000000000e+00  1.5243798355409226e-04 -4.1939322358758117e-06 0.0000000000000000e+00  1.8435805517552975e-04 -5.4449670291851124e-06 0.0000000000000000e+00  2.2154124156497385e-04 -7.0145443829330616e-06 0.0000000000000000e+00  2.6466357638196521e-04 -8.9333754671658058e-06 0.0000000000000000e+00  3.1427356684966687e-04 -1.1179645094920261e-05 0.0000000000000000e+00  3.7040116837090264e-04 -1.3616231652930870e-05 0.0000000000000000e+00  4.3125228247332568e-04 -1.5897520196116458e-05 0.0000000000000000e+00  4.8941180641551968e-04 -1.7520529311483571e-05 0.0000000000000000e+00  0.0000000000000000e+00 0.0000000000000000e+00 0.0000000000000000e+00  1.4324854047454794e-05 -2.6355131371258791e-07 0.0000000000000000e+00  2.9158586455526568e-05 -5.4417935720393736e-07 0.0000000000000000e+00  4.5031147956336916e-05 -8.6057506578555068e-07 0.0000000000000000e+00  6.2500215530219338e-05 -1.2345696059764066e-06 0.0000000000000000e+00  8.2164574509980260e-05 -1.6929823689407475e-06 0.0000000000000000e+00  1.0467594879341389e-04 -2.2697406940907999e-06 0.0000000000000000e+00  1.3074793468903934e-04 -3.0082308488959355e-06 0.0000000000000000e+00  1.6115964286965870e-04 -3.9636183969132344e-06 0.0000000000000000e+00  1.9674969137968326e-04 -5.2044146814924496e-06 0.0000000000000000e+00  2.3839220035226031e-04 -6.8116499131537621e-06 0.0000000000000000e+00  2.8693759469959699e-04 -8.8722694001086435e-06 0.0000000000000000e+00  3.4308046416220677e-04 -1.1460200506927487e-05 0.0000000000000000e+00  4.0706956435131788e-04 -1.4593164051479894e-05 0.0000000000000000e+00  4.7807753792394289e-04 -1.8145272404387350e-05 0.0000000000000000e+00  5.5290151278201873e-04 -2.1685336198695687e-05 0.0000000000000000e+00  6.2368347379881635e-04 -2.4186084085222423e-05 0.0000000000000000e+00  0.0000000000000000e+00 0.0000000000000000e+00 0.0000000000000000e+00  1.6948635419959506e-05 -2.9582254495843136e-07 0.0000000000000000e+00  3.4512620051751497e-05 -6.1026361445505579e-07 0.0000000000000000e+00  5.3332807024920900e-05 -9.6376898020193404e-07 0.0000000000000000e+00  7.4087274847961729e-05 -1.3804862570488297e-06 0.0000000000000000e+00  9.7509848054023372e-05 -1.8906006942614654e-06 0.0000000000000000e+00  1.2440738460635820e-04 -2.5332562322348378e-06 0.0000000000000000e+00  1.5567429209360344e-04 -3.3602332280160816e-06 0.0000000000000000e+00  1.9230123833797257e-04 -4.4404313163317112e-06 0.0000000000000000e+00  2.3537226734794673e-04 -5.8648532285135490e-06 0.0000000000000000e+00  2.8603938187418535e-04 -7.7509296238995288e-06 0.0000000000000000e+00  3.4545397055783209e-04 -1.0243146889217542e-05 0.0000000000000000e+00  4.1461668380814057e-04 -1.3503136850294103e-05 0.0000000000000000e+00  4.9407757446156891e-04 -1.7675302295758933e-05 0.0000000000000000e+00  5.8338033794684107e-04 -2.2802174057372244e-05 0.0000000000000000e+00  6.8013955369295147e-04 -2.8646666465985023e-05 0.0000000000000000e+00  7.7880955203589995e-04 -3.4360907820293090e-05 0.0000000000000000e+00  0.0000000000000000e+00 0.0000000000000000e+00 0.0000000000000000e+00  1.8960098154004115e-05 -3.0964393873819409e-07 0.0000000000000000e+00  3.8625371902972797e-05 -6.3775550409875410e-07 0.0000000000000000e+00  5.9730281134953051e-05 -1.0046476082465637e-06 0.0000000000000000e+00  8.3056985194250954e-05 -1.4345426838044991e-06 0.0000000000000000e+00  1.0946001137328607e-04 -1.9582212560480651e-06 0.0000000000000000e+00  1.3989090731778104e-04 -2.6166132599545096e-06 0.0000000000000000e+00  1.7542184281772166e-04 -3.4658205340348644e-06 0.0000000000000000e+00  2.1726573748137598e-04 -4.5841754069034623e-06 0.0000000000000000e+00  2.6678799900119437e-04 -6.0819770917313134e-06 0.0000000000000000e+00  3.2550060460981940e-04 -8.1142775445935959e-06 0.0000000000000000e+00  3.9502201779656281e-04 -1.0895977288610436e-05 0.0000000000000000e+00  4.7697553370954724e-04 -1.4715405201228415e-05 0.0000000000000000e+00  5.7278580709721255e-04 -1.9935353334495690e-05 0.0000000000000000e+00  6.8332918137249178e-04 -2.6955807701164610e-05 0.0000000000000000e+00  8.0843019703838730e-04 -3.6086336089458591e-05 0.0000000000000000e+00  9.4633308336277843e-04 -4.7236050059660064e-05 0.0000000000000000e+00  0.0000000000000000e+00 0.0000000000000000e+00 0.0000000000000000e+00  2.0270974227110674e-05 -3.0521668085968196e-07 0.0000000000000000e+00  4.1315279013444700e-05 -6.2698691593309548e-07 0.0000000000000000e+00  6.3938411124434433e-05 -9.8347020841886575e-07 0.0000000000000000e+00  8.9004298746881742e-05 -1.3964136374161167e-06 0.0000000000000000e+00  1.1746673565232052e-04 -1.8937642930660251e-06 0.0000000000000000e+00  1.5040289280367371e-04 -2.5134931648863284e-06 0.0000000000000000e+00  1.8904906647631677e-04 -3.3094479416410525e-06 0.0000000000000000e+00  2.3483803266975811e-04 -4.3605091470962977e-06 0.0000000000000000e+00  2.8943594716940253e-04 -5.7850067839854053e-06 0.0000000000000000e+00  3.5477432639107869e-04 -7.7632640243998586e-06 0.0000000000000000e+00  4.3306907895635356e-04 -1.0572057596392031e-05 0.0000000000000000e+00  5.2681457767044231e-04 -1.4634894952030761e-05 0.0000000000000000e+00  6.3874027081524995e-04 -2.0589058683342598e-05 0.0000000000000000e+00  7.7173241624631727e-04 -2.9359573592625875e-05 0.0000000000000000e+00  9.2878243362884254e-04 -4.2204234062540980e-05 0.0000000000000000e+00  1.1131750458916543e-03 -6.0647699732352854e-05 0.0000000000000000e+00  0.0000000000000000e+00 0.0000000000000000e+00 0.0000000000000000e+00  2.0815691186550916e-05 -2.8450122271701103e-07 0.0000000000000000e+00  4.2446078485604537e-05 -5.8205334859042905e-07 0.0000000000000000e+00  6.5739716756064320e-05 -9.0679026073742484e-07 0.0000000000000000e+00  9.1613405697761225e-05 -1.2754713894361688e-06 0.0000000000000000e+00  1.2109022068388209e-04 -1.7095580465907263e-06 0.0000000000000000e+00  1.5534229624922572e-04 -2.2385142670717475e-06 0.0000000000000000e+00  1.9574020310231006e-04 -2.9053332447954616e-06 0.0000000000000000e+00  2.4391091896360680e-04 -3.7760627768670545e-06 0.0000000000000000e+00  3.0180655073280019e-04 -4.9564899172492721e-06 0.0000000000000000e+00  3.7178618378908061e-04 -6.6215782588183998e-06 0.0000000000000000e+00  4.5671391195628233e-04 -9.0673550596499584e-06 0.0000000000000000e+00  5.6007876124473932e-04 -1.2801370262403894e-05 0.0000000000000000e+00  6.8615180834227232e-04 -1.8696544326038445e-05 0.0000000000000000e+00  8.4022693353591710e-04 -2.8241878343869686e-05 0.0000000000000000e+00  1.0290837064386932e-03 -4.3928180828824804e-05 0.0000000000000000e+00  1.2620597818290230e-03 -6.9824583491647578e-05 0.0000000000000000e+00  0.0000000000000000e+00 0.0000000000000000e+00 0.0000000000000000e+00  2.0556212666062001e-05 -2.5102845571743341e-07 0.0000000000000000e+00  4.1937045781661097e-05 -5.1047526576199791e-07 0.0000000000000000e+00  6.5001208703594279e-05 -7.8707404443134372e-07 0.0000000000000000e+00  9.0683079520834862e-05 -1.0906166343406626e-06 0.0000000000000000e+00  1.2003610986099622e-04 -1.4329491808617658e-06 0.0000000000000000e+00  1.5428374296314198e-04 -1.8298198643811821e-06 0.0000000000000000e+00  1.9488152607569480e-04 -2.3044495312371617e-06 0.0000000000000000e+00  2.4359538209936808e-04 -2.8945652271205421e-06 0.0000000000000000e+00  3.0260305155289366e-04 -3.6663947115224200e-06 0.0000000000000000e+00  3.7462905379043301e-04 -4.7426838611756316e-06 0.0000000000000000e+00  4.6312921631342090e-04 -6.3590027048794532e-06 0.0000000000000000e+00  5.7255124521992989e-04 -8.9769478302978554e-06 0.0000000000000000e+00  7.0871888168448226e-04 -1.3510307622676838e-05 0.0000000000000000e+00  8.7943635866795963e-04 -2.1768876486000216e-05 0.0000000000000000e+00  1.0955451970472620e-03 -3.7302175719679858e-05 0.0000000000000000e+00  1.3730785425711783e-03 -6.6964690140836045e-05 0.0000000000000000e+00  0.0000000000000000e+00 0.0000000000000000e+00 0.0000000000000000e+00  1.9486254471754171e-05 -2.0943172427240540e-07 0.0000000000000000e+00  3.9772118814756649e-05 -4.2223571568086580e-07 0.0000000000000000e+00  6.1689882264634463e-05 -6.4120595261584355e-07 0.0000000000000000e+00  8.6151047212288355e-05 -8.6825439800818253e-07 0.0000000000000000e+00  1.1419277924668136e-04 -1.1039188378325542e-06 0.0000000000000000e+00  1.4703412762217657e-04 -1.3469592531778798e-06 0.0000000000000000e+00  1.8614729566802287e-04 -1.5943903901173583e-06 0.0000000000000000e+00  2.3335160812349614e-04 -1.8428763409280492e-06 0.0000000000000000e+00  2.9094177840210435e-04 -2.0937764710354319e-06 0.0000000000000000e+00  3.6186881099655756e-04 -2.3673671044311894e-06 0.0000000000000000e+00  4.5000367046845737e-04 -2.7395266112900413e-06 0.0000000000000000e+00  5.6053523707607516e-04 -3.4329934242622006e-06 0.0000000000000000e+00  7.0059418733515468e-04 -5.0408241768526112e-06 0.0000000000000000e+00  8.8027261400271464e-04 -9.0655503553530913e-06 0.0000000000000000e+00  1.1143782290243293e-03 -1.9176153054285450e-05 0.0000000000000000e+00  1.4257428515718484e-03 -4.3966162084470193e-05 0.0000000000000000e+00  0.0000000000000000e+00 0.0000000000000000e+00 0.0000000000000000e+00  1.7634230753345289e-05 -1.6472977168034296e-07 0.0000000000000000e+00  3.6006492404752512e-05 -3.2823601925747556e-07 0.0000000000000000e+00  5.5884430210164695e-05 -4.8788349081564842e-07 0.0000000000000000e+00  7.8113382445152440e-05 -6.3825657874437237e-07 0.0000000000000000e+00  1.0366264121635128e-04 -7.6910259571375820e-07 0.0000000000000000e+00  1.3368269107834200e-04 -8.6238982648395856e-07 0.0000000000000000e+00  1.6957965922502813e-04 -8.8801703592024822e-07 0.0000000000000000e+00  2.1311634380294682e-04 -7.9761826930257265e-07 0.0000000000000000e+00  2.6655460903338645e-04 -5.1598076139192839e-07 0.0000000000000000e+00  3.3286362299348880e-04 6.9623831263414393e-08 0.0000000000000000e+00  4.1603656334381864e-04 1.1185746542972113e-06 0.0000000000000000e+00  5.2159440454146902e-04 2.8288144203914043e-06 0.0000000000000000e+00  6.5743051751139428e-04 5.3537838599792034e-06 0.0000000000000000e+00  8.3530840114201478e-04 8.4440485132034938e-06 0.0000000000000000e+00  1.0736242585097757e-03 1.0185258810988540e-05 0.0000000000000000e+00  1.4025172737707314e-03 3.5882129647914589e-06 0.0000000000000000e+00  0.0000000000000000e+00 0.0000000000000000e+00 0.0000000000000000e+00  1.5064312101712359e-05 -1.2147145877684024e-07 0.0000000000000000e+00  3.0769298135863609e-05 -2.3840167319246537e-07 0.0000000000000000e+00  4.7780701269127146e-05 -3.4427189627193161e-07 0.0000000000000000e+00  6.6834786759920644e-05 -4.2842218549588597e-07 0.0000000000000000e+00  8.8780708735707858e-05 -4.7280162820396794e-07 0.0000000000000000e+00  1.1463365809491106e-04 -4.4698119332775689e-07 0.0000000000000000e+00  1.4564503572116408e-04 -3.0017449437077958e-07 0.0000000000000000e+00  1.8339918547285666e-04 5.1853460192149433e-08 0.0000000000000000e+00  2.2995203547650659e-04 7.4869972203187615e-07 0.0000000000000000e+00  2.8803778536889464e-04 2.0227301033593802e-06 0.0000000000000000e+00  3.6139136934195152e-04 4.2641239241117596e-06 0.0000000000000000e+00  4.5528204481885658e-04 8.1348551982150533e-06 0.0000000000000000e+00  5.7746985113313418e-04 1.4760530512844511e-05 0.0000000000000000e+00  7.4010506957098668e-04 2.5975057170806468e-05 0.0000000000000000e+00  9.6392097495471326e-04 4.4013605665127623e-05 0.0000000000000000e+00  1.2880135352077654e-03 6.5889849348254860e-05 0.0000000000000000e+00  0.0000000000000000e+00 0.0000000000000000e+00 0.0000000000000000e+00  1.1875143003161373e-05 -8.2922346304707719e-08 0.0000000000000000e+00  2.4261327127786844e-05 -1.5984361257568346e-07 0.0000000000000000e+00  3.7688983719135422e-05 -2.2265014118974166e-07 0.0000000000000000e+00  5.2746440990907480e-05 -2.5867527494705726e-07 0.0000000000000000e+00  7.0114810377340048e-05 -2.4702891818131423e-07 0.0000000000000000e+00  9.0612020787015100e-05 -1.5280391863986684e-07 0.0000000000000000e+00  1.1525125201306834e-04 8.2496815383564264e-08 0.0000000000000000e+00  1.4532171553662909e-04 5.5726656990040725e-07 0.0000000000000000e+00  1.8250440136765415e-04 1.4383583319628446e-06 0.0000000000000000e+00  2.2904396699898686e-04 3.0128005857914601e-06 0.0000000000000000e+00  2.8801540821611480e-04 5.7857019863543771e-06 0.0000000000000000e+00  3.6376621629043821e-04 1.0677657305746317e-05 0.0000000000000000e+00  4.6273678691939574e-04 1.9458725021774004e-05 0.0000000000000000e+00  5.9526349091709220e-04 3.5808462514619126e-05 0.0000000000000000e+00  7.8023259806060815e-04 6.8175909847143607e-05 0.0000000000000000e+00  1.0546104279848046e-03 1.3734805610098567e-04 0.0000000000000000e+00  0.0000000000000000e+00 0.0000000000000000e+00 0.0000000000000000e+00  8.1960456480479458e-06 -5.0498534647278370e-08 0.0000000000000000e+00  1.6747360638416680e-05 -9.5553942189126997e-08 0.0000000000000000e+00  2.6022241161208159e-05 -1.2796390128771497e-07 0.0000000000000000e+00  3.6429791853409848e-05 -1.3667695254603533e-07 0.0000000000000000e+00  4.8444462286980288e-05 -1.0365275963210314e-07 0.0000000000000000e+00  6.2636995234565334e-05 1.1462209249305905e-09 0.0000000000000000e+00  7.9715319934892874e-05 2.2810379082987375e-07 0.0000000000000000e+00  1.0058049294736270e-04 6.6224692809970051e-07 0.0000000000000000e+00  1.2640511685631624e-04 1.4482492154240104e-06 0.0000000000000000e+00  1.5874484988992018e-04 2.8350864081238735e-06 0.0000000000000000e+00  1.9969752285051292e-04 5.2579217221083490e-06 0.0000000000000000e+00  2.5213086398971315e-04 9.4949951616889464e-06 0.0000000000000000e+00  3.2003972174930023e-04 1.6997544442805489e-05 0.0000000000000000e+00  4.0944845001943396e-04 3.0739115552842046e-05 0.0000000000000000e+00  5.3305202414103000e-04 5.8264594788524277e-05 0.0000000000000000e+00  7.4065201124304269e-04 1.2669472980551314e-04 0.0000000000000000e+00  0.0000000000000000e+00 0.0000000000000000e+00 0.0000000000000000e+00  4.1808739105687450e-06 -2.3613193602075720e-08 0.0000000000000000e+00  8.5434238277505690e-06 -4.4031888697419146e-08 0.0000000000000000e+00  1.3275762921148876e-05 -5.7069371351835419e-08 0.0000000000000000e+00  1.8586872182237621e-05 -5.6352776132303962e-08 0.0000000000000000e+00  2.4719071655993749e-05 -3.1535634434071313e-08 0.0000000000000000e+00  3.1963654475824412e-05 3.4554938939264347e-08 0.0000000000000000e+00  4.0681310719310645e-05 1.7065711224523774e-07 0.0000000000000000e+00  5.1329478622308591e-05 4.2509384036297300e-07 0.0000000000000000e+00  6.4499072941234792e-05 8.7939436425872557e-07 0.0000000000000000e+00  8.0961716684167605e-05 1.6710151282410253e-06 0.0000000000000000e+00  1.0171943280972829e-04 3.0285761557221546e-06 0.0000000000000000e+00  1.2800491683984076e-04 5.3129433225777822e-06 0.0000000000000000e+00  1.6098408208153279e-04 8.9934818550870948e-06 0.0000000000000000e+00  2.0006124857409240e-04 1.4165893393483210e-05 0.0000000000000000e+00  2.3560401674786993e-04 1.7901150361737523e-05 0.0000000000000000e+00  2.3002649508375333e-04 6.2237028156063358e-06 0.0000000000000000e+00  0.0000000000000000e+00 0.0000000000000000e+00 0.0000000000000000e+00  0.0000000000000000e+00 0.0000000000000000e+00 0.0000000000000000e+00  0.0000000000000000e+00 0.0000000000000000e+00 0.0000000000000000e+00  0.0000000000000000e+00 0.0000000000000000e+00 0.0000000000000000e+00  0.0000000000000000e+00 0.0000000000000000e+00 0.0000000000000000e+00  0.0000000000000000e+00 0.0000000000000000e+00 0.0000000000000000e+00  0.0000000000000000e+00 0.0000000000000000e+00 0.0000000000000000e+00  0.0000000000000000e+00 0.0000000000000000e+00 0.0000000000000000e+00  0.0000000000000000e+00 0.0000000000000000e+00 0.0000000000000000e+00  0.0000000000000000e+00 0.00000