<?xml version="1.0"?>
<VTKFile type="UnstructuredGrid"  version="0.1"  >
<UnstructuredGrid>
<Piece  NumberOfPoints="289" NumberOfCells="512">
<Points>
<DataArray  type="Float64"  NumberOfComponents="3"  format="ascii">0 0 0  0.0625 0 0  0.125 0 0  0.1875 0 0  0.25 0 0  0.3125 0 0  0.375 0 0  0.4375 0 0  0.5 0 0  0.5625 0 0  0.625 0 0  0.6875 0 0  0.75 0 0  0.8125 0 0  0.875 0 0  0.9375 0 0  1 0 0  0 0.0625 0  0.0624422242023269 0.06248638851968606 0  0.1248832131475913 0.06247253419401861 0  0.1873217781725286 0.06245821547572519 0  0.2497568974087774 0.06244326247204202 0  0.3121878380700484 0.06242759069791545 0  0.3746143308069044 0.06241124355274497 0  0.4370368206276137 0.06239444419395417 0  0.4994568274614037 0.0623776541394759 0  0.5618774663921771 0.06236162996761564 0  0.6243042153758828 0.06234746020326754 0  0.6867461095875494 0.06233655316877695 0  0.749217769298837 0.0623305423407208 0  0.8117432219242374 0.06233111606666177 0  0.8743636424998076 0.06234001099592265 0  0.9371521351996963 0.06236050747259823 0  1.000226161495521 0.06240828739325088 0  0 0.125 0  0.0623857438037316 0.1249730162355169 0  0.12476895174171 0.1249455218390302 0  0.1871471719221519 0.124917045677886 0  0.2495182608654303 0.1248872135664978 0  0.311880614492376 0.1248558135162403 0  0.3742335021605531 0.1248228802215422 0  0.4365775520077361 0.1247888018907064 0  0.4989154507884734 0.124754446833468 0  0.5612529472612716 0.1247212960288476 0  0.62360029780962 0.1246915481862289 0  0.6859743942660834 0.1246681329194312 0  0.7484020175824116 0.1246545268206449 0  0.8109250243648508 0.1246542306305242 0  0.8736087468386402 0.124669773099582 0  0.9365552674457218 0.1247011359486172 0  0.9999282688365451 0.1247419412637951 0  0 0.1875 0  0.0623318998066346 0.1874601539849873 0  0.1246598328909395 0.1874194836625749 0  0.1869799325158225 0.1873772159896168 0  0.249288724958898 0.1873327066533916 0  0.3115834360567025 0.1872855312703607 0  0.3738624458317367 0.1872356090574603 0  0.4361259596360325 0.1871833677868724 0  0.4983769807583514 0.1871299532112108 0  0.5606226903731361 0.1870774728325269 0  0.6228763658554672 0.1870292363322457 0  0.6851599927430165 0.1869899022948119 0  0.7475077196685287 0.1869653432302758 0  0.8099701550865003 0.1869618517040719 0  0.8726188844291252 0.1869838826631772 0  0.935548957749452 0.1870283468368132 0  0.9988748233942278 0.1870700229694056 0  0 0.25 0  0.06228216147996895 0.2499481181274371 0  0.1245587581986748 0.2498950383625873 0  0.1868243094295101 0.2498396157626889 0  0.2490737270446032 0.2497808441946126 0  0.311302647266445 0.2497179630025447 0  0.3735079463544379 0.2496506114553792 0  0.4356885262452264 0.2495790494536101 0  0.4978464736895907 0.2495044614440421 0  0.5599887096145943 0.2494293516880429 0  0.6221292399574763 0.2493580142784106 0  0.6842920630530855 0.2492970049788506 0  0.7465146126013434 0.2492554276714964 0  0.8088511828536069 0.2492446363298819 0  0.871374887185106 0.2492766080504339 0  0.9341752539449102 0.2493598725173161 0  0.9973471525935036 0.2494924849139963 0  0 0.3125 0  0.06223815468699755 0.3124372841665453 0  0.1244689837967587 0.3123729337696128 0  0.1866851899740688 0.3123053552120576 0  0.2488797615309502 0.3122330734925259 0  0.3110462649227733 0.3121548372885077 0  0.3731793447602041 0.3120697862612272 0  0.4352755348729521 0.3119777117022291 0  0.4973345086491532 0.3118794489281176 0  0.5593609147132886 0.3117774443453193 0  0.621366933109425 0.3116765335288831 0  0.683375604069907 0.3115849313153907 0  0.7454247521343259 0.3115153376334969 0  0.8075708587478837 0.3114858519500281 0  0.8698915020749231 0.3115200139526871 0  0.9324843157388513 0.3116447847059906 0  0.9954610268480453 0.3118849235473969 0  0 0.375 0  0.06220164951322712 0.3749280894998969 0  0.1243941056127333 0.3748540562087506 0  0.1865681033878893 0.3747757899557321 0  0.2487144379989391 0.3746912415345412 0  0.3108241426035039 0.3745985020081075 0  0.3728888795672069 0.3744959525226175 0  0.4349016658727078 0.374382528063473 0  0.4968580963161842 0.3742581584231486 0  0.5587582733687074 0.3741244760675103 0  0.620609679982269 0.3739859097415931 0  0.6824311965774977 0.3738512997907952 0  0.74425828845981 0.3737361367698437 0  0.8061489806820322 0.3736653533035928 0  0.8681895814503994 0.3736761434460154 0  0.9304985379936078 0.3738193792927048 0  0.9932272848943324 0.3741568420143235 0  0 0.4375 0  0.06217449928116513 0.437421021517323 0  0.1243379424459315 0.4373394096153572 0  0.1864790595940919 0.4372524982234479 0  0.2485862977820822 0.4371575844811627 0  0.3106478032302417 0.4370519526843314 0  0.372651594949066 0.4369329642117748 0  0.4345860623616155 0.4367982632962222 0  0.4964409903957861 0.4366461811969984 0  0.5582094136094441 0.4364764740823485 0  0.6198907193403503 0.436291609962595 0  0.6814955256301616 0.4360989281121053 0  0.7430528668163032 0.4359141034945052 0  0.8046199643934291 0.4357663522814657 0  0.8662941401110836 0.4357054368399532 0  0.9282252700665451 0.435809269161808 0  0.9906265627456512 0.4361883454466916 0  0 0.5 0  0.06215852771632743 0.4999165882498324 0  0.1243043083771287 0.4998300574957725 0  0.1864242050018405 0.4997371967663516 0  0.2485043567441338 0.4996346254987379 0  0.3105298872897703 0.4995187321703274 0  0.3724847425659035 0.4993856558046732 0  0.4343517840270427 0.4992313541239624 0  0.4961133652432648 0.499051841770606 0  0.5577527871229796 0.4988437552326628 0  0.6192572870851917 0.4986055330767389 0  0.680623580406073 0.4983397274420136 0  0.7418673779337712 0.4980573190704213 0  0.8030385027686767 0.4977853529183928 0  0.8642426106384533 0.4975794110755629 0  0.925668223507269 0.4975413267972915 0  0.9876143351981026 0.4978381061464415 0  0 0.5625 0  0.06215536722225815 0.5624152710364397 0  0.1242966780760802 0.5623270252722491 0  0.1864092943453659 0.5622315877370913 0  0.2484773594783991 0.5621249613463802 0  0.3104831736134511 0.562002658119912 0  0.3724065853195322 0.5618595300694333 0  0.4342244854764091 0.5616896199912222 0  0.4959106061908398 0.5614860854405912 0  0.557436055190332 0.561241320493456 0  0.6187714378497307 0.5609475525591749 0  0.6798921517684589 0.5605985129843525 0  0.7407895777699803 0.5601934324226895 0  0.8014922820982169 0.5597458267170407 0  0.8621019561071417 0.5593013646281157 0  0.9228456865035417 0.5589702513411566 0  0.9841347013878762 0.5589748324493231 0  0 0.625 0  0.06216625929423786 0.6249174622882613 0  0.1243177650309703 0.6248311682725191 0  0.1864390023199133 0.6247371415461587 0  0.2485127608896913 0.6246309368376012 0  0.3105191578793532 0.6245073593308179 0  0.3724345154003017 0.6243601263410846 0  0.4342300891889654 0.6241814516004575 0  0.495870739680997 0.6239615405341031 0  0.5573138663334738 0.6236880163641387 0  0.6185094445316276 0.6233453947615319 0  0.6794031071977984 0.6229150052330239 0  0.7399463914272275 0.6223765243278578 0  0.8001220785204899 0.6217142784469968 0  0.8599975948850248 0.620936164764274 0  0.9198207831045853 0.6201214513270719 0  0.9801564855918431 0.619517093818086 0  0 0.6875 0  0.06219183789186118 0.6874233958808307 0  0.1243690539569828 0.6873430206998182 0  0.1865161342833527 0.6872548389483418 0  0.2486155035858389 0.6871542369734982 0  0.310646242355346 0.6870356512136339 0  0.3725824701037475 0.6868920818261317 0  0.4343912552358139 0.6867144259735078 0  0.4960299259018455 0.6864905349710695 0  0.5574427711901662 0.6862038550184713 0  0.6185575268741915 0.6858314582891818 0  0.6792832003230562 0.6853412645684127 0  0.739513786934596 0.6846885548621232 0  0.7991495161523123 0.6838135359339843 0  0.8581618511325155 0.6826485244905385 0  0.9167484961239359 0.6811666192578839 0  0.9756080586686909 0.6795440514477235 0  0 0.75 0  0.0622319268433013 0.7499330818412856 0  0.124450352499451 0.7498626508273585 0  0.1866408397501797 0.7497849151467644 0  0.2487867356627723 0.749695463134869 0  0.3108677125251571 0.7495888476129597 0  0.3728578083975554 0.7494580181018955 0  0.4347226758454841 0.7492935017202024 0  0.4964156265569309 0.7490821707326739 0  0.5578719206298853 0.7488053154108169 0  0.6190007000138981 0.7484355054656811 0  0.67967441549492 0.7479312499375497 0  0.7397179126519282 0.7472275575728976 0  0.7989077816851204 0.7462191733354193 0  0.8570194831067564 0.744734203313264 0  0.9140337286331968 0.7425221938210642 0  0.9706758017510267 0.7395270403310924 0  0 0.8125 0  0.06228539033551274 0.8124462592302119 0  0.1245594479273065 0.8123895536260535 0  0.1868099763130268 0.8123266622024032 0  0.2490227011438682 0.8122537890548599 0  0.3111798431028202 0.8121661689073483 0  0.3732581120703695 0.8120575173508187 0  0.4352257249985051 0.8119192226352997 0  0.4970377935688549 0.811739109237808 0  0.5586289793341074 0.8114994733229189 0  0.6199015540289011 0.8111738098604235 0  0.6807058316463077 0.8107209697667715 0  0.7408087073804489 0.8100736393167317 0  0.7998477527865561 0.8091126574868825 0  0.8572892905747056 0.8076023908633645 0  0.9125346675780285 0.8050099871142835 0  0.9661259391186021 0.7999116208116085 0  0 0.875 0  0.06235007725325208 0.8749623800183562 0  0.1246919621742234 0.8749226103530288 0  0.187016796318396 0.8748783453670507 0  0.2493141018506649 0.8748267971175804 0  0.3115706366757393 0.874764428940868 0  0.373768735113549 0.8746865265551785 0  0.4358837457183984 0.8745865703659291 0  0.497879875799342 0.874455295274746 0  0.559703152281406 0.8742792706898993 0  0.6212689740334824 0.8740387607086535 0  0.6824390801553476 0.8737045073289895 0  0.7429768029598397 0.8732326972662316 0  0.8024555669239185 0.8725553316208556 0  0.8600632854935771 0.8715522277062256 0  0.9141831768547437 0.8699365848797693 0  0.9616192198711312 0.8667101558598147 0  0 0.9375 0  0.06242289152829122 0.9374806318582527 0  0.1248414825755529 0.9374601337706442 0  0.1872511100494576 0.9374372697382506 0  0.2496462241461548 0.937410563745162 0  0.3120197514287492 0.9373781331404769 0  0.3743621563818865 0.9373374563232489 0  0.4366599634382201 0.93
[...]
<PointData  Vectors="f_54"> 
<DataArray  type="Float64"  Name="f_54"  NumberOfComponents="3" format="ascii">0.0000000000000000e+00 0.0000000000000000e+00 0.0000000000000000e+00  0.0000000000000000e+00 0.0000000000000000e+00 0.0000000000000000e+00  0.0000000000000000e+00 0.0000000000000000e+00 0.0000000000000000e+00  0.0000000000000000e+00 0.0000000000000000e+00 0.0000000000000000e+00  0.0000000000000000e+00 0.0000000000000000e+00 0.0000000000000000e+00  0.0000000000000000e+00 0.0000000000000000e+00 0.0000000000000000e+00  0.0000000000000000e+00 0.0000000000000000e+00 0.0000000000000000e+00  0.0000000000000000e+00 0.0000000000000000e+00 0.0000000000000000e+00  0.0000000000000000e+00 0.0000000000000000e+00 0.0000000000000000e+00  0.0000000000000000e+00 0.0000000000000000e+00 0.0000000000000000e+00  0.0000000000000000e+00 0.0000000000000000e+00 0.0000000000000000e+00  0.0000000000000000e+00 0.0000000000000000e+00 0.0000000000000000e+00  0.0000000000000000e+00 0.0000000000000000e+00 0.0000000000000000e+00  0.0000000000000000e+00 0.0000000000000000e+00 0.0000000000000000e+00  0.0000000000000000e+00 0.0000000000000000e+00 0.0000000000000000e+00  0.0000000000000000e+00 0.0000000000000000e+00 0.0000000000000000e+00  0.0000000000000000e+00 0.0000000000000000e+00 0.0000000000000000e+00  0.0000000000000000e+00 0.0000000000000000e+00 0.0000000000000000e+00  -7.5690676884673659e-07 -4.2283835715790665e-08 0.0000000000000000e+00  -1.5597166371536871e-06 -8.6038338199100932e-08 0.0000000000000000e+00  -2.4582978681711241e-06 -1.3278567098961551e-07 0.0000000000000000e+00  -3.5102143480775076e-06 -1.8411523723101287e-07 0.0000000000000000e+00  -4.7853675461430890e-06 -2.4170576320403567e-07 0.0000000000000000e+00  -6.3716960809578779e-06 -3.0732548760652549e-07 0.0000000000000000e+00  -8.3826158934072805e-06 -3.8278905175449719e-07 0.0000000000000000e+00  -1.0967548308614546e-05 -4.6983281814584809e-07 0.0000000000000000e+00  -1.4328650867651615e-05 -5.6984245813467580e-07 0.0000000000000000e+00  -1.8751673277674647e-05 -6.8331805692341303e-07 0.0000000000000000e+00  -2.4672396114456106e-05 -8.0885352925449781e-07 0.0000000000000000e+00  -3.2840222304539845e-05 -9.4104757129294735e-07 0.0000000000000000e+00  -4.4767562212269903e-05 -1.0652040262154422e-06 0.0000000000000000e+00  -6.4087960904073526e-05 -1.1392461488552735e-06 0.0000000000000000e+00  -1.0104889836126313e-04 -1.0168565265190931e-06 0.0000000000000000e+00  -1.8869368628216719e-04 -8.5376619500794616e-08 0.0000000000000000e+00  0.0000000000000000e+00 0.0000000000000000e+00 0.0000000000000000e+00  -1.4661340818535442e-06 -8.2999043515379021e-08 0.0000000000000000e+00  -3.0201174711184373e-06 -1.6889478570532790e-07 0.0000000000000000e+00  -4.7573292034336549e-06 -2.6068807035450269e-07 0.0000000000000000e+00  -6.7878099932233742e-06 -3.6152307055793932e-07 0.0000000000000000e+00  -9.2450532984315832e-06 -4.7474260310974439e-07 0.0000000000000000e+00  -1.2296651407610142e-05 -6.0391021650236153e-07 0.0000000000000000e+00  -1.6157762743842554e-05 -7.5276404205731091e-07 0.0000000000000000e+00  -2.1109024262851196e-05 -9.2503820550347366e-07 0.0000000000000000e+00  -2.7522181756560776e-05 -1.1240419301858515e-06 0.0000000000000000e+00  -3.5900776774727296e-05 -1.3518271469405910e-06 0.0000000000000000e+00  -4.6952926439083957e-05 -1.6077400062628042e-06 0.0000000000000000e+00  -6.1734969295542175e-05 -1.8863349870860399e-06 0.0000000000000000e+00  -8.1946681910169490e-05 -2.1759863269361613e-06 0.0000000000000000e+00  -1.1050129831161889e-04 -2.4669329273630563e-06 0.0000000000000000e+00  -1.5227697906468161e-04 -2.8169093838342228e-06 0.0000000000000000e+00  -2.1269183450068810e-04 -3.7374302125048540e-06 0.0000000000000000e+00  0.0000000000000000e+00 0.0000000000000000e+00 0.0000000000000000e+00  -2.0854571283317893e-06 -1.2070385096032533e-07 0.0000000000000000e+00  -4.2934405778870692e-06 -2.4564788127037956e-07 0.0000000000000000e+00  -6.7568717119377587e-06 -3.7922994861536156e-07 0.0000000000000000e+00  -9.6290586797357027e-06 -5.2608078863088952e-07 0.0000000000000000e+00  -1.3095877594018541e-05 -6.9117004833765034e-07 0.0000000000000000e+00  -1.7390345588572856e-05 -8.7988508998591517e-07 0.0000000000000000e+00  -2.2810463639470342e-05 -1.0980468127172377e-06 0.0000000000000000e+00  -2.9741303726178762e-05 -1.3517898292094217e-06 0.0000000000000000e+00  -3.8682517959152558e-05 -1.6471686330159932e-06 0.0000000000000000e+00  -5.0282796151957218e-05 -1.9892441352894583e-06 0.0000000000000000e+00  -6.5382852916193353e-05 -2.3802479673628030e-06 0.0000000000000000e+00  -8.5065246491405222e-05 -2.8162069064897846e-06 0.0000000000000000e+00  -1.1068900509438349e-04 -3.2809618675097638e-06 0.0000000000000000e+00  -1.4379883094466474e-04 -3.7341276263501461e-06 0.0000000000000000e+00  -1.8548697532465614e-04 -4.0728170110257585e-06 0.0000000000000000e+00  -2.3394182272175169e-04 -3.9346338428202431e-06 0.0000000000000000e+00  0.0000000000000000e+00 0.0000000000000000e+00 0.0000000000000000e+00  -2.5800115615090115e-06 -1.5404249188085344e-07 0.0000000000000000e+00  -5.3072366431302074e-06 -3.1354296135352962e-07 0.0000000000000000e+00  -8.3412116339400889e-06 -4.8416780748070947e-07 0.0000000000000000e+00  -1.1865941991877233e-05 -6.7191480165982404e-07 0.0000000000000000e+00  -1.6104599098547752e-05 -8.8328528766582779e-07 0.0000000000000000e+00  -2.1337101843095791e-05 -1.1254545624126691e-06 0.0000000000000000e+00  -2.7921356692080429e-05 -1.4064216916410413e-06 0.0000000000000000e+00  -3.6318451546276620e-05 -1.7350867726058945e-06 0.0000000000000000e+00  -4.7120916367689212e-05 -2.1211309592899801e-06 0.0000000000000000e+00  -6.1080428945613300e-05 -2.5744276049201260e-06 0.0000000000000000e+00  -7.9125099377927476e-05 -3.1034407599812355e-06 0.0000000000000000e+00  -1.0234204807755255e-04 -3.7116162061360588e-06 0.0000000000000000e+00  -1.3186758748677960e-04 -4.3901477947331926e-06 0.0000000000000000e+00  -1.6855318654802282e-04 -5.1051039889461291e-06 0.0000000000000000e+00  -2.1213519943980114e-04 -5.7798024721656489e-06 0.0000000000000000e+00  -2.5949418313968585e-04 -6.3030148004401250e-06 0.0000000000000000e+00  0.0000000000000000e+00 0.0000000000000000e+00 0.0000000000000000e+00  -2.9250749661550542e-06 -1.8179024374463124e-07 0.0000000000000000e+00  -6.0101412439244323e-06 -3.7008437719034994e-07 0.0000000000000000e+00  -9.4283081470321898e-06 -5.7163585685225830e-07 0.0000000000000000e+00  -1.3379224625830384e-05 -7.9362303809478896e-07 0.0000000000000000e+00  -1.8105312187289105e-05 -1.0438908917341128e-06 0.0000000000000000e+00  -2.3911548379097748e-05 -1.3312300679379170e-06 0.0000000000000000e+00  -3.1189811612380170e-05 -1.6657104049151408e-06 0.0000000000000000e+00  -4.0448172319780627e-05 -2.0590763542253018e-06 0.0000000000000000e+00  -5.2343865469165413e-05 -2.5251663736399345e-06 0.0000000000000000e+00  -6.7714909029670489e-05 -3.0801816780755888e-06 0.0000000000000000e+00  -8.7597438502609340e-05 -3.7422941581842808e-06 0.0000000000000000e+00  -1.1320043424835644e-04 -4.5293813025674362e-06 0.0000000000000000e+00  -1.4578193222899909e-04 -5.4524631718892137e-06 0.0000000000000000e+00  -1.8632820336477007e-04 -6.5009585216777389e-06 0.0000000000000000e+00  -2.3489359444345305e-04 -7.6159186508073722e-06 0.0000000000000000e+00  -2.8948820733888328e-04 -8.6531039388154893e-06 0.0000000000000000e+00  0.0000000000000000e+00 0.0000000000000000e+00 0.0000000000000000e+00  -3.1080209692811966e-06 -2.0290093614786933e-07 0.0000000000000000e+00  -6.3759756566920914e-06 -4.1313640858073796e-07 0.0000000000000000e+00  -9.9764096080359464e-06 -6.3831431579671055e-07 0.0000000000000000e+00  -1.4108060533515667e-05 -8.8653681506101627e-07 0.0000000000000000e+00  -1.9012407353412341e-05 -1.1666944390895920e-06 0.0000000000000000e+00  -2.4994617165279736e-05 -1.4888345330173420e-06 0.0000000000000000e+00  -3.2450609026979594e-05 -1.8646673299676581e-06 0.0000000000000000e+00  -4.1901774765709932e-05 -2.3083105129890833e-06 0.0000000000000000e+00  -5.4037904344464533e-05 -2.8374083576084249e-06 0.0000000000000000e+00  -6.9766057626035314e-05 -3.4747394668688828e-06 0.0000000000000000e+00  -9.0256771110280729e-05 -4.2501916375898835e-06 0.0000000000000000e+00  -1.1696653643242546e-04 -5.2021753589374238e-06 0.0000000000000000e+00  -1.5159444006426025e-04 -6.3755091653013772e-06 0.0000000000000000e+00  -1.9590255382399003e-04 -7.8086931441400586e-06 0.0000000000000000e+00  -2.5130905619486941e-04 -9.4969896359441043e-06 0.0000000000000000e+00  -3.1819246033117055e-04 -1.1309954194807906e-05 0.0000000000000000e+00  0.0000000000000000e+00 0.0000000000000000e+00 0.0000000000000000e+00  -3.1292428237651232e-06 -2.1655071132626595e-07 0.0000000000000000e+00  -6.4057886031280477e-06 -4.4101843436760293e-07 0.0000000000000000e+00  -9.9876209742056494e-06 -6.8159526605916583e-07 0.0000000000000000e+00  -1.4055735366824403e-05 -9.4699720076606878e-07 0.0000000000000000e+00  -1.8829373644126827e-05 -1.2467718451822808e-06 0.0000000000000000e+00  -2.4586395888464983e-05 -1.5916905605251200e-06 0.0000000000000000e+00  -3.1691522500027367e-05 -1.9943222253525175e-06 0.0000000000000000e+00  -4.0635974255351178e-05 -2.4699824038823024e-06 0.0000000000000000e+00  -5.2092694348726094e-05 -3.0384186104391704e-06 0.0000000000000000e+00  -6.6991161079032582e-05 -3.7268322097112450e-06 0.0000000000000000e+00  -8.6613295174175594e-05 -4.5750454057159373e-06 0.0000000000000000e+00  -1.1270436703912890e-04 -5.6433576807817757e-06 0.0000000000000000e+00  -1.4757611102869740e-04 -7.0216619112284021e-06 0.0000000000000000e+00  -1.9415073175845215e-04 -8.8321255670703518e-06 0.0000000000000000e+00  -2.5586177850070088e-04 -1.1203903736857015e-05 0.0000000000000000e+00  -3.3632404182342557e-04 -1.4177767515092980e-05 0.0000000000000000e+00  0.0000000000000000e+00 0.0000000000000000e+00 0.0000000000000000e+00  -3.0018482618503125e-06 -2.2217012446322912e-07 0.0000000000000000e+00  -6.1274207754138481e-06 -4.5257467125741187e-07 0.0000000000000000e+00  -9.5077560814694588e-06 -6.9970562287617767e-07 0.0000000000000000e+00  -1.3290638030354430e-05 -9.7256853340375276e-07 0.0000000000000000e+00  -1.7652427009978347e-05 -1.2809552135012450e-06 0.0000000000000000e+00  -2.2815119527689034e-05 -1.6357605456263245e-06 0.0000000000000000e+00  -2.9072259901875678e-05 -2.0494274600074877e-06 0.0000000000000000e+00  -3.6829367332261264e-05 -2.5367343704944624e-06 0.0000000000000000e+00  -4.6667514436204619e-05 -3.1164304363398730e-06 0.0000000000000000e+00  -5.9442538937792598e-05 -3.8148163775802810e-06 0.0000000000000000e+00  -7.6436205116849624e-05 -4.6734233600843374e-06 0.0000000000000000e+00  -9.9576499518118163e-05 -5.7643899597138945e-06 0.0000000000000000e+00  -1.3173504506227383e-04 -7.2177764810665229e-06 0.0000000000000000e+00  -1.7707802309013609e-04 -9.2603138386066354e-06 0.0000000000000000e+00  -2.4138500844775085e-04 -1.2244364381066361e-05 0.0000000000000000e+00  -3.3219597042591180e-04 -1.6601009555746848e-05 0.0000000000000000e+00  0.0000000000000000e+00 0.0000000000000000e+00 0.0000000000000000e+00  -2.7499562237599428e-06 -2.1945896695607122e-07 0.0000000000000000e+00  -5.5921749582026997e-06 -4.4720271447145349e-07 0.0000000000000000e+00  -8.6216394129993439e-06 -6.9174957502692244e-07 0.0000000000000000e+00  -1.1940915334617097e-05 -9.6210471125650774e-07 0.0000000000000000e+00  -1.5666245530382445e-05 -1.2679662245892597e-06 0.0000000000000000e+00  -1.9937697652665858e-05 -1.6198820174942230e-06 0.0000000000000000e+00  -2.4937150378840160e-05 -2.0293524998337127e-06 0.0000000000000000e+00  -3.0921013557715712e-05 -2.5089543035627970e-06 0.0000000000000000e+00  -3.8279920251934887e-05 -3.0728337396599650e-06 0.0000000000000000e+00  -4.7646298322305584e-05 -3.7386925462251199e-06 0.0000000000000000e+00  -6.0083599401450641e-05 -4.5343130189060156e-06 0.0000000000000000e+00  -7.7406997122179608e-05 -5.5158652485052621e-06 0.0000000000000000e+00  -1.0269693542713899e-04 -6.8126992654394604e-06 0.0000000000000000e+00  -1.4104986295055151e-04 -8.7208524256463551e-06 0.0000000000000000e+00  -2.0051722900709523e-04 -1.1853049403858722e-05 0.0000000000000000e+00  -2.9300719969344236e-04 -1.7250959481821826e-05 0.0000000000000000e+00  0.0000000000000000e+00 0.0000000000000000e+00 0.0000000000000000e+00  -2.4055339151548579e-06 -2.0838514316575446e-07 0.0000000000000000e+00  -4.8683481948049589e-06 -4.2484098656149318e-07 0.0000000000000000e+00  -7.4431488628136153e-06 -6.5766083199220590e-07 0.0000000000000000e+00  -1.0181091380706390e-05 -9.1562516101411397e-07 0.0000000000000000e+00  -1.3128106060678654e-05 -1.2081600009465641e-06 0.0000000000000000e+00  -1.6324417029893289e-05 -1.5453401068769919e-06 0.0000000000000000e+00  -1.9807860613715168e-05 -1.9375808158729198e-06 0.0000000000000000e+00  -2.3626982300402952e-05 -2.3947686473259398e-06 0.0000000000000000e+00  -2.7876580662965985e-05 -2.9245397377143581e-06 0.0000000000000000e+00  -3.2781090431897847e-05 -3.5297390693260251e-06 0.0000000000000000e+00  -3.8874195990920447e-05 -4.2067857062430745e-06 0.0000000000000000e+00  -4.7361654135295663e-05 -4.9525098450226738e-06 0.0000000000000000e+00  -6.0810532705428023e-05 -5.8036165022285114e-06 0.0000000000000000e+00  -8.4361442956877464e-05 -6.9717159939792654e-06 0.0000000000000000e+00  -1.2760563623078757e-04 -9.1951987197213601e-06 0.0000000000000000e+00  -2.0689753893700868e-04 -1.4379548616666484e-05 0.0000000000000000e+00  0.0000000000000000e+00 0.0000000000000000e+00 0.0000000000000000e+00  -2.0039390808134713e-06 -1.8917846470906308e-07 0.0000000000000000e+00  -4.0318387750354439e-06 -3.8593970920889784e-07 0.0000000000000000e+00  -6.0999641433376384e-06 -5.9810686865726217e-07 0.0000000000000000e+00  -8.2097401644744417e-06 -8.3405758002644453e-07 0.0000000000000000e+00  -1.0337398505560911e-05 -1.1029197889316431e-06 0.0000000000000000e+00  -1.2420398930196423e-05 -1.4145812937026771e-06 0.0000000000000000e+00  -1.4340387562216195e-05 -1.7792354306679545e-06 0.0000000000000000e+00  -1.5904602353968346e-05 -2.2058525533995963e-06 0.0000000000000000e+00  -1.6833163044057045e-05 -2.6983264494791108e-06 0.0000000000000000e+00  -1.6772726157251616e-05 -3.2469890987548555e-06 0.0000000000000000e+00  -1.5385946598094460e-05 -3.8120774906164238e-06 0.0000000000000000e+00  -1.2627267525862262e-05 -4.2971629623925424e-06 0.0000000000000000e+00  -9.4373569060870443e-06 -4.5253887218006638e-06 0.0000000000000000e+00  -9.3075193714401009e-06 -4.2977794514074701e-06 0.0000000000000000e+00  -2.1417326651303664e-05 -3.8414518100068261e-06 0.0000000000000000e+00  -6.5387218070077623e-05 -5.3303589107073276e-06 0.0000000000000000e+00  0.0000000000000000e+00 0.0000000000000000e+00 0.0000000000000000e+00  -1.5786705465617246e-06 -1.6233675010406311e-07 0.0000000000000000e+00  -3.1547884324836793e-06 -3.3146050870560081e-07 0.0000000000000000e+00  -4.7142829117625163e-06 -5.1444171156846965e-07 0.0000000000000000e+00  -6.2193389549788672e-06 -7.1903639750339784e-07 0.0000000000000000e+00  -7.5904494993551197e-06 -9.5403787392441740e-07 0.0000000000000000e+00  -8.6802295968218317e-06 -1.2295762065582783e-06 0.0000000000000000e+00  -9.2346177327140174e-06 -1.5571525711790644e-06 0.0000000000000000e+00  -8.8362067381974704e-06 -1.9487794677423982e-06 0.0000000000000000e+00  -6.8250388485189341e-06 -2.4135214297171349e-06 0.0000000000000000e+00  -2.1981598587919693e-06 -2.9470845737042304e-06 0.0000000000000000e+00  6.4891104078476678e-06 -3.5040527273007469e-06 0.0000000000000000e+00  2.1133804733568352e-05 -3.9301631718340509e-06 0.0000000000000000e+00  4.3752093543245866e-05 -3.8137711546694529e-06 0.0000000000000000e+00  7.5111480018029523e-05 -2.2193096785058318e-06 0.0000000000000000e+00  1.1054202964634229e-04 2.4878780250515044e-06 0.0000000000000000e+00  1.2938156257430341e-04 1.0003553587754217e-05 0.0000000000000000e+00  0.0000000000000000e+00 0.0000000000000000e+00 0.0000000000000000e+00  -1.1562057594359122e-06 -1.2865754848802832e-07 0.0000000000000000e+00  -2.2941132357124128e-06 -2.6294606826457247e-07 0.0000000000000000e+00  -3.3824897044683403e-06 -4.0881655984479476e-07 0.0000000000000000e+00  -4.3625199583786465e-06 -5.7302323811471799e-07 0.0000000000000000e+00  -5.1258442862523354e-06 -7.6368807972870154e-07 0.0000000000000000e+00  -5.4805828447770855e-06 -9.9110699359201058e-07 0.0000000000000000e+00  -5.0969587020594973e-06 -1.2689290736097044e-06 0.0000000000000000e+00  -3.4191439685061935e-06 -1.6157790424353123e-06 0.0000000000000000e+00  4.7766095053992422e-07 -2.0569109020915673e-06 0.0000000000000000e+00  8.1158331620202484e-06 -2.6234248052124556e-06 0.0000000000000000e+00  2.1967839717491652e-05 -3.3392797068534139e-06 0.0000000000000000e+00  4.5953957566405121e-05 -4.1629737680091678e-06 0.0000000000000000e+00  8.5989665962005952e-05 -4.7816235309426440e-06 0.0000000000000000e+00  1.5002363012875961e-04 -3.9581714856777334e-06 0.0000000000000000e+00  2.4535312743311004e-04 2.5148105758628000e-06 0.0000000000000000e+00  3.6412858622024115e-04 3.0111477801157401e-05 0.0000000000000000e+00  0.0000000000000000e+00 0.0000000000000000e+00 0.0000000000000000e+00  -7.5207514407292213e-07 -8.9289709344592277e-08 0.0000000000000000e+00  -1.4824992508618520e-06 -1.8265720892647157e-07 0.0000000000000000e+00  -2.1583691234812200e-06 -2.8448024938497967e-07 0.0000000000000000e+00  -2.7222770831819407e-06 -3.9990992289335413e-07 0.0000000000000000e+00  -3.0720348146524308e-06 -5.3553502038074563e-07 0.0000000000000000e+00  -3.0280062484906479e-06 -7.0055365719480587e-07 0.0000000000000000e+00  -2.2780964729980341e-06 -9.0902584287942638e-07 0.0000000000000000e+00  -2.8261700737740418e-07 -1.1844502728297201e-06 0.0000000000000000e+00  3.8934304459835993e-06 -1.5693579720873881e-06 0.0000000000000000e+00  1.1880376654299270e-05 -2.1455627626032502e-06 0.0000000000000000e+00  2.6545384687857995e-05 -3.0758464510500638e-06 0.0000000000000000e+00  5.2968715066733959e-05 -4.6832993995814226e-06 0.0000000000000000e+00  1.0016295440254760e-04 -7.5763032951221688e-06 0.0000000000000000e+00  1.8382429178585063e-04 -1.2762272759758109e-05 0.0000000000000000e+00  3.2904911377986312e-04 -2.1525487603868738e-05 0.0000000000000000e+00  5.6416040395403187e-04 -3.4293463271244803e-05 0.0000000000000000e+00  0.0000000000000000e+00 0.0000000000000000e+00 0.0000000000000000e+00  -3.6931304989778871e-07 -4.5770923092866428e-08 0.0000000000000000e+00  -7.2456062592582481e-07 -9.3699078958300296e-08 0.0000000000000000e+00  -1.0450948919847812e-06 -1.4612964165223294e-07 0.0000000000000000e+00  -1.2957495817260090e-06 -2.0590068783146177e-07 0.0000000000000000e+00  -1.4145045852465173e-06 -2.7681730119061329e-07 0.0000000000000000e+00  -1.2920650796610355e-06 -3.6457813656539043e-07 0.0000000000000000e+00  -7.3630791102142734e-07 -4.7877483485346633e-07 0.0000000000000000e+00  5.9176176016750085e-07 -6.3753929502038106e-07 0.0000000000000000e+00  3.2965661017742200e-06 -8.7902407009781339e-07 0.0000000000000000e+00  8.4720543178495071e-06 -1.2912608248153385e-06 0.0000000000000000e+00  1.8128314813612150e-05 -2.0930429128910578e-06 0.0000000000000000e+00  3.5982267004651457e-05 -3.8581762577839658e-06 0.0000000000000000e+00  6.8760384824322147e-05 -8.1309834643212939e-06 0.0000000000000000e+00  1.2751200327448570e-04 -1.8980788853936141e-05 0.0000000000000000e+00  2.2508853433492884e-04 -4.5912649993935198e-05 0.0000000000000000e+00  3.5709950243888817e-04 -1.0352656658879126e-04 0.0000000000000000e+00  0.0000000000000000e+00 0.0000000000000000e+00 0.0000000000000000e+00  0.0000000000000000e+00 0.0000000000000000e+00 0.0000000000000000e+00  0.0000000000000000e+00 0.0000000000000000e+00 0.0000000000000000e+00  0.0000000000000000e+00 0.0000000000000000e+00 0.0000000000000000e+00  0.0000000000000000e+00 0.0000000000000000e+00 0.0000000000000000e+00  0.0000000000000000e+00 0.0000000000000000e+00 0.000000000