<?xml version="1.0"?>
<VTKFile type="UnstructuredGrid"  version="0.1"  >
<UnstructuredGrid>
<Piece  NumberOfPoints="289" NumberOfCells="512">
<Points>
<DataArray  type="Float64"  NumberOfComponents="3"  format="ascii">0 0 0  0.0625 0 0  0.125 0 0  0.1875 0 0  0.25 0 0  0.3125 0 0  0.375 0 0  0.4375 0 0  0.5 0 0  0.5625 0 0  0.625 0 0  0.6875 0 0  0.75 0 0  0.8125 0 0  0.875 0 0  0.9375 0 0  1 0 0  0 0.0625 0  0.06249098212422498 0.06247956476439381 0  0.1249825113026097 0.06245877699578438 0  0.1874752414934688 0.06243731432981236 0  0.2499701082997006 0.06241493249330513 0  0.3124685144341244 0.06239151514027609 0  0.3749725775390355 0.0623671351555673 0  0.4374854781678983 0.06234212709729681 0  0.5000119729317005 0.06231716440811675 0  0.5625592014345975 0.0622933239593603 0  0.625138073968732 0.06227210140255373 0  0.6877659448592476 0.06225530892497467 0  0.7504724445823439 0.0622447317463703 0  0.8133137990961058 0.06224130440848932 0  0.8764117437490117 0.06224323811224768 0  0.9400685079485569 0.06224137661631772 0  1.005132798788671 0.06220722362061178 0  0 0.125 0  0.06248140722870363 0.1249594676961041 0  0.1249637865573555 0.124918191316876 0  0.1874483140904205 0.1248754829986932 0  0.2499367047110917 0.1248308024418939 0  0.3124315686781173 0.124783854139955 0  0.3749368881967673 0.1247347109554866 0  0.4374586807083802 0.124683966578912 0  0.500005953145934 0.12463290939479 0  0.5625921292144175 0.1245836910860828 0  0.6252372989734426 0.1245394297480166 0  0.6879720008278057 0.1245041347421661 0  0.7508439890566718 0.1244822740245942 0  0.8139307439922117 0.1244777784478142 0  0.8773615891417063 0.1244925656385118 0  0.9413474789670578 0.1245264709362262 0  1.006169436316453 0.1245882794734317 0  0 0.1875 0  0.06247089498976689 0.1874401073177621 0  0.1249429434300773 0.1873790076330314 0  0.1874175755440745 0.1873155674143931 0  0.2498969573771012 0.1872488512620204 0  0.3123844814459956 0.1871782596212072 0  0.3748854231050151 0.1871037128920265 0  0.4374078442960541 0.1870258929354062 0  0.4999638541386525 0.1869465430215669 0  0.562571378458402 0.186868805184307 0  0.6252566512710391 0.1867975302116125 0  0.6880577024870849 0.1867394152462986 0  0.7510290543351607 0.1867026817588203 0  0.8142471399192864 0.186695740313679 0  0.8778129341917967 0.1867236622586011 0  0.9418387253130317 0.1867792227436075 0  1.006384848571326 0.1868170387645779 0  0 0.25 0  0.06245931067008427 0.2499219527079329 0  0.1249196196837745 0.2498421415580098 0  0.1873822384554298 0.249758879272552 0  0.2498493212252295 0.2496706958910144 0  0.3123244362824799 0.249576502670896 0  0.3748133376891674 0.2494758267587877 0  0.43732502783027 0.2493691427525891 0  0.4998732145544926 0.2492583235299006 0  0.5624782665712871 0.2491472174058015 0  0.6251697248672413 0.2490423190438004 0  0.6879892545301663 0.2489534153185581 0  0.7509934219527263 0.2488939176940426 0  0.8142544184418313 0.2488802837764694 0  0.8778540614710659 0.248929427226517 0  0.941861629974255 0.2490524837306094 0  1.006282735067929 0.2492445819997344 0  0 0.3125 0  0.06244684596049735 0.3124055651079324 0  0.1248941493926373 0.312308708855224 0  0.1873426716154959 0.3122070698376707 0  0.24979401055549 0.3120984780048875 0  0.3122511871794071 0.311981120087687 0  0.3747194597144583 0.3118538000445944 0  0.4372074698029322 0.3117163410162576 0  0.4997288366833578 0.3115701850409648 0  0.5623043018343497 0.3114192512730954 0  0.6249644421424579 0.3112710995064704 0  0.6877527243733772 0.3111383862115543 0  0.7507281106284038 0.3110404450274504 0  0.8139653416233469 0.3110044969376535 0  0.8775494049423973 0.3110654300651537 0  0.9415595652898716 0.311262376847189 0  1.00604174103469 0.3116299756688344 0  0 0.375 0  0.06243405649183905 0.3748916036195442 0  0.1248676491699744 0.374780043059109 0  0.1873005576008876 0.3746621732034947 0  0.2497332623330881 0.3745349569721174 0  0.3121674701793998 0.3743955958696554 0  0.3746068854148051 0.3742417714576393 0  0.4370583554196732 0.3740720650453783 0  0.499533552408103 0.3738866524511051 0  0.5620513721218726 0.373688408701912 0  0.6246411955981533 0.3734845962312786 0  0.6873469921341849 0.3732893233319563 0  0.7502318161972651 0.3731268812067836 0  0.8133814560137098 0.3730357621356123 0  0.8769049771789802 0.3730724165029786 0  0.9409297050685905 0.3733124516926148 0  1.005591479447 0.3738452152031091 0  0 0.4375 0  0.06242184801833212 0.4373808089693976 0  0.1248419977099065 0.4372576680884519 0  0.1872588809436944 0.4371265798474651 0  0.2496713587800078 0.436983508117942 0  0.3120790981969775 0.4368244278247471 0  0.3744831923518552 0.4366454823948998 0  0.4368871818481814 0.4364433291452982 0  0.4992987110037757 0.4362158038281778 0  0.5617321533736167 0.4359631161896838 0  0.6242126467843693 0.4356899067331653 0  0.6867820319855651 0.4354086448090101 0  0.7495070616419566 0.4351449719244792 0  0.8124897346117618 0.4349454992985066 0  0.8758785996974335 0.4348878083159366 0  0.9398789640120976 0.4350903070620674 0  1.004761704887081 0.4357160319531535 0  0 0.5 0  0.06241140692708923 0.4998739605447534 0  0.1248196984388994 0.499743214162967 0  0.1872217284536243 0.4996029172405975 0  0.2496143811226961 0.499447983321764 0  0.3119947049686235 0.4992730035364623 0  0.3743602477387405 0.4990722426866205 0  0.4367097645411075 0.4988397854651794 0  0.4990446021273633 0.4985699724159789 0  0.5613712782069561 0.498258383319671 0  0.6237061084691218 0.4979038337310638 0  0.6860831896756827 0.4975121975592593 0  0.7485675177613865 0.4971033829294512 0  0.811275122378977 0.4967233396120311 0  0.8744010388220493 0.496462894294124 0  0.9382531329231089 0.496482691279551 0  1.003288305157809 0.4970361230634341 0  0 0.5625 0  0.06240407514365846 0.5623718051702334 0  0.1248036226287516 0.5622382716361656 0  0.1871938903167547 0.5620938228063186 0  0.2495696639986303 0.5619323993878498 0  0.3119250725126697 0.5617472124041859 0  0.3742534894867845 0.5615305067189964 0  0.4365476783018802 0.5612733764019197 0  0.4988004958520142 0.5609657326426031 0  0.5610067992142649 0.5605966496734217 0  0.6231678098230197 0.5601555743814005 0  0.6853002471011396 0.5596354196097559 0  0.7474541555528728 0.5590396142526834 0  0.8097451789628334 0.5583970513894401 0  0.8724073364701539 0.5577913138543458 0  0.9358670375604928 0.5574104836064542 0  1.000825834089422 0.5576122160333017 0  0 0.625 0  0.06240117599115671 0.6248749615713145 0  0.1247966426899986 0.6247441889609505 0  0.187180266366498 0.6246016133737649 0  0.2495449316390433 0.624440446657804 0  0.3118819649127287 0.6242527546272486 0  0.3741804810257597 0.6240289499847315 0  0.4364267069762758 0.6237571848911875 0  0.4986034918245037 0.6234226475465372 0  0.5606905765971827 0.6230068398865169 0  0.6226670120818343 0.622487114155123 0  0.6845188326337095 0.6218372816583034 0  0.7462584612802697 0.6210315077290551 0  0.8079680446321015 0.6200572354158458 0  0.8698856168983327 0.6189508288265639 0  0.9325508351292049 0.6178814743365126 0  0.9969995726372562 0.6173000869356187 0  0 0.6875 0  0.06240380696629226 0.687383811481903 0  0.1248011854463745 0.6872618367563852 0  0.1871851143762467 0.6871278834469505 0  0.2495471415646739 0.6869748568580506 0  0.3118764402332235 0.6867941807492858 0  0.3741585667685189 0.6865750421902582 0  0.4363738085050078 0.6863033648676675 0  0.4984950647602698 0.6859603795596546 0  0.5604854340469601 0.685520618001089 0  0.6222963957602914 0.6849491372478899 0  0.683869443678684 0.6841979224031152 0  0.7451490391067859 0.6832022619295233 0  0.8061264833884264 0.6818815149526816 0  0.8669576616342936 0.6801625762260893 0  0.928221208847225 0.6780903390016668 0  0.9913184724566231 0.6761367851382023 0  0 0.75 0  0.06241262704137466 0.7498983952072974 0  0.1248187623503122 0.7497913762244545 0  0.1872112279146351 0.7496730962518766 0  0.2495811482152987 0.7495367273223323 0  0.3119167499959256 0.7493737993516888 0  0.3742016514839998 0.7491732936889784 0  0.436412328519069 0.7489203333803295 0  0.4985143125091739 0.7485942177323451 0  0.5604565489204711 0.7481653770945219 0  0.6221634280093132 0.7475905034465643 0  0.6835250297383014 0.7468045112051345 0  0.7443905344870165 0.7457069548487484 0  0.804585140802097 0.7441395979514177 0  0.8640196757746369 0.7418571817936517 0  0.923095731964946 0.7385537763313748 0  0.9835263033199457 0.7345462130781422 0  0 0.8125 0  0.06242767704883442 0.8124183336934909 0  0.124849561511889 0.8123320812192893 0  0.1872591902506089 0.8122362557443161 0  0.2496484158630311 0.8121249495263821 0  0.3120061572349181 0.8119906951798409 0  0.3743165241333367 0.8118235651428379 0  0.4365558498038244 0.8116098322459381 0  0.4986878323746829 0.8113298987505192 0  0.5606553929382626 0.8109549811200017 0  0.6223668564907658 0.8104415827356255 0  0.6836726131890285 0.8097217361628206 0  0.7443274662573234 0.8086842913377151 0  0.8039395002820311 0.8071350289859512 0  0.8619493318259165 0.8047020372339668 0  0.9179291597853314 0.8005906043405464 0  0.9742962667634719 0.7928441808871143 0  0 0.875 0  0.06244827686748897 0.8749427983662664 0  0.1248922027255913 0.8748822629834325 0  0.1873268938706056 0.874814751536693 0  0.2497461149589861 0.8747359066705741 0  0.3121412445109085 0.8746401520852027 0  0.3744996698679119 0.8745199732270805 0  0.4368021392364437 0.8743648388124572 0  0.4990181854235753 0.8741595354868982 0  0.5610978829057058 0.8738815502161245 0  0.6229563876417037 0.8734969051955354 0  0.6844437565109492 0.8729534054223091 0  0.7452837863562243 0.872169009666898 0  0.8049464058012942 0.8710079405570613 0  0.8623794251981114 0.86921374232439 0  0.9154737965283252 0.8661655063472264 0  0.9602357956045854 0.8598845727696628 0  0 0.9375 0  0.0624730368380886 0.9374705430263079 0  0.1249437463290126 0.9374393315243987 0  0.1874095087470858 0.9374044433321506 0  0.2498669579423043 0.9373635661391037 0  0.3123114012700203 0.9373137205998294 0  0.3747359046950054 0.9372508637766052 0  0.4371297514776787 0.93716929678
[...]
<PointData  Vectors="f_54"> 
<DataArray  type="Float64"  Name="f_54"  NumberOfComponents="3" format="ascii">0.0000000000000000e+00 0.0000000000000000e+00 0.0000000000000000e+00  0.0000000000000000e+00 0.0000000000000000e+00 0.0000000000000000e+00  0.0000000000000000e+00 0.0000000000000000e+00 0.0000000000000000e+00  0.0000000000000000e+00 0.0000000000000000e+00 0.0000000000000000e+00  0.0000000000000000e+00 0.0000000000000000e+00 0.0000000000000000e+00  0.0000000000000000e+00 0.0000000000000000e+00 0.0000000000000000e+00  0.0000000000000000e+00 0.0000000000000000e+00 0.0000000000000000e+00  0.0000000000000000e+00 0.0000000000000000e+00 0.0000000000000000e+00  0.0000000000000000e+00 0.0000000000000000e+00 0.0000000000000000e+00  0.0000000000000000e+00 0.0000000000000000e+00 0.0000000000000000e+00  0.0000000000000000e+00 0.0000000000000000e+00 0.0000000000000000e+00  0.0000000000000000e+00 0.0000000000000000e+00 0.0000000000000000e+00  0.0000000000000000e+00 0.0000000000000000e+00 0.0000000000000000e+00  0.0000000000000000e+00 0.0000000000000000e+00 0.0000000000000000e+00  0.0000000000000000e+00 0.0000000000000000e+00 0.0000000000000000e+00  0.0000000000000000e+00 0.0000000000000000e+00 0.0000000000000000e+00  0.0000000000000000e+00 0.0000000000000000e+00 0.0000000000000000e+00  0.0000000000000000e+00 0.0000000000000000e+00 0.0000000000000000e+00  -3.9146527264858969e-06 -2.0528986058932789e-07 0.0000000000000000e+00  -7.9474013180566998e-06 -4.1350243440449267e-07 0.0000000000000000e+00  -1.2219406526228405e-05 -6.2716239170559311e-07 0.0000000000000000e+00  -1.6852895666317850e-05 -8.4766250956034205e-07 0.0000000000000000e+00  -2.1971029877854931e-05 -1.0745005686686872e-06 0.0000000000000000e+00  -2.7696895946396717e-05 -1.3042734567961712e-06 0.0000000000000000e+00  -3.4151580544344455e-05 -1.5293529624469195e-06 0.0000000000000000e+00  -4.1451875708532029e-05 -1.7361755927548245e-06 0.0000000000000000e+00  -4.9709785219500953e-05 -1.9030609856501542e-06 0.0000000000000000e+00  -5.9040437068888145e-05 -1.9972999015287949e-06 0.0000000000000000e+00  -6.9597609127302788e-05 -1.9704257808363715e-06 0.0000000000000000e+00  -8.1694142913577058e-05 -1.7472646851534988e-06 0.0000000000000000e+00  -9.6188247071438037e-05 -1.1915729334088600e-06 0.0000000000000000e+00  -1.1575204735599310e-04 1.9132317699150180e-08 0.0000000000000000e+00  -1.4932264790119764e-04 2.8868735576681700e-06 0.0000000000000000e+00  -2.2966885188506033e-04 1.1244864056504822e-05 0.0000000000000000e+00  0.0000000000000000e+00 0.0000000000000000e+00 0.0000000000000000e+00  -7.7075001978084464e-06 -4.0746087165281142e-07 0.0000000000000000e+00  -1.5650617651920509e-05 -8.2129747432464255e-07 0.0000000000000000e+00  -2.4071184247064478e-05 -1.2471617754145623e-06 0.0000000000000000e+00  -3.3213896460697852e-05 -1.6886069116509679e-06 0.0000000000000000e+00  -4.3326386350089255e-05 -2.1456429995166402e-06 0.0000000000000000e+00  -5.4657399127082352e-05 -2.6127997781369847e-06 0.0000000000000000e+00  -6.7452638656794446e-05 -3.0765378108237915e-06 0.0000000000000000e+00  -8.1948400725549730e-05 -3.5118877689568337e-06 0.0000000000000000e+00  -9.8364613577107412e-05 -3.8782794428664456e-06 0.0000000000000000e+00  -1.1690255658793998e-04 -4.1146465393665178e-06 0.0000000000000000e+00  -1.3776088049421661e-04 -4.1340217759575356e-06 0.0000000000000000e+00  -1.6120113752618703e-04 -3.8180404517889485e-06 0.0000000000000000e+00  -1.8772353337371300e-04 -3.0136596126169111e-06 0.0000000000000000e+00  -2.1841783174027186e-04 -1.5503332627304534e-06 0.0000000000000000e+00  -2.5520554716350954e-04 5.9721549130338375e-07 0.0000000000000000e+00  -2.9780495090870701e-04 2.2178604526785489e-06 0.0000000000000000e+00  0.0000000000000000e+00 0.0000000000000000e+00 0.0000000000000000e+00  -1.1258676876373983e-05 -6.0292841669051623e-07 0.0000000000000000e+00  -2.2868982797641146e-05 -1.2166615599560524e-06 0.0000000000000000e+00  -3.5192052715515680e-05 -1.8510953975285262e-06 0.0000000000000000e+00  -4.8595066902122580e-05 -2.5133863264634080e-06 0.0000000000000000e+00  -6.3452222292001011e-05 -3.2059935192501087e-06 0.0000000000000000e+00  -8.0142684112789536e-05 -3.9239653537132568e-06 0.0000000000000000e+00  -9.9044323851738662e-05 -4.6511953488539948e-06 0.0000000000000000e+00  -1.2052203030439998e-04 -5.3554184032332165e-06 0.0000000000000000e+00  -1.4490954386432831e-04 -5.9818900438723565e-06 0.0000000000000000e+00  -1.7248404338579386e-04 -6.4461340014798272e-06 0.0000000000000000e+00  -2.0343213038952882e-04 -6.6271492900591207e-06 0.0000000000000000e+00  -2.3779969109962313e-04 -6.3647020108430185e-06 0.0000000000000000e+00  -2.7538828591376348e-04 -5.4694189304338218e-06 0.0000000000000000e+00  -3.1544653122057988e-04 -3.7656659292959840e-06 0.0000000000000000e+00  -3.5563503776839831e-04 -1.2025780467783207e-06 0.0000000000000000e+00  -3.8883376756767792e-04 2.0081301579228258e-06 0.0000000000000000e+00  0.0000000000000000e+00 0.0000000000000000e+00 0.0000000000000000e+00  -1.4450318068392383e-05 -7.8714739978441079e-07 0.0000000000000000e+00  -2.9365117065659417e-05 -1.5907879797680223e-06 0.0000000000000000e+00  -4.5221884979218928e-05 -2.4265249795309610e-06 0.0000000000000000e+00  -6.2509353179387504e-05 -3.3070662425360819e-06 0.0000000000000000e+00  -8.1730534788064234e-05 -4.2400195020865488e-06 0.0000000000000000e+00  -1.0340178011486197e-04 -5.2246709920383358e-06 0.0000000000000000e+00  -1.2804583640467940e-04 -6.2472994752084855e-06 0.0000000000000000e+00  -1.5617619682057869e-04 -7.2745493544957867e-06 0.0000000000000000e+00  -1.8826885904678237e-04 -8.2444937069893407e-06 0.0000000000000000e+00  -2.2471529188978820e-04 -9.0554774536118257e-06 0.0000000000000000e+00  -2.6574494080722970e-04 -9.5540788027358706e-06 0.0000000000000000e+00  -3.1129176699648336e-04 -9.5263779425208768e-06 0.0000000000000000e+00  -3.6074496278053252e-04 -8.7025157908228053e-06 0.0000000000000000e+00  -4.1244724072352009e-04 -6.7948410794667043e-06 0.0000000000000000e+00  -4.6267469380976251e-04 -3.6045343246468621e-06 0.0000000000000000e+00  -5.0380559031714420e-04 7.5234362269643264e-07 0.0000000000000000e+00  0.0000000000000000e+00 0.0000000000000000e+00 0.0000000000000000e+00  -1.7168478381630037e-05 -9.5434210304241376e-07 0.0000000000000000e+00  -3.4908463248002816e-05 -1.9321712727589571e-06 0.0000000000000000e+00  -5.3808226977489284e-05 -2.9563570446510175e-06 0.0000000000000000e+00  -7.4474982680805142e-05 -4.0473432829405347e-06 0.0000000000000000e+00  -9.7541600469357363e-05 -5.2210755555399244e-06 0.0000000000000000e+00  -1.2366889030675948e-04 -6.4857086467099007e-06 0.0000000000000000e+00  -1.5354087427437482e-04 -7.8364315475869238e-06 0.0000000000000000e+00  -1.8784928937747331e-04 -9.2475386118803802e-06 0.0000000000000000e+00  -2.2726167519345315e-04 -1.0660692972754510e-05 0.0000000000000000e+00  -2.7236418149468087e-04 -1.1968364902758542e-05 0.0000000000000000e+00  -3.2356431950718165e-04 -1.2992143265474637e-05 0.0000000000000000e+00  -3.8092764187380962e-04 -1.3457951086421476e-05 0.0000000000000000e+00  -4.4390199970123723e-04 -1.2975732672470744e-05 0.0000000000000000e+00  -5.1085355853271088e-04 -1.1041791014333948e-05 0.0000000000000000e+00  -5.7832636075147372e-04 -7.0976991711539333e-06 0.0000000000000000e+00  -6.4005531191364232e-04 -6.9334593834305637e-07 0.0000000000000000e+00  0.0000000000000000e+00 0.0000000000000000e+00 0.0000000000000000e+00  -1.9306002565568818e-05 -1.0974748855596685e-06 0.0000000000000000e+00  -3.9280812264626298e-05 -2.2264818594694478e-06 0.0000000000000000e+00  -6.0613999103100854e-05 -3.4184835247184211e-06 0.0000000000000000e+00  -8.4024419261972030e-05 -4.7036992473452615e-06 0.0000000000000000e+00  -1.1027246907202266e-04 -6.1096499778900235e-06 0.0000000000000000e+00  -1.4016824781185692e-04 -7.6584383548580226e-06 0.0000000000000000e+00  -1.7457292497665249e-04 -9.3619193647594477e-06 0.0000000000000000e+00  -2.1438920620246938e-04 -1.1213454332945896e-05 0.0000000000000000e+00  -2.6053473053787583e-04 -1.3174267440005786e-05 0.0000000000000000e+00  -3.1388924060403141e-04 -1.5151575893538409e-05 0.0000000000000000e+00  -3.7520207697981585e-04 -1.6964940747648210e-05 0.0000000000000000e+00  -4.4494064505861113e-04 -1.8297645741021667e-05 0.0000000000000000e+00  -5.2305363769393812e-04 -1.8633614350165747e-05 0.0000000000000000e+00  -6.0861998550329509e-04 -1.7191316481006690e-05 0.0000000000000000e+00  -6.9937424382171868e-04 -1.2887858133834047e-05 0.0000000000000000e+00  -7.9118587177071868e-04 -4.3949342815967231e-06 0.0000000000000000e+00  0.0000000000000000e+00 0.0000000000000000e+00 0.0000000000000000e+00  -2.0766523020857493e-05 -1.2085138542750771e-06 0.0000000000000000e+00  -4.2284245949677857e-05 -2.4570679284366957e-06 0.0000000000000000e+00  -6.5329240589692846e-05 -3.7864319239830259e-06 0.0000000000000000e+00  -9.0719517346355856e-05 -5.2380079519314349e-06 0.0000000000000000e+00  -1.1933460685683340e-04 -6.8535303909952129e-06 0.0000000000000000e+00  -1.5213233600406100e-04 -8.6737330890522684e-06 0.0000000000000000e+00  -1.9016045488425896e-04 -1.0735114886521620e-05 0.0000000000000000e+00  -2.3455932300718533e-04 -1.3063247843447120e-05 0.0000000000000000e+00  -2.8654986389335348e-04 -1.5659857935215180e-05 0.0000000000000000e+00  -3.4739851548255796e-04 -1.8478868433941524e-05 0.0000000000000000e+00  -4.1834838942710929e-04 -2.1383491247943689e-05 0.0000000000000000e+00  -5.0050460838183030e-04 -2.4072644188214252e-05 0.0000000000000000e+00  -5.9466475765061126e-04 -2.5962877871835080e-05 0.0000000000000000e+00  -7.0109805399180272e-04 -2.6018507711448337e-05 0.0000000000000000e+00  -8.1930700128462423e-04 -2.2549127207157050e-05 0.0000000000000000e+00  -9.4785811390459495e-04 -1.3041851307915501e-05 0.0000000000000000e+00  0.0000000000000000e+00 0.0000000000000000e+00 0.0000000000000000e+00  -2.1469595581661284e-05 -1.2790287707846828e-06 0.0000000000000000e+00  -4.3751592541743477e-05 -2.6061659195098752e-06 0.0000000000000000e+00  -6.7687231454329570e-05 -4.0312113671714012e-06 0.0000000000000000e+00  -9.4173726646243035e-05 -5.6069865124733915e-06 0.0000000000000000e+00  -1.2419251811825259e-04 -7.3906609200941756e-06 0.0000000000000000e+00  -1.5883697352837804e-04 -9.4446311847905975e-06 0.0000000000000000e+00  -1.9933804089763009e-04 -1.1836348644447119e-05 0.0000000000000000e+00  -2.4708493899377743e-04 -1.4635777260656648e-05 0.0000000000000000e+00  -3.0363600226624620e-04 -1.7907670307812948e-05 0.0000000000000000e+00  -3.7071249521890921e-04 -2.1692822066135387e-05 0.0000000000000000e+00  -4.5016656871683518e-04 -2.5966586137581551e-05 0.0000000000000000e+00  -5.4391625047636662e-04 -3.0552615326968870e-05 0.0000000000000000e+00  -6.5385130420964684e-04 -3.4954781713734425e-05 0.0000000000000000e+00  -7.8174394012416547e-04 -3.8058071946843178e-05 0.0000000000000000e+00  -9.2925775373974505e-04 -3.7665690044638481e-05 0.0000000000000000e+00  -1.0982246268463577e-03 -2.9918114576542007e-05 0.0000000000000000e+00  0.0000000000000000e+00 0.0000000000000000e+00 0.0000000000000000e+00  -2.1356761038073103e-05 -1.3010916286108990e-06 0.0000000000000000e+00  -4.3559016091504262e-05 -2.6567932410116641e-06 0.0000000000000000e+00  -6.7484537742530198e-05 -4.1243784931158890e-06 0.0000000000000000e+00  -9.4080965855340823e-05 -5.7666821687592277e-06 0.0000000000000000e+00  -1.2440323384598295e-04 -7.6552899809273883e-06 0.0000000000000000e+00  -1.5965358738514754e-04 -9.8741728006874408e-06 0.0000000000000000e+00  -2.0122403219894336e-04 -1.2523772029945327e-05 0.0000000000000000e+00  -2.5073974835525205e-04 -1.5725158782818744e-05 0.0000000000000000e+00  -3.1009994330468630e-04 -1.9622800384441822e-05 0.0000000000000000e+00  -3.8150985429698524e-04 -2.4381585744453618e-05 0.0000000000000000e+00  -4.6749524259459319e-04 -3.0166572201808375e-05 0.0000000000000000e+00  -5.7089267816865658e-04 -3.7077166657680946e-05 0.0000000000000000e+00  -6.9482572864016507e-04 -4.4972375671898648e-05 0.0000000000000000e+00  -8.4273180216848321e-04 -5.3064792918555968e-05 0.0000000000000000e+00  -1.0186366434193027e-03 -5.9109487165781795e-05 0.0000000000000000e+00  -1.2281724990946283e-03 -5.8069883043227755e-05 0.0000000000000000e+00  0.0000000000000000e+00 0.0000000000000000e+00 0.0000000000000000e+00  -2.0398063773986397e-05 -1.2683864252098325e-06 0.0000000000000000e+00  -4.1639811972611325e-05 -2.5951378701430680e-06 0.0000000000000000e+00  -6.4603608027483144e-05 -4.0420701761088810e-06 0.0000000000000000e+00  -9.0249376892835473e-05 -5.6787472348802853e-06 0.0000000000000000e+00  -1.1966448806791587e-04 -7.5873686468732770e-06 0.0000000000000000e+00  -1.5411603891015029e-04 -9.8690793744749915e-06 0.0000000000000000e+00  -1.9511124096963759e-04 -1.2652535225665988e-05 0.0000000000000000e+00  -2.4446665112496914e-04 -1.6105887899977611e-05 0.0000000000000000e+00  -3.0438489828342843e-04 -2.0453606258503569e-05 0.0000000000000000e+00  -3.7753379487256565e-04 -2.5998972755362830e-05 0.0000000000000000e+00  -4.6711757620644185e-04 -3.3149042183509504e-05 0.0000000000000000e+00  -5.7692748113710073e-04 -4.2423187367753057e-05 0.0000000000000000e+00  -7.1137471000383163e-04 -5.4376802709671752e-05 0.0000000000000000e+00  -8.7558722053757219e-04 -6.9239847678218125e-05 0.0000000000000000e+00  -1.0758645326180538e-03 -8.5830408297390712e-05 0.0000000000000000e+00  -1.3210192758673041e-03 -9.9180080693255391e-05 0.0000000000000000e+00  0.0000000000000000e+00 0.0000000000000000e+00 0.0000000000000000e+00  -1.8598307244596935e-05 -1.1773573682451573e-06 0.0000000000000000e+00  -3.7997931767701016e-05 -2.4130807947765270e-06 0.0000000000000000e+00  -5.9035621870553316e-05 -3.7694030278209578e-06 0.0000000000000000e+00  -8.2636765120135027e-05 -5.3176194172495928e-06 0.0000000000000000e+00  -1.0986744025505043e-04 -7.1440378903535309e-06 0.0000000000000000e+00  -1.4199689211904211e-04 -9.3580451372077591e-06 0.0000000000000000e+00  -1.8057451883466560e-04 -1.2103809138596349e-05 0.0000000000000000e+00  -2.2752535059778343e-04 -1.5578274158812181e-05 0.0000000000000000e+00  -2.8526653908195556e-04 -2.0060252546699622e-05 0.0000000000000000e+00  -3.5684296227835136e-04 -2.5959208523073679e-05 0.0000000000000000e+00  -4.4607063514135077e-04 -3.3897826134098865e-05 0.0000000000000000e+00  -5.5766271356963069e-04 -4.4845316337483716e-05 0.0000000000000000e+00  -6.9731136522763204e-04 -6.0293741934602805e-05 0.0000000000000000e+00  -8.7179506627990710e-04 -8.2308538037070109e-05 0.0000000000000000e+00  -1.0896895205732772e-03 -1.1261555536639821e-04 0.0000000000000000e+00  -1.3641467445380895e-03 -1.4999870407641204e-04 0.0000000000000000e+00  0.0000000000000000e+00 0.0000000000000000e+00 0.0000000000000000e+00  -1.6002117222712220e-05 -1.0281738636770062e-06 0.0000000000000000e+00  -3.2719283963499954e-05 -2.1103534111503744e-06 0.0000000000000000e+00  -5.0900443311326013e-05 -3.3043420374072558e-06 0.0000000000000000e+00  -7.1383188121947386e-05 -4.6770900577825182e-06 0.0000000000000000e+00  -9.5147887908421228e-05 -6.3107212861373455e-06 0.0000000000000000e+00  -1.2338566796543879e-04 -8.3107373673292743e-06 0.0000000000000000e+00  -1.5758697574398697e-04 -1.0817996962544754e-05 0.0000000000000000e+00  -1.9965899951538861e-04 -1.4027471133478691e-05 0.0000000000000000e+00  -2.5208093544889620e-04 -1.8219984415185448e-05 0.0000000000000000e+00  -3.1810353310359173e-04 -2.3820642608397198e-05 0.0000000000000000e+00  -4.0198784811888011e-04 -3.1514962811566202e-05 0.0000000000000000e+00  -5.0924771435111418e-04 -4.2491638164966357e-05 0.0000000000000000e+00  -6.4680427024315051e-04 -5.8953231802279211e-05 0.0000000000000000e+00  -8.2293758530701774e-04 -8.5112775611439150e-05 0.0000000000000000e+00  -1.0474791132998509e-03 -1.2834444431629075e-04 0.0000000000000000e+00  -1.3393332379900780e-03 -1.8824658180352128e-04 0.0000000000000000e+00  0.0000000000000000e+00 0.0000000000000000e+00 0.0000000000000000e+00  -1.2696762345346682e-05 -8.2529456779386114e-07 0.0000000000000000e+00  -2.5978536736427748e-05 -1.6958218552214255e-06 0.0000000000000000e+00  -4.0459864653895514e-05 -2.6600630273778792e-06 0.0000000000000000e+00  -5.6834917198115253e-05 -3.7744534803918729e-06 0.0000000000000000e+00  -7.5927852617971796e-05 -5.1084705690382772e-06 0.0000000000000000e+00  -9.8758651187281796e-05 -6.7512649154938591e-06 0.0000000000000000e+00  -1.2663327352674758e-04 -8.8206772345609098e-06 0.0000000000000000e+00  -1.6127074705920332e-04 -1.1476026559871988e-05 0.0000000000000000e+00  -2.0498465249435346e-04 -1.4937618724553000e-05 0.0000000000000000e+00  -2.6094089621985048e-04 -1.9521002159696872e-05 0.0000000000000000e+00  -3.3351139321479708e-04 -2.5710881686110266e-05 0.0000000000000000e+00  -4.2871488369899578e-04 -3.4354268129247344e-05 0.0000000000000000e+00  -5.5462853499584725e-04 -4.7223328088700432e-05 0.0000000000000000e+00  -7.2134187105212541e-04 -6.8744169590544751e-05 0.0000000000000000e+00  -9.3923832517101534e-04 -1.1192506077403184e-04 0.0000000000000000e+00  -1.2109130048382959e-03 -2.3036561459368121e-04 0.0000000000000000e+00  0.0000000000000000e+00 0.0000000000000000e+00 0.0000000000000000e+00  -8.8117061373063163e-06 -5.7748701411611486e-07 0.0000000000000000e+00  -1.8039112171495485e-05 -1.1875542618750961e-06 0.0000000000000000e+00  -2.8120030871548721e-05 -1.8651157653574376e-06 0.0000000000000000e+00  -3.9553066270474608e-05 -2.6508469086322457e-06 0.0000000000000000e+00  -5.2937221879099253e-05 -3.5946636732092001e-06 0.0000000000000000e+00  -6.9025461672342158e-05 -4.7598145770335150e-06 0.0000000000000000e+00  -8.8801255809243978e-05 -6.2272926816781165e-06 0.0000000000000000e+00  -1.1359242352739305e-04 -8.0991482269701368e-06 0.0000000000000000e+00  -1.4524533001983691e-04 -1.0496416746622013e-05 0.0000000000000000e+00  -1.8639633137073253e-04 -1.3540836068201517e-05 0.0000000000000000e+00  -2.4089751273217321e-04 -1.7297056820198229e-05 0.0000000000000000e+00  -3.1447873897980392e-04 -2.1637898806040005e-05 0.0000000000000000e+00  -4.1574661741383836e-04 -2.6019781053237900e-05 0.0000000000000000e+00  -5.5755725634372378e-04 -2.9366834630832647e-05 0.0000000000000000e+00  -7.5809209526323429e-04 -3.0950836188947328e-05 0.0000000000000000e+00  -1.0381858352243171e-03 -3.5308688746697236e-05 0.0000000000000000e+00  0.0000000000000000e+00 0.0000000000000000e+00 0.0000000000000000e+00  -4.5141070608710483e-06 -2.9728610781584217e-07 0.0000000000000000e+00  -9.2444886041103759e-06 -6.1163433936688369e-07 0.0000000000000000e+00  -1.4419371019079482e-05 -9.6131808846461598e-07 0.0000000000000000e+00  -2.0300170988452007e-05 -1.3676081432991956e-06 0.0000000000000000e+00  -2.7203605531150338e-05 -1.8564723965909295e-06 0.0000000000000000e+00  -3.5532344197353878e-05 -2.4603025912705789e-06 0.0000000000000000e+00  -4.5820212617878665e-05 -3.2189238528662173e-06 0.0000000000000000e+00  -5.8802052880121204e-05 -4.1773404282014273e-06 0.0000000000000000e+00  -7.5525484676308737e-05 -5.3723345189137642e-06 0.0000000000000000e+00  -9.7532785287689788e-05 -6.7842077905944400e-06 0.0000000000000000e+00  -1.2715024665652851e-04 -8.1831024850514946e-06 0.0000000000000000e+00  -1.6788690819952501e-04 -8.6647624744768877e-06 0.0000000000000000e+00  -2.2465638467703016e-04 -5.3274735327462576e-06 0.0000000000000000e+00  -3.0222896561304708e-04 9.9892959280783275e-06 0.0000000000000000e+00  -3.9663737199967009e-04 5.5444911143850086e-05 0.0000000000000000e+00  -4.7565229196882500e-04 1.4968174080775342e-04 0.0000000000000000e+00  0.0000000000000000e+00 0.0000000000000000e+00 0.0000000000000000e+00  0.0000000000000000e+00 0.0000000000000000e+00 0.0000000000000000e+00  0.0000000000000000e+00 0.0000000000000000e+00 0.0000000000000000e+00  0.0000000000000000e+00 0.0000000000000000e+00 0.0000000000000000e+00  0.0000000000000000e+00 0.0000000000000000e+00 0.0000000000000000e+00  0.0000000000000000e+00 0.0000000