<?xml version="1.0"?>
<VTKFile type="UnstructuredGrid"  version="0.1"  >
<UnstructuredGrid>
<Piece  NumberOfPoints="289" NumberOfCells="512">
<Points>
<DataArray  type="Float64"  NumberOfComponents="3"  format="ascii">0 0 0  0.0625 0 0  0.125 0 0  0.1875 0 0  0.25 0 0  0.3125 0 0  0.375 0 0  0.4375 0 0  0.5 0 0  0.5625 0 0  0.625 0 0  0.6875 0 0  0.75 0 0  0.8125 0 0  0.875 0 0  0.9375 0 0  1 0 0  0 0.0625 0  0.06249765600681974 0.06247929255952316 0  0.1249953431757211 0.06245822023176769 0  0.1874930920679878 0.06243644777326882 0  0.2499909771579582 0.06241371745834932 0  0.3124891503489845 0.06238989909750588 0  0.3749878932137203 0.06236505236147847 0  0.4374877017486651 0.06233950190435771 0  0.4999894275250308 0.06231392049068635 0  0.5624945186630299 0.06228940587131237 0  0.6250054434204961 0.06226752205679204 0  0.6875264611827224 0.06225025554294111 0  0.7500650733978401 0.06223982166129077 0  0.8126347615433896 0.06223828908182381 0  0.8752594973222293 0.06224724968782713 0  0.9379752362210823 0.0622691127390937 0  1.000778146698444 0.0623206477951261 0  0 0.125 0  0.06249526174381254 0.1249589358646682 0  0.12499057681289 0.1249171032993695 0  0.1874860011760883 0.1248737889036989 0  0.249981681318491 0.1248284252929213 0  0.3124779242802224 0.1247806882595185 0  0.3749753071797796 0.1247306215831869 0  0.4374748544404906 0.1246787933180739 0  0.4999783302066325 0.1246264784200411 0  0.5624887287367089 0.1245758451272539 0  0.6250111106795455 0.1245300917423417 0  0.6875540511692507 0.1244934318626213 0  0.7501321610432629 0.1244707615248621 0  0.8127703777212761 0.1244667888356226 0  0.8755106934953205 0.1244844687606407 0  0.9384213918143318 0.1245229508377007 0  1.00161878165061 0.1245744170702105 0  0 0.1875 0  0.06249283518860733 0.1874393406303259 0  0.1249857139306904 0.1873774387723725 0  0.1874786866245401 0.1873131233855131 0  0.2499719311447048 0.1872454184321989 0  0.3124658525828891 0.1871736795938178 0  0.374961239249599 0.187097778566249 0  0.4374595126673382 0.1870183472795464 0  0.4999631309449667 0.1869370855430944 0  0.5624762393252118 0.1868571151391232 0  0.625005712649864 0.1867833212949808 0  0.6875627973753717 0.1867225416925214 0  0.7501655941497963 0.1866833111269927 0  0.8128424756116538 0.1866745657948908 0  0.8756358728936692 0.1867019906376698 0  0.9386046496753478 0.1867585956336903 0  1.001825071895319 0.1867995338426664 0  0 0.25 0  0.062490427191095 0.2499209872243618 0  0.1249808380146446 0.2498401655994775 0  0.1874712252798575 0.2497557998851828 0  0.2499617260042874 0.2496663669555223 0  0.3124527364808595 0.2495707171147987 0  0.3749450934589396 0.2494683066129678 0  0.4374403630501344 0.2493595284640387 0  0.4999412979319255 0.24924616608671 0  0.562452546910116 0.2491319809434692 0  0.6249817207390328 0.2490234084456871 0  0.6875409075762969 0.2489302522600484 0  0.7501486223643175 0.2488660935787202 0  0.812831832581815 0.248847798456291 0  0.8756269888069083 0.2488929262712153 0  0.9385781922751179 0.2490131170159783 0  1.00173134508097 0.2492022054700241 0  0 0.3125 0  0.06248812733212428 0.3124044464808066 0  0.124976119607022 0.3123064196667228 0  0.1874638492830508 0.3122035024071134 0  0.2499513226864701 0.3120934615875191 0  0.3124387918946129 0.3119744090448975 0  0.3749269357531964 0.3118450566059785 0  0.4374171530122644 0.3117051118518965 0  0.4999120277563352 0.3115558719665976 0  0.562416043892801 0.3114010799336803 0  0.624936627436406 0.3112480986186499 0  0.6874855502851202 0.3111094085119647 0  0.7500805792959385 0.3110042950202838 0  0.8127469406426124 0.3109602808791865 0  0.8755177786257278 0.3110132914446677 0  0.9384329948674216 0.3112047607477592 0  1.001538622130365 0.3115733735626893 0  0 0.375 0  0.06248606122280342 0.3748903844335768 0  0.1249718139812623 0.3747775492832731 0  0.1874569504413389 0.3746582897888971 0  0.2499412567570131 0.3745295004780612 0  0.312424701829571 0.3743882995497932 0  0.3749075921212062 0.374232261662093 0  0.4373908376661985 0.3740598250847604 0  0.499876396241554 0.3738709688160102 0  0.5623679875404053 0.3736682948520602 0  0.6248721852386404 0.3734586953878907 0  0.6873999737517842 0.3732558143578207 0  0.7499687502883818 0.3730834726154568 0  0.812604522130052 0.3729799953367094 0  0.8753437881260745 0.3730027513965026 0  0.9382348299752749 0.3732309694698342 0  1.001340155469315 0.3737630920214317 0  0 0.4375 0  0.062484379443575 0.4373795451636931 0  0.1249682397920852 0.4372550856452745 0  0.1874510501891475 0.4371225651440382 0  0.2499323063550742 0.4369778800456072 0  0.3124115764745967 0.4368169223741157 0  0.374888602846963 0.4366357267197506 0  0.4373635074371782 0.4364307982301179 0  0.4998371841850318 0.4361997479531499 0  0.5623120144581597 0.4359424405087899 0  0.6247931149444788 0.4356629780230435 0  0.6872904055663288 0.4353730060467752 0  0.7498218223223215 0.4350969967769014 0  0.8124179027045931 0.4348801979172313 0  0.8751276355677838 0.4347994570328488 0  0.9380250028150954 0.434975500294355 0  1.001216017088451 0.4355821426991252 0  0 0.5 0  0.06248323989298797 0.4998727072865376 0  0.1249657420517198 0.4997406573325537 0  0.1874467400114321 0.4995989533831902 0  0.2499254058404131 0.4994424491869672 0  0.3124008352982245 0.4992656640196008 0  0.3748720675764591 0.4990627695773256 0  0.4373381866396039 0.4988277191030729 0  0.4997986032014826 0.4985546500438056 0  0.5622537153066877 0.4982388017925851 0  0.624706321234114 0.4978783854503409 0  0.6871644398237029 0.4974781754996393 0  0.7496465667097946 0.4970561140551196 0  0.8121906981781895 0.4966548754961818 0  0.8748682062898236 0.4963606654165889 0  0.9378020778113981 0.4963300383971979 0  1.001186514485389 0.4968197018704578 0  0 0.5625 0  0.06248278632029143 0.5623706128709518 0  0.1249646449260074 0.5622358442524754 0  0.1874446004469884 0.5620900737484151 0  0.2499215199527545 0.5619271954176415 0  0.3123940249207851 0.5617403687514428 0  0.3748604016207655 0.5615217784972946 0  0.4373185426087992 0.5612624416872153 0  0.4997660144901948 0.5609521546890615 0  0.5622004896986464 0.5605797857240647 0  0.6246210842832194 0.5601343503662385 0  0.6870317412875676 0.5596077824076303 0  0.7494488370874924 0.5590012601731044 0  0.8119166189350252 0.5583387032105172 0  0.8745350423076867 0.5576936659104426 0  0.9375023637344559 0.5572372833970812 0  1.001165355730645 0.5573079865361109 0  0 0.625 0  0.06248312627814355 0.6248738728992879 0  0.124965200957364 0.6247419777396922 0  0.1874451084431541 0.6245982127640618 0  0.2499214897433674 0.624435758400178 0  0.3123925802777646 0.6242466529874019 0  0.3748559953549302 0.6240212904549738 0  0.4373084601421826 0.623747821161695 0  0.4997455299208206 0.6234114600055198 0  0.5621614927567826 0.6229937711099024 0  0.6245500337394607 0.6224721712837423 0  0.6869071737667174 0.6218203429915383 0  0.7492400389185154 0.6210114062308434 0  0.8115888834052067 0.6200286419123706 0  0.8740752013046992 0.618895438359952 0  0.9369905985823926 0.6177476060227878 0  1.00092693648739 0.6169687111191924 0  0 0.6875 0  0.06248431185308208 0.6873828600658654 0  0.124967544116705 0.6872599085265749 0  0.1874485451093131 0.6871249298319299 0  0.2499258655482267 0.6869708107309049 0  0.3123975395260935 0.6867889668158874 0  0.374860758187202 0.6865685993403063 0  0.4373113769301121 0.6862956933919927 0  0.4997431952578024 0.6859516393245688 0  0.5621470125477085 0.68551132740975 0  0.6245097577044264 0.6849405565347195 0  0.686814981364083 0.6841927155089041 0  0.7490488889053681 0.6832053460440586 0  0.8112235851652841 0.6818999479984336 0  0.8734454613078851 0.6801991509828456 0  0.9360772203084312 0.6781130048676361 0  1.000028143157724 0.6759982648159534 0  0 0.75 0  0.06248632646628691 0.7498976061830527 0  0.1249716549860101 0.7497897795887591 0  0.1874549201475551 0.7496706571871998 0  0.2499347541175092 0.7495333996208278 0  0.3124092486800114 0.7493695360209326 0  0.3748755719205336 0.7491680698786597 0  0.4373293237625984 0.7489141971149841 0  0.4997634343487455 0.7485874058042882 0  0.5621662962315808 0.748158587204329 0  0.624518743189425 0.7475855427210606 0  0.6867898057517606 0.746805832982397 0  0.7489333320125634 0.7457251687002139 0  0.8108966860594543 0.744198747404642 0  0.8726851674572924 0.7420060285166944 0  0.9346197705753415 0.7388596309956146 0  0.997870045060656 0.7348701394568314 0  0 0.8125 0  0.0624890806626206 0.8124177254915383 0  0.1249773467550284 0.8123308512485369 0  0.1874639337404689 0.812234378282587 0  0.2499477239418354 0.8121223890055875 0  0.3124271395105089 0.8119874104852018 0  0.3748997911573296 0.8118195175543736 0  0.4373618432512573 0.8116050017410096 0  0.4998068137453045 0.8113243239530582 0  0.5622232301037722 0.8109488748888608 0  0.6245899571041212 0.8104357003626348 0  0.6868668832096186 0.8097185857056985 0  0.7489771046157586 0.8086920842932068 0  0.8107777838771213 0.8071802215987751 0  0.8720407917265504 0.8048677362634662 0  0.9326352808438804 0.8011332930450903 0  0.9944573215220501 0.794632378678115 0  0 0.875 0  0.0624924186844087 0.8749423845891082 0  0.1249842787440906 0.8748814260002012 0  0.1874749957968946 0.874813472690684 0  0.2499638206475202 0.8747341572790951 0  0.3124497042782517 0.8746378899679389 0  0.3749310632899466 0.8745171312386537 0  0.4374053377357975 0.8743612916716654 0  0.4998680990445668 0.8741550108316299 0  0.5623111371997868 0.8738754027590494 0  0.6247181252663597 0.8734875745143843 0  0.6870542998748675 0.8729372204225896 0  0.7492408939414785 0.8721379849251252 0  0.8110900125984852 0.8709475997060799 0  0.8721371956040145 0.8691099173645508 0  0.9312217378308217 0.8660573122373767 0  0.9855684606636564 0.8600730514604887 0  0 0.9375 0  0.06249613537944949 0.9374703333699944 0  0.1249919980115337 0.9374389071676618 0  0.1874873094188416 0.9374037938547172 0  0.2499817218803249 0.9373626739895885 0  0.3124747650436584 0.9373125555933315 0  0.3749657551186271 0.9372493668984193 0  0.4374536235833781 0.93716733
[...]
<PointData  Vectors="f_54"> 
<DataArray  type="Float64"  Name="f_54"  NumberOfComponents="3" format="ascii">0.0000000000000000e+00 0.0000000000000000e+00 0.0000000000000000e+00  0.0000000000000000e+00 0.0000000000000000e+00 0.0000000000000000e+00  0.0000000000000000e+00 0.0000000000000000e+00 0.0000000000000000e+00  0.0000000000000000e+00 0.0000000000000000e+00 0.0000000000000000e+00  0.0000000000000000e+00 0.0000000000000000e+00 0.0000000000000000e+00  0.0000000000000000e+00 0.0000000000000000e+00 0.0000000000000000e+00  0.0000000000000000e+00 0.0000000000000000e+00 0.0000000000000000e+00  0.0000000000000000e+00 0.0000000000000000e+00 0.0000000000000000e+00  0.0000000000000000e+00 0.0000000000000000e+00 0.0000000000000000e+00  0.0000000000000000e+00 0.0000000000000000e+00 0.0000000000000000e+00  0.0000000000000000e+00 0.0000000000000000e+00 0.0000000000000000e+00  0.0000000000000000e+00 0.0000000000000000e+00 0.0000000000000000e+00  0.0000000000000000e+00 0.0000000000000000e+00 0.0000000000000000e+00  0.0000000000000000e+00 0.0000000000000000e+00 0.0000000000000000e+00  0.0000000000000000e+00 0.0000000000000000e+00 0.0000000000000000e+00  0.0000000000000000e+00 0.0000000000000000e+00 0.0000000000000000e+00  0.0000000000000000e+00 0.0000000000000000e+00 0.0000000000000000e+00  0.0000000000000000e+00 0.0000000000000000e+00 0.0000000000000000e+00  4.3872680619923986e-06 8.6565118737629800e-08 0.0000000000000000e+00  8.8857022226205119e-06 1.7409819391908542e-07 0.0000000000000000e+00  1.3606344105373839e-05 2.6339819630289672e-07 0.0000000000000000e+00  1.8653742699118744e-05 3.5479506515255928e-07 0.0000000000000000e+00  2.4120711315936775e-05 4.4786579543777081e-07 0.0000000000000000e+00  3.0080397881611813e-05 5.4109859332964053e-07 0.0000000000000000e+00  3.6574575593096615e-05 6.3150610898594088e-07 0.0000000000000000e+00  4.3596960475791966e-05 7.1420509891544869e-07 0.0000000000000000e+00  5.1070354310309164e-05 7.8198954581981658e-07 0.0000000000000000e+00  5.8816664050471478e-05 8.2488870004774229e-07 0.0000000000000000e+00  6.6519858899969083e-05 8.2949972405596094e-07 0.0000000000000000e+00  7.3685498170261251e-05 7.7713337324979952e-07 0.0000000000000000e+00  7.9613835569890159e-05 6.3717768407894713e-07 0.0000000000000000e+00  8.3457066484335775e-05 3.4236997515307424e-07 0.0000000000000000e+00  8.4656302020294838e-05 -3.0627832294603094e-07 0.0000000000000000e+00  8.5017898265141376e-05 -2.0222858976790029e-06 0.0000000000000000e+00  0.0000000000000000e+00 0.0000000000000000e+00 0.0000000000000000e+00  8.6601638032469116e-06 1.7209821222775817e-07 0.0000000000000000e+00  1.7545614104035458e-05 3.4635706832210783e-07 0.0000000000000000e+00  2.6881942351055718e-05 5.2461738413420155e-07 0.0000000000000000e+00  3.6883476955804312e-05 7.0782225799031850e-07 0.0000000000000000e+00  4.7743786143307997e-05 8.9546081148090950e-07 0.0000000000000000e+00  5.9620934389952553e-05 1.0848955079332803e-06 0.0000000000000000e+00  7.2615291738883562e-05 1.2705709334833226e-06 0.0000000000000000e+00  8.6737413010707604e-05 1.4431446291290414e-06 0.0000000000000000e+00  1.0186330003081453e-04 1.5886372532701733e-06 0.0000000000000000e+00  1.1767431536730544e-04 1.6877463188563091e-06 0.0000000000000000e+00  1.3357909646948774e-04 1.7154404508106295e-06 0.0000000000000000e+00  1.4861439889539055e-04 1.6407640560466763e-06 0.0000000000000000e+00  1.6131745103198285e-04 1.4266804907973678e-06 0.0000000000000000e+00  1.6953688116935647e-04 1.0326204669104219e-06 0.0000000000000000e+00  1.7001409199243999e-04 4.4635825640719331e-07 0.0000000000000000e+00  1.5685064563986798e-04 -8.0461660984663116e-08 0.0000000000000000e+00  0.0000000000000000e+00 0.0000000000000000e+00 0.0000000000000000e+00  1.2701994976074681e-05 2.5535244507307400e-07 0.0000000000000000e+00  2.5748483082785954e-05 5.1448602285388112e-07 0.0000000000000000e+00  3.9485746663069398e-05 7.8075003429547105e-07 0.0000000000000000e+00  5.4247362793809660e-05 1.0562550122719611e-06 0.0000000000000000e+00  7.0342387353556103e-05 1.3410721829828084e-06 0.0000000000000000e+00  8.8036018234602788e-05 1.6322258689985536e-06 0.0000000000000000e+00  1.0751943458501137e-04 1.9224566040189815e-06 0.0000000000000000e+00  1.2886494918631393e-04 2.1988038765740030e-06 0.0000000000000000e+00  1.5196209314507063e-04 2.4411835099606131e-06 0.0000000000000000e+00  1.7642984489185751e-04 2.6213265334221809e-06 0.0000000000000000e+00  2.0149974876361676e-04 2.7026776143774466e-06 0.0000000000000000e+00  2.2586313711766456e-04 2.6419917997116028e-06 0.0000000000000000e+00  2.4746974591071150e-04 2.3930070823682275e-06 0.0000000000000000e+00  2.6324614606952227e-04 1.9102036182765907e-06 0.0000000000000000e+00  2.6865650770382504e-04 1.1385499957776158e-06 0.0000000000000000e+00  2.5698415120467956e-04 -9.4542307799190067e-08 0.0000000000000000e+00  0.0000000000000000e+00 0.0000000000000000e+00 0.0000000000000000e+00  1.6391528513630354e-05 3.3465998716045511e-07 0.0000000000000000e+00  3.3252347918315231e-05 6.7530592372340278e-07 0.0000000000000000e+00  5.1056480951279271e-05 1.0274441227694020e-06 0.0000000000000000e+00  7.0268517710242378e-05 1.3951494616234308e-06 0.0000000000000000e+00  9.1332290256530547e-05 1.7800775500275701e-06 0.0000000000000000e+00  1.1465025840176743e-04 2.1801439025213305e-06 0.0000000000000000e+00  1.4054925785522051e-04 2.5877914505465024e-06 0.0000000000000000e+00  1.6922730579392887e-04 2.9878478449608377e-06 0.0000000000000000e+00  2.0067520509332349e-04 3.3551574832754967e-06 0.0000000000000000e+00  2.3456595469871234e-04 3.6525349676164347e-06 0.0000000000000000e+00  2.7010467267329783e-04 3.8302081553829447e-06 0.0000000000000000e+00  3.0583192181437554e-04 3.8288125282468231e-06 0.0000000000000000e+00  3.3937392827615892e-04 3.5889017499669342e-06 0.0000000000000000e+00  3.6713594760204473e-04 3.0699169867796477e-06 0.0000000000000000e+00  3.8395359399909137e-04 2.2789649045136301e-06 0.0000000000000000e+00  3.8281072815373525e-04 1.3088861671494854e-06 0.0000000000000000e+00  0.0000000000000000e+00 0.0000000000000000e+00 0.0000000000000000e+00  1.9602750387035694e-05 4.0778036446768835e-07 0.0000000000000000e+00  3.9803390804286459e-05 8.2441545251179736e-07 0.0000000000000000e+00  6.1209197739997529e-05 1.2583265912828530e-06 0.0000000000000000e+00  8.4427016411106194e-05 1.7165350814593344e-06 0.0000000000000000e+00  1.1005596872066670e-04 2.2035928839203412e-06 0.0000000000000000e+00  1.3866991194721721e-04 2.7200260281373932e-06 0.0000000000000000e+00  1.7078440192113079e-04 3.2601033399906303e-06 0.0000000000000000e+00  2.0680139110146133e-04 3.8087806077735460e-06 0.0000000000000000e+00  2.4692323244805209e-04 4.3378355921605396e-06 0.0000000000000000e+00  2.9102615948124755e-04 4.8016594565999996e-06 0.0000000000000000e+00  3.3848297936181856e-04 5.1341749290578353e-06 0.0000000000000000e+00  3.8792639102716299e-04 5.2502866282794926e-06 0.0000000000000000e+00  4.3695000675513478e-04 5.0584378232435815e-06 0.0000000000000000e+00  4.8175770205307076e-04 4.4948753607253807e-06 0.0000000000000000e+00  5.1680326006547917e-04 3.5927379209243072e-06 0.0000000000000000e+00  5.3453371467287081e-04 2.5934879051784740e-06 0.0000000000000000e+00  0.0000000000000000e+00 0.0000000000000000e+00 0.0000000000000000e+00  2.2206882373132531e-05 4.7182667089728053e-07 0.0000000000000000e+00  4.5139495264822462e-05 9.5600792159851483e-07 0.0000000000000000e+00  6.9539367244801111e-05 1.4646351105910685e-06 0.0000000000000000e+00  9.6162768069438256e-05 2.0087367999999712e-06 0.0000000000000000e+00  1.2578148282721025e-04 2.5973042034298427e-06 0.0000000000000000e+00  1.5917357512765720e-04 3.2356837516584133e-06 0.0000000000000000e+00  1.9709831753384109e-04 3.9229935045632944e-06 0.0000000000000000e+00  2.4024718259315679e-04 4.6481344538457937e-06 0.0000000000000000e+00  2.8916000071390691e-04 5.3839581379086306e-06 0.0000000000000000e+00  3.4409254902876754e-04 6.0794224161798418e-06 0.0000000000000000e+00  4.0482000944003276e-04 6.6505859549108958e-06 0.0000000000000000e+00  4.7036194909889185e-04 6.9739896341523727e-06 0.0000000000000000e+00  5.3862174712608635e-04 6.8918529073548945e-06 0.0000000000000000e+00  6.0594951374571724e-04 6.2491032342703506e-06 0.0000000000000000e+00  6.6666065318923492e-04 4.9966365276183745e-06 0.0000000000000000e+00  7.1255498776342239e-04 3.4043229091313169e-06 0.0000000000000000e+00  0.0000000000000000e+00 0.0000000000000000e+00 0.0000000000000000e+00  2.4077090941634259e-05 5.2330448661457651e-07 0.0000000000000000e+00  4.8999479360773565e-05 1.0629135316748801e-06 0.0000000000000000e+00  7.5636201303113602e-05 1.6351822256495155e-06 0.0000000000000000e+00  1.0489200813820349e-04 2.2561091142218050e-06 0.0000000000000000e+00  1.3772033448182511e-04 2.9407120274419799e-06 0.0000000000000000e+00  1.7512814919364131e-04 3.7017081789972753e-06 0.0000000000000000e+00  2.1816691290541844e-04 4.5469998736772271e-06 0.0000000000000000e+00  2.6790071119903560e-04 5.4751816408506142e-06 0.0000000000000000e+00  3.2533829357176135e-04 6.4678979645798078e-06 0.0000000000000000e+00  3.9131045025398819e-04 7.4775077561429094e-06 0.0000000000000000e+00  4.6626905130785700e-04 8.4086201824468997e-06 0.0000000000000000e+00  5.4998210604026486e-04 9.0940196713003905e-06 0.0000000000000000e+00  6.4110574527912584e-04 9.2725099348636615e-06 0.0000000000000000e+00  7.3663451914737874e-04 8.5942043393399240e-06 0.0000000000000000e+00  8.3125876421967742e-04 6.7147331515107625e-06 0.0000000000000000e+00  9.1664138276310034e-04 3.5938688273398814e-06 0.0000000000000000e+00  0.0000000000000000e+00 0.0000000000000000e+00 0.0000000000000000e+00  2.5096020150618860e-05 5.5829749413327654e-07 0.0000000000000000e+00  5.1138384452024331e-05 1.1369469711135745e-06 0.0000000000000000e+00  7.9106079695471574e-05 1.7568023323780414e-06 0.0000000000000000e+00  1.1003915065091524e-04 2.4394406335951675e-06 0.0000000000000000e+00  1.4506748384765834e-04 3.2071983734048939e-06 0.0000000000000000e+00  1.8543544959775948e-04 4.0826289001896048e-06 0.0000000000000000e+00  2.3251771880886517e-04 5.0868264410322387e-06 0.0000000000000000e+00  2.8781770807769267e-04 6.2355755318266774e-06 0.0000000000000000e+00  3.5293407514188626e-04 7.5314077015094195e-06 0.0000000000000000e+00  4.2947202568701748e-04 8.9481703202634197e-06 0.0000000000000000e+00  5.1886545215345994e-04 1.0402560585369538e-05 0.0000000000000000e+00  6.2206661933472251e-04 1.1705040028125416e-05 0.0000000000000000e+00  7.3906210400139156e-04 1.2484411419644537e-05 0.0000000000000000e+00  8.6820534285154299e-04 1.2097405650758431e-05 0.0000000000000000e+00  1.0054298726442311e-03 9.5897341593991073e-06 0.0000000000000000e+00  1.1434576004552394e-03 3.8895086800011324e-06 0.0000000000000000e+00  0.0000000000000000e+00 0.0000000000000000e+00 0.0000000000000000e+00  2.5165871775707704e-05 5.7282114245116445e-07 0.0000000000000000e+00  5.1348381711358814e-05 1.1696205861966467e-06 0.0000000000000000e+00  7.9605729345365563e-05 1.8154207645869476e-06 0.0000000000000000e+00  1.1108419421169540e-04 2.5373215003866340e-06 0.0000000000000000e+00  1.4706501978908838e-04 3.3654844200641916e-06 0.0000000000000000e+00  1.8901340868581113e-04 4.3339078153858161e-06 0.0000000000000000e+00  2.3862756141390201e-04 5.4806026410221053e-06 0.0000000000000000e+00  2.9788177720011167e-04 6.8462499887659112e-06 0.0000000000000000e+00  3.6905050127928663e-04 8.4692552624963648e-06 0.0000000000000000e+00  4.5468806702039490e-04 1.0372602265561129e-05 0.0000000000000000e+00  5.5752027516945291e-04 1.2532715565908466e-05 0.0000000000000000e+00  6.8018062534179111e-04 1.4810706412505677e-05 0.0000000000000000e+00  8.2470916573972194e-04 1.6811219608704975e-05 0.0000000000000000e+00  9.9176838505109547e-04 1.7623170644342261e-05 0.0000000000000000e+00  1.1797120855350088e-03 1.5433163156664817e-05 0.0000000000000000e+00  1.3840757081749265e-03 7.1690848066433290e-06 0.0000000000000000e+00  0.0000000000000000e+00 0.0000000000000000e+00 0.0000000000000000e+00  2.4220251235236349e-05 5.6333612175733854e-07 0.0000000000000000e+00  4.9483810561641617e-05 1.1532240409109928e-06 0.0000000000000000e+00  7.6883154543390294e-05 1.7977993883687876e-06 0.0000000000000000e+00  1.0762358353521345e-04 2.5286777459142739e-06 0.0000000000000000e+00  1.4308813760005210e-04 3.3830276527331252e-06 0.0000000000000000e+00  1.8491282945800949e-04 4.4060320859765020e-06 0.0000000000000000e+00  2.3507457806785202e-04 5.6537936169739944e-06 0.0000000000000000e+00  2.9599160324534512e-04 7.1964928938821806e-06 0.0000000000000000e+00  3.7062969550857980e-04 9.1208343173823192e-06 0.0000000000000000e+00  4.6259414294946708e-04 1.1528526246300372e-05 0.0000000000000000e+00  5.7616075614590971e-04 1.4521118321515456e-05 0.0000000000000000e+00  7.1615495829713705e-04 1.8144378003204534e-05 0.0000000000000000e+00  8.8753026400052184e-04 2.2223237792524855e-05 0.0000000000000000e+00  1.0944797304730230e-03 2.5930914856666061e-05 0.0000000000000000e+00  1.3391334019657844e-03 2.6826570402944936e-05 0.0000000000000000e+00  1.6206506625309368e-03 1.9139538147328275e-05 0.0000000000000000e+00  0.0000000000000000e+00 0.0000000000000000e+00 0.0000000000000000e+00  2.2236441288503574e-05 5.2736751101236468e-07 0.0000000000000000e+00  4.5487653061569219e-05 1.0821689054665578e-06 0.0000000000000000e+00  7.0822272780754074e-05 1.6938333063941857e-06 0.0000000000000000e+00  9.9439321724092335e-05 2.3963945387584696e-06 0.0000000000000000e+00  1.3274772293390714e-04 3.2315185995952750e-06 0.0000000000000000e+00  1.7246512874823924e-04 4.2525720862837013e-06 0.0000000000000000e+00  2.2074450949399058e-04 5.5303922760022878e-06 0.0000000000000000e+00  2.8033757299398431e-04 7.1617846134530269e-06 0.0000000000000000e+00  3.5480207554458674e-04 9.2822932513290175e-06 0.0000000000000000e+00  4.4875067661989725e-04 1.2085139326912031e-05 0.0000000000000000e+00  5.6811206209825152e-04 1.5846505784020068e-05 0.0000000000000000e+00  7.2031210223113629e-04 2.0945496183439449e-05 0.0000000000000000e+00  9.1416011520840034e-04 2.7815256506964598e-05 0.0000000000000000e+00  1.1590597451578994e-03 3.6574015401711955e-05 0.0000000000000000e+00  1.4632952592704201e-03 4.5574141143303650e-05 0.0000000000000000e+00  1.8331359629445948e-03 4.8475053207956161e-05 0.0000000000000000e+00  0.0000000000000000e+00 0.0000000000000000e+00 0.0000000000000000e+00  1.9246250509409066e-05 4.6412413413744096e-07 0.0000000000000000e+00  3.9415554183297195e-05 9.5437206000492168e-07 0.0000000000000000e+00  6.1485006816720662e-05 1.4990242549974889e-06 0.0000000000000000e+00  8.6567397024465875e-05 2.1314802337892772e-06 0.0000000000000000e+00  1.1599790552202230e-04 2.8937855325966570e-06 0.0000000000000000e+00  1.5144772191586224e-04 3.8416201982933093e-06 0.0000000000000000e+00  1.9507951006820395e-04 5.0518485900216865e-06 0.0000000000000000e+00  2.4976537788821230e-04 6.6346666815536910e-06 0.0000000000000000e+00  3.1939482905900035e-04 8.7544265015373999e-06 0.0000000000000000e+00  4.0930480629749078e-04 1.1667760909830624e-05 0.0000000000000000e+00  5.2685529387988008e-04 1.5797421095996439e-05 0.0000000000000000e+00  6.8212095959681047e-04 2.1878344132265025e-05 0.0000000000000000e+00  8.8849668604877292e-04 3.1227383174267602e-05 0.0000000000000000e+00  1.1625754200136678e-03 4.6068258450522912e-05 0.0000000000000000e+00  1.5219056302765055e-03 6.8579937837788855e-05 0.0000000000000000e+00  1.9836703558345327e-03 8.6793350060841257e-05 0.0000000000000000e+00  0.0000000000000000e+00 0.0000000000000000e+00 0.0000000000000000e+00  1.5343257564042989e-05 3.7497731296811570e-07 0.0000000000000000e+00  3.1452634491477590e-05 7.7235595112664116e-07 0.0000000000000000e+00  4.9142721131501334e-05 1.2165342183872050e-06 0.0000000000000000e+00  6.9352892437622089e-05 1.7367257476886960e-06 0.0000000000000000e+00  9.3230061706801927e-05 2.3703186338408591e-06 0.0000000000000000e+00  1.2224169367718366e-04 3.1676584473397092e-06 0.0000000000000000e+00  1.5833848886934561e-04 4.1992838419159009e-06 0.0000000000000000e+00  2.0419720893606366e-04 5.5675070167315236e-06 0.0000000000000000e+00  2.6359221979581950e-04 7.4263170905242587e-06 0.0000000000000000e+00  3.4197239557551983e-04 1.0019272109561343e-05 0.0000000000000000e+00  4.4735787656926228e-04 1.3762022226201334e-05 0.0000000000000000e+00  5.9170045641870450e-04 1.9449232801241344e-05 0.0000000000000000e+00  7.9277997483559340e-04 2.8833787950596260e-05 0.0000000000000000e+00  1.0761739279725483e-03 4.6358094931055515e-05 0.0000000000000000e+00  1.4742556132918191e-03 8.4646197430145965e-05 0.0000000000000000e+00  1.9990581331991407e-03 1.8680986378598194e-04 0.0000000000000000e+00  0.0000000000000000e+00 0.0000000000000000e+00 0.0000000000000000e+00  1.0684317798987233e-05 2.6366267901574406e-07 0.0000000000000000e+00  2.1918239403176651e-05 5.4374077519935119e-07 0.0000000000000000e+00  3.4288168539612253e-05 8.5817479984984283e-07 0.0000000000000000e+00  4.8476799562703937e-05 1.2286101685930978e-06 0.0000000000000000e+00  6.5328779204583420e-05 1.6829491541872705e-06 0.0000000000000000e+00  8.5943149280687909e-05 2.2588762433291155e-06 0.0000000000000000e+00  1.1181149082551201e-04 3.0088362016396588e-06 0.0000000000000000e+00  1.4503389070911031e-04 4.0069535689703991e-06 0.0000000000000000e+00  1.8866948981923542e-04 5.3580672595907440e-06 0.0000000000000000e+00  2.4732505707653957e-04 7.2079830826940991e-06 0.0000000000000000e+00  3.2817479973563132e-04 9.7525126277843351e-06 0.0000000000000000e+00  4.4277920773654186e-04 1.3249084674481742e-05 0.0000000000000000e+00  6.1041546131141821e-04 1.8104425561706484e-05 0.0000000000000000e+00  8.6434096890549762e-04 2.5524786249931032e-05 0.0000000000000000e+00  1.2639808793745333e-03 4.1081350781725216e-05 0.0000000000000000e+00  1.9198955780073553e-03 8.9821872119664578e-05 0.0000000000000000e+00  0.0000000000000000e+00 0.0000000000000000e+00 0.0000000000000000e+00  5.4837775162391954e-06 1.3612331052476213e-07 0.0000000000000000e+00  1.1254864345828969e-05 2.8092921800289355e-07 0.0000000000000000e+00  1.7620491447252509e-05 4.4392187642637510e-07 0.0000000000000000e+00  2.4940495782985316e-05 6.3660580777257014e-07 0.0000000000000000e+00  3.3663827432581185e-05 8.7383258785131846e-07 0.0000000000000000e+00  4.4380928513502330e-05 1.1755708229525559e-06 0.0000000000000000e+00  5.7903832554029235e-05 1.5691023856758228e-06 0.0000000000000000e+00  7.5394933444093481e-05 2.0910438240521934e-06 0.0000000000000000e+00  9.8583148365586623e-05 2.7863221549771724e-06 0.0000000000000000e+00  1.3014121378021143e-04 3.6932195485812914e-06 0.0000000000000000e+00  1.7436496051040649e-04 4.7757144333292265e-06 0.0000000000000000e+00  2.3840505645869288e-04 5.6673937915514407e-06 0.0000000000000000e+00  3.3434944917720569e-04 4.7595293847944693e-06 0.0000000000000000e+00  4.8151653320754537e-04 -3.8614553895385826e-06 0.0000000000000000e+00  7.0138118480347878e-04 -3.8958065931501478e-05 0.0000000000000000e+00  9.7331283784721765e-04 -1.4030052782595012e-04 0.0000000000000000e+00  0.0000000000000000e+00 0.0000000000000000e+00 0.0000000000000000e+00  0.0000000000000000e+00 0.0000000000000000e+00 0.0000000000000000e+00  0.0000000000000000e+00 0.0000000000000000e+00 0.0000000000000000e+00  0.0000000000000000e+00 0.0000000000000000e+00 0.0000000000000000e+00  0.0000000000000000e+00 0.0000000000000000e+00 0.0000000000000000e+00  0.0000000000000000e+00 0.0000000000000000e+00 0.0000000000000000e+00  0.0000000000000000e+00 0.0000000000000000e+00 0.0000000000000000e+00  0.0000000000000000e+00 0.0000000000000000e+00 0.0000000000000000e+00  0.0000000000000000e+00 0.0000000000000000e+00 0.0000000000000000e+00  0.0000000000000000e+00 0.0000000000000000e+00 0.0000000000000000e+00  0.0000000000000000e+00 0.0000000000000000e+00 0.0000000000000000e+00  0.0000000000000000e+00 0.0000000000000000e+00 0.0000000000000000e+00  0.000