<?xml version="1.0"?>
<VTKFile type="UnstructuredGrid"  version="0.1"  >
<UnstructuredGrid>
<Piece  NumberOfPoints="289" NumberOfCells="512">
<Points>
<DataArray  type="Float64"  NumberOfComponents="3"  format="ascii">0 0 0  0.0625 0 0  0.125 0 0  0.1875 0 0  0.25 0 0  0.3125 0 0  0.375 0 0  0.4375 0 0  0.5 0 0  0.5625 0 0  0.625 0 0  0.6875 0 0  0.75 0 0  0.8125 0 0  0.875 0 0  0.9375 0 0  1 0 0  0 0.0625 0  0.0624908740994257 0.06246083650045441 0  0.1249822791627068 0.06242097954393018 0  0.1874748047161693 0.0623797794546723 0  0.2499693230505729 0.06233673118784302 0  0.3124671799216459 0.06229156760279424 0  0.3749704596181574 0.06224437626088854 0  0.437482373366493 0.06219574081629568 0  0.5000078564306778 0.06214689785948629 0  0.5625545394026581 0.06209988112957702 0  0.6251344472620869 0.0620575924088084 0  0.687767250632895 0.06202368595158197 0  0.7504871441397298 0.06200207351148141 0  0.8133589071982408 0.06199574004038069 0  0.876518633419561 0.06200440316873842 0  0.9402825530652393 0.06202067641666681 0  1.005436230329452 0.06203180451769648 0  0 0.125 0  0.06248123147354524 0.1249223217983721 0  0.1249634113895432 0.1248431813593837 0  0.1874476035993946 0.1247611967856152 0  0.249935417822212 0.1246752584182011 0  0.3124293800803531 0.124584710165 0  0.3749334481574025 0.1244895840596448 0  0.4374537616478507 0.1243908960339733 0  0.4999997724655266 0.1242909942041992 0  0.5625860134073556 0.1241939180176076 0  0.6252349903823627 0.124105667763509 0  0.6879821512796817 0.1240341902296988 0  0.7508847997914386 0.1239887642838131 0  0.8140383436535715 0.1239784015447643 0  0.8776044764348795 0.1240092412715817 0  0.9418504515710286 0.1240831016791214 0  1.007165681306831 0.1242059974589814 0  0 0.1875 0  0.06247076155272822 0.1873852500476695 0  0.1249426485595136 0.1872681340828103 0  0.1874169451585489 0.1871463877774459 0  0.2498956820977295 0.187018109554028 0  0.3123821463919829 0.1868820156147407 0  0.3748815900991929 0.186737786918117 0  0.4374022493564974 0.1865865332435867 0  0.4999568355166662 0.1864313840366492 0  0.5625647418511006 0.186278179103473 0  0.6252553337205251 0.1861361566695877 0  0.6880728465747045 0.18601839303885 0  0.751083471758719 0.1859414849244184 0  0.8143845867583969 0.1859234488852617 0  0.8781129749190631 0.1859775456481118 0  0.9424394311649983 0.186095620939534 0  1.007520312347997 0.1861992812582139 0  0 0.25 0  0.06245938994348627 0.249850547218646 0  0.1249197450564239 0.2496976491629843 0  0.1873822092833478 0.2495379593138447 0  0.2498487766110951 0.2493685235886232 0  0.3123228787962058 0.2491870804365799 0  0.3748102077105971 0.248992498589665 0  0.4373198917693376 0.2487854067742944 0  0.4998661801615931 0.2485690671991289 0  0.562470820764929 0.2483505231089167 0  0.62516631707524 0.2481419866492716 0  0.6880001286135911 0.2479622834184229 0  0.7510394123569147 0.2478378562602239 0  0.8143745874512885 0.2478022145460362 0  0.8781170206709916 0.2478915865397371 0  0.9423812467753669 0.2481329269000127 0  1.007239681823009 0.2485212568211475 0  0 0.3125 0  0.06244734991587643 0.3123193081994672 0  0.1248951176547146 0.3121339064522745 0  0.187343890149228 0.3119391471778469 0  0.2497950861279278 0.3117307186330903 0  0.3122515486100356 0.3115049420944681 0  0.3747183930280777 0.3112592506831273 0  0.437204238894809 0.3109929422894989 0  0.4997229807398645 0.310708323142714 0  0.5622962621752311 0.3104123769640418 0  0.6249567572673915 0.3101190841133776 0  0.687752135139076 0.3098524236237348 0  0.7507490091506085 0.3096498146491343 0  0.814035035269069 0.3095651171057703 0  0.877715700562876 0.3096691140335723 0  0.9419017696554455 0.3100437329502947 0  1.006689384807421 0.3107653408270031 0  0 0.375 0  0.06243520852306481 0.3747928030878408 0  0.124869909640373 0.3745794783135403 0  0.1873037217386504 0.3743538832471507 0  0.2497369414994455 0.3741100467215991 0  0.3121710599367527 0.3738423939087272 0  0.3746095418551816 0.3735461797855245 0  0.4370590144411262 0.3732182611799246 0  0.4995310562127769 0.3728583994629866 0  0.5620448126829233 0.3724713697481946 0  0.6246306450974555 0.3720702470725942 0  0.6873348530743254 0.3716812982389295 0  0.7502250624842111 0.371350798430632 0  0.8133950398778672 0.3711535317802432 0  0.8769667957145451 0.371201293672356 0  0.9410884787281457 0.3716471706146489 0  1.005932747507238 0.3726787236968257 0  0 0.4375 0  0.0624238419144878 0.4372724418780124 0  0.1248459474203742 0.4370372680047976 0  0.1872646276054938 0.4367867288666834 0  0.2496785814649355 0.4365129644457583 0  0.3120872477705154 0.4362080716136738 0  0.3744914066469093 0.4358643698327779 0  0.436894200884376 0.4354750168359846 0  0.4993028373555538 0.4350352276893818 0  0.5617313502507754 0.4345445155470628 0  0.6242049397732745 0.4340106227306988 0  0.6867664721208562 0.4334561434368221 0  0.7494855832433479 0.4329291454400769 0  0.812470250227738 0.4325189812676269 0  0.8758796942119323 0.4323770350093638 0  0.9399373173743966 0.4327383193842128 0  1.004947473890848 0.4339348868936186 0  0 0.5 0  0.06241435936422748 0.499759689555821 0  0.1248255875570466 0.4995103424626725 0  0.1872304902122552 0.4992426339704926 0  0.2496258485539556 0.4989467430533747 0  0.3120085169471233 0.4986121743292107 0  0.3743757164497979 0.4982277140309361 0  0.4367257073544472 0.4977816576413228 0  0.4990591749743611 0.4972625730044737 0  0.5613819202280633 0.4966610965482552 0  0.6237098504283317 0.4959736829210565 0  0.6860778137850636 0.4952099540584062 0  0.7485543482161122 0.4944063995793314 0  0.8112643822477845 0.4936503862873806 0  0.8744203980569837 0.4931182213517109 0  0.9383596750909247 0.4931256574318024 0  1.003587804961917 0.4941761548006915 0  0 0.5625 0  0.06240798004906008 0.5622559300962414 0  0.1248114602611944 0.5620016522986557 0  0.1872057438400771 0.5617264993280567 0  0.249585614546438 0.5614188609205641 0  0.3119451003060854 0.5610656937331661 0  0.3742773177668755 0.5606520411699323 0  0.4365745520097689 0.5601606360098748 0  0.4988289247416367 0.5595717713547074 0  0.5610344059738264 0.5588638677450517 0  0.6231916892714042 0.5580156835472763 0  0.6853187821200412 0.55701221471078 0  0.7474721180453596 0.5558585637975465 0  0.809784832178981 0.5546100932547651 0  0.872527710301903 0.55343215010045 0  0.9361897208877836 0.552700435542826 0  1.001562012804556 0.5531283511095585 0  0 0.625 0  0.062405871728519 0.6247622881094911 0  0.1248061251389048 0.6245136537112912 0  0.1871948069595884 0.6242425553796818 0  0.2495649366010153 0.6239360743404858 0  0.311907891948098 0.6235790952463874 0  0.3742126907939046 0.6231533282156654 0  0.4364652202326435 0.6226361304224028 0  0.4986476529114142 0.6219991309364792 0  0.5607387512293249 0.6212068033238629 0  0.6227168306565511 0.6202155306718402 0  0.6845694576015234 0.6189748108002227 0  0.7463184186198273 0.6174352450019891 0  0.8080754411395316 0.6155757915383603 0  0.8701488993468992 0.6134805135850915 0  0.9332073445827552 0.6115147433058319 0  0.9984790270659191 0.6105997175101048 0  0 0.6875 0  0.06240896726198483 0.6872794294417756 0  0.1248116698565754 0.6870478754465005 0  0.1872013942879593 0.686793622545809 0  0.2495699774454359 0.6865032487852226 0  0.3119068398386713 0.6861605327591007 0  0.3741976816182619 0.6857450284557454 0  0.436422709750313 0.6852301286532438 0  0.4985543308058288 0.6845803730223057 0  0.5605545498966541 0.6837476845608775 0  0.6223733152500146 0.682666204579771 0  0.6839518837804295 0.6812457396750865 0  0.745242603780882 0.6793657505682398 0  0.8062733403534355 0.6768801597918911 0  0.8673135707798175 0.6736768491292888 0  0.9291833010702824 0.6699503279634498 0  0.9936341453324155 0.6668114184707259 0  0 0.75 0  0.06241778332950659 0.7498073737374042 0  0.1248293031547137 0.7496045020134194 0  0.1872277897735305 0.7493803730888144 0  0.2496047963860831 0.7491221355285202 0  0.3119490009099783 0.7488138649081698 0  0.3742444557586504 0.7484348748591179 0  0.4364679300412088 0.7479572829882748 0  0.4985848244359061 0.7473423730753137 0  0.5605429916973221 0.7465349930249681 0  0.6222639797771846 0.7454546742853329 0  0.6836329097519368 0.7439811407184315 0  0.7444953797135245 0.7419302203536964 0  0.8046950685277882 0.7390152788176925 0  0.8642672057087019 0.7348034417868177 0  0.9241191780209744 0.72882241082185 0  0.9863098965079827 0.7223944179564922 0  0 0.8125 0  0.06243227377866906 0.8123453585417056 0  0.1248590157288458 0.812182061956223 0  0.1872742121525525 0.8120007540417421 0  0.2496702251037864 0.8117903627434918 0  0.312036576911974 0.811536917261371 0  0.3743580798455802 0.8112218832401445 0  0.4366117929534742 0.8108196935898547 0  0.4987618798519102 0.8102939470964894 0  0.5607506896119129 0.8095913625758968 0  0.6224830881481928 0.8086317952639196 0  0.6837992599370794 0.8072908380820162 0  0.7444306968928696 0.8053669631101132 0  0.8039456500232155 0.8025127630902236 0  0.8617666765534138 0.7980774645012874 0  0.917781028646027 0.7907389775502572 0  0.9782321721391652 0.7776334871860943 0  0 0.875 0  0.06245175347029724 0.8748917920740933 0  0.1248993949064345 0.8747773070729992 0  0.1873384414034745 0.8746497327242537 0  0.249763140168377 0.8745009307787415 0  0.3121654923874386 0.8743205084813509 0  0.3745337038326883 0.8740944944576261 0  0.4368495563724271 0.8738033559675489 0  0.4990837035203673 0.8734189416600646 0  0.5611868236902021 0.8728996856132285 0  0.6230721706719309 0.8721829987308332 0  0.6845796247291192 0.871172966594799 0  0.7453992083345092 0.869718990379891 0  0.8049070705972031 0.8675698661358684 0  0.8618272026025561 0.8642347707596005 0  0.9136196081964015 0.8584613741714298 0  0.9557242411251705 0.84636632128094 0  0 0.9375 0  0.06247492225324963 0.9374443187483006 0  0.1249476674247085 0.9373853401961202 0  0.1874158628826825 0.9373194781200211 0  0.2498764546969109 0.9372424255253623 0  0.3123251803648499 0.9371486462521473 0  0.3747557231287394 0.9370306466290731 0  0.4371582539649284 0.9368778856316062 0  
[...]
<PointData  Vectors="f_54"> 
<DataArray  type="Float64"  Name="f_54"  NumberOfComponents="3" format="ascii">0.0000000000000000e+00 0.0000000000000000e+00 0.0000000000000000e+00  0.0000000000000000e+00 0.0000000000000000e+00 0.0000000000000000e+00  0.0000000000000000e+00 0.0000000000000000e+00 0.0000000000000000e+00  0.0000000000000000e+00 0.0000000000000000e+00 0.0000000000000000e+00  0.0000000000000000e+00 0.0000000000000000e+00 0.0000000000000000e+00  0.0000000000000000e+00 0.0000000000000000e+00 0.0000000000000000e+00  0.0000000000000000e+00 0.0000000000000000e+00 0.0000000000000000e+00  0.0000000000000000e+00 0.0000000000000000e+00 0.0000000000000000e+00  0.0000000000000000e+00 0.0000000000000000e+00 0.0000000000000000e+00  0.0000000000000000e+00 0.0000000000000000e+00 0.0000000000000000e+00  0.0000000000000000e+00 0.0000000000000000e+00 0.0000000000000000e+00  0.0000000000000000e+00 0.0000000000000000e+00 0.0000000000000000e+00  0.0000000000000000e+00 0.0000000000000000e+00 0.0000000000000000e+00  0.0000000000000000e+00 0.0000000000000000e+00 0.0000000000000000e+00  0.0000000000000000e+00 0.0000000000000000e+00 0.0000000000000000e+00  0.0000000000000000e+00 0.0000000000000000e+00 0.0000000000000000e+00  0.0000000000000000e+00 0.0000000000000000e+00 0.0000000000000000e+00  0.0000000000000000e+00 0.0000000000000000e+00 0.0000000000000000e+00  1.4581928042872520e-06 1.5495577343452787e-07 0.0000000000000000e+00  2.9277343474685762e-06 3.1153582081424999e-07 0.0000000000000000e+00  4.4170119227181985e-06 4.7113903198957239e-07 0.0000000000000000e+00  5.9243755424104459e-06 6.3430693110642488e-07 0.0000000000000000e+00  7.4316019483791142e-06 8.0022069282659444e-07 0.0000000000000000e+00  8.8953341953753989e-06 9.6613256172844114e-07 0.0000000000000000e+00  1.0235528165180329e-05 1.1267786534399706e-06 0.0000000000000000e+00  1.1319411482769099e-05 1.2739141134627079e-06 0.0000000000000000e+00  1.1938087557439246e-05 1.3962873595593160e-06 0.0000000000000000e+00  1.1769172045762030e-05 1.4807165531372613e-06 0.0000000000000000e+00  1.0308236842281361e-05 1.5157206176826991e-06 0.0000000000000000e+00  6.7203088661790226e-06 1.5013667762243546e-06 0.0000000000000000e+00  -5.3703274947790648e-07 1.4764238894356781e-06 0.0000000000000000e+00  -1.4807419781324314e-05 1.6020634009913520e-06 0.0000000000000000e+00  -4.4803889761437222e-05 2.4579072610444982e-06 0.0000000000000000e+00  -1.1781299191124360e-04 6.2494448693175093e-06 0.0000000000000000e+00  0.0000000000000000e+00 0.0000000000000000e+00 0.0000000000000000e+00  2.9027585891511009e-06 3.0804567663217181e-07 0.0000000000000000e+00  5.8329662582651815e-06 6.1975551470934093e-07 0.0000000000000000e+00  8.8126630572000383e-06 9.3836756176602065e-07 0.0000000000000000e+00  1.1845090166167487e-05 1.2654695463313056e-06 0.0000000000000000e+00  1.4902368116453026e-05 1.5999964886694357e-06 0.0000000000000000e+00  1.7909309893786753e-05 1.9370464026957010e-06 0.0000000000000000e+00  2.0721690633194582e-05 2.2665616643543349e-06 0.0000000000000000e+00  2.3096706031745960e-05 2.5720726279695078e-06 0.0000000000000000e+00  2.4651955789592286e-05 2.8299618657606822e-06 0.0000000000000000e+00  2.4805847289161335e-05 3.0101345143628099e-06 0.0000000000000000e+00  2.2683928681053251e-05 3.0796171740266705e-06 0.0000000000000000e+00  1.6956261678131859e-05 3.0113763221433717e-06 0.0000000000000000e+00  5.5312431896991371e-06 2.8006018787633975e-06 0.0000000000000000e+00  -1.5022228633651588e-05 2.4834076118065113e-06 0.0000000000000000e+00  -5.0345515515784676e-05 2.0986539736943287e-06 0.0000000000000000e+00  -1.0786565374614596e-04 1.1894343290877690e-06 0.0000000000000000e+00  0.0000000000000000e+00 0.0000000000000000e+00 0.0000000000000000e+00  4.3158147386618581e-06 4.5704260195364674e-07 0.0000000000000000e+00  8.6840416886742906e-06 9.2058151410212823e-07 0.0000000000000000e+00  1.3150194042610428e-05 1.3965420847846124e-06 0.0000000000000000e+00  1.7734659860006229e-05 1.8885564493009507e-06 0.0000000000000000e+00  2.2415979305476221e-05 2.3964929742905043e-06 0.0000000000000000e+00  2.7108646973698043e-05 2.9146076687309465e-06 0.0000000000000000e+00  3.1633305844858445e-05 3.4292933037705661e-06 0.0000000000000000e+00  3.5676955229008193e-05 3.9165614635415416e-06 0.0000000000000000e+00  3.8740438874441094e-05 4.3396854524484704e-06 0.0000000000000000e+00  4.0069872167048400e-05 4.6478960651112896e-06 0.0000000000000000e+00  3.8567840542732020e-05 4.7776017188713812e-06 0.0000000000000000e+00  3.2680952747360307e-05 4.6579243714034752e-06 0.0000000000000000e+00  2.0273034906124534e-05 4.2211804200501495e-06 0.0000000000000000e+00  -1.4392812746933794e-06 3.4133729779973295e-06 0.0000000000000000e+00  -3.5547354315197025e-05 2.1872179430695858e-06 0.0000000000000000e+00  -8.3573554561856974e-05 4.7775641210348209e-07 0.0000000000000000e+00  0.0000000000000000e+00 0.0000000000000000e+00 0.0000000000000000e+00  5.6707963407588516e-06 5.9894864840226385e-07 0.0000000000000000e+00  1.1430750286754489e-05 1.2083117311589976e-06 0.0000000000000000e+00  1.7361943874620087e-05 1.8378868870536875e-06 0.0000000000000000e+00  2.3518478431417914e-05 2.4948087225838229e-06 0.0000000000000000e+00  2.9907252075305457e-05 3.1817095411455670e-06 0.0000000000000000e+00  3.6461789740756774e-05 3.8942274535798359e-06 0.0000000000000000e+00  4.3006524272212640e-05 4.6176805736120876e-06 0.0000000000000000e+00  4.9209011021850021e-05 5.3228427777661461e-06 0.0000000000000000e+00  5.4518237639517577e-05 5.9610372653130093e-06 0.0000000000000000e+00  5.8089172756601836e-05 6.4593171883943601e-06 0.0000000000000000e+00  5.8698526762074497e-05 6.7174084015504500e-06 0.0000000000000000e+00  5.4668195869138555e-05 6.6092299483465466e-06 0.0000000000000000e+00  4.3840897096776307e-05 5.9925161600889266e-06 0.0000000000000000e+00  2.3720257493205750e-05 4.7287139752711426e-06 0.0000000000000000e+00  -7.9676747263658030e-06 2.7094484396154180e-06 0.0000000000000000e+00  -5.1841294162574711e-05 -1.2903632282145271e-07 0.0000000000000000e+00  0.0000000000000000e+00 0.0000000000000000e+00 0.0000000000000000e+00  6.9297003928399370e-06 7.2971871026852615e-07 0.0000000000000000e+00  1.3998298457293756e-05 1.4750065746904777e-06 0.0000000000000000e+00  2.1339015942525081e-05 2.2509210711436248e-06 0.0000000000000000e+00  2.9058623355436085e-05 3.0699148149077218e-06 0.0000000000000000e+00  3.7218104930201987e-05 3.9398390796289617e-06 0.0000000000000000e+00  4.5804983570962588e-05 4.8609821490152365e-06 0.0000000000000000e+00  5.4693941790628556e-05 5.8217191570729791e-06 0.0000000000000000e+00  6.3592360297471854e-05 6.7923394982756483e-06 0.0000000000000000e+00  7.1968310636778249e-05 7.7167733959939776e-06 0.0000000000000000e+00  7.8961505112666176e-05 8.5024961514650283e-06 0.0000000000000000e+00  8.3284676086344336e-05 9.0102506505467761e-06 0.0000000000000000e+00  8.3137004999229912e-05 9.0479362815152459e-06 0.0000000000000000e+00  7.6177168768210777e-05 8.3774377846587997e-06 0.0000000000000000e+00  5.9645670760594768e-05 6.7487271271097527e-06 0.0000000000000000e+00  3.0776836870633825e-05 3.9798677547299716e-06 0.0000000000000000e+00  -1.2363836963936730e-05 1.0224097037372823e-07 0.0000000000000000e+00  0.0000000000000000e+00 0.0000000000000000e+00 0.0000000000000000e+00  8.0420751354314156e-06 8.4413035316396460e-07 0.0000000000000000e+00  1.6284834243589755e-05 1.7101572683784053e-06 0.0000000000000000e+00  2.4926429449020207e-05 2.6197707385046972e-06 0.0000000000000000e+00  3.4145238027810162e-05 3.5926996295271482e-06 0.0000000000000000e+00  4.4083341399423811e-05 4.6449132547952320e-06 0.0000000000000000e+00  5.4820520577386591e-05 5.7855975027228484e-06 0.0000000000000000e+00  6.6334260221343096e-05 7.0121878098861046e-06 0.0000000000000000e+00  7.8440488942334240e-05 8.3024835252033201e-06 0.0000000000000000e+00  9.0709769550201166e-05 9.6026612836640364e-06 0.0000000000000000e+00  1.0235569447781482e-04 1.0810164268269924e-05 0.0000000000000000e+00  1.1209857059406464e-04 1.1751742939382223e-05 0.0000000000000000e+00  1.1802107000321193e-04 1.2160910420240008e-05 0.0000000000000000e+00  1.1745510256554943e-04 1.1668047722342553e-05 0.0000000000000000e+00  1.0696464838540265e-04 9.8317075265159919e-06 0.0000000000000000e+00  8.2490144214881334e-05 6.2567384193312097e-06 0.0000000000000000e+00  3.9632078778219688e-05 8.4767516082336224e-07 0.0000000000000000e+00  0.0000000000000000e+00 0.0000000000000000e+00 0.0000000000000000e+00  8.9461773465160351e-06 9.3586849369745960e-07 0.0000000000000000e+00  1.8163400854755089e-05 1.9007872020209704e-06 0.0000000000000000e+00  2.7925118203550342e-05 2.9241307411412141e-06 0.0000000000000000e+00  3.8497285505317976e-05 4.0346468324465455e-06 0.0000000000000000e+00  5.0128154351365394e-05 5.2593511438303891e-06 0.0000000000000000e+00  6.3028175552828114e-05 6.6211296787383911e-06 0.0000000000000000e+00  7.7334201506925202e-05 8.1340803779375012e-06 0.0000000000000000e+00  9.3049972857695657e-05 9.7950159711979921e-06 0.0000000000000000e+00  1.0995263297283096e-04 1.1568668962639457e-05 0.0000000000000000e+00  1.2745401604328713e-04 1.3363148604032204e-05 0.0000000000000000e+00  1.4440853454071326e-04 1.4991934924159411e-05 0.0000000000000000e+00  1.5887142042457936e-04 1.6121714058973829e-05 0.0000000000000000e+00  1.6783611113541905e-04 1.6217404402234570e-05 0.0000000000000000e+00  1.6700930238824121e-04 1.4524919473372481e-05 0.0000000000000000e+00  1.5066656625058582e-04 1.0178059628065335e-05 0.0000000000000000e+00  1.1145605197789268e-04 2.5480903614909609e-06 0.0000000000000000e+00  0.0000000000000000e+00 0.0000000000000000e+00 0.0000000000000000e+00  9.5726014669651200e-06 9.9788719542154547e-07 0.0000000000000000e+00  1.9489010864167817e-05 2.0321367958718745e-06 0.0000000000000000e+00  3.0102005353407903e-05 3.1401699630325595e-06 0.0000000000000000e+00  4.1774613872609826e-05 4.3607829644463138e-06 0.0000000000000000e+00  5.4880108720732527e-05 5.7343011052981009e-06 0.0000000000000000e+00  6.9793243565432784e-05 7.3017265101890947e-06 0.0000000000000000e+00  8.6865999350020613e-05 9.1018759981806302e-06 0.0000000000000000e+00  1.0637698906945978e-04 1.1164572559845508e-05 0.0000000000000000e+00  1.2843794541978325e-04 1.3496236295415290e-05 0.0000000000000000e+00  1.5283407184497389e-04 1.6051285369265957e-05 0.0000000000000000e+00  1.7877061516789622e-04 1.8678514343556573e-05 0.0000000000000000e+00  2.0450417783816376e-04 2.1028084619981540e-05 0.0000000000000000e+00  2.2686934546343497e-04 2.2410996075567531e-05 0.0000000000000000e+00  2.4077764411757760e-04 2.1642492878211603e-05 0.0000000000000000e+00  2.3879899602828838e-04 1.7000127150220240e-05 0.0000000000000000e+00  2.1066296382552815e-04 6.5279182558436250e-06 0.0000000000000000e+00  0.0000000000000000e+00 0.0000000000000000e+00 0.0000000000000000e+00  9.8504893721521194e-06 1.0230794921750338e-06 0.0000000000000000e+00  2.0111207649490157e-05 2.0890262624604899e-06 0.0000000000000000e+00  3.1209080777528762e-05 3.2426125409355693e-06 0.0000000000000000e+00  4.3603316383977193e-05 4.5324338845208614e-06 0.0000000000000000e+00  5.7799369973632358e-05 6.0128024662223238e-06 0.0000000000000000e+00  7.4357694816514972e-05 7.7453695434973715e-06 0.0000000000000000e+00  9.3890879156942136e-05 9.7998475556966774e-06 0.0000000000000000e+00  1.1703682528065941e-04 1.2252250850411819e-05 0.0000000000000000e+00  1.4438568857949564e-04 1.5176905276799451e-05 0.0000000000000000e+00  1.7632316901559927e-04 1.8623675572488889e-05 0.0000000000000000e+00  2.1273356189374757e-04 2.2561847414847935e-05 0.0000000000000000e+00  2.5249256533273553e-04 2.6753781201434060e-05 0.0000000000000000e+00  2.9270547711475302e-04 3.0498340537478612e-05 0.0000000000000000e+00  3.2778188288745479e-04 3.2196173710642091e-05 0.0000000000000000e+00  3.4869961337454425e-04 2.8861544726436945e-05 0.0000000000000000e+00  3.4281970330059540e-04 1.6058448587792368e-05 0.0000000000000000e+00  0.0000000000000000e+00 0.0000000000000000e+00 0.0000000000000000e+00  9.7161057376706620e-06 1.0052243924506754e-06 0.0000000000000000e+00  1.9891872517146739e-05 2.0578621694386670e-06 0.0000000000000000e+00  3.1011628685751941e-05 3.2080278650788391e-06 0.0000000000000000e+00  4.3615700946821428e-05 4.5121096533440823e-06 0.0000000000000000e+00  5.8330998235231270e-05 6.0365717535758726e-06 0.0000000000000000e+00  7.5902897231577222e-05 7.8625809272251294e-06 0.0000000000000000e+00  9.7224657226058897e-05 1.0091679441308055e-05 0.0000000000000000e+00  1.2335394294491251e-04 1.2852354452599880e-05 0.0000000000000000e+00  1.5549277779387178e-04 1.6305973678179307e-05 0.0000000000000000e+00  1.9488246519845304e-04 2.0646136645923480e-05 0.0000000000000000e+00  2.4252279737107174e-04 2.6072486172249439e-05 0.0000000000000000e+00  2.9856501864832701e-04 3.2684643534345612e-05 0.0000000000000000e+00  3.6118551841659240e-04 4.0156723595116408e-05 0.0000000000000000e+00  4.2489435799281539e-04 4.6907609889923080e-05 0.0000000000000000e+00  4.7895641421886667e-04 4.8571201154543522e-05 0.0000000000000000e+00  5.0679554864972286e-04 3.6608614149515049e-05 0.0000000000000000e+00  0.0000000000000000e+00 0.0000000000000000e+00 0.0000000000000000e+00  9.1230831152279287e-06 9.4009458647643735e-07 0.0000000000000000e+00  1.8727044651740701e-05 1.9290590844057276e-06 0.0000000000000000e+00  2.9324230436868954e-05 3.0190110935219982e-06 0.0000000000000000e+00  4.1504215103134680e-05 4.2702003806587463e-06 0.0000000000000000e+00  5.5981098401140655e-05 5.7563736082094776e-06 0.0000000000000000e+00  7.3651279878901240e-05 7.5720616908831102e-06 0.0000000000000000e+00  9.5663549153732262e-05 9.8430848036825280e-06 0.0000000000000000e+00  1.2349858766658341e-04 1.2742349204147504e-05 0.0000000000000000e+00  1.5904236537837409e-04 1.6514092196623255e-05 0.0000000000000000e+00  2.0460787277655970e-04 2.1510227538199561e-05 0.0000000000000000e+00  2.6279384711835375e-04 2.8237580757856472e-05 0.0000000000000000e+00  3.3593743060765578e-04 3.7384946606604401e-05 0.0000000000000000e+00  4.2469213518113685e-04 4.9671537950976461e-05 0.0000000000000000e+00  5.2508063288935381e-04 6.4891166722759973e-05 0.0000000000000000e+00  6.2488013326603435e-04 7.8317505207633909e-05 0.0000000000000000e+00  7.0544955390303989e-04 7.7434522163462402e-05 0.0000000000000000e+00  0.0000000000000000e+00 0.0000000000000000e+00 0.0000000000000000e+00  8.0530361554842299e-06 8.2652255751553785e-07 0.0000000000000000e+00  1.6570172683545166e-05 1.6994349893029716e-06 0.0000000000000000e+00  2.6050825926068233e-05 2.6685007459633623e-06 0.0000000000000000e+00  3.7085039590239129e-05 3.7923250308973167e-06 0.0000000000000000e+00  5.0413538169990085e-05 5.1443815924115779e-06 0.0000000000000000e+00  6.7008250755044935e-05 6.8215307597611211e-06 0.0000000000000000e+00  8.8183285403897746e-05 8.9569792806427965e-06 0.0000000000000000e+00  1.1574724509976828e-04 1.1741423296285198e-05 0.0000000000000000e+00  1.5220345082957591e-04 1.5460072835572268e-05 0.0000000000000000e+00  2.0098337248354719e-04 2.0561850400460024e-05 0.0000000000000000e+00  2.6663051249984629e-04 2.7794112266124736e-05 0.0000000000000000e+00  3.5466567298191666e-04 3.8461437585602657e-05 0.0000000000000000e+00  4.7039473194997362e-04 5.4858608899738616e-05 0.0000000000000000e+00  6.1477606862075885e-04 8.0582607023621685e-05 0.0000000000000000e+00  7.7308508539265016e-04 1.1747244387107725e-04 0.0000000000000000e+00  9.2156392727539517e-04 1.2862755298269588e-04 0.0000000000000000e+00  0.0000000000000000e+00 0.0000000000000000e+00 0.0000000000000000e+00  6.5246415354296530e-06 6.6717570465821194e-07 0.0000000000000000e+00  1.3452748254380195e-05 1.3740022330900848e-06 0.0000000000000000e+00  2.1222242437103221e-05 2.1631409467936485e-06 0.0000000000000000e+00  3.0361910937766716e-05 3.0853734959812053e-06 0.0000000000000000e+00  4.1555361622627098e-05 4.2050941179676389e-06 0.0000000000000000e+00  5.5732671954065945e-05 5.6079615425836023e-06 0.0000000000000000e+00  7.4207812311887978e-05 7.4122455080224255e-06 0.0000000000000000e+00  9.8889380119534449e-05 9.7868384578052227e-06 0.0000000000000000e+00  1.3260465328076545e-04 1.2982760659320417e-05 0.0000000000000000e+00  1.7958654056217382e-04 1.7396203245337184e-05 0.0000000000000000e+00  2.4615382848568542e-04 2.3714318742741877e-05 0.0000000000000000e+00  3.4148004060602133e-04 3.3289128050212841e-05 0.0000000000000000e+00  4.7783693096893327e-04 4.9128470865336618e-05 0.0000000000000000e+00  6.6806504779486910e-04 7.8453624281204587e-05 0.0000000000000000e+00  9.1211866418963857e-04 1.3929164460386797e-04 0.0000000000000000e+00  1.1042862242858266e-03 2.9187560666543754e-04 0.0000000000000000e+00  0.0000000000000000e+00 0.0000000000000000e+00 0.0000000000000000e+00  4.5989078306709009e-06 4.6882099044863124e-07 0.0000000000000000e+00  9.4971875179304257e-06 9.6662152490802263e-07 0.0000000000000000e+00  1.5022021104124276e-05 1.5246062676096299e-06 0.0000000000000000e+00  2.1575152962672865e-05 2.1800818700942339e-06 0.0000000000000000e+00  2.9687827652663847e-05 2.9804110325751482e-06 0.0000000000000000e+00  4.0103453924388534e-05 3.9881141829305368e-06 0.0000000000000000e+00  5.3909339260155581e-05 5.2873035864860998e-06 0.0000000000000000e+00  7.2755003755420051e-05 6.9909531911514154e-06 0.0000000000000000e+00  9.9224176454898989e-05 9.2467641649575718e-06 0.0000000000000000e+00  1.3747935145427977e-04 1.2236585841719392e-05 0.0000000000000000e+00  1.9437742784208999e-04 1.6166963636547576e-05 0.0000000000000000e+00  2.8133076556668268e-04 2.1297379780102853e-05 0.0000000000000000e+00  4.1705506229440824e-04 2.8320538279342530e-05 0.0000000000000000e+00  6.3021146969026822e-04 4.0379891227468988e-05 0.0000000000000000e+00  9.5666766805124802e-04 7.0184869576778752e-05 0.0000000000000000e+00  1.4170204304877977e-03 1.5538516781726119e-04 0.0000000000000000e+00  0.0000000000000000e+00 0.0000000000000000e+00 0.0000000000000000e+00  2.3785122272995009e-06 2.4197573383955633e-07 0.0000000000000000e+00  4.9168572892812250e-06 4.9926020821867341e-07 0.0000000000000000e+00  7.7905312119980886e-06 7.8833438717587109e-07 0.0000000000000000e+00  1.1217403157004865e-05 1.1289168738618952e-06 0.0000000000000000e+00  1.5489905312079097e-05 1.5459434673750805e-06 0.0000000000000000e+00  2.1025060029160062e-05 2.0718046499936243e-06 0.0000000000000000e+00  2.8447497646482227e-05 2.7481171995291887e-06 0.0000000000000000e+00  3.8734295824592733e-05 3.6240277361177780e-06 0.0000000000000000e+00  5.3478672158235130e-05 4.7405578859002025e-06 0.0000000000000000e+00  7.5387380769101391e-05 6.0661491305153801e-06 0.0000000000000000e+00  1.0923723467715976e-04 7.2702189322571278e-06 0.0000000000000000e+00  1.6366793276064551e-04 6.9798627911192242e-06 0.0000000000000000e+00  2.5400623966246927e-04 5.2507879060548085e-07 0.0000000000000000e+00  4.0338039079169794e-04 -2.5617386189995194e-05 0.0000000000000000e+00  6.2549223756024291e-04 -9.8991937261281080e-05 0.0000000000000000e+00  8.6231891165715129e-04 -2.2892994999389532e-04 0.0000000000000000e+00  0.0000000000000000e+00 0.0000000000000000e+00 0.0000000000000000e+00  0.0000000000000000e+00 0.0000000000000000e+00 0.0000000000000000e+00  0.0000000000000000e+00 0.0000000000000000e+00 0.0000000000000000e+00  0.0000000000000000e+00 0.0000000000000000e+00 0.0000000000000000e+00  0.0000000000000000e+00 0.0000000000000000e+00 0.0000000000000000e+00  0.0000000000000000e+00 0.0000000000000000e+00 0.0000000000000000e+00  0.0000000000000000e+00 0.0000000000000000e+00 0.0000000000000000e+00  0.0000000000000000e+00 0.0000000000000000e+00 0.0000000000000000e+00  0.0000000000000000e+00 0.0000000000000000e+00 0.0000000000000000e+00  0.0000000000000000e+00 0.0000000000000000e+00 0.0000000000000000e+00  0.0000000000000000e+00 0.0000000000000000e+00 0.0000000000000000e+00  0.0000000000000000e+00 0.0000000000000000e+00 0.0000000000000000e