<?xml version="1.0"?>
<VTKFile type="UnstructuredGrid"  version="0.1"  >
<UnstructuredGrid>
<Piece  NumberOfPoints="289" NumberOfCells="512">
<Points>
<DataArray  type="Float64"  NumberOfComponents="3"  format="ascii">0 0 0  0.0625 0 0  0.125 0 0  0.1875 0 0  0.25 0 0  0.3125 0 0  0.375 0 0  0.4375 0 0  0.5 0 0  0.5625 0 0  0.625 0 0  0.6875 0 0  0.75 0 0  0.8125 0 0  0.875 0 0  0.9375 0 0  1 0 0  0 0.0625 0  0.06248217266664417 0.06246997067435109 0  0.1249643254131125 0.06243941210558244 0  0.1874464697923707 0.06240783359126649 0  0.2499288006491442 0.06237485675168823 0  0.3124118239327237 0.06234028806464556 0  0.3748965386218982 0.06230420959331334 0  0.437384707066479 0.06226708885092072 0  0.4998792713562328 0.06222990114460152 0  0.5623850227568781 0.06219424396930508 0  0.6249097433457802 0.06216240047834867 0  0.687466310318074 0.06213727684032885 0  0.7500769459751487 0.0621221037307107 0  0.8127826142355082 0.06211979359040019 0  0.8756652327539726 0.06213204864963087 0  0.9389006253284884 0.06215962288657625 0  1.002865339066679 0.06221570978997381 0  0 0.125 0  0.06246437442374006 0.1249404439316759 0  0.1249286387780596 0.1248797722348382 0  0.1873927452398896 0.1248169404479831 0  0.2498569989064667 0.1247511155463564 0  0.3123223064114197 0.1246818168105202 0  0.374790531429578 0.1246090975766525 0  0.4372650217458801 0.1245337739727979 0  0.4997514105927202 0.124457694020294 0  0.5622588679337598 0.1243840155563612 0  0.6248021217735252 0.1243174173765363 0  0.6874048572204075 0.1242640986271654 0  0.7501056471212376 0.1242313315923332 0  0.8129684356327025 0.1242262742289471 0  0.8761002104435078 0.1242539328514771 0  0.9396757942427709 0.124315195459108 0  1.003960617569934 0.1244072782587028 0  0 0.1875 0  0.06244677479517539 0.1874120211048784 0  0.1248931975698255 0.1873222368400508 0  0.1873389997305404 0.1872289331866322 0  0.2497843895535443 0.1871306780619489 0  0.3122303923350682 0.1870265193284225 0  0.3746793391367793 0.1869162530533645 0  0.4371355872461874 0.1868007808731074 0  0.4996065924413343 0.186682563064401 0  0.5621045110648168 0.1865661451488937 0  0.6246485957587428 0.1864586765271083 0  0.6872687542581417 0.1863702263412702 0  0.7500106807643413 0.1863134906303448 0  0.812942592358068 0.1863020646512985 0  0.8761617832303777 0.1863454376691099 0  0.9397941432783606 0.1864357402517363 0  1.003972953692716 0.1865106088582064 0  0 0.25 0  0.06242969203060791 0.2498854050315824 0  0.1248585789031033 0.2497681801513401 0  0.1872859429958596 0.2496457872067529 0  0.2497115952050168 0.2495159937506033 0  0.3121362608848317 0.2493771061566424 0  0.3745621420224582 0.2492283076296893 0  0.4369937478010293 0.2490701418031048 0  0.4994391142147372 0.2489051797637853 0  0.5619115623814568 0.2487388902413822 0  0.6244321541131035 0.2485806808593675 0  0.6870329338461298 0.2484449586979557 0  0.7497607517099028 0.2483518100480177 0  0.812680631184071 0.2483264182160496 0  0.8758758127513883 0.2483954850025214 0  0.9394388084490678 0.2485778010010389 0  1.003446805972184 0.248867019809746 0  0 0.3125 0  0.06241363310254894 0.3123614295037599 0  0.1248257722763207 0.3122192617685973 0  0.1872349929597851 0.3120699645352912 0  0.2496403600173515 0.3119102688731885 0  0.3120418035246367 0.311737400674295 0  0.3744406856258571 0.3115494504691279 0  0.4368406582490217 0.3113459510033709 0  0.4992489377029286 0.3111287489931442 0  0.5616781382134204 0.310903269230226 0  0.6241487798059075 0.3106802579146168 0  0.6866924477617055 0.3104780187089863 0  0.7493552105211927 0.3103249432340401 0  0.8122001603462248 0.3102616618014625 0  0.8753069036130763 0.3103412637961677 0  0.9387655743462884 0.310624843324293 0  1.002667089654983 0.3111689578985797 0  0 0.375 0  0.06239930027838716 0.3748410651065565 0  0.1247962015126318 0.3746774471229075 0  0.1871883307465587 0.3745044682160236 0  0.249573665338062 0.3743175887607969 0  0.3119508365115569 0.374112584296905 0  0.3743196258224148 0.3738858813018654 0  0.4366817661862981 0.3736351497454968 0  0.4990421990567061 0.373360295656621 0  0.5614109770680628 0.3730650576419266 0  0.6238060076011231 0.3727594791719722 0  0.6862567451038273 0.3724635699100158 0  0.7488086593509081 0.3722123923333496 0  0.811527753030752 0.372062415142109 0  0.8745037553568057 0.3720979428738428 0  0.9378509083154541 0.3724345192096141 0  1.001709074742633 0.3732138438889686 0  0 0.4375 0  0.06238756038843452 0.4373253930912518 0  0.1247716671810522 0.4371449621144918 0  0.1871488242382807 0.4369527940732666 0  0.2495156478161573 0.436742899115563 0  0.3118690322915195 0.4365092674243972 0  0.3742064914959388 0.4362460776224555 0  0.436526800956123 0.4359481709576188 0  0.4988311378482622 0.4356119804790529 0  0.5611250158324566 0.4352372250998309 0  0.623421431616539 0.4348298610323053 0  0.685745735656324 0.434407027435035 0  0.7481427032384648 0.4340049595589584 0  0.8106859363510847 0.4336908080994014 0  0.8734889701225695 0.4335783631016543 0  0.9367168696155593 0.4338449273616847 0  1.000599305621631 0.4347422314183437 0  0 0.5 0  0.06237937700178053 0.4998155409953165 0  0.1247542089383114 0.4996241664041703 0  0.1871198176138398 0.4994187485369684 0  0.2494713155076555 0.4991917876092661 0  0.3118035691975193 0.4989352811027492 0  0.3741112895665885 0.4986406963214498 0  0.4363893766645638 0.498299149959353 0  0.4986337594976186 0.4979019914584876 0  0.5608431667397475 0.4974421575190009 0  0.6230225819325165 0.4969169709462949 0  0.6851895932927803 0.4963335804120904 0  0.7473853558019457 0.4957190443461557 0  0.8096920753018084 0.4951380036824762 0  0.8722579987227524 0.494721025222387 0  0.9353282179354755 0.4947034363145695 0  0.9992783228455957 0.4954647261975434 0  0 0.5625 0  0.06237570962616874 0.5623125786044708 0  0.1247458946396077 0.5621173393683162 0  0.1871047936210516 0.5619061144911934 0  0.2494460638999519 0.561670021167241 0  0.3117624900638787 0.5613990918063515 0  0.3740457257183501 0.5610819135983811 0  0.4362861667723897 0.5607053326978865 0  0.4984731952251417 0.5602543610874027 0  0.5605963232218855 0.5597125996238637 0  0.6226483360313566 0.5590638611613868 0  0.6846325589870508 0.5582964514940584 0  0.7465779817029716 0.5574131284433607 0  0.8085678037006369 0.5564526201478318 0  0.8707871387058209 0.5555324777118492 0  0.9335898730548026 0.5549233645072212 0  0.9975702248219703 0.5551497391686817 0  0 0.625 0  0.0623773882925175 0.6248173806739731 0  0.1247485515301688 0.6246263893884758 0  0.1871069268927263 0.6244181744667002 0  0.2494450035767819 0.6241828343238168 0  0.3117537543084883 0.6239087942629977 0  0.3740219588878627 0.6235820644580827 0  0.4362354359359936 0.6231853482565718 0  0.4983763215051281 0.6226970031007464 0  0.560422849704892 0.622089956721956 0  0.6223508471088489 0.6213309604491145 0  0.6841398329810785 0.6203813160260889 0  0.7457900066503883 0.6192022261608227 0  0.8073621566284646 0.6177731338287956 0  0.8690586205197558 0.616143446954157 0  0.9313589134477374 0.6145549906245685 0  0.9951978075215575 0.6136531974664066 0  0 0.6875 0  0.06238497697048939 0.6873304725259161 0  0.1247634662252813 0.6871525190203307 0  0.1871285659906441 0.6869571398694895 0  0.2494721387598567 0.6867340297033282 0  0.3117839971727895 0.6864707416470134 0  0.3740508133133814 0.6861515998548996 0  0.4362546306368629 0.6857562253803148 0  0.4983708845129175 0.6852574923759172 0  0.5603660183331824 0.6846186762912345 0  0.6221954309702289 0.68378953605894 0  0.6838044239421324 0.6827012782982957 0  0.7451399849595176 0.6812615554937703 0  0.8061936118430966 0.6793559006032609 0  0.8671190321794836 0.6768829321633215 0  0.9284805065377782 0.6739228642758645 0  0.9916237329199824 0.6711721742368463 0  0 0.75 0  0.06239864496675407 0.7498518838238271 0  0.1247910945470789 0.7496959004843949 0  0.1871707110350431 0.7495235776682558 0  0.249529489828697 0.7493250306066971 0  0.3118571004717174 0.749088014678216 0  0.3741395047453431 0.7487966298639955 0  0.4363568741233675 0.7484294570932962 0  0.4984803880622103 0.7479567800708543 0  0.5604673359044136 0.747336322424904 0  0.6222539549134517 0.7465065223996158 0  0.6837463778064229 0.7453756150734339 0  0.7448146289931763 0.7438035166026453 0  0.8053115983480907 0.7415724062257203 0  0.8651949543581943 0.7383495186121982 0  0.9249803273117697 0.7337336127752443 0  0.9862873196646197 0.7283402426900423 0  0 0.8125 0  0.06241807025206539 0.8123810412066083 0  0.12483083601861 0.8122554300909504 0  0.1872325865990362 0.8121159572265401 0  0.2496163257201755 0.8119540914913718 0  0.3119728309502269 0.8117590671138853 0  0.3742892316736675 0.8115165991060105 0  0.4365467251198102 0.811206978574801 0  0.4987167450409909 0.8108021425608677 0  0.5607543213472407 0.8102610231956272 0  0.6225863251168384 0.8095219041528572 0  0.684090645544015 0.8084892260564718 0  0.7450609638589938 0.8070090321263041 0  0.8051574341794565 0.8048182878405675 0  0.863893022002265 0.8014282686387842 0  0.9210100991834875 0.7958361967054591 0  0.9802202914938772 0.7857390261798971 0  0 0.875 0  0.0624423996717611 0.8749167289608862 0  0.1248809332129156 0.8748286288306087 0  0.1873114291803165 0.8747304430747387 0  0.2497287309350113 0.87461589054846 0  0.3121259594538898 0.874476945426053 0  0.3744933683711476 0.8743028087849967 0  0.4368164359770614 0.8740783646590737 0  0.4990724950972626 0.8737817901168197 0  0.5612244457382231 0.8733807856465412 0  0.6232083721708913 0.8728265563864108 0  0.6849078455645906 0.8720440540022149 0  0.7460981220707672 0.8709153290856395 0  0.8063213245317088 0.8692459448630899 0  0.8646073061492472 0.8666709302721953 0  0.9188847673290761 0.8623050788227441 0  0.9649784309696284 0.8533604060560471 0  0 0.9375 0  0.06247028504503032 0.9374571371452466 0  0.1249385439465288 0.9374117353640767 0  0.187402591750785 0.9373610240642141 0  0.2498597216020678 0.9373016741163246 0  0.3123063133610768 0.9372294018747032 0  0.3747372223058996 0.9371383998982938 0  0.4371447500235451 0.
[...]
<PointData  Vectors="f_54"> 
<DataArray  type="Float64"  Name="f_54"  NumberOfComponents="3" format="ascii">0.0000000000000000e+00 0.0000000000000000e+00 0.0000000000000000e+00  0.0000000000000000e+00 0.0000000000000000e+00 0.0000000000000000e+00  0.0000000000000000e+00 0.0000000000000000e+00 0.0000000000000000e+00  0.0000000000000000e+00 0.0000000000000000e+00 0.0000000000000000e+00  0.0000000000000000e+00 0.0000000000000000e+00 0.0000000000000000e+00  0.0000000000000000e+00 0.0000000000000000e+00 0.0000000000000000e+00  0.0000000000000000e+00 0.0000000000000000e+00 0.0000000000000000e+00  0.0000000000000000e+00 0.0000000000000000e+00 0.0000000000000000e+00  0.0000000000000000e+00 0.0000000000000000e+00 0.0000000000000000e+00  0.0000000000000000e+00 0.0000000000000000e+00 0.0000000000000000e+00  0.0000000000000000e+00 0.0000000000000000e+00 0.0000000000000000e+00  0.0000000000000000e+00 0.0000000000000000e+00 0.0000000000000000e+00  0.0000000000000000e+00 0.0000000000000000e+00 0.0000000000000000e+00  0.0000000000000000e+00 0.0000000000000000e+00 0.0000000000000000e+00  0.0000000000000000e+00 0.0000000000000000e+00 0.0000000000000000e+00  0.0000000000000000e+00 0.0000000000000000e+00 0.0000000000000000e+00  0.0000000000000000e+00 0.0000000000000000e+00 0.0000000000000000e+00  0.0000000000000000e+00 0.0000000000000000e+00 0.0000000000000000e+00  2.5655193842657522e-06 1.5347503574773417e-07 0.0000000000000000e+00  5.1761056680244362e-06 3.0894964412401526e-07 0.0000000000000000e+00  7.8745566553580213e-06 4.6818507752673532e-07 0.0000000000000000e+00  1.0693761667764025e-05 6.3214313375992019e-07 0.0000000000000000e+00  1.3649939296154919e-05 8.0048687749958675e-07 0.0000000000000000e+00  1.6733456478648748e-05 9.7097289737081720e-07 0.0000000000000000e+00  1.9896158161627028e-05 1.1387381586138140e-06 0.0000000000000000e+00  2.3033737836507761e-05 1.2955379487552977e-06 0.0000000000000000e+00  2.5960702515734556e-05 1.4290828770298488e-06 0.0000000000000000e+00  2.8372872736850116e-05 1.5227703005884134e-06 0.0000000000000000e+00  2.9784995680428529e-05 1.5563498342999449e-06 0.0000000000000000e+00  2.9409340277931892e-05 1.5085704066456615e-06 0.0000000000000000e+00  2.5873426744830500e-05 1.3643996112425985e-06 0.0000000000000000e+00  1.6448617173755406e-05 1.1354929104160923e-06 0.0000000000000000e+00  -5.3582533784464593e-06 9.2913432659262992e-07 0.0000000000000000e+00  -5.8239797074647329e-05 1.2232614625273318e-06 0.0000000000000000e+00  0.0000000000000000e+00 0.0000000000000000e+00 0.0000000000000000e+00  5.0820309032208805e-06 3.0471435549570062e-07 0.0000000000000000e+00  1.0258778271878056e-05 6.1380554036148416e-07 0.0000000000000000e+00  1.5620981513115063e-05 9.3120846977380747e-07 0.0000000000000000e+00  2.1241127901171366e-05 1.2593442622149575e-06 0.0000000000000000e+00  2.7160844710026736e-05 1.5981492537683695e-06 0.0000000000000000e+00  3.3373646946829360e-05 1.9438587286712240e-06 0.0000000000000000e+00  3.9801094750674003e-05 2.2875253579470698e-06 0.0000000000000000e+00  4.6259938184685842e-05 2.6133438448019033e-06 0.0000000000000000e+00  5.2416824594565773e-05 2.8970142526477172e-06 0.0000000000000000e+00  5.7724758205673422e-05 3.1046245270938623e-06 0.0000000000000000e+00  6.1329642953669657e-05 3.1928500867169388e-06 0.0000000000000000e+00  6.1921361864091933e-05 3.1115242380425907e-06 0.0000000000000000e+00  5.7474292362159783e-05 2.8093082228478714e-06 0.0000000000000000e+00  4.4776610622458338e-05 2.2400345452672643e-06 0.0000000000000000e+00  1.8683296094608952e-05 1.3498008942193060e-06 0.0000000000000000e+00  -2.8083841116408015e-05 -7.2119528198149946e-08 0.0000000000000000e+00  0.0000000000000000e+00 0.0000000000000000e+00 0.0000000000000000e+00  7.4976122984935055e-06 4.5120220655493663e-07 0.0000000000000000e+00  1.5148065002020330e-05 9.0987171140792741e-07 0.0000000000000000e+00  2.3099558747657324e-05 1.3829020776995640e-06 0.0000000000000000e+00  3.1476669614176297e-05 1.8751383249982586e-06 0.0000000000000000e+00  4.0363592783889141e-05 2.3880016896756091e-06 0.0000000000000000e+00  4.9780781110055144e-05 2.9176863396223025e-06 0.0000000000000000e+00  5.9652341146112882e-05 3.4528382679169883e-06 0.0000000000000000e+00  6.9761258610130840e-05 3.9717296907348370e-06 0.0000000000000000e+00  7.9689227070142937e-05 4.4391503592524385e-06 0.0000000000000000e+00  8.8737501747509007e-05 4.8035963741060543e-06 0.0000000000000000e+00  9.5824787135715423e-05 4.9958534260448073e-06 0.0000000000000000e+00  9.9358610599374413e-05 4.9306090361059054e-06 0.0000000000000000e+00  9.7083903861052551e-05 4.5128289236742384e-06 0.0000000000000000e+00  8.5952657311390789e-05 3.6494205752891372e-06 0.0000000000000000e+00  6.2220843295830136e-05 2.2644438698517955e-06 0.0000000000000000e+00  2.2480289018640829e-05 3.2937591481646215e-07 0.0000000000000000e+00  0.0000000000000000e+00 0.0000000000000000e+00 0.0000000000000000e+00  9.7522255250004681e-06 5.8972791184956988e-07 0.0000000000000000e+00  1.9726321073651353e-05 1.1909684773381154e-06 0.0000000000000000e+00  3.0140292655985884e-05 1.8146427944435979e-06 0.0000000000000000e+00  4.1187358700450579e-05 2.4693821767276853e-06 0.0000000000000000e+00  5.3017412509591499e-05 3.1598812398286136e-06 0.0000000000000000e+00  6.5710175849153902e-05 3.8845972675995413e-06 0.0000000000000000e+00  7.9236705539509003e-05 4.6325746573738653e-06 0.0000000000000000e+00  9.3405740078397224e-05 5.3792408892670149e-06 0.0000000000000000e+00  1.0779170432060233e-04 6.0812243695863900e-06 0.0000000000000000e+00  1.2164265175960276e-04 6.6707013312243301e-06 0.0000000000000000e+00  1.3377022788474199e-04 7.0506293986686250e-06 0.0000000000000000e+00  1.4243256124893533e-04 7.0935436294291396e-06 0.0000000000000000e+00  1.4524136040703272e-04 6.6481480980705787e-06 0.0000000000000000e+00  1.3917186690335870e-04 5.5587452279877256e-06 0.0000000000000000e+00  1.2085644907884488e-04 3.6999532930465225e-06 0.0000000000000000e+00  8.7502021469062602e-05 1.0147930511872170e-06 0.0000000000000000e+00  0.0000000000000000e+00 0.0000000000000000e+00 0.0000000000000000e+00  1.1775500104771834e-05 7.1615662901950508e-07 0.0000000000000000e+00  2.3853165399820891e-05 1.4489187145558594e-06 0.0000000000000000e+00  3.6533796990446150e-05 2.2144401590643229e-06 0.0000000000000000e+00  5.0097482031760209e-05 3.0267641196172892e-06 0.0000000000000000e+00  6.4786250861549876e-05 3.8961303874277017e-06 0.0000000000000000e+00  8.0777032654605598e-05 4.8263954970152942e-06 0.0000000000000000e+00  9.8140679353417561e-05 5.8111508570112082e-06 0.0000000000000000e+00  1.1678237488995294e-04 6.8280790695511627e-06 0.0000000000000000e+00  1.3635898903129439e-04 7.8311675133526121e-06 0.0000000000000000e+00  1.5617085911163122e-04 8.7408064664716413e-06 0.0000000000000000e+00  1.7503077536552462e-04 9.4329128962829752e-06 0.0000000000000000e+00  1.9112426395683337e-04 9.7306016678747985e-06 0.0000000000000000e+00  2.0189632696432960e-04 9.4061054306394091e-06 0.0000000000000000e+00  2.0403436497926113e-04 8.2063543745609380e-06 0.0000000000000000e+00  1.9366256796831855e-04 5.9202787909424023e-06 0.0000000000000000e+00  1.6688659381444341e-04 2.5037529997612716e-06 0.0000000000000000e+00  0.0000000000000000e+00 0.0000000000000000e+00 0.0000000000000000e+00  1.3486591047210834e-05 8.2535092490977186e-07 0.0000000000000000e+00  2.7364694893132190e-05 1.6733329011307867e-06 0.0000000000000000e+00  4.2028843019952773e-05 2.5664583664146352e-06 0.0000000000000000e+00  5.7862891688716519e-05 3.5258427985788185e-06 0.0000000000000000e+00  7.5227427009972483e-05 4.5698035758691759e-06 0.0000000000000000e+00  9.4436650117234110e-05 5.7114071191015806e-06 0.0000000000000000e+00  1.1571942789533130e-04 6.9543274339338999e-06 0.0000000000000000e+00  1.3915789887835833e-04 8.2861234730870827e-06 0.0000000000000000e+00  1.6459614155532303e-04 9.6677904735717655e-06 0.0000000000000000e+00  1.9151206665545304e-04 1.1018424153824334e-05 0.0000000000000000e+00  2.1884990972358503e-04 1.2194661971874374e-05 0.0000000000000000e+00  2.4482143085459581e-04 1.2967518537738453e-05 0.0000000000000000e+00  2.6670381404700431e-04 1.3006424613633749e-05 0.0000000000000000e+00  2.8068892561771948e-04 1.1893661495516669e-05 0.0000000000000000e+00  2.8185412203312639e-04 9.2098822666044338e-06 0.0000000000000000e+00  2.6428323150289870e-04 4.7406348063225673e-06 0.0000000000000000e+00  0.0000000000000000e+00 0.0000000000000000e+00 0.0000000000000000e+00  1.4796577767329101e-05 9.1129922248452222e-07 0.0000000000000000e+00  3.0077945957530237e-05 1.8518176843829266e-06 0.0000000000000000e+00  4.6338164344370777e-05 2.8511913100638552e-06 0.0000000000000000e+00  6.4076856195290950e-05 3.9389639294925961e-06 0.0000000000000000e+00  8.3795388263075858e-05 5.1439123429260248e-06 0.0000000000000000e+00  1.0598282254609516e-04 6.4923401900766869e-06 0.0000000000000000e+00  1.3108532293991390e-04 8.0045415481851442e-06 0.0000000000000000e+00  1.5945001435012314e-04 9.6881012214645575e-06 0.0000000000000000e+00  1.9123116522729890e-04 1.1525886166153926e-05 0.0000000000000000e+00  2.2624399410111360e-04 1.3455550289637067e-05 0.0000000000000000e+00  2.6375180659063836e-04 1.5336656371328502e-05 0.0000000000000000e+00  3.0218009799088020e-04 1.6902953142013414e-05 0.0000000000000000e+00  3.3877242924820527e-04 1.7705470706374215e-05 0.0000000000000000e+00  3.6923638695881357e-04 1.7074692604204355e-05 0.0000000000000000e+00  3.8744309713282995e-04 1.4172246509244392e-05 0.0000000000000000e+00  3.8514954961400795e-04 8.2489787102681446e-06 0.0000000000000000e+00  0.0000000000000000e+00 0.0000000000000000e+00 0.0000000000000000e+00  1.5613684387366878e-05 9.6749552449203034e-07 0.0000000000000000e+00  3.1801267039646515e-05 1.9707178621147580e-06 0.0000000000000000e+00  4.9153759237697040e-05 3.0465118368318670e-06 0.0000000000000000e+00  6.8289596909534465e-05 4.2334648211171459e-06 0.0000000000000000e+00  8.9863772547020703e-05 5.5724204332636755e-06 0.0000000000000000e+00  1.1456888562889869e-04 7.1062880681322671e-06 0.0000000000000000e+00  1.4312144932831703e-04 8.8783912155237726e-06 0.0000000000000000e+00  1.7622242713357457e-04 1.0927845092886301e-05 0.0000000000000000e+00  2.1447465260398675e-04 1.3279023722088692e-05 0.0000000000000000e+00  2.5823178862277314e-04 1.5919622509838492e-05 0.0000000000000000e+00  3.0734607397247822e-04 1.8757811127238869e-05 0.0000000000000000e+00  3.6078215229176430e-04 2.1544460711946700e-05 0.0000000000000000e+00  4.1608623945150601e-04 2.3747264607947741e-05 0.0000000000000000e+00  4.6876053940779478e-04 2.4387424975091077e-05 0.0000000000000000e+00  5.1166688574301260e-04 2.1925909979929494e-05 0.0000000000000000e+00  5.3447936219868438e-04 1.4409089925302218e-05 0.0000000000000000e+00  0.0000000000000000e+00 0.0000000000000000e+00 0.0000000000000000e+00  1.5851322209338147e-05 9.8758259606824952e-07 0.0000000000000000e+00  3.2350756555154706e-05 2.0164413433917138e-06 0.0000000000000000e+00  5.0172314962249627e-05 3.1297414120089766e-06 0.0000000000000000e+00  7.0043140997582011e-05 4.3745249184283761e-06 0.0000000000000000e+00  9.2769237991483568e-05 5.8037641837720549e-06 0.0000000000000000e+00  1.1925784934545447e-04 7.4783974242387983e-06 0.0000000000000000e+00  1.5053096242896837e-04 9.4689813805762959e-06 0.0000000000000000e+00  1.8771867590472742e-04 1.1855912700875861e-05 0.0000000000000000e+00  2.3201140223108954e-04 1.4725540389408360e-05 0.0000000000000000e+00  2.8453451423268310e-04 1.8155739910427935e-05 0.0000000000000000e+00  3.4608808044415084e-04 2.2176377362991138e-05 0.0000000000000000e+00  4.1667431886970952e-04 2.6674255641073857e-05 0.0000000000000000e+00  4.9474163489137194e-04 3.1188212655052639e-05 0.0000000000000000e+00  5.7616924400494859e-04 3.4529380502230785e-05 0.0000000000000000e+00  6.5327523850254230e-04 3.4249805721417486e-05 0.0000000000000000e+00  7.1443867227109607e-04 2.6266720917572311e-05 0.0000000000000000e+00  0.0000000000000000e+00 0.0000000000000000e+00 0.0000000000000000e+00  1.5438543190998813e-05 9.6621491394685700e-07 0.0000000000000000e+00  3.1572113893117026e-05 1.9772985169093464e-06 0.0000000000000000e+00  4.9130244166488188e-05 3.0806973280232731e-06 0.0000000000000000e+00  6.8921865238787491e-05 4.3297648292246228e-06 0.0000000000000000e+00  9.1879638853006499e-05 5.7874084409939821e-06 0.0000000000000000e+00  1.1910857824643188e-04 7.5306529909337171e-06 0.0000000000000000e+00  1.5193690373942510e-04 9.6565140649898071e-06 0.0000000000000000e+00  1.9196130949990014e-04 1.2289459671498287e-05 0.0000000000000000e+00  2.4106700180383342e-04 1.5589984973239580e-05 0.0000000000000000e+00  3.0138025276083518e-04 1.9760945129700337e-05 0.0000000000000000e+00  3.7507158604956862e-04 2.5039072452136439e-05 0.0000000000000000e+00  4.6386804745621456e-04 3.1632723772116077e-05 0.0000000000000000e+00  5.6807380197186521e-04 3.9500240660788150e-05 0.0000000000000000e+00  6.8495195418811453e-04 4.7732717252427641e-05 0.0000000000000000e+00  8.0679622302668331e-04 5.3237361237335060e-05 0.0000000000000000e+00  9.1966733632597531e-04 4.8856235048687248e-05 0.0000000000000000e+00  0.0000000000000000e+00 0.0000000000000000e+00 0.0000000000000000e+00  1.4331940814438174e-05 9.0002552995464470e-07 0.0000000000000000e+00  2.9366091023783525e-05 1.8456214096083539e-06 0.0000000000000000e+00  4.5845979174466998e-05 2.8853689555949010e-06 0.0000000000000000e+00  6.4616562812462114e-05 4.0751819049979369e-06 0.0000000000000000e+00  8.6686113415365332e-05 5.4831543695103749e-06 0.0000000000000000e+00  1.1330228466421715e-04 7.1961792720007081e-06 0.0000000000000000e+00  1.4604654917012896e-04 9.3295942970801111e-06 0.0000000000000000e+00  1.8694797964309445e-04 1.2041975084749935e-05 0.0000000000000000e+00  2.3860765794243586e-04 1.5558603488907412e-05 0.0000000000000000e+00  3.0430049641701830e-04 2.0208776498714517e-05 0.0000000000000000e+00  3.8796580363907775e-04 2.6481094712693227e-05 0.0000000000000000e+00  4.9388456836300032e-04 3.5083728715934332e-05 0.0000000000000000e+00  6.2564251317679667e-04 4.6911793243555069e-05 0.0000000000000000e+00  7.8376904632703587e-04 6.2498384750879862e-05 0.0000000000000000e+00  9.6212368481679242e-04 7.9634285018322003e-05 0.0000000000000000e+00  1.1468872578265401e-03 9.0283354731775369e-05 0.0000000000000000e+00  0.0000000000000000e+00 0.0000000000000000e+00 0.0000000000000000e+00  1.2527397779590142e-05 7.8851443176700781e-07 0.0000000000000000e+00  2.5714297471020271e-05 1.6197602285196014e-06 0.0000000000000000e+00  4.0264635045094147e-05 2.5395224786070626e-06 0.0000000000000000e+00  5.6995824279530352e-05 3.6013103368212213e-06 0.0000000000000000e+00  7.6912743626625133e-05 4.8715768622860229e-06 0.0000000000000000e+00  1.0130592981865033e-04 6.4370426607851238e-06 0.0000000000000000e+00  1.3188639130265985e-04 8.4157945481136092e-06 0.0000000000000000e+00  1.7097216135197527e-04 1.0975421975889849e-05 0.0000000000000000e+00  2.2174123039979437e-04 1.4365070128452260e-05 0.0000000000000000e+00  2.8855266726387569e-04 1.8976465445746302e-05 0.0000000000000000e+00  3.7728824563251420e-04 2.5466401517285491e-05 0.0000000000000000e+00  4.9552125242558387e-04 3.5004209504829940e-05 0.0000000000000000e+00  6.5194254830852280e-04 4.9731022457718216e-05 0.0000000000000000e+00  8.5358966196843729e-04 7.3320319808766948e-05 0.0000000000000000e+00  1.0978956158293658e-03 1.0941020806665997e-04 0.0000000000000000e+00  1.3720633842193815e-03 1.3461140569092861e-04 0.0000000000000000e+00  0.0000000000000000e+00 0.0000000000000000e+00 0.0000000000000000e+00  1.0069504385848451e-05 6.3464824751323593e-07 0.0000000000000000e+00  2.0700690436589776e-05 1.3054669988412127e-06 0.0000000000000000e+00  3.2497318839445450e-05 2.0512973006674523e-06 0.0000000000000000e+00  4.6173328771453950e-05 2.9178962400051148e-06 0.0000000000000000e+00  6.2628536367103263e-05 3.9625225520381625e-06 0.0000000000000000e+00  8.3055040899745976e-05 5.2601905973542187e-06 0.0000000000000000e+00  1.0909421395924920e-04 6.9127337084016908e-06 0.0000000000000000e+00  1.4307487639671126e-04 9.0628813617784281e-06 0.0000000000000000e+00  1.8837888761952126e-04 1.1918531007698345e-05 0.0000000000000000e+00  2.4999832160141772e-04 1.5801444597096016e-05 0.0000000000000000e+00  3.3535192420373617e-04 2.1262744674547480e-05 0.0000000000000000e+00  4.5535226366795071e-04 2.9393142260316453e-05 0.0000000000000000e+00  6.2534277349017174e-04 4.2702577106198352e-05 0.0000000000000000e+00  8.6417144170432519e-04 6.7628469722779875e-05 0.0000000000000000e+00  1.1845673385727251e-03 1.2202037529144590e-04 0.0000000000000000e+00  1.5275486360032324e-03 2.7111588098542637e-04 0.0000000000000000e+00  0.0000000000000000e+00 0.0000000000000000e+00 0.0000000000000000e+00  7.0561947213282694e-06 4.4500163463118187e-07 0.0000000000000000e+00  1.4523207715553037e-05 9.1625283007529510e-07 0.0000000000000000e+00  2.2845140208752010e-05 1.4419451451847519e-06 0.0000000000000000e+00  3.2554588745486235e-05 2.0553635094471092e-06 0.0000000000000000e+00  4.4335926281592737e-05 2.7980778895371668e-06 0.0000000000000000e+00  5.9118141437372867e-05 3.7238813677130221e-06 0.0000000000000000e+00  7.8219265399133623e-05 4.9033886733506499e-06 0.0000000000000000e+00  1.0358059204520337e-04 6.4283483842976068e-06 0.0000000000000000e+00  1.3815876531549637e-04 8.4125272898646306e-06 0.0000000000000000e+00  1.8659808961929758e-04 1.0981572933060634e-05 0.0000000000000000e+00  2.5639938828130130e-04 1.4239751913509014e-05 0.0000000000000000e+00  3.5994316878082264e-04 1.8220953269215729e-05 0.0000000000000000e+00  5.1784682846717895e-04 2.2997034957847533e-05 0.0000000000000000e+00  7.6380331412558803e-04 2.9854642842149028e-05 0.0000000000000000e+00  1.1483034633133604e-03 4.6625878775599593e-05 0.0000000000000000e+00  1.7277256970000317e-03 1.0334973609068541e-04 0.0000000000000000e+00  0.0000000000000000e+00 0.0000000000000000e+00 0.0000000000000000e+00  3.6364501691667988e-06 2.2938035653755231e-07 0.0000000000000000e+00  7.4903800886786259e-06 4.7256831166415119e-07 0.0000000000000000e+00  1.1797795730834030e-05 7.4438341691118384e-07 0.0000000000000000e+00  1.6844369605618995e-05 1.0623113063090227e-06 0.0000000000000000e+00  2.3001914711276245e-05 1.4480586941617425e-06 0.0000000000000000e+00  3.0783421772405121e-05 1.9291740831966084e-06 0.0000000000000000e+00  4.0931702786449253e-05 2.5399741132053829e-06 0.0000000000000000e+00  5.4569457459905872e-05 3.3189762326609848e-06 0.0000000000000000e+00  7.3464233401403348e-05 4.2935889008872482e-06 0.0000000000000000e+00  1.0051297667220356e-04 5.4223530255879147e-06 0.0000000000000000e+00  1.4064679184329235e-04 6.3998765361630419e-06 0.0000000000000000e+00  2.0249023579533559e-04 6.0255167487103052e-06 0.0000000000000000e+00  3.0100458872108491e-04 2.5094364872646161e-07 0.0000000000000000e+00  4.5917774484961066e-04 -2.3135985275986640e-05 0.0000000000000000e+00  6.9539489303956288e-04 -9.3277530580939530e-05 0.0000000000000000e+00  9.6382159575393600e-04 -2.3930131357547795e-04 0.0000000000000000e+00  0.0000000000000000e+00 0.0000000000000000e+00 0.0000000000000000e+00  0.0000000000000000e+00 0.0000000000000000e+00 0.0000000000000000e+00  0.0000000000000000e+00 0.0000000000000000e+00 0.0000000000000000e+00  0.0000000000000000e+00 0.0000000000000000e+00 0.0000000000000000e+00  0.0000000000000000e+00 0.0000000000000000e+00 0.0000000000000000e+00  0.0000000000000000e+00 0.0000000000000000e+00 0.0000000000000000e+00  0.0000000000000000e+00 0.0000000000000000e+00 0.0000000000000000e+00  0.0000000000000000e+00 0.0000000000000000e+00 0.0000000000000000e+00  0.0000000000000000e+00 0.0000000000000000e+00 0.0000000000000000e+00  0.0000000000000000e+00 0.0000000000000000e+00 0.0000000000000000e+00  0.0000000000000000e+00 0.0000000000000000e+00 0.0000000000000000e+00  0.0000000000000000e+00 0.0000000000000000e+00 0.0000000000000000e+00  0.000