<?xml version="1.0"?>
<VTKFile type="UnstructuredGrid"  version="0.1"  >
<UnstructuredGrid>
<Piece  NumberOfPoints="289" NumberOfCells="512">
<Points>
<DataArray  type="Float64"  NumberOfComponents="3"  format="ascii">0 0 0  0.0625 0 0  0.125 0 0  0.1875 0 0  0.25 0 0  0.3125 0 0  0.375 0 0  0.4375 0 0  0.5 0 0  0.5625 0 0  0.625 0 0  0.6875 0 0  0.75 0 0  0.8125 0 0  0.875 0 0  0.9375 0 0  1 0 0  0 0.0625 0  0.06258831682140195 0.06246695692644978 0  0.1251802839402007 0.06243326200053368 0  0.187779767466778 0.06239829236975516 0  0.2503910128322926 0.06236152378284349 0  0.31301887884145 0.06232259430510667 0  0.3756691354850537 0.06228138353608418 0  0.4383488783983494 0.06223810598622943 0  0.5010671661298459 0.06219340697698292 0  0.5638361134349312 0.0621484282718997 0  0.6266729929495611 0.06210476659397884 0  0.6896047482503803 0.06206414972709426 0  0.7526787362258458 0.06202740435802902 0  0.8159908159023941 0.06199154362112837 0  0.8797653481271349 0.06194124505140388 0  0.9446026274080671 0.06182117486268767 0  1.012332507799638 0.06143258434859592 0  0 0.125 0  0.06267301609357002 0.1249345231903123 0  0.1253531947400999 0.1248676897402159 0  0.1880481229044035 0.1247981959509262 0  0.2507661415648391 0.1247249232664189 0  0.3135168091522375 0.1246470625960573 0  0.3763114847172299 0.1245642751522105 0  0.4391641184220885 0.1244768928533818 0  0.5020924091743746 0.1243861460442717 0  0.5651196435953481 0.1242943754367786 0  0.6282778641318972 0.1242051275356944 0  0.6916137280567274 0.1241229346885724 0  0.7551998617876321 0.1240524459825425 0  0.8191569232749489 0.1239965429999904 0  0.8836928574832769 0.1239540342456154 0  0.9491492249906044 0.1239241452357681 0  1.015918125142246 0.1239602727415618 0  0 0.1875 0  0.06275058901869376 0.1874034215048124 0  0.1255115365621803 0.1873046882188348 0  0.1882938075491705 0.1872017115012259 0  0.2511094582588668 0.1870926479354426 0  0.31397230038855 0.1869760748426061 0  0.3768987210263286 0.1868512311896966 0  0.4399087520754008 0.1867183403279657 0  0.5030275327776363 0.1865790181614072 0  0.5662873928884374 0.1864367413655323 0  0.629730908813121 0.1862972931724828 0  0.6934154038565113 0.1861690034714749 0  0.7574191816337765 0.1860624390413483 0  0.8218481052719336 0.185988949364037 0  0.8868340840718404 0.1859569179112297 0  0.9524948263225697 0.1859620385918441 0  1.018775386926862 0.1859528373066295 0  0 0.25 0  0.06281786355083202 0.2498744653516708 0  0.1256488035922896 0.249745857805872 0  0.1885066429137714 0.2496111663046148 0  0.2514065706533887 0.2494676409826184 0  0.3143659660591517 0.2493129996777975 0  0.3774053998413721 0.2491457346041784 0  0.4405498985002165 0.2489655582847441 0  0.5038305724177401 0.2487740259986501 0  0.5672867047530322 0.2485753575806905 0  0.6309683185442905 0.2483774404705965 0  0.6949389244301352 0.248192905221097 0  0.7592771882983471 0.2480399868646637 0  0.8240737063176651 0.247942558278817 0  0.8894133086241282 0.2479281424504126 0  0.9553237009598374 0.2480218906509435 0  1.02166795958498 0.2482355204498241 0  0 0.3125 0  0.06287215344287972 0.3123485831210269 0  0.1257594901459632 0.3121930509806413 0  0.1886780266749658 0.3120293211580006 0  0.2516453406646051 0.311853524944338 0  0.3146815089251465 0.3116622098019729 0  0.3778102432296266 0.3114526756275823 0  0.4410603094934192 0.3112235128039524 0  0.5044673149891609 0.3109754279763663 0  0.5680759044175863 0.3107124585291487 0  0.6319422463651647 0.3104436745279442 0  0.6961362626863301 0.3101854157136095 0  0.7607420714139967 0.3099639478025931 0  0.8258532029477214 0.3098180378179167 0  0.8915563395293639 0.3098002060476452 0  0.9578960764643835 0.3099743136735595 0  1.024823299554492 0.3104062443638179 0  0 0.375 0  0.06291137693405997 0.374826819907486 0  0.1258393369847901 0.3746483846479455 0  0.188801323724001 0.374459412414983 0  0.251816441379824 0.3742547074638749 0  0.3149064564584279 0.3740293072277195 0  0.378097022561692 0.3737787840941281 0  0.4414192364574097 0.3734997979992452 0  0.5049116501650421 0.3731910409131016 0  0.5686228522755638 0.3728547745921763 0  0.6326146354246069 0.372499230530723 0  0.6969654758988949 0.372142182559254 0  0.7617734027091999 0.3718159263691626 0  0.8271562341557489 0.3715735084587732 0  0.8932461034522918 0.3714950287363423 0  0.9601765956032033 0.371690998625761 0  1.028070823011503 0.3722976593246755 0  0 0.4375 0  0.06293414059321024 0.4373103087461971 0  0.1258855058612212 0.4371141895501205 0  0.1888721448499354 0.4369050960150527 0  0.2519137579818461 0.4366763524546834 0  0.315032699462636 0.4364211817436177 0  0.3782552265599139 0.4361328815484104 0  0.4416131446739011 0.4358052615989704 0  0.5051460653750927 0.4354335282086896 0  0.5689045856204691 0.4350159189497576 0  0.6329547928657451 0.434556562373285 0  0.6973845462426247 0.4340702553277841 0  0.7623118621160634 0.4335900234467374 0  0.827895322882211 0.4331781571739634 0  0.8943459889132057 0.4329402159820326 0  0.9619416922267089 0.4330383906043712 0  1.031053717853177 0.4336960842186272 0  0 0.5 0  0.0629397852420195 0.4998002050340132 0  0.1258966764758971 0.4995928813084757 0  0.1888885064704451 0.4993702622734679 0  0.2519346324517712 0.4991241581123812 0  0.3150568606766099 0.4988457980948965 0  0.3782806183858305 0.498525774980874 0  0.4416365603716343 0.498154195492187 0  0.5051629352295071 0.4977212335773399 0  0.5689092796337489 0.4972184509007538 0  0.6329424132595397 0.4966415432908027 0  0.6973563141376627 0.4959956581683099 0  0.7622882062944141 0.4953051258574787 0  0.8279437723241603 0.4946300894090102 0  0.8946342695542989 0.4940918922976252 0  0.9628282526108594 0.4939041545041125 0  1.033228912354482 0.4943938092544449 0  0 0.5625 0  0.06292839090961119 0.5622975826394903 0  0.1258730582298699 0.5620867469558394 0  0.1888508558705295 0.5618587033549423 0  0.2518799228839826 0.5616038977951747 0  0.314980442061423 0.5613116171947193 0  0.3781755968165056 0.5609696053401196 0  0.441492916089817 0.5605637481001707 0  0.5049663903827863 0.5600779734554223 0  0.56864013815879 0.5594946933188653 0  0.6325751803383926 0.5587964911424328 0  0.6968623109695572 0.5579705307176142 0  0.7616463834649323 0.5570186706895436 0  0.8271702878247944 0.5559788578156805 0  0.8938485153122289 0.554966151930274 0  0.9623771321136734 0.5542382780076444 0  1.033886476516801 0.5542663761339492 0  0 0.625 0  0.06290073847281288 0.6248032978368037 0  0.1258163090226353 0.6245976570534167 0  0.1887619406993576 0.6243736419422321 0  0.2517538247667533 0.6241207185366298 0  0.3148096301122711 0.6238266073738384 0  0.3779491028284083 0.6234765193906967 0  0.4411948740779653 0.6230522504836661 0  0.5045737892797576 0.6225311529084704 0  0.5681195290710278 0.6218851223860954 0  0.6318783569740452 0.6210800613807551 0  0.695922184178054 0.6200771198611712 0  0.7603779608267834 0.6188391971462839 0  0.8254908629639055 0.6173516757415581 0  0.8917484642463681 0.6156783207344054 0  0.9600889011842583 0.614085779549981 0  1.032192024617693 0.6132249013877555 0  0 0.6875 0  0.06285822902765757 0.6873178366912127 0  0.1257293604255932 0.6871267348060068 0  0.1886265119530894 0.6869171676963087 0  0.2515634118906821 0.6866782547128684 0  0.3145546352842878 0.6863968996469606 0  0.3776157588943964 0.6860566765154881 0  0.4407634163115781 0.6856363332162994 0  0.5040153183220508 0.6851077474959416 0  0.5673906119120405 0.6844331447854805 0  0.6309119122021035 0.6835614430589345 0  0.6946130827343515 0.6824239808850923 0  0.7585641402363655 0.6809315557184923 0  0.8229424965894405 0.6789812119964315 0  0.8882154858756952 0.6765057759161042 0  0.9555184305995188 0.6736793486743158 0  1.027196467231415 0.6714256678612726 0  0 0.75 0  0.06280276872659581 0.7498411706467437 0  0.1256161648449609 0.7496740352323779 0  0.1884508820790761 0.7494896699559549 0  0.251317914028418 0.7492776906400628 0  0.3142285424195032 0.749025275811775 0  0.3771940787017834 0.7487158334889175 0  0.4402251591369257 0.7483270899113204 0  0.5033302770860976 0.7478282582517946 0  0.5665131311743106 0.7471757446103651 0  0.6297685372756929 0.7463065135256418 0  0.6930781435050322 0.7451276956086518 0  0.7564137141877466 0.7435003541289606 0  0.8197797048521791 0.7412160551297274 0  0.8834078242513347 0.737978751953677 0  0.9484551345980065 0.7335162876849551 0  1.017961190332342 0.728746440613102 0  0 0.8125 0  0.06273663513195624 0.8123726507024358 0  0.1254814017965402 0.8122383021602482 0  0.1882424070328059 0.8120893871714194 0  0.2510278476141318 0.811916972240302 0  0.3138458498894019 0.8117098125909583 0  0.3767039713949828 0.8114530186126958 0  0.4396080314642805 0.8111260712196484 0  0.5025596189934506 0.8106997573314808 0  0.5655510010686694 0.8101312959994648 0  0.6285550052461191 0.8093563529598146 0  0.6915056731229949 0.8082754440517022 0  0.7542644340851086 0.8067294092475382 0  0.8165755758187803 0.8044514201995318 0  0.8780822101629184 0.8009656303842628 0  0.938867916584081 0.7953864120247632 0  1.004444614010797 0.7864813331963656 0  0 0.875 0  0.06266234722797641 0.8749109696404641 0  0.1253301970226346 0.8748168709015579 0  0.1880090010736067 0.8747121997327952 0  0.2507042107874587 0.8745903921966292 0  0.3134210999152879 0.8744430756311888 0  0.3761642829154494 0.874258990269649 0  0.4389365994074661 0.8740223505816935 0  0.5017366568244893 0.873710264963356 0  0.5645534547791947 0.8732885686549783 0  0.6273544726302489 0.872704958222064 0  0.6900587524663785 0.8718774256331634 0  0.7524752415233418 0.8706738164976627 0  0.8141628119407103 0.8688704707726305 0  0.8741309651880862 0.8660415156318978 0  0.9303011942211027 0.861162805288189 0  0.9789169315050078 0.8510819669717105 0  0 0.9375 0  0.0625825606287847 0.9374542126203262 0  0.1251679074297153 0.9374057652009965 0  0.1877587956725774 0.937351761720769 0  0.250357975371552 0.937288728377059 0  0.3129680955635 0.9372122005385911 0  0.3755914463803751 0.9371161213561262 0  0.4382293548697043 0.936991917982
[...]
<PointData  Vectors="f_54"> 
<DataArray  type="Float64"  Name="f_54"  NumberOfComponents="3" format="ascii">0.0000000000000000e+00 0.0000000000000000e+00 0.0000000000000000e+00  0.0000000000000000e+00 0.0000000000000000e+00 0.0000000000000000e+00  0.0000000000000000e+00 0.0000000000000000e+00 0.0000000000000000e+00  0.0000000000000000e+00 0.0000000000000000e+00 0.0000000000000000e+00  0.0000000000000000e+00 0.0000000000000000e+00 0.0000000000000000e+00  0.0000000000000000e+00 0.0000000000000000e+00 0.0000000000000000e+00  0.0000000000000000e+00 0.0000000000000000e+00 0.0000000000000000e+00  0.0000000000000000e+00 0.0000000000000000e+00 0.0000000000000000e+00  0.0000000000000000e+00 0.0000000000000000e+00 0.0000000000000000e+00  0.0000000000000000e+00 0.0000000000000000e+00 0.0000000000000000e+00  0.0000000000000000e+00 0.0000000000000000e+00 0.0000000000000000e+00  0.0000000000000000e+00 0.0000000000000000e+00 0.0000000000000000e+00  0.0000000000000000e+00 0.0000000000000000e+00 0.0000000000000000e+00  0.0000000000000000e+00 0.0000000000000000e+00 0.0000000000000000e+00  0.0000000000000000e+00 0.0000000000000000e+00 0.0000000000000000e+00  0.0000000000000000e+00 0.0000000000000000e+00 0.0000000000000000e+00  0.0000000000000000e+00 0.0000000000000000e+00 0.0000000000000000e+00  0.0000000000000000e+00 0.0000000000000000e+00 0.0000000000000000e+00  -3.9195646264672801e-06 -2.8023426426008917e-07 0.0000000000000000e+00  -7.9385301432748699e-06 -5.6078275864770409e-07 0.0000000000000000e+00  -1.2158133919191508e-05 -8.4112224418580217e-07 0.0000000000000000e+00  -1.6674588436239225e-05 -1.1183675246528330e-06 0.0000000000000000e+00  -2.1575082883735214e-05 -1.3858738460425885e-06 0.0000000000000000e+00  -2.6931642037903542e-05 -1.6316269642347810e-06 0.0000000000000000e+00  -3.2791936759135775e-05 -1.8364705806580071e-06 0.0000000000000000e+00  -3.9165958318614786e-05 -1.9723669396376909e-06 0.0000000000000000e+00  -4.6007198965117963e-05 -2.0010992127124198e-06 0.0000000000000000e+00  -5.3186576448143121e-05 -1.8740451729095452e-06 0.0000000000000000e+00  -6.0456857288481766e-05 -1.5335834252538786e-06 0.0000000000000000e+00  -6.7405606446611349e-05 -9.1521583241559087e-07 0.0000000000000000e+00  -7.3400459070830322e-05 5.7450348923406275e-08 0.0000000000000000e+00  -7.7565041043462594e-05 1.5204702854572510e-06 0.0000000000000000e+00  -7.9011155270710765e-05 3.9112343226171064e-06 0.0000000000000000e+00  -7.8828274342619001e-05 9.1781030419461601e-06 0.0000000000000000e+00  0.0000000000000000e+00 0.0000000000000000e+00 0.0000000000000000e+00  -7.7467875041814350e-06 -5.6063348054358698e-07 0.0000000000000000e+00  -1.5696136733966184e-05 -1.1230644316582529e-06 0.0000000000000000e+00  -2.4054653479192241e-05 -1.6874839843742853e-06 0.0000000000000000e+00  -3.3020475441443077e-05 -2.2494925330741689e-06 0.0000000000000000e+00  -4.2776137127213988e-05 -2.7973000902970642e-06 0.0000000000000000e+00  -5.3477208674074503e-05 -3.3083871339929104e-06 0.0000000000000000e+00  -6.5234875704244327e-05 -3.7456501278924894e-06 0.0000000000000000e+00  -7.8090216526553936e-05 -4.0533398067636887e-06 0.0000000000000000e+00  -9.1977282606942355e-05 -4.1535904352447574e-06 0.0000000000000000e+00  -1.0667085988394881e-04 -3.9451045328293694e-06 0.0000000000000000e+00  -1.2171201731910867e-04 -3.3066392022293718e-06 0.0000000000000000e+00  -1.3629737869140746e-04 -2.1094170062925128e-06 0.0000000000000000e+00  -1.4909711293562721e-04 -2.4546002138606888e-07 0.0000000000000000e+00  -1.5789712398142508e-04 2.3095492116084119e-06 0.0000000000000000e+00  -1.5869638477894216e-04 5.3173870590756052e-06 0.0000000000000000e+00  -1.4271522934698066e-04 7.5463903892258470e-06 0.0000000000000000e+00  0.0000000000000000e+00 0.0000000000000000e+00 0.0000000000000000e+00  -1.1374493022022091e-05 -8.3937666423502529e-07 0.0000000000000000e+00  -2.3060102499036276e-05 -1.6842622474833823e-06 0.0000000000000000e+00  -3.5374780001603892e-05 -2.5379619858850721e-06 0.0000000000000000e+00  -4.8627469665139090e-05 -3.3973277544849761e-06 0.0000000000000000e+00  -6.3109475619841019e-05 -4.2486363454114711e-06 0.0000000000000000e+00  -7.9079733119328773e-05 -5.0624167576660878e-06 0.0000000000000000e+00  -9.6741261320550093e-05 -5.7870704435383111e-06 0.0000000000000000e+00  -1.1620544634146210e-04 -6.3414740569425775e-06 0.0000000000000000e+00  -1.3743989362813476e-04 -6.6074606014491455e-06 0.0000000000000000e+00  -1.6019400703744442e-04 -6.4244085695843544e-06 0.0000000000000000e+00  -1.8389305239595863e-04 -5.5905672464003631e-06 0.0000000000000000e+00  -2.0748324407391481e-04 -3.8800484235780866e-06 0.0000000000000000e+00  -2.2919028681746972e-04 -1.0926371532229309e-06 0.0000000000000000e+00  -2.4610832771357615e-04 2.8291339774144410e-06 0.0000000000000000e+00  -2.5345801427441907e-04 7.5461563454975279e-06 0.0000000000000000e+00  -2.4337956556262267e-04 1.1835193031746699e-05 0.0000000000000000e+00  0.0000000000000000e+00 0.0000000000000000e+00 0.0000000000000000e+00  -1.4690902235501206e-05 -1.1124271078759281e-06 0.0000000000000000e+00  -2.9807070865474700e-05 -2.2371640553896810e-06 0.0000000000000000e+00  -4.5784150039872928e-05 -3.3840214345661570e-06 0.0000000000000000e+00  -6.3052308949776371e-05 -4.5551830092427839e-06 0.0000000000000000e+00  -8.2028470466748277e-05 -5.7400173766569372e-06 0.0000000000000000e+00  -1.0310095990410443e-04 -6.9081322618835164e-06 0.0000000000000000e+00  -1.2660303266529355e-04 -8.0001120774973087e-06 0.0000000000000000e+00  -1.5277088676758944e-04 -8.9156095308929323e-06 0.0000000000000000e+00  -1.8168075009324003e-04 -9.4991219814498739e-06 0.0000000000000000e+00  -2.1315835280873049e-04 -9.5253203610433721e-06 0.0000000000000000e+00  -2.4665212002353780e-04 -8.6889977128635191e-06 0.0000000000000000e+00  -2.8105773399041953e-04 -6.6108775873966662e-06 0.0000000000000000e+00  -3.1447543352063534e-04 -2.8816899289338938e-06 0.0000000000000000e+00  -3.4387808348828035e-04 2.8147130088792995e-06 0.0000000000000000e+00  -3.6470730864694798e-04 1.0435806941542819e-05 0.0000000000000000e+00  -3.7065369118119472e-04 1.9114423166685639e-05 0.0000000000000000e+00  0.0000000000000000e+00 0.0000000000000000e+00 0.0000000000000000e+00  -1.7579947943272213e-05 -1.3727196816403545e-06 0.0000000000000000e+00  -3.5703105272911868e-05 -2.7681454747012232e-06 0.0000000000000000e+00  -5.4927454205967167e-05 -4.2066395648688022e-06 0.0000000000000000e+00  -7.5813997011718370e-05 -5.7008564356123442e-06 0.0000000000000000e+00  -9.8922816238984442e-05 -7.2500297831477727e-06 0.0000000000000000e+00  -1.2480067214036653e-04 -8.8316972180952009e-06 0.0000000000000000e+00  -1.5395585258649324e-04 -1.0389671944120078e-05 0.0000000000000000e+00  -1.8681478898170253e-04 -1.1816920726736771e-05 0.0000000000000000e+00  -2.2365371948099448e-04 -1.2932159524801855e-05 0.0000000000000000e+00  -2.6449778311935694e-04 -1.3449982343800720e-05 0.0000000000000000e+00  -3.0897997032698561e-04 -1.2947312493638543e-05 0.0000000000000000e+00  -3.5615435469665927e-04 -1.0835920596731396e-05 0.0000000000000000e+00  -4.0426435405706035e-04 -6.3646551019503751e-06 0.0000000000000000e+00  -4.5048508695068795e-04 1.3016511522574747e-06 0.0000000000000000e+00  -4.9071273985775603e-04 1.2851024967676441e-05 0.0000000000000000e+00  -5.1960735493713562e-04 2.8356135797393185e-05 0.0000000000000000e+00  0.0000000000000000e+00 0.0000000000000000e+00 0.0000000000000000e+00  -1.9923523308354548e-05 -1.6097169251295102e-06 0.0000000000000000e+00  -4.0507759617528062e-05 -3.2560968338350998e-06 0.0000000000000000e+00  -6.2433453142706359e-05 -4.9742030147567577e-06 0.0000000000000000e+00  -8.6398281796303342e-05 -6.7928168044389985e-06 0.0000000000000000e+00  -1.1312016711238505e-04 -8.7291123417579418e-06 0.0000000000000000e+00  -1.4333214238080618e-04 -1.0780099873260668e-05 0.0000000000000000e+00  -1.7776387539199638e-04 -1.2908900103104900e-05 0.0000000000000000e+00  -2.1710310871474696e-04 -1.5023097428294690e-05 0.0000000000000000e+00  -2.6192832872284769e-04 -1.6941465669967311e-05 0.0000000000000000e+00  -3.1260271291697783e-04 -1.8344693622282257e-05 0.0000000000000000e+00  -3.6912057633123248e-04 -1.8706603187406663e-05 0.0000000000000000e+00  -4.3090427368965180e-04 -1.7207647824790197e-05 0.0000000000000000e+00  -4.9656631960343892e-04 -1.2647539941703032e-05 0.0000000000000000e+00  -5.6368261825459598e-04 -3.4049297042415886e-06 0.0000000000000000e+00  -6.2866729661690711e-04 1.2463155650734088e-05 0.0000000000000000e+00  -6.8687932565403872e-04 3.6862677749300171e-05 0.0000000000000000e+00  0.0000000000000000e+00 0.0000000000000000e+00 0.0000000000000000e+00  -2.1605995592333937e-05 -1.8095072788311516e-06 0.0000000000000000e+00  -4.3982907372800546e-05 -3.6724422728570587e-06 0.0000000000000000e+00  -6.7927691076696156e-05 -5.6420412165513405e-06 0.0000000000000000e+00  -9.4273383090035751e-05 -7.7684780266005836e-06 0.0000000000000000e+00  -1.2390326696306829e-04 -1.0095199646612038e-05 0.0000000000000000e+00  -1.5775795609422036e-04 -1.2651849386388426e-05 0.0000000000000000e+00  -1.9683018950085150e-04 -1.5441244422013326e-05 0.0000000000000000e+00  -2.4213930924644379e-04 -1.8416231537005055e-05 0.0000000000000000e+00  -2.9467386048861755e-04 -2.1439652168428185e-05 0.0000000000000000e+00  -3.5528749988218049e-04 -2.4216931348267239e-05 0.0000000000000000e+00  -4.2453325720359045e-04 -2.6186532153884414e-05 0.0000000000000000e+00  -5.0243040419630436e-04 -2.6351647386461600e-05 0.0000000000000000e+00  -5.8818673254790209e-04 -2.3045454836041189e-05 0.0000000000000000e+00  -6.7995369599696976e-04 -1.3657373380083242e-05 0.0000000000000000e+00  -7.7475173365905284e-04 5.5839058936531040e-06 0.0000000000000000e+00  -8.6869082473068498e-04 3.9631674654956454e-05 0.0000000000000000e+00  0.0000000000000000e+00 0.0000000000000000e+00 0.0000000000000000e+00  -2.2521080958107470e-05 -1.9556040581689730e-06 0.0000000000000000e+00  -4.5906628289603948e-05 -3.9826312855711294e-06 0.0000000000000000e+00  -7.1053611532795389e-05 -6.1543346087973746e-06 0.0000000000000000e+00  -9.8918378347604254e-05 -8.5458957464236666e-06 0.0000000000000000e+00  -1.3054504344270563e-04 -1.1233879447364419e-05 0.0000000000000000e+00  -1.6709002241975011e-04 -1.4292957464500209e-05 0.0000000000000000e+00  -2.0983795664171801e-04 -1.7787314333936383e-05 0.0000000000000000e+00  -2.6020023105769645e-04 -2.1751849116841193e-05 0.0000000000000000e+00  -3.1968123499053597e-04 -2.6154021055967066e-05 0.0000000000000000e+00  -3.8978981567125046e-04 -3.0819517779355508e-05 0.0000000000000000e+00  -4.7186712561686842e-04 -3.5292040818877731e-05 0.0000000000000000e+00  -5.6680737378767487e-04 -3.8579010196959424e-05 0.0000000000000000e+00  -6.7468800813658039e-04 -3.8718619075697956e-05 0.0000000000000000e+00  -7.9443241368724676e-04 -3.2119480303683187e-05 0.0000000000000000e+00  -9.2378283816034609e-04 -1.2719196025672141e-05 0.0000000000000000e+00  -1.0598609058610092e-03 2.8906813494517667e-05 0.0000000000000000e+00  0.0000000000000000e+00 0.0000000000000000e+00 0.0000000000000000e+00  -2.2580858545488619e-05 -2.0305295466655706e-06 0.0000000000000000e+00  -4.6091831557608704e-05 -4.1493493961111107e-06 0.0000000000000000e+00  -7.1501901597693305e-05 -6.4489863983218653e-06 0.0000000000000000e+00  -9.9864636945009531e-05 -9.0301595053236000e-06 0.0000000000000000e+00  -1.3236323777441518e-04 -1.2005627469082446e-05 0.0000000000000000e+00  -1.7035729542078489e-04 -1.5503058875139929e-05 0.0000000000000000e+00  -2.1542837836765680e-04 -1.9665201396654252e-05 0.0000000000000000e+00  -2.6941661818023793e-04 -2.4643360254899220e-05 0.0000000000000000e+00  -3.3443152284643666e-04 -3.0575290333974342e-05 0.0000000000000000e+00  -4.1280556630143427e-04 -3.7528030993722844e-05 0.0000000000000000e+00  -5.0693912998557925e-04 -4.5363820277787907e-05 0.0000000000000000e+00  -6.1897058871407049e-04 -5.3442313119480506e-05 0.0000000000000000e+00  -7.5023749439284519e-04 -5.9994710737877957e-05 0.0000000000000000e+00  -9.0068094404092307e-04 -6.0923773080486853e-05 0.0000000000000000e+00  -1.0687964809488169e-03 -4.7867081498372552e-05 0.0000000000000000e+00  -1.2531433264224201e-03 -5.7358752817623220e-06 0.0000000000000000e+00  0.0000000000000000e+00 0.0000000000000000e+00 0.0000000000000000e+00  -2.1726295689006495e-05 -2.0181236831662690e-06 0.0000000000000000e+00  -4.4408467656667073e-05 -4.1373915705933162e-06 0.0000000000000000e+00  -6.9046643657023164e-05 -6.4655671408864007e-06 0.0000000000000000e+00  -9.6749109048192776e-05 -9.1251074292738761e-06 0.0000000000000000e+00  -1.2879452347588130e-04 -1.2261989708460890e-05 0.0000000000000000e+00  -1.6670380996298363e-04 -1.6056207991503168e-05 0.0000000000000000e+00  -2.1232283799151239e-04 -2.0734094088358705e-05 0.0000000000000000e+00  -2.6791254614462316e-04 -2.6581505164607419e-05 0.0000000000000000e+00  -3.3623273856902717e-04 -3.3953694969419007e-05 0.0000000000000000e+00  -4.2058390178016186e-04 -4.3268689802443952e-05 0.0000000000000000e+00  -5.2473031027879305e-04 -5.4946281640109840e-05 0.0000000000000000e+00  -6.5256444109551884e-04 -6.9187996574920189e-05 0.0000000000000000e+00  -8.0732565189489485e-04 -8.5321936323579195e-05 0.0000000000000000e+00  -9.9037760061410399e-04 -1.0006902359165242e-04 0.0000000000000000e+00  -1.2005962433242459e-03 -1.0378124653253710e-04 0.0000000000000000e+00  -1.4365546590896869e-03 -7.4941396970525990e-05 0.0000000000000000e+00  0.0000000000000000e+00 0.0000000000000000e+00 0.0000000000000000e+00  -1.9938177010484755e-05 -1.9063167937577191e-06 0.0000000000000000e+00  -4.0807149290579164e-05 -3.9196900845243218e-06 0.0000000000000000e+00  -6.3585156517611434e-05 -6.1556282479186043e-06 0.0000000000000000e+00  -8.9375837374521222e-05 -8.7496456805790128e-06 0.0000000000000000e+00  -1.1948502839248510e-04 -1.1870502930261513e-05 0.0000000000000000e+00  -1.5551671707780137e-04 -1.5737982173531238e-05 0.0000000000000000e+00  -1.9949568792575504e-04 -2.0647780366005184e-05 0.0000000000000000e+00  -2.5402304095576144e-04 -2.7007135961354884e-05 0.0000000000000000e+00  -3.2246344222658174e-04 -3.5385911653923055e-05 0.0000000000000000e+00  -4.0914015575111307e-04 -4.6587464893895942e-05 0.0000000000000000e+00  -5.1945508114053553e-04 -6.1734607531748896e-05 0.0000000000000000e+00  -6.5971762819461838e-04 -8.2318955189011769e-05 0.0000000000000000e+00  -8.3621211165037864e-04 -1.0996169540615750e-04 0.0000000000000000e+00  -1.0528013933246482e-03 -1.4485362187637775e-04 0.0000000000000000e+00  -1.3082874715955694e-03 -1.7945692628600266e-04 0.0000000000000000e+00  -1.6021199259270988e-03 -1.8685409190482671e-04 0.0000000000000000e+00  0.0000000000000000e+00 0.0000000000000000e+00 0.0000000000000000e+00  -1.7246838724369637e-05 -1.6899008293558515e-06 0.0000000000000000e+00  -3.5340860678029230e-05 -3.4834940023226470e-06 0.0000000000000000e+00  -5.5176320685637586e-05 -5.4937006509867426e-06 0.0000000000000000e+00  -7.7778620577320705e-05 -7.8561167423154020e-06 0.0000000000000000e+00  -1.0438901332647532e-04 -1.0744792757205909e-05 0.0000000000000000e+00  -1.3657724291657615e-04 -1.4394614109034922e-05 0.0000000000000000e+00  -1.7639749548417936e-04 -1.9134817060715788e-05 0.0000000000000000e+00  -2.2660803357900657e-04 -2.5441289021159100e-05 0.0000000000000000e+00  -2.9097816116852932e-04 -3.4021326102521490e-05 0.0000000000000000e+00  -3.7469828857833752e-04 -4.5956487493806877e-05 0.0000000000000000e+00  -4.8486138829390902e-04 -6.2952514129734381e-05 0.0000000000000000e+00  -6.3081845544620365e-04 -8.7783370904760894e-05 0.0000000000000000e+00  -8.2371803916225317e-04 -1.2502575090619065e-04 0.0000000000000000e+00  -1.0731531225688718e-03 -1.8175261036711008e-04 0.0000000000000000e+00  -1.3754616613960719e-03 -2.6375035941285786e-04 0.0000000000000000e+00  -1.7286174396242443e-03 -3.2862294003822081e-04 0.0000000000000000e+00  0.0000000000000000e+00 0.0000000000000000e+00 0.0000000000000000e+00  -1.3738731691812575e-05 -1.3727011410180933e-06 0.0000000000000000e+00  -2.8180439516202111e-05 -2.8353449533111983e-06 0.0000000000000000e+00  -4.4070062565174609e-05 -4.4865053977345691e-06 0.0000000000000000e+00  -6.2273630701310695e-05 -6.4464631339489056e-06 0.0000000000000000e+00  -8.3860008987810537e-05 -8.8726912289059811e-06 0.0000000000000000e+00  -1.1021519507938017e-04 -1.1982335606998236e-05 0.0000000000000000e+00  -1.4321090366551547e-04 -1.6086645200063089e-05 0.0000000000000000e+00  -1.8546202341200490e-04 -2.1645894104278476e-05 0.0000000000000000e+00  -2.4072759955270418e-04 -2.9360713543108568e-05 0.0000000000000000e+00  -3.1453663616453611e-04 -4.0332632382004380e-05 0.0000000000000000e+00  -4.1513806775077814e-04 -5.6369978279541849e-05 0.0000000000000000e+00  -5.5481311113045144e-04 -8.0635886164433069e-05 0.0000000000000000e+00  -7.5119235551035068e-04 -1.1917449345008013e-04 0.0000000000000000e+00  -1.0265895338979409e-03 -1.8473870592115223e-04 0.0000000000000000e+00  -1.3957628847569255e-03 -3.0634753939812865e-04 0.0000000000000000e+00  -1.7413865946792916e-03 -5.5729224571809044e-04 0.0000000000000000e+00  0.0000000000000000e+00 0.0000000000000000e+00 0.0000000000000000e+00  -9.5577649562439901e-06 -9.6856778882782792e-07 0.0000000000000000e+00  -1.9619115575748590e-05 -2.0034850858423535e-06 0.0000000000000000e+00  -3.0719321723746326e-05 -3.1777504586226458e-06 0.0000000000000000e+00  -4.3487184008387160e-05 -4.5813254300456955e-06 0.0000000000000000e+00  -5.8710340455209887e-05 -6.3333340538153621e-06 0.0000000000000000e+00  -7.7430097840927494e-05 -8.5998181203259746e-06 0.0000000000000000e+00  -1.0108815671397970e-04 -1.1620696208655987e-05 0.0000000000000000e+00  -1.3176484574850807e-04 -1.5751529973330855e-05 0.0000000000000000e+00  -1.7258139203533390e-04 -2.1528613227576690e-05 0.0000000000000000e+00  -2.2840090294152105e-04 -2.9770451450190668e-05 0.0000000000000000e+00  -3.0707445974699797e-04 -4.1739888399610721e-05 0.0000000000000000e+00  -4.2165088969761281e-04 -5.9443206286598765e-05 0.0000000000000000e+00  -5.9411843524276450e-04 -8.6427134257465596e-05 0.0000000000000000e+00  -8.6098152595504398e-04 -1.3080645004597978e-04 0.0000000000000000e+00  -1.2797485943745540e-03 -2.1727345487220829e-04 0.0000000000000000e+00  -1.9343942920057461e-03 -4.2109637877321807e-04 0.0000000000000000e+00  0.0000000000000000e+00 0.0000000000000000e+00 0.0000000000000000e+00  -4.8998300716383439e-06 -5.0080533159995873e-07 0.0000000000000000e+00  -1.0062153309513393e-05 -1.0367749427814382e-06 0.0000000000000000e+00  -1.5766470799579915e-05 -1.6466662357804232e-06 0.0000000000000000e+00  -2.2343178537797159e-05 -2.3784760023707325e-06 0.0000000000000000e+00  -3.0209855650086319e-05 -3.2960760993966680e-06 0.0000000000000000e+00  -3.9925214590643643e-05 -4.4887881037244197e-06 0.0000000000000000e+00  -5.2275139289887387e-05 -6.0855324751715011e-06 0.0000000000000000e+00  -6.8417984353531566e-05 -8.2752285729895707e-06 0.0000000000000000e+00  -9.0142980027607805e-05 -1.1332818781132012e-05 0.0000000000000000e+00  -1.2035245980848987e-04 -1.5637760003286513e-05 0.0000000000000000e+00  -1.6399792205682860e-04 -2.1618950824434214e-05 0.0000000000000000e+00  -2.2991652181923253e-04 -2.9356082772540566e-05 0.0000000000000000e+00  -3.3413901951556647e-04 -3.6849078882305824e-05 0.0000000000000000e+00  -5.0325811656289922e-04 -3.4044758321841466e-05 0.0000000000000000e+00  -7.6228144760371490e-04 9.9029480503166600e-06 0.0000000000000000e+00  -1.0634647740379356e-03 1.3210598294511770e-04 0.0000000000000000e+00  0.0000000000000000e+00 0.0000000000000000e+00 0.0000000000000000e+00  0.0000000000000000e+00 0.0000000000000000e+00 0.0000000000000000e+00  0.0000000000000000e+00 0.0000000000000000e+00 0.0000000000000000e+00  0.0000000000000000e+00 0.0000000000000000e+00 0.0000000000000000e+00  0.0000000000000000e+00 0.0000000000000000e+00 0.0000000000000000e+00  0.0000000000000000e+00 0.0000000000000000e+00