<?xml version="1.0"?>
<VTKFile type="UnstructuredGrid"  version="0.1"  >
<UnstructuredGrid>
<Piece  NumberOfPoints="289" NumberOfCells="512">
<Points>
<DataArray  type="Float64"  NumberOfComponents="3"  format="ascii">0 0 0  0.0625 0 0  0.125 0 0  0.1875 0 0  0.25 0 0  0.3125 0 0  0.375 0 0  0.4375 0 0  0.5 0 0  0.5625 0 0  0.625 0 0  0.6875 0 0  0.75 0 0  0.8125 0 0  0.875 0 0  0.9375 0 0  1 0 0  0 0.0625 0  0.06252156651035323 0.06249983554347002 0  0.1250437123589948 0.06249966824425192 0  0.1875670091208193 0.06249949552661305 0  0.2500920099201608 0.06249931538001362 0  0.312619233484862 0.06249912671207434 0  0.3751491403740967 0.06249892977617937 0  0.4376820995531809 0.06249872667861955 0  0.5002183450257652 0.06249852194443173 0  0.5627579256339307 0.06249832306832252 0  0.6253006585351801 0.06249814083309131 0  0.6878461140620827 0.06249798864697802 0  0.7503937052980509 0.06249787785505952 0  0.8129430966933049 0.06249779548109926 0  0.8754956407742008 0.0624976018478338 0  0.9380594527800376 0.06249655347009003 0  1.000668534125079 0.0624910411150787 0  0 0.125 0  0.06254255968993311 0.1249996738743097 0  0.1250862865967381 0.124999341790421 0  0.1876323351422408 0.1249989982948375 0  0.2501818282710268 0.1249986390092098 0  0.3127358280118787 0.1249982613180198 0  0.375295289720856 0.1249978652201825 0  0.4378609954241927 0.1249974543663201 0  0.5004334638011939 0.1249970372672551 0  0.5630128390242585 0.1249966286179683 0  0.6255987696959017 0.1249962506901844 0  0.6881903048925684 0.1249959350704189 0  0.7507858584290296 0.1249957269066051 0  0.8133833145420787 0.1249957033576919 0  0.8759802780511419 0.1249960655533212 0  0.9385737606969776 0.124997603757806 0  1.001154208296158 0.1250040621289454 0  0 0.1875 0  0.06256239157939361 0.18749951810919 0  0.125126551950402 0.187499026632898 0  0.1876942375722509 0.1874985166662017 0  0.250267171438011 0.1874979807704819 0  0.3128470054915112 0.1874974139516784 0  0.3754352574314765 0.1874968149154101 0  0.4380332131822288 0.1874961876510135 0  0.5006417878164688 0.1874955433417223 0  0.5632613418767183 0.1874949025128278 0  0.6258914582846646 0.1874942972262464 0  0.6885306977445956 0.1874937730578955 0  0.7511763632790213 0.1874933905666761 0  0.8138242972813894 0.1874932249938359 0  0.87646864752367 0.1874933518506091 0  0.9391012553619505 0.1874937212613761 0  1.001709974272308 0.1874932678480531 0  0 0.25 0  0.06258046057370405 0.249999371876247 0  0.1251633048653912 0.249998729850867 0  0.1877509129724736 0.2499980607788135 0  0.2503456463731167 0.2499973531774118 0  0.3129498110717644 0.2499965984140787 0  0.3755655856585293 0.2499957923141233 0  0.4381949000255321 0.2499949372965213 0  0.5008392500749344 0.2499940450773753 0  0.5634994359611013 0.2499931398383915 0  0.6261752184728973 0.2499922614911678 0  0.6888649022873533 0.2499914681832559 0  0.7515648762185899 0.2499908362252268 0  0.8142691639465488 0.2499904532854713 0  0.8769690529161228 0.2499903945207964 0  0.9396528855740323 0.2499906597104461 0  1.002306280877791 0.2499910837384704 0  0 0.3125 0  0.0625961517985308 0.3124992394915854 0  0.1251953069829309 0.312498459999349 0  0.1878004847600504 0.3124976432292254 0  0.2504147228909851 0.3124967724601697 0  0.3130410544645459 0.3124958338068883 0  0.3756824414616493 0.3124948180735011 0  0.4383416443030955 0.3124937234035104 0  0.5010210025964584 0.3124925588829459 0  0.5637221002925255 0.3124913491039178 0  0.6264452921318575 0.3124901393594122 0  0.6891890836288189 0.3124890005040131 0  0.7519493923780638 0.3124880314911433 0  0.8147187841364286 0.3124873563955396 0  0.8774858824531817 0.3124871131344372 0  0.940235303866267 0.3124874418427557 0  1.00294867401743 0.3124885354973528 0  0 0.375 0  0.06260884575378657 0.3749991260358203 0  0.1252212999371123 0.374998227305386 0  0.1878410186708791 0.3749972794785434 0  0.2504717402876941 0.374996259325135 0  0.3131172926600537 0.3749951458450227 0  0.3757815531031417 0.3749939221630361 0  0.4384683334974505 0.3749925785382662 0  0.5011811536952767 0.3749911168636446 0  0.5639228563194006 0.3749895569607055 0  0.6266950102893377 0.3749879446811674 0  0.6894970585679457 0.3749863611272485 0  0.7523252055400816 0.3749849310104961 0  0.8151711384772707 0.3749838263149888 0  0.8780208668138676 0.3749832596860555 0  0.9408542515007078 0.3749834613466403 0  1.00364610473151 0.3749846271596561 0  0 0.4375 0  0.06261793770604371 0.4374990372877162 0  0.1252400424337514 0.4374980435793828 0  0.187870573373859 0.437496987839621 0  0.250513963316309 0.4374958391892845 0  0.3131748765145132 0.4374945676071883 0  0.3758582223584923 0.4374931455172426 0  0.4385690930366815 0.4374915507826467 0  0.5013125764095059 0.4374897718008012 0  0.5640933728027565 0.4374878155256059 0  0.6269151193939255 0.4374857191791253 0  0.6897793089143985 0.4374835658386992 0  0.7526837063660829 0.4374815024950717 0  0.8156202691554432 0.4374797559925861 0  0.8785728413512536 0.4374786373146432 0  0.9415153981218122 0.4374785192868861 0  1.004412315640017 0.4374797717998183 0  0 0.5 0  0.06262286952604271 0.4999989794710408 0  0.1252503737450997 0.4999979217437929 0  0.1878872943855431 0.4999967888744806 0  0.2505387022362265 0.499995541621004 0  0.313210086063018 0.499994139339049 0  0.3759074520244991 0.4999925407392953 0  0.4386373627894584 0.4999907061733481 0  0.501406861243982 0.4999886025000117 0  0.5642231854990689 0.4999862120805871 0  0.627093126886231 0.4999835479318878 0  0.6900218145058327 0.499980677121759 0  0.7530106527704286 0.4999777531891065 0  0.8160541635736205 0.499975054024539 0  0.8791357502903482 0.4999730121337375 0  0.9422231734485395 0.4999722090231785 0  1.005266071537731 0.4999732921779105 0  0 0.5625 0  0.06262317414259595 0.5624989587798261 0  0.1252513048421347 0.5624978748925471 0  0.1878895555463371 0.5624967040277756 0  0.2505435077728677 0.5624953986690135 0  0.3132193775803315 0.5624939067717274 0  0.3759242317823846 0.5624921710213261 0  0.4386661839410452 0.562490129357906 0  0.5014545225348901 0.5624877180653054 0  0.5642996727896993 0.5624848797147681 0  0.6272128047658376 0.5624815796885706 0  0.6902047565495066 0.5624778366406565 0  0.7532837379450427 0.5624737729407919 0  0.8164510686122635 0.5624696878052924 0  0.8796942009928955 0.562466142260784 0  0.9429770574589523 0.5624640122487539 0  1.006230383008848 0.5624643992287858 0  0 0.625 0  0.06261853038314935 0.6249989806732162 0  0.1252421334898137 0.624997914841528 0  0.1878761449011871 0.6249967533751802 0  0.2505264423380969 0.6249954417858564 0  0.3131997556354686 0.6249939173443083 0  0.3759040201298416 0.6249921061486641 0  0.4386487776931903 0.6249899205860898 0  0.5014456086311907 0.6249872583495597 0  0.5643085287344957 0.6249840056007532 0  0.6272541798334114 0.6249800495084799 0  0.6903014274623189 0.6249753097464189 0  0.7534695767021914 0.6249698043361739 0  0.8167737490395589 0.6249637691696406 0  0.8802151025295473 0.6249578423758084 0  0.9437632312736206 0.6249532901068544 0  1.007330702017916 0.6249522347294847 0  0 0.6875 0  0.06260882278872369 0.6874990489790824 0  0.1252225727772186 0.6874980502277224 0  0.1878464804270387 0.687496952509536 0  0.2504864119952926 0.6874956972223383 0  0.3131492610375852 0.6874942138485227 0  0.3758434353704394 0.6874924143844119 0  0.4385794808782807 0.6874901865675093 0  0.5013708842867625 0.687487386216309 0  0.564235079247384 0.6874838303639649 0  0.6271946090557877 0.6874792962013822 0  0.6902781929557499 0.6874735381885494 0  0.7535209198337339 0.6874663499116311 0  0.8169615927912308 0.687457718830239 0  0.8806328016894087 0.6874481340151979 0  0.94453527019701 0.6874390266244366 0  1.00858457642395 0.6874328972774448 0  0 0.75 0  0.06259419751433294 0.7499991649142559 0  0.1251928746188525 0.7499982843651963 0  0.1878008265848124 0.7499973088430107 0  0.2504235194267266 0.7499961801507807 0  0.3130675275577832 0.7499948255066565 0  0.3757411139024835 0.749993149503919 0  0.438455035921228 0.7499910227705894 0  0.5012236975022387 0.749988265920424 0  0.5640668150517605 0.749984627591512 0  0.6270118126065861 0.7499797573506255 0  0.6900971454939457 0.749973181684793 0  0.7533764730246552 0.749964313377655 0  0.8169224515179005 0.7499525804130313 0  0.8808252511808687 0.7499378747269542 0  0.9451709211543973 0.749921651366198 0  1.00996318872044 0.7499086810635862 0  0 0.8125 0  0.06257510263492615 0.8124993262054864 0  0.1251539228111172 0.8124986132467572 0  0.1877404683751678 0.8124978179494288 0  0.2503393706046537 0.8124968883826152 0  0.3129563096074137 0.8124957574806791 0  0.3755986055285615 0.8124943336740736 0  0.4382760893175071 0.81249248635643 0  0.5010024399196921 0.8124900225894217 0  0.5637973038823784 0.8124866491533649 0  0.6266897388505107 0.8124819109719124 0  0.6897239032132916 0.8124750952490414 0  0.7529684936707802 0.8124651012513503 0  0.8165320187658835 0.812450340382739 0  0.8805850987113933 0.8124289855127916 0  0.9453811093980145 0.8124006681973714 0  1.011215475693308 0.8123722449990959 0  0 0.875 0  0.0625523004372162 0.8749995265509373 0  0.125107267437347 0.8749990242305306 0  0.1876677913480786 0.8749984609109065 0  0.2502372468685374 0.8749977972622794 0  0.3128198343556142 0.8749969812321062 0  0.3754210702700165 0.8749959394930339 0  0.4380485394427504 0.8749945632637112 0  0.5007131087969012 0.8749926835525412 0  0.5634309739495681 0.8749900259644584 0  0.6262272609394713 0.8749861248060899 0  0.6891426511241735 0.8749801542727139 0  0.7522461556913933 0.8749705910136609 0  0.8156610444014181 0.8749545568607554 0  0.8796205583562378 0.8749267278987398 0  0.9445958611895191 0.8748788213625692 0  1.011616221657727 0.8748089566570798 0  0 0.9375 0  0.06252684189648808 0.9374997556583199 0  0.1250550771656934 0.9374994959759039 0  0.1875862211726782 0.9374992037804317 0  0.2501220545740058 0.9374988578164087 0  0.3126648138956307 0.9374984295143605 0  0.3752174708573021 0.9374978778179321 0  0.4377841711668194 0.9374971402375885 
[...]
<PointData  Vectors="f_54"> 
<DataArray  type="Float64"  Name="f_54"  NumberOfComponents="3" format="ascii">0.0000000000000000e+00 0.0000000000000000e+00 0.0000000000000000e+00  0.0000000000000000e+00 0.0000000000000000e+00 0.0000000000000000e+00  0.0000000000000000e+00 0.0000000000000000e+00 0.0000000000000000e+00  0.0000000000000000e+00 0.0000000000000000e+00 0.0000000000000000e+00  0.0000000000000000e+00 0.0000000000000000e+00 0.0000000000000000e+00  0.0000000000000000e+00 0.0000000000000000e+00 0.0000000000000000e+00  0.0000000000000000e+00 0.0000000000000000e+00 0.0000000000000000e+00  0.0000000000000000e+00 0.0000000000000000e+00 0.0000000000000000e+00  0.0000000000000000e+00 0.0000000000000000e+00 0.0000000000000000e+00  0.0000000000000000e+00 0.0000000000000000e+00 0.0000000000000000e+00  0.0000000000000000e+00 0.0000000000000000e+00 0.0000000000000000e+00  0.0000000000000000e+00 0.0000000000000000e+00 0.0000000000000000e+00  0.0000000000000000e+00 0.0000000000000000e+00 0.0000000000000000e+00  0.0000000000000000e+00 0.0000000000000000e+00 0.0000000000000000e+00  0.0000000000000000e+00 0.0000000000000000e+00 0.0000000000000000e+00  0.0000000000000000e+00 0.0000000000000000e+00 0.0000000000000000e+00  0.0000000000000000e+00 0.0000000000000000e+00 0.0000000000000000e+00  0.0000000000000000e+00 0.0000000000000000e+00 0.0000000000000000e+00  4.3135390295791006e-06 -5.8144125901484974e-08 0.0000000000000000e+00  8.7496913504219236e-06 -1.1772115726808896e-07 0.0000000000000000e+00  1.3430428072406436e-05 -1.8011149024941419e-07 0.0000000000000000e+00  1.8475813620051132e-05 -2.4657531660606137e-07 0.0000000000000000e+00  2.4001797862114582e-05 -3.1815777077826753e-07 0.0000000000000000e+00  3.0116540916450084e-05 -3.9555082184340625e-07 0.0000000000000000e+00  3.6914957926424021e-05 -4.7889623623456310e-07 0.0000000000000000e+00  4.4471598320704872e-05 -5.6751599209176835e-07 0.0000000000000000e+00  5.2833065917011752e-05 -6.5956538754569157e-07 0.0000000000000000e+00  6.2013924242424379e-05 -7.5163375793893008e-07 0.0000000000000000e+00  7.2007220323166941e-05 -8.3842611721959220e-07 0.0000000000000000e+00  8.2841354567760665e-05 -9.1311414805314090e-07 0.0000000000000000e+00  9.4780343417743553e-05 -9.7102669849117447e-07 0.0000000000000000e+00  1.0899234072971833e-04 -1.0292259766561543e-06 0.0000000000000000e+00  1.2987207753096077e-04 -1.2221515304467091e-06 0.0000000000000000e+00  1.7368963053714288e-04 -2.2670947752911477e-06 0.0000000000000000e+00  0.0000000000000000e+00 0.0000000000000000e+00 0.0000000000000000e+00  8.5074664317032247e-06 -1.1489567413023326e-07 0.0000000000000000e+00  1.7261207094218476e-05 -2.3271463138632264e-07 0.0000000000000000e+00  2.6506730994821599e-05 -3.5628878130244153e-07 0.0000000000000000e+00  3.6486773326245870e-05 -4.8823757890337142e-07 0.0000000000000000e+00  4.7437346405495773e-05 -6.3079327507343153e-07 0.0000000000000000e+00  5.9580689207932562e-05 -7.8553955867770817e-07 0.0000000000000000e+00  7.3114202568064039e-05 -9.5302954548541780e-07 0.0000000000000000e+00  8.8194925192053398e-05 -1.1322487547126605e-06 0.0000000000000000e+00  1.0492031364489173e-04 -1.3198923673019471e-06 0.0000000000000000e+00  1.2330877362082415e-04 -1.5094269739730823e-06 0.0000000000000000e+00  1.4328881134124981e-04 -1.6898520697185279e-06 0.0000000000000000e+00  1.6471537793794663e-04 -1.8436844603473682e-06 0.0000000000000000e+00  1.8744377364715919e-04 -1.9415651712028383e-06 0.0000000000000000e+00  2.1147210567594218e-04 -1.9201186208085707e-06 0.0000000000000000e+00  2.3689189639684204e-04 -1.5755313168203905e-06 0.0000000000000000e+00  2.6161133664285885e-04 -3.1123402732925866e-08 0.0000000000000000e+00  0.0000000000000000e+00 0.0000000000000000e+00 0.0000000000000000e+00  1.2458077935954663e-05 -1.6876354972021001e-07 0.0000000000000000e+00  2.5287328155383008e-05 -3.4203803275627662e-07 0.0000000000000000e+00  3.8859064681976513e-05 -5.2423087150220685e-07 0.0000000000000000e+00  5.3543060463985387e-05 -7.1950012728757763e-07 0.0000000000000000e+00  6.9702905903130835e-05 -9.3153096620968839e-07 0.0000000000000000e+00  8.7686484777589681e-05 -1.1631843533331476e-06 0.0000000000000000e+00  1.0780970185945435e-04 -1.4159629261612328e-06 0.0000000000000000e+00  1.3033170035741586e-04 -1.6892346427888940e-06 0.0000000000000000e+00  1.5542038936243243e-04 -1.9791600188570941e-06 0.0000000000000000e+00  1.8310845654383805e-04 -2.2772944829732645e-06 0.0000000000000000e+00  2.1324209645276737e-04 -2.5689021831649902e-06 0.0000000000000000e+00  2.4542549024905979e-04 -2.8311820003269746e-06 0.0000000000000000e+00  2.7895500380585347e-04 -3.0322485857734045e-06 0.0000000000000000e+00  3.1269028169855924e-04 -3.1353862565187350e-06 0.0000000000000000e+00  3.4465977497936430e-04 -3.1359914487603578e-06 0.0000000000000000e+00  3.7092854082400632e-04 -3.2978073872819051e-06 0.0000000000000000e+00  0.0000000000000000e+00 0.0000000000000000e+00 0.0000000000000000e+00  1.6040459125124176e-05 -2.1815972330085866e-07 0.0000000000000000e+00  3.2577380163472950e-05 -4.4252835181008869e-07 0.0000000000000000e+00  5.0109798759117772e-05 -6.7923735177084430e-07 0.0000000000000000e+00  6.9139616182499925e-05 -9.3421211065525005e-07 0.0000000000000000e+00  9.0168035881270226e-05 -1.2129473671923189e-06 0.0000000000000000e+00  1.1368542532912312e-04 -1.5201204107723797e-06 0.0000000000000000e+00  1.4015155693305469e-04 -1.8589628827147369e-06 0.0000000000000000e+00  1.6996264607048483e-04 -2.2302967496119826e-06 0.0000000000000000e+00  2.0340125310887994e-04 -2.6311359368452101e-06 0.0000000000000000e+00  2.4056519685970688e-04 -3.0527876559547612e-06 0.0000000000000000e+00  2.8127223658284343e-04 -3.4785138918542153e-06 0.0000000000000000e+00  3.2493778177666383e-04 -3.8811639556872334e-06 0.0000000000000000e+00  3.7042091451283422e-04 -4.2220592764482590e-06 0.0000000000000000e+00  4.1582598950690527e-04 -4.4543391833589635e-06 0.0000000000000000e+00  4.5824147965336647e-04 -4.5363614906675299e-06 0.0000000000000000e+00  4.9347878259573994e-04 -4.4460854962903032e-06 0.0000000000000000e+00  0.0000000000000000e+00 0.0000000000000000e+00 0.0000000000000000e+00  1.9129345942919828e-05 -2.6138651306325980e-07 0.0000000000000000e+00  3.8878453720212683e-05 -5.3076496627979990e-07 0.0000000000000000e+00  5.9874023088973499e-05 -8.1612230430840864e-07 0.0000000000000000e+00  8.2754139934757942e-05 -1.1253818200042193e-06 0.0000000000000000e+00  1.0816833571168463e-04 -1.4662412669224828e-06 0.0000000000000000e+00  1.3676988593125727e-04 -1.8458293878884323e-06 0.0000000000000000e+00  1.6919611590981623e-04 -2.2700769920927074e-06 0.0000000000000000e+00  2.0603109755144857e-04 -2.7426614130610441e-06 0.0000000000000000e+00  2.4774357241436160e-04 -3.2633441740688846e-06 0.0000000000000000e+00  2.9459162774728783e-04 -3.8255038623004145e-06 0.0000000000000000e+00  3.4648545400318742e-04 -4.4127249019001179e-06 0.0000000000000000e+00  4.0280217020942659e-04 -4.9945449067146242e-06 0.0000000000000000e+00  4.6215578431445448e-04 -5.5220193905144015e-06 0.0000000000000000e+00  5.2214881019489430e-04 -5.9244899574761262e-06 0.0000000000000000e+00  5.7918856454545673e-04 -6.1080914796862645e-06 0.0000000000000000e+00  6.2857876942165960e-04 -5.9469570976413281e-06 0.0000000000000000e+00  0.0000000000000000e+00 0.0000000000000000e+00 0.0000000000000000e+00  2.1601521062021108e-05 -2.9666216972112626e-07 0.0000000000000000e+00  4.3939784956745207e-05 -6.0311257772879550e-07 0.0000000000000000e+00  6.7764974325604013e-05 -9.2925566606881163e-07 0.0000000000000000e+00  9.3851850696308555e-05 -1.2851816071997038e-06 0.0000000000000000e+00  1.2300664084923503e-04 -1.6811430023656491e-06 0.0000000000000000e+00  1.5606602630491114e-04 -2.1273586648932942e-06 0.0000000000000000e+00  1.9388312293215274e-04 -2.6335245830271768e-06 0.0000000000000000e+00  2.3729293244430965e-04 -3.2078452181287964e-06 0.0000000000000000e+00  2.8704657616275596e-04 -3.8553009567271107e-06 0.0000000000000000e+00  3.4370002945527319e-04 -4.5747431829248394e-06 0.0000000000000000e+00  4.0744032139063434e-04 -5.3542914422902094e-06 0.0000000000000000e+00  4.7783350606682309e-04 -6.1645085889431325e-06 0.0000000000000000e+00  5.5349125502959892e-04 -6.9492143166444482e-06 0.0000000000000000e+00  6.3168996021329836e-04 -7.6150857840721649e-06 0.0000000000000000e+00  7.0805744602138140e-04 -8.0243699543330202e-06 0.0000000000000000e+00  7.7658139430104454e-04 -8.0029067342416629e-06 0.0000000000000000e+00  0.0000000000000000e+00 0.0000000000000000e+00 0.0000000000000000e+00  2.3340154349049004e-05 -3.2219289626148677e-07 0.0000000000000000e+00  4.7521227619323151e-05 -6.5586281087072639e-07 0.0000000000000000e+00  7.3406083990953496e-05 -1.0127666466987749e-06 0.0000000000000000e+00  1.0189989816463482e-04 -1.4051932089964985e-06 0.0000000000000000e+00  1.3396738444354636e-04 -1.8461567452492069e-06 0.0000000000000000e+00  1.7064364030109966e-04 -2.3494685493296570e-06 0.0000000000000000e+00  2.1303335070708783e-04 -2.9295750005395560e-06 0.0000000000000000e+00  2.6228967010012325e-04 -3.6009593056102381e-06 0.0000000000000000e+00  3.1955893279754451e-04 -4.3767443497874550e-06 0.0000000000000000e+00  3.8587016932907807e-04 -5.2658670638758485e-06 0.0000000000000000e+00  4.6193979426089097e-04 -6.2677874695081932e-06 0.0000000000000000e+00  5.4785474038092146e-04 -7.3631860747254060e-06 0.0000000000000000e+00  6.4260014706473507e-04 -8.4987920548459869e-06 0.0000000000000000e+00  7.4342906807078250e-04 -9.5653722862308203e-06 0.0000000000000000e+00  8.4516457471369875e-04 -1.0372408507112645e-05 0.0000000000000000e+00  9.3972061439531133e-04 -1.0635037393140832e-05 0.0000000000000000e+00  0.0000000000000000e+00 0.0000000000000000e+00 0.0000000000000000e+00  2.4241291829782765e-05 -3.3629364799470186e-07 0.0000000000000000e+00  4.9406364626581445e-05 -6.8548206365170333e-07 0.0000000000000000e+00  7.6450849664274758e-05 -1.0609288490415527e-06 0.0000000000000000e+00  1.0639382161289218e-04 -1.4769380498160814e-06 0.0000000000000000e+00  1.4034856852071314e-04 -1.9492273549201224e-06 0.0000000000000000e+00  1.7955063248673437e-04 -2.4953806768527590e-06 0.0000000000000000e+00  2.2537901563244100e-04 -3.1352177817468257e-06 0.0000000000000000e+00  2.7936242195637263e-04 -3.8909308363498110e-06 0.0000000000000000e+00  3.4315548938524656e-04 -4.7866529516400896e-06 0.0000000000000000e+00  4.1845859135236445e-04 -5.8467450733670640e-06 0.0000000000000000e+00  5.0683725306269103e-04 -7.0913462309520188e-06 0.0000000000000000e+00  6.0937309393875182e-04 -8.5263971740764773e-06 0.0000000000000000e+00  7.2605236085876391e-04 -1.0123312862601465e-05 0.0000000000000000e+00  8.5479035715780140e-04 -1.1781531919140729e-05 0.0000000000000000e+00  9.9005376648216687e-04 -1.3269136188728561e-05 0.0000000000000000e+00  1.1212930036686108e-03 -1.4153489769942577e-05 0.0000000000000000e+00  0.0000000000000000e+00 0.0000000000000000e+00 0.0000000000000000e+00  2.4222355668374865e-05 -3.3755140503410887e-07 0.0000000000000000e+00  4.9420115480972859e-05 -6.8895528783906883e-07 0.0000000000000000e+00  7.6610690826767454e-05 -1.0687190085256025e-06 0.0000000000000000e+00  1.0689711620123775e-04 -1.4927008691523980e-06 0.0000000000000000e+00  1.4151433026393661e-04 -1.9788863477669434e-06 0.0000000000000000e+00  1.8187866271692339e-04 -2.5482867234094850e-06 0.0000000000000000e+00  2.2963935433633495e-04 -3.2259943726402286e-06 0.0000000000000000e+00  2.8672743122547934e-04 -4.0423947074252919e-06 0.0000000000000000e+00  3.5539014141548335e-04 -5.0344218376798963e-06 0.0000000000000000e+00  4.3818524877102224e-04 -6.2464221013780753e-06 0.0000000000000000e+00  5.3788334719333470e-04 -7.7293400353796193e-06 0.0000000000000000e+00  6.5717991969700977e-04 -9.5348668775765042e-06 0.0000000000000000e+00  7.9804342430471519e-04 -1.1696579488833734e-05 0.0000000000000000e+00  9.6042282055459199e-04 -1.4181311523151309e-05 0.0000000000000000e+00  1.1399540265982977e-03 -1.6782338841521925e-05 0.0000000000000000e+00  1.3244165675666952e-03 -1.8929968051444257e-05 0.0000000000000000e+00  0.0000000000000000e+00 0.0000000000000000e+00 0.0000000000000000e+00  2.3232045840105353e-05 -3.2501368842604366e-07 0.0000000000000000e+00  4.7449695352434547e-05 -6.6419127241791073e-07 0.0000000000000000e+00  7.3689320711006802e-05 -1.0324994171574918e-06 0.0000000000000000e+00  1.0309260407081818e-04 -1.4465891080181078e-06 0.0000000000000000e+00  1.3696800145046508e-04 -1.9258362326918853e-06 0.0000000000000000e+00  1.7686306800701710e-04 -2.4936563887283121e-06 0.0000000000000000e+00  2.2465128335187379e-04 -3.1792529979864879e-06 0.0000000000000000e+00  2.8263579872861032e-04 -4.0200293489103451e-06 0.0000000000000000e+00  3.5366842981695337e-04 -5.0649870663915953e-06 0.0000000000000000e+00  4.4127121455266152e-04 -6.3794852315218375e-06 0.0000000000000000e+00  5.4972123532476258e-04 -8.0514779459934662e-06 0.0000000000000000e+00  6.8399919627511370e-04 -1.0197844192107870e-05 0.0000000000000000e+00  8.4937433645988650e-04 -1.2963807160816024e-05 0.0000000000000000e+00  1.0501480963453465e-03 -1.6491094864914757e-05 0.0000000000000000e+00  1.2866531019129171e-03 -2.0784774118140791e-05 0.0000000000000000e+00  1.5490679727008436e-03 -2.5309951042058478e-05 0.0000000000000000e+00  0.0000000000000000e+00 0.0000000000000000e+00 0.0000000000000000e+00  2.1260489269408720e-05 -2.9837415344405434e-07 0.0000000000000000e+00  4.3466572862178681e-05 -6.1042922291159224e-07 0.0000000000000000e+00  6.7620048032816582e-05 -9.5072441643204960e-07 0.0000000000000000e+00  9.4840914073171233e-05 -1.3356802149664773e-06 0.0000000000000000e+00  1.2644046308364095e-04 -1.7847743737837417e-06 0.0000000000000000e+00  1.6401313130575291e-04 -2.3221205018193895e-06 0.0000000000000000e+00  2.0955671187512616e-04 -2.9786900716550238e-06 0.0000000000000000e+00  2.6563344411379542e-04 -3.7956233893714453e-06 0.0000000000000000e+00  3.3558750918518884e-04 -4.8294366148158612e-06 0.0000000000000000e+00  4.2383522437319478e-04 -6.1606353954455060e-06 0.0000000000000000e+00  5.3623544630841756e-04 -7.9085424399554575e-06 0.0000000000000000e+00  6.8050868484613957e-04 -1.0257133852745713e-05 0.0000000000000000e+00  8.6654907647984187e-04 -1.3497827226251220e-05 0.0000000000000000e+00  1.1061273455326925e-03 -1.8086100320288260e-05 0.0000000000000000e+00  1.4106165258113820e-03 -2.4651962243107075e-05 0.0000000000000000e+00  1.7834516836205392e-03 -3.3688258050540747e-05 0.0000000000000000e+00  0.0000000000000000e+00 0.0000000000000000e+00 0.0000000000000000e+00  1.8347982589365544e-05 -2.5812001499417579e-07 0.0000000000000000e+00  3.7545900411132997e-05 -5.2856798647098327e-07 0.0000000000000000e+00  5.8500184553910944e-05 -8.2453045702324444e-07 0.0000000000000000e+00  8.2237377574281918e-05 -1.1610215850199013e-06 0.0000000000000000e+00  1.0998173950500299e-04 -1.5560739772396417e-06 0.0000000000000000e+00  1.4325749757540033e-04 -2.0323295581831839e-06 0.0000000000000000e+00  1.8403071874414372e-04 -2.6193075954824820e-06 0.0000000000000000e+00  2.3491355352695602e-04 -3.3568425693096087e-06 0.0000000000000000e+00  2.9946626880185168e-04 -4.3006619726126351e-06 0.0000000000000000e+00  3.8265267756323662e-04 -5.5322034463074553e-06 0.0000000000000000e+00  4.9153515390717246e-04 -7.1775816098496623e-06 0.0000000000000000e+00  6.3633519178528364e-04 -9.4477748764661666e-06 0.0000000000000000e+00  8.3200961324821565e-04 -1.2729945513562635e-05 0.0000000000000000e+00  1.1003781369965115e-03 -1.7799340092813934e-05 0.0000000000000000e+00  1.4721281284738744e-03 -2.6275183487917753e-05 0.0000000000000000e+00  1.9854268750302117e-03 -4.1308265623431621e-05 0.0000000000000000e+00  0.0000000000000000e+00 0.0000000000000000e+00 0.0000000000000000e+00  1.4590393015139864e-05 -2.0560709667914938e-07 0.0000000000000000e+00  2.9879142522484337e-05 -4.2133918626610747e-07 0.0000000000000000e+00  4.6615068011169220e-05 -6.5806116274243871e-07 0.0000000000000000e+00  6.5655152378135386e-05 -9.2821269816415495e-07 0.0000000000000000e+00  8.8036717493867009e-05 -1.2468267159970904e-06 0.0000000000000000e+00  1.1507575059476372e-04 -1.6328673334064774e-06 0.0000000000000000e+00  1.4850886193358369e-04 -2.1110747299462274e-06 0.0000000000000000e+00  1.9070743418909234e-04 -2.7146097752680065e-06 0.0000000000000000e+00  2.4501270271243367e-04 -3.4890173551267288e-06 0.0000000000000000e+00  3.1627824432544960e-04 -4.4986165251837995e-06 0.0000000000000000e+00  4.1177960598656429e-04 -5.8382612739152361e-06 0.0000000000000000e+00  5.4279912912721755e-04 -7.6598856407786796e-06 0.0000000000000000e+00  7.2750529408644414e-04 -1.0247923876614138e-05 0.0000000000000000e+00  9.9639613445206697e-04 -1.4277203421822216e-05 0.0000000000000000e+00  1.4027246291472846e-03 -2.1802994671397611e-05 0.0000000000000000e+00  2.0406710777161538e-03 -4.0234460582780846e-05 0.0000000000000000e+00  0.0000000000000000e+00 0.0000000000000000e+00 0.0000000000000000e+00  1.0139401421144269e-05 -1.4303959322775117e-07 0.0000000000000000e+00  2.0775752669994656e-05 -2.9327062596226460e-07 0.0000000000000000e+00  3.2444022239335248e-05 -4.5842264431080493e-07 0.0000000000000000e+00  4.5761123910694664e-05 -6.4736686174020812e-07 0.0000000000000000e+00  6.1481787202571727e-05 -8.7083828551071942e-07 0.0000000000000000e+00  8.0576330676056086e-05 -1.1423466049062460e-06 0.0000000000000000e+00  1.0434575467591852e-04 -1.4793314212055890e-06 0.0000000000000000e+00  1.3460025158163345e-04 -1.9045510266627022e-06 0.0000000000000000e+00  1.7394748149389842e-04 -2.4474557305158257e-06 0.0000000000000000e+00  2.2627678833190231e-04 -3.1445595620400447e-06 0.0000000000000000e+00  2.9760823719524087e-04 -4.0356586923142906e-06 0.0000000000000000e+00  3.9766083572522192e-04 -5.1464398543772705e-06 0.0000000000000000e+00  5.4295849918719924e-04 -6.4293137716325749e-06 0.0000000000000000e+00  7.6364592561952317e-04 -7.5764516552235878e-06 0.0000000000000000e+00  1.1210000156597452e-03 -7.4300234602022257e-06 0.0000000000000000e+00  1.7643024973677719e-03 -2.0847181542910881e-06 0.0000000000000000e+00  0.0000000000000000e+00 0.0000000000000000e+00 0.0000000000000000e+00  5.1964053028298118e-06 -7.3350712433853088e-08 0.0000000000000000e+00  1.0651062999756601e-05 -1.5043173376865754e-07 0.0000000000000000e+00  1.6642624232951467e-05 -2.3525467490858236e-07 0.0000000000000000e+00  2.3493841663252799e-05 -3.3242567894446764e-07 0.0000000000000000e+00  3.1601983984554127e-05 -4.4751227131275479e-07 0.0000000000000000e+00  4.1481641117651120e-05 -5.8748491694271803e-07 0.0000000000000000e+00  5.3828821793772545e-05 -7.6121813770357908e-07 0.0000000000000000e+00  6.9621562557396679e-05 -9.7991993349549535e-07 0.0000000000000000e+00  9.0284209186705940e-05 -1.2569948137359337e-06 0.0000000000000000e+00  1.1796558980092965e-04 -1.6057368148093170e-06 0.0000000000000000e+00  1.5602685334043320e-04 -2.0298449162796982e-06 0.0000000000000000e+00  2.0992625306119343e-04 -2.4910202691473766e-06 0.0000000000000000e+00  2.8887150254734972e-04 -2.8024826475795655e-06 0.0000000000000000e+00  4.0895677902427156e-04 -2.2717230867095924e-06 0.0000000000000000e+00  5.9897321979114333e-04 1.5844705254543507e-06 0.0000000000000000e+00  9.0887536765120317e-04 1.8387840175964999e-05 0.0000000000000000e+00  0.0000000000000000e+00 0.0000000000000000e+00 0.0000000000000000e+00  0.0000000000000000e+00 0.0000000000000000e+00 0.0000000000000000e+00  0.0000000000000000e+00 0.0000000000000000e+00 0.0000000000000000e+00  0.0000000000000000e+00 0.0000000000000000e+00 0.0000000000000000e+00  0.0000000000000000e+00 0.0000000000000000e+00 0.0000000000000000e+00  0.0000000000000000e+00 0.0000000000000000e+00 0.0000000000000000e+00  0.0000000000000000e+00 0.0000000000000000e+00 0.0000000000000000e+00  0.0000000000000000e+00 0.0000000000000000e+00 0.0000000000000000e+00  0.0000000000000000e+00 0.0000000000000000e+00 0.000000