<?xml version="1.0"?>
<VTKFile type="UnstructuredGrid"  version="0.1"  >
<UnstructuredGrid>
<Piece  NumberOfPoints="1369" NumberOfCells="2560">
<Points>
<DataArray  type="Float64"  NumberOfComponents="3"  format="ascii">0 0 0  0.75 0 0  1.5 0 0  2.25 0 0  3 0 0  3.75 0 0  4.5 0 0  5.25 0 0  6 0 0  6.75 0 0  7.5 0 0  8.25 0 0  9 0 0  9.75 0 0  10.5 0 0  11.25 0 0  12 0 0  12.75 0 0  13.5 0 0  14.25 0 0  15 0 0  15.75 0 0  16.5 0 0  17.25 0 0  18 0 0  18.75 0 0  19.5 0 0  20.25 0 0  21 0 0  21.75 0 0  22.5 0 0  23.25 0 0  24 0 0  24.75 0 0  25.5 0 0  26.25 0 0  27 0 0  27.75 0 0  28.5 0 0  29.25 0 0  30 0 0  30.75 0 0  31.5 0 0  32.25 0 0  33 0 0  33.75 0 0  34.5 0 0  35.25 0 0  36 0 0  36.75 0 0  37.5 0 0  38.25 0 0  39 0 0  39.75 0 0  40.5 0 0  41.25 0 0  42 0 0  42.75 0 0  43.5 0 0  44.25 0 0  45 0 0  45.75 0 0  46.5 0 0  47.25 0 0  48 0 0  48.75 0 0  49.5 0 0  50.25 0 0  51 0 0  51.75 0 0  52.5 0 0  53.25 0 0  54 0 0  54.75 0 0  55.5 0 0  56.25 0 0  57 0 0  57.75 0 0  58.5 0 0  59.25 0 0  60 0 0  0 0.5 0  0.75 0.5 0  1.5 0.5 0  2.25 0.5 0  3 0.5 0  3.75 0.5 0  4.5 0.5 0  5.25 0.5 0  6 0.5 0  6.75 0.5 0  7.5 0.5 0  8.25 0.5 0  9 0.5 0  9.75 0.5 0  10.5 0.5 0  11.25 0.5 0  12 0.5 0  12.75 0.5 0  13.5 0.5 0  14.25 0.5 0  15 0.5 0  15.75 0.5 0  16.5 0.5 0  17.25 0.5 0  18 0.5 0  18.75 0.5 0  19.5 0.5 0  20.25 0.5 0  21 0.5 0  21.75 0.5 0  22.5 0.5 0  23.25 0.5 0  24 0.5 0  24.75 0.5 0  25.5 0.5 0  26.25 0.5 0  27 0.5 0  27.75 0.5 0  28.5 0.5 0  29.25 0.5 0  30 0.5 0  30.75 0.5 0  31.5 0.5 0  32.25 0.5 0  33 0.5 0  33.75 0.5 0  34.5 0.5 0  35.25 0.5 0  36 0.5 0  36.75 0.5 0  37.5 0.5 0  38.25 0.5 0  39 0.5 0  39.75 0.5 0  40.5 0.5 0  41.25 0.5 0  42 0.5 0  42.75 0.5 0  43.5 0.5 0  44.25 0.5 0  45 0.5 0  45.75 0.5 0  46.5 0.5 0  47.25 0.5 0  48 0.5 0  48.75 0.5 0  49.5 0.5 0  50.25 0.5 0  51 0.5 0  51.75 0.5 0  52.5 0.5 0  53.25 0.5 0  54 0.5 0  54.75 0.5 0  55.5 0.5 0  56.25 0.5 0  57 0.5 0  57.75 0.5 0  58.5 0.5 0  59.25 0.5 0  60 0.5 0  0 1 0  0.75 1 0  1.5 1 0  2.25 1 0  3 1 0  3.75 1 0  4.5 1 0  5.25 1 0  6 1 0  6.75 1 0  7.5 1 0  8.25 1 0  9 1 0  9.75 1 0  10.5 1 0  11.25 1 0  12 1 0  12.75 1 0  13.5 1 0  14.25 1 0  15 1 0  15.75 1 0  16.5 1 0  17.25 1 0  18 1 0  18.75 1 0  19.5 1 0  20.25 1 0  21 1 0  21.75 1 0  22.5 1 0  23.25 1 0  24 1 0  24.75 1 0  25.5 1 0  26.25 1 0  27 1 0  27.75 1 0  28.5 1 0  29.25 1 0  30 1 0  30.75 1 0  31.5 1 0  32.25 1 0  33 1 0  33.75 1 0  34.5 1 0  35.25 1 0  36 1 0  36.75 1 0  37.5 1 0  38.25 1 0  39 1 0  39.75 1 0  40.5 1 0  41.25 1 0  42 1 0  42.75 1 0  43.5 1 0  44.25 1 0  45 1 0  45.75 1 0  46.5 1 0  47.25 1 0  48 1 0  48.75 1 0  49.5 1 0  50.25 1 0  51 1 0  51.75 1 0  52.5 1 0  53.25 1 0  54 1 0  54.75 1 0  55.5 1 0  56.25 1 0  57 1 0  57.75 1 0  58.5 1 0  59.25 1 0  60 1 0  0 1.5 0  0.75 1.5 0  1.5 1.5 0  2.25 1.5 0  3 1.5 0  3.75 1.5 0  4.5 1.5 0  5.25 1.5 0  6 1.5 0  6.75 1.5 0  7.5 1.5 0  8.25 1.5 0  9 1.5 0  9.75 1.5 0  10.5 1.5 0  11.25 1.5 0  12 1.5 0  12.75 1.5 0  13.5 1.5 0  14.25 1.5 0  15 1.5 0  15.75 1.5 0  16.5 1.5 0  17.25 1.5 0  18 1.5 0  18.75 1.5 0  19.5 1.5 0  20.25 1.5 0  21 1.5 0  21.75 1.5 0  22.5 1.5 0  23.25 1.5 0  24 1.5 0  24.75 1.5 0  25.5 1.5 0  26.25 1.5 0  27 1.5 0  27.75 1.5 0  28.5 1.5 0  29.25 1.5 0  30 1.5 0  30.75 1.5 0  31.5 1.5 0  32.25 1.5 0  33 1.5 0  33.75 1.5 0  34.5 1.5 0  35.25 1.5 0  36 1.5 0  36.75 1.5 0  37.5 1.5 0  38.25 1.5 0  39 1.5 0  39.75 1.5 0  40.5 1.5 0  41.25 1.5 0  42 1.5 0  42.75 1.5 0  43.5 1.5 0  44.25 1.5 0  45 1.5 0  45.75 1.5 0  46.5 1.5 0  47.25 1.5 0  48 1.5 0  48.75 1.5 0  49.5 1.5 0  50.25 1.5 0  51 1.5 0  51.75 1.5 0  52.5 1.5 0  53.25 1.5 0  54 1.5 0  54.75 1.5 0  55.5 1.5 0  56.25 1.5 0  57 1.5 0  57.75 1.5 0  58.5 1.5 0  59.25 1.5 0  60 1.5 0  0 2 0  0.75 2 0  1.5 2 0  2.25 2 0  3 2 0  3.75 2 0  4.5 2 0  5.25 2 0  6 2 0  6.75 2 0  7.5 2 0  8.25 2 0  9 2 0  9.75 2 0  10.5 2 0  11.25 2 0  12 2 0  12.75 2 0  13.5 2 0  14.25 2 0  15 2 0  15.75 2 0  16.5 2 0  17.25 2 0  18 2 0  18.75 2 0  19.5 2 0  20.25 2 0  21 2 0  21.75 2 0  22.5 2 0  23.25 2 0  24 2 0  24.75 2 0  25.5 2 0  26.25 2 0  27 2 0  27.75 2 0  28.5 2 0  29.25 2 0  30 2 0  30.75 2 0  31.5 2 0  32.25 2 0  33 2 0  33.75 2 0  34.5 2 0  35.25 2 0  36 2 0  36.75 2 0  37.5 2 0  38.25 2 0  39 2 0  39.75 2 0  40.5 2 0  41.25 2 0  42 2 0  42.75 2 0  43.5 2 0  44.25 2 0  45 2 0  45.75 2 0  46.5 2 0  47.25 2 0  48 2 0  48.75 2 0  49.5 2 0  50.25 2 0  51 2 0  51.75 2 0  52.5 2 0  53.25 2 0  54 2 0  54.75 2 0  55.5 2 0  56.25 2 0  57 2 0  57.75 2 0  58.5 2 0  59.25 2 0  60 2 0  0 2.5 0  0.75 2.5 0  1.5 2.5 0  2.25 2.5 0  3 2.5 0  3.75 2.5 0  4.5 2.5 0  5.25 2.5 0  6 2.5 0  6.75 2.5 0  7.5 2.5 0  8.25 2.5 0  9 2.5 0  9.75 2.5 0  10.5 2.5 0  11.25 2.5 0  12 2.5 0  12.75 2.5 0  13.5 2.5 0  14.25 2.5 0  15 2.5 0  15.75 2.5 0  16.5 2.5 0  17.25 2.5 0  18 2.5 0  18.75 2.5 0  19.5 2.5 0  20.25 2.5 0  21 2.5 0  21.75 2.5 0  22.5 2.5 0  23.25 2.5 0  24 2.5 0  24.75 2.5 0  25.5 2.5 0  26.25 2.5 0  27 2.5 0  27.75 2.5 0  28.5 2.5 0  29.25 2.5 0  30 2.5 0  30.75 2.5 0  31.5 2.5 0  32.25 2.5 0  33 2.5 0  33.75 2.5 0  34.5 2.5 0  35.25 2.5 0  36 2.5 0  36.75 2.5 0  37.5 2.5 0  38.25 2.5 0  39 2.5 0  39.75 2.5 0  40.5 2.5 0  41.25 2.5 0  42 2.5 0  42.75 2.5 0  43.5 2.5 0  44.25 2.5 0  45 2.5 0  45.75 2.5 0  46.5 2.5 0  47.25 2.5 0  48 2.5 0  48.75 2.5 0  49.5 2.5 0  50.25 2.5 0  51 2.5 0  51.75 2.5 0  52.5 2.5 0  53.25 2.5 0  54 2.5 0  54.75 2.5 0  55.5 2.5 0  56.25 2.5 0  57 2.5 0  57.75 2.5 0  58.5 2.5 0  59.25 2.5 0  60 2.5 0  0 3 0  0.75 3 0  1.5 3 0  2.25 3 0  3 3 0  3.75 3 0  4.5 3 0  5.25 3 0  6 3 0  6.75 3 0  7.5 3 0  8.25 3 0  9 3 0  9.75 3 0  10.5 3 0  11.25 3 0  12 3 0  12.75 3 0  13.5 3 0  14.25 3 0  15 3 0  15.75 3 0  16.5 3 0  17.25 3 0  18 3 0  18.75 3 0  19.5 3 0  20.25 3 0  21 3 0  21.75 3 0  22.5 3 0  23.25 3 0  24 3 0  24.75 3 0  25.5 3 0  26.25 3 0  27 3 0  27.75 3 0  28.5 3 0  29.25 3 0  30 3 0  30.75 3 0  31.5 3 0  32.25 3 0  33 3 0  33.75 3 0  34.5 3 0  35.25 3 0  36 3 0  36.75 3 0  37.5 3 0  38.25 3 0  39 3 0  39.75 3 0  40.5 3 0  41.25 3 0  42 3 0  42.75 3 0  43.5 3 0  44.25 3 0  45 3 0  45.75 3 0  46.5 3 0  47.25 3 0  48 3 0  48.75 3 0  49.5 3 0  50.25 3 0  51 3 0  51.75 3 0  52.5 3 0  53.25 3 0  54 3 0  54.75 3 0  55.5 3 0  56.25 3 0  57 3 0  57.75 3 0  58.5 3 0  59.25 3 0  60 3 0  0 3.5 0  0.75 3.5 0  1.5 3.5 0  2.25 3.5 0  3 3.5 0  3.75 3.5 0  4.5 3.5 0  5.25 3.5 0  6 3.5 0  6.75 3.5 0  7.5 3.5 0  8.25 3.5 0  9 3.5 0  9.75 3.5 0  10.5 3.5 0  11.25 3.5 0  12 3.5 0  12.75 3.5 0  13.5 3.5 0  14.25 3.5 0  15 3.5 0  15.75 3.5 0  16.5 3.5 0  17.25 3.5 0  18 3.5 0  18.75 3.5 0  19.5 3.5 0  20.25 3.5 0  21 3.5 0  21.75 3.5 0  22.5 3.5 0  23.25 3.5 0  24 3.5 0  24.75 3.5 0  25.5 3.5 0  26.25 3.5 0  27 3.5 0  27.75 3.5 0  28.5 3.5 0  29.25 3.5 0  30 3.5 0  30.75 3.5 0  31.5 3.5 0  32.25 3.5 0  33 3.5 0  33.75 3.5 0  34.5 3.5 0  35.25 3.5 0  36 3.5 0  36.75 3.5 0  37.5 3.5 0  38.25 3.5 0  39 3.5 0  39.75 3.5 0  40.5 3.5 0  41.25 3.5 0  42 3.5 0  42.75 3.5 0  43.5 3.5 0  44.25 3.5 0  45 3.5 0  45.75 3.5 0  46.5 3.5 0  47.25 3.5 0  48 3.5 0  48.75 3.5 0  49.5 3.5 0  50.25 3.5 0  51 3.5 0  51.75 3.5 0  52.5 3.5 0  53.25 3.5 0  54 3.5 0  54.75 3.5 0  55.5 3.5 0  56.25 3.5 0  57 3.5 0  57.75 3.5 0  58.5 3.5 0  59.25 3.5 0  60 3.5 0  0 4 0  0.75 4 0  1.5 4 0  2.25 4 0  3 4 0  3.75 4 0  4.5 4 0  5.25 4 0  6 4 0  6.75 4 0  7.5 4 0  8.25 4 0  9 4 0  9.75 4 0  10.5 4 0  11.25 4 0  12 4 0  12.75 4 0  13.5 4 0  14.25 4 0  15 4 0  15.75 4 0  16.5 4 0  17.25 4 0  18 4 0  18.75 4 0  19.5 4 0  20.25 4 0  21 4 0  21.75 4 0  22.5 4 0  23.25 4 0  24 4 0  24.75 4 0  25.5 4 0  26.25 4 0  27 4 0  27.75 4 0  28.5 4 0  29.25 4 0  30 4 0  30.75 4 0  31.5 4 0  32.25 4 0  33 4 0  33.75 4 0  34.5 4 0  35.25 4 0  36 4 0  36.75 4 0  37.5 4 0  38.25 4 0  39 4 0  39.75 4 0  40.5 4 0  41.25 4 0  42 4 0  42.75 4 0  43.5 4 0  44.25 4 0  45 4 0  45.75 4 0  46.5 4 0  47.25 4 0  48 4 0  48.75 4 0  49.5 4 0  50.25 4 0  51 4 0  51.75 4 0  52.5 4 0  53.25 4 0  54 4 0  54.75 4 0  55.5 4 0  56.25 4 0  57 4 0  57.75 4 0  58.5 4 0  59.25 4 0  60 4 0  0.375 0.25 0  1.125 0.25 0  1.875 0.25 0  2.625 0.25 0  3.375 0.25 0  4.125 0.25 0  4.875 0.25 0  5.625 0.25 0  6.375 0.25 0  7.125 0.25 0  7.875 0.25 0  8.625 0.25 0  9.375 0.25 0  10.125 0.25 0  10.875 0.25 0  11.625 0.25 0  12.375 0.25 0  13.125 0.25 0  13.875 0.25 0  14.625 0.25 0  15.375 0.25 0  16.125 0.25 0  16.875 0.25 0  17.625 0.25 0  18.375 0.25 0  19.125 0.25 0  19.875 0.25 0  20.625 0.25 0  21.375 0.25 0  22.125 0.25 0  22.875 0.25 0  23.625 0.25 0  24.375 0.25 0  25.125 0.25 0  25.875 0.25 0  26.625 0.25 0  27.375 0.25 0  28.125 0.25 0  28.875 0.25 0  29.625 0.25 0  30.375 0.25 0  31.125 0.25 0  31.875 0.25 0  32.625 0.25 0  33.375 0.25 0  34.125 0.25 0  34.875 0.25 0  35.625 0.25 0  36.375 0.25 0  37.125 0.25 0  37.875 0.25 0  38.625 0.25 0  39.375 0.25 0  40.125 0.25 0  40.875 0.25 0  41.625 0.25 0  42.375 0.25 0  43.125 0.25 0  43.875 0.25 0  44.625 0.25 0  45.375 0.25 0  46.125 0.25 0  46.875 0.25 0  47.625 0.25 0  48.375 0.25 0  49.125 0.25 0  49.875 0.25 0  50.625 0.25 0  51.375 0.25 0  52.125 0.25 0  52.875 0.25 0  53.625 0.25 0  54.375 0.25 0  55.125 0.25 0  55.875 0.25 0  56.625 0.25 0  57.375 0.25 0  58.125 0.25 0  58.875 0.25 0  59.625 0.25 0  0.375 0.75 0  1.125 0.75 0  1.875 0.75 0  2.625 0.75 0  3.375 0.75 0  4.125 0.75 0  4.875 0.75 0  5.625 0.75 0  6.375 0.75 0  7.125 0.75 0  7.875 0.75 0  8.625 0.75 0  9.375 0.75 0  10.125 0.75 0  10.875 0.75 0  11.625 0.75 0  12.375 0.75 0  13.125 0.75 0  13.875 0.75 0  14.625 0.75 0  15.375 0.75 0  16.125 0.75 0  16.875 0.75 0  17.625 0.75 0  18.375 0.75 0  19.125 0.75 0  19.875 0.75 0  20.625 0.75 0  21.375 0.75 0  22.125 0.75 0  22.875 0.75 0  23.625 0.75 0  24.375 0.75 0  25.125 0.75 0  25.875 0.75 0  26.625 0.75 0  27.375 0.75 0  28.125 0.75 0  28.875 0.75 0  29.625 0.75 0  30.375 0.75 0  31.125 0.75 0  31.875 0.75 0  32.625 0.75 0  33.375 0.75 0  34.125 0.75 0  34.875 0.75 0  35.625 0.75 0  36.375 0.75 0  37.125 0.75 0  37.875 0.75 0  38.625 0.75 0  39.375 0.75 0  40.125 0.75 0  40
[...]
<PointData  Scalars="f_8-1"> 
<DataArray  type="Float64"  Name="f_8-1"  format="ascii">2.4649115713303041e+09  -8.8167526817335449e+10  1.5102861896089632e+10  1.7159034791699610e+10  -2.2159481929448757e+10  -2.0601318096885052e+10  -1.4847692090455873e+10  -3.8125073205186691e+10  6.6790659790913858e+09  -3.2224830032401836e+10  -6.1217141119459610e+10  -1.9818704328911049e+10  4.8568449173819130e+10  -2.0944405145976608e+10  -2.0274576007923447e+10  4.3231658106769455e+10  1.5789004978434298e+10  1.0997032446511509e+10  1.0074971509056297e+10  -2.6459587007590408e+10  1.1050355397432556e+10  3.0226856918922874e+10  -1.3324650227760557e+10  -1.8464505296899445e+09  -1.4520850134408047e+11  1.0835430759646286e+11  -1.0088721424011145e+11  -1.7461879915470486e+09  2.8587173135313473e+09  3.9885484080053543e+10  3.3805049968452175e+10  7.0976510761259415e+10  1.1647695227235057e+11  6.2210644967442024e+10  3.6271647772162193e+10  -8.3356287728203171e+10  -7.1572039003818085e+10  2.4206565774547098e+11  -3.8687595982804771e+10  -3.5971127046073446e+09  7.2975458033038269e+10  -6.5293069315586754e+10  -2.3038749405370964e+10  -4.8821006329145996e+10  -1.9931460317365444e+10  2.9336160824434879e+10  3.1963687463745823e+10  -1.5584278592736169e+11  -4.7101742154353046e+09  3.5530746733946915e+10  7.8047375571778564e+10  8.8578270393209091e+10  1.5749022986995117e+10  2.8952071906637501e+10  6.5883276322954460e+10  1.1194053029851978e+10  3.3924051367604012e+10  4.5284377390020134e+10  5.2819644201332825e+10  6.8554686916335058e+09  7.3647451666508303e+09  -3.8126913630443130e+10  7.6691806478216028e+09  2.6165476516978390e+10  -3.5008719329539711e+10  -1.5848857621362465e+10  -1.9316180325499363e+10  9.4931054838150162e+10  4.4265679882104233e+10  3.6856465352482922e+11  1.2244706926529118e+11  -3.6479485430254410e+10  1.5518279934610609e+10  -8.1879218545609207e+10  -1.2368210104747852e+11  -8.3832826984553162e+10  -6.6144176802754089e+10  -3.8149162473559387e+10  -3.5679547274315521e+10  -6.9747682167919739e+10  -1.2848762359536530e+10  -8.4904170688190966e+09  -2.0957218542012466e+10  1.1709698244750969e+10  8.5373918739964066e+10  1.2310302683590691e+10  -1.9643193636454880e+10  -2.0114778989363286e+09  -4.5718749239447002e+09  -2.1864508309737072e+09  -6.9030455139125656e+10  -1.1139880574510370e+10  -2.4629207402805359e+10  -6.4742630880983238e+09  -1.1748026297204739e+10  -2.8056930391588848e+10  3.1519488476109402e+10  3.8969045040579762e+09  2.5892241607652414e+08  6.6031539262436722e+10  -8.2774281535589285e+09  1.2364343646690033e+10  2.1645793328892245e+09  -1.9414256563856304e+09  4.8302549630588333e+10  -3.7337973015461349e+10  -1.7555501062187626e+10  -2.1430130173191153e+11  -3.9261166959437775e+10  4.6855763952490585e+10  5.3173538886924446e+10  6.9338535762943375e+10  7.2261858323418152e+10  4.9481811621932007e+10  3.8785450798625778e+10  8.5133788522550629e+10  -3.0151177203153831e+10  7.3269774291952698e+10  8.7594644219889618e+10  -6.4143387721852676e+10  -3.3739751044610336e+10  5.3258929053354053e+09  -2.4465812120269798e+10  -1.5583196078037922e+10  -5.8848142617436974e+10  -3.4014253896324512e+10  -5.0597121690732590e+10  -4.2735491494418251e+10  -2.3995047567036980e+10  1.8168356264437286e+10  1.5156932565622541e+10  3.6723535252663109e+10  3.3402162212100590e+10  3.4554018657477982e+10  4.7904212551621086e+10  5.3185480556496857e+10  2.9638438147768219e+10  -9.6632675651061592e+09  6.3659293905764557e+10  3.9025231029914192e+10  -2.3275898426584400e+10  -2.6797729634748531e+10  -3.1471697157291538e+10  2.3395470520215649e+10  7.6841368015115833e+09  -1.3570768164064489e+10  -3.7538205202711334e+10  -1.8875709491933430e+10  -1.1113284658742664e+10  6.7331782928377335e+10  1.1236872365391156e+11  8.1448440271973831e+10  -6.9877777541737690e+09  3.4350452665697174e+10  1.5169756117881371e+10  -6.5072112953095001e+10  5.7984759869049530e+10  8.8505151068058833e+07  -5.3556151745396645e+10  6.1036666642767944e+09  2.0980111052772713e+09  2.4757105988030663e+10  6.7840149200096922e+09  -2.6071616302580051e+10  2.3062401597328613e+10  6.9530341821776562e+09  2.2296709857212170e+10  4.4147601330339699e+10  -1.3713934804399331e+09  4.1533710977493863e+09  -4.0518968965259438e+09  -5.1651699736090675e+10  -2.1783380069106358e+10  -1.2504369573724253e+10  -2.0027153577636616e+10  -1.8374267282097942e+10  -2.5522139990075108e+10  1.9051887104905598e+10  -3.3572154260435247e+09  -1.3590279926249159e+10  -3.3617947960286813e+09  -4.4711129673750124e+09  -4.6801011274443878e+10  2.2314374373015060e+10  7.0038527931876343e+10  5.3406582500645065e+09  -1.7306878524450516e+10  -8.4117314002811020e+10  -6.7863896050973152e+10  -3.0635762685837273e+10  -6.6860314499684158e+10  -2.9227987611383282e+10  3.2344726018803837e+10  5.5950527611436401e+10  5.4545422704670517e+10  8.5001230393644552e+09  -2.1991498323670414e+10  8.5846659725571854e+10  -1.9218322733216537e+10  4.2200430612877617e+10  4.9118045529179375e+10  1.4194002788851900e+10  2.4393569491388035e+10  -4.4524786724924187e+10  1.0515819073967262e+10  -1.0991819495202722e+11  -2.3150818746900299e+10  -5.6748124249817291e+10  -6.1990888702896362e+10  -2.0924360188804276e+10  1.2640015452773151e+09  2.8013289937410407e+09  4.6491843820159256e+10  3.5380257034215935e+10  4.0116040357015953e+10  2.9544093711626671e+10  3.8214844238542015e+10  4.5146318185022728e+10  -9.0576248529314404e+09  7.6455061931096985e+10  3.8557322087193504e+10  6.2512949382246094e+10  -5.1713396688323509e+10  -2.0293947010774742e+10  -1.7469795793884892e+10  -2.3744988086631538e+10  -2.6708964859659157e+10  -2.4330733704498817e+10  -1.2238865400386284e+10  1.0631607562032450e+09  -2.8323456111478764e+10  8.6235193172176880e+10  4.2583916331134178e+10  -1.9028281018490677e+09  5.2858111505707878e+10  2.9545168678940369e+10  9.6256973066979179e+09  2.3389317530832253e+10  2.7044415668396877e+10  -1.0517076805158888e+10  -3.4088583587442280e+10  -3.0504680421714339e+09  1.9160176181472988e+09  1.8159134689013847e+10  7.3834955638392763e+09  2.5914714221730072e+10  -2.0322494564270798e+10  5.3943563603422646e+10  8.9725851124590473e+09  3.6541860112353577e+10  -3.8474172127012606e+09  -2.7329973149699261e+10  -3.6484698192299561e+10  -2.5841890602858822e+10  -2.6790473159439917e+09  1.7066875166541819e+10  -7.7297108898309584e+09  -3.0407427305723286e+10  1.2368811829634041e+10  -5.8663718208017743e+08  2.1964467661024277e+10  7.1797682482848835e+08  -3.3472536730771397e+10  -2.9760910797197075e+10  -2.2992678478859566e+10  4.7666643973462395e+10  2.3559323337436237e+10  -9.0434170359147911e+09  -7.0598448774966751e+10  -4.8432110567207710e+10  5.9341039497170784e+10  -3.1466281578972389e+10  -8.2267445108155594e+09  -6.3187033024978432e+10  4.7881009099468376e+10  -1.2189118220767534e+10  -4.7013105248901691e+09  1.0208425130628116e+09  7.1073660887578323e+10  2.9872018268992580e+10  6.5530911209653847e+10  2.4653040910270381e+09  -3.1111548393944645e+10  3.3379523215424858e+10  -4.7468784733886467e+10  -4.0120637848692421e+10  3.1321769704751747e+10  -3.4143640671572849e+10  -4.1282524065377708e+10  -1.4045562961280195e+10  -4.2701217355537819e+10  4.5355046209450890e+10  2.5788803158382883e+09  5.3627873659074112e+10  2.3648176443272877e+10  -2.4811102273218818e+09  3.3756616367346363e+10  3.4327378047439590e+10  5.5262810755716667e+10  -5.1668052050564697e+10  3.8584796531580574e+10  4.6088457962806768e+09  6.2065313716037521e+10  1.2414828044229408e+10  -1.3332144474388571e+10  3.4427362291678219e+09  -1.1530869300442348e+10  -2.7821937929419060e+10  2.2592269528096058e+10  2.5444127260262764e+10  -3.5631520504152198e+09  3.8811336901862915e+10  5.8286344011085472e+10  8.0429539376844559e+10  -8.0367906058406467e+09  1.3319840221035271e+10  -4.2596652077657342e+09  2.2920506395763500e+10  2.3600836661276783e+10  2.6563153172387448e+08  1.7614031862706688e+10  -1.4912786533502483e+10  -4.9466406164676485e+09  1.6971803999800465e+10  -1.0233229587289289e+10  2.8279124297972889e+10  2.7323428040820545e+10  4.1347280194558792e+10  1.8808007724703178e+08  -4.0200433645484642e+10  1.6715602871672859e+10  -3.7563913242804947e+10  -1.9280443904646381e+10  -2.8591290832534412e+10  -1.6346922675530201e+10  -1.0349644493460451e+09  -1.1507622691858860e+10  1.3329644290636171e+10  -1.3601728204578201e+10  -2.3615519370928154e+09  -4.0163351321099174e+10  3.7682101941778114e+10  -2.3668482587833191e+10  1.3021912532550035e+09  -2.7425982283149918e+10  4.3004882252634497e+09  -5.2721448537991848e+09  3.5147424432271271e+10  1.2675994007471111e+10  -3.0018484237827621e+09  -3.4524474678965599e+10  -1.8757147958975208e+10  -4.1200582783180908e+10  -7.3033889110204303e+08  -1.4162496222791852e+11  9.2335510914652283e+10  2.6174715493640697e+10  -1.7682222599257549e+10  3.9446483351517326e+10  8.6402139808193893e+10  -4.7762909483458725e+10  4.2136684646058395e+10  -2.7144766068614605e+10  2.9474356419211880e+10  -7.3926687217563721e+10  -1.0287401682120028e+10  -2.5537142909277256e+10  -2.3994015262856659e+10  -3.1936850139431923e+10  -2.4219691548225521e+10  1.1604729407094173e+09  -6.2365946299242111e+10  3.2270284457804588e+10  3.7159582330893967e+10  3.2960661073476014e+09  4.1052488735308968e+10  -1.0215218898517149e+10  2.1831888985617619e+10  2.7639872018429989e+10  6.4004407171996254e+10  -1.8074309958646339e+10  -1.3453377114989140e+10  4.3483834336695587e+10  2.5518357567530693e+10  7.9929874988024078e+10  4.0051126952229485e+10  -1.0868886333720030e+10  -4.2655498252957268e+10  -2.0097108161582397e+10  -2.2120851557448380e+10  2.3657464486917751e+10  8.9915480384184082e+10  4.6254416931770523e+10  9.8863335365557297e+10  3.0585370410923546e+10  2.5241670156537529e+10  -3.1420958442733856e+10  -1.2398650655889673e+10  6.3278197442988455e+08  3.8041469234310570e+10  2.5665250670825695e+10  1.3485510418544626e+10  -2.1751991921427715e+10  -1.3166053993311131e+10  -6.1827460684416456e+09  -3.3091412688932896e+09  -3.1015579841315336e+09  -1.3997972101309727e+10  -9.0858237547706490e+09  -8.6823014251570549e+09  4.9641246535739197e+10  -3.0041749341018509e+10  5.7507228581728153e+09  2.3496143768738589e+09  -1.9899804770983105e+10  -6.0995498991500702e+09  4.4819499077033127e+10  2.8120066628235779e+10  -4.6846140282740755e+09  3.3922734820245384e+10  4.0056259437332520e+09  4.6103195050974280e+08  9.8245203110196289e+10  -1.4970965086715475e+10  -5.5781823302753242e+10  -4.2869755829604012e+10  -1.1664486735678782e+10  1.2006496165378216e+10  -4.1344756977993865e+09  -5.0762509115278938e+10  1.4488367987396290e+10  -7.1848500894518166e+09  -2.0316115005996861e+10  -1.9824058230139450e+10  -8.9542936433976803e+09  -2.6216921875643039e+09  1.4285258820501413e+11  1.7680656118830353e+10  -3.0423317812831959e+10  -2.0127335015048492e+10  -1.1709620703485684e+11  1.8992925859853848e+10  -3.1984049594882877e+10  5.9157208857776413e+10  1.4596358182504595e+10  1.5252012995251215e+09  1.7897325765623955e+10  9.5213788163526821e+09  -2.8705911079853516e+10  -5.4856833741324997e+10  -2.8363878416533787e+10  -2.0552086788807713e+10  -1.5755249277161763e+09  2.8171573395192497e+10  5.1101912465749578e+09  8.1696325322523270e+09  3.6775462243520554e+10  4.1319030977839798e+10  -2.1637891175853043e+10  1.7703588757087548e+09  4.2139272017150444e+10  5.5738898732103672e+09  4.2604926037332054e+10  2.1492434370134121e+10  3.7984704932463036e+10  1.6249861004804342e+10  3.8368011145052917e+10  -1.9628149966377945e+10  3.8680979360879402e+09  -2.7892210257851224e+09  -2.4501993362213642e+10  4.3661530153378716e+10  3.7642618174929482e+10  4.7224049569574188e+10  2.5064874018056320e+10  8.1431178480498276e+10  2.8652224749768829e+09  -2.1303081236229198e+10  -4.9480852812501993e+09  2.4896930889658165e+10  3.6623014105210312e+10  1.7412285503902546e+10  -8.4874152751752863e+09  -6.6135085217149477e+09  -2.5580189608960735e+10  5.0102071006909943e+09  -6.2049756076506615e+09  -1.8339983119547626e+10  1.2392257262719839e+10  -2.0989451832176197e+10  -4.9971644590865765e+09  -7.1217325135117989e+09  6.9454408330481443e+09  -6.7856758453367672e+09  -1.6630074850293293e+10  -5.3270277820720463e+09  -1.1274454565528469e+10  2.0131565715870525e+10  1.2573135531597691e+09  9.5085568526616764e+09  9.1969717903003368e+09  9.5491692825416927e+09  3.1507228509289570e+10  7.3972444035777912e+09  2.6365038416648512e+09  -1.7959956256645626e+10  1.1415709417613184e+10  -4.2507170454597774e+09  -3.7493608936692757e+10  -1.3120805214928966e+09  1.0903907028906359e+10  -2.8338173823466953e+10  3.4333317865550720e+10  -4.9079938321024818e+10  4.2761320147220741e+10  -4.3625468559763245e+10  -7.1834120199707474e+10  -5.2273040040246704e+10  -6.7291421090822411e+10  -7.1914825214336914e+10  1.7616761744928470e+11  -7.9205217990730438e+10  5.9813413609465477e+10  5.6736240552270447e+10  1.7467225063921970e+11  -8.3755183781735123e+10  -7.0789242305802582e+10  -2.7576728761648083e+10  -2.0112691304347320e+09  9.8570456462560825e+09  -6.0782864175748909e+10  2.4394258491024604e+09  -2.3708721831692879e+10  1.6513044452054363e+10  1.9537219593886284e+10  -3.8020374629786354e+10  7.5812932090954315e+10  4.6195089103815727e+10  5.2797317036272560e+10  3.0153968325410237e+09  5.7201631771901169e+10  3.1398511464375553e+10  -1.1668647681808861e+10  -2.3173233072211003e+09  3.5912944962405800e+10  -4.0087945262159904e+10  -5.7160392221030380e+10  4.4716173976469650e+10  3.1011689056979237e+10  -5.8081882575665789e+09  -1.4783428919385040e+10  4.4911535208314186e+10  2.4574481278470535e+10  4.2421992645605377e+10  6.6146941354534431e+10  3.2888876864084648e+10  8.1355569639352173e+10  1.3214351957723427e+11  -4.2053240096626991e+10  1.1583378578050871e+10  8.3460328544700232e+09  7.4562288274697662e+10  2.2858025867778812e+10  -3.3848577774720794e+08  -2.7174954079365074e+10  -4.1210642347734955e+10  2.7846813134185677e+10  2.6536286491493732e+10  2.4900798606858818e+10  2.3891669851408192e+10  -3.3914084925487595e+10  -1.3437379343708475e+10  -2.9583776580492268e+09  1.8012501748181958e+09  -1.9485717137655560e+10  -2.4382915471241550e+10  -3.0044206607602428e+10  -3.0929497888966022e+10  8.1960283436787825e+09  -2.1862589970931232e+10  2.2409864174562248e+10  -9.0654109803147907e+09  1.7224153419808903e+10  -9.1888798184962749e+09  -1.6985093962777195e+09  6.5644653952577524e+09  -4.2598510554630585e+09  -4.8570678066709089e+09  3.6142729058120407e+10  -5.1405486841692795e+10  -6.0542213284827591e+10  4.5628771427825993e+08  9.7726372496711063e+09  -3.0746766528303833e+10  4.1617462327917504e+09  -3.1869570738897495e+10  1.0906213228385406e+11  -7.2099486228707077e+10  2.7213233383643513e+10  -9.9345129325955902e+10  1.0997230502588467e+11  -2.4028875843063934e+10  -1.8484568012782551e+10  -9.1743871646890087e+09  8.5628696980098984e+10  1.4341930473731903e+11  -6.5480437799932678e+10  3.7813075006273766e+10  -1.2105418788651233e+11  -1.0024045452072028e+11  -5.8763172907113914e+10  1.3026060125189119e+10  7.8649767084447575e+09  -4.1108048765805583e+09  -2.9263207534551956e+10  -3.5297489983138227e+09  -5.3081912969285303e+08  -4.0634606372991074e+10  2.4449896432284561e+10  6.8982926129022842e+10  3.6412928627477211e+10  2.4082367349200455e+10  -1.5334339903805199e+10  -1.4359300335190161e+10  3.5080129170267239e+09  5.5012822993616438e+08  8.8627339434369263e+10  2.9912347751964069e+10  -7.6952370402890549e+10  6.1973097920140480e+10  -2.8801321274153282e+10  -1.7609629762915710e+10  3.9496016902237602e+10  3.8036549714097237e+10  3.0274500914257156e+10  5.8246111237746910e+10  -9.3682078210982132e+10  1.4173365651032477e+11  3.7438545785714783e+10  -9.5606838657614380e+10  6.6279132749551353e+09  6.3588748784961983e+10  4.4358988210197311e+10  4.7827567390132629e+10  -1.1473899811309602e+09  4.1563551628241364e+10  -1.8519408894031498e+10  5.9871083249071648e+10  5.2486947990563135e+09  1.0671939703613382e+10  1.3926454651480993e+10  1.8438991727232304e+10  -1.8186724071533379e+10  2.3946697331408234e+10  -1.8291551114784618e+10  6.9389020649095459e+09  -1.9249378352000622e+10  -2.5773604618636637e+09  -7.1597481338965979e+09  -6.4015029318361926e+08  6.7848257744435415e+09  -9.8238663496337738e+09  2.2815681954375038e+09  4.8518206084246473e+09  8.1648095535465956e+09  -1.7062027398315664e+10  5.9263821680450916e+09  1.8720897943094250e+10  7.1566958721855581e+08  -2.1321310708805690e+09  7.6039952655129032e+09  -2.3896343475405506e+10  3.8870812842785220e+09  -8.1465869586668100e+09  5.2417551334552822e+09  -2.4967980725355949e+10  9.9225470617083340e+09  -6.0899821046789160e+09  -3.0412427266897316e+10  -1.3092065764825104e+10  1.0713990351224880e+10  -4.5931475091671066e+10  3.8293728378362932e+09  3.7357164432635803e+09  3.0295025465771606e+10  -2.4175109073551555e+09  -2.9981457875845360e+10  6.3117386252101051e+10  -2.3213820282374161e+10  3.1207487150177036e+10  9.2544111329521580e+09  -1.5833750541658289e+09  2.6587709679388227e+09  1.1119802577355829e+10  1.2129643566376026e+10  6.9792095937102652e+09  -2.0246141299963794e+09  -1.5223216502860279e+10  -5.2487858742950401e+09  1.9094855603028728e+10  1.9363990062026390e+10  -1.4374260682961742e+10  1.1329597592286419e+10  -1.7025361426072971e+10  -1.3796208063163519e+09  8.7311232067263536e+06  1.5326560033951893e+10  2.8994562997821213e+10  -1.4210663649083393e+10  3.4711555083189754e+09  2.9377870600152367e+10  3.7432613928301325e+09  2.0000545713764938e+10  -1.1724597676892126e+10  1.1942020201380045e+10  -3.1015746512841553e+10  -5.5511900415641689e+09  -1.8889954918962222e+08  6.1364174288807327e+10  -6.7194907952904739e+10  3.9188723101608368e+10  3.4124223370693415e+08  3.7935709443334457e+10  -3.4659288349433846e+10  -4.1542498109486046e+09  2.1560159966185398e+10  -2.0701272036545731e+10  5.9165519462383690e+10  -7.0359657930557053e+10  -1.4508960418375540e+10  -3.1583245568930500e+10  -1.1518021511538471e+10  4.9103908344725065e+09  1.7358878495300026e+10  -2.2831850605308891e+10  -1.3012363572151773e+10  -7.9530086547092050e+07  -2.4717331576005165e+10  -8.5635986187309509e+10  -5.7944403661946457e+10  -1.5680804561524115e+10  3.4944751345793839e+10  -2.0496527813825367e+10  1.3450967680592966e+10  2.7304390000279682e+10  1.6481574279518223e+09  4.2283830215818390e+10  -2.3865882748297133e+09  3.2740906702286400e+10  1.6630303003651825e+10  -5.0752445808800484e+10  -3.6579178294131880e+09  3.5116069270941345e+10  -6.9746670814529068e+10  -1.6588049395039462e+11  -4.7913767428550911e+10  2.5087454789034676e+10  1.1252988801954263e+11  7.9657445538601425e+10  4.9327829269969688e+10  7.1839012642248947e+10  3.2286125123185707e+10  1.0336041426316822e+10  -6.3857026466584076e+10  -7.6889180387259644e+10  2.7345784255315407e+10  -7.0453789217673477e+10  -2.1659794452688637e+09  1.2937016742678362e+10  -7.3428652332465143e+09  -7.7811919379614334e+10  -3.4193722074048775e+10  -4.6837014204112656e+10  1.7772215020024708e+10  1.8559171426389397e+10  -8.4551869426306267e+09  1.6424261118717001e+11  -2.6820091489166617e+09  3.8088563527080307e+10  5.6032990517119881e+10  6.3617125172394094e+09  5.0676392730440338e+10  4.2897145925766678e+10  3.9242155410324425e+10  1.9222098154512985e+10  8.5931732469195297e+10  3.3663422524228733e+10  4.3371086535073219e+10  1.8860928811805222e+10  -1.5789065507454082e+10  -1.2405520071961458e+10  -3.0297639421499947e+10  1.2750046956630836e+10  -4.5784716680722847e+09  -2.8430064390105850e+10  -3.3381948872626675e+10  1.4483503374503275e+11  4.0585249472027922e+09  2.1114647158672510e+11  3.3608706287990513e+10  -7.2820576723083191e+10  -5.2309840094083473e+10  -2.4582461260148949e+10  -1.3576781692039951e+10  -8.4742011473516937e+10  -1.7576549466166520e+09  7.0877750477585678e+10  -8.6542679340277618e+10  -2.9657982983080677e+10  -9.8291986704031067e+09  2.1764866008399007e+08  1.2639525793440405e+10  -3.8553110475721214e+10  1.731861