<?xml version="1.0"?>
<VTKFile type="UnstructuredGrid"  version="0.1"  >
<UnstructuredGrid>
<Piece  NumberOfPoints="1369" NumberOfCells="2560">
<Points>
<DataArray  type="Float64"  NumberOfComponents="3"  format="ascii">0 0 0  0.75 0 0  1.5 0 0  2.25 0 0  3 0 0  3.75 0 0  4.5 0 0  5.25 0 0  6 0 0  6.75 0 0  7.5 0 0  8.25 0 0  9 0 0  9.75 0 0  10.5 0 0  11.25 0 0  12 0 0  12.75 0 0  13.5 0 0  14.25 0 0  15 0 0  15.75 0 0  16.5 0 0  17.25 0 0  18 0 0  18.75 0 0  19.5 0 0  20.25 0 0  21 0 0  21.75 0 0  22.5 0 0  23.25 0 0  24 0 0  24.75 0 0  25.5 0 0  26.25 0 0  27 0 0  27.75 0 0  28.5 0 0  29.25 0 0  30 0 0  30.75 0 0  31.5 0 0  32.25 0 0  33 0 0  33.75 0 0  34.5 0 0  35.25 0 0  36 0 0  36.75 0 0  37.5 0 0  38.25 0 0  39 0 0  39.75 0 0  40.5 0 0  41.25 0 0  42 0 0  42.75 0 0  43.5 0 0  44.25 0 0  45 0 0  45.75 0 0  46.5 0 0  47.25 0 0  48 0 0  48.75 0 0  49.5 0 0  50.25 0 0  51 0 0  51.75 0 0  52.5 0 0  53.25 0 0  54 0 0  54.75 0 0  55.5 0 0  56.25 0 0  57 0 0  57.75 0 0  58.5 0 0  59.25 0 0  60 0 0  0 0.5 0  0.75 0.5 0  1.5 0.5 0  2.25 0.5 0  3 0.5 0  3.75 0.5 0  4.5 0.5 0  5.25 0.5 0  6 0.5 0  6.75 0.5 0  7.5 0.5 0  8.25 0.5 0  9 0.5 0  9.75 0.5 0  10.5 0.5 0  11.25 0.5 0  12 0.5 0  12.75 0.5 0  13.5 0.5 0  14.25 0.5 0  15 0.5 0  15.75 0.5 0  16.5 0.5 0  17.25 0.5 0  18 0.5 0  18.75 0.5 0  19.5 0.5 0  20.25 0.5 0  21 0.5 0  21.75 0.5 0  22.5 0.5 0  23.25 0.5 0  24 0.5 0  24.75 0.5 0  25.5 0.5 0  26.25 0.5 0  27 0.5 0  27.75 0.5 0  28.5 0.5 0  29.25 0.5 0  30 0.5 0  30.75 0.5 0  31.5 0.5 0  32.25 0.5 0  33 0.5 0  33.75 0.5 0  34.5 0.5 0  35.25 0.5 0  36 0.5 0  36.75 0.5 0  37.5 0.5 0  38.25 0.5 0  39 0.5 0  39.75 0.5 0  40.5 0.5 0  41.25 0.5 0  42 0.5 0  42.75 0.5 0  43.5 0.5 0  44.25 0.5 0  45 0.5 0  45.75 0.5 0  46.5 0.5 0  47.25 0.5 0  48 0.5 0  48.75 0.5 0  49.5 0.5 0  50.25 0.5 0  51 0.5 0  51.75 0.5 0  52.5 0.5 0  53.25 0.5 0  54 0.5 0  54.75 0.5 0  55.5 0.5 0  56.25 0.5 0  57 0.5 0  57.75 0.5 0  58.5 0.5 0  59.25 0.5 0  60 0.5 0  0 1 0  0.75 1 0  1.5 1 0  2.25 1 0  3 1 0  3.75 1 0  4.5 1 0  5.25 1 0  6 1 0  6.75 1 0  7.5 1 0  8.25 1 0  9 1 0  9.75 1 0  10.5 1 0  11.25 1 0  12 1 0  12.75 1 0  13.5 1 0  14.25 1 0  15 1 0  15.75 1 0  16.5 1 0  17.25 1 0  18 1 0  18.75 1 0  19.5 1 0  20.25 1 0  21 1 0  21.75 1 0  22.5 1 0  23.25 1 0  24 1 0  24.75 1 0  25.5 1 0  26.25 1 0  27 1 0  27.75 1 0  28.5 1 0  29.25 1 0  30 1 0  30.75 1 0  31.5 1 0  32.25 1 0  33 1 0  33.75 1 0  34.5 1 0  35.25 1 0  36 1 0  36.75 1 0  37.5 1 0  38.25 1 0  39 1 0  39.75 1 0  40.5 1 0  41.25 1 0  42 1 0  42.75 1 0  43.5 1 0  44.25 1 0  45 1 0  45.75 1 0  46.5 1 0  47.25 1 0  48 1 0  48.75 1 0  49.5 1 0  50.25 1 0  51 1 0  51.75 1 0  52.5 1 0  53.25 1 0  54 1 0  54.75 1 0  55.5 1 0  56.25 1 0  57 1 0  57.75 1 0  58.5 1 0  59.25 1 0  60 1 0  0 1.5 0  0.75 1.5 0  1.5 1.5 0  2.25 1.5 0  3 1.5 0  3.75 1.5 0  4.5 1.5 0  5.25 1.5 0  6 1.5 0  6.75 1.5 0  7.5 1.5 0  8.25 1.5 0  9 1.5 0  9.75 1.5 0  10.5 1.5 0  11.25 1.5 0  12 1.5 0  12.75 1.5 0  13.5 1.5 0  14.25 1.5 0  15 1.5 0  15.75 1.5 0  16.5 1.5 0  17.25 1.5 0  18 1.5 0  18.75 1.5 0  19.5 1.5 0  20.25 1.5 0  21 1.5 0  21.75 1.5 0  22.5 1.5 0  23.25 1.5 0  24 1.5 0  24.75 1.5 0  25.5 1.5 0  26.25 1.5 0  27 1.5 0  27.75 1.5 0  28.5 1.5 0  29.25 1.5 0  30 1.5 0  30.75 1.5 0  31.5 1.5 0  32.25 1.5 0  33 1.5 0  33.75 1.5 0  34.5 1.5 0  35.25 1.5 0  36 1.5 0  36.75 1.5 0  37.5 1.5 0  38.25 1.5 0  39 1.5 0  39.75 1.5 0  40.5 1.5 0  41.25 1.5 0  42 1.5 0  42.75 1.5 0  43.5 1.5 0  44.25 1.5 0  45 1.5 0  45.75 1.5 0  46.5 1.5 0  47.25 1.5 0  48 1.5 0  48.75 1.5 0  49.5 1.5 0  50.25 1.5 0  51 1.5 0  51.75 1.5 0  52.5 1.5 0  53.25 1.5 0  54 1.5 0  54.75 1.5 0  55.5 1.5 0  56.25 1.5 0  57 1.5 0  57.75 1.5 0  58.5 1.5 0  59.25 1.5 0  60 1.5 0  0 2 0  0.75 2 0  1.5 2 0  2.25 2 0  3 2 0  3.75 2 0  4.5 2 0  5.25 2 0  6 2 0  6.75 2 0  7.5 2 0  8.25 2 0  9 2 0  9.75 2 0  10.5 2 0  11.25 2 0  12 2 0  12.75 2 0  13.5 2 0  14.25 2 0  15 2 0  15.75 2 0  16.5 2 0  17.25 2 0  18 2 0  18.75 2 0  19.5 2 0  20.25 2 0  21 2 0  21.75 2 0  22.5 2 0  23.25 2 0  24 2 0  24.75 2 0  25.5 2 0  26.25 2 0  27 2 0  27.75 2 0  28.5 2 0  29.25 2 0  30 2 0  30.75 2 0  31.5 2 0  32.25 2 0  33 2 0  33.75 2 0  34.5 2 0  35.25 2 0  36 2 0  36.75 2 0  37.5 2 0  38.25 2 0  39 2 0  39.75 2 0  40.5 2 0  41.25 2 0  42 2 0  42.75 2 0  43.5 2 0  44.25 2 0  45 2 0  45.75 2 0  46.5 2 0  47.25 2 0  48 2 0  48.75 2 0  49.5 2 0  50.25 2 0  51 2 0  51.75 2 0  52.5 2 0  53.25 2 0  54 2 0  54.75 2 0  55.5 2 0  56.25 2 0  57 2 0  57.75 2 0  58.5 2 0  59.25 2 0  60 2 0  0 2.5 0  0.75 2.5 0  1.5 2.5 0  2.25 2.5 0  3 2.5 0  3.75 2.5 0  4.5 2.5 0  5.25 2.5 0  6 2.5 0  6.75 2.5 0  7.5 2.5 0  8.25 2.5 0  9 2.5 0  9.75 2.5 0  10.5 2.5 0  11.25 2.5 0  12 2.5 0  12.75 2.5 0  13.5 2.5 0  14.25 2.5 0  15 2.5 0  15.75 2.5 0  16.5 2.5 0  17.25 2.5 0  18 2.5 0  18.75 2.5 0  19.5 2.5 0  20.25 2.5 0  21 2.5 0  21.75 2.5 0  22.5 2.5 0  23.25 2.5 0  24 2.5 0  24.75 2.5 0  25.5 2.5 0  26.25 2.5 0  27 2.5 0  27.75 2.5 0  28.5 2.5 0  29.25 2.5 0  30 2.5 0  30.75 2.5 0  31.5 2.5 0  32.25 2.5 0  33 2.5 0  33.75 2.5 0  34.5 2.5 0  35.25 2.5 0  36 2.5 0  36.75 2.5 0  37.5 2.5 0  38.25 2.5 0  39 2.5 0  39.75 2.5 0  40.5 2.5 0  41.25 2.5 0  42 2.5 0  42.75 2.5 0  43.5 2.5 0  44.25 2.5 0  45 2.5 0  45.75 2.5 0  46.5 2.5 0  47.25 2.5 0  48 2.5 0  48.75 2.5 0  49.5 2.5 0  50.25 2.5 0  51 2.5 0  51.75 2.5 0  52.5 2.5 0  53.25 2.5 0  54 2.5 0  54.75 2.5 0  55.5 2.5 0  56.25 2.5 0  57 2.5 0  57.75 2.5 0  58.5 2.5 0  59.25 2.5 0  60 2.5 0  0 3 0  0.75 3 0  1.5 3 0  2.25 3 0  3 3 0  3.75 3 0  4.5 3 0  5.25 3 0  6 3 0  6.75 3 0  7.5 3 0  8.25 3 0  9 3 0  9.75 3 0  10.5 3 0  11.25 3 0  12 3 0  12.75 3 0  13.5 3 0  14.25 3 0  15 3 0  15.75 3 0  16.5 3 0  17.25 3 0  18 3 0  18.75 3 0  19.5 3 0  20.25 3 0  21 3 0  21.75 3 0  22.5 3 0  23.25 3 0  24 3 0  24.75 3 0  25.5 3 0  26.25 3 0  27 3 0  27.75 3 0  28.5 3 0  29.25 3 0  30 3 0  30.75 3 0  31.5 3 0  32.25 3 0  33 3 0  33.75 3 0  34.5 3 0  35.25 3 0  36 3 0  36.75 3 0  37.5 3 0  38.25 3 0  39 3 0  39.75 3 0  40.5 3 0  41.25 3 0  42 3 0  42.75 3 0  43.5 3 0  44.25 3 0  45 3 0  45.75 3 0  46.5 3 0  47.25 3 0  48 3 0  48.75 3 0  49.5 3 0  50.25 3 0  51 3 0  51.75 3 0  52.5 3 0  53.25 3 0  54 3 0  54.75 3 0  55.5 3 0  56.25 3 0  57 3 0  57.75 3 0  58.5 3 0  59.25 3 0  60 3 0  0 3.5 0  0.75 3.5 0  1.5 3.5 0  2.25 3.5 0  3 3.5 0  3.75 3.5 0  4.5 3.5 0  5.25 3.5 0  6 3.5 0  6.75 3.5 0  7.5 3.5 0  8.25 3.5 0  9 3.5 0  9.75 3.5 0  10.5 3.5 0  11.25 3.5 0  12 3.5 0  12.75 3.5 0  13.5 3.5 0  14.25 3.5 0  15 3.5 0  15.75 3.5 0  16.5 3.5 0  17.25 3.5 0  18 3.5 0  18.75 3.5 0  19.5 3.5 0  20.25 3.5 0  21 3.5 0  21.75 3.5 0  22.5 3.5 0  23.25 3.5 0  24 3.5 0  24.75 3.5 0  25.5 3.5 0  26.25 3.5 0  27 3.5 0  27.75 3.5 0  28.5 3.5 0  29.25 3.5 0  30 3.5 0  30.75 3.5 0  31.5 3.5 0  32.25 3.5 0  33 3.5 0  33.75 3.5 0  34.5 3.5 0  35.25 3.5 0  36 3.5 0  36.75 3.5 0  37.5 3.5 0  38.25 3.5 0  39 3.5 0  39.75 3.5 0  40.5 3.5 0  41.25 3.5 0  42 3.5 0  42.75 3.5 0  43.5 3.5 0  44.25 3.5 0  45 3.5 0  45.75 3.5 0  46.5 3.5 0  47.25 3.5 0  48 3.5 0  48.75 3.5 0  49.5 3.5 0  50.25 3.5 0  51 3.5 0  51.75 3.5 0  52.5 3.5 0  53.25 3.5 0  54 3.5 0  54.75 3.5 0  55.5 3.5 0  56.25 3.5 0  57 3.5 0  57.75 3.5 0  58.5 3.5 0  59.25 3.5 0  60 3.5 0  0 4 0  0.75 4 0  1.5 4 0  2.25 4 0  3 4 0  3.75 4 0  4.5 4 0  5.25 4 0  6 4 0  6.75 4 0  7.5 4 0  8.25 4 0  9 4 0  9.75 4 0  10.5 4 0  11.25 4 0  12 4 0  12.75 4 0  13.5 4 0  14.25 4 0  15 4 0  15.75 4 0  16.5 4 0  17.25 4 0  18 4 0  18.75 4 0  19.5 4 0  20.25 4 0  21 4 0  21.75 4 0  22.5 4 0  23.25 4 0  24 4 0  24.75 4 0  25.5 4 0  26.25 4 0  27 4 0  27.75 4 0  28.5 4 0  29.25 4 0  30 4 0  30.75 4 0  31.5 4 0  32.25 4 0  33 4 0  33.75 4 0  34.5 4 0  35.25 4 0  36 4 0  36.75 4 0  37.5 4 0  38.25 4 0  39 4 0  39.75 4 0  40.5 4 0  41.25 4 0  42 4 0  42.75 4 0  43.5 4 0  44.25 4 0  45 4 0  45.75 4 0  46.5 4 0  47.25 4 0  48 4 0  48.75 4 0  49.5 4 0  50.25 4 0  51 4 0  51.75 4 0  52.5 4 0  53.25 4 0  54 4 0  54.75 4 0  55.5 4 0  56.25 4 0  57 4 0  57.75 4 0  58.5 4 0  59.25 4 0  60 4 0  0.375 0.25 0  1.125 0.25 0  1.875 0.25 0  2.625 0.25 0  3.375 0.25 0  4.125 0.25 0  4.875 0.25 0  5.625 0.25 0  6.375 0.25 0  7.125 0.25 0  7.875 0.25 0  8.625 0.25 0  9.375 0.25 0  10.125 0.25 0  10.875 0.25 0  11.625 0.25 0  12.375 0.25 0  13.125 0.25 0  13.875 0.25 0  14.625 0.25 0  15.375 0.25 0  16.125 0.25 0  16.875 0.25 0  17.625 0.25 0  18.375 0.25 0  19.125 0.25 0  19.875 0.25 0  20.625 0.25 0  21.375 0.25 0  22.125 0.25 0  22.875 0.25 0  23.625 0.25 0  24.375 0.25 0  25.125 0.25 0  25.875 0.25 0  26.625 0.25 0  27.375 0.25 0  28.125 0.25 0  28.875 0.25 0  29.625 0.25 0  30.375 0.25 0  31.125 0.25 0  31.875 0.25 0  32.625 0.25 0  33.375 0.25 0  34.125 0.25 0  34.875 0.25 0  35.625 0.25 0  36.375 0.25 0  37.125 0.25 0  37.875 0.25 0  38.625 0.25 0  39.375 0.25 0  40.125 0.25 0  40.875 0.25 0  41.625 0.25 0  42.375 0.25 0  43.125 0.25 0  43.875 0.25 0  44.625 0.25 0  45.375 0.25 0  46.125 0.25 0  46.875 0.25 0  47.625 0.25 0  48.375 0.25 0  49.125 0.25 0  49.875 0.25 0  50.625 0.25 0  51.375 0.25 0  52.125 0.25 0  52.875 0.25 0  53.625 0.25 0  54.375 0.25 0  55.125 0.25 0  55.875 0.25 0  56.625 0.25 0  57.375 0.25 0  58.125 0.25 0  58.875 0.25 0  59.625 0.25 0  0.375 0.75 0  1.125 0.75 0  1.875 0.75 0  2.625 0.75 0  3.375 0.75 0  4.125 0.75 0  4.875 0.75 0  5.625 0.75 0  6.375 0.75 0  7.125 0.75 0  7.875 0.75 0  8.625 0.75 0  9.375 0.75 0  10.125 0.75 0  10.875 0.75 0  11.625 0.75 0  12.375 0.75 0  13.125 0.75 0  13.875 0.75 0  14.625 0.75 0  15.375 0.75 0  16.125 0.75 0  16.875 0.75 0  17.625 0.75 0  18.375 0.75 0  19.125 0.75 0  19.875 0.75 0  20.625 0.75 0  21.375 0.75 0  22.125 0.75 0  22.875 0.75 0  23.625 0.75 0  24.375 0.75 0  25.125 0.75 0  25.875 0.75 0  26.625 0.75 0  27.375 0.75 0  28.125 0.75 0  28.875 0.75 0  29.625 0.75 0  30.375 0.75 0  31.125 0.75 0  31.875 0.75 0  32.625 0.75 0  33.375 0.75 0  34.125 0.75 0  34.875 0.75 0  35.625 0.75 0  36.375 0.75 0  37.125 0.75 0  37.875 0.75 0  38.625 0.75 0  39.375 0.75 0  40.125 0.75 0  40
[...]
<PointData  Scalars="f_8-1"> 
<DataArray  type="Float64"  Name="f_8-1"  format="ascii">2.8831404803884315e+10  6.2358446138570299e+09  -1.5325659693960843e+11  -9.0951851711822952e+10  9.7466165745591751e+10  -4.5105449935199036e+10  -7.1624526197499680e+10  6.4193849200774757e+10  7.2841511708056412e+10  -5.3470469102018013e+10  8.4967023810363876e+10  1.1029931844641386e+11  -1.6028478452261343e+11  1.5139849622713686e+10  4.2050954130466580e+09  -7.4725662909168167e+09  3.3449371244703279e+09  2.3216824291160206e+10  -9.4472847179290695e+09  -3.4505792954551703e+08  2.7209952734192005e+10  2.7759497827925751e+10  -1.1224397378060486e+09  -5.6960222972162483e+10  -1.7960386779923016e+10  -1.5172472788456799e+11  -8.2644216186613632e+10  -1.1767582969803809e+11  -5.4551600260852806e+10  -3.9136880217528954e+10  7.7215673655203962e+09  -3.8007880553675873e+10  -4.6373447309811068e+09  3.7357488669304764e+10  -2.4519642917345314e+10  -2.9237335151525196e+10  8.5607301661276350e+09  6.1009665456595490e+10  -7.1697286308589142e+10  -3.7386806357976456e+10  1.0394150250260000e+10  -5.7148468242502319e+10  -9.9935466603766266e+10  -8.1175803184167282e+10  -7.3849560102020401e+10  -8.8539473155134354e+09  -2.1192280848850143e+10  -3.6181491773128767e+09  -1.9427957263842144e+10  -1.4326131658044592e+11  -6.0268905449913712e+10  -4.9557141984622490e+10  7.4017936157192841e+10  2.6164674405034382e+10  -1.6464590174553983e+11  7.8051936260168579e+10  1.8540285424709937e+11  -8.0944630461522675e+10  -2.0999038158346255e+11  -8.3382904265717911e+10  -2.6629069507821048e+11  -1.3346815469534845e+11  -1.5874865557411888e+10  1.0136445043169450e+11  -1.2131618430738557e+11  -7.4097891448775925e+10  -1.6359031066672760e+11  -3.9154288963417542e+10  -3.4556433988968002e+10  8.0189875349458716e+11  2.5241490825895163e+11  -2.0356575728122864e+11  -2.1719071792773721e+11  -2.4712561150129944e+11  -1.6237335463701736e+11  -4.2042296377601611e+11  -5.0218462388392139e+11  -2.2912305516707706e+11  1.9631342448168274e+11  -1.3624951222422126e+12  -3.5566750506330945e+11  -3.7943178426341476e+10  6.7822218339466591e+09  -9.4808123043945587e+10  -8.1552005625620331e+10  -1.1679469058147890e+11  -1.9729872284635777e+10  4.1720559983523987e+10  -4.4925037712937271e+10  8.5799726305979645e+10  -5.2611908021641029e+10  -1.4986791643564072e+11  -8.4260352643264923e+10  2.3111651399927502e+10  3.0023264107230110e+10  -6.8028918643414497e+09  -9.8260977755159054e+09  9.1636855019718704e+09  -8.7951695144600639e+09  1.7602882355490166e+10  2.8022951874112343e+10  1.6911775291635515e+10  4.7574009406739189e+10  1.8564724322622707e+09  -7.9451795003991776e+10  -3.5467741524683533e+10  -5.4788690052658272e+10  -1.1840355711055058e+11  3.2901185673553214e+09  2.7413146569858589e+10  -2.3846016983575577e+10  -6.1939231684035172e+10  -1.5312029825928480e+10  1.0052274678972786e+10  3.8470963584824051e+10  -6.3991209837631348e+10  3.6769882871565338e+10  -6.2969465808594482e+10  4.8649706888970131e+10  4.6948986228224487e+10  -8.7271693782921448e+10  1.9218406523903931e+10  -6.5509043628902878e+10  -9.0829760629249939e+10  -4.3482607964069321e+10  -6.7616966920730690e+10  -3.9886798080061981e+10  -1.6005934051102779e+09  2.6798942254462414e+10  -5.9480747520572914e+10  -7.7132745562114014e+10  -2.4154526695405145e+09  -6.3877897032889206e+10  6.5282105477356125e+10  5.7548598407999687e+10  -6.8194382552120735e+10  1.8596330512568958e+10  2.4655175096445081e+11  -4.4414617674761375e+10  -2.2334471856393475e+11  -2.3101248035823463e+10  -2.0280523705012244e+11  -5.7942569801554184e+10  -1.9553058996191055e+11  1.1217008952074527e+11  -7.5354035212400009e+10  6.8538642130603313e+09  -1.9120154680873434e+11  -1.7383061677115860e+11  -1.2023959408868417e+11  1.2682637010478555e+11  2.0030516261297937e+11  -2.6912765659233530e+11  -1.5480112855222919e+11  -3.6847981568763971e+11  -3.8116890576896985e+11  -9.8932640404715897e+10  -2.5277594107483276e+11  -4.1041162429426422e+11  2.7752629271247192e+11  2.3272814245319781e+11  3.9387513094511389e+11  2.9966633095347057e+10  -8.9261853450183315e+09  -4.3277375540601974e+10  -9.0884695283199982e+10  -1.2242434404968939e+10  -6.2651042149062004e+10  -1.4977182547781349e+10  -7.1007182136975193e+09  -1.6072759473318207e+09  1.0549948572378544e+10  2.4339327612653095e+10  -2.0904568429142166e+10  4.3559931440613052e+10  4.4235316600912285e+10  1.0682274310268702e+10  -6.9137998078674431e+09  2.8509641337737717e+10  -1.4370184229582325e+10  9.1461759355463924e+09  -2.4992963178608742e+10  1.7597710607826611e+10  4.2088808981587936e+10  2.5620115508095280e+10  3.6280886073071350e+10  -1.3520718320070599e+11  4.3589441526446938e+10  4.8110663364939972e+10  -4.4476746151779495e+10  -4.2295924389835648e+10  2.3172870487265687e+09  2.8837623804848400e+10  -3.0678035047798386e+10  -2.9205415534770045e+09  3.5272030784541443e+10  2.5532980363953624e+09  -3.0554756278539459e+10  -7.2040833333073563e+10  -4.5139073015140579e+10  -7.1627561434849884e+10  -6.6074854859256042e+10  -9.6930219836746201e+10  -9.0960450039762436e+10  -4.5676002080254456e+10  -7.1020255683079880e+10  -5.5833717006925934e+10  -4.0787214898448547e+10  -5.7530528588944466e+10  -4.1967203839897026e+10  6.5026798955268463e+10  9.0619858819302124e+10  9.0704206272698040e+09  -3.3177308812205700e+10  7.5512861762223511e+10  3.9117160735315826e+10  9.0500441980450211e+10  4.0944133203578079e+10  6.0520478452285011e+10  -1.4120379398704773e+11  -2.5870824686879139e+10  -4.1018606387019128e+11  8.6700898480282166e+10  -2.1608715734688013e+11  -7.7774916673015060e+10  5.2576085984578056e+10  -9.9692007152614960e+10  -8.9358381914160416e+10  -6.8475476376619377e+10  -1.7925626637989453e+11  -6.1519902929938989e+11  -1.1295282526309355e+11  -5.2538954343657562e+10  -3.0339156562874414e+11  -2.1007846375708441e+11  8.0048405511479279e+10  -6.6774148503288367e+11  -4.7632919225622137e+11  -2.6315671786351797e+11  -5.5429403922065698e+11  -2.4407558287328702e+11  3.6627596581396034e+10  3.1744904503929478e+10  1.2017160324980217e+10  -1.9364113363782593e+10  -2.7937375612533360e+10  -1.0599703865059781e+11  -4.1610267504862938e+10  -5.2805184495349360e+09  -1.6031134257648933e+10  2.5763110420870384e+10  -3.8219007021881356e+09  2.6222862875317558e+10  -2.7418955924153981e+09  3.2785729592627739e+10  1.1537852239121745e+11  4.7910297943169731e+10  4.6599759063761263e+09  8.8792123307260094e+09  -2.7570607756726832e+09  7.3297438234898634e+09  -7.9499471038228340e+09  1.7891942728971848e+10  -7.3611900780240440e+09  3.9450196544611044e+09  7.7199613836213501e+10  -2.5197759213238663e+10  5.3489226665612724e+10  -3.5947750430332596e+10  -5.9596044823996292e+10  3.1526402687538368e+10  1.0418879184806278e+10  3.5839814217062675e+10  4.8580664200020134e+10  -6.5606287309391335e+10  2.5533129645184639e+08  4.1459912960854797e+10  4.1349210219515738e+09  -7.8667073659169281e+10  5.0995779494536076e+09  -6.2592355263623756e+10  -3.0904250469655865e+10  -3.6255163005891190e+10  -4.2010174388136856e+10  -2.2728195817743111e+10  -2.9009261980385113e+10  -5.5764082230620804e+09  -7.9932284416591034e+10  -5.9026153569542274e+10  -2.8612646745053165e+10  -6.8752552612829132e+10  -1.1012978510134612e+11  2.0904898855696308e+10  -4.7102560809564125e+10  -2.6720538363414566e+10  6.1636736415107292e+10  -1.8084089680955669e+10  6.9382652811228149e+10  -6.9846900821891891e+10  1.5934234851348291e+11  -2.1663721061210709e+11  7.6921560312293427e+10  -4.2781664125918738e+11  -2.8150423088920215e+11  3.0115136381056019e+10  -1.9751455817623648e+11  2.4455666981433566e+11  -5.1710549158755257e+10  -3.9781083916309212e+10  -4.4491724117304497e+10  -1.1669842374830830e+11  -2.6136231911272946e+11  4.4606606479534340e+10  -4.1488572951273865e+10  -3.2908185260099621e+10  -2.0532109250110004e+11  5.2826191106474678e+10  -1.0882702788054536e+11  -2.4675401530597934e+11  -2.9179571928627875e+11  2.4059274315931461e+11  7.1126063383612700e+09  2.6133122244219434e+11  9.2038412811251129e+10  -8.7869956297305508e+09  -3.6679158614007095e+10  -1.0605201200908461e+11  1.2034830630384466e+10  -7.4843495241811661e+10  5.0361587853234673e+09  5.9399394960432701e+10  -5.7620609720779907e+10  4.6117027171307587e+10  -3.8470997466012703e+10  -3.5545003884009471e+09  4.8518216732238417e+09  5.2450846170159515e+10  3.1948636596093836e+09  2.0380399257046494e+10  5.0997100549000340e+09  1.1608430377917856e+10  -1.2760290812460665e+10  9.9274841543194027e+09  -4.1403669411673942e+09  -7.3644637495613871e+09  -1.6528626258256056e+10  8.4453670653262726e+10  -3.1089987359101490e+10  9.3600306360729111e+10  7.4984165997133102e+10  -4.0649195312207046e+09  -1.1479824351112533e+09  1.8933650785778763e+10  1.8031218908555470e+09  6.2009784202748428e+10  -6.5737567097916405e+10  -5.1492771197377605e+09  -5.8737247446736097e+09  -5.3498658770729210e+10  -7.1431463054677811e+10  -5.9559562388535164e+10  -3.0199182630436020e+10  -3.5530028228018532e+10  -5.4823168986182518e+10  -4.9468237843985764e+10  2.6988747972904599e+08  1.8017921446798759e+10  -8.9631724024074860e+09  -3.9493649133709663e+10  -1.7172546326940062e+10  1.7010066819845320e+10  -1.2502891867102066e+10  -5.0136358379791546e+09  -8.4099201578933731e+10  8.4929985780863785e+10  4.4468605182294792e+10  5.4043602816082565e+10  3.7512461011211526e+08  4.1307336832668274e+10  -5.3737533024166634e+10  -2.6066540341097759e+10  2.0501075384022876e+11  -1.3580412831832163e+10  -7.8569209703048187e+10  -2.7268459153611182e+11  -1.0462432237532343e+11  -1.0636463406251842e+11  3.3245513576042507e+10  -5.4212539969964638e+10  -5.1226819747375450e+10  -1.0265238990863466e+10  4.7248212980259735e+10  -2.0765667971655820e+11  -2.0845159599785471e+11  -8.0958756150990891e+10  -1.2745487457998450e+11  -3.3168496991317070e+10  -6.6891221238336044e+10  -2.9114960442427113e+10  1.0907859036716319e+11  -6.8116466104851184e+11  -1.0724967501545628e+11  -1.0977098112176748e+10  2.8450746657333685e+11  -9.8256173358871140e+10  1.3513469335591806e+10  -3.0483264511626587e+10  -5.1876938352288948e+10  5.6287415684009216e+10  6.7213614694008934e+10  -4.2311054024371991e+09  6.3420728014931190e+10  -1.6153232052540630e+10  3.4139502573832655e+09  3.4323443096943340e+09  -1.9074260356758625e+10  -6.3187357308065796e+09  1.4362914728849419e+10  1.0129371301996902e+10  -5.1108799241856705e+10  6.0238929059409542e+09  1.7841476054693253e+10  5.8424625330108824e+09  -1.4801951800190959e+09  8.3837622812751210e+08  1.2628863960360588e+10  -2.4751015714012566e+09  5.6961355000621384e+10  -7.4331820148811447e+10  -7.9551367953955643e+10  2.6131701499403530e+10  2.4935373641566708e+10  3.9991679594722610e+10  2.1360129068655663e+10  1.7130329350708172e+10  1.3250647255050035e+10  -6.4280287816564896e+10  9.2749715648250256e+09  -7.7734161986178970e+10  -3.8371912006902719e+09  -5.0829386862403465e+10  -9.8232691582960648e+10  -5.2404493650769989e+10  -4.1542949607973457e+10  -2.0277017220634979e+10  -7.8861645422847061e+10  -8.2532397147573862e+09  -1.1815427476201140e+11  2.4788211855121942e+09  -2.1748416965799751e+10  2.9687359293614144e+09  -6.4014640329358498e+10  5.4000723275878899e+10  -5.4024269965447708e+10  -4.8848400718402664e+10  1.0179576857616098e+11  -1.0371350799155302e+09  1.1377975869397906e+11  6.7037359571176651e+10  -6.3874151458271629e+10  -2.2106327918932560e+10  6.7225959038592140e+10  -1.6447012953382828e+11  2.1735320961035683e+10  -2.4149845064409557e+10  -1.8242955321515674e+11  -8.3889567065840744e+10  -2.2051058147580528e+09  1.0923228013518643e+11  -6.0386901636405167e+10  4.3749895028687050e+10  -1.7848017503491876e+11  -5.0879921673935532e+10  -2.4049479073962207e+11  -5.3070972219803345e+10  -1.5031781235080900e+10  -1.8432442320930005e+11  -2.8032553739878201e+09  -2.2189983196107437e+11  3.4739262205467369e+10  -1.2308870144711957e+11  1.6873329182289978e+11  -3.6696169697095650e+10  -9.1008715251838837e+10  2.6425843323313480e+11  1.2791052090803651e+11  -8.0837316111862803e+09  3.1903940820883858e+10  -6.0854890874196960e+10  1.3556932523839842e+10  8.0959716811129730e+10  9.5385650060388077e+10  4.9692252312530525e+10  2.8349598360043438e+10  1.6493537914532074e+10  -3.6162107161464944e+07  -9.8186902665218239e+09  -2.4391896104705925e+10  6.6324197934410805e+10  -2.5001010826187763e+10  1.6320701272363522e+10  1.6206918857001728e+10  -2.4394030292627060e+10  -2.7319167135664192e+10  -5.6465090111000252e+09  4.4122905830513420e+10  2.9768922797945084e+10  2.5368230923615852e+10  -1.9681069028752552e+10  -3.9987559863234428e+10  -3.5227090354875450e+10  1.0373251692517529e+10  6.5326301064108459e+10  -1.0898598476013781e+10  2.7569552537616879e+10  3.8307882805301193e+10  1.8785327229225052e+10  1.5801008739083504e+10  4.0616849513501945e+10  -8.8194106283705109e+10  1.3234376336812536e+10  -9.8887281085590496e+09  -7.6160923797606705e+10  -3.8983287634472633e+10  -1.3291038280674149e+10  6.8830860599175186e+09  -2.1467260542377403e+10  -5.0036224090610878e+10  -2.3062813731777985e+10  7.9800072910619751e+10  -3.1683241999812126e+10  3.5081402987011543e+10  3.5450261562626350e+10  1.1894345511311162e+11  5.5887399686820999e+10  -5.7774773313209000e+10  -2.7158522346006638e+10  5.9731322288100529e+09  4.3461997400303528e+10  5.1074118843556854e+10  -9.0652069316865891e+10  1.1879539682151549e+11  -1.8361580229667816e+11  1.9067822560802841e+11  -1.2652961347696303e+11  -1.7361361265286084e+11  -9.5364744118244965e+10  -1.4870092307516055e+11  7.1877118016439575e+10  -7.4935742536895706e+10  1.7826990774700565e+10  -2.3044143563461307e+11  -1.8922829760532364e+11  -1.5549653665671765e+11  -1.8375110252981674e+11  8.1170288038670151e+10  -3.2119187529877258e+11  -1.9846223472157245e+11  -2.4408693311643710e+11  -1.1532745116174349e+10  -1.0431783209953958e+11  -7.5495227850156036e+10  -4.4207375425931368e+09  3.0925967783709375e+11  5.1634266088791527e+10  1.2242003904978315e+10  1.5396111177142322e+11  7.1340171493076523e+10  -1.2625538106855525e+11  -6.8166527629596825e+10  3.2695798296083057e+10  5.5012283074970749e+10  4.7280045313076792e+09  4.0969648118820793e+10  2.2622343008391857e+10  -1.8529429714034115e+10  2.8848922827529915e+10  -1.0440383666142948e+10  -9.6153620461622391e+09  2.6554000076099285e+10  -3.4892039661190706e+08  5.7538694039297037e+09  -2.2610449255232639e+10  1.6477424167035280e+10  -3.5256362405802636e+09  4.1757733088792763e+10  6.3912803467949821e+10  -1.4524573199893278e+10  -5.4087422396579529e+10  6.2017983088246574e+10  -1.4273619510365665e+09  2.5495931371166527e+10  2.1657478675639748e+10  1.3701036293433817e+10  -1.2111308191941084e+10  1.6018968057669624e+10  3.6634454685703225e+09  -2.3325291900780415e+10  -4.6288670083165787e+10  -3.3603969127081287e+10  -1.0354227412979442e+11  1.5535245057614105e+09  3.8993793544711044e+10  -8.3133026386677643e+10  -2.9843264597913834e+10  5.6498132779012657e+10  3.0135617318767582e+10  2.3931791952049751e+10  -1.5953745447648325e+10  3.2321903132817276e+10  -1.9476089684439312e+10  6.3118731146932205e+10  -2.5983192741879799e+10  8.1604613681421341e+10  1.3260763391966756e+11  5.3233702247209305e+10  1.2998136623320969e+11  2.6461754152516361e+10  -3.7762012163930618e+10  -4.9123730122911606e+10  -1.9268425919978958e+10  -1.0036261489868189e+10  7.7917791948715485e+10  1.0007912087285364e+11  3.2960123549219154e+10  -3.4962935469653770e+10  8.1739631727255875e+10  3.2779521837644154e+10  -2.5510157081401694e+11  2.6730887908132572e+10  -1.3394251267566423e+11  7.9159443705118591e+10  3.8763910315414795e+10  -7.3873298394451996e+10  -5.4325360260259071e+10  -1.3156440650397458e+11  5.4795462093898277e+10  -2.8418259316459167e+11  -9.1344257192992111e+10  -1.0832852189640498e+11  -9.9960028929541687e+10  -8.0782082483411469e+10  2.4115272870321347e+11  -4.3336838766990460e+11  1.8741546977095392e+11  -2.6452113709828293e+10  -4.1205482788286279e+11  6.2654532369970129e+11  -8.5387573256568222e+09  7.1579453008578720e+10  -5.6732991285173332e+10  9.0534410034913483e+09  -1.1101349943217693e+10  2.3498269237224117e+10  -5.1701782531663799e+09  -2.5486356984175825e+09  7.4230575857032822e+10  -7.9339146697888565e+09  -1.3475147418221030e+09  2.0823955003388705e+09  -2.2183921509999645e+10  8.1585280620398569e+09  5.6349468557043552e+08  -8.5204188311815615e+09  -8.1979091440583334e+09  1.0987946755375214e+10  -1.3056184431909855e+10  -6.8714641566966906e+09  -6.9416353086464586e+09  1.3239968041625959e+10  -9.5721371191529446e+09  2.0606519040679722e+10  1.4797261414125025e+10  2.0852641108556973e+10  -4.5211045947106033e+10  9.0420797711093979e+09  -1.2105883810491030e+10  2.3234564740548508e+10  -5.0826363293061119e+10  3.7165736135465646e+08  -2.8383005894244184e+09  2.1983752482325817e+10  8.4927604139525818e+10  -2.8648460938469578e+10  -1.7621090083327286e+10  -1.1129485146977906e+09  1.0140783464164324e+10  -2.4339529698784920e+10  -1.5500224300743647e+10  5.4172092881746376e+10  -2.0652811451339783e+10  2.2364864545276318e+10  -2.5820434848318267e+09  4.2291395677627511e+09  -3.1569852827345924e+10  1.6790532400307949e+10  -2.1617761441032604e+10  4.9077012415682755e+10  2.7699827406186653e+10  -2.1455335707407810e+10  1.9645524421904659e+10  -2.1817895823076153e+10  5.3657696714622337e+10  -1.0300161847879173e+10  4.3770114999364929e+10  -2.4178992828459267e+10  9.7954376098521461e+09  -4.9006091085473223e+09  7.4598331563468876e+09  1.3688250217350771e+10  1.1323977370760027e+11  -3.0921351615041798e+10  -6.9811163644491394e+10  8.1832482119106766e+10  -7.6694121320085617e+10  1.5642208408766113e+11  4.5397726078558815e+10  3.0860615721479893e+10  -1.2204387000832363e+10  2.2449502299810558e+10  4.4140860236497269e+09  -5.0616475082566925e+10  1.0097812743411005e+10  1.2995364418497003e+11  9.9673008981421005e+10  -1.9033111901355499e+11  9.6560052131999100e+10  2.3261005890363495e+11  -2.3123094804207880e+11  6.1726471924862740e+10  -4.4454629344976913e+10  -6.3917798277712097e+10  -7.0626896519895264e+10  5.9751490722635147e+10  4.2886043954667511e+10  -3.3640126324364334e+10  5.1423114273802620e+10  -9.4197933070182121e+08  1.4128709867497729e+11  -8.9202830631427795e+10  -4.2392231297459869e+10  -8.5165364802566528e+10  1.7458423668001812e+10  -1.0904276600139791e+10  -1.7786924646746151e+10  -2.9462454120053420e+09  4.8619267169861893e+10  -1.1779446076515461e+10  -1.4402492284419014e+10  4.2667165727147972e+10  2.6965297888587467e+10  -5.3232729308710301e+08  -7.9085098402323105e+10  -8.1716613172430618e+10  -1.2502006343924774e+11  -9.3261362710499710e+10  2.5426816045457672e+10  -1.1484004170153378e+10  -1.3486547618496504e+10  1.7101523703802052e+10  -4.0768858083210426e+10  7.5341370056716125e+10  8.3390113653780334e+10  -6.1016927310068550e+10  4.4016223894532795e+09  6.0120518224555298e+10  7.0948308143068741e+10  -7.0340053830358215e+10  3.3373320792434002e+10  -4.6494494197754753e+10  -1.4942126902600558e+11  -5.6106523969379700e+10  -2.1226824556933990e+10  -1.6783064453411861e+10  2.9980940697289443e+09  1.6762358645527313e+10  -2.9917221229961758e+09  -4.2735863749509918e+10  -1.6104393006175958e+11  -1.6698153900865775e+11  1.8587207364880902e+11  4.5370112433576889e+10  -7.8716194066033051e+10  -1.1067367043146594e+11  -4.6931525137082382e+10  -2.3130877430230124e+11  -1.1567765115340523e+11  -1.4474285033517957e+11  -2.1705211648903348e+11  -1.2897581387238042e+11  9.8634674445430355e+09  -1.7590979997774817e+11  3.7288901981995155e+10  -2.3477726404632824e+10  -1.6945197049147800e+11  -1.4799796917697037e+11  2.1641282791522101e+11  -4.6864553089030200e+11  5.1784616985771161e+11  1.1977639029295958e+11  8.4197918871798401e+10  -1.2282607699602760e+11  -2.3862471319463174e+11  -1.4582093539157080e+11  -4.0130624341167328e+11  -1.2422415077125591e+11  5.5233520839905798e+11  -1.0211643006960537e+12  -7.1549464157562915e+11  -7.4557676810156107e+09  -