<?xml version="1.0"?>
<VTKFile type="UnstructuredGrid"  version="0.1"  >
<UnstructuredGrid>
<Piece  NumberOfPoints="1369" NumberOfCells="2560">
<Points>
<DataArray  type="Float64"  NumberOfComponents="3"  format="ascii">0 0 0  0.75 0 0  1.5 0 0  2.25 0 0  3 0 0  3.75 0 0  4.5 0 0  5.25 0 0  6 0 0  6.75 0 0  7.5 0 0  8.25 0 0  9 0 0  9.75 0 0  10.5 0 0  11.25 0 0  12 0 0  12.75 0 0  13.5 0 0  14.25 0 0  15 0 0  15.75 0 0  16.5 0 0  17.25 0 0  18 0 0  18.75 0 0  19.5 0 0  20.25 0 0  21 0 0  21.75 0 0  22.5 0 0  23.25 0 0  24 0 0  24.75 0 0  25.5 0 0  26.25 0 0  27 0 0  27.75 0 0  28.5 0 0  29.25 0 0  30 0 0  30.75 0 0  31.5 0 0  32.25 0 0  33 0 0  33.75 0 0  34.5 0 0  35.25 0 0  36 0 0  36.75 0 0  37.5 0 0  38.25 0 0  39 0 0  39.75 0 0  40.5 0 0  41.25 0 0  42 0 0  42.75 0 0  43.5 0 0  44.25 0 0  45 0 0  45.75 0 0  46.5 0 0  47.25 0 0  48 0 0  48.75 0 0  49.5 0 0  50.25 0 0  51 0 0  51.75 0 0  52.5 0 0  53.25 0 0  54 0 0  54.75 0 0  55.5 0 0  56.25 0 0  57 0 0  57.75 0 0  58.5 0 0  59.25 0 0  60 0 0  0 0.5 0  0.75 0.5 0  1.5 0.5 0  2.25 0.5 0  3 0.5 0  3.75 0.5 0  4.5 0.5 0  5.25 0.5 0  6 0.5 0  6.75 0.5 0  7.5 0.5 0  8.25 0.5 0  9 0.5 0  9.75 0.5 0  10.5 0.5 0  11.25 0.5 0  12 0.5 0  12.75 0.5 0  13.5 0.5 0  14.25 0.5 0  15 0.5 0  15.75 0.5 0  16.5 0.5 0  17.25 0.5 0  18 0.5 0  18.75 0.5 0  19.5 0.5 0  20.25 0.5 0  21 0.5 0  21.75 0.5 0  22.5 0.5 0  23.25 0.5 0  24 0.5 0  24.75 0.5 0  25.5 0.5 0  26.25 0.5 0  27 0.5 0  27.75 0.5 0  28.5 0.5 0  29.25 0.5 0  30 0.5 0  30.75 0.5 0  31.5 0.5 0  32.25 0.5 0  33 0.5 0  33.75 0.5 0  34.5 0.5 0  35.25 0.5 0  36 0.5 0  36.75 0.5 0  37.5 0.5 0  38.25 0.5 0  39 0.5 0  39.75 0.5 0  40.5 0.5 0  41.25 0.5 0  42 0.5 0  42.75 0.5 0  43.5 0.5 0  44.25 0.5 0  45 0.5 0  45.75 0.5 0  46.5 0.5 0  47.25 0.5 0  48 0.5 0  48.75 0.5 0  49.5 0.5 0  50.25 0.5 0  51 0.5 0  51.75 0.5 0  52.5 0.5 0  53.25 0.5 0  54 0.5 0  54.75 0.5 0  55.5 0.5 0  56.25 0.5 0  57 0.5 0  57.75 0.5 0  58.5 0.5 0  59.25 0.5 0  60 0.5 0  0 1 0  0.75 1 0  1.5 1 0  2.25 1 0  3 1 0  3.75 1 0  4.5 1 0  5.25 1 0  6 1 0  6.75 1 0  7.5 1 0  8.25 1 0  9 1 0  9.75 1 0  10.5 1 0  11.25 1 0  12 1 0  12.75 1 0  13.5 1 0  14.25 1 0  15 1 0  15.75 1 0  16.5 1 0  17.25 1 0  18 1 0  18.75 1 0  19.5 1 0  20.25 1 0  21 1 0  21.75 1 0  22.5 1 0  23.25 1 0  24 1 0  24.75 1 0  25.5 1 0  26.25 1 0  27 1 0  27.75 1 0  28.5 1 0  29.25 1 0  30 1 0  30.75 1 0  31.5 1 0  32.25 1 0  33 1 0  33.75 1 0  34.5 1 0  35.25 1 0  36 1 0  36.75 1 0  37.5 1 0  38.25 1 0  39 1 0  39.75 1 0  40.5 1 0  41.25 1 0  42 1 0  42.75 1 0  43.5 1 0  44.25 1 0  45 1 0  45.75 1 0  46.5 1 0  47.25 1 0  48 1 0  48.75 1 0  49.5 1 0  50.25 1 0  51 1 0  51.75 1 0  52.5 1 0  53.25 1 0  54 1 0  54.75 1 0  55.5 1 0  56.25 1 0  57 1 0  57.75 1 0  58.5 1 0  59.25 1 0  60 1 0  0 1.5 0  0.75 1.5 0  1.5 1.5 0  2.25 1.5 0  3 1.5 0  3.75 1.5 0  4.5 1.5 0  5.25 1.5 0  6 1.5 0  6.75 1.5 0  7.5 1.5 0  8.25 1.5 0  9 1.5 0  9.75 1.5 0  10.5 1.5 0  11.25 1.5 0  12 1.5 0  12.75 1.5 0  13.5 1.5 0  14.25 1.5 0  15 1.5 0  15.75 1.5 0  16.5 1.5 0  17.25 1.5 0  18 1.5 0  18.75 1.5 0  19.5 1.5 0  20.25 1.5 0  21 1.5 0  21.75 1.5 0  22.5 1.5 0  23.25 1.5 0  24 1.5 0  24.75 1.5 0  25.5 1.5 0  26.25 1.5 0  27 1.5 0  27.75 1.5 0  28.5 1.5 0  29.25 1.5 0  30 1.5 0  30.75 1.5 0  31.5 1.5 0  32.25 1.5 0  33 1.5 0  33.75 1.5 0  34.5 1.5 0  35.25 1.5 0  36 1.5 0  36.75 1.5 0  37.5 1.5 0  38.25 1.5 0  39 1.5 0  39.75 1.5 0  40.5 1.5 0  41.25 1.5 0  42 1.5 0  42.75 1.5 0  43.5 1.5 0  44.25 1.5 0  45 1.5 0  45.75 1.5 0  46.5 1.5 0  47.25 1.5 0  48 1.5 0  48.75 1.5 0  49.5 1.5 0  50.25 1.5 0  51 1.5 0  51.75 1.5 0  52.5 1.5 0  53.25 1.5 0  54 1.5 0  54.75 1.5 0  55.5 1.5 0  56.25 1.5 0  57 1.5 0  57.75 1.5 0  58.5 1.5 0  59.25 1.5 0  60 1.5 0  0 2 0  0.75 2 0  1.5 2 0  2.25 2 0  3 2 0  3.75 2 0  4.5 2 0  5.25 2 0  6 2 0  6.75 2 0  7.5 2 0  8.25 2 0  9 2 0  9.75 2 0  10.5 2 0  11.25 2 0  12 2 0  12.75 2 0  13.5 2 0  14.25 2 0  15 2 0  15.75 2 0  16.5 2 0  17.25 2 0  18 2 0  18.75 2 0  19.5 2 0  20.25 2 0  21 2 0  21.75 2 0  22.5 2 0  23.25 2 0  24 2 0  24.75 2 0  25.5 2 0  26.25 2 0  27 2 0  27.75 2 0  28.5 2 0  29.25 2 0  30 2 0  30.75 2 0  31.5 2 0  32.25 2 0  33 2 0  33.75 2 0  34.5 2 0  35.25 2 0  36 2 0  36.75 2 0  37.5 2 0  38.25 2 0  39 2 0  39.75 2 0  40.5 2 0  41.25 2 0  42 2 0  42.75 2 0  43.5 2 0  44.25 2 0  45 2 0  45.75 2 0  46.5 2 0  47.25 2 0  48 2 0  48.75 2 0  49.5 2 0  50.25 2 0  51 2 0  51.75 2 0  52.5 2 0  53.25 2 0  54 2 0  54.75 2 0  55.5 2 0  56.25 2 0  57 2 0  57.75 2 0  58.5 2 0  59.25 2 0  60 2 0  0 2.5 0  0.75 2.5 0  1.5 2.5 0  2.25 2.5 0  3 2.5 0  3.75 2.5 0  4.5 2.5 0  5.25 2.5 0  6 2.5 0  6.75 2.5 0  7.5 2.5 0  8.25 2.5 0  9 2.5 0  9.75 2.5 0  10.5 2.5 0  11.25 2.5 0  12 2.5 0  12.75 2.5 0  13.5 2.5 0  14.25 2.5 0  15 2.5 0  15.75 2.5 0  16.5 2.5 0  17.25 2.5 0  18 2.5 0  18.75 2.5 0  19.5 2.5 0  20.25 2.5 0  21 2.5 0  21.75 2.5 0  22.5 2.5 0  23.25 2.5 0  24 2.5 0  24.75 2.5 0  25.5 2.5 0  26.25 2.5 0  27 2.5 0  27.75 2.5 0  28.5 2.5 0  29.25 2.5 0  30 2.5 0  30.75 2.5 0  31.5 2.5 0  32.25 2.5 0  33 2.5 0  33.75 2.5 0  34.5 2.5 0  35.25 2.5 0  36 2.5 0  36.75 2.5 0  37.5 2.5 0  38.25 2.5 0  39 2.5 0  39.75 2.5 0  40.5 2.5 0  41.25 2.5 0  42 2.5 0  42.75 2.5 0  43.5 2.5 0  44.25 2.5 0  45 2.5 0  45.75 2.5 0  46.5 2.5 0  47.25 2.5 0  48 2.5 0  48.75 2.5 0  49.5 2.5 0  50.25 2.5 0  51 2.5 0  51.75 2.5 0  52.5 2.5 0  53.25 2.5 0  54 2.5 0  54.75 2.5 0  55.5 2.5 0  56.25 2.5 0  57 2.5 0  57.75 2.5 0  58.5 2.5 0  59.25 2.5 0  60 2.5 0  0 3 0  0.75 3 0  1.5 3 0  2.25 3 0  3 3 0  3.75 3 0  4.5 3 0  5.25 3 0  6 3 0  6.75 3 0  7.5 3 0  8.25 3 0  9 3 0  9.75 3 0  10.5 3 0  11.25 3 0  12 3 0  12.75 3 0  13.5 3 0  14.25 3 0  15 3 0  15.75 3 0  16.5 3 0  17.25 3 0  18 3 0  18.75 3 0  19.5 3 0  20.25 3 0  21 3 0  21.75 3 0  22.5 3 0  23.25 3 0  24 3 0  24.75 3 0  25.5 3 0  26.25 3 0  27 3 0  27.75 3 0  28.5 3 0  29.25 3 0  30 3 0  30.75 3 0  31.5 3 0  32.25 3 0  33 3 0  33.75 3 0  34.5 3 0  35.25 3 0  36 3 0  36.75 3 0  37.5 3 0  38.25 3 0  39 3 0  39.75 3 0  40.5 3 0  41.25 3 0  42 3 0  42.75 3 0  43.5 3 0  44.25 3 0  45 3 0  45.75 3 0  46.5 3 0  47.25 3 0  48 3 0  48.75 3 0  49.5 3 0  50.25 3 0  51 3 0  51.75 3 0  52.5 3 0  53.25 3 0  54 3 0  54.75 3 0  55.5 3 0  56.25 3 0  57 3 0  57.75 3 0  58.5 3 0  59.25 3 0  60 3 0  0 3.5 0  0.75 3.5 0  1.5 3.5 0  2.25 3.5 0  3 3.5 0  3.75 3.5 0  4.5 3.5 0  5.25 3.5 0  6 3.5 0  6.75 3.5 0  7.5 3.5 0  8.25 3.5 0  9 3.5 0  9.75 3.5 0  10.5 3.5 0  11.25 3.5 0  12 3.5 0  12.75 3.5 0  13.5 3.5 0  14.25 3.5 0  15 3.5 0  15.75 3.5 0  16.5 3.5 0  17.25 3.5 0  18 3.5 0  18.75 3.5 0  19.5 3.5 0  20.25 3.5 0  21 3.5 0  21.75 3.5 0  22.5 3.5 0  23.25 3.5 0  24 3.5 0  24.75 3.5 0  25.5 3.5 0  26.25 3.5 0  27 3.5 0  27.75 3.5 0  28.5 3.5 0  29.25 3.5 0  30 3.5 0  30.75 3.5 0  31.5 3.5 0  32.25 3.5 0  33 3.5 0  33.75 3.5 0  34.5 3.5 0  35.25 3.5 0  36 3.5 0  36.75 3.5 0  37.5 3.5 0  38.25 3.5 0  39 3.5 0  39.75 3.5 0  40.5 3.5 0  41.25 3.5 0  42 3.5 0  42.75 3.5 0  43.5 3.5 0  44.25 3.5 0  45 3.5 0  45.75 3.5 0  46.5 3.5 0  47.25 3.5 0  48 3.5 0  48.75 3.5 0  49.5 3.5 0  50.25 3.5 0  51 3.5 0  51.75 3.5 0  52.5 3.5 0  53.25 3.5 0  54 3.5 0  54.75 3.5 0  55.5 3.5 0  56.25 3.5 0  57 3.5 0  57.75 3.5 0  58.5 3.5 0  59.25 3.5 0  60 3.5 0  0 4 0  0.75 4 0  1.5 4 0  2.25 4 0  3 4 0  3.75 4 0  4.5 4 0  5.25 4 0  6 4 0  6.75 4 0  7.5 4 0  8.25 4 0  9 4 0  9.75 4 0  10.5 4 0  11.25 4 0  12 4 0  12.75 4 0  13.5 4 0  14.25 4 0  15 4 0  15.75 4 0  16.5 4 0  17.25 4 0  18 4 0  18.75 4 0  19.5 4 0  20.25 4 0  21 4 0  21.75 4 0  22.5 4 0  23.25 4 0  24 4 0  24.75 4 0  25.5 4 0  26.25 4 0  27 4 0  27.75 4 0  28.5 4 0  29.25 4 0  30 4 0  30.75 4 0  31.5 4 0  32.25 4 0  33 4 0  33.75 4 0  34.5 4 0  35.25 4 0  36 4 0  36.75 4 0  37.5 4 0  38.25 4 0  39 4 0  39.75 4 0  40.5 4 0  41.25 4 0  42 4 0  42.75 4 0  43.5 4 0  44.25 4 0  45 4 0  45.75 4 0  46.5 4 0  47.25 4 0  48 4 0  48.75 4 0  49.5 4 0  50.25 4 0  51 4 0  51.75 4 0  52.5 4 0  53.25 4 0  54 4 0  54.75 4 0  55.5 4 0  56.25 4 0  57 4 0  57.75 4 0  58.5 4 0  59.25 4 0  60 4 0  0.375 0.25 0  1.125 0.25 0  1.875 0.25 0  2.625 0.25 0  3.375 0.25 0  4.125 0.25 0  4.875 0.25 0  5.625 0.25 0  6.375 0.25 0  7.125 0.25 0  7.875 0.25 0  8.625 0.25 0  9.375 0.25 0  10.125 0.25 0  10.875 0.25 0  11.625 0.25 0  12.375 0.25 0  13.125 0.25 0  13.875 0.25 0  14.625 0.25 0  15.375 0.25 0  16.125 0.25 0  16.875 0.25 0  17.625 0.25 0  18.375 0.25 0  19.125 0.25 0  19.875 0.25 0  20.625 0.25 0  21.375 0.25 0  22.125 0.25 0  22.875 0.25 0  23.625 0.25 0  24.375 0.25 0  25.125 0.25 0  25.875 0.25 0  26.625 0.25 0  27.375 0.25 0  28.125 0.25 0  28.875 0.25 0  29.625 0.25 0  30.375 0.25 0  31.125 0.25 0  31.875 0.25 0  32.625 0.25 0  33.375 0.25 0  34.125 0.25 0  34.875 0.25 0  35.625 0.25 0  36.375 0.25 0  37.125 0.25 0  37.875 0.25 0  38.625 0.25 0  39.375 0.25 0  40.125 0.25 0  40.875 0.25 0  41.625 0.25 0  42.375 0.25 0  43.125 0.25 0  43.875 0.25 0  44.625 0.25 0  45.375 0.25 0  46.125 0.25 0  46.875 0.25 0  47.625 0.25 0  48.375 0.25 0  49.125 0.25 0  49.875 0.25 0  50.625 0.25 0  51.375 0.25 0  52.125 0.25 0  52.875 0.25 0  53.625 0.25 0  54.375 0.25 0  55.125 0.25 0  55.875 0.25 0  56.625 0.25 0  57.375 0.25 0  58.125 0.25 0  58.875 0.25 0  59.625 0.25 0  0.375 0.75 0  1.125 0.75 0  1.875 0.75 0  2.625 0.75 0  3.375 0.75 0  4.125 0.75 0  4.875 0.75 0  5.625 0.75 0  6.375 0.75 0  7.125 0.75 0  7.875 0.75 0  8.625 0.75 0  9.375 0.75 0  10.125 0.75 0  10.875 0.75 0  11.625 0.75 0  12.375 0.75 0  13.125 0.75 0  13.875 0.75 0  14.625 0.75 0  15.375 0.75 0  16.125 0.75 0  16.875 0.75 0  17.625 0.75 0  18.375 0.75 0  19.125 0.75 0  19.875 0.75 0  20.625 0.75 0  21.375 0.75 0  22.125 0.75 0  22.875 0.75 0  23.625 0.75 0  24.375 0.75 0  25.125 0.75 0  25.875 0.75 0  26.625 0.75 0  27.375 0.75 0  28.125 0.75 0  28.875 0.75 0  29.625 0.75 0  30.375 0.75 0  31.125 0.75 0  31.875 0.75 0  32.625 0.75 0  33.375 0.75 0  34.125 0.75 0  34.875 0.75 0  35.625 0.75 0  36.375 0.75 0  37.125 0.75 0  37.875 0.75 0  38.625 0.75 0  39.375 0.75 0  40.125 0.75 0  40
[...]
<PointData  Scalars="f_8-1"> 
<DataArray  type="Float64"  Name="f_8-1"  format="ascii">-1.2535775326265404e+09  4.4402186258827728e+10  -1.6577174412133781e+10  -1.1966164334485483e+10  2.0162094840419880e+10  1.8960547557651722e+10  8.8680105860891399e+09  2.9405787210769024e+10  -1.4887143855313380e+09  3.3311366314935001e+10  4.2007357854725052e+10  5.8118990169843874e+09  -1.5654861029019192e+10  1.8161648687675991e+10  2.2465533950602196e+10  -3.1975594719387085e+10  -7.0039530584878788e+09  -1.4008750692804173e+10  -1.3975812976675047e+10  2.5145063735539711e+10  -6.8911571137608099e+09  -2.2292837367535892e+10  1.1378522231889843e+10  -1.8764950117459278e+09  1.0727933133983405e+11  -7.8371612400388016e+10  6.2181257365281357e+10  -1.4464133158511749e+10  -3.0937413406905636e+10  -4.4952758854479202e+10  -3.8908637294705009e+10  -6.3764797656320801e+10  -5.5979360889147621e+10  -3.8161780990467979e+10  -2.8807593549495304e+10  2.6252874454707935e+10  5.0882368955233803e+10  -1.3024582420969566e+11  2.3697050138456913e+10  1.4026993863479797e+10  -5.2655770691100311e+10  2.8425851327295918e+10  2.2593526228080212e+10  2.3982839717841084e+10  1.5289546446670675e+10  -5.6743459974631147e+09  -4.1429786723236332e+09  1.0043610034692654e+11  -1.5854407507570591e+09  -3.4181747953914845e+10  -6.8913571606182419e+10  -7.4128561632847076e+10  -1.2785796329319065e+10  -1.9435499426356422e+10  -4.8598976226323357e+10  -1.0465502769323774e+10  -1.9765968127774174e+10  -3.2981235791074799e+10  -2.9439322617855785e+10  -6.9402970107336607e+09  8.1901347711486883e+09  2.6208838083385712e+10  -1.3714655831110690e+09  -2.7589924817572067e+10  1.7097726953030054e+10  7.1860572191951523e+09  -1.3553252483930769e+10  -8.4033985636662964e+10  -5.1004232834891678e+10  -2.6728885969265936e+11  -8.8523631638731796e+10  1.7834382885240780e+10  8.8434533939999712e+08  6.3214963315046410e+10  8.4805227039690308e+10  7.7016988350432220e+10  6.6236188439981178e+10  3.8687832076316269e+10  4.2379356391071442e+10  8.1673708548084351e+10  2.7057575272688225e+10  3.8585896107200341e+09  1.3168318132029634e+10  -6.8535927305196285e+09  -6.0719957211488380e+10  -2.2006049227689319e+09  2.2286538510051666e+10  3.7364592528210491e+08  3.2741316625202432e+09  8.8859374159085751e+08  5.2687221241409485e+10  1.9967897996040405e+10  2.3983220435305260e+10  5.4380549925536280e+09  1.5414844080597721e+10  2.8982457044963047e+10  -2.9047512160777813e+10  2.7264881127529764e+09  -3.0793769041249304e+09  -5.7999745850219688e+10  2.2302017725145202e+09  -8.5984916935641060e+09  -3.1989567864668056e+07  4.2911862317493868e+09  -5.0932360435948380e+10  2.6640819343665073e+10  1.4409372242046368e+10  1.4538652042640182e+11  4.2849206573909294e+10  -3.4513711170729233e+10  -5.8193172092886574e+10  -6.5085839584451080e+10  -6.0513135401556259e+10  -3.6355106598601974e+10  -2.3814542378845177e+10  -5.6148583305768433e+10  1.6829191079552858e+10  -3.6772442601073227e+10  -4.5503431424370125e+10  4.8697851750603882e+10  2.2335544756064182e+10  5.7876035557228279e+09  9.1386495503437748e+09  1.4515228555457621e+10  3.2615235202219776e+10  1.9828631658139275e+10  3.2867634898398430e+10  2.7964850624618046e+10  2.6303943540232101e+10  -2.2278234201993813e+10  -9.3342070269948959e+09  -3.4071748137334488e+10  -3.1574377115659069e+10  -3.9566271902271523e+10  -4.3070256787676369e+10  -3.3534245749989944e+10  -1.3802473940016718e+10  5.3348397345647020e+09  -4.8446952563997437e+10  -2.3548478753117676e+10  3.2012769132832542e+10  1.0231466195445320e+10  5.6423765196866402e+10  -1.1143965182867609e+10  -1.1384517979589739e+10  6.1890814173574390e+09  1.0760523535587627e+10  -2.9862008393107471e+09  -1.4001125978943459e+10  -6.0983137518197670e+10  -9.5905664288474319e+10  -7.2928707911346573e+10  1.6633644587730984e+10  -2.6794855993835121e+10  -8.9020971443572502e+09  4.0874236822735588e+10  -5.5928820251027031e+10  -5.4721597339802277e+08  4.0340784121922371e+10  5.3764860184646130e+09  2.1209145792227769e+09  -2.0496558216626595e+10  -2.9581037280040302e+09  1.6358016658445120e+10  -1.2006421317709311e+10  -2.8602595947206912e+09  -1.7692474283918251e+10  -2.0612470047460369e+10  3.2850293990336094e+09  -2.0207325115933650e+09  5.9502900381866179e+09  3.0741052633926460e+10  2.0615327678688400e+10  7.3946681192515049e+09  1.8670328268970833e+10  1.8351600957057781e+10  1.7838557728834736e+10  -1.5790231396749359e+10  5.0458898473818216e+09  1.2907838130719566e+10  3.7058660669341078e+09  -9.6713641187719021e+09  4.2667922849204414e+10  -1.7045607388933460e+10  -5.8028019117894653e+10  -7.6264436197865829e+09  1.6118600915708746e+10  5.4505395190328056e+10  4.8900784656260757e+10  2.6042423103326897e+10  4.3127364325982758e+10  2.1396210278386978e+10  -5.8904501459659149e+10  -4.7141191611024971e+10  -5.3266272621611397e+10  -1.5211620935080120e+10  3.5599408164506935e+10  -5.8308290361421097e+10  9.0769910303126659e+09  -2.5022157522673195e+10  -2.6170648729612572e+10  -1.7731546325893407e+09  -1.3788119068609257e+10  1.1408548321034210e+10  5.4223501711743898e+09  6.1317744537925011e+10  1.7829456636176125e+10  3.0831906173383343e+10  5.2184804713574203e+10  9.2957208284395828e+09  1.4151234130702627e+09  3.5729250819973969e+08  -2.9929700742486835e+10  -3.5129545773252312e+10  -2.9255052368221954e+10  -1.0651419401934404e+10  -2.1116158018474598e+10  -3.1329492943912640e+10  -1.3678530138349257e+09  -6.9673664740963333e+10  -2.5432247278559704e+10  -6.1203052756220093e+10  2.7301077763087574e+10  2.6808743202390541e+10  3.4568549665073296e+10  7.8161132796797085e+09  -7.6256280665518351e+09  1.1695243695604074e+10  -7.3376756740442781e+09  -1.5851589660699009e+10  -7.6935253226601410e+09  -6.3160805191561462e+10  -2.9989593954130394e+10  1.8489067302423801e+10  -3.0064370021400082e+10  -2.5065070923521553e+10  -1.1062272559422453e+10  -2.2330525705004124e+10  -3.5061566619496269e+10  5.4680555155777597e+08  1.9438609845428490e+10  2.2288642840598497e+09  -5.4443842175956726e+09  -1.1764355388853956e+10  -4.5937859738698053e+09  -1.0755622303691631e+10  1.3249731029108862e+10  -2.9045236342224922e+10  -3.2218713021068058e+09  -1.8890449372722221e+10  2.1460397084667246e+09  2.3627507733906006e+10  2.4756492761265137e+10  2.0979175936215057e+10  4.3433431250502481e+09  -1.9958171398982208e+10  1.4970810561714884e+10  2.5136518508073349e+10  -9.8795151381565113e+09  -3.0017783859402308e+09  -1.5382938889043362e+10  -9.3625999177050838e+09  2.0887474321410614e+10  2.2112839492536625e+10  2.1525509766435600e+10  -3.9450750574337273e+10  -2.6910703961438042e+10  1.0621348935861710e+10  5.7365348034494980e+10  4.5767339668512550e+10  -4.2566922039267303e+10  2.7345786660597755e+10  -3.4145527402141207e+08  6.3052036586221466e+09  -6.9588194114757736e+10  -9.3310321814606514e+09  -8.5370769310797815e+09  4.8343697212912636e+09  -3.6329485646176506e+10  -2.2699919277642746e+10  -4.7948102815474701e+10  7.0380949274933977e+09  1.8184857924321949e+10  -2.0505480112144039e+10  6.6832417662822838e+09  3.2080633473357246e+10  -1.4292025295397989e+10  2.6730093285761074e+10  2.8514411817294922e+10  6.6977383152351749e+08  4.4834790271800018e+10  -5.2441345852733772e+10  1.1244060974462351e+10  -4.1550580834648972e+10  -2.5196756514422646e+10  1.0508890107068466e+10  -1.5542787709789965e+10  -1.5120183383661369e+10  -1.4174882016436035e+10  3.8874566823402061e+10  -3.4939902046083862e+10  6.5643586557866564e+09  -3.8885594934585121e+10  2.4138674909526161e+10  1.8077327324439423e+10  2.0121674456727242e+10  6.7420837512654722e+08  2.3204926133806267e+09  -2.1311222140009571e+10  -3.0909494134297459e+10  -4.8956731819593887e+09  -3.4544891606475098e+10  -5.5786150684691406e+10  -4.7603861459215309e+10  1.0519428078987452e+10  -1.6910262196101141e+10  -1.6692578904682106e+10  -1.3993315692005663e+10  -2.4059180342821133e+10  -1.3930982928649521e+10  -1.0100996887174715e+10  1.6023589293731468e+10  1.1763134354522844e+10  -5.6220926241822672e+09  5.5865183137423582e+09  -1.6430914123874912e+10  -1.9834834875019741e+10  -2.8828512518509296e+10  3.4359725456979256e+09  2.8805117065376957e+10  -4.7951911595015758e+08  2.6239744550484451e+10  1.3837602097819960e+10  2.4228423525317234e+10  1.2119143212717953e+10  -3.0412815931974692e+09  1.1333158550308483e+10  -7.1476326172216606e+09  1.3219103970504038e+10  -2.6831854552720385e+09  3.1489002968632118e+10  -3.9253496345822571e+10  1.9965432092766499e+10  -8.0921507970051785e+09  2.0582519551059193e+10  -6.8718126216364365e+09  -1.1010983084017522e+09  -3.4494462147395721e+10  -4.8590211472012634e+09  1.7066506754584031e+09  3.4037878645081940e+10  2.2642498402335575e+10  2.3965772756434635e+10  4.6531183950867319e+09  6.4322353916836227e+10  -8.6582713612126862e+10  -2.4866131562586632e+10  -4.9385307104250133e+08  -3.5505404534060257e+10  -5.8246829270849136e+10  2.8134130508019451e+10  -3.0117159659177425e+10  2.4813206601308506e+10  -2.0750511766355968e+10  2.8002164541032890e+10  -3.3464502845462265e+09  1.1073347459258469e+10  1.0963144105230526e+10  2.1280122047271561e+10  2.5057213951493977e+10  -1.5340598056137873e+10  3.8778144931701668e+10  -1.8980040024227337e+10  -2.9045284750844646e+10  1.3824107059628677e+10  -3.3839097216407317e+08  2.1816349387958965e+10  -1.8586579552967396e+10  -2.0156261831846069e+10  -2.1302958389050369e+10  2.3088922076354361e+09  -5.2535201339958172e+09  -3.7101483822392738e+10  -1.0346733994361279e+10  -3.9795170794599487e+10  -9.6121977711460819e+09  3.0547013242546021e+10  1.6455185656150099e+10  2.6599447907746949e+09  6.2746320307789116e+09  -7.2063417730124979e+09  -5.8213643288823685e+10  -3.4903411499976662e+10  -6.3232145674088608e+10  -1.5351989735323021e+10  -2.1922673560546310e+10  1.2440761646408123e+10  -2.7493545599278202e+09  2.6314341030409055e+09  -2.6813491270911636e+10  -2.6134088616570072e+10  -3.1905012678146736e+10  2.2794933948294907e+10  1.2132492407329838e+10  2.6367039393602576e+09  2.3752801570653734e+09  2.8952917662697344e+09  4.0175163243410268e+09  9.4069675300387764e+09  7.7477442262375898e+09  -2.4720156691272255e+10  1.9394598585149586e+10  6.8091682905447328e+08  6.1483591158435516e+09  1.5518043962938526e+10  6.0088240212742844e+09  -3.2817531982880951e+10  -2.3573718047870564e+10  8.3219332908825226e+09  -3.3286336510655125e+10  -3.3477329177260823e+09  -9.2234623238501320e+09  -9.6633327530031036e+10  8.8670484758780804e+09  5.3082107172053375e+10  3.4640361004955482e+10  -9.7846693077070582e+08  -1.4430686209493727e+10  -4.1082703761237597e+08  2.8483971081252472e+10  -8.5741184125078363e+09  3.3357561416625090e+09  1.3949371789403242e+10  1.4861449328221153e+10  -1.9925472532515083e+10  -1.2935015801322750e+10  -9.6870346678213394e+10  -3.4993567040500404e+10  -6.9008807859564362e+09  -2.2228935332697899e+10  7.5116071347176453e+10  -9.7380503309393864e+09  2.6550118872602631e+10  -2.2312059287143185e+10  9.9144756213000274e+08  6.1576882392328298e+08  -1.4573990556162710e+10  -1.2953459260988712e+10  1.4605725517202076e+10  3.2073891274855869e+10  2.8526180722235584e+10  -5.5457171875715303e+08  1.1083643753925846e+10  -2.2433538565952053e+10  5.4647343100300341e+09  -8.2530227292868004e+09  -1.2509311801263645e+09  -1.0904024359268204e+10  2.2776150615263596e+10  9.6531434176274681e+08  -1.7310779495323757e+10  1.5807097940494104e+10  -2.3785369549614880e+10  -8.1148585757011156e+09  -1.9160685685093235e+10  -1.3177098834392857e+10  1.5044730579832541e+10  4.0564198390041939e+10  -1.2642237006408785e+10  -6.8084223700666472e+07  5.8212252178578396e+09  -2.4391241455935768e+10  -3.5927838031230568e+10  -5.6848396010132027e+10  -8.4740046715125237e+09  -4.8124286620657166e+10  -1.4871376210781290e+10  -3.8594970135904794e+09  -8.9522367614564304e+09  -7.9269871275712738e+09  -2.7237447129492264e+10  -4.5030300847743874e+09  9.7055175671154461e+09  -2.9824659399126401e+09  2.2786296512359985e+10  -1.9106706439050350e+08  6.0740425446337700e+09  1.2853112053556250e+10  -6.3981725804907007e+09  1.3779490607646132e+10  7.8580997271465158e+09  8.2496954801395864e+09  3.2322750513539153e+08  3.8595963754781356e+09  1.2464303206635971e+10  2.9475119659650083e+09  6.9842748412347698e+09  -1.6004993343165674e+10  -9.0919578280969000e+08  -9.7363209422128239e+09  -5.8245668819475155e+09  -4.9656691865466928e+09  -3.1955841760161652e+10  -1.3338637816290037e+10  8.2218776401078355e+08  5.9292553142856026e+09  -1.7981078134039852e+10  4.5687275811227179e+08  2.0591321246570515e+10  2.2365140786689229e+09  -9.1811219442836971e+09  1.1857858744983358e+10  -1.2768514173300035e+10  3.8417460669697136e+10  -1.9645672768613636e+10  2.9051087944714886e+10  2.4549289905599682e+10  3.6651702824934840e+09  1.7502906498166313e+10  1.5032574508460667e+10  -9.1413053370834778e+10  5.4657934326677025e+10  -5.4660107635237648e+10  -2.9394560059960392e+10  -1.1023145017531155e+11  4.9823475891716049e+10  3.3381564759751499e+10  1.3427229862874151e+10  -6.7655305277590024e+08  -9.0024835913466091e+09  3.3372743974271519e+10  1.4125319320926015e+09  1.3152352479181326e+10  1.9006015826985688e+09  9.9691165514512768e+09  9.4039138787027702e+09  -1.3155354346313416e+10  -1.1999383061021282e+10  -2.2506852488764969e+10  1.5167673742228167e+10  -2.0837445466517590e+10  6.2427755870204468e+09  6.4798522900875177e+09  -1.0149625083568153e+10  -3.2537056733470718e+10  2.6456998803614254e+10  4.5779212293141685e+10  -1.9648412087578177e+08  -2.4750533012917099e+10  2.1987023871848732e+10  5.2829722843545609e+09  -4.5733854157406372e+10  -2.5787855570025070e+10  -2.3413503661151928e+10  -5.8819187928467033e+10  -2.0441091978521305e+10  -5.9060892985772034e+10  -6.5851315138877052e+10  1.3810602326421132e+09  -9.9227917721697350e+09  -1.7248530021120945e+10  -3.3055336629572815e+10  -1.6065190539637544e+09  2.7394279461590992e+10  3.5834537369350410e+10  3.3391490906833920e+10  -1.7259177182753452e+10  -1.6392924314135809e+10  -1.4779803067036972e+10  -1.5283324828770979e+10  1.9576187521044163e+10  6.9194169293296137e+09  8.6327820160083046e+09  4.4839212717917624e+09  1.6086840772868248e+10  2.1576639437355152e+10  1.6347449570956656e+10  1.9422203753021305e+10  -6.9780334520737181e+09  1.5426473701280506e+10  -1.9047675399289654e+10  3.3000587204306340e+09  -1.0126178100458700e+10  9.7193796183686981e+09  -2.9981890134841142e+09  -6.6694755846861391e+09  -3.4665734337965426e+09  -8.7096295178926125e+09  -3.0008271667016331e+10  4.2060424003907455e+10  5.6123527301722656e+10  -2.7136039379551249e+09  -1.2229560813301323e+10  2.0705832013030941e+10  -4.7535596358781767e+09  1.6991776424701511e+10  -5.2690727969348396e+10  4.0934938762251770e+10  -2.5977527047605072e+10  5.9677992337656464e+10  -9.5345916329465164e+10  2.7770176817646637e+10  9.4296508570575256e+09  -2.4280622967621160e+09  -5.8972750848782509e+10  -9.7204220606852402e+10  3.6142722083505096e+10  -1.2366397148699917e+10  5.3053745716236588e+10  4.6335384268733566e+10  3.0536721863035866e+10  3.2293091328645205e+09  -2.3805219175285482e+09  -1.1080811598107843e+09  1.1945464722343031e+10  1.7165649152347971e+10  -4.2475332600934978e+09  2.7825263623433281e+10  -7.7032709599875212e+08  -2.9068178889721558e+10  -8.5252747134947786e+09  3.4355157125626264e+09  2.1495100155832088e+10  6.8960920826145306e+09  -1.6197284341949270e+10  -1.6845420812768890e+10  -5.6629526047225266e+10  -7.3029547426303329e+09  8.1051917538671005e+10  -3.6526670842782738e+10  4.0382808387263550e+10  3.0325074114712406e+10  -2.3292062770505688e+10  -2.4918815133598785e+10  -3.0975309771438259e+10  -1.5912850128703638e+10  3.4317680117523846e+10  -7.8036160772641953e+10  -2.2643655465927967e+10  5.2943937697951996e+10  -2.4416945453504949e+09  -3.3369830194635090e+10  -1.2892700370805817e+10  -4.3629488765934494e+10  2.5921533095885929e+10  -5.2094433622230141e+10  -2.3767077389929171e+09  -2.4480364113276562e+10  -2.7099384981282430e+09  -7.4220851898881807e+09  -7.4126462532648315e+09  -1.1441219851635590e+10  1.6560101506833422e+10  -1.9269768893078938e+10  1.2717593455032442e+10  -2.5077773228375230e+09  1.1147572222468231e+10  1.9516241135333529e+09  4.5176894206180696e+09  -8.8115208171581101e+08  -3.9764634997786717e+09  7.0370656519650259e+09  -2.0190569508238802e+09  -5.2848331473386326e+09  -5.6111355879629974e+09  1.6658478201701395e+10  -6.8139158577321205e+09  -1.6113570425969393e+10  9.8878835983593917e+08  3.3149688618999076e+09  -8.2641715297463150e+09  1.9161722425986359e+10  -3.9692118644433308e+09  8.6331634296297684e+09  -7.0182889102734489e+09  1.4168411495571409e+10  -2.9726188074913378e+09  1.4033923143690972e+09  2.2394004853938904e+10  1.2176254981186964e+10  -1.3581039206535812e+10  2.6973727774022797e+10  1.4861628202144690e+10  -1.1118035472340254e+10  -2.2839510291091953e+10  3.0568637485703664e+09  1.7008334906890663e+10  -4.2721406468935394e+10  1.5711841946801081e+10  -9.8716919580501785e+09  -4.4989254799426098e+09  -4.1549715477184639e+09  -3.5648529850674444e+08  -8.4324690564594860e+09  -6.0464777083226910e+09  -4.1827341332489204e+09  3.6449006916354551e+09  8.6805442014045277e+09  3.9977801312159867e+09  -1.0389982218112333e+10  -1.0554791443268278e+10  1.0432334751715269e+10  -2.0485577895805469e+09  2.7230586361748276e+09  3.1170099215441260e+09  -1.4346079726368856e+10  -6.0149040573858500e+09  -1.3654114395222385e+10  7.9656797799609509e+09  -5.8370206883703499e+09  -2.4688032618733761e+10  -1.1426911615246556e+09  -7.8247004705255985e+09  6.3361007553518991e+09  -5.3374313130421963e+09  1.9934619668255253e+10  -1.0304107697667789e+10  -4.8295465312289143e+09  -2.7410771985993164e+10  3.7041204924068909e+10  -2.1548273081276768e+10  -6.7192294008798635e+08  -8.2018875583535290e+09  1.1997261147859583e+10  9.1036207837773933e+09  -3.2035985796427639e+10  2.0563314611009869e+10  -3.1295408457711380e+10  4.5335249048730354e+10  7.6379368402483044e+09  1.3706108303284046e+10  6.4664633925911341e+09  2.3392131404840994e+09  -1.0275412777878454e+10  2.2652031753226303e+10  1.0349094359967958e+10  1.3503084133578534e+09  2.0621800912443974e+10  6.1286448180331932e+10  3.6990207994130630e+10  1.6827578823849239e+10  -1.1439309897686424e+10  2.2636608160627468e+10  -9.9736191443196144e+09  -1.5858790539947590e+10  1.6240573884201360e+09  -3.1885736023138901e+10  -3.5376194690251889e+09  -3.0065576572820232e+10  -7.6236250585419378e+09  4.8603600760695984e+10  5.2216427107593870e+09  -3.4207567022644444e+10  5.3262536108554665e+10  1.1965869896876367e+11  2.1956626112644695e+10  -3.7717025527052750e+10  -1.0478324638257048e+11  -6.6356224505729050e+10  -5.4483805310458237e+10  -6.3521490876247284e+10  -2.3984070117097179e+10  -3.7163052709292197e+09  1.7400556755002140e+10  5.0384989186652687e+10  -1.1142733729437887e+10  4.4946160840617973e+10  1.2789571819314213e+10  6.3983135684357519e+09  4.7602449214236027e+08  3.3823868874454697e+10  2.5808594220559158e+10  2.6110932127556267e+10  -3.3617127688046780e+09  4.4806735348079348e+08  -3.8344155344251986e+09  -1.0778961928511368e+11  -7.6629107486584063e+09  -3.0979908024858463e+10  -4.7589149522432205e+10  -4.4521496477816219e+09  -4.6304008080626656e+10  -2.3219662732092602e+10  -2.7634462078093102e+10  -1.9762255303764942e+10  -7.5000592649074081e+10  -6.3054902371358633e+09  -3.7507794099984627e+10  -3.0777974589328194e+09  1.9766255370357224e+10  2.1828681779131355e+10  8.4063739111677370e+09  -1.0325942939537626e+10  -6.1337705355277672e+09  1.0313993696455711e+10  2.6691788094756310e+10  -1.2646820129722720e+11  -3.4172000145302021e+10  -1.5838252256608414e+11  -3.7322563110259262e+10  3.1464263540293129e+10  3.6251661744591827e+10  1.5560447518998371e+10  -3.7525087284564953e+09  7.6877420706136078e+10  -1.1472013198910193e+09  -6.4130333160132454e+10  5.4416542969222122e+10  2.2581661481955959e+10  5.7015428133987970e+09  2.2899719059069295e+09  -7.9186639313928394