<?xml version="1.0"?>
<VTKFile type="UnstructuredGrid"  version="0.1"  >
<UnstructuredGrid>
<Piece  NumberOfPoints="1369" NumberOfCells="2560">
<Points>
<DataArray  type="Float64"  NumberOfComponents="3"  format="ascii">0 0 0  0.75 0 0  1.5 0 0  2.25 0 0  3 0 0  3.75 0 0  4.5 0 0  5.25 0 0  6 0 0  6.75 0 0  7.5 0 0  8.25 0 0  9 0 0  9.75 0 0  10.5 0 0  11.25 0 0  12 0 0  12.75 0 0  13.5 0 0  14.25 0 0  15 0 0  15.75 0 0  16.5 0 0  17.25 0 0  18 0 0  18.75 0 0  19.5 0 0  20.25 0 0  21 0 0  21.75 0 0  22.5 0 0  23.25 0 0  24 0 0  24.75 0 0  25.5 0 0  26.25 0 0  27 0 0  27.75 0 0  28.5 0 0  29.25 0 0  30 0 0  30.75 0 0  31.5 0 0  32.25 0 0  33 0 0  33.75 0 0  34.5 0 0  35.25 0 0  36 0 0  36.75 0 0  37.5 0 0  38.25 0 0  39 0 0  39.75 0 0  40.5 0 0  41.25 0 0  42 0 0  42.75 0 0  43.5 0 0  44.25 0 0  45 0 0  45.75 0 0  46.5 0 0  47.25 0 0  48 0 0  48.75 0 0  49.5 0 0  50.25 0 0  51 0 0  51.75 0 0  52.5 0 0  53.25 0 0  54 0 0  54.75 0 0  55.5 0 0  56.25 0 0  57 0 0  57.75 0 0  58.5 0 0  59.25 0 0  60 0 0  0 0.5 0  0.75 0.5 0  1.5 0.5 0  2.25 0.5 0  3 0.5 0  3.75 0.5 0  4.5 0.5 0  5.25 0.5 0  6 0.5 0  6.75 0.5 0  7.5 0.5 0  8.25 0.5 0  9 0.5 0  9.75 0.5 0  10.5 0.5 0  11.25 0.5 0  12 0.5 0  12.75 0.5 0  13.5 0.5 0  14.25 0.5 0  15 0.5 0  15.75 0.5 0  16.5 0.5 0  17.25 0.5 0  18 0.5 0  18.75 0.5 0  19.5 0.5 0  20.25 0.5 0  21 0.5 0  21.75 0.5 0  22.5 0.5 0  23.25 0.5 0  24 0.5 0  24.75 0.5 0  25.5 0.5 0  26.25 0.5 0  27 0.5 0  27.75 0.5 0  28.5 0.5 0  29.25 0.5 0  30 0.5 0  30.75 0.5 0  31.5 0.5 0  32.25 0.5 0  33 0.5 0  33.75 0.5 0  34.5 0.5 0  35.25 0.5 0  36 0.5 0  36.75 0.5 0  37.5 0.5 0  38.25 0.5 0  39 0.5 0  39.75 0.5 0  40.5 0.5 0  41.25 0.5 0  42 0.5 0  42.75 0.5 0  43.5 0.5 0  44.25 0.5 0  45 0.5 0  45.75 0.5 0  46.5 0.5 0  47.25 0.5 0  48 0.5 0  48.75 0.5 0  49.5 0.5 0  50.25 0.5 0  51 0.5 0  51.75 0.5 0  52.5 0.5 0  53.25 0.5 0  54 0.5 0  54.75 0.5 0  55.5 0.5 0  56.25 0.5 0  57 0.5 0  57.75 0.5 0  58.5 0.5 0  59.25 0.5 0  60 0.5 0  0 1 0  0.75 1 0  1.5 1 0  2.25 1 0  3 1 0  3.75 1 0  4.5 1 0  5.25 1 0  6 1 0  6.75 1 0  7.5 1 0  8.25 1 0  9 1 0  9.75 1 0  10.5 1 0  11.25 1 0  12 1 0  12.75 1 0  13.5 1 0  14.25 1 0  15 1 0  15.75 1 0  16.5 1 0  17.25 1 0  18 1 0  18.75 1 0  19.5 1 0  20.25 1 0  21 1 0  21.75 1 0  22.5 1 0  23.25 1 0  24 1 0  24.75 1 0  25.5 1 0  26.25 1 0  27 1 0  27.75 1 0  28.5 1 0  29.25 1 0  30 1 0  30.75 1 0  31.5 1 0  32.25 1 0  33 1 0  33.75 1 0  34.5 1 0  35.25 1 0  36 1 0  36.75 1 0  37.5 1 0  38.25 1 0  39 1 0  39.75 1 0  40.5 1 0  41.25 1 0  42 1 0  42.75 1 0  43.5 1 0  44.25 1 0  45 1 0  45.75 1 0  46.5 1 0  47.25 1 0  48 1 0  48.75 1 0  49.5 1 0  50.25 1 0  51 1 0  51.75 1 0  52.5 1 0  53.25 1 0  54 1 0  54.75 1 0  55.5 1 0  56.25 1 0  57 1 0  57.75 1 0  58.5 1 0  59.25 1 0  60 1 0  0 1.5 0  0.75 1.5 0  1.5 1.5 0  2.25 1.5 0  3 1.5 0  3.75 1.5 0  4.5 1.5 0  5.25 1.5 0  6 1.5 0  6.75 1.5 0  7.5 1.5 0  8.25 1.5 0  9 1.5 0  9.75 1.5 0  10.5 1.5 0  11.25 1.5 0  12 1.5 0  12.75 1.5 0  13.5 1.5 0  14.25 1.5 0  15 1.5 0  15.75 1.5 0  16.5 1.5 0  17.25 1.5 0  18 1.5 0  18.75 1.5 0  19.5 1.5 0  20.25 1.5 0  21 1.5 0  21.75 1.5 0  22.5 1.5 0  23.25 1.5 0  24 1.5 0  24.75 1.5 0  25.5 1.5 0  26.25 1.5 0  27 1.5 0  27.75 1.5 0  28.5 1.5 0  29.25 1.5 0  30 1.5 0  30.75 1.5 0  31.5 1.5 0  32.25 1.5 0  33 1.5 0  33.75 1.5 0  34.5 1.5 0  35.25 1.5 0  36 1.5 0  36.75 1.5 0  37.5 1.5 0  38.25 1.5 0  39 1.5 0  39.75 1.5 0  40.5 1.5 0  41.25 1.5 0  42 1.5 0  42.75 1.5 0  43.5 1.5 0  44.25 1.5 0  45 1.5 0  45.75 1.5 0  46.5 1.5 0  47.25 1.5 0  48 1.5 0  48.75 1.5 0  49.5 1.5 0  50.25 1.5 0  51 1.5 0  51.75 1.5 0  52.5 1.5 0  53.25 1.5 0  54 1.5 0  54.75 1.5 0  55.5 1.5 0  56.25 1.5 0  57 1.5 0  57.75 1.5 0  58.5 1.5 0  59.25 1.5 0  60 1.5 0  0 2 0  0.75 2 0  1.5 2 0  2.25 2 0  3 2 0  3.75 2 0  4.5 2 0  5.25 2 0  6 2 0  6.75 2 0  7.5 2 0  8.25 2 0  9 2 0  9.75 2 0  10.5 2 0  11.25 2 0  12 2 0  12.75 2 0  13.5 2 0  14.25 2 0  15 2 0  15.75 2 0  16.5 2 0  17.25 2 0  18 2 0  18.75 2 0  19.5 2 0  20.25 2 0  21 2 0  21.75 2 0  22.5 2 0  23.25 2 0  24 2 0  24.75 2 0  25.5 2 0  26.25 2 0  27 2 0  27.75 2 0  28.5 2 0  29.25 2 0  30 2 0  30.75 2 0  31.5 2 0  32.25 2 0  33 2 0  33.75 2 0  34.5 2 0  35.25 2 0  36 2 0  36.75 2 0  37.5 2 0  38.25 2 0  39 2 0  39.75 2 0  40.5 2 0  41.25 2 0  42 2 0  42.75 2 0  43.5 2 0  44.25 2 0  45 2 0  45.75 2 0  46.5 2 0  47.25 2 0  48 2 0  48.75 2 0  49.5 2 0  50.25 2 0  51 2 0  51.75 2 0  52.5 2 0  53.25 2 0  54 2 0  54.75 2 0  55.5 2 0  56.25 2 0  57 2 0  57.75 2 0  58.5 2 0  59.25 2 0  60 2 0  0 2.5 0  0.75 2.5 0  1.5 2.5 0  2.25 2.5 0  3 2.5 0  3.75 2.5 0  4.5 2.5 0  5.25 2.5 0  6 2.5 0  6.75 2.5 0  7.5 2.5 0  8.25 2.5 0  9 2.5 0  9.75 2.5 0  10.5 2.5 0  11.25 2.5 0  12 2.5 0  12.75 2.5 0  13.5 2.5 0  14.25 2.5 0  15 2.5 0  15.75 2.5 0  16.5 2.5 0  17.25 2.5 0  18 2.5 0  18.75 2.5 0  19.5 2.5 0  20.25 2.5 0  21 2.5 0  21.75 2.5 0  22.5 2.5 0  23.25 2.5 0  24 2.5 0  24.75 2.5 0  25.5 2.5 0  26.25 2.5 0  27 2.5 0  27.75 2.5 0  28.5 2.5 0  29.25 2.5 0  30 2.5 0  30.75 2.5 0  31.5 2.5 0  32.25 2.5 0  33 2.5 0  33.75 2.5 0  34.5 2.5 0  35.25 2.5 0  36 2.5 0  36.75 2.5 0  37.5 2.5 0  38.25 2.5 0  39 2.5 0  39.75 2.5 0  40.5 2.5 0  41.25 2.5 0  42 2.5 0  42.75 2.5 0  43.5 2.5 0  44.25 2.5 0  45 2.5 0  45.75 2.5 0  46.5 2.5 0  47.25 2.5 0  48 2.5 0  48.75 2.5 0  49.5 2.5 0  50.25 2.5 0  51 2.5 0  51.75 2.5 0  52.5 2.5 0  53.25 2.5 0  54 2.5 0  54.75 2.5 0  55.5 2.5 0  56.25 2.5 0  57 2.5 0  57.75 2.5 0  58.5 2.5 0  59.25 2.5 0  60 2.5 0  0 3 0  0.75 3 0  1.5 3 0  2.25 3 0  3 3 0  3.75 3 0  4.5 3 0  5.25 3 0  6 3 0  6.75 3 0  7.5 3 0  8.25 3 0  9 3 0  9.75 3 0  10.5 3 0  11.25 3 0  12 3 0  12.75 3 0  13.5 3 0  14.25 3 0  15 3 0  15.75 3 0  16.5 3 0  17.25 3 0  18 3 0  18.75 3 0  19.5 3 0  20.25 3 0  21 3 0  21.75 3 0  22.5 3 0  23.25 3 0  24 3 0  24.75 3 0  25.5 3 0  26.25 3 0  27 3 0  27.75 3 0  28.5 3 0  29.25 3 0  30 3 0  30.75 3 0  31.5 3 0  32.25 3 0  33 3 0  33.75 3 0  34.5 3 0  35.25 3 0  36 3 0  36.75 3 0  37.5 3 0  38.25 3 0  39 3 0  39.75 3 0  40.5 3 0  41.25 3 0  42 3 0  42.75 3 0  43.5 3 0  44.25 3 0  45 3 0  45.75 3 0  46.5 3 0  47.25 3 0  48 3 0  48.75 3 0  49.5 3 0  50.25 3 0  51 3 0  51.75 3 0  52.5 3 0  53.25 3 0  54 3 0  54.75 3 0  55.5 3 0  56.25 3 0  57 3 0  57.75 3 0  58.5 3 0  59.25 3 0  60 3 0  0 3.5 0  0.75 3.5 0  1.5 3.5 0  2.25 3.5 0  3 3.5 0  3.75 3.5 0  4.5 3.5 0  5.25 3.5 0  6 3.5 0  6.75 3.5 0  7.5 3.5 0  8.25 3.5 0  9 3.5 0  9.75 3.5 0  10.5 3.5 0  11.25 3.5 0  12 3.5 0  12.75 3.5 0  13.5 3.5 0  14.25 3.5 0  15 3.5 0  15.75 3.5 0  16.5 3.5 0  17.25 3.5 0  18 3.5 0  18.75 3.5 0  19.5 3.5 0  20.25 3.5 0  21 3.5 0  21.75 3.5 0  22.5 3.5 0  23.25 3.5 0  24 3.5 0  24.75 3.5 0  25.5 3.5 0  26.25 3.5 0  27 3.5 0  27.75 3.5 0  28.5 3.5 0  29.25 3.5 0  30 3.5 0  30.75 3.5 0  31.5 3.5 0  32.25 3.5 0  33 3.5 0  33.75 3.5 0  34.5 3.5 0  35.25 3.5 0  36 3.5 0  36.75 3.5 0  37.5 3.5 0  38.25 3.5 0  39 3.5 0  39.75 3.5 0  40.5 3.5 0  41.25 3.5 0  42 3.5 0  42.75 3.5 0  43.5 3.5 0  44.25 3.5 0  45 3.5 0  45.75 3.5 0  46.5 3.5 0  47.25 3.5 0  48 3.5 0  48.75 3.5 0  49.5 3.5 0  50.25 3.5 0  51 3.5 0  51.75 3.5 0  52.5 3.5 0  53.25 3.5 0  54 3.5 0  54.75 3.5 0  55.5 3.5 0  56.25 3.5 0  57 3.5 0  57.75 3.5 0  58.5 3.5 0  59.25 3.5 0  60 3.5 0  0 4 0  0.75 4 0  1.5 4 0  2.25 4 0  3 4 0  3.75 4 0  4.5 4 0  5.25 4 0  6 4 0  6.75 4 0  7.5 4 0  8.25 4 0  9 4 0  9.75 4 0  10.5 4 0  11.25 4 0  12 4 0  12.75 4 0  13.5 4 0  14.25 4 0  15 4 0  15.75 4 0  16.5 4 0  17.25 4 0  18 4 0  18.75 4 0  19.5 4 0  20.25 4 0  21 4 0  21.75 4 0  22.5 4 0  23.25 4 0  24 4 0  24.75 4 0  25.5 4 0  26.25 4 0  27 4 0  27.75 4 0  28.5 4 0  29.25 4 0  30 4 0  30.75 4 0  31.5 4 0  32.25 4 0  33 4 0  33.75 4 0  34.5 4 0  35.25 4 0  36 4 0  36.75 4 0  37.5 4 0  38.25 4 0  39 4 0  39.75 4 0  40.5 4 0  41.25 4 0  42 4 0  42.75 4 0  43.5 4 0  44.25 4 0  45 4 0  45.75 4 0  46.5 4 0  47.25 4 0  48 4 0  48.75 4 0  49.5 4 0  50.25 4 0  51 4 0  51.75 4 0  52.5 4 0  53.25 4 0  54 4 0  54.75 4 0  55.5 4 0  56.25 4 0  57 4 0  57.75 4 0  58.5 4 0  59.25 4 0  60 4 0  0.375 0.25 0  1.125 0.25 0  1.875 0.25 0  2.625 0.25 0  3.375 0.25 0  4.125 0.25 0  4.875 0.25 0  5.625 0.25 0  6.375 0.25 0  7.125 0.25 0  7.875 0.25 0  8.625 0.25 0  9.375 0.25 0  10.125 0.25 0  10.875 0.25 0  11.625 0.25 0  12.375 0.25 0  13.125 0.25 0  13.875 0.25 0  14.625 0.25 0  15.375 0.25 0  16.125 0.25 0  16.875 0.25 0  17.625 0.25 0  18.375 0.25 0  19.125 0.25 0  19.875 0.25 0  20.625 0.25 0  21.375 0.25 0  22.125 0.25 0  22.875 0.25 0  23.625 0.25 0  24.375 0.25 0  25.125 0.25 0  25.875 0.25 0  26.625 0.25 0  27.375 0.25 0  28.125 0.25 0  28.875 0.25 0  29.625 0.25 0  30.375 0.25 0  31.125 0.25 0  31.875 0.25 0  32.625 0.25 0  33.375 0.25 0  34.125 0.25 0  34.875 0.25 0  35.625 0.25 0  36.375 0.25 0  37.125 0.25 0  37.875 0.25 0  38.625 0.25 0  39.375 0.25 0  40.125 0.25 0  40.875 0.25 0  41.625 0.25 0  42.375 0.25 0  43.125 0.25 0  43.875 0.25 0  44.625 0.25 0  45.375 0.25 0  46.125 0.25 0  46.875 0.25 0  47.625 0.25 0  48.375 0.25 0  49.125 0.25 0  49.875 0.25 0  50.625 0.25 0  51.375 0.25 0  52.125 0.25 0  52.875 0.25 0  53.625 0.25 0  54.375 0.25 0  55.125 0.25 0  55.875 0.25 0  56.625 0.25 0  57.375 0.25 0  58.125 0.25 0  58.875 0.25 0  59.625 0.25 0  0.375 0.75 0  1.125 0.75 0  1.875 0.75 0  2.625 0.75 0  3.375 0.75 0  4.125 0.75 0  4.875 0.75 0  5.625 0.75 0  6.375 0.75 0  7.125 0.75 0  7.875 0.75 0  8.625 0.75 0  9.375 0.75 0  10.125 0.75 0  10.875 0.75 0  11.625 0.75 0  12.375 0.75 0  13.125 0.75 0  13.875 0.75 0  14.625 0.75 0  15.375 0.75 0  16.125 0.75 0  16.875 0.75 0  17.625 0.75 0  18.375 0.75 0  19.125 0.75 0  19.875 0.75 0  20.625 0.75 0  21.375 0.75 0  22.125 0.75 0  22.875 0.75 0  23.625 0.75 0  24.375 0.75 0  25.125 0.75 0  25.875 0.75 0  26.625 0.75 0  27.375 0.75 0  28.125 0.75 0  28.875 0.75 0  29.625 0.75 0  30.375 0.75 0  31.125 0.75 0  31.875 0.75 0  32.625 0.75 0  33.375 0.75 0  34.125 0.75 0  34.875 0.75 0  35.625 0.75 0  36.375 0.75 0  37.125 0.75 0  37.875 0.75 0  38.625 0.75 0  39.375 0.75 0  40.125 0.75 0  40
[...]
<PointData  Scalars="f_8-1"> 
<DataArray  type="Float64"  Name="f_8-1"  format="ascii">1.2171051310730047e+10  -4.4225086430401123e+11  -3.9833860584346667e+11  -4.1698550002433240e+11  -4.3496293504036182e+11  -1.9816742959939404e+11  -1.0083096990667685e+11  -2.7249073889105661e+11  2.6833253082113365e+10  3.2057327140036554e+11  -1.3070154242718118e+12  3.4651895927163251e+11  6.0318403535298730e+11  -3.6747322364389954e+11  7.4738258066580676e+11  4.0446366355327283e+11  -2.0031995756878296e+11  -1.0716585195842673e+11  2.5659843357124222e+11  8.8305262288103790e+10  -5.9774466367761482e+10  1.6946011102809769e+11  -3.9719489089795190e+11  -2.1189722704862817e+11  -7.4461339979141321e+11  1.1711427266155256e+12  -5.2957187495118860e+11  -2.1731578491517505e+11  -2.1970557013313718e+11  -3.8238275222402229e+10  -2.5985281960946341e+11  -8.9557740352547876e+11  1.6070581578778973e+11  -6.3379199414146606e+11  -2.4392906988165376e+12  -1.1425657119857815e+12  3.8233041768345068e+11  -1.2852973828559691e+11  2.9065477003390924e+11  3.2348781872307135e+11  -2.5654727321926152e+12  -1.2400906208657024e+12  1.2096472440189970e+11  -1.2921540208590535e+11  4.8333428595884741e+11  2.8321669221225037e+11  1.4163892065431787e+12  -3.0316061394377130e+11  2.8745881608059583e+11  9.9351922771600476e+11  -1.3313466823271767e+11  5.4523204019636658e+11  1.7988343724948837e+11  4.7856418943061389e+11  -9.1613500086460785e+10  -1.0258376935208360e+11  6.7071145836920825e+11  9.8742184208400500e+11  -4.6447267642499670e+11  1.8090806002378977e+12  1.4412782290126184e+12  1.9780974578583008e+11  2.7685895268425989e+11  -8.3162367688392163e+11  7.5623943357121933e+10  -1.5456993800403421e+11  -2.1111287039337271e+11  -4.0131599078888092e+11  -1.7525454341541037e+11  3.2945030084081726e+11  -8.8822277870841217e+10  -4.9752467139550763e+11  -3.5244100984990792e+09  -9.3779488318614330e+09  7.3313914669118910e+09  8.6052189245262405e+10  2.9490841430361134e+10  7.4154207722354126e+10  1.5773763783734378e+11  -2.1675232934075742e+11  -1.3914729691591434e+11  2.8648035864296692e+10  -2.5571691350137915e+11  2.4293546069916981e+10  -6.5721449403783508e+11  -3.8324535505396454e+11  -1.4267696009040976e+11  9.1356087462492538e+10  -1.9029017539778033e+11  1.3891651043225824e+11  -1.7222751835076759e+10  7.3686096059937097e+11  -3.8323984132699524e+11  4.3346847197809528e+11  4.5822941902032520e+11  -6.8589108100008386e+11  7.3400781196843781e+10  1.1410968509666090e+11  -1.0203052290338225e+12  5.8924471229394055e+11  -1.2418157275692031e+12  1.4500712566987433e+11  1.9269332134707205e+11  -2.9446400646461517e+11  -6.2471063898393176e+11  -2.5743878793947134e+11  7.2651667131174103e+10  -4.0953193768782947e+11  4.0903892803920300e+11  2.3076942425383591e+11  3.0110313673658521e+11  -1.2437917425443105e+12  -7.8792172132175269e+11  -5.9536102312453931e+11  -1.3108898763943442e+11  -1.1353493597414412e+12  -1.2386762951642622e+12  8.0860902526733374e+11  -1.6536591820800090e+12  2.0778593350620239e+11  4.0491230288510455e+11  -3.1338565094106555e+11  -3.1268685108110522e+11  4.8973316225090294e+10  2.4887648739961971e+10  9.0721126532717126e+11  5.2579666502254987e+11  3.3919513762182678e+11  5.1501660985338556e+11  1.4782698967884930e+11  1.9401506881458945e+11  1.8501976250436865e+11  -2.6137510988396793e+11  -4.1824278339300113e+09  8.3820664508837097e+10  5.6968460009879456e+09  -2.2319746994736407e+11  8.6353940209182483e+11  2.6977704046138651e+11  -1.1560507059816756e+11  8.1588012812451526e+11  -1.1132329793604885e+12  6.9291182459232324e+11  4.5921233436925250e+11  -2.5819401153179227e+11  4.3100772762098557e+10  -2.6201728422060748e+11  -3.5054634479648157e+11  -1.2440781646954628e+11  -5.2456064867060767e+11  -3.5451699668791730e+11  4.5678315181644501e+10  5.3000175409099030e+10  -1.9584876780107998e+10  2.9329738928127796e+10  1.8544795873628806e+11  3.9397750476228668e+11  -5.8553651348108704e+10  -1.6381485122281631e+10  -1.9928839361070757e+09  -9.8816528512191315e+10  3.3274356391242470e+10  -3.5808265823948631e+10  -1.0411881847964748e+11  -2.6900373127131122e+11  -3.4792934146236285e+11  -3.2712670616613666e+11  -2.0457763243685876e+11  -1.8231041669770670e+11  -3.5040597897538647e+11  -6.9039780459544098e+10  3.5537307321978378e+10  3.9937263771387505e+10  -3.0212629438791193e+11  -4.0778129607562048e+11  -6.4899611193693520e+10  -1.0768711228188711e+12  -4.0042049620643610e+11  -3.9476859238173438e+11  -3.9882464495270184e+11  1.7828770999657831e+11  -4.2666613033474579e+11  2.4418027163795801e+11  3.9601867016824481e+11  -7.6861229856024872e+10  1.6450321273845914e+11  3.6710268386720282e+11  -8.5834566455852393e+11  -3.6937456255377661e+11  -1.0664715491257518e+11  4.7174740002170648e+11  -8.4829312345092297e+11  3.1596097737547588e+10  -1.8587497203031354e+11  -3.4666372929965735e+11  3.9564953100708142e+11  -5.0813865944519391e+11  -5.4422001392584271e+11  -1.6678957507792545e+11  -6.7781645275772852e+11  4.5378743702736780e+11  -5.0049070428538049e+11  -6.9933642964073629e+09  -8.7353785097621517e+09  -1.9128401584462552e+11  3.8086882762932104e+11  2.9018595100549042e+11  4.6927024538610962e+11  2.8705279344443073e+11  5.5973062240781128e+11  1.5611229487948685e+11  7.5509423874213281e+11  7.8325228013453339e+10  2.7091139632057550e+11  -1.1760112213443314e+10  1.3345300509794064e+11  -3.7615160906028900e+11  -6.0375856686949731e+11  8.5412298353385913e+11  3.3478305928451111e+11  4.5897699552883521e+11  2.1941147926838522e+11  6.1198857679072156e+11  1.2955205150311627e+11  2.0357753361868069e+11  -1.1715889448716174e+11  -1.7422245253562299e+11  -1.7567704924466861e+11  -4.1880621243914101e+10  -2.9641719159397955e+11  -9.0885071037707962e+10  -1.0812670098147029e+11  2.5807557833956009e+11  2.7664036185970953e+11  1.0612494772413464e+11  -3.9956916694119720e+10  4.3623960095814075e+11  3.1184871552070068e+11  3.2608267147183423e+11  -1.5771329012118887e+11  -5.1388150526053970e+10  -1.4954123022003415e+11  1.3078790269482314e+11  -4.4865144932515839e+10  1.5351851275223246e+10  -1.5981358188117755e+11  3.7279827509845711e+10  1.2767132144970671e+11  8.1921399144345108e+10  -3.4919550834408704e+11  -1.5431334554901053e+11  8.3698940093205700e+09  -3.7643898143053040e+11  -3.2517461631511169e+11  -5.4067352293858130e+11  6.1541056693288391e+11  -6.4724021191929126e+11  -4.2900934661934747e+11  -9.4390500358659851e+11  -3.6158131004285331e+09  6.8273342139050867e+11  -5.0508207378994543e+11  -3.4141585460736658e+11  -1.3278033868066912e+10  7.3401445911512292e+11  2.3683648286789838e+11  -3.2352674588780786e+11  4.6805388986241876e+11  -1.1834045564003751e+11  1.8863709162005246e+11  -2.9881504526317462e+11  2.6368969369899881e+11  7.5247591633090320e+11  9.9751330309618439e+10  -2.1765730015175964e+11  9.2584855113738571e+10  1.6292824307721796e+11  3.3889138276884155e+11  1.2911859817480066e+12  -7.5554098868496960e+11  -4.5762610528652939e+10  -6.3374243990893713e+11  -3.5491283078252466e+11  8.9055576607698718e+11  4.8925139163057526e+10  -2.9608861739038263e+11  -2.4729732722594357e+11  7.7289824935702713e+10  -1.7260282964320416e+11  7.2904422905708740e+11  3.1008578459039252e+11  -2.9524926590422668e+11  -1.3820421657515439e+11  2.3506839361663898e+11  3.4474803196393852e+10  3.4361579293800873e+10  2.3462171129403842e+11  -4.5610869441857939e+09  -9.9748826297109356e+09  3.7875774327588477e+11  2.1583442539080647e+10  1.4799394039236285e+11  4.1878635269341711e+11  -1.4729807778564310e+11  1.3571916473297404e+11  -7.5959183887772079e+10  -4.2317200590925336e+11  -4.5907551443469055e+11  -2.4538661433681433e+11  -4.6812927952393311e+10  -5.1936903329907227e+11  2.0341114150664728e+11  -3.0787223095319513e+11  1.9677509902550842e+11  3.7541857657086078e+11  4.9561442537994922e+11  -1.8696278426406238e+11  1.3055093846394312e+11  5.7520219285989677e+10  2.3280138254362845e+11  4.3660074419543587e+10  -2.1258868042207101e+11  -1.3858510940377350e+11  -9.5658354936272568e+10  3.1371261919274616e+10  -1.2007743366605968e+11  -1.6640332711563260e+11  2.0322466354753906e+11  -1.3763617690516022e+11  -1.8616549689599335e+11  -8.1708880095694443e+10  -1.7323644462567234e+10  -6.2802607498423645e+10  -4.1601498983558411e+11  -5.8368935902785681e+11  1.0284403151904292e+11  -5.3241758045617737e+11  -1.2083326600948950e+12  -4.2632246874429962e+11  -1.1452099659031355e+11  -7.7552735315319263e+11  7.1194627424377991e+11  7.7323986007198633e+11  3.7832748054719318e+11  -1.9283708450373802e+10  1.2077828137838464e+11  4.7025116043928177e+10  -1.4532288798883779e+09  -1.7041882217842325e+11  -1.5122875410867792e+11  1.8447549690757925e+11  3.8475870720290356e+11  3.1056104527949335e+11  6.2465425021928613e+11  7.8850130712168030e+10  1.7672654377652203e+11  -1.5477827270977072e+11  4.1618593178096362e+11  4.5029960865068372e+11  3.5428964948856525e+11  7.6097158182562891e+11  -2.4313801010178482e+11  3.6843085531722054e+10  -1.1832282831934274e+11  4.6075864936595996e+11  9.4328138191263184e+11  1.5448298646243347e+11  1.8030213336279423e+10  -2.3446751422251346e+11  8.9161120707591858e+10  -3.5357162241541718e+11  2.5815913131468344e+11  -1.0488204539424521e+12  -1.0156305399104788e+11  -4.0025945190357745e+11  -1.3653065822169647e+10  3.0909969795681473e+10  1.2925648952779817e+11  9.0601134414884949e+10  2.0895669106718319e+10  -5.7652402905324532e+10  7.2850223015872696e+10  1.1930591186323091e+11  4.3132034427697472e+10  -4.8359395922640686e+11  -1.2011089840776419e+11  -9.1741604364092590e+10  -6.8846212167844690e+11  -1.4418323945386597e+11  -1.3615985262571678e+11  -2.0951343465736734e+11  -3.2997176796451215e+11  1.7553864649243182e+11  -2.2028729449746338e+11  1.7090126537111298e+11  3.4711922819005151e+11  2.5294536573377548e+11  -5.8848386399295982e+10  1.0235225864694403e+10  6.7247940764946281e+10  2.2760382425337442e+11  1.8393072726573425e+11  -4.1737656651631958e+10  -1.1368446406197641e+11  4.5406773884356155e+10  2.2049241723387992e+08  8.4151259429183060e+10  2.1569603008800058e+09  8.6598589109120865e+10  -6.3721823887873772e+10  3.0243299460887885e+11  -9.2243397231354675e+10  -1.2661331478950214e+11  -2.1476299111087030e+11  -1.9806719472813803e+11  -4.5273918665453699e+11  -8.0185937647463354e+11  -2.9902966212316797e+11  -2.9673547559412970e+11  -2.3092275521783127e+11  -2.0013179509619394e+11  -1.0752928001309116e+11  2.3200967723652567e+11  -1.0838955336957234e+11  4.4079096676358606e+11  2.5036082400755273e+11  1.5936460417216801e+10  -2.3695236954489511e+11  1.6765622247362109e+11  1.8353145314471265e+11  -1.6699994974902795e+11  -3.7897568183734229e+11  -2.2525549225925070e+11  5.6654780368282751e+11  4.6747806634200598e+11  4.7191009461560382e+11  2.2674104327164749e+11  7.7286874004100500e+11  2.8708717964224731e+11  -1.0877497418408057e+12  1.5220059327185461e+12  -3.0432211738810703e+10  8.7395067660409534e+11  -1.5071185769505814e+11  -3.8090696056347437e+11  -7.3361455230367053e+11  -9.4105070641204010e+10  1.0704086230060262e+12  -3.4084810481662360e+11  -3.4500460512315082e+11  -6.8094253466434119e+11  1.5674067856890710e+11  7.3770341554365524e+10  -7.0852691924876282e+11  -5.9034408347031860e+11  -3.3901474685142841e+11  9.8430767209649750e+10  -1.3926086715939368e+11  3.6740462238746558e+11  4.5798522788615063e+11  1.3908951851079895e+11  -1.2635799027409114e+11  -1.9051609336910385e+11  5.0538516077661115e+11  -1.4216880563254990e+11  -4.9040116532864082e+10  -5.9527987312021072e+10  -2.7882738399750446e+11  -3.3618686004685828e+11  1.7638061694189856e+11  -3.2242227904865417e+11  -1.2500256030705750e+11  -4.3755271800455182e+11  9.2321623446294159e+10  -1.5457317695161166e+11  4.2737776879114618e+11  3.2044851580366211e+11  3.5830605182263269e+11  3.3270695762055841e+11  -1.9529511909798709e+11  4.8805860721370346e+10  -1.6007437657081625e+10  2.2716919570984888e+11  1.9515780808061245e+10  -1.7363402589824762e+11  -1.4885951951311383e+09  2.9373642633901264e+10  3.4414606874530640e+10  -1.2403556133304071e+11  1.4786221318589924e+10  2.8922975697694767e+10  -1.1897906265284183e+11  -3.2897945281232104e+11  -1.2961214976827397e+11  -2.0204994164861047e+11  -8.6563791917296005e+10  5.4367382971639839e+10  -2.3275569891080453e+11  -1.9735870477163446e+11  -3.8090734961956323e+11  -3.1742336773911273e+11  -4.9672463591229407e+11  1.9056463713916312e+11  -1.6257760872398716e+10  1.3589037062991132e+11  7.9638632028253815e+10  -9.9286521752647766e+10  -2.0693210151837149e+11  7.2997933551073718e+11  3.2460449063154950e+11  2.8788772964088009e+10  -2.3898795365868106e+11  -4.3603846996386938e+11  -2.1019257768579010e+11  -2.6228566718120740e+11  3.9648601816848767e+11  5.0441064191442574e+10  1.6654358806511389e+12  -6.5750392813226807e+11  7.4252540070656836e+11  -8.3417661526577759e+11  1.0912734264019568e+12  -8.5594854837874365e+11  4.2435005535496820e+11  2.1849094454303403e+11  5.5206502914408154e+11  -2.8123415751934460e+11  -9.5236140169685669e+11  1.0832226288037659e+12  -1.4003684063039594e+11  1.7807628747257407e+11  5.1283016186116638e+11  -2.0951434140931207e+11  -8.8413536927558643e+11  -1.9400464109511691e+11  -6.8034219486753564e+11  -4.7231356709238519e+11  -2.9249151843024652e+11  -2.9837810615087659e+11  -8.2324991520673169e+11  2.4096934454595065e+11  4.3855207625629480e+11  1.6657527634811177e+09  6.1788740325529396e+10  2.7277454823293793e+11  3.3255948227497284e+11  -1.5265554793836765e+11  -1.0863183118551498e+11  -1.4259061111500601e+11  -8.6151424387671799e+10  -1.5960317767680246e+11  9.6680549231696930e+10  -2.4311313336019952e+11  1.5382929169917447e+11  -6.8269524918840869e+11  2.8607758077289764e+10  -1.4709244414729729e+10  4.7471269003598553e+11  1.0787974810507764e+11  2.9979253439483753e+10  1.2266435481431589e+11  -3.5181370435847321e+10  1.9993343710173148e+11  -6.0458403071996414e+10  -3.4932512945151772e+10  -2.5716329968625851e+10  -2.5870732548053671e+11  -4.6142935267953766e+10  1.3214348915271036e+11  -4.0329260379009254e+10  -3.9830820192222092e+10  -8.5042999474662384e+10  -3.6708524961710614e+11  -2.3785391787200314e+11  4.5165167750278835e+09  1.1688481189159409e+11  1.0145924166657736e+11  -3.9951509592927228e+11  2.1270274573173196e+11  -9.0977292360717072e+10  -2.2238171218647806e+11  -1.4970835740874579e+11  -1.7870589637346289e+11  -2.6216811342686426e+11  -1.5146646613207834e+11  -2.5893792543300043e+11  2.5300895383236285e+11  -1.6713349588845724e+11  1.1674240648892168e+11  2.6373691320547595e+11  9.7618269552125488e+11  1.0794122889426048e+11  -5.6387407977658521e+11  7.0695532510262439e+11  -4.2770241017139801e+11  1.7018151229176913e+11  -8.8773837171343982e+11  5.6056971357218002e+10  -6.8001242776091301e+10  2.8073932697267377e+11  -1.2918585903807036e+11  5.6612889336377930e+11  2.4593352209197098e+10  -8.0118582354205627e+11  1.7755220828170877e+11  1.0783614355741497e+12  -4.1672129487259331e+10  3.0410692708822162e+11  -9.2341314712203537e+10  -1.0239265793802780e+11  7.6694834254388702e+10  -2.7396401011875074e+07  -4.4350232172618286e+10  5.8702809858284790e+11  -1.9360508181127612e+11  1.0495953985747435e+11  -7.0990954717789551e+11  -9.1147844647851810e+07  -4.7106277574305420e+11  -6.7970497856320959e+11  -2.7715369301209973e+11  -3.1671406418536249e+11  1.3526646740583046e+11  -3.7469939061508301e+11  2.7107821208720932e+10  1.0817359858768671e+11  -3.1009173588461963e+11  -1.5363289787930481e+11  2.0200481772000946e+11  -2.8876271036532080e+11  7.3752760867868652e+10  -1.8129385068935318e+11  -2.3695057523589816e+11  -3.5469113601103424e+11  -1.8135362627074738e+11  -1.0878207021688905e+11  -1.1194344879882248e+11  3.4037493996420654e+11  1.3163235490891447e+11  5.3462228541528333e+11  9.5349416697724243e+10  -2.2205695321570547e+11  -7.1014213416429276e+10  7.8609862615527405e+10  -3.9930292740675110e+10  -1.5216294210825449e+10  -1.3582960175508696e+11  1.8533216718814227e+11  -2.9112117286671436e+10  -3.9250069850812668e+10  -2.6163095253823067e+10  1.7357868581671761e+10  -2.8496363860035187e+11  1.0932235632694960e+11  -1.3917640580757285e+11  1.0984000666881775e+10  2.3925865397639668e+10  7.3607770621820923e+10  -1.4419510429353998e+11  -5.6329513906358315e+10  -3.1670701030601288e+10  -1.0502439947509177e+11  -4.7902140958655891e+10  2.0564794327321048e+11  -3.8083965949021645e+10  -3.5534748069255966e+10  1.6847382249041660e+11  -1.5021268348335159e+11  -2.6352089756832611e+10  1.1140363544283035e+11  1.2865457091597275e+11  -6.9115787266809494e+10  1.0542448483867671e+11  -5.1047816564944299e+11  8.0938095656446419e+09  6.0865310863001892e+11  -4.3919754837178668e+11  -2.5789764270681339e+10  -2.9844939791649725e+11  -1.3789629118735034e+11  -2.2440548446074353e+11  4.8660794995839771e+11  -8.1421968505265762e+10  -1.6951968398931122e+11  1.1333125164786221e+12  -5.4424346289811603e+11  -9.0842431127242966e+10  -6.3438091035543266e+10  8.8778183304805740e+10  -8.3778657884615768e+10  -1.6662540921472000e+10  5.5466927651673067e+08  2.3975356998454472e+10  -9.4083818906126373e+10  1.0201399449809746e+11  -5.1091381457945007e+10  2.7127043026197415e+11  2.1398983136103619e+11  -9.7751087914609619e+10  1.0426980436916003e+11  -8.2721641116973358e+10  -9.6932968376640305e+10  -1.7036689896225314e+11  -1.1265449999993137e+11  1.4661902948019281e+11  -8.8919707586320053e+10  2.2096180679170200e+10  -1.0187699633134396e+11  6.1654893940262794e+10  -3.9680593659581116e+10  -1.5636188516817212e+11  8.5189050414599548e+10  -5.7134515097107491e+10  -8.9777527960161591e+10  -1.4384031864983441e+11  2.9881130091218895e+10  1.5646366423472604e+11  -7.4528653528937225e+10  8.9694596436160248e+10  -1.1247785077114052e+11  5.6312097903944038e+10  -5.5859716635822800e+10  -7.0803925258373318e+09  3.2633321715310455e+10  3.2139484523158592e+10  -6.3010270386644341e+10  2.2390799270873619e+10  -7.4947648635334339e+09  1.1373728026859608e+11  -1.2303145177329633e+11  -3.0062925745246558e+11  -5.2115612252727338e+11  -4.8243973585916089e+11  -7.0742905878710327e+11  -1.7020955236132938e+11  -1.5660488776065149e+11  -2.1057581270246680e+11  2.2083240459411765e+11  2.8737533896975763e+11  -1.3134440686112659e+12  -3.6710569075060022e+11  3.9379314334607507e+11  -8.5497579308361304e+11  7.2916500600349121e+11  -9.4257529638212292e+11  -1.8511935396777087e+12  1.3584781134685568e+11  -1.7542201768292877e+11  5.4294308017160254e+11  8.0362915760065262e+10  -1.3330677032016759e+11  5.0265412632332265e+08  -4.0427505065087256e+11  -3.7806171032113855e+11  3.5194425100857166e+11  -2.8570611353862537e+11  -5.1294272006369702e+11  4.2292491181178571e+11  -1.8786420920458212e+11  -1.7894566074340179e+11  6.8383538705540198e+11  3.5684558739294836e+11  -5.2790179393609802e+11  -2.5350503920141836e+12  1.1678728681758271e+12  -9.9649804448514038e+11  -1.6863300602472227e+12  4.4482672584069580e+11  -2.5345564263116620e+11  -1.4424481365355969e+12  -6.1657087658648291e+11  -3.1255235855211237e+11  2.7384412838891965e+11  5.5489313719833972e+11  5.3436979591782294e+11  2.2216063155177011e+11  6.7673754590486194e+11  7.5009205813404919e+11  1.0262722488423651e+12  -7.6882590872532959e+10  2.4148966507937695e+11  3.5560554791988477e+11  5.4531700451960522e+11  9.5635236761202896e+10  1.5359857949492590e+12  9.4471959070062659e+11  2.8082034578397064e+11  2.7132196739703079e+10  1.3086677278848137e+12  7.3188692550912634e+11  5.2378733343668469e+11  -5.0104119150424054e+11  3.1462390476128418e+11  -1.3315606595525211e+10  -4.6353921614787811e+11  -6.3858474728222375e+11  -4.8593170183268713e+11  -3.9676783174910950e+11  1.8663892429901096e+11  -4.2519702433619641e+11  -2.9834044144648322e+11  -3.0102179866191788e+10  -2.5970586109207600e+10  5.3718596800590179e+10  -1.8144873519594839e+11  2.7288391486265424e+11  1.9857249612184372e+11  2.3296529402770790e+10  -6.5440502970929855e+10  -6.0217704801068245e+10  -2.2154863287545895e+11  -3.298004