<?xml version="1.0"?>
<VTKFile type="UnstructuredGrid"  version="0.1"  >
<UnstructuredGrid>
<Piece  NumberOfPoints="1369" NumberOfCells="2560">
<Points>
<DataArray  type="Float64"  NumberOfComponents="3"  format="ascii">0 0 0  0.75 0 0  1.5 0 0  2.25 0 0  3 0 0  3.75 0 0  4.5 0 0  5.25 0 0  6 0 0  6.75 0 0  7.5 0 0  8.25 0 0  9 0 0  9.75 0 0  10.5 0 0  11.25 0 0  12 0 0  12.75 0 0  13.5 0 0  14.25 0 0  15 0 0  15.75 0 0  16.5 0 0  17.25 0 0  18 0 0  18.75 0 0  19.5 0 0  20.25 0 0  21 0 0  21.75 0 0  22.5 0 0  23.25 0 0  24 0 0  24.75 0 0  25.5 0 0  26.25 0 0  27 0 0  27.75 0 0  28.5 0 0  29.25 0 0  30 0 0  30.75 0 0  31.5 0 0  32.25 0 0  33 0 0  33.75 0 0  34.5 0 0  35.25 0 0  36 0 0  36.75 0 0  37.5 0 0  38.25 0 0  39 0 0  39.75 0 0  40.5 0 0  41.25 0 0  42 0 0  42.75 0 0  43.5 0 0  44.25 0 0  45 0 0  45.75 0 0  46.5 0 0  47.25 0 0  48 0 0  48.75 0 0  49.5 0 0  50.25 0 0  51 0 0  51.75 0 0  52.5 0 0  53.25 0 0  54 0 0  54.75 0 0  55.5 0 0  56.25 0 0  57 0 0  57.75 0 0  58.5 0 0  59.25 0 0  60 0 0  0 0.5 0  0.75 0.5 0  1.5 0.5 0  2.25 0.5 0  3 0.5 0  3.75 0.5 0  4.5 0.5 0  5.25 0.5 0  6 0.5 0  6.75 0.5 0  7.5 0.5 0  8.25 0.5 0  9 0.5 0  9.75 0.5 0  10.5 0.5 0  11.25 0.5 0  12 0.5 0  12.75 0.5 0  13.5 0.5 0  14.25 0.5 0  15 0.5 0  15.75 0.5 0  16.5 0.5 0  17.25 0.5 0  18 0.5 0  18.75 0.5 0  19.5 0.5 0  20.25 0.5 0  21 0.5 0  21.75 0.5 0  22.5 0.5 0  23.25 0.5 0  24 0.5 0  24.75 0.5 0  25.5 0.5 0  26.25 0.5 0  27 0.5 0  27.75 0.5 0  28.5 0.5 0  29.25 0.5 0  30 0.5 0  30.75 0.5 0  31.5 0.5 0  32.25 0.5 0  33 0.5 0  33.75 0.5 0  34.5 0.5 0  35.25 0.5 0  36 0.5 0  36.75 0.5 0  37.5 0.5 0  38.25 0.5 0  39 0.5 0  39.75 0.5 0  40.5 0.5 0  41.25 0.5 0  42 0.5 0  42.75 0.5 0  43.5 0.5 0  44.25 0.5 0  45 0.5 0  45.75 0.5 0  46.5 0.5 0  47.25 0.5 0  48 0.5 0  48.75 0.5 0  49.5 0.5 0  50.25 0.5 0  51 0.5 0  51.75 0.5 0  52.5 0.5 0  53.25 0.5 0  54 0.5 0  54.75 0.5 0  55.5 0.5 0  56.25 0.5 0  57 0.5 0  57.75 0.5 0  58.5 0.5 0  59.25 0.5 0  60 0.5 0  0 1 0  0.75 1 0  1.5 1 0  2.25 1 0  3 1 0  3.75 1 0  4.5 1 0  5.25 1 0  6 1 0  6.75 1 0  7.5 1 0  8.25 1 0  9 1 0  9.75 1 0  10.5 1 0  11.25 1 0  12 1 0  12.75 1 0  13.5 1 0  14.25 1 0  15 1 0  15.75 1 0  16.5 1 0  17.25 1 0  18 1 0  18.75 1 0  19.5 1 0  20.25 1 0  21 1 0  21.75 1 0  22.5 1 0  23.25 1 0  24 1 0  24.75 1 0  25.5 1 0  26.25 1 0  27 1 0  27.75 1 0  28.5 1 0  29.25 1 0  30 1 0  30.75 1 0  31.5 1 0  32.25 1 0  33 1 0  33.75 1 0  34.5 1 0  35.25 1 0  36 1 0  36.75 1 0  37.5 1 0  38.25 1 0  39 1 0  39.75 1 0  40.5 1 0  41.25 1 0  42 1 0  42.75 1 0  43.5 1 0  44.25 1 0  45 1 0  45.75 1 0  46.5 1 0  47.25 1 0  48 1 0  48.75 1 0  49.5 1 0  50.25 1 0  51 1 0  51.75 1 0  52.5 1 0  53.25 1 0  54 1 0  54.75 1 0  55.5 1 0  56.25 1 0  57 1 0  57.75 1 0  58.5 1 0  59.25 1 0  60 1 0  0 1.5 0  0.75 1.5 0  1.5 1.5 0  2.25 1.5 0  3 1.5 0  3.75 1.5 0  4.5 1.5 0  5.25 1.5 0  6 1.5 0  6.75 1.5 0  7.5 1.5 0  8.25 1.5 0  9 1.5 0  9.75 1.5 0  10.5 1.5 0  11.25 1.5 0  12 1.5 0  12.75 1.5 0  13.5 1.5 0  14.25 1.5 0  15 1.5 0  15.75 1.5 0  16.5 1.5 0  17.25 1.5 0  18 1.5 0  18.75 1.5 0  19.5 1.5 0  20.25 1.5 0  21 1.5 0  21.75 1.5 0  22.5 1.5 0  23.25 1.5 0  24 1.5 0  24.75 1.5 0  25.5 1.5 0  26.25 1.5 0  27 1.5 0  27.75 1.5 0  28.5 1.5 0  29.25 1.5 0  30 1.5 0  30.75 1.5 0  31.5 1.5 0  32.25 1.5 0  33 1.5 0  33.75 1.5 0  34.5 1.5 0  35.25 1.5 0  36 1.5 0  36.75 1.5 0  37.5 1.5 0  38.25 1.5 0  39 1.5 0  39.75 1.5 0  40.5 1.5 0  41.25 1.5 0  42 1.5 0  42.75 1.5 0  43.5 1.5 0  44.25 1.5 0  45 1.5 0  45.75 1.5 0  46.5 1.5 0  47.25 1.5 0  48 1.5 0  48.75 1.5 0  49.5 1.5 0  50.25 1.5 0  51 1.5 0  51.75 1.5 0  52.5 1.5 0  53.25 1.5 0  54 1.5 0  54.75 1.5 0  55.5 1.5 0  56.25 1.5 0  57 1.5 0  57.75 1.5 0  58.5 1.5 0  59.25 1.5 0  60 1.5 0  0 2 0  0.75 2 0  1.5 2 0  2.25 2 0  3 2 0  3.75 2 0  4.5 2 0  5.25 2 0  6 2 0  6.75 2 0  7.5 2 0  8.25 2 0  9 2 0  9.75 2 0  10.5 2 0  11.25 2 0  12 2 0  12.75 2 0  13.5 2 0  14.25 2 0  15 2 0  15.75 2 0  16.5 2 0  17.25 2 0  18 2 0  18.75 2 0  19.5 2 0  20.25 2 0  21 2 0  21.75 2 0  22.5 2 0  23.25 2 0  24 2 0  24.75 2 0  25.5 2 0  26.25 2 0  27 2 0  27.75 2 0  28.5 2 0  29.25 2 0  30 2 0  30.75 2 0  31.5 2 0  32.25 2 0  33 2 0  33.75 2 0  34.5 2 0  35.25 2 0  36 2 0  36.75 2 0  37.5 2 0  38.25 2 0  39 2 0  39.75 2 0  40.5 2 0  41.25 2 0  42 2 0  42.75 2 0  43.5 2 0  44.25 2 0  45 2 0  45.75 2 0  46.5 2 0  47.25 2 0  48 2 0  48.75 2 0  49.5 2 0  50.25 2 0  51 2 0  51.75 2 0  52.5 2 0  53.25 2 0  54 2 0  54.75 2 0  55.5 2 0  56.25 2 0  57 2 0  57.75 2 0  58.5 2 0  59.25 2 0  60 2 0  0 2.5 0  0.75 2.5 0  1.5 2.5 0  2.25 2.5 0  3 2.5 0  3.75 2.5 0  4.5 2.5 0  5.25 2.5 0  6 2.5 0  6.75 2.5 0  7.5 2.5 0  8.25 2.5 0  9 2.5 0  9.75 2.5 0  10.5 2.5 0  11.25 2.5 0  12 2.5 0  12.75 2.5 0  13.5 2.5 0  14.25 2.5 0  15 2.5 0  15.75 2.5 0  16.5 2.5 0  17.25 2.5 0  18 2.5 0  18.75 2.5 0  19.5 2.5 0  20.25 2.5 0  21 2.5 0  21.75 2.5 0  22.5 2.5 0  23.25 2.5 0  24 2.5 0  24.75 2.5 0  25.5 2.5 0  26.25 2.5 0  27 2.5 0  27.75 2.5 0  28.5 2.5 0  29.25 2.5 0  30 2.5 0  30.75 2.5 0  31.5 2.5 0  32.25 2.5 0  33 2.5 0  33.75 2.5 0  34.5 2.5 0  35.25 2.5 0  36 2.5 0  36.75 2.5 0  37.5 2.5 0  38.25 2.5 0  39 2.5 0  39.75 2.5 0  40.5 2.5 0  41.25 2.5 0  42 2.5 0  42.75 2.5 0  43.5 2.5 0  44.25 2.5 0  45 2.5 0  45.75 2.5 0  46.5 2.5 0  47.25 2.5 0  48 2.5 0  48.75 2.5 0  49.5 2.5 0  50.25 2.5 0  51 2.5 0  51.75 2.5 0  52.5 2.5 0  53.25 2.5 0  54 2.5 0  54.75 2.5 0  55.5 2.5 0  56.25 2.5 0  57 2.5 0  57.75 2.5 0  58.5 2.5 0  59.25 2.5 0  60 2.5 0  0 3 0  0.75 3 0  1.5 3 0  2.25 3 0  3 3 0  3.75 3 0  4.5 3 0  5.25 3 0  6 3 0  6.75 3 0  7.5 3 0  8.25 3 0  9 3 0  9.75 3 0  10.5 3 0  11.25 3 0  12 3 0  12.75 3 0  13.5 3 0  14.25 3 0  15 3 0  15.75 3 0  16.5 3 0  17.25 3 0  18 3 0  18.75 3 0  19.5 3 0  20.25 3 0  21 3 0  21.75 3 0  22.5 3 0  23.25 3 0  24 3 0  24.75 3 0  25.5 3 0  26.25 3 0  27 3 0  27.75 3 0  28.5 3 0  29.25 3 0  30 3 0  30.75 3 0  31.5 3 0  32.25 3 0  33 3 0  33.75 3 0  34.5 3 0  35.25 3 0  36 3 0  36.75 3 0  37.5 3 0  38.25 3 0  39 3 0  39.75 3 0  40.5 3 0  41.25 3 0  42 3 0  42.75 3 0  43.5 3 0  44.25 3 0  45 3 0  45.75 3 0  46.5 3 0  47.25 3 0  48 3 0  48.75 3 0  49.5 3 0  50.25 3 0  51 3 0  51.75 3 0  52.5 3 0  53.25 3 0  54 3 0  54.75 3 0  55.5 3 0  56.25 3 0  57 3 0  57.75 3 0  58.5 3 0  59.25 3 0  60 3 0  0 3.5 0  0.75 3.5 0  1.5 3.5 0  2.25 3.5 0  3 3.5 0  3.75 3.5 0  4.5 3.5 0  5.25 3.5 0  6 3.5 0  6.75 3.5 0  7.5 3.5 0  8.25 3.5 0  9 3.5 0  9.75 3.5 0  10.5 3.5 0  11.25 3.5 0  12 3.5 0  12.75 3.5 0  13.5 3.5 0  14.25 3.5 0  15 3.5 0  15.75 3.5 0  16.5 3.5 0  17.25 3.5 0  18 3.5 0  18.75 3.5 0  19.5 3.5 0  20.25 3.5 0  21 3.5 0  21.75 3.5 0  22.5 3.5 0  23.25 3.5 0  24 3.5 0  24.75 3.5 0  25.5 3.5 0  26.25 3.5 0  27 3.5 0  27.75 3.5 0  28.5 3.5 0  29.25 3.5 0  30 3.5 0  30.75 3.5 0  31.5 3.5 0  32.25 3.5 0  33 3.5 0  33.75 3.5 0  34.5 3.5 0  35.25 3.5 0  36 3.5 0  36.75 3.5 0  37.5 3.5 0  38.25 3.5 0  39 3.5 0  39.75 3.5 0  40.5 3.5 0  41.25 3.5 0  42 3.5 0  42.75 3.5 0  43.5 3.5 0  44.25 3.5 0  45 3.5 0  45.75 3.5 0  46.5 3.5 0  47.25 3.5 0  48 3.5 0  48.75 3.5 0  49.5 3.5 0  50.25 3.5 0  51 3.5 0  51.75 3.5 0  52.5 3.5 0  53.25 3.5 0  54 3.5 0  54.75 3.5 0  55.5 3.5 0  56.25 3.5 0  57 3.5 0  57.75 3.5 0  58.5 3.5 0  59.25 3.5 0  60 3.5 0  0 4 0  0.75 4 0  1.5 4 0  2.25 4 0  3 4 0  3.75 4 0  4.5 4 0  5.25 4 0  6 4 0  6.75 4 0  7.5 4 0  8.25 4 0  9 4 0  9.75 4 0  10.5 4 0  11.25 4 0  12 4 0  12.75 4 0  13.5 4 0  14.25 4 0  15 4 0  15.75 4 0  16.5 4 0  17.25 4 0  18 4 0  18.75 4 0  19.5 4 0  20.25 4 0  21 4 0  21.75 4 0  22.5 4 0  23.25 4 0  24 4 0  24.75 4 0  25.5 4 0  26.25 4 0  27 4 0  27.75 4 0  28.5 4 0  29.25 4 0  30 4 0  30.75 4 0  31.5 4 0  32.25 4 0  33 4 0  33.75 4 0  34.5 4 0  35.25 4 0  36 4 0  36.75 4 0  37.5 4 0  38.25 4 0  39 4 0  39.75 4 0  40.5 4 0  41.25 4 0  42 4 0  42.75 4 0  43.5 4 0  44.25 4 0  45 4 0  45.75 4 0  46.5 4 0  47.25 4 0  48 4 0  48.75 4 0  49.5 4 0  50.25 4 0  51 4 0  51.75 4 0  52.5 4 0  53.25 4 0  54 4 0  54.75 4 0  55.5 4 0  56.25 4 0  57 4 0  57.75 4 0  58.5 4 0  59.25 4 0  60 4 0  0.375 0.25 0  1.125 0.25 0  1.875 0.25 0  2.625 0.25 0  3.375 0.25 0  4.125 0.25 0  4.875 0.25 0  5.625 0.25 0  6.375 0.25 0  7.125 0.25 0  7.875 0.25 0  8.625 0.25 0  9.375 0.25 0  10.125 0.25 0  10.875 0.25 0  11.625 0.25 0  12.375 0.25 0  13.125 0.25 0  13.875 0.25 0  14.625 0.25 0  15.375 0.25 0  16.125 0.25 0  16.875 0.25 0  17.625 0.25 0  18.375 0.25 0  19.125 0.25 0  19.875 0.25 0  20.625 0.25 0  21.375 0.25 0  22.125 0.25 0  22.875 0.25 0  23.625 0.25 0  24.375 0.25 0  25.125 0.25 0  25.875 0.25 0  26.625 0.25 0  27.375 0.25 0  28.125 0.25 0  28.875 0.25 0  29.625 0.25 0  30.375 0.25 0  31.125 0.25 0  31.875 0.25 0  32.625 0.25 0  33.375 0.25 0  34.125 0.25 0  34.875 0.25 0  35.625 0.25 0  36.375 0.25 0  37.125 0.25 0  37.875 0.25 0  38.625 0.25 0  39.375 0.25 0  40.125 0.25 0  40.875 0.25 0  41.625 0.25 0  42.375 0.25 0  43.125 0.25 0  43.875 0.25 0  44.625 0.25 0  45.375 0.25 0  46.125 0.25 0  46.875 0.25 0  47.625 0.25 0  48.375 0.25 0  49.125 0.25 0  49.875 0.25 0  50.625 0.25 0  51.375 0.25 0  52.125 0.25 0  52.875 0.25 0  53.625 0.25 0  54.375 0.25 0  55.125 0.25 0  55.875 0.25 0  56.625 0.25 0  57.375 0.25 0  58.125 0.25 0  58.875 0.25 0  59.625 0.25 0  0.375 0.75 0  1.125 0.75 0  1.875 0.75 0  2.625 0.75 0  3.375 0.75 0  4.125 0.75 0  4.875 0.75 0  5.625 0.75 0  6.375 0.75 0  7.125 0.75 0  7.875 0.75 0  8.625 0.75 0  9.375 0.75 0  10.125 0.75 0  10.875 0.75 0  11.625 0.75 0  12.375 0.75 0  13.125 0.75 0  13.875 0.75 0  14.625 0.75 0  15.375 0.75 0  16.125 0.75 0  16.875 0.75 0  17.625 0.75 0  18.375 0.75 0  19.125 0.75 0  19.875 0.75 0  20.625 0.75 0  21.375 0.75 0  22.125 0.75 0  22.875 0.75 0  23.625 0.75 0  24.375 0.75 0  25.125 0.75 0  25.875 0.75 0  26.625 0.75 0  27.375 0.75 0  28.125 0.75 0  28.875 0.75 0  29.625 0.75 0  30.375 0.75 0  31.125 0.75 0  31.875 0.75 0  32.625 0.75 0  33.375 0.75 0  34.125 0.75 0  34.875 0.75 0  35.625 0.75 0  36.375 0.75 0  37.125 0.75 0  37.875 0.75 0  38.625 0.75 0  39.375 0.75 0  40.125 0.75 0  40
[...]
<PointData  Scalars="f_8-1"> 
<DataArray  type="Float64"  Name="f_8-1"  format="ascii">-1.2513239415220381e+11  5.2887911344135657e+11  1.4973530787584784e+11  5.5887279843576611e+11  5.1731545007899223e+10  -1.7826911494089780e+11  4.9153268527097180e+11  8.0560296845876123e+11  6.3627701676542468e+11  2.6389715054736234e+11  -6.7518837714737465e+10  1.5730340871606758e+12  -2.2177554731295640e+12  6.7276083445033655e+11  -2.8006375571082532e+11  -6.4392592937336255e+11  2.1435248336670444e+11  9.9472879189430832e+10  1.0627400852656255e+11  -3.3795351515227136e+11  5.9707629126735603e+10  1.4118382896141318e+11  -1.4040582805004761e+11  6.8723565844654407e+11  -5.0091404159231323e+10  5.1996730558122052e+11  1.3561506552948511e+09  5.2455134862377541e+10  4.5882267235257141e+11  2.8861451045667365e+11  1.0866104718929805e+11  1.1619046964758835e+11  3.0722160820107031e+11  4.0710136200536444e+11  5.4106378304775932e+10  1.1498097297195676e+11  -3.6535498653538440e+11  -1.7934352863347523e+09  -3.6623638420795898e+11  -7.7312234761872351e+11  2.9779648489312610e+11  9.2829391809534348e+10  -2.7627395497611334e+11  -2.1888852934602747e+11  -2.9231849888920929e+11  -1.0269281812155719e+11  -6.0972356708610870e+10  -2.5839097121186850e+11  -3.1902430368532551e+10  -2.3827219957226952e+10  -7.4445375114870214e+09  2.2766689109187565e+10  -1.9194612834782007e+11  2.4945226854724463e+11  -3.1308283410491425e+11  -1.9242996263650000e+11  -5.3494128297714233e+10  3.1126772054547980e+11  1.2666127154361689e+10  -9.9505116902634506e+10  -1.8866316089698044e+11  -2.2423590706894629e+11  -2.8950461786516382e+11  -1.0583015166568796e+11  3.2137736721599380e+10  -2.0067467771403915e+10  -4.0865216670382095e+10  -4.3356960682659058e+10  -1.5128929242044359e+10  1.8099629421494070e+11  -3.2516537612934853e+10  -1.2845632647603899e+11  -4.5974380116600159e+10  -9.6603277360157806e+10  -7.5166375785301804e+10  -2.3160330822657733e+09  2.9276229090137009e+10  2.0387200857887272e+10  3.3005573426135124e+10  -1.1756818484518436e+11  -1.3960564818338162e+11  -1.2048443124959306e+11  4.5128286254115887e+11  5.8468221167688977e+11  1.2171973774542970e+11  -6.5700308426025490e+10  -7.7390499010786804e+11  9.1514494868312363e+10  4.4224707564000659e+11  1.9957166701051228e+10  1.3723567054915749e+11  3.3544677002613531e+11  1.0434541573342998e+12  6.7570672539362877e+10  2.9043750655313397e+11  1.6869409994551996e+11  -3.9023745658870197e+11  1.6384107040943390e+11  -7.0939742856531897e+11  -7.1005172005154419e+10  -4.3781475989091895e+11  1.8183364768481937e+10  2.6788527589262036e+11  -2.6496836158364441e+11  6.8781394929791504e+11  3.9900460963545862e+11  1.8698370881183746e+11  -4.1164012502798083e+11  1.9828685107395477e+11  1.0969587452422891e+12  1.8848283308937027e+11  3.4236702972685431e+11  2.5470930533441782e+11  -1.3486566385191014e+11  3.4474527594044678e+11  -3.7795263106176666e+11  -2.9785869180600220e+11  2.1178260904386490e+11  -7.9942529890461218e+11  -9.4332157126893872e+11  -6.5897722633693811e+11  -3.5631109517002032e+11  -1.6775130003426117e+11  -3.3870805951117010e+11  -2.2222407610280099e+11  -3.8803679497502435e+11  -1.2072489115737173e+11  -3.0349929679664996e+11  -1.1051783046148659e+11  -9.1631041130865250e+10  -2.3630936661208728e+11  -3.0232319260135815e+11  -1.0265534745592738e+11  2.7308399481193668e+11  -1.0452455955589235e+11  5.8357743607130608e+10  -2.8852181415139111e+11  2.7790198400313560e+10  8.8374209781068130e+10  -3.2840126384466213e+10  -1.2285911495033800e+11  -6.1769797429326729e+10  -2.0627910597735245e+11  -1.0305000861318816e+11  -1.1251687645749523e+10  4.2571640808625569e+09  -1.7530696011981218e+09  -3.7350924959714928e+10  9.1142948820270958e+09  -4.4928043177500648e+10  -1.7550613960801752e+11  -4.5044100079995438e+10  4.2224892091394531e+10  -7.5763897433229401e+10  -9.6634156801343231e+09  1.0372297416750029e+10  1.5228788297793042e+11  -7.0489705026813478e+09  -1.3108955760564177e+10  5.6710799101903276e+09  -2.7872027588549610e+10  3.1507212457340935e+10  2.2388112621669491e+10  4.5717264428800873e+11  4.9988263424251556e+11  3.6106591085692566e+11  -1.1590019999544829e+11  -1.9142425879096710e+11  2.8787367202546649e+11  3.8389779093966705e+11  1.9781758026538068e+11  -1.3434561558372707e+10  2.2234633480565922e+10  8.8484072306638647e+11  5.2578243659486255e+11  2.2440324816704791e+11  7.5819843739218042e+11  3.2667900436484386e+10  9.0972603288642798e+11  9.6641666236690582e+10  -2.2738695099819836e+11  -3.0204993006197760e+11  2.6100971951848999e+11  1.2486516653217023e+11  3.0278389022673175e+11  1.9157414771944547e+11  1.0075593944357347e+12  3.4372915593915092e+10  1.6483505142879047e+11  2.9136710436182690e+11  1.6108825084735690e+11  7.5422232322091064e+11  2.7681633233587531e+11  2.7455701266914746e+11  1.3032936715303419e+11  -3.3666786143223853e+11  -1.3044451461016550e+12  -3.4753594947019098e+11  -9.2586281799367615e+11  4.3207153940917618e+10  -1.2589596023667784e+11  -2.7628900598913403e+11  -1.5409654321070276e+11  -1.5830102898894980e+11  6.3557336909557556e+10  -2.9099422911166534e+11  -3.5912654477849310e+11  -3.9471148328004767e+11  -2.8269475543745721e+11  -4.5001464716143231e+11  -1.2903750282516785e+11  -2.6146030182426685e+11  3.0028473171352348e+10  -1.2429499801176264e+10  -8.6637662945482620e+10  -1.7301345343321346e+10  -3.4294549596274744e+11  -2.2624623062854755e+11  -7.4310012735726242e+10  2.8993365959665631e+11  6.9378856475588562e+10  1.0696345400914482e+10  -8.2554691590937302e+10  -1.0973840757047295e+11  -3.0219977967479057e+10  -2.7499486443330544e+10  -5.2573416423526901e+10  3.9956362093465073e+10  -1.8266227387429482e+10  -7.0015688218170309e+09  2.1537009553507090e+09  -4.3870014950475471e+10  2.4634235547670086e+10  1.4059975085657925e+11  -1.9143053116087551e+10  -8.7518276961142746e+10  6.2790477510017044e+10  5.9769430328048721e+10  1.2670157356500972e+11  -5.7652380714686409e+10  1.9044995259198116e+10  -5.3707297104112644e+09  1.6891334464319874e+10  1.1931549455922160e+11  2.8934095500998145e+11  3.8532061763942871e+11  -1.3484962405023927e+11  4.6021969231313652e+10  -2.7552837545002594e+11  2.4734268603075794e+10  1.7239208013202118e+11  4.6217723138033679e+11  6.1315544278126160e+10  8.6911585663936829e+11  5.5974943386316260e+11  -1.0537368185049170e+11  5.5616599302714941e+11  3.5981673772640631e+11  6.0832285774134827e+11  1.3529038080435054e+11  5.4549073818346167e+11  -2.3417032478913684e+11  -3.0722010314659595e+10  1.1685078189505403e+11  4.1161971776865137e+11  2.4428281145270715e+11  3.7994491418759875e+11  1.4927603957373264e+11  9.6268631045801379e+11  2.0199581515321649e+11  5.7080617261350671e+11  1.8542993618018442e+11  3.2651322292467151e+11  -6.9180753599069901e+10  4.7454912619229242e+11  9.6807784227516830e+10  6.4532947064210876e+11  8.4212284490555579e+11  -3.0442350677306390e+11  3.0019058698713647e+11  -6.7036442471930107e+10  -5.5223084667765247e+11  -2.6781803307315353e+11  -6.9869704536824609e+11  -5.2232999660988904e+11  4.9992136482542229e+10  -3.3012018930187006e+09  -5.1078121845935278e+11  -4.6602929322203392e+10  -4.3648830881515668e+11  3.4596319150540909e+10  -3.4663424298838525e+11  2.4199922439396478e+11  1.8374826409385114e+11  -1.0894492400599379e+11  -3.8478922294848151e+09  -1.3151655310902541e+11  1.4605246916937298e+10  -9.5513177012649872e+10  2.3791831417724442e+11  8.0755210964459015e+10  3.7422133227264534e+10  -2.2405808512587250e+10  -2.0977986707486133e+11  -3.4453381671290076e+11  3.9940449902754395e+10  -2.1598203509890543e+11  -5.0934277141156166e+10  -2.0819130968218884e+10  4.3719678912950287e+10  -7.6760785375677460e+10  1.1284156033813280e+11  -1.1334801488568919e+11  5.7541750735241730e+10  1.6502229618272623e+10  8.5055750141398010e+10  -7.7121360458658966e+10  7.8639054531641960e+09  3.1565043613208523e+10  8.6716002096982910e+10  7.5173987723286957e+10  -1.5639778135717768e+10  1.9772709817573177e+10  -1.6507062676193027e+10  -1.1835223488322575e+11  4.8338895654753790e+11  8.0922007797004626e+11  -1.2680919377156989e+11  -6.4582474481654678e+10  9.0163681363022118e+09  3.1535439886139381e+10  7.5497309259899475e+11  2.8343266039091174e+11  1.6295317364724527e+11  4.1180783703679541e+11  2.5965850371956180e+11  -1.8357268078198926e+11  -1.2584475338686629e+11  4.3555814645778796e+11  4.3911572564561432e+10  2.4107242753701874e+11  8.5820361739063599e+10  2.7220456635040018e+11  -2.2249287527857843e+11  4.3609256416131537e+11  5.4324382086652649e+11  -1.6523672439800107e+11  -9.2513173355001343e+10  1.4318663364396954e+11  -1.6954871436565546e+11  3.8430890912508856e+11  3.7504169711917975e+11  5.3311293374615210e+11  1.1362574830034703e+11  3.4364632266148779e+11  8.0018530809136462e+11  5.8622822039339209e+11  6.5893894883845850e+11  1.5650415523665442e+11  2.2465830269844177e+11  3.1687899040133710e+11  -6.2703419039057983e+10  -1.3809798814505804e+11  -3.1797842735381128e+11  -5.2407833060690460e+11  -8.0227993074479980e+11  -4.7462074466516382e+11  -5.3423063780905106e+10  -2.1911215485768109e+11  -3.7119050367159650e+11  2.2077631699037509e+11  1.1771443046812860e+11  -9.9928285512634048e+10  1.8873248506416766e+11  -1.0202021049779091e+10  1.7602816001029901e+11  -7.1580923634884720e+10  7.4266606567866928e+10  8.1257096085200684e+10  -8.0160935452132248e+10  -1.8958183198602084e+11  1.9907311845717786e+11  2.2876207234528877e+10  1.5039916142817746e+11  -3.5822306264167792e+11  2.1744352716585060e+10  3.3238269854906342e+10  8.3095444019817978e+10  2.1288048753648106e+10  -4.2841146436977188e+10  -7.2560110137930191e+10  -8.2723675172913971e+10  1.0278842781382921e+11  3.6945825719621468e+10  2.8925906189497345e+10  2.5017273698352726e+10  -2.1615186102992630e+09  -1.0315795278597216e+10  -6.6329313276590569e+10  3.8818219177038857e+10  4.6025686568655479e+10  6.7736628326750870e+10  6.0919198755872917e+09  1.4689962353754572e+10  -8.0187717029983759e+08  2.5178790240960045e+10  1.6104621984836470e+10  8.0369011168744675e+10  1.0028767909664465e+11  -1.3236396403679849e+11  -1.4089102561703064e+11  4.5849780245689270e+11  2.9510220706416748e+11  4.1641662819590308e+11  -2.9338920129263696e+11  1.8501043472669611e+11  -6.9689310027244705e+10  1.2443469571076003e+11  4.0676523770068457e+11  1.3786952506684116e+11  -1.4631969323386820e+10  1.7801305499448639e+11  -4.9215958589223395e+11  5.6532065945292694e+10  2.1121074227322098e+11  1.8283152178444739e+11  -2.0537448583020081e+11  3.2641911235980841e+11  -1.5622515474993497e+11  1.6045956236081915e+11  -9.3176007627114822e+10  -2.7983027364031519e+11  -1.7455620075920099e+11  -9.0780511368600632e+10  -1.6991513118578671e+11  3.2721625694329309e+11  7.8692397436011218e+11  5.5521224060183191e+11  6.7956364668358142e+11  6.9543739328920923e+11  7.8694548984637341e+11  3.1795200939491337e+10  2.7287833314302383e+11  1.3139929303515619e+11  4.1435932771898175e+11  9.8149358897374023e+10  -3.8279566835487177e+11  -3.6319952542132532e+11  -3.4444033568666803e+11  -1.2573419111788705e+11  1.8771850551358365e+11  -7.2909902864668732e+10  -5.9769215665945030e+10  1.2994661118280348e+11  3.0348164799194843e+10  -3.2187636959892130e+09  6.2071253901625793e+10  4.0292190662505859e+11  -1.9316749546979465e+10  1.5190674966122416e+10  -6.8910608760557526e+10  -5.0913812120046761e+10  1.4585714879968384e+10  2.6489745925166409e+11  1.1055232880242343e+11  -1.9406051911345834e+11  1.0213657796847028e+11  1.5185679702826306e+11  -1.0366251719731856e+11  1.1205176092775656e+11  -8.6863587062540161e+10  5.8821261193184341e+10  -1.3280547717247974e+11  9.6896149300585571e+10  2.6019418726447742e+10  3.3036228921799778e+10  3.1752117131818680e+10  5.1836747190684242e+10  2.9820722379772583e+10  -4.7263083303294502e+10  -1.7879280503046421e+10  1.1952367921845858e+10  5.5840910413417580e+10  1.7142126931257704e+10  -1.7506198469112938e+10  -5.3878710587863932e+09  -4.4130283855349556e+10  2.0363541975389612e+11  6.2934620090976709e+11  1.9665704654088815e+11  1.8735971321304889e+11  1.6743675570524957e+11  2.6559859102755829e+11  3.4032303374117230e+11  4.2408024517746208e+10  1.9411726717578918e+10  -2.0266253108799936e+11  -4.9196870429757886e+11  1.0218185452249802e+10  -3.6864559570849556e+10  6.1731098111584314e+11  -1.3053466672835477e+11  -1.4918529389781146e+11  -4.1892432530511267e+11  6.7971445668700378e+10  -2.3275306957375912e+11  4.3513728054168378e+11  2.9382281614950081e+10  -8.8157447786268524e+10  3.2294474350776086e+11  3.7297711757035883e+11  -9.6558630570138077e+10  -1.1668072144682962e+11  1.6281308597688016e+11  1.6663573371437836e+11  6.1777904979701859e+10  2.4874265297906311e+11  5.6462720444871887e+11  -2.2761791352457837e+11  8.0283013854482031e+11  -2.0720537351936543e+10  3.6126568761376178e+11  -6.1600026980312415e+11  -6.2692782306905800e+10  4.8999985988475842e+11  5.7443858165337723e+10  -2.9224984255751770e+11  -1.1716823867051230e+11  -2.4454010864199338e+11  -2.8987920563402515e+11  -7.6473558098999832e+10  -2.5753731687526382e+11  -3.0228448086674463e+11  1.1672535242544453e+11  4.7664943133277359e+10  -8.7012495495047058e+10  1.8400481145834952e+11  2.5278813591048233e+10  2.6746392945291940e+11  2.8574968634455951e+11  1.8420537762341107e+11  5.7626106674161125e+10  -1.1142556621370181e+11  1.6485768477089551e+11  1.0872631644613416e+11  8.9954561758658325e+10  -7.7218309240388168e+10  -5.9802709648355324e+10  -1.0569984924257159e+11  -7.0719697989471054e+10  -3.0919860879503052e+10  2.3608911216043541e+10  -8.3144847408857101e+10  -2.9582878957054066e+10  -6.2483364061875221e+10  1.2849678564630815e+11  -3.4597795896391029e+10  1.2042009174704095e+11  -2.2194035730857639e+10  -7.8031681347376144e+10  5.4641995889810013e+10  -8.4646851043292866e+09  2.3673167334270065e+10  -1.7667131040879890e+10  1.7297179005973255e+10  -6.7453359145247059e+09  -1.2192681768156637e+10  -3.8813840032458275e+10  -1.9269506930189456e+11  -6.7326320490201424e+10  2.0205927485346033e+11  -3.8735827517695870e+09  5.9904832935522949e+10  3.2321464174009857e+11  -1.7958068706648273e+11  -1.4269453379726919e+10  -1.1698536910110301e+11  -4.6667897047116174e+11  -5.5618558714833435e+10  -1.4468626655468302e+09  2.2940872280164099e+11  -2.1259684598845261e+10  9.3256471322164474e+10  2.0435063346651028e+11  -7.6199460702576379e+11  1.3137746571817950e+11  5.7936613932180151e+11  -4.3048960502123566e+11  6.4259390740003300e+09  -1.0599944349336873e+11  7.8209596939004651e+11  -9.2426185941534378e+10  -4.0904260413211615e+11  -1.9611694951605826e+11  1.3083358168551224e+11  -2.1234637397792966e+11  7.1795194735078271e+11  7.2652761663627853e+10  -8.6430144570238358e+10  7.8958437027335046e+11  3.2373553292801337e+11  1.1432986045270157e+11  1.9020144519612726e+11  -1.6093707606935294e+11  -3.2845668360439081e+11  4.4585560930351129e+11  -5.6659709729048004e+10  -5.8986202081157036e+10  -3.3897104733649591e+11  -1.5415570617766766e+11  -1.7234487483967358e+11  -2.4070844626967291e+11  1.1960556365014177e+11  -1.0471147728446574e+11  1.8320224826218848e+11  -7.6213006007511307e+10  1.5151483164319025e+10  -5.2064038520264496e+10  1.6367067146335568e+11  1.1234849992688817e+11  -2.2398755859121857e+10  1.8113623211269150e+11  4.6525610631700844e+10  1.7038588241188318e+11  -1.4161030778089169e+11  -7.1041857223464279e+10  3.8555674725851357e+10  1.1733715348850212e+11  -1.0800388877920341e+11  -8.1387704845573059e+10  -7.3402496540400085e+10  4.2246732153434181e+10  1.4105290796294273e+10  3.0220376573634106e+10  -4.3072872391732819e+10  7.4205706119993011e+10  -3.3989393474145092e+10  5.5253916940114769e+10  4.5029695630524429e+10  6.1749785190354546e+10  -1.6879866955504324e+10  -4.8741094428441696e+10  -8.0937825454968977e+08  1.6087860930117231e+10  -1.7998037661013176e+10  -1.3056000120252224e+10  -3.1478431827314157e+09  -5.8050254779409037e+09  1.8031011949963641e+11  1.3693682121959875e+11  -2.0013142436775339e+11  7.6299434516684525e+10  2.5609671849228559e+09  2.7204521687844189e+10  -4.7716062240954567e+10  2.8298599806816266e+11  -1.1008516382156306e+11  -1.8871427327530930e+11  -4.8256311067077866e+10  -1.7560267007367618e+11  3.0756336471893915e+11  -7.7936499424701401e+10  3.6948720172659195e+10  -1.1420435211357089e+11  1.8474853158150018e+11  4.0337850321715492e+10  1.4751594010018558e+11  -2.6279723182430780e+11  5.1204631925799690e+10  4.2917721277552161e+11  -6.4842721372571808e+10  4.1644434206392200e+11  -9.1167303951841980e+10  -4.4007318952979408e+10  1.3417745680155834e+10  -5.7003405181750145e+10  1.2907359107119884e+11  -1.4042650117656761e+10  -2.0218241104787122e+11  3.1943558908536548e+11  -2.5176034647590784e+11  6.6677476789557642e+11  4.4154378982187048e+11  -5.0295480086135175e+11  8.1196407973632434e+11  2.6167623696684265e+10  -2.2807760899582712e+11  2.0716313403971466e+11  -1.7596865344777463e+11  6.6456297539974327e+10  -5.2495221182136414e+10  3.6084557757247620e+10  -9.0352507910714355e+10  2.6142858876868401e+10  1.4097813723234045e+11  3.3866197053734032e+10  1.5216467307055119e+10  -9.2863380851031769e+10  -5.8438686701750708e+09  4.1408384392789482e+10  -5.6128894229827988e+10  5.8192958032768654e+10  3.6178261242823593e+10  5.8919562386276077e+10  -6.2761957000390633e+10  -1.9445095829577217e+10  -1.2238204784494283e+09  -3.2018042174168019e+09  3.8976080198182098e+10  6.5613501048172089e+10  -8.5921523792550068e+09  -2.4214442515280899e+10  5.7543763853646679e+09  -1.5367665372056421e+10  -5.3498387420290918e+09  -1.1268140669698242e+10  5.5927661981285248e+09  4.6160094365039139e+09  -2.0911231240078160e+08  -2.4045914623029881e+10  -5.3912612399811125e+09  -7.4562477039427128e+09  3.1243124549733677e+09  7.8605705424482794e+09  1.5447033842081921e+10  -2.0762930077328632e+10  3.2097873197447805e+09  -6.7015032848425045e+09  1.3708968930201271e+10  5.1716277844100092e+11  6.2082869524750513e+11  1.6258700266482089e+11  4.1406015252985474e+11  1.5017556719137351e+12  -1.0527779726569382e+12  4.2594295293821948e+11  6.6202552551783545e+11  3.7440069750822241e+11  4.2704734112684253e+11  1.0883163427162932e+12  2.7563054663142767e+11  -1.7659499533577798e+12  -5.4378962828799980e+10  -6.2148837854785083e+11  6.3236739141728401e+10  -2.9450982106973035e+11  6.7258764342215686e+11  1.8848303749941122e+11  -1.2165707833867038e+11  1.9663188610559143e+10  -2.7695659349003009e+11  -3.0117460252858505e+10  8.5848087126747498e+11  3.5550101343170258e+11  -2.1265567426331979e+11  -3.5838910124206184e+10  5.5698484939737427e+11  3.8408225876877008e+11  6.2249174442864819e+11  2.5036591386502386e+11  1.2814441835678992e+11  5.3576086562008606e+11  6.7982385879780090e+11  2.3335584563772974e+11  5.6572557073422815e+11  -7.7145483908527942e+11  -6.9930736227784592e+10  -9.2697974121608386e+11  -9.0677717468414294e+11  -5.1041258599888794e+10  -1.0819659780415779e+11  -1.7845478345561969e+11  -2.8436750716896387e+11  -1.7064245862332324e+11  -8.7898330681358612e+10  -6.1613918646753578e+10  2.0638104572053436e+11  2.4299779574512409e+10  -5.9334532923330620e+10  5.8800578000815868e+09  -4.4113358337750923e+10  -4.1573036633216034e+10  1.3890530610342035e+11  -2.1678645599037222e+11  -3.5630423182587000e+11  1.9598261013024313e+11  9.9652293888603333e+10  -5.9149653684737312e+10  -7.6126797366327087e+10  -2.1471984602560843e+11  -3.3653847929138928e+11  -2.2088121495916058e+11  7.2481907347716339e+10  3.0911680214926159e+10  -4.0607802600291977e+10  -7.9819739818428680e+10  -7.4576243115924881e+10  8.3121115493360962e+10  8.2379129508037100e+09  -1.9070298999940939e+11  -1.3264897843563287e+11  -7.6289872204643738e+10  -5.4098472463542046e+10  -4.8299381183458424e+09  -8.3497153173184540e+10  1.1792139102260699e+11  5.9527440802737740e+10  2.1154212607197880e+10  -5.3639888382867973e+10  2.4627448055714044e+11  4.9822239181850616e+11  1.7380672139209103e+11  5.7095527465221184e+10  -1.15568936503030