<?xml version="1.0"?>
<VTKFile type="UnstructuredGrid"  version="0.1"  >
<UnstructuredGrid>
<Piece  NumberOfPoints="1369" NumberOfCells="2560">
<Points>
<DataArray  type="Float64"  NumberOfComponents="3"  format="ascii">0 0 0  0.75 0 0  1.5 0 0  2.25 0 0  3 0 0  3.75 0 0  4.5 0 0  5.25 0 0  6 0 0  6.75 0 0  7.5 0 0  8.25 0 0  9 0 0  9.75 0 0  10.5 0 0  11.25 0 0  12 0 0  12.75 0 0  13.5 0 0  14.25 0 0  15 0 0  15.75 0 0  16.5 0 0  17.25 0 0  18 0 0  18.75 0 0  19.5 0 0  20.25 0 0  21 0 0  21.75 0 0  22.5 0 0  23.25 0 0  24 0 0  24.75 0 0  25.5 0 0  26.25 0 0  27 0 0  27.75 0 0  28.5 0 0  29.25 0 0  30 0 0  30.75 0 0  31.5 0 0  32.25 0 0  33 0 0  33.75 0 0  34.5 0 0  35.25 0 0  36 0 0  36.75 0 0  37.5 0 0  38.25 0 0  39 0 0  39.75 0 0  40.5 0 0  41.25 0 0  42 0 0  42.75 0 0  43.5 0 0  44.25 0 0  45 0 0  45.75 0 0  46.5 0 0  47.25 0 0  48 0 0  48.75 0 0  49.5 0 0  50.25 0 0  51 0 0  51.75 0 0  52.5 0 0  53.25 0 0  54 0 0  54.75 0 0  55.5 0 0  56.25 0 0  57 0 0  57.75 0 0  58.5 0 0  59.25 0 0  60 0 0  0 0.5 0  0.75 0.5 0  1.5 0.5 0  2.25 0.5 0  3 0.5 0  3.75 0.5 0  4.5 0.5 0  5.25 0.5 0  6 0.5 0  6.75 0.5 0  7.5 0.5 0  8.25 0.5 0  9 0.5 0  9.75 0.5 0  10.5 0.5 0  11.25 0.5 0  12 0.5 0  12.75 0.5 0  13.5 0.5 0  14.25 0.5 0  15 0.5 0  15.75 0.5 0  16.5 0.5 0  17.25 0.5 0  18 0.5 0  18.75 0.5 0  19.5 0.5 0  20.25 0.5 0  21 0.5 0  21.75 0.5 0  22.5 0.5 0  23.25 0.5 0  24 0.5 0  24.75 0.5 0  25.5 0.5 0  26.25 0.5 0  27 0.5 0  27.75 0.5 0  28.5 0.5 0  29.25 0.5 0  30 0.5 0  30.75 0.5 0  31.5 0.5 0  32.25 0.5 0  33 0.5 0  33.75 0.5 0  34.5 0.5 0  35.25 0.5 0  36 0.5 0  36.75 0.5 0  37.5 0.5 0  38.25 0.5 0  39 0.5 0  39.75 0.5 0  40.5 0.5 0  41.25 0.5 0  42 0.5 0  42.75 0.5 0  43.5 0.5 0  44.25 0.5 0  45 0.5 0  45.75 0.5 0  46.5 0.5 0  47.25 0.5 0  48 0.5 0  48.75 0.5 0  49.5 0.5 0  50.25 0.5 0  51 0.5 0  51.75 0.5 0  52.5 0.5 0  53.25 0.5 0  54 0.5 0  54.75 0.5 0  55.5 0.5 0  56.25 0.5 0  57 0.5 0  57.75 0.5 0  58.5 0.5 0  59.25 0.5 0  60 0.5 0  0 1 0  0.75 1 0  1.5 1 0  2.25 1 0  3 1 0  3.75 1 0  4.5 1 0  5.25 1 0  6 1 0  6.75 1 0  7.5 1 0  8.25 1 0  9 1 0  9.75 1 0  10.5 1 0  11.25 1 0  12 1 0  12.75 1 0  13.5 1 0  14.25 1 0  15 1 0  15.75 1 0  16.5 1 0  17.25 1 0  18 1 0  18.75 1 0  19.5 1 0  20.25 1 0  21 1 0  21.75 1 0  22.5 1 0  23.25 1 0  24 1 0  24.75 1 0  25.5 1 0  26.25 1 0  27 1 0  27.75 1 0  28.5 1 0  29.25 1 0  30 1 0  30.75 1 0  31.5 1 0  32.25 1 0  33 1 0  33.75 1 0  34.5 1 0  35.25 1 0  36 1 0  36.75 1 0  37.5 1 0  38.25 1 0  39 1 0  39.75 1 0  40.5 1 0  41.25 1 0  42 1 0  42.75 1 0  43.5 1 0  44.25 1 0  45 1 0  45.75 1 0  46.5 1 0  47.25 1 0  48 1 0  48.75 1 0  49.5 1 0  50.25 1 0  51 1 0  51.75 1 0  52.5 1 0  53.25 1 0  54 1 0  54.75 1 0  55.5 1 0  56.25 1 0  57 1 0  57.75 1 0  58.5 1 0  59.25 1 0  60 1 0  0 1.5 0  0.75 1.5 0  1.5 1.5 0  2.25 1.5 0  3 1.5 0  3.75 1.5 0  4.5 1.5 0  5.25 1.5 0  6 1.5 0  6.75 1.5 0  7.5 1.5 0  8.25 1.5 0  9 1.5 0  9.75 1.5 0  10.5 1.5 0  11.25 1.5 0  12 1.5 0  12.75 1.5 0  13.5 1.5 0  14.25 1.5 0  15 1.5 0  15.75 1.5 0  16.5 1.5 0  17.25 1.5 0  18 1.5 0  18.75 1.5 0  19.5 1.5 0  20.25 1.5 0  21 1.5 0  21.75 1.5 0  22.5 1.5 0  23.25 1.5 0  24 1.5 0  24.75 1.5 0  25.5 1.5 0  26.25 1.5 0  27 1.5 0  27.75 1.5 0  28.5 1.5 0  29.25 1.5 0  30 1.5 0  30.75 1.5 0  31.5 1.5 0  32.25 1.5 0  33 1.5 0  33.75 1.5 0  34.5 1.5 0  35.25 1.5 0  36 1.5 0  36.75 1.5 0  37.5 1.5 0  38.25 1.5 0  39 1.5 0  39.75 1.5 0  40.5 1.5 0  41.25 1.5 0  42 1.5 0  42.75 1.5 0  43.5 1.5 0  44.25 1.5 0  45 1.5 0  45.75 1.5 0  46.5 1.5 0  47.25 1.5 0  48 1.5 0  48.75 1.5 0  49.5 1.5 0  50.25 1.5 0  51 1.5 0  51.75 1.5 0  52.5 1.5 0  53.25 1.5 0  54 1.5 0  54.75 1.5 0  55.5 1.5 0  56.25 1.5 0  57 1.5 0  57.75 1.5 0  58.5 1.5 0  59.25 1.5 0  60 1.5 0  0 2 0  0.75 2 0  1.5 2 0  2.25 2 0  3 2 0  3.75 2 0  4.5 2 0  5.25 2 0  6 2 0  6.75 2 0  7.5 2 0  8.25 2 0  9 2 0  9.75 2 0  10.5 2 0  11.25 2 0  12 2 0  12.75 2 0  13.5 2 0  14.25 2 0  15 2 0  15.75 2 0  16.5 2 0  17.25 2 0  18 2 0  18.75 2 0  19.5 2 0  20.25 2 0  21 2 0  21.75 2 0  22.5 2 0  23.25 2 0  24 2 0  24.75 2 0  25.5 2 0  26.25 2 0  27 2 0  27.75 2 0  28.5 2 0  29.25 2 0  30 2 0  30.75 2 0  31.5 2 0  32.25 2 0  33 2 0  33.75 2 0  34.5 2 0  35.25 2 0  36 2 0  36.75 2 0  37.5 2 0  38.25 2 0  39 2 0  39.75 2 0  40.5 2 0  41.25 2 0  42 2 0  42.75 2 0  43.5 2 0  44.25 2 0  45 2 0  45.75 2 0  46.5 2 0  47.25 2 0  48 2 0  48.75 2 0  49.5 2 0  50.25 2 0  51 2 0  51.75 2 0  52.5 2 0  53.25 2 0  54 2 0  54.75 2 0  55.5 2 0  56.25 2 0  57 2 0  57.75 2 0  58.5 2 0  59.25 2 0  60 2 0  0 2.5 0  0.75 2.5 0  1.5 2.5 0  2.25 2.5 0  3 2.5 0  3.75 2.5 0  4.5 2.5 0  5.25 2.5 0  6 2.5 0  6.75 2.5 0  7.5 2.5 0  8.25 2.5 0  9 2.5 0  9.75 2.5 0  10.5 2.5 0  11.25 2.5 0  12 2.5 0  12.75 2.5 0  13.5 2.5 0  14.25 2.5 0  15 2.5 0  15.75 2.5 0  16.5 2.5 0  17.25 2.5 0  18 2.5 0  18.75 2.5 0  19.5 2.5 0  20.25 2.5 0  21 2.5 0  21.75 2.5 0  22.5 2.5 0  23.25 2.5 0  24 2.5 0  24.75 2.5 0  25.5 2.5 0  26.25 2.5 0  27 2.5 0  27.75 2.5 0  28.5 2.5 0  29.25 2.5 0  30 2.5 0  30.75 2.5 0  31.5 2.5 0  32.25 2.5 0  33 2.5 0  33.75 2.5 0  34.5 2.5 0  35.25 2.5 0  36 2.5 0  36.75 2.5 0  37.5 2.5 0  38.25 2.5 0  39 2.5 0  39.75 2.5 0  40.5 2.5 0  41.25 2.5 0  42 2.5 0  42.75 2.5 0  43.5 2.5 0  44.25 2.5 0  45 2.5 0  45.75 2.5 0  46.5 2.5 0  47.25 2.5 0  48 2.5 0  48.75 2.5 0  49.5 2.5 0  50.25 2.5 0  51 2.5 0  51.75 2.5 0  52.5 2.5 0  53.25 2.5 0  54 2.5 0  54.75 2.5 0  55.5 2.5 0  56.25 2.5 0  57 2.5 0  57.75 2.5 0  58.5 2.5 0  59.25 2.5 0  60 2.5 0  0 3 0  0.75 3 0  1.5 3 0  2.25 3 0  3 3 0  3.75 3 0  4.5 3 0  5.25 3 0  6 3 0  6.75 3 0  7.5 3 0  8.25 3 0  9 3 0  9.75 3 0  10.5 3 0  11.25 3 0  12 3 0  12.75 3 0  13.5 3 0  14.25 3 0  15 3 0  15.75 3 0  16.5 3 0  17.25 3 0  18 3 0  18.75 3 0  19.5 3 0  20.25 3 0  21 3 0  21.75 3 0  22.5 3 0  23.25 3 0  24 3 0  24.75 3 0  25.5 3 0  26.25 3 0  27 3 0  27.75 3 0  28.5 3 0  29.25 3 0  30 3 0  30.75 3 0  31.5 3 0  32.25 3 0  33 3 0  33.75 3 0  34.5 3 0  35.25 3 0  36 3 0  36.75 3 0  37.5 3 0  38.25 3 0  39 3 0  39.75 3 0  40.5 3 0  41.25 3 0  42 3 0  42.75 3 0  43.5 3 0  44.25 3 0  45 3 0  45.75 3 0  46.5 3 0  47.25 3 0  48 3 0  48.75 3 0  49.5 3 0  50.25 3 0  51 3 0  51.75 3 0  52.5 3 0  53.25 3 0  54 3 0  54.75 3 0  55.5 3 0  56.25 3 0  57 3 0  57.75 3 0  58.5 3 0  59.25 3 0  60 3 0  0 3.5 0  0.75 3.5 0  1.5 3.5 0  2.25 3.5 0  3 3.5 0  3.75 3.5 0  4.5 3.5 0  5.25 3.5 0  6 3.5 0  6.75 3.5 0  7.5 3.5 0  8.25 3.5 0  9 3.5 0  9.75 3.5 0  10.5 3.5 0  11.25 3.5 0  12 3.5 0  12.75 3.5 0  13.5 3.5 0  14.25 3.5 0  15 3.5 0  15.75 3.5 0  16.5 3.5 0  17.25 3.5 0  18 3.5 0  18.75 3.5 0  19.5 3.5 0  20.25 3.5 0  21 3.5 0  21.75 3.5 0  22.5 3.5 0  23.25 3.5 0  24 3.5 0  24.75 3.5 0  25.5 3.5 0  26.25 3.5 0  27 3.5 0  27.75 3.5 0  28.5 3.5 0  29.25 3.5 0  30 3.5 0  30.75 3.5 0  31.5 3.5 0  32.25 3.5 0  33 3.5 0  33.75 3.5 0  34.5 3.5 0  35.25 3.5 0  36 3.5 0  36.75 3.5 0  37.5 3.5 0  38.25 3.5 0  39 3.5 0  39.75 3.5 0  40.5 3.5 0  41.25 3.5 0  42 3.5 0  42.75 3.5 0  43.5 3.5 0  44.25 3.5 0  45 3.5 0  45.75 3.5 0  46.5 3.5 0  47.25 3.5 0  48 3.5 0  48.75 3.5 0  49.5 3.5 0  50.25 3.5 0  51 3.5 0  51.75 3.5 0  52.5 3.5 0  53.25 3.5 0  54 3.5 0  54.75 3.5 0  55.5 3.5 0  56.25 3.5 0  57 3.5 0  57.75 3.5 0  58.5 3.5 0  59.25 3.5 0  60 3.5 0  0 4 0  0.75 4 0  1.5 4 0  2.25 4 0  3 4 0  3.75 4 0  4.5 4 0  5.25 4 0  6 4 0  6.75 4 0  7.5 4 0  8.25 4 0  9 4 0  9.75 4 0  10.5 4 0  11.25 4 0  12 4 0  12.75 4 0  13.5 4 0  14.25 4 0  15 4 0  15.75 4 0  16.5 4 0  17.25 4 0  18 4 0  18.75 4 0  19.5 4 0  20.25 4 0  21 4 0  21.75 4 0  22.5 4 0  23.25 4 0  24 4 0  24.75 4 0  25.5 4 0  26.25 4 0  27 4 0  27.75 4 0  28.5 4 0  29.25 4 0  30 4 0  30.75 4 0  31.5 4 0  32.25 4 0  33 4 0  33.75 4 0  34.5 4 0  35.25 4 0  36 4 0  36.75 4 0  37.5 4 0  38.25 4 0  39 4 0  39.75 4 0  40.5 4 0  41.25 4 0  42 4 0  42.75 4 0  43.5 4 0  44.25 4 0  45 4 0  45.75 4 0  46.5 4 0  47.25 4 0  48 4 0  48.75 4 0  49.5 4 0  50.25 4 0  51 4 0  51.75 4 0  52.5 4 0  53.25 4 0  54 4 0  54.75 4 0  55.5 4 0  56.25 4 0  57 4 0  57.75 4 0  58.5 4 0  59.25 4 0  60 4 0  0.375 0.25 0  1.125 0.25 0  1.875 0.25 0  2.625 0.25 0  3.375 0.25 0  4.125 0.25 0  4.875 0.25 0  5.625 0.25 0  6.375 0.25 0  7.125 0.25 0  7.875 0.25 0  8.625 0.25 0  9.375 0.25 0  10.125 0.25 0  10.875 0.25 0  11.625 0.25 0  12.375 0.25 0  13.125 0.25 0  13.875 0.25 0  14.625 0.25 0  15.375 0.25 0  16.125 0.25 0  16.875 0.25 0  17.625 0.25 0  18.375 0.25 0  19.125 0.25 0  19.875 0.25 0  20.625 0.25 0  21.375 0.25 0  22.125 0.25 0  22.875 0.25 0  23.625 0.25 0  24.375 0.25 0  25.125 0.25 0  25.875 0.25 0  26.625 0.25 0  27.375 0.25 0  28.125 0.25 0  28.875 0.25 0  29.625 0.25 0  30.375 0.25 0  31.125 0.25 0  31.875 0.25 0  32.625 0.25 0  33.375 0.25 0  34.125 0.25 0  34.875 0.25 0  35.625 0.25 0  36.375 0.25 0  37.125 0.25 0  37.875 0.25 0  38.625 0.25 0  39.375 0.25 0  40.125 0.25 0  40.875 0.25 0  41.625 0.25 0  42.375 0.25 0  43.125 0.25 0  43.875 0.25 0  44.625 0.25 0  45.375 0.25 0  46.125 0.25 0  46.875 0.25 0  47.625 0.25 0  48.375 0.25 0  49.125 0.25 0  49.875 0.25 0  50.625 0.25 0  51.375 0.25 0  52.125 0.25 0  52.875 0.25 0  53.625 0.25 0  54.375 0.25 0  55.125 0.25 0  55.875 0.25 0  56.625 0.25 0  57.375 0.25 0  58.125 0.25 0  58.875 0.25 0  59.625 0.25 0  0.375 0.75 0  1.125 0.75 0  1.875 0.75 0  2.625 0.75 0  3.375 0.75 0  4.125 0.75 0  4.875 0.75 0  5.625 0.75 0  6.375 0.75 0  7.125 0.75 0  7.875 0.75 0  8.625 0.75 0  9.375 0.75 0  10.125 0.75 0  10.875 0.75 0  11.625 0.75 0  12.375 0.75 0  13.125 0.75 0  13.875 0.75 0  14.625 0.75 0  15.375 0.75 0  16.125 0.75 0  16.875 0.75 0  17.625 0.75 0  18.375 0.75 0  19.125 0.75 0  19.875 0.75 0  20.625 0.75 0  21.375 0.75 0  22.125 0.75 0  22.875 0.75 0  23.625 0.75 0  24.375 0.75 0  25.125 0.75 0  25.875 0.75 0  26.625 0.75 0  27.375 0.75 0  28.125 0.75 0  28.875 0.75 0  29.625 0.75 0  30.375 0.75 0  31.125 0.75 0  31.875 0.75 0  32.625 0.75 0  33.375 0.75 0  34.125 0.75 0  34.875 0.75 0  35.625 0.75 0  36.375 0.75 0  37.125 0.75 0  37.875 0.75 0  38.625 0.75 0  39.375 0.75 0  40.125 0.75 0  40
[...]
<PointData  Scalars="f_8-1"> 
<DataArray  type="Float64"  Name="f_8-1"  format="ascii">-1.1501609186694900e+13  -4.4503563802589346e+12  -1.2617045645867291e+13  -4.3027702138622324e+12  -6.2303204810810977e+12  2.5281718760392939e+12  -3.2917212603177676e+12  5.2809090131802979e+12  1.4319684362321906e+13  1.0949089078649602e+13  2.0405155337837941e+13  1.2757390846512072e+13  -3.7489917653530308e+12  1.6742735360339633e+13  1.5912184151402912e+13  2.3105152032461824e+13  8.6745772358679932e+12  5.5760502340421934e+12  -1.6960741089865752e+13  2.9111011606153176e+13  -5.0687947152317617e+12  1.8883699984184209e+12  -1.5004874741136098e+13  -1.6637907432514570e+13  -1.3902262911355014e+13  -1.6917244516649611e+13  -2.8600404827898949e+13  7.8222198892795645e+12  -4.3113466428608721e+12  1.7635046811705094e+13  2.4875541341633387e+13  -3.1947088017700366e+12  -5.0287284827615635e+12  2.4359578563434770e+13  2.3752721750567934e+13  2.6922033142039602e+13  1.3532731298031719e+13  4.4345652125087852e+13  -3.3785052836722117e+13  -5.3987009498661924e+12  -9.7035541798257930e+12  -1.7204778314559318e+13  -2.4436818434280674e+12  -7.2178474864270762e+12  -1.1803524117111910e+13  -1.9515812045763103e+12  -3.2480832839140246e+13  5.9118436409956299e+12  3.5162436654847280e+12  1.4087967014716045e+13  4.0790839538524680e+13  2.9915124724336863e+13  -8.4402767681230996e+12  4.0462075735351312e+13  -4.8773049436023695e+13  3.0812570278216863e+13  -9.7847119003500031e+13  -3.8496031638396195e+13  -6.4889960019565732e+12  -7.9257836599537236e+12  4.3757513129848375e+13  6.4962138614547336e+13  2.1230985461631840e+13  1.2305453886168233e+14  -3.1642889922679102e+13  -1.2300226490758053e+13  4.0636959718674312e+13  1.3522063888747000e+14  -9.7288366923964188e+13  -4.4889083571089352e+13  -1.1699637189789408e+14  1.0518787117748677e+14  1.4791158524751419e+14  -1.5906818834477969e+12  5.2961445351529828e+13  -1.6197090914571091e+14  -2.3725345883686066e+13  1.2994662620733894e+14  -9.9487583830572406e+13  7.4779354576476641e+13  -1.5427990441064956e+14  -3.3169340761819604e+12  -1.0135508210925223e+13  -3.0894955489985923e+12  1.8585263235566846e+12  1.4832938091238582e+12  2.1557725350111514e+12  -2.0553730486132107e+12  3.1742954811174414e+12  1.1145564820329994e+13  7.0997998411585527e+12  9.9212994444019160e+12  7.2556339887299141e+12  -5.0098819728421182e+12  7.4218131068906416e+12  2.0495688852444770e+13  1.1008567328182631e+13  6.1484793667593096e+12  4.0314832873133823e+12  9.7325871741192812e+12  -8.0954997806477842e+12  -5.4269341135978857e+12  -3.3505206321586797e+12  -1.3970293674910463e+13  -1.4895907946918980e+13  -1.3090919999484012e+13  -1.2030118670477568e+13  -5.4379679296499238e+12  1.0665461293390855e+13  -1.0444238875189529e+12  2.1198704677534859e+13  1.4863009580402850e+13  -4.2373246144759165e+12  7.3741695120231348e+12  1.5676691410404943e+13  3.2199468223300902e+13  2.6120666201846637e+13  2.2827636617183344e+13  2.9617485916336723e+13  1.7558664795181998e+13  -2.5950089083358242e+13  1.5880094821175934e+13  -1.3080928303932036e+12  -1.9039897660757190e+12  -6.4606683348467510e+12  -1.4234415069654164e+13  -4.5235211654807607e+12  -8.4375896886383330e+12  -6.7606159038192637e+12  -1.3743104147621262e+13  1.8187085563031223e+13  9.7772577451147598e+12  1.3978868195369750e+13  -6.6857318135700891e+13  2.1127219657282686e+12  -5.0744653954410227e+13  -1.7890328521327570e+13  -7.0067765479930523e+13  -4.4927003316114211e+13  -2.1389327712413988e+13  -5.4368095226567469e+13  -4.4810944250926766e+13  3.9897788026598461e+13  3.1362271008536281e+13  6.2203671459922852e+13  3.7735762114134289e+13  -1.5967535877494600e+13  3.3493135646534578e+13  -3.0888461965270375e+13  -4.4558495937668914e+13  -7.6832762646384953e+13  3.7365567969288281e+13  7.3501869912760750e+13  -1.0026373603306998e+13  7.2899249762410891e+13  4.0725697189904359e+13  5.2751617423541156e+13  4.4412729445875930e+13  1.6659501912522403e+14  6.3267211881561984e+13  -1.7138488648781788e+14  9.9122701824280875e+13  -2.6774560897185728e+12  -7.0209252685650596e+12  -1.2774501485817625e+12  2.2803612131085488e+12  9.7612416035316348e+12  1.7216982052479177e+12  4.0965269212642056e+12  2.4688738921322534e+12  -1.0721733827654952e+12  1.6517060916758428e+12  6.7416373446214316e+12  3.2003181701943501e+12  2.0536232073403276e+12  6.1535458764296416e+12  1.9663348852136406e+13  9.1220088739187793e+12  1.5167598544867746e+13  1.3215487470203619e+13  -3.9047504605144513e+11  -3.5264724815609771e+12  2.2880216128636914e+12  1.1460471665977018e+13  -1.6994522922342984e+13  -6.5163873995389062e+12  -1.9891777371908758e+13  -2.5721171299353364e+12  -2.1268072955599802e+12  5.2378876480277510e+12  1.0088412304064436e+13  1.3011010893774189e+13  1.7331399252981422e+13  1.1399523439071746e+13  1.3070922974598365e+13  1.0422072283379209e+13  -4.7294636905036484e+12  2.3406575558117570e+13  2.1191071910395703e+13  1.4452807131838664e+13  1.5278562385386078e+13  -2.5391783551488257e+11  1.4471504717343223e+13  -4.9380600243771475e+12  8.7011083951762461e+12  -7.8620617121148174e+12  2.0556013978551880e+12  5.6884581337464980e+12  1.3308442401308916e+13  -7.4340969287492078e+11  -1.1503292244665441e+13  1.8704605116825332e+13  -1.4665445278092650e+13  -9.0890123440566680e+12  -3.7394544694161016e+13  2.3231594158903105e+13  -2.2382788313341941e+13  -9.4133597622059141e+12  -7.4902679476462234e+13  -6.2296894352600297e+13  -4.9912054184868193e+12  -6.8673954680465352e+12  3.3229119516135063e+12  5.3979053241134268e+12  1.8589011753619250e+12  -1.7939508199366129e+13  -5.1781131434285727e+13  -1.9161164544426512e+13  -1.3804367464292229e+13  -4.1180829198655570e+13  -5.7497758820662471e+12  2.4207741010134590e+12  2.9616103310374224e+12  8.4303007659864248e+12  -5.9001743009451547e+13  -1.2276340198272597e+14  -3.9042747270952234e+13  -3.4992024848080797e+13  2.1751474768039406e+13  2.1599773032281916e+14  4.7794102447550484e+13  -2.1063681862230453e+14  9.1779885650939188e+13  3.5035705514095591e+12  -2.5174062463371475e+12  -7.0401260542791523e+12  1.4081046665004016e+13  1.2583903429245182e+13  7.0162623850334980e+12  5.6357714993237969e+12  5.5003995695063516e+12  7.4089326602332656e+12  3.0989265047746274e+12  1.2184506431175225e+12  2.6189702292000972e+12  -7.6669108168345410e+11  1.5701969548429793e+13  9.0114176319244980e+12  9.8496463642236328e+12  1.5794340582758020e+13  7.4131458511462773e+12  -4.0461899970189141e+12  -2.9018942180523721e+12  -1.3560887613548865e+13  -3.5439575536574722e+12  -1.1525512345723283e+13  -5.6932631025995254e+12  -1.2245385176162275e+13  -7.9069567688657646e+12  1.1866668444257703e+13  6.6893529852409639e+12  2.1610542269076997e+12  5.6436228077747344e+12  1.0898478052086918e+13  9.2853660839738571e+10  1.3140996804963049e+13  1.1669905377200166e+13  8.8610753196971074e+12  -4.5929581673353691e+12  9.4129392554448730e+12  1.5721727999750979e+13  1.2053435289197654e+13  1.5084490668741025e+13  3.6617812896155776e+12  7.1016720205755215e+12  8.9712258758742017e+11  -4.8825540726962207e+11  -2.1901011166392203e+13  9.3033364207228555e+12  -6.8497991711328877e+12  4.4648208441965125e+13  1.7692652748220332e+13  -2.6328378286230348e+13  -1.1249015019530525e+12  -8.0952578719662070e+12  -2.8702687544194711e+13  -2.5032576653462692e+11  9.9889801540353691e+12  -9.9764345549618555e+12  -2.2384142852022883e+13  -1.4153387235420961e+13  -6.5606655985767320e+13  -4.9492763252591062e+13  -4.1351565791901695e+13  -3.1817613143731586e+11  6.8187596748894727e+12  -2.4680276066071551e+13  -1.0970181176494314e+14  -9.2770917727028652e+12  3.6383778211283102e+13  1.7061981240255340e+13  -3.6903108716432531e+13  -5.2659748535793066e+12  -1.3506944230499316e+13  1.7762495557430562e+13  -1.2524648751024286e+14  -5.7019904312980555e+13  1.9529101063436738e+13  -7.8446927183431469e+13  6.5615374844229742e+13  2.0431953720615531e+14  -3.6300980455801297e+13  -2.2097668566421379e+13  -1.3633863924709659e+14  2.6265927187699175e+12  -1.4349327001902639e+12  2.4542302471575103e+12  9.3874464909828887e+12  -3.7797096866097974e+11  1.2623429449158547e+13  -1.3310106194056592e+12  3.2695324954417085e+12  5.9325913447152412e+12  6.6606665345301445e+12  -7.1815118801534094e+11  4.0806681806000557e+12  1.6883587554106831e+12  1.2911960123736215e+13  1.6332643340849842e+13  9.5700212845540078e+12  1.1245104427482441e+13  2.3397484568731301e+13  -3.3694993060620312e+12  -7.9342999341237100e+12  -7.2701916591885605e+12  -4.0642690296652637e+12  -3.6379451884117273e+13  -8.9967380746565488e+12  -1.5784766476715465e+13  6.9778200850700208e+11  -6.3088897977965684e+12  -9.4769368178235779e+11  3.1438182150338921e+12  4.9996607264258223e+12  6.2962553391611025e+12  1.3984314213020047e+13  4.1825010459862139e+12  2.1788665944140262e+13  -5.0682463207207275e+12  1.9940577262755324e+13  -1.8695327135455641e+13  -1.2119186986179938e+13  2.8461074333060934e+13  1.5863237058903340e+13  9.2524353305779565e+11  8.6026836208936738e+12  6.3816036429851045e+12  1.2079934756011859e+13  1.5013414267724598e+13  1.2125787710954188e+13  -2.0337052831543379e+13  -1.0732285116422498e+13  4.1492916038660791e+12  -6.6700059221806758e+12  2.8539479975243647e+12  -2.3952634887033926e+12  -3.9762288459861016e+12  3.2911453179112578e+13  3.1269728657052090e+13  -7.9084130501478477e+12  -4.7690000718094072e+12  -6.2196328639708953e+13  -7.7099781058529500e+13  -7.9114166449484395e+12  -3.8152390933192719e+13  -4.2181462012015672e+13  2.2303910262938418e+13  -4.4145037241783281e+13  9.2032617436799023e+12  -2.7574479949947180e+13  -1.6570169839050049e+13  -4.1038146114583477e+13  -6.2239693858636102e+13  -4.7984611902375352e+13  -5.4270209947809898e+13  -3.6521117132904477e+13  -2.9567472918829602e+13  -8.3781744335558172e+13  -9.7831421292133406e+13  5.5224845886954266e+13  8.5077610197385344e+13  3.5979272860626586e+13  8.0682840478627328e+13  -1.0960046236610705e+14  3.7715156242506336e+13  -1.0991275518945050e+12  -3.1023917374480698e+12  -4.5758002558311401e+11  7.5483168707198311e+12  5.4389919495827803e+12  5.1659133018316680e+12  -2.0278133168181111e+12  1.7412302451123740e+12  9.6383284798890742e+12  1.0682551891829716e+12  5.1137608087200400e+12  9.2035546267785254e+11  4.9359391792060039e+12  3.3803757028271416e+12  8.1543161811518369e+12  1.5641106488137434e+13  2.0277398447718230e+13  7.0734151771924102e+12  7.1431779542409492e+12  -6.3394148936236875e+12  -7.0703042603344263e+11  -1.4182583647265900e+13  -4.2617506468719185e+12  1.0422187811109205e+13  -1.0917479376925316e+13  -3.1930318461208771e+11  4.0066959336384307e+12  -1.1238548682065469e+12  1.1851501786494953e+13  8.7920873440729463e+12  -1.9525938758454633e+13  8.8913915747088594e+12  1.1656150122668777e+13  -4.8994321934167303e+11  1.4676840417984686e+13  -4.5292659255159658e+12  -5.0648916550534980e+12  9.5825698594709707e+12  -1.5952560555743145e+12  7.7613621777035732e+12  1.4844863382991916e+13  1.1039490619745078e+13  6.5156707805897363e+12  -6.4635119798047178e+12  4.5223542324366125e+11  -9.8491564036205664e+12  5.5813966883874902e+11  -4.5537135957664688e+12  -4.2202761292064131e+12  -1.2053114143848143e+13  -1.4696026215259510e+13  -1.3921549397831984e+13  1.9015099578302027e+13  1.6984199193553861e+13  -1.2164321577880211e+13  9.3384491514910605e+12  -3.2549067184069129e+13  -1.0328853114163014e+13  -3.4856040335833242e+13  -1.5676856831321127e+13  -1.2357865673454754e+13  -4.7852747181445305e+13  -5.4503039100941867e+13  3.8280539933355181e+12  -1.5856187994860492e+13  1.7142885655279176e+13  -1.1268948322170244e+13  -1.8964276546373977e+13  -3.5276899649189430e+13  -1.1573347474052669e+14  -1.0394569796128736e+14  -2.7660337931822535e+13  -1.5746384663284778e+14  -8.7357720610703922e+13  -1.1246695279038064e+14  -5.9282131958792672e+13  3.0096781510383504e+13  6.0634057382240688e+13  -1.7958371786460031e+14  7.7469588922690500e+13  -5.0177815768893375e+13  1.1192898039399548e+12  1.6920940989581204e+12  -8.0693674169049395e+12  8.5638473527167217e+12  3.7601965893594546e+12  1.2058679438162471e+13  1.7068184171224661e+12  3.9340920002907832e+12  3.9329890126681631e+12  2.8523645142941016e+12  -1.0544948687585616e+12  4.2315530331964570e+12  4.8510916768633105e+12  4.0206552323801294e+12  -5.8712052737000781e+11  1.1567849060521389e+13  6.4150359338127461e+12  1.0724458965524854e+13  4.2541660625986802e+12  1.2005331002412782e+11  -1.8751067567728608e+12  -9.0963867271354277e+12  1.8943020695428668e+13  -1.3869171243261787e+12  1.2000060192919027e+13  -6.5027460291072637e+12  1.2120576716089016e+13  -7.5531439772847637e+12  -1.3817831337116344e+13  1.2999253611825553e+13  -7.9796483024276184e+11  -3.1135838756883687e+12  1.9388914865844242e+13  3.2303920727590914e+13  -8.6178413333601689e+12  -1.1443384015217064e+13  -1.5282445051606030e+12  -1.5518508178831363e+13  -1.2521055282248662e+13  -1.4232908468369727e+13  1.9200202007443445e+13  1.5537952558167385e+13  8.0315057579770742e+12  2.4172762653861904e+12  -7.5916783248205479e+12  2.5920483915413861e+11  2.9213806662512930e+12  6.1258886474384277e+12  -1.7302425589646932e+13  -1.8458160777031312e+13  1.5386860259954371e+13  -5.1047941534087484e+13  7.9115428885500922e+13  -7.8541249429391055e+12  -7.7708626544549121e+12  2.5675470899473910e+13  1.0060222833672900e+13  -5.4965035176376047e+13  -1.6382594267245785e+13  -6.2503408784146461e+13  -7.3340522525149703e+13  -5.3407205624641062e+13  -4.5214504895761797e+13  1.2129150995990613e+13  -7.9043818187777803e+12  2.2502589540636977e+13  3.8694062437146816e+12  3.8569742584469609e+13  -5.2081137147641195e+13  -1.3587493428444155e+14  -2.2780392346931398e+13  -1.8481327976742957e+13  -7.5054762547776500e+13  1.6953364194239412e+13  -1.3889288843926505e+14  -3.8682134990667648e+13  -7.6791545556209062e+13  1.8332131560702121e+13  -4.7074791202708453e+13  7.2701803271558109e+13  4.3607507567822354e+12  -6.0099791476879260e+11  1.1355813438310679e+12  -6.3913338410796230e+12  8.3358200303914375e+12  3.3534328935932495e+12  4.6509512091076816e+12  3.3970209061372163e+12  3.5009183410490991e+12  3.1492440339819232e+11  -2.3519118643633921e+12  4.7838506850697051e+12  1.4915239046726479e+12  1.8854850079903796e+12  1.9015733726370356e+12  1.5053142871341226e+12  6.2297912094881494e+12  1.4188206190986197e+13  5.8041872481108809e+12  1.3331974960418959e+13  -2.8530551271638711e+12  -8.2615313448506396e+12  3.9031125224196461e+13  -4.0488556813536299e+12  -8.7445478666813682e+12  2.0593683494122883e+13  -2.1688447641659065e+12  -2.8906500065577500e+12  -3.5584556866450337e+12  -3.1323114081756948e+12  3.4139614781148340e+12  -1.0326977367375711e+13  -7.1176088284656104e+11  -1.2741007100356609e+12  3.7010239042533234e+13  -1.6173210521314359e+13  -1.8294356177836910e+13  -7.7772195460545430e+12  -1.8622750416873051e+13  -2.0707986084399590e+13  -1.2383934809892377e+13  2.2982246099100679e+12  7.5621649261848096e+12  8.0166422542699756e+12  -4.8821648562446143e+12  9.1610278437292715e+12  -5.9152853535105557e+12  -4.0060400254817568e+12  -8.7085301828025742e+12  5.7801399753179561e+12  -1.1726080551600299e+13  1.7645346783121262e+13  2.8985684879089105e+13  2.7995178094173938e+13  5.4278502185133523e+13  9.5196662591242910e+12  -2.7192294990744262e+13  5.2067197476395180e+13  -2.0318802146255836e+13  2.9935520905927935e+12  -1.0067953576203842e+13  -1.4943960876032744e+13  8.6349996475658891e+13  -3.1146294508059465e+13  -2.8988248453128578e+13  -7.7102033995335908e+12  4.0887530307446047e+13  -1.3079581004116053e+13  2.4231599955997926e+13  -9.0476842400885703e+13  -7.0253610735642148e+13  -6.7017707238873430e+13  -1.4733671599617034e+14  1.9416604278990895e+13  -1.9299517563899725e+14  -9.5479872176015172e+13  -6.4322733171629453e+13  3.0664888551523926e+13  -1.1256263614118992e+13  2.3845684040839086e+13  5.5201736878827562e+13  7.2627894512836953e+13  -2.7694142626948447e+12  1.4149511110774231e+12  -6.2537722665396667e+11  -2.1639354241579565e+12  6.9160805574328379e+12  -6.4435818539909785e+12  -3.4435692189359688e+12  1.4454812909561441e+13  -2.8334525714280634e+11  2.3395106296495581e+12  3.9758808739664081e+11  -1.6474513328979006e+10  -1.4886443060033613e+12  1.7310925146241187e+11  -8.2835969974949846e+09  1.2662112045733477e+12  -4.6173449357800830e+12  6.5377999199706958e+11  -1.1730703888431234e+13  4.3698251962276040e+12  -2.0015895993870464e+12  -4.5651894570342834e+11  -1.4298860708430038e+11  -9.8423610003101875e+12  5.3750635009121152e+12  -1.5599841250994725e+13  5.3719403907138447e+12  6.9701656711664697e+11  -3.0348909507878208e+12  5.1519483545754678e+12  3.8173938780240986e+12  -3.8554226944915967e+12  -5.6062288372596533e+11  5.6568224578463037e+12  -1.8976608705099555e+13  8.9814032972883191e+11  2.4999343013344297e+12  -8.6750162980757168e+12  -1.5810595232488081e+12  4.7192488377779688e+12  -8.7621515508748330e+12  -1.9069922758533782e+12  7.7667609102735510e+11  -3.4657128040555254e+12  5.5219152888746611e+12  4.4274462440486768e+12  2.1751636935789429e+12  1.5988188050323971e+13  -5.7213730786695859e+12  1.3277284737745033e+13  1.9363382005095671e+12  -6.4974639178716553e+11  2.5810467330382593e+12  -1.5574772742581557e+13  -2.9385968476072373e+12  -4.2690071418701216e+12  4.3711072306499844e+13  -1.2674667140082270e+13  1.5608351761906455e+12  -1.8168372290779529e+12  -6.7728118499992891e+12  2.0198126202252848e+13  -3.2983418210884194e+12  6.2815085546463848e+12  1.5400355281497219e+13  -8.7467221096358311e+12  2.3124943708050459e+12  -3.3596087970971655e+11  -1.1309181845945590e+13  4.9715259133293766e+13  -4.2727445526491969e+13  -2.1704264704655445e+13  1.9668756271855855e+13  6.3750263698104203e+13  -5.7382980335907094e+13  1.0348390769981158e+13  1.3245962124726500e+13  2.9840047261729414e+13  -5.9802018337346781e+13  6.1523077452129125e+13  -3.2327162780645863e+13  1.1437077713638197e+13  -8.5995782293555127e+12  -1.1053763538358137e+13  -8.1070023526979590e+12  -7.5683807846443616e+11  9.7869235726071509e+11  -1.5280662697250952e+12  9.2411632534166699e+12  5.2116324174741836e+12  1.8871545062277926e+13  1.4907583311565758e+13  4.8475251957980298e+11  6.8979043397975234e+12  2.1029890332169297e+13  1.9451370096213973e+13  1.1964082199711627e+13  1.7628009021130168e+13  -2.5781786612969285e+13  4.1098843901537529e+12  1.3562484090916394e+12  -2.1271896590285935e+12  -1.2910497225006262e+13  -2.5515458398255215e+13  -2.0762863664624441e+13  -1.9037137237042430e+13  -8.2368917879458809e+12  -8.1891950534318271e+12  -3.0472439264049091e+11  1.8632205513947383e+13  2.7972200460303578e+13  1.5627563026204168e+13  -6.7281871750668018e+12  1.2278307229906221e+13  3.0099512818627965e+13  2.3454545702253547e+13  2.6952711853803770e+13  3.4962355923394777e+13  1.8820585875757086e+13  -5.1574854719746297e+13  6.9843225010197939e+12  -2.0951744212473020e+13  -4.9374818120203760e+12  -1.0268495866024627e+13  -8.8824006659810664e+12  -9.5441865127351367e+12  -1.3512291468078859e+13  -7.9699846510298848e+12  -3.9874646673368508e+13  -1.8364922490664809e+13  2.5760763971936566e+13  4.7581158544284172e+13  8.5643050323800745e+11  3.9834921451867398e+13  4.8531593400809055e+13  3.6091835182385688e+13  -4.5230468270730336e+13  -7.2433366419623406e+13  -4.1767708723072180e+13  -1.6686504340714490e+13  -6.9520836678048086e+13  3.2267058411461164e+13  9.9400657402783609e+13  9.0979672877752438e+13  1.1125203544040041e+14  5.8446338324555297e+13  1.2464103442737112e+14  4.6594815802657141e+13  4.1831612774041273e+13  -3.3950263050088215e+13  -8.6416102985274516e+13  1.8730367747230723e+13  3.9951050834618719e+13  -5.2596973400554055e+13  -1.2814992375706348e+13  1.1730043713563613e+13  -9.7984366356718812e+13  1.7651258446390281e+14  1.0602240226520495e+14  -1.9151372386420781e+13  -1.1621102972816738e+13  3.2391745004318589e+12  -3.2373848859059453e+12  -1.0484546324355765e+12  -5.0400851247433936e+12 