<?xml version="1.0"?>
<VTKFile type="UnstructuredGrid"  version="0.1"  >
<UnstructuredGrid>
<Piece  NumberOfPoints="1369" NumberOfCells="2560">
<Points>
<DataArray  type="Float64"  NumberOfComponents="3"  format="ascii">0 0 0  0.75 0 0  1.5 0 0  2.25 0 0  3 0 0  3.75 0 0  4.5 0 0  5.25 0 0  6 0 0  6.75 0 0  7.5 0 0  8.25 0 0  9 0 0  9.75 0 0  10.5 0 0  11.25 0 0  12 0 0  12.75 0 0  13.5 0 0  14.25 0 0  15 0 0  15.75 0 0  16.5 0 0  17.25 0 0  18 0 0  18.75 0 0  19.5 0 0  20.25 0 0  21 0 0  21.75 0 0  22.5 0 0  23.25 0 0  24 0 0  24.75 0 0  25.5 0 0  26.25 0 0  27 0 0  27.75 0 0  28.5 0 0  29.25 0 0  30 0 0  30.75 0 0  31.5 0 0  32.25 0 0  33 0 0  33.75 0 0  34.5 0 0  35.25 0 0  36 0 0  36.75 0 0  37.5 0 0  38.25 0 0  39 0 0  39.75 0 0  40.5 0 0  41.25 0 0  42 0 0  42.75 0 0  43.5 0 0  44.25 0 0  45 0 0  45.75 0 0  46.5 0 0  47.25 0 0  48 0 0  48.75 0 0  49.5 0 0  50.25 0 0  51 0 0  51.75 0 0  52.5 0 0  53.25 0 0  54 0 0  54.75 0 0  55.5 0 0  56.25 0 0  57 0 0  57.75 0 0  58.5 0 0  59.25 0 0  60 0 0  0 0.5 0  0.75 0.5 0  1.5 0.5 0  2.25 0.5 0  3 0.5 0  3.75 0.5 0  4.5 0.5 0  5.25 0.5 0  6 0.5 0  6.75 0.5 0  7.5 0.5 0  8.25 0.5 0  9 0.5 0  9.75 0.5 0  10.5 0.5 0  11.25 0.5 0  12 0.5 0  12.75 0.5 0  13.5 0.5 0  14.25 0.5 0  15 0.5 0  15.75 0.5 0  16.5 0.5 0  17.25 0.5 0  18 0.5 0  18.75 0.5 0  19.5 0.5 0  20.25 0.5 0  21 0.5 0  21.75 0.5 0  22.5 0.5 0  23.25 0.5 0  24 0.5 0  24.75 0.5 0  25.5 0.5 0  26.25 0.5 0  27 0.5 0  27.75 0.5 0  28.5 0.5 0  29.25 0.5 0  30 0.5 0  30.75 0.5 0  31.5 0.5 0  32.25 0.5 0  33 0.5 0  33.75 0.5 0  34.5 0.5 0  35.25 0.5 0  36 0.5 0  36.75 0.5 0  37.5 0.5 0  38.25 0.5 0  39 0.5 0  39.75 0.5 0  40.5 0.5 0  41.25 0.5 0  42 0.5 0  42.75 0.5 0  43.5 0.5 0  44.25 0.5 0  45 0.5 0  45.75 0.5 0  46.5 0.5 0  47.25 0.5 0  48 0.5 0  48.75 0.5 0  49.5 0.5 0  50.25 0.5 0  51 0.5 0  51.75 0.5 0  52.5 0.5 0  53.25 0.5 0  54 0.5 0  54.75 0.5 0  55.5 0.5 0  56.25 0.5 0  57 0.5 0  57.75 0.5 0  58.5 0.5 0  59.25 0.5 0  60 0.5 0  0 1 0  0.75 1 0  1.5 1 0  2.25 1 0  3 1 0  3.75 1 0  4.5 1 0  5.25 1 0  6 1 0  6.75 1 0  7.5 1 0  8.25 1 0  9 1 0  9.75 1 0  10.5 1 0  11.25 1 0  12 1 0  12.75 1 0  13.5 1 0  14.25 1 0  15 1 0  15.75 1 0  16.5 1 0  17.25 1 0  18 1 0  18.75 1 0  19.5 1 0  20.25 1 0  21 1 0  21.75 1 0  22.5 1 0  23.25 1 0  24 1 0  24.75 1 0  25.5 1 0  26.25 1 0  27 1 0  27.75 1 0  28.5 1 0  29.25 1 0  30 1 0  30.75 1 0  31.5 1 0  32.25 1 0  33 1 0  33.75 1 0  34.5 1 0  35.25 1 0  36 1 0  36.75 1 0  37.5 1 0  38.25 1 0  39 1 0  39.75 1 0  40.5 1 0  41.25 1 0  42 1 0  42.75 1 0  43.5 1 0  44.25 1 0  45 1 0  45.75 1 0  46.5 1 0  47.25 1 0  48 1 0  48.75 1 0  49.5 1 0  50.25 1 0  51 1 0  51.75 1 0  52.5 1 0  53.25 1 0  54 1 0  54.75 1 0  55.5 1 0  56.25 1 0  57 1 0  57.75 1 0  58.5 1 0  59.25 1 0  60 1 0  0 1.5 0  0.75 1.5 0  1.5 1.5 0  2.25 1.5 0  3 1.5 0  3.75 1.5 0  4.5 1.5 0  5.25 1.5 0  6 1.5 0  6.75 1.5 0  7.5 1.5 0  8.25 1.5 0  9 1.5 0  9.75 1.5 0  10.5 1.5 0  11.25 1.5 0  12 1.5 0  12.75 1.5 0  13.5 1.5 0  14.25 1.5 0  15 1.5 0  15.75 1.5 0  16.5 1.5 0  17.25 1.5 0  18 1.5 0  18.75 1.5 0  19.5 1.5 0  20.25 1.5 0  21 1.5 0  21.75 1.5 0  22.5 1.5 0  23.25 1.5 0  24 1.5 0  24.75 1.5 0  25.5 1.5 0  26.25 1.5 0  27 1.5 0  27.75 1.5 0  28.5 1.5 0  29.25 1.5 0  30 1.5 0  30.75 1.5 0  31.5 1.5 0  32.25 1.5 0  33 1.5 0  33.75 1.5 0  34.5 1.5 0  35.25 1.5 0  36 1.5 0  36.75 1.5 0  37.5 1.5 0  38.25 1.5 0  39 1.5 0  39.75 1.5 0  40.5 1.5 0  41.25 1.5 0  42 1.5 0  42.75 1.5 0  43.5 1.5 0  44.25 1.5 0  45 1.5 0  45.75 1.5 0  46.5 1.5 0  47.25 1.5 0  48 1.5 0  48.75 1.5 0  49.5 1.5 0  50.25 1.5 0  51 1.5 0  51.75 1.5 0  52.5 1.5 0  53.25 1.5 0  54 1.5 0  54.75 1.5 0  55.5 1.5 0  56.25 1.5 0  57 1.5 0  57.75 1.5 0  58.5 1.5 0  59.25 1.5 0  60 1.5 0  0 2 0  0.75 2 0  1.5 2 0  2.25 2 0  3 2 0  3.75 2 0  4.5 2 0  5.25 2 0  6 2 0  6.75 2 0  7.5 2 0  8.25 2 0  9 2 0  9.75 2 0  10.5 2 0  11.25 2 0  12 2 0  12.75 2 0  13.5 2 0  14.25 2 0  15 2 0  15.75 2 0  16.5 2 0  17.25 2 0  18 2 0  18.75 2 0  19.5 2 0  20.25 2 0  21 2 0  21.75 2 0  22.5 2 0  23.25 2 0  24 2 0  24.75 2 0  25.5 2 0  26.25 2 0  27 2 0  27.75 2 0  28.5 2 0  29.25 2 0  30 2 0  30.75 2 0  31.5 2 0  32.25 2 0  33 2 0  33.75 2 0  34.5 2 0  35.25 2 0  36 2 0  36.75 2 0  37.5 2 0  38.25 2 0  39 2 0  39.75 2 0  40.5 2 0  41.25 2 0  42 2 0  42.75 2 0  43.5 2 0  44.25 2 0  45 2 0  45.75 2 0  46.5 2 0  47.25 2 0  48 2 0  48.75 2 0  49.5 2 0  50.25 2 0  51 2 0  51.75 2 0  52.5 2 0  53.25 2 0  54 2 0  54.75 2 0  55.5 2 0  56.25 2 0  57 2 0  57.75 2 0  58.5 2 0  59.25 2 0  60 2 0  0 2.5 0  0.75 2.5 0  1.5 2.5 0  2.25 2.5 0  3 2.5 0  3.75 2.5 0  4.5 2.5 0  5.25 2.5 0  6 2.5 0  6.75 2.5 0  7.5 2.5 0  8.25 2.5 0  9 2.5 0  9.75 2.5 0  10.5 2.5 0  11.25 2.5 0  12 2.5 0  12.75 2.5 0  13.5 2.5 0  14.25 2.5 0  15 2.5 0  15.75 2.5 0  16.5 2.5 0  17.25 2.5 0  18 2.5 0  18.75 2.5 0  19.5 2.5 0  20.25 2.5 0  21 2.5 0  21.75 2.5 0  22.5 2.5 0  23.25 2.5 0  24 2.5 0  24.75 2.5 0  25.5 2.5 0  26.25 2.5 0  27 2.5 0  27.75 2.5 0  28.5 2.5 0  29.25 2.5 0  30 2.5 0  30.75 2.5 0  31.5 2.5 0  32.25 2.5 0  33 2.5 0  33.75 2.5 0  34.5 2.5 0  35.25 2.5 0  36 2.5 0  36.75 2.5 0  37.5 2.5 0  38.25 2.5 0  39 2.5 0  39.75 2.5 0  40.5 2.5 0  41.25 2.5 0  42 2.5 0  42.75 2.5 0  43.5 2.5 0  44.25 2.5 0  45 2.5 0  45.75 2.5 0  46.5 2.5 0  47.25 2.5 0  48 2.5 0  48.75 2.5 0  49.5 2.5 0  50.25 2.5 0  51 2.5 0  51.75 2.5 0  52.5 2.5 0  53.25 2.5 0  54 2.5 0  54.75 2.5 0  55.5 2.5 0  56.25 2.5 0  57 2.5 0  57.75 2.5 0  58.5 2.5 0  59.25 2.5 0  60 2.5 0  0 3 0  0.75 3 0  1.5 3 0  2.25 3 0  3 3 0  3.75 3 0  4.5 3 0  5.25 3 0  6 3 0  6.75 3 0  7.5 3 0  8.25 3 0  9 3 0  9.75 3 0  10.5 3 0  11.25 3 0  12 3 0  12.75 3 0  13.5 3 0  14.25 3 0  15 3 0  15.75 3 0  16.5 3 0  17.25 3 0  18 3 0  18.75 3 0  19.5 3 0  20.25 3 0  21 3 0  21.75 3 0  22.5 3 0  23.25 3 0  24 3 0  24.75 3 0  25.5 3 0  26.25 3 0  27 3 0  27.75 3 0  28.5 3 0  29.25 3 0  30 3 0  30.75 3 0  31.5 3 0  32.25 3 0  33 3 0  33.75 3 0  34.5 3 0  35.25 3 0  36 3 0  36.75 3 0  37.5 3 0  38.25 3 0  39 3 0  39.75 3 0  40.5 3 0  41.25 3 0  42 3 0  42.75 3 0  43.5 3 0  44.25 3 0  45 3 0  45.75 3 0  46.5 3 0  47.25 3 0  48 3 0  48.75 3 0  49.5 3 0  50.25 3 0  51 3 0  51.75 3 0  52.5 3 0  53.25 3 0  54 3 0  54.75 3 0  55.5 3 0  56.25 3 0  57 3 0  57.75 3 0  58.5 3 0  59.25 3 0  60 3 0  0 3.5 0  0.75 3.5 0  1.5 3.5 0  2.25 3.5 0  3 3.5 0  3.75 3.5 0  4.5 3.5 0  5.25 3.5 0  6 3.5 0  6.75 3.5 0  7.5 3.5 0  8.25 3.5 0  9 3.5 0  9.75 3.5 0  10.5 3.5 0  11.25 3.5 0  12 3.5 0  12.75 3.5 0  13.5 3.5 0  14.25 3.5 0  15 3.5 0  15.75 3.5 0  16.5 3.5 0  17.25 3.5 0  18 3.5 0  18.75 3.5 0  19.5 3.5 0  20.25 3.5 0  21 3.5 0  21.75 3.5 0  22.5 3.5 0  23.25 3.5 0  24 3.5 0  24.75 3.5 0  25.5 3.5 0  26.25 3.5 0  27 3.5 0  27.75 3.5 0  28.5 3.5 0  29.25 3.5 0  30 3.5 0  30.75 3.5 0  31.5 3.5 0  32.25 3.5 0  33 3.5 0  33.75 3.5 0  34.5 3.5 0  35.25 3.5 0  36 3.5 0  36.75 3.5 0  37.5 3.5 0  38.25 3.5 0  39 3.5 0  39.75 3.5 0  40.5 3.5 0  41.25 3.5 0  42 3.5 0  42.75 3.5 0  43.5 3.5 0  44.25 3.5 0  45 3.5 0  45.75 3.5 0  46.5 3.5 0  47.25 3.5 0  48 3.5 0  48.75 3.5 0  49.5 3.5 0  50.25 3.5 0  51 3.5 0  51.75 3.5 0  52.5 3.5 0  53.25 3.5 0  54 3.5 0  54.75 3.5 0  55.5 3.5 0  56.25 3.5 0  57 3.5 0  57.75 3.5 0  58.5 3.5 0  59.25 3.5 0  60 3.5 0  0 4 0  0.75 4 0  1.5 4 0  2.25 4 0  3 4 0  3.75 4 0  4.5 4 0  5.25 4 0  6 4 0  6.75 4 0  7.5 4 0  8.25 4 0  9 4 0  9.75 4 0  10.5 4 0  11.25 4 0  12 4 0  12.75 4 0  13.5 4 0  14.25 4 0  15 4 0  15.75 4 0  16.5 4 0  17.25 4 0  18 4 0  18.75 4 0  19.5 4 0  20.25 4 0  21 4 0  21.75 4 0  22.5 4 0  23.25 4 0  24 4 0  24.75 4 0  25.5 4 0  26.25 4 0  27 4 0  27.75 4 0  28.5 4 0  29.25 4 0  30 4 0  30.75 4 0  31.5 4 0  32.25 4 0  33 4 0  33.75 4 0  34.5 4 0  35.25 4 0  36 4 0  36.75 4 0  37.5 4 0  38.25 4 0  39 4 0  39.75 4 0  40.5 4 0  41.25 4 0  42 4 0  42.75 4 0  43.5 4 0  44.25 4 0  45 4 0  45.75 4 0  46.5 4 0  47.25 4 0  48 4 0  48.75 4 0  49.5 4 0  50.25 4 0  51 4 0  51.75 4 0  52.5 4 0  53.25 4 0  54 4 0  54.75 4 0  55.5 4 0  56.25 4 0  57 4 0  57.75 4 0  58.5 4 0  59.25 4 0  60 4 0  0.375 0.25 0  1.125 0.25 0  1.875 0.25 0  2.625 0.25 0  3.375 0.25 0  4.125 0.25 0  4.875 0.25 0  5.625 0.25 0  6.375 0.25 0  7.125 0.25 0  7.875 0.25 0  8.625 0.25 0  9.375 0.25 0  10.125 0.25 0  10.875 0.25 0  11.625 0.25 0  12.375 0.25 0  13.125 0.25 0  13.875 0.25 0  14.625 0.25 0  15.375 0.25 0  16.125 0.25 0  16.875 0.25 0  17.625 0.25 0  18.375 0.25 0  19.125 0.25 0  19.875 0.25 0  20.625 0.25 0  21.375 0.25 0  22.125 0.25 0  22.875 0.25 0  23.625 0.25 0  24.375 0.25 0  25.125 0.25 0  25.875 0.25 0  26.625 0.25 0  27.375 0.25 0  28.125 0.25 0  28.875 0.25 0  29.625 0.25 0  30.375 0.25 0  31.125 0.25 0  31.875 0.25 0  32.625 0.25 0  33.375 0.25 0  34.125 0.25 0  34.875 0.25 0  35.625 0.25 0  36.375 0.25 0  37.125 0.25 0  37.875 0.25 0  38.625 0.25 0  39.375 0.25 0  40.125 0.25 0  40.875 0.25 0  41.625 0.25 0  42.375 0.25 0  43.125 0.25 0  43.875 0.25 0  44.625 0.25 0  45.375 0.25 0  46.125 0.25 0  46.875 0.25 0  47.625 0.25 0  48.375 0.25 0  49.125 0.25 0  49.875 0.25 0  50.625 0.25 0  51.375 0.25 0  52.125 0.25 0  52.875 0.25 0  53.625 0.25 0  54.375 0.25 0  55.125 0.25 0  55.875 0.25 0  56.625 0.25 0  57.375 0.25 0  58.125 0.25 0  58.875 0.25 0  59.625 0.25 0  0.375 0.75 0  1.125 0.75 0  1.875 0.75 0  2.625 0.75 0  3.375 0.75 0  4.125 0.75 0  4.875 0.75 0  5.625 0.75 0  6.375 0.75 0  7.125 0.75 0  7.875 0.75 0  8.625 0.75 0  9.375 0.75 0  10.125 0.75 0  10.875 0.75 0  11.625 0.75 0  12.375 0.75 0  13.125 0.75 0  13.875 0.75 0  14.625 0.75 0  15.375 0.75 0  16.125 0.75 0  16.875 0.75 0  17.625 0.75 0  18.375 0.75 0  19.125 0.75 0  19.875 0.75 0  20.625 0.75 0  21.375 0.75 0  22.125 0.75 0  22.875 0.75 0  23.625 0.75 0  24.375 0.75 0  25.125 0.75 0  25.875 0.75 0  26.625 0.75 0  27.375 0.75 0  28.125 0.75 0  28.875 0.75 0  29.625 0.75 0  30.375 0.75 0  31.125 0.75 0  31.875 0.75 0  32.625 0.75 0  33.375 0.75 0  34.125 0.75 0  34.875 0.75 0  35.625 0.75 0  36.375 0.75 0  37.125 0.75 0  37.875 0.75 0  38.625 0.75 0  39.375 0.75 0  40.125 0.75 0  40
[...]
<PointData  Scalars="f_8-1"> 
<DataArray  type="Float64"  Name="f_8-1"  format="ascii">7.3600368080377979e+11  2.7182795076851597e+12  -3.4646129699989539e+11  4.4146412010715118e+11  -1.6877366455041863e+12  -1.2130477746247852e+11  2.9790679725005249e+11  3.8684838933000083e+12  -1.6881542952948210e+12  4.0522930766082123e+11  -1.8609818267275432e+12  -1.7500195146596775e+12  -3.0107013369062681e+12  1.1649843234243774e+12  -1.2663680837023845e+12  1.8564510890943790e+11  1.7607123356935554e+12  1.0037695922735876e+12  4.3346370032726996e+11  8.0357316836413208e+10  1.0114934959591281e+12  2.6483667896380490e+11  4.2377659328108240e+11  1.2842288208325481e+12  6.9163009936577881e+11  -1.1998677314426348e+12  1.3228631089291985e+12  1.6735804090819601e+11  1.8956036481069562e+11  -4.9548940384222206e+10  9.4327812760066101e+10  8.8895029839119177e+11  -1.3883149611703766e+11  3.1258879963951288e+11  3.0479015556390619e+11  -2.8291760068791498e+11  -1.1107288233099875e+12  9.6077066496213776e+10  1.0548349414278284e+11  -3.0809964702477527e+11  1.2301827636022037e+11  -8.8327788447314560e+10  4.4427462326414764e+11  7.3919367234313196e+11  -8.2155083488039697e+11  1.5288206287095579e+12  -1.2649091931684790e+11  -8.2239321034148816e+11  5.2015586897968726e+11  1.2330909017445668e+11  2.8750363213437286e+11  -4.0788851117100085e+11  -3.8384312029943066e+11  9.9157609415688477e+11  5.2825822239184619e+11  -6.3667198245652304e+09  5.2300973001382446e+11  -5.6303449447479639e+11  -9.4434095519217590e+11  2.3126365850054398e+09  -2.3268587383683444e+11  -1.6975577604440273e+12  -7.9862077045591467e+11  2.6599201325351038e+09  -7.3949013103806030e+11  -1.0463197023662793e+11  1.6544383905782644e+12  -3.1293159684782673e+10  9.9088240449244629e+11  1.0270412278736760e+12  4.9400363189044891e+11  5.6463708833838708e+11  2.6801241407348818e+12  2.7257667492743535e+12  1.5722300030711409e+12  2.2816878659349194e+12  -1.7217683067403503e+11  2.5844368837726548e+12  8.8557121428691284e+11  1.4224787633072278e+12  -1.2250320522839816e+11  1.4242429742460388e+12  3.3792112892993250e+11  1.0665758595361975e+12  1.0076219056910465e+12  -1.3785020871996995e+12  -1.2515675105315510e+12  -7.8416543319318970e+11  -6.5808549749518677e+11  4.6153512763684064e+11  -1.5468335338849019e+12  -1.8469699543465664e+12  -9.2808416931214758e+11  -4.5506791244206622e+11  -1.2622174740933062e+12  -1.1426260063187319e+12  -4.2441790265872156e+11  1.2710301541515063e+12  8.8294422799724121e+11  5.2783804338251019e+11  1.3294248854726924e+12  5.0501734264486261e+11  -8.5960365568326675e+10  1.0205936713178428e+12  2.0850162628828931e+11  1.2546279321524744e+12  9.0520114072302808e+11  7.1984647489268262e+11  4.6060297470945593e+11  2.7824462481707141e+11  -2.5631215158855069e+11  2.2522992662667987e+11  -4.1020427070709235e+11  4.9432543045471637e+11  5.5890717671505592e+10  -9.8500730629976517e+10  -1.7208054316368423e+11  -9.4890111820074353e+11  5.4436253376638397e+11  3.4258713329982428e+11  -1.3462925286374100e+11  -2.6225260998716977e+11  1.4701584450308948e+11  2.4864297743491193e+11  -2.0049167814446338e+11  6.7207680967779724e+11  7.2517376118324194e+11  4.6009125890286127e+11  7.6730609804337024e+11  -6.9685131758857471e+11  -6.2439638870060799e+10  -7.4074572324807755e+10  -4.0226780557653680e+11  -1.4665290898716226e+11  3.2952529820453888e+11  6.4451600405442175e+11  1.8420705929688049e+11  5.4628379134545898e+11  -4.5998131905630212e+11  1.1736554234316032e+11  -6.6020112297985681e+11  -1.4732204918625640e+12  -1.0995347804204131e+12  1.1266144542473932e+11  1.6421235553156094e+12  2.9175667646943170e+11  6.3337027434893054e+11  -4.5428718042241626e+11  3.5506540356302910e+10  1.3386710948084502e+12  1.9897500817567087e+11  3.3038521407388629e+11  1.1687752583684883e+12  1.4233861058968596e+12  1.5966150862737644e+12  3.0537782444710059e+12  1.9780518969118601e+12  2.4280981319065586e+12  4.0201209102679724e+11  1.3845790158786521e+12  -3.6614865001386566e+11  -1.4605867411260992e+11  -1.7574992478191025e+11  2.0663928973889653e+12  1.0194004661629527e+11  -6.9234538914366846e+11  5.3449314870531146e+11  -2.8835820702306079e+11  2.7084970409344910e+11  -3.1137530503410083e+11  -7.8889001884171899e+11  -9.2303076538324756e+11  3.7837535573838104e+11  -1.5602586543765117e+12  -4.7800252579690405e+11  -1.0775684298312629e+12  -7.9217074557652722e+11  1.3923164702266987e+12  1.2566449240956033e+12  5.4174891282767401e+11  9.2348526124408752e+11  9.1084076492025244e+11  8.4435339878519666e+11  5.4576232041980542e+11  1.2085725058620483e+12  1.4852003556965967e+12  1.2091544571596733e+12  9.1438730410366321e+11  3.4812361699910907e+11  7.2854691404291431e+11  -6.4655455268260620e+11  1.5914625270975769e+11  -7.5126793316227234e+11  7.7091410117577713e+10  5.8172233538359856e+10  7.4362080175433252e+11  -1.2700774253726284e+10  -8.4637273419910730e+11  -3.2568942609120465e+11  1.1254760020581142e+11  1.8599638290684052e+11  2.0056735586222025e+11  -3.0646996727576324e+11  -6.0991878122516443e+11  2.1057742938042865e+11  6.4978715724232654e+11  1.0012170322305177e+12  2.3353367946223389e+11  -7.4155801388748535e+10  2.8909472250385840e+11  3.7681978679079663e+11  2.1158293142764435e+10  1.2643601726490034e+10  -2.4405686240366409e+11  -3.2871209022063843e+11  5.7136779312797778e+11  -1.2130104625964540e+11  3.6997485400623102e+11  2.0833886663201401e+11  1.5855638704401221e+11  -3.7238411896562555e+11  -3.9593437351698199e+11  -3.8096198461230664e+11  -7.8518802756164185e+11  -2.7783895863987640e+11  -8.6326083258339856e+11  1.8469618076882672e+11  4.3477377381112617e+10  6.7542089296359790e+11  5.4150118300776617e+11  -1.2832954812384210e+11  5.6114078247204150e+11  -1.9928776326639804e+11  1.4051847071115790e+11  9.9252554263459021e+11  3.1987454669718086e+12  7.9812738805019543e+11  2.7766177453543213e+12  4.6879782571009631e+11  1.4400951233212988e+12  4.0374138191221265e+11  6.9742784296939136e+11  5.8608831930593689e+11  -6.7046010019870349e+11  -1.1932397858610033e+10  5.2467559790216852e+11  -9.3054789032547961e+11  -3.8173658293381128e+11  5.4737327606192680e+10  -1.6035296622062749e+12  -4.7403345086678900e+11  3.8645627131115730e+10  -3.8138196141022607e+11  1.5874896359537368e+12  -5.8684502132010156e+11  -8.1601646016694450e+09  -6.9344339462455408e+11  1.1449822445117747e+12  6.7462023811902185e+11  7.6380554457853101e+11  1.0080147618337122e+12  -9.1988417665136032e+10  3.7084496548878491e+11  -4.6077201339186127e+11  1.3229518063542261e+12  6.6686603104993677e+11  4.4927928061598370e+11  6.6980887089652344e+11  4.6476441705871881e+11  -1.7082479126631046e+11  6.1522321237872729e+11  -1.0741283234095810e+11  -2.9980981833239856e+11  -2.9744899791479968e+11  -4.6097781277690393e+11  3.6836047410489159e+10  3.2410417509204163e+11  -8.8385237523712738e+10  1.2353707878294409e+11  -2.7121078642190717e+11  -1.4187897967931290e+11  -3.1427856490548083e+11  -6.3150103889701672e+11  2.5035916200687726e+11  -9.5826919510426392e+11  4.3266365206178320e+11  8.9672732026901538e+11  6.0332640170512671e+11  4.7627140219529565e+11  1.9324538079615240e+11  4.4221243837227307e+11  6.7045558533554431e+11  -4.8145922633884442e+11  6.0025176413978096e+10  -1.6607674930355179e+11  3.1499446476538153e+11  -4.7081017773690131e+11  3.1711841299263086e+11  5.9254632715500164e+08  2.3796399981183255e+11  1.5403927428613062e+11  7.8627178919991776e+10  -1.6738738807136108e+11  -8.8697957844800342e+11  -8.8055661455369141e+11  2.2899430321725064e+11  -4.2152847118293530e+11  1.7198708930349799e+11  7.2946467855034119e+10  9.0599500117309753e+11  -1.7656820497998047e+11  2.4698434838596756e+11  4.8300352953498132e+11  9.5803061700451758e+11  -4.0967180345173615e+11  9.5913210861139481e+10  8.8445858168424243e+11  8.2881240052779529e+11  2.7287193714798364e+12  1.4208822018776890e+12  2.1308630735589358e+12  -2.7100842932220074e+11  -1.2982594099383005e+12  -1.2667196213220741e+11  9.0716997817352393e+11  -6.6693108552343677e+11  -1.5500749812839246e+12  6.8482170451130151e+11  -5.5211462561911279e+11  1.8212963786086775e+12  6.8012414396155688e+11  1.0913186440280129e+12  5.1858078130297644e+11  -1.2249624531881284e+11  -1.3586077830880537e+11  2.9431905918157770e+11  1.0779195610608029e+11  5.7232809889968152e+11  1.8522127429632050e+11  3.5801127742846198e+11  1.1161354640526331e+12  5.5200860777570166e+11  2.1569381251895120e+11  9.0596707419801245e+11  -7.7047293569327866e+10  2.9232895238329956e+11  2.7015880069080075e+11  1.1251029490750081e+12  6.7559498736152319e+11  -1.3871364054643303e+12  6.8909804437901819e+11  -1.7253495317346611e+10  3.6744182488241351e+11  9.4088497577330505e+11  -1.3162297152525750e+12  -3.7350531950365601e+11  -3.4944854353724872e+11  4.4408233361100121e+10  5.2972512064836847e+11  -4.0262884695822205e+11  -2.9423004886146362e+11  5.5763645202385510e+11  -1.0796714324753641e+11  -2.1962337572885086e+11  8.6842278470484985e+11  -4.1745830034219490e+10  -8.8294832994624603e+10  1.5112477106956360e+11  1.2534333820353635e+12  1.0285951509780027e+10  4.2266302072589648e+11  4.4126907428132574e+11  6.3460156181922951e+10  8.2126603296468979e+10  1.5475132149268356e+11  2.4068936756160065e+10  6.3848884604838928e+10  -1.1250100238755681e+12  -7.2212378410149951e+11  6.0051241081561670e+11  6.3621635262675928e+11  -5.1560357644518140e+11  -5.7149577578881042e+11  -1.1055855011530508e+12  -2.0173788264106555e+11  9.6622542360726270e+11  -3.3349299086809344e+11  -1.3085454478992036e+11  -3.1374849766476508e+11  -5.1869665704367639e+11  1.0550204996412029e+11  1.2918420235296036e+11  -1.6622707571995544e+11  2.9879204951264142e+11  9.8939538495744275e+11  -2.5066544581867047e+11  6.2676708051119421e+11  2.1673580927848391e+12  1.5829704153816643e+12  7.6838495806848206e+11  -6.9557249288004187e+11  -1.1457043741938630e+12  -1.7369133087248447e+12  6.0026654231424170e+11  -7.4966163119404907e+11  -8.5140545634802930e+11  9.5546585596755264e+10  -4.4922188257890125e+11  9.7600581695652271e+11  -5.5174349595819336e+11  7.3439374769091199e+11  1.9365517658793953e+12  7.4384458760657288e+11  1.2656281104438335e+12  -1.3781834778569126e+12  -3.1446159296993213e+11  -5.1017036343918886e+09  -6.9940418690745654e+11  2.7077214250290637e+11  4.1371312627302161e+11  1.4568778684181290e+11  -1.1639320269591670e+12  -2.3652652585643643e+11  6.2960903389566565e+11  3.8381735471004601e+10  9.2806647031924170e+11  -1.9072934646498053e+11  8.3167518128987476e+11  1.6798982709301021e+12  1.2206983229560252e+11  1.4466799071673240e+12  7.5719700210844702e+11  -4.7837468985268634e+11  5.4731707174276788e+11  4.4127354035715118e+10  7.1891963341309692e+11  1.7036040451522171e+11  -5.7021450426728784e+11  -4.4163305838450890e+10  4.5311762255373438e+11  4.5461340398396378e+10  -7.4604399196646927e+10  4.7268027200925110e+11  -1.1811828816264127e+11  4.3911069190899402e+11  -4.6942775502622626e+11  1.0454463527398529e+11  3.3192356318493488e+11  3.5310660100541344e+10  3.6330112513043628e+11  9.6664287107104114e+11  3.1723834318416394e+11  9.7586067759946582e+11  7.5232919165010208e+10  -2.7956039489632576e+10  1.0640274871705000e+11  5.7028706116441687e+11  -6.9187342491961694e+11  -2.9888316716303302e+11  -5.8659194281897194e+10  -1.6746212432844046e+11  1.0236792029530565e+12  -3.0559827288177832e+11  -8.3842460180953354e+10  -1.3035117244770073e+12  1.8451129516042549e+10  -3.9738580629096106e+11  -3.1887949420293976e+11  -4.7699485217988550e+11  1.7538534485611248e+12  -6.0340637501238916e+11  5.4367797449420189e+10  8.0909627521144348e+11  1.0794482758958913e+11  2.0891074860468243e+11  -4.5463789045346747e+11  1.5348138096078043e+11  4.6512106628079126e+11  8.5387239226557581e+11  1.8944133037529275e+12  -1.2907562470333536e+11  1.2540097766910034e+11  -9.6831039782400269e+11  7.7173319802795212e+10  -1.2665876990100237e+12  -4.3311467891151691e+11  -8.9252323294892773e+11  -1.4852955995685040e+11  1.2196377412327495e+12  -9.6683638783800259e+09  2.3255804120692938e+11  3.0813198357405084e+11  1.4322575776702239e+12  -2.9626199897116077e+11  1.5039770984593606e+12  8.9789043153457748e+10  -2.1575219296154770e+11  4.6211379223829565e+11  1.3532291692068582e+12  -6.8054862862658765e+11  6.1302083099128125e+11  -2.1175384538711401e+11  6.7462771673934937e+11  1.7996836921944800e+11  2.8291449167367828e+11  -4.2537320427810120e+10  3.2814663149826837e+11  8.8161565020378247e+11  8.1765796280416345e+11  2.0026246418369668e+12  2.0182801843462681e+12  1.5313355251602305e+12  -3.4168126709809780e+10  3.6099926969782544e+11  -5.0597861661546136e+11  4.5584401604614342e+10  5.6762023474019031e+11  5.1138717186610059e+11  5.6842870227425667e+10  -2.7457093525265326e+11  2.5693224662809207e+11  4.9080564342489697e+11  4.4086362820899872e+11  6.5161228553775183e+11  4.6721644791397198e+11  -1.3503107739027786e+11  -2.7456416208596490e+11  2.5706999457432446e+11  -2.6379475495329822e+11  1.9147767068721051e+11  3.0194280218963367e+11  7.7657772886855713e+11  8.5306667550936230e+11  6.1224824740906531e+11  4.0599080125900470e+11  -4.0934684647188275e+11  -3.7251271963599858e+09  1.7024474260560046e+11  1.8531364223675732e+10  -4.2937144524080975e+11  1.7662623140436047e+11  8.7675512304522903e+10  -2.9084198437425079e+11  2.2759133362114447e+11  -4.9924909879869135e+11  -3.3189252922390588e+11  -1.0567822041063029e+11  -2.6870366778584885e+11  -5.3127584556240143e+11  -1.9070856405684052e+11  -8.4892893355584045e+11  1.6699761055208295e+11  1.1526348436741907e+12  6.4417182827754784e+10  -3.6299341098328485e+11  -2.4661391531097537e+11  9.8124737487076770e+11  4.7999364528237036e+11  6.6451791204060181e+10  9.7705832515104272e+11  4.7623937717020068e+11  8.2768699728576221e+11  1.0845427126744813e+12  -1.8680944679232876e+12  -8.7743626429872241e+11  -4.6101301089960211e+11  -4.6462576094278265e+11  2.0356059599338196e+11  -1.6366850003075071e+12  -1.1263720892759375e+11  3.6111026778434674e+11  5.6864906982939160e+11  -4.3880827222710120e+11  1.1138771013943389e+12  -2.1460969343034058e+11  1.1665474945218933e+12  -3.8506815895785107e+11  -1.9545730442549583e+10  1.0138858727088544e+12  -2.7116616696488605e+11  4.1824197175828992e+11  3.1774343925458042e+10  -4.1337346434453865e+10  -3.5435919443480536e+11  6.8935050885302441e+11  6.1824340132820789e+11  2.1109109632464056e+11  1.6075734383178043e+11  5.5519207659427844e+11  1.1333158540248330e+12  4.2797301435852118e+11  7.2271839559471167e+11  1.2030092262638433e+12  -3.5514769019907849e+11  -7.3530319090332202e+11  9.1500033617111975e+11  9.3536043963737512e+11  1.3691403495987593e+12  7.4153859124195935e+11  5.4253040051057022e+10  -4.4095040036073212e+11  1.9397117527134015e+11  3.3356794011241589e+11  -2.5563776493121570e+11  4.9596695854199677e+11  2.8949074859251935e+11  5.6749660272706628e+11  4.2930482077907367e+11  -7.5252722415719269e+10  -1.1185641577612531e+11  2.9270429343949768e+11  2.3700722210757053e+11  6.1867177382409363e+11  1.4906411771118396e+12  6.8776297346997192e+11  -3.3630050724792346e+11  2.2860362114399014e+11  -1.3781444916958783e+11  -1.0243651718605341e+11  5.7211251610661407e+10  -2.3363197474421503e+11  -9.9609434612625275e+09  -1.4028725495655740e+11  1.3055521234605036e+10  -2.6327624968902072e+11  6.0125762116656189e+11  -1.3487891994921284e+12  -5.7489492122280159e+10  3.3383570853618091e+11  -3.6060244875339099e+11  4.2367905748569116e+11  6.7334292117897180e+11  2.3336422896722998e+11  6.5955139682968884e+11  -2.8838439633060078e+10  1.9681801592262985e+11  5.1103773956206641e+11  3.3194032275300091e+10  3.8077879496793103e+11  1.6528411606240921e+11  9.2132028643728247e+11  -4.1737074413850112e+09  1.2186794408499634e+12  -2.6921421416930322e+11  -1.0555469943990272e+12  -7.4976643690368201e+11  -5.7481683434835559e+11  -2.6903067897628204e+11  1.2749061115550947e+12  -1.8638717401125015e+12  7.2971534798962622e+11  -5.6829760453582031e+11  1.3848197477055023e+11  1.7016606463435156e+11  -1.2571927840079083e+11  2.8259671143216608e+11  -8.5870033975830139e+11  -5.1872058259878833e+11  4.4028246529814136e+11  -1.9843475987966281e+11  -2.7718813169331140e+11  5.2313825910926221e+11  -4.7884327464477264e+11  4.9222268526713989e+11  -2.2237409450475974e+11  2.9261264183740186e+11  -1.8605510587853116e+11  6.3320189839623001e+10  -2.0028545245607845e+10  2.2778098570084491e+11  -5.3596011724696236e+10  -4.5344615004521558e+11  5.0852384451958209e+11  4.3698225915765948e+11  -2.1425866229046310e+11  1.7272683926745029e+11  2.1217036951983844e+11  8.3638657323319901e+10  8.3717528728593884e+09  3.4245789188184064e+11  -2.9000396738516018e+10  9.4460037177226028e+10  1.0694080895652490e+11  1.0477873054537106e+11  -1.5652395506598776e+11  3.5764089077178809e+11  -2.2693421220790817e+11  2.4268749839518326e+11  4.9186658363221954e+10  -9.8882511360044266e+10  -3.5047990671663806e+11  1.0731379561863768e+11  -2.2421737319601129e+11  1.7307209285450244e+11  3.7712875954158069e+11  -1.0195560179696501e+11  -5.0436447002161461e+10  1.2402146696251895e+11  3.4074014310042423e+10  -9.3554496295095856e+10  1.8859732578723808e+10  1.2457022132400021e+10  -1.4643559524002118e+11  1.5137603585372836e+11  2.6729318917695981e+11  1.0096048888111899e+11  -4.1103785039022137e+11  8.6592650847457901e+10  -5.1331973403723157e+11  3.0219993055000042e+10  4.2245257816160547e+11  -2.8649821396168994e+11  -2.6516028632598896e+10  1.8873911601836279e+11  -4.7486760412127716e+11  3.2268098508375053e+09  1.3315229690993459e+11  -1.9533427485402835e+11  5.4644512019903290e+11  -3.3618438717338959e+11  3.0088266419302551e+11  7.5977788333527664e+10  -1.3669803490740022e+11  1.8511111485120029e+11  -4.9373497009500079e+11  4.6073249182350073e+11  -1.2372359958846582e+11  -1.0024419397748267e+12  7.9416562001166602e+11  -8.6855984037227539e+11  1.0098704394818871e+12  -2.0702069471168638e+12  -1.2113779092238394e+12  -1.6219643385244607e+12  -1.6218500224465491e+12  1.2650229307348867e+12  8.4034708005938062e+11  -5.0541857209499697e+12  -1.4383618772667908e+12  -3.1372562712106055e+12  -3.0276723891020083e+12  -1.7500518258295593e+12  -2.0312396687794131e+11  2.0098255088427124e+11  1.6209288919615020e+12  1.3700493151449697e+12  4.2943752005836670e+11  4.3502676508522491e+10  8.9252965115259729e+11  -6.8579704856259506e+10  3.1794737006691608e+11  1.5349308235314685e+12  7.6517763227757532e+11  3.7094474741437714e+11  2.4861111891771591e+11  1.8785311917273230e+11  3.0289097456413116e+11  3.1699172804916608e+11  3.0571517846975989e+11  -1.0816018589182195e+08  -8.7240592359949255e+11  -8.2208393204852280e+10  1.0215070604010246e+11  4.9372397056566785e+11  -4.2694525247690625e+11  -9.5239810713546313e+11  -1.1846198066103711e+12  -1.8079205030183490e+11  -7.3044320019613785e+10  6.9338496296524524e+11  1.0162324580895685e+12  4.9697166379693988e+11  7.5007819646290137e+11  2.0501466443690240e+11  9.7943335495238708e+11  6.6788669751419263e+11  -9.7835236117472046e+11  -7.5628749021699890e+10  2.4328036690976431e+11  -4.4314987676538116e+11  -1.4914394413598158e+10  -5.6626712101667419e+10  8.8045834732450195e+11  3.4522501223344971e+11  -9.0689466247812512e+11  -3.1180676744103564e+11  -1.4335825943534695e+11  -1.9048339068909687e+10  -1.9009628165430847e+11  -1.5222631219853982e+12  6.2913574942365381e+11  3.0190536026205499e+11  4.8965644066011023e+11  -2.7922056485794917e+12  -6.7706699114927051e+11  7.4699533355078687e+11  6.4293270721484778e+11  -5.3396919236144806e+11  9.6853004244108240e+11  1.3156238977548967e+11  1.2001816143845776e+12  2.7455830399106650e+12  2.4370369710677734e+12  2.6939598349630078e+12  -9.4406149140360938e+11  1.2517885041980435e+12  9.0422221101028308e+11  1.1747353354007827e+12  4.1720701495392456e+11  -2.0217901717123087e+11  1.6385910599572004e+12  1.3318925365134475e+12  3.3577036991001309e+12  -1.3590449670374536e+12  -2.6088045663919585e+12  2.7830145177256195e+11  