<?xml version="1.0"?>
<VTKFile type="UnstructuredGrid"  version="0.1"  >
<UnstructuredGrid>
<Piece  NumberOfPoints="1369" NumberOfCells="2560">
<Points>
<DataArray  type="Float64"  NumberOfComponents="3"  format="ascii">0 0 0  0.75 0 0  1.5 0 0  2.25 0 0  3 0 0  3.75 0 0  4.5 0 0  5.25 0 0  6 0 0  6.75 0 0  7.5 0 0  8.25 0 0  9 0 0  9.75 0 0  10.5 0 0  11.25 0 0  12 0 0  12.75 0 0  13.5 0 0  14.25 0 0  15 0 0  15.75 0 0  16.5 0 0  17.25 0 0  18 0 0  18.75 0 0  19.5 0 0  20.25 0 0  21 0 0  21.75 0 0  22.5 0 0  23.25 0 0  24 0 0  24.75 0 0  25.5 0 0  26.25 0 0  27 0 0  27.75 0 0  28.5 0 0  29.25 0 0  30 0 0  30.75 0 0  31.5 0 0  32.25 0 0  33 0 0  33.75 0 0  34.5 0 0  35.25 0 0  36 0 0  36.75 0 0  37.5 0 0  38.25 0 0  39 0 0  39.75 0 0  40.5 0 0  41.25 0 0  42 0 0  42.75 0 0  43.5 0 0  44.25 0 0  45 0 0  45.75 0 0  46.5 0 0  47.25 0 0  48 0 0  48.75 0 0  49.5 0 0  50.25 0 0  51 0 0  51.75 0 0  52.5 0 0  53.25 0 0  54 0 0  54.75 0 0  55.5 0 0  56.25 0 0  57 0 0  57.75 0 0  58.5 0 0  59.25 0 0  60 0 0  0 0.5 0  0.75 0.5 0  1.5 0.5 0  2.25 0.5 0  3 0.5 0  3.75 0.5 0  4.5 0.5 0  5.25 0.5 0  6 0.5 0  6.75 0.5 0  7.5 0.5 0  8.25 0.5 0  9 0.5 0  9.75 0.5 0  10.5 0.5 0  11.25 0.5 0  12 0.5 0  12.75 0.5 0  13.5 0.5 0  14.25 0.5 0  15 0.5 0  15.75 0.5 0  16.5 0.5 0  17.25 0.5 0  18 0.5 0  18.75 0.5 0  19.5 0.5 0  20.25 0.5 0  21 0.5 0  21.75 0.5 0  22.5 0.5 0  23.25 0.5 0  24 0.5 0  24.75 0.5 0  25.5 0.5 0  26.25 0.5 0  27 0.5 0  27.75 0.5 0  28.5 0.5 0  29.25 0.5 0  30 0.5 0  30.75 0.5 0  31.5 0.5 0  32.25 0.5 0  33 0.5 0  33.75 0.5 0  34.5 0.5 0  35.25 0.5 0  36 0.5 0  36.75 0.5 0  37.5 0.5 0  38.25 0.5 0  39 0.5 0  39.75 0.5 0  40.5 0.5 0  41.25 0.5 0  42 0.5 0  42.75 0.5 0  43.5 0.5 0  44.25 0.5 0  45 0.5 0  45.75 0.5 0  46.5 0.5 0  47.25 0.5 0  48 0.5 0  48.75 0.5 0  49.5 0.5 0  50.25 0.5 0  51 0.5 0  51.75 0.5 0  52.5 0.5 0  53.25 0.5 0  54 0.5 0  54.75 0.5 0  55.5 0.5 0  56.25 0.5 0  57 0.5 0  57.75 0.5 0  58.5 0.5 0  59.25 0.5 0  60 0.5 0  0 1 0  0.75 1 0  1.5 1 0  2.25 1 0  3 1 0  3.75 1 0  4.5 1 0  5.25 1 0  6 1 0  6.75 1 0  7.5 1 0  8.25 1 0  9 1 0  9.75 1 0  10.5 1 0  11.25 1 0  12 1 0  12.75 1 0  13.5 1 0  14.25 1 0  15 1 0  15.75 1 0  16.5 1 0  17.25 1 0  18 1 0  18.75 1 0  19.5 1 0  20.25 1 0  21 1 0  21.75 1 0  22.5 1 0  23.25 1 0  24 1 0  24.75 1 0  25.5 1 0  26.25 1 0  27 1 0  27.75 1 0  28.5 1 0  29.25 1 0  30 1 0  30.75 1 0  31.5 1 0  32.25 1 0  33 1 0  33.75 1 0  34.5 1 0  35.25 1 0  36 1 0  36.75 1 0  37.5 1 0  38.25 1 0  39 1 0  39.75 1 0  40.5 1 0  41.25 1 0  42 1 0  42.75 1 0  43.5 1 0  44.25 1 0  45 1 0  45.75 1 0  46.5 1 0  47.25 1 0  48 1 0  48.75 1 0  49.5 1 0  50.25 1 0  51 1 0  51.75 1 0  52.5 1 0  53.25 1 0  54 1 0  54.75 1 0  55.5 1 0  56.25 1 0  57 1 0  57.75 1 0  58.5 1 0  59.25 1 0  60 1 0  0 1.5 0  0.75 1.5 0  1.5 1.5 0  2.25 1.5 0  3 1.5 0  3.75 1.5 0  4.5 1.5 0  5.25 1.5 0  6 1.5 0  6.75 1.5 0  7.5 1.5 0  8.25 1.5 0  9 1.5 0  9.75 1.5 0  10.5 1.5 0  11.25 1.5 0  12 1.5 0  12.75 1.5 0  13.5 1.5 0  14.25 1.5 0  15 1.5 0  15.75 1.5 0  16.5 1.5 0  17.25 1.5 0  18 1.5 0  18.75 1.5 0  19.5 1.5 0  20.25 1.5 0  21 1.5 0  21.75 1.5 0  22.5 1.5 0  23.25 1.5 0  24 1.5 0  24.75 1.5 0  25.5 1.5 0  26.25 1.5 0  27 1.5 0  27.75 1.5 0  28.5 1.5 0  29.25 1.5 0  30 1.5 0  30.75 1.5 0  31.5 1.5 0  32.25 1.5 0  33 1.5 0  33.75 1.5 0  34.5 1.5 0  35.25 1.5 0  36 1.5 0  36.75 1.5 0  37.5 1.5 0  38.25 1.5 0  39 1.5 0  39.75 1.5 0  40.5 1.5 0  41.25 1.5 0  42 1.5 0  42.75 1.5 0  43.5 1.5 0  44.25 1.5 0  45 1.5 0  45.75 1.5 0  46.5 1.5 0  47.25 1.5 0  48 1.5 0  48.75 1.5 0  49.5 1.5 0  50.25 1.5 0  51 1.5 0  51.75 1.5 0  52.5 1.5 0  53.25 1.5 0  54 1.5 0  54.75 1.5 0  55.5 1.5 0  56.25 1.5 0  57 1.5 0  57.75 1.5 0  58.5 1.5 0  59.25 1.5 0  60 1.5 0  0 2 0  0.75 2 0  1.5 2 0  2.25 2 0  3 2 0  3.75 2 0  4.5 2 0  5.25 2 0  6 2 0  6.75 2 0  7.5 2 0  8.25 2 0  9 2 0  9.75 2 0  10.5 2 0  11.25 2 0  12 2 0  12.75 2 0  13.5 2 0  14.25 2 0  15 2 0  15.75 2 0  16.5 2 0  17.25 2 0  18 2 0  18.75 2 0  19.5 2 0  20.25 2 0  21 2 0  21.75 2 0  22.5 2 0  23.25 2 0  24 2 0  24.75 2 0  25.5 2 0  26.25 2 0  27 2 0  27.75 2 0  28.5 2 0  29.25 2 0  30 2 0  30.75 2 0  31.5 2 0  32.25 2 0  33 2 0  33.75 2 0  34.5 2 0  35.25 2 0  36 2 0  36.75 2 0  37.5 2 0  38.25 2 0  39 2 0  39.75 2 0  40.5 2 0  41.25 2 0  42 2 0  42.75 2 0  43.5 2 0  44.25 2 0  45 2 0  45.75 2 0  46.5 2 0  47.25 2 0  48 2 0  48.75 2 0  49.5 2 0  50.25 2 0  51 2 0  51.75 2 0  52.5 2 0  53.25 2 0  54 2 0  54.75 2 0  55.5 2 0  56.25 2 0  57 2 0  57.75 2 0  58.5 2 0  59.25 2 0  60 2 0  0 2.5 0  0.75 2.5 0  1.5 2.5 0  2.25 2.5 0  3 2.5 0  3.75 2.5 0  4.5 2.5 0  5.25 2.5 0  6 2.5 0  6.75 2.5 0  7.5 2.5 0  8.25 2.5 0  9 2.5 0  9.75 2.5 0  10.5 2.5 0  11.25 2.5 0  12 2.5 0  12.75 2.5 0  13.5 2.5 0  14.25 2.5 0  15 2.5 0  15.75 2.5 0  16.5 2.5 0  17.25 2.5 0  18 2.5 0  18.75 2.5 0  19.5 2.5 0  20.25 2.5 0  21 2.5 0  21.75 2.5 0  22.5 2.5 0  23.25 2.5 0  24 2.5 0  24.75 2.5 0  25.5 2.5 0  26.25 2.5 0  27 2.5 0  27.75 2.5 0  28.5 2.5 0  29.25 2.5 0  30 2.5 0  30.75 2.5 0  31.5 2.5 0  32.25 2.5 0  33 2.5 0  33.75 2.5 0  34.5 2.5 0  35.25 2.5 0  36 2.5 0  36.75 2.5 0  37.5 2.5 0  38.25 2.5 0  39 2.5 0  39.75 2.5 0  40.5 2.5 0  41.25 2.5 0  42 2.5 0  42.75 2.5 0  43.5 2.5 0  44.25 2.5 0  45 2.5 0  45.75 2.5 0  46.5 2.5 0  47.25 2.5 0  48 2.5 0  48.75 2.5 0  49.5 2.5 0  50.25 2.5 0  51 2.5 0  51.75 2.5 0  52.5 2.5 0  53.25 2.5 0  54 2.5 0  54.75 2.5 0  55.5 2.5 0  56.25 2.5 0  57 2.5 0  57.75 2.5 0  58.5 2.5 0  59.25 2.5 0  60 2.5 0  0 3 0  0.75 3 0  1.5 3 0  2.25 3 0  3 3 0  3.75 3 0  4.5 3 0  5.25 3 0  6 3 0  6.75 3 0  7.5 3 0  8.25 3 0  9 3 0  9.75 3 0  10.5 3 0  11.25 3 0  12 3 0  12.75 3 0  13.5 3 0  14.25 3 0  15 3 0  15.75 3 0  16.5 3 0  17.25 3 0  18 3 0  18.75 3 0  19.5 3 0  20.25 3 0  21 3 0  21.75 3 0  22.5 3 0  23.25 3 0  24 3 0  24.75 3 0  25.5 3 0  26.25 3 0  27 3 0  27.75 3 0  28.5 3 0  29.25 3 0  30 3 0  30.75 3 0  31.5 3 0  32.25 3 0  33 3 0  33.75 3 0  34.5 3 0  35.25 3 0  36 3 0  36.75 3 0  37.5 3 0  38.25 3 0  39 3 0  39.75 3 0  40.5 3 0  41.25 3 0  42 3 0  42.75 3 0  43.5 3 0  44.25 3 0  45 3 0  45.75 3 0  46.5 3 0  47.25 3 0  48 3 0  48.75 3 0  49.5 3 0  50.25 3 0  51 3 0  51.75 3 0  52.5 3 0  53.25 3 0  54 3 0  54.75 3 0  55.5 3 0  56.25 3 0  57 3 0  57.75 3 0  58.5 3 0  59.25 3 0  60 3 0  0 3.5 0  0.75 3.5 0  1.5 3.5 0  2.25 3.5 0  3 3.5 0  3.75 3.5 0  4.5 3.5 0  5.25 3.5 0  6 3.5 0  6.75 3.5 0  7.5 3.5 0  8.25 3.5 0  9 3.5 0  9.75 3.5 0  10.5 3.5 0  11.25 3.5 0  12 3.5 0  12.75 3.5 0  13.5 3.5 0  14.25 3.5 0  15 3.5 0  15.75 3.5 0  16.5 3.5 0  17.25 3.5 0  18 3.5 0  18.75 3.5 0  19.5 3.5 0  20.25 3.5 0  21 3.5 0  21.75 3.5 0  22.5 3.5 0  23.25 3.5 0  24 3.5 0  24.75 3.5 0  25.5 3.5 0  26.25 3.5 0  27 3.5 0  27.75 3.5 0  28.5 3.5 0  29.25 3.5 0  30 3.5 0  30.75 3.5 0  31.5 3.5 0  32.25 3.5 0  33 3.5 0  33.75 3.5 0  34.5 3.5 0  35.25 3.5 0  36 3.5 0  36.75 3.5 0  37.5 3.5 0  38.25 3.5 0  39 3.5 0  39.75 3.5 0  40.5 3.5 0  41.25 3.5 0  42 3.5 0  42.75 3.5 0  43.5 3.5 0  44.25 3.5 0  45 3.5 0  45.75 3.5 0  46.5 3.5 0  47.25 3.5 0  48 3.5 0  48.75 3.5 0  49.5 3.5 0  50.25 3.5 0  51 3.5 0  51.75 3.5 0  52.5 3.5 0  53.25 3.5 0  54 3.5 0  54.75 3.5 0  55.5 3.5 0  56.25 3.5 0  57 3.5 0  57.75 3.5 0  58.5 3.5 0  59.25 3.5 0  60 3.5 0  0 4 0  0.75 4 0  1.5 4 0  2.25 4 0  3 4 0  3.75 4 0  4.5 4 0  5.25 4 0  6 4 0  6.75 4 0  7.5 4 0  8.25 4 0  9 4 0  9.75 4 0  10.5 4 0  11.25 4 0  12 4 0  12.75 4 0  13.5 4 0  14.25 4 0  15 4 0  15.75 4 0  16.5 4 0  17.25 4 0  18 4 0  18.75 4 0  19.5 4 0  20.25 4 0  21 4 0  21.75 4 0  22.5 4 0  23.25 4 0  24 4 0  24.75 4 0  25.5 4 0  26.25 4 0  27 4 0  27.75 4 0  28.5 4 0  29.25 4 0  30 4 0  30.75 4 0  31.5 4 0  32.25 4 0  33 4 0  33.75 4 0  34.5 4 0  35.25 4 0  36 4 0  36.75 4 0  37.5 4 0  38.25 4 0  39 4 0  39.75 4 0  40.5 4 0  41.25 4 0  42 4 0  42.75 4 0  43.5 4 0  44.25 4 0  45 4 0  45.75 4 0  46.5 4 0  47.25 4 0  48 4 0  48.75 4 0  49.5 4 0  50.25 4 0  51 4 0  51.75 4 0  52.5 4 0  53.25 4 0  54 4 0  54.75 4 0  55.5 4 0  56.25 4 0  57 4 0  57.75 4 0  58.5 4 0  59.25 4 0  60 4 0  0.375 0.25 0  1.125 0.25 0  1.875 0.25 0  2.625 0.25 0  3.375 0.25 0  4.125 0.25 0  4.875 0.25 0  5.625 0.25 0  6.375 0.25 0  7.125 0.25 0  7.875 0.25 0  8.625 0.25 0  9.375 0.25 0  10.125 0.25 0  10.875 0.25 0  11.625 0.25 0  12.375 0.25 0  13.125 0.25 0  13.875 0.25 0  14.625 0.25 0  15.375 0.25 0  16.125 0.25 0  16.875 0.25 0  17.625 0.25 0  18.375 0.25 0  19.125 0.25 0  19.875 0.25 0  20.625 0.25 0  21.375 0.25 0  22.125 0.25 0  22.875 0.25 0  23.625 0.25 0  24.375 0.25 0  25.125 0.25 0  25.875 0.25 0  26.625 0.25 0  27.375 0.25 0  28.125 0.25 0  28.875 0.25 0  29.625 0.25 0  30.375 0.25 0  31.125 0.25 0  31.875 0.25 0  32.625 0.25 0  33.375 0.25 0  34.125 0.25 0  34.875 0.25 0  35.625 0.25 0  36.375 0.25 0  37.125 0.25 0  37.875 0.25 0  38.625 0.25 0  39.375 0.25 0  40.125 0.25 0  40.875 0.25 0  41.625 0.25 0  42.375 0.25 0  43.125 0.25 0  43.875 0.25 0  44.625 0.25 0  45.375 0.25 0  46.125 0.25 0  46.875 0.25 0  47.625 0.25 0  48.375 0.25 0  49.125 0.25 0  49.875 0.25 0  50.625 0.25 0  51.375 0.25 0  52.125 0.25 0  52.875 0.25 0  53.625 0.25 0  54.375 0.25 0  55.125 0.25 0  55.875 0.25 0  56.625 0.25 0  57.375 0.25 0  58.125 0.25 0  58.875 0.25 0  59.625 0.25 0  0.375 0.75 0  1.125 0.75 0  1.875 0.75 0  2.625 0.75 0  3.375 0.75 0  4.125 0.75 0  4.875 0.75 0  5.625 0.75 0  6.375 0.75 0  7.125 0.75 0  7.875 0.75 0  8.625 0.75 0  9.375 0.75 0  10.125 0.75 0  10.875 0.75 0  11.625 0.75 0  12.375 0.75 0  13.125 0.75 0  13.875 0.75 0  14.625 0.75 0  15.375 0.75 0  16.125 0.75 0  16.875 0.75 0  17.625 0.75 0  18.375 0.75 0  19.125 0.75 0  19.875 0.75 0  20.625 0.75 0  21.375 0.75 0  22.125 0.75 0  22.875 0.75 0  23.625 0.75 0  24.375 0.75 0  25.125 0.75 0  25.875 0.75 0  26.625 0.75 0  27.375 0.75 0  28.125 0.75 0  28.875 0.75 0  29.625 0.75 0  30.375 0.75 0  31.125 0.75 0  31.875 0.75 0  32.625 0.75 0  33.375 0.75 0  34.125 0.75 0  34.875 0.75 0  35.625 0.75 0  36.375 0.75 0  37.125 0.75 0  37.875 0.75 0  38.625 0.75 0  39.375 0.75 0  40.125 0.75 0  40
[...]
<PointData  Scalars="f_8-1"> 
<DataArray  type="Float64"  Name="f_8-1"  format="ascii">2.3117334585247217e+11  6.5636891217110193e+11  -5.7425494285830345e+10  2.1869855390373959e+11  -5.4436737703584900e+11  -3.9043613906045258e+11  7.5001768168574539e+10  1.0786694724197468e+12  -8.0355138256729041e+11  3.6250430290703131e+11  -1.2561787305358723e+12  -8.6010190047203979e+11  -1.1213690517279521e+12  4.8337586373229993e+11  -9.5564625114912708e+11  1.8198070390682648e+11  8.6118159971204529e+11  4.1712947877266486e+11  1.3186619363449757e+10  1.5164979533061310e+11  4.1813682927380792e+11  3.9468803952552246e+11  5.9290165566287280e+11  1.8065478835803299e+11  2.5482867271955148e+11  -2.1231601490901987e+12  7.8931175036894568e+11  3.8556784162237988e+11  2.0649697914164752e+11  8.1410670301413559e+10  -4.4144583306277267e+10  8.6928709837867031e+09  -1.4242727290687332e+11  -3.4057945814218890e+11  4.8496821979101501e+11  4.7636258117690315e+10  -3.7989836758315228e+11  9.8748334191114334e+10  -1.1560374370786574e+11  2.2472339450293457e+11  -5.3501238054198059e+10  5.3941445736989069e+11  1.4969352130384677e+11  6.1864065702501086e+11  -4.4985655910412331e+10  1.5094866124838755e+12  3.1235673386484851e+11  -5.6093944516279517e+11  8.6498142878424658e+11  1.6004081371063077e+11  5.7439954452771729e+11  -5.1076426092814563e+11  1.1196787753800024e+12  -2.3976668395376006e+12  -3.0738558448964331e+11  -8.0531640544836035e+11  3.2597948068641406e+11  -1.2778619086312200e+12  -1.4261633898920583e+12  -3.6116271220943555e+11  -9.9967179756733749e+10  -1.4972932462758945e+12  -1.5916924575641772e+12  -1.2078826184466047e+12  -2.6470168398758374e+11  -8.6229829268895837e+11  2.7927479452317368e+12  -4.7091692716881366e+11  1.2132575685978877e+12  1.8352557599819387e+12  7.6061723210978149e+11  9.3718562297335800e+10  2.1687622739492761e+12  3.2331985027245068e+12  1.9582052487830015e+12  2.7183676352011123e+12  2.4876962035712454e+11  3.2590834711501411e+12  1.1716577173196111e+12  1.9013763590669709e+12  -1.9282513434151999e+11  3.8004419999044922e+11  9.6268186653603363e+10  2.2131339169499310e+11  2.6641531567819574e+11  -6.0357575947438574e+11  -3.7304090851818573e+11  -4.9673336790814777e+11  -4.8455026430722260e+11  -6.4405332523788330e+10  -5.7886267703802441e+11  -1.1853395569783608e+12  -4.0682106083449927e+11  -1.8050508616412863e+11  -7.2774068379789575e+11  -6.1156584154556421e+11  -1.9739072319350842e+11  6.0133616447832910e+11  4.6461688052769122e+11  1.3113201243332849e+11  6.4382081228620679e+11  1.5351171523936032e+11  -3.8709238596077263e+10  7.7854243223747144e+11  2.1311550902523857e+10  4.0892829555350922e+11  5.2771208063781519e+11  4.0141832464881390e+11  5.1633359851028271e+11  2.0550479863811588e+11  -7.2116245229070190e+10  -2.1865419835679123e+10  -3.7066913524546344e+11  -2.1634552378424344e+11  -3.0617700600469629e+11  3.5552716446363849e+11  -2.1714819403973309e+11  -2.3003204329980637e+11  1.3417590221419911e+11  2.0962186581190347e+11  -4.6517922333461716e+10  -9.2895649721535248e+10  2.2377079870154874e+11  7.1831305355355194e+10  2.4219451112745537e+10  8.2182590450405261e+11  1.1199130374085493e+12  8.9537458762149060e+11  1.1984321904430967e+12  -5.5363320049926807e+11  2.0312315358249432e+10  2.0245701803382806e+11  -4.7676525383434631e+11  1.6011524474519293e+11  -9.3079235920396423e+11  1.1229913015837530e+10  -4.6992557386461035e+11  2.7607814625258551e+11  -8.5553103266007239e+11  -5.9684622414872034e+11  -8.9536468380361560e+11  -1.8954762827383132e+12  -8.8616436322696741e+11  2.2540558248660062e+11  2.4721386859326553e+12  3.1397038557113806e+11  8.6275504696624731e+11  -5.6077388069339404e+11  -3.2842888508279944e+11  1.7601504907054849e+12  3.4307550797031091e+11  2.4501727848226288e+11  1.3725109370569014e+12  1.4913024899963291e+12  2.2925890983280864e+12  3.5739026218954385e+12  2.5820607998379033e+12  3.1316625322978887e+12  6.9782987504388354e+11  1.6608891256699072e+12  -7.1056534450035425e+11  -1.9058839442347449e+11  -2.0169974709413428e+11  6.2748951519027173e+11  -2.4206767996327568e+10  -3.0591874363614832e+11  8.6451063268685944e+10  -2.8680218640044141e+11  3.2356293283235339e+11  -9.2526851989380249e+10  -2.2930982821189563e+11  -5.6214757595728650e+11  1.1111858538800011e+11  -1.2340554664848962e+12  -2.7933990682980078e+11  -7.2484577173054321e+11  -5.2652888387861981e+11  2.0021806521125586e+11  3.5878244265915192e+11  1.4136584729203445e+11  1.9665862993764053e+11  2.7480055015374075e+11  2.0978814706410806e+11  7.0612224765214697e+11  5.1057516666404767e+11  1.5543104433676541e+11  3.4403096122810315e+11  1.6149813509097043e+11  6.9934535516461133e+11  3.0656902644111658e+11  2.5696227784480569e+11  -1.6306565056295670e+10  -3.8050812931467102e+11  -1.6747881728359451e+11  -1.6060575044375742e+10  -2.3666383263959747e+11  2.4984659912252786e+11  -3.6841255864811401e+11  1.7414993530249548e+11  -2.2947628804167062e+11  -1.4539487239111353e+11  7.1755181725782547e+10  -1.3845449878302414e+11  -4.0440707495449609e+11  7.4599440665617233e+10  6.5630710748983374e+11  9.6013562676159387e+11  5.4021985609282648e+11  6.8535245161584192e+11  6.5235085981382678e+11  1.0664896968080537e+12  1.7765184058187741e+11  3.3158066883405090e+10  -3.6129779199484650e+11  7.9688344277016028e+11  9.6067581373746265e+11  -1.4547772012227339e+12  1.7558411391852048e+11  -4.0086062754772607e+11  -3.9214491571445613e+09  -1.0070739056226096e+12  -5.5955011320366553e+11  -6.4839203743197925e+11  -6.0310107721144287e+11  -2.7406866712270950e+11  -1.2242246690140903e+12  -1.3815353655459039e+11  -5.5415890553058850e+11  5.7922628105262769e+11  6.2741347926964136e+11  -5.0202540277682385e+11  8.7216199349862402e+11  -6.4666601947958386e+11  2.3268220692106940e+11  1.3547649917437278e+12  4.0654793440073564e+12  9.2264088959702039e+11  3.4743412471594849e+12  7.6432922879391113e+11  1.8344399943155137e+12  4.4655437215594281e+11  9.2977540154631323e+11  7.6603244169956482e+11  -2.0207962301924426e+11  -1.3274330322784396e+11  1.0705499170734029e+11  -3.5164082819650128e+11  -8.6891135236005234e+10  -7.1116779688982224e+10  -5.7036763891058411e+11  2.9653764191475081e+09  2.7668961317891327e+10  -2.7180199781909232e+11  4.7206864301325128e+11  -2.8803355131646576e+11  -2.1925271946835931e+11  -4.7899551552254779e+11  3.4001138889003247e+11  -2.4707165987460068e+10  2.7029986739923245e+11  3.4825591583161597e+11  -8.1476092751349594e+10  2.1344278840452854e+10  -4.2793103419132990e+11  9.4505459348412708e+11  5.8900877823078003e+11  7.6333987281511145e+11  4.0229653992748444e+11  6.6780273375374573e+11  -1.1745634600218782e+11  5.2699034323158142e+11  2.3606786672265839e+11  4.1313855985070209e+11  -1.9110489880801025e+11  -8.6809250512209034e+09  9.7949874988453400e+10  -2.3524346595632837e+11  5.0523488150850136e+10  4.0089722995445593e+11  -3.0092191436156332e+08  8.2012164793973907e+10  -1.5360060432147534e+11  -5.8841734439337158e+11  3.0221980636832843e+11  -9.2167803574899207e+11  2.5319222634256406e+11  8.1073364176715100e+11  1.1252273874750630e+12  1.0362845118361528e+12  8.5231752610524231e+11  1.2873646931973711e+12  8.3193846773155640e+11  -7.9244564277117844e+10  -2.8948767196413080e+11  1.5448799737899570e+11  1.1391624515154255e+12  -1.2339954693095134e+12  -4.2593233559790118e+11  1.4055828125466133e+10  -1.0062867786202106e+10  -7.7965099064902710e+10  -5.6483414225658337e+11  -1.9953889461156055e+11  -1.0007592709198059e+12  -2.7415779604039761e+11  6.3769448278301794e+11  -4.9816350868329993e+11  -8.3508438280177734e+10  2.1086051748893869e+11  1.0457469640288828e+12  -7.1563434959040198e+11  7.4161714495680206e+10  4.2605660916699115e+11  1.5089656352353142e+12  -7.5133117555657703e+11  2.1102538033455481e+11  9.7224775212963269e+11  9.9610889101476782e+11  3.5618603104428867e+12  1.7209247140279548e+12  2.7843074914586069e+12  -4.6039551927624127e+11  -1.6239301384232952e+12  -1.8724144236682086e+11  2.5654497335128140e+11  -1.8344105579511255e+11  -4.9271127778416138e+11  2.1533251705856683e+11  -1.8093162153187549e+11  7.3452027559757727e+11  2.9000505882060077e+11  4.6060185805272125e+11  1.5203413824054041e+11  1.9858985426718054e+11  -1.2000558226572032e+11  8.2031783895105225e+10  2.0381999604722586e+11  -2.6636293008376703e+11  -1.1742619867763280e+11  -2.1686413837416519e+11  1.7170070874884296e+11  1.8967385211116302e+11  7.0376280812175188e+09  1.3551102131163037e+11  -1.1419100925945032e+10  4.6025725381106555e+11  5.3115007964951453e+11  8.9388461763703613e+11  6.8745684810406860e+11  -6.7720125221269922e+11  1.2994031870796036e+11  -1.8082536356680176e+11  7.4019427238960669e+11  4.1244339762564056e+11  -3.8402319777137109e+11  3.6357449513242529e+11  3.9070922187048859e+10  -1.4522235347602539e+11  5.0740481024391888e+11  4.1733140230239487e+10  -2.1604362089079340e+11  2.0387902992225388e+11  1.1326327758581633e+10  -5.5361741187145523e+10  5.3837120695603412e+11  -1.8771102279816989e+11  -4.0485838861531052e+10  2.6848909341888074e+11  1.6596508021352961e+12  7.6383044853794177e+11  1.0476163108865782e+12  1.0739475122111917e+12  3.2096845777906403e+11  7.2572557045208447e+11  -4.7052631811001892e+11  1.1477694322545884e+12  -2.9320976324713696e+11  -7.5399782296765430e+11  -6.3007242376914648e+11  2.7391612002118576e+11  6.2717676823956177e+11  -1.2462624353709495e+12  -1.2372891285958047e+12  -1.5505472851938042e+12  -9.3579464399340256e+10  1.9836503393161479e+12  2.3371052980162564e+11  -2.2996734169887064e+11  -2.6586020525219324e+11  -4.1670972194969366e+11  -2.7017465103411075e+11  3.9290897205958606e+11  -5.9953815099723169e+11  3.6953067098409100e+11  1.3554294772599336e+12  -6.8490346130472192e+11  4.1981120816633551e+11  3.1399952482130806e+12  1.9937715020895654e+12  8.2518578546496228e+11  -8.0113456300860217e+11  -1.1368130361299131e+12  -2.0873320620964258e+12  6.1519650916332166e+11  -1.0038192121374873e+12  -1.5987346067859897e+11  8.6814490856430237e+10  -1.0763262243285779e+11  1.6926376622234415e+11  -3.9049656247470108e+10  2.5736839672851822e+11  7.7265357253730786e+11  4.3100606118453119e+11  2.8894593959217078e+11  -1.2971969464939536e+11  9.9456376368690277e+10  -7.7185206627997711e+10  -2.2463672912106061e+11  -3.5322229452151970e+10  1.4270870134484946e+11  -3.7253427095501819e+11  3.5741121905308342e+10  3.7527979982685104e+10  -7.8085359579540207e+10  2.5752201491435425e+10  4.9574683385449634e+11  -1.8681537283920052e+10  6.8459413286469189e+11  1.0535438344150660e+12  -4.8229745863611133e+11  8.8526386444071240e+11  2.2850584135755063e+11  -3.6054764650730157e+11  3.7632368981974414e+11  3.4317882692696405e+11  -6.7527276529447685e+10  4.8447765214499664e+10  -3.8940334666258234e+11  -2.0150679205230057e+10  8.8656529348905243e+10  -1.2039964040928724e+10  -3.7326120851607292e+10  1.0227439679264899e+11  -9.8242822078149277e+10  1.9472635241622745e+11  -3.3988086014349091e+11  -3.9171981244509117e+10  3.7927447081014105e+11  1.4518336038275748e+11  1.1594359935466765e+12  1.1033436032388208e+12  8.5717708880860876e+11  1.5214362523972061e+12  5.0840586176434735e+11  3.5815969399513367e+11  -2.5557261325512820e+11  5.0375018304519141e+11  -6.0197903177342419e+11  -2.2813598893836438e+11  -1.1997240562363158e+11  -4.7157342062038629e+11  1.1575500163693997e+12  -1.0226553607646862e+12  -2.2690341147285062e+11  -1.9571640826049846e+12  -5.5764243572392114e+11  1.7900839663356787e+11  1.5875497821156137e+11  -6.4563836274120178e+11  1.5828286760828442e+12  -5.6460085811607434e+11  1.0003485382123528e+11  6.3412934138562927e+11  -5.7253676436289490e+10  -5.0749626303120140e+10  -7.9223918240728247e+11  -2.3820730739490390e+11  6.9977677749865686e+11  8.4481872395073230e+11  2.5712882714727690e+12  -2.8873601860695081e+11  2.0277880375445850e+10  -1.0016291686524778e+12  -3.1012080412533836e+10  -1.6494744394741863e+12  -6.3564702587274792e+11  -3.7283174161451880e+11  1.4727733983003415e+11  2.9484900064988293e+11  1.0097826064824777e+11  8.3022488428552017e+10  2.0599909655427243e+11  6.4922297728402673e+11  4.2294272807472773e+09  6.2155042002060168e+11  1.8052177191585049e+10  1.0647415594572029e+11  1.6134591784117544e+10  4.6929294849545941e+11  -6.7574854682930359e+11  3.4076141595396466e+11  1.3860035300640038e+10  9.2326420837350254e+09  4.7654299652947632e+11  -5.0803641854966656e+11  -1.4410140012493848e+11  2.3641876048149754e+10  5.3450577669537976e+11  1.8369684137409619e+11  1.3520290649167332e+12  1.3398267124748682e+12  5.1527802232821893e+11  -3.0426018564828729e+11  -6.7381426435230186e+10  -5.4506333001003899e+10  -3.6365848524542915e+10  2.4524205236475238e+11  1.4692048592133041e+11  8.4058607997052734e+10  -3.8392709359105585e+11  -2.6386555383598572e+11  2.0660443470036807e+11  8.7973543030459457e+10  4.4655545273367566e+11  2.1700099950719238e+11  -3.5914152191642181e+11  -3.2679412978271572e+10  4.7321094691508400e+10  1.4390058870425513e+11  2.9825352721316302e+11  1.3918486626392761e+12  6.2312731751677673e+11  1.5271767370136558e+12  4.6327436372284625e+11  3.7139422618548761e+11  -6.0349311707220154e+11  -5.8897462323900162e+10  2.6113401595899072e+11  2.0622845178135806e+11  1.0918288696204683e+11  -1.0987984497002216e+11  -2.1650008063329178e+11  -6.9059446722912097e+11  -1.4552561976777509e+11  -5.7481630637624219e+11  -9.1687929651341870e+11  -1.2555330388798819e+11  1.0599314174695529e+11  -5.5798711056276147e+11  -4.2712730053977118e+11  -5.3603391301357153e+11  3.0113265131832080e+11  9.3990893794771008e+11  5.6038547563320152e+10  -1.3638075181983037e+11  -1.7291340477113251e+11  8.3497862672585474e+11  6.0934792494444031e+11  2.6956449548688074e+11  1.1026600949462429e+12  7.5081073803225208e+11  9.6909770296092261e+11  1.3040307285764346e+12  -2.3894586222603140e+12  -1.0856215946912130e+12  -7.2657422121473584e+11  -7.4963153931722095e+11  9.2626998305671936e+10  -5.4646886712064166e+11  6.6380633415795181e+10  -1.1574001605908704e+11  6.7826606510721936e+11  -4.7863045416332379e+11  6.7532797887134814e+11  -2.7192136236821326e+11  5.7769050180953613e+11  -1.1293189401004530e+11  -5.4277049822751244e+10  4.0730049042909113e+11  1.8585775109310051e+10  1.7473002323775047e+10  3.4412594059954605e+10  2.3558043015144815e+11  4.9231536794542633e+10  4.9407234672734009e+11  3.4365978907584094e+11  3.4466304872205048e+11  2.9210368097994804e+09  2.6209968281140002e+11  8.0558781571240161e+11  1.5214995604842041e+11  2.0818725434566098e+11  7.1287424722017371e+11  -2.7196482633967761e+11  -9.9262058784922943e+10  1.6331287754023492e+11  3.6728073589643219e+11  4.1121199425524457e+11  4.1044940415232812e+11  8.6530019748023682e+10  -7.7967090663202454e+11  5.1415962122981392e+10  2.5880256063158554e+11  -3.6440583276864471e+10  1.7962580829726462e+11  -4.1427459953034113e+11  3.2420286464538275e+11  3.4703959576703906e+11  3.0096797681851807e+11  -6.1692293062308728e+11  7.8311729313734204e+11  1.3054004806815785e+11  1.3231356080276824e+12  1.5485830367148042e+12  8.6871904536831982e+11  -7.1680006232623535e+11  -3.6265556775167023e+11  -7.2882488859312195e+11  -1.8404727960222894e+11  4.5202580104080121e+11  -4.6469355022821588e+11  1.4212331002657727e+11  -3.0279214236388580e+11  -5.8423278232656165e+11  -5.7743525466776013e+11  -1.1479791732687166e+11  -1.5476336839202312e+12  1.0648697721456238e+11  -3.1923995901240086e+10  -2.2224011781271210e+11  2.7307579479980255e+11  8.7571482929415430e+11  3.0582184763373083e+11  6.4500295630629932e+11  -3.2354014482197339e+11  2.4250809623905661e+11  4.1935895336040112e+11  -2.0351587136509555e+11  2.6221647156867072e+11  1.9421785470549187e+10  1.5597420971097642e+12  2.6061308373000072e+10  1.1767191743536233e+12  -3.4677812384829095e+11  -1.3930922131312454e+12  -9.7222816265664270e+11  -8.1226119943146619e+11  -3.7720837445826672e+11  6.1966140086575684e+11  -6.9121986315833350e+11  2.8543780948500049e+11  -2.4013939140099033e+11  8.3039532463987640e+10  6.2542579120921974e+10  -5.1216062406436020e+10  2.1001773110566626e+11  -4.3037366117216449e+11  -3.3067729622403723e+11  1.5891964484009088e+11  -2.1072364558568005e+10  -1.2305122418321153e+11  6.2907396114092094e+10  1.3111210194961450e+11  1.5349671818253424e+11  -2.1097435125412091e+11  1.4225118798850186e+11  -1.6029089937772665e+11  2.6191448480550941e+10  8.5341117251390762e+10  2.2148607089473611e+11  -2.6872759943646207e+11  -2.5337872612729083e+11  2.1943818425489029e+11  2.8526260100756763e+11  -9.1305601371572021e+10  1.7253910310792313e+10  1.5468741756804401e+11  -1.6680050445090555e+11  -6.2055973877864166e+10  2.6251279850726175e+11  4.7069598401093048e+10  4.0205324396981738e+11  -1.1220594014793262e+11  3.8879159692253967e+10  -4.7653479709092064e+10  1.4319766430640482e+11  -3.4976465013404474e+11  1.7041435653837216e+11  5.3827233509880090e+11  -1.6110616534263272e+11  5.2082396444895551e+11  -1.0585495276775408e+10  -2.9362780794486377e+11  2.0321365184379407e+11  3.2552768080440271e+11  -1.2845942307682521e+11  2.8514302540453171e+10  -2.3265418287842099e+11  3.5898388815874496e+10  -4.8723924662789360e+10  1.4593062267186938e+11  -6.2806923883181610e+10  -2.9664021923490051e+11  1.1546964999977655e+11  2.3526944457894089e+11  -3.4122536118211304e+11  2.5531305288650079e+11  -1.7386488169004471e+11  -1.1061506246046111e+12  4.6466227469060229e+11  3.5434825183023810e+11  -2.8215487926160712e+11  -1.3416146585325022e+10  1.7417754571762061e+11  -7.0628651234169946e+11  5.7316490128812401e+10  1.1315749587375955e+11  -3.1720077435138098e+11  6.4806346703497717e+11  -2.3789972318841602e+11  3.4307855904201617e+11  3.9285089978175064e+10  -3.0975459112320050e+11  2.4735076519620041e+11  -6.1078140081360095e+11  5.6772575148015088e+11  -2.2097062630509412e+11  -1.1192033086992019e+12  8.3448898255825916e+11  -1.9059222771869275e+11  2.7355763116711090e+11  -3.5318681420967548e+11  -3.5008097612997504e+11  -5.3526004188660321e+11  -4.9544944942009619e+11  3.8752043618202081e+11  9.7990715473610931e+10  -2.6408125992782451e+12  -8.2847693368709094e+11  -1.5512763533206777e+12  -1.2462099660006367e+12  -9.4182320490070667e+11  -3.0264645442273553e+11  6.5447280833854622e+10  7.1264305726245007e+11  7.2453803143301672e+11  -2.1895895711789771e+11  2.1605565301208294e+10  2.4529667950081302e+11  -9.9811436926623291e+10  3.4909366969414520e+11  1.0033196383440573e+12  5.6640203458760391e+10  -1.0733604280555789e+11  -4.2798812525433234e+11  1.8355767831507916e+11  3.0099445878758179e+11  2.8239847094727899e+11  -1.1790284345467377e+11  4.7012867599640465e+10  -7.0524697459002905e+11  -6.2355707371344873e+11  5.7366826744444344e+10  4.7736635801860059e+11  -1.1273961900274799e+11  -3.6218711357527368e+11  -1.5621611181610284e+11  -1.6557266020704344e+10  2.5709298029797122e+11  1.3691279436855878e+11  8.2708343529684412e+11  5.2115236007174103e+11  6.1416011216074890e+11  4.7399544857280060e+11  1.3348216367483896e+12  1.1653318906723452e+12  -8.0436458449802979e+11  -2.5852818279828770e+10  4.4775131257682025e+11  -9.2337928089620166e+11  1.7479292248874969e+11  -1.0664731590084078e+12  -6.3591976536514929e+11  -3.8852382655814862e+11  -1.7554112608568064e+12  -9.9497518861783154e+11  -8.8025999337337170e+11  -2.6887181856335373e+11  -1.6428532796809692e+11  -2.0482196769120588e+12  1.9317447050175972e+12  1.5571654449802471e+12  1.5678065313618027e+11  -3.4206622864323486e+12  -1.2248146351668274e+12  1.0077097225052015e+12  6.2199803475310999e+11  -9.1101045103092041e+11  1.6297735740313530e+12  6.6783290743432549e+10  6.5195399540654065e+11  3.1279896521523374e+12  2.9325196731540503e+12  3.0482987502042959e+12  -1.0639666829676648e+12  1.8159516115065027e+12  1.1646982014895256e+12  1.4470341920277444e+12  6.1408882412489160e+11  -4.8614311052733307e+09  5.4001145553905524e+11  2.5568336993661777e+11  1.1614731442131965e+12  -4.9989377022591156e+11  -9.1430124475827917e+11  