<?xml version="1.0"?>
<VTKFile type="UnstructuredGrid"  version="0.1"  >
<UnstructuredGrid>
<Piece  NumberOfPoints="1369" NumberOfCells="2560">
<Points>
<DataArray  type="Float64"  NumberOfComponents="3"  format="ascii">0 0 0  0.75 0 0  1.5 0 0  2.25 0 0  3 0 0  3.75 0 0  4.5 0 0  5.25 0 0  6 0 0  6.75 0 0  7.5 0 0  8.25 0 0  9 0 0  9.75 0 0  10.5 0 0  11.25 0 0  12 0 0  12.75 0 0  13.5 0 0  14.25 0 0  15 0 0  15.75 0 0  16.5 0 0  17.25 0 0  18 0 0  18.75 0 0  19.5 0 0  20.25 0 0  21 0 0  21.75 0 0  22.5 0 0  23.25 0 0  24 0 0  24.75 0 0  25.5 0 0  26.25 0 0  27 0 0  27.75 0 0  28.5 0 0  29.25 0 0  30 0 0  30.75 0 0  31.5 0 0  32.25 0 0  33 0 0  33.75 0 0  34.5 0 0  35.25 0 0  36 0 0  36.75 0 0  37.5 0 0  38.25 0 0  39 0 0  39.75 0 0  40.5 0 0  41.25 0 0  42 0 0  42.75 0 0  43.5 0 0  44.25 0 0  45 0 0  45.75 0 0  46.5 0 0  47.25 0 0  48 0 0  48.75 0 0  49.5 0 0  50.25 0 0  51 0 0  51.75 0 0  52.5 0 0  53.25 0 0  54 0 0  54.75 0 0  55.5 0 0  56.25 0 0  57 0 0  57.75 0 0  58.5 0 0  59.25 0 0  60 0 0  0 0.5 0  0.75 0.5 0  1.5 0.5 0  2.25 0.5 0  3 0.5 0  3.75 0.5 0  4.5 0.5 0  5.25 0.5 0  6 0.5 0  6.75 0.5 0  7.5 0.5 0  8.25 0.5 0  9 0.5 0  9.75 0.5 0  10.5 0.5 0  11.25 0.5 0  12 0.5 0  12.75 0.5 0  13.5 0.5 0  14.25 0.5 0  15 0.5 0  15.75 0.5 0  16.5 0.5 0  17.25 0.5 0  18 0.5 0  18.75 0.5 0  19.5 0.5 0  20.25 0.5 0  21 0.5 0  21.75 0.5 0  22.5 0.5 0  23.25 0.5 0  24 0.5 0  24.75 0.5 0  25.5 0.5 0  26.25 0.5 0  27 0.5 0  27.75 0.5 0  28.5 0.5 0  29.25 0.5 0  30 0.5 0  30.75 0.5 0  31.5 0.5 0  32.25 0.5 0  33 0.5 0  33.75 0.5 0  34.5 0.5 0  35.25 0.5 0  36 0.5 0  36.75 0.5 0  37.5 0.5 0  38.25 0.5 0  39 0.5 0  39.75 0.5 0  40.5 0.5 0  41.25 0.5 0  42 0.5 0  42.75 0.5 0  43.5 0.5 0  44.25 0.5 0  45 0.5 0  45.75 0.5 0  46.5 0.5 0  47.25 0.5 0  48 0.5 0  48.75 0.5 0  49.5 0.5 0  50.25 0.5 0  51 0.5 0  51.75 0.5 0  52.5 0.5 0  53.25 0.5 0  54 0.5 0  54.75 0.5 0  55.5 0.5 0  56.25 0.5 0  57 0.5 0  57.75 0.5 0  58.5 0.5 0  59.25 0.5 0  60 0.5 0  0 1 0  0.75 1 0  1.5 1 0  2.25 1 0  3 1 0  3.75 1 0  4.5 1 0  5.25 1 0  6 1 0  6.75 1 0  7.5 1 0  8.25 1 0  9 1 0  9.75 1 0  10.5 1 0  11.25 1 0  12 1 0  12.75 1 0  13.5 1 0  14.25 1 0  15 1 0  15.75 1 0  16.5 1 0  17.25 1 0  18 1 0  18.75 1 0  19.5 1 0  20.25 1 0  21 1 0  21.75 1 0  22.5 1 0  23.25 1 0  24 1 0  24.75 1 0  25.5 1 0  26.25 1 0  27 1 0  27.75 1 0  28.5 1 0  29.25 1 0  30 1 0  30.75 1 0  31.5 1 0  32.25 1 0  33 1 0  33.75 1 0  34.5 1 0  35.25 1 0  36 1 0  36.75 1 0  37.5 1 0  38.25 1 0  39 1 0  39.75 1 0  40.5 1 0  41.25 1 0  42 1 0  42.75 1 0  43.5 1 0  44.25 1 0  45 1 0  45.75 1 0  46.5 1 0  47.25 1 0  48 1 0  48.75 1 0  49.5 1 0  50.25 1 0  51 1 0  51.75 1 0  52.5 1 0  53.25 1 0  54 1 0  54.75 1 0  55.5 1 0  56.25 1 0  57 1 0  57.75 1 0  58.5 1 0  59.25 1 0  60 1 0  0 1.5 0  0.75 1.5 0  1.5 1.5 0  2.25 1.5 0  3 1.5 0  3.75 1.5 0  4.5 1.5 0  5.25 1.5 0  6 1.5 0  6.75 1.5 0  7.5 1.5 0  8.25 1.5 0  9 1.5 0  9.75 1.5 0  10.5 1.5 0  11.25 1.5 0  12 1.5 0  12.75 1.5 0  13.5 1.5 0  14.25 1.5 0  15 1.5 0  15.75 1.5 0  16.5 1.5 0  17.25 1.5 0  18 1.5 0  18.75 1.5 0  19.5 1.5 0  20.25 1.5 0  21 1.5 0  21.75 1.5 0  22.5 1.5 0  23.25 1.5 0  24 1.5 0  24.75 1.5 0  25.5 1.5 0  26.25 1.5 0  27 1.5 0  27.75 1.5 0  28.5 1.5 0  29.25 1.5 0  30 1.5 0  30.75 1.5 0  31.5 1.5 0  32.25 1.5 0  33 1.5 0  33.75 1.5 0  34.5 1.5 0  35.25 1.5 0  36 1.5 0  36.75 1.5 0  37.5 1.5 0  38.25 1.5 0  39 1.5 0  39.75 1.5 0  40.5 1.5 0  41.25 1.5 0  42 1.5 0  42.75 1.5 0  43.5 1.5 0  44.25 1.5 0  45 1.5 0  45.75 1.5 0  46.5 1.5 0  47.25 1.5 0  48 1.5 0  48.75 1.5 0  49.5 1.5 0  50.25 1.5 0  51 1.5 0  51.75 1.5 0  52.5 1.5 0  53.25 1.5 0  54 1.5 0  54.75 1.5 0  55.5 1.5 0  56.25 1.5 0  57 1.5 0  57.75 1.5 0  58.5 1.5 0  59.25 1.5 0  60 1.5 0  0 2 0  0.75 2 0  1.5 2 0  2.25 2 0  3 2 0  3.75 2 0  4.5 2 0  5.25 2 0  6 2 0  6.75 2 0  7.5 2 0  8.25 2 0  9 2 0  9.75 2 0  10.5 2 0  11.25 2 0  12 2 0  12.75 2 0  13.5 2 0  14.25 2 0  15 2 0  15.75 2 0  16.5 2 0  17.25 2 0  18 2 0  18.75 2 0  19.5 2 0  20.25 2 0  21 2 0  21.75 2 0  22.5 2 0  23.25 2 0  24 2 0  24.75 2 0  25.5 2 0  26.25 2 0  27 2 0  27.75 2 0  28.5 2 0  29.25 2 0  30 2 0  30.75 2 0  31.5 2 0  32.25 2 0  33 2 0  33.75 2 0  34.5 2 0  35.25 2 0  36 2 0  36.75 2 0  37.5 2 0  38.25 2 0  39 2 0  39.75 2 0  40.5 2 0  41.25 2 0  42 2 0  42.75 2 0  43.5 2 0  44.25 2 0  45 2 0  45.75 2 0  46.5 2 0  47.25 2 0  48 2 0  48.75 2 0  49.5 2 0  50.25 2 0  51 2 0  51.75 2 0  52.5 2 0  53.25 2 0  54 2 0  54.75 2 0  55.5 2 0  56.25 2 0  57 2 0  57.75 2 0  58.5 2 0  59.25 2 0  60 2 0  0 2.5 0  0.75 2.5 0  1.5 2.5 0  2.25 2.5 0  3 2.5 0  3.75 2.5 0  4.5 2.5 0  5.25 2.5 0  6 2.5 0  6.75 2.5 0  7.5 2.5 0  8.25 2.5 0  9 2.5 0  9.75 2.5 0  10.5 2.5 0  11.25 2.5 0  12 2.5 0  12.75 2.5 0  13.5 2.5 0  14.25 2.5 0  15 2.5 0  15.75 2.5 0  16.5 2.5 0  17.25 2.5 0  18 2.5 0  18.75 2.5 0  19.5 2.5 0  20.25 2.5 0  21 2.5 0  21.75 2.5 0  22.5 2.5 0  23.25 2.5 0  24 2.5 0  24.75 2.5 0  25.5 2.5 0  26.25 2.5 0  27 2.5 0  27.75 2.5 0  28.5 2.5 0  29.25 2.5 0  30 2.5 0  30.75 2.5 0  31.5 2.5 0  32.25 2.5 0  33 2.5 0  33.75 2.5 0  34.5 2.5 0  35.25 2.5 0  36 2.5 0  36.75 2.5 0  37.5 2.5 0  38.25 2.5 0  39 2.5 0  39.75 2.5 0  40.5 2.5 0  41.25 2.5 0  42 2.5 0  42.75 2.5 0  43.5 2.5 0  44.25 2.5 0  45 2.5 0  45.75 2.5 0  46.5 2.5 0  47.25 2.5 0  48 2.5 0  48.75 2.5 0  49.5 2.5 0  50.25 2.5 0  51 2.5 0  51.75 2.5 0  52.5 2.5 0  53.25 2.5 0  54 2.5 0  54.75 2.5 0  55.5 2.5 0  56.25 2.5 0  57 2.5 0  57.75 2.5 0  58.5 2.5 0  59.25 2.5 0  60 2.5 0  0 3 0  0.75 3 0  1.5 3 0  2.25 3 0  3 3 0  3.75 3 0  4.5 3 0  5.25 3 0  6 3 0  6.75 3 0  7.5 3 0  8.25 3 0  9 3 0  9.75 3 0  10.5 3 0  11.25 3 0  12 3 0  12.75 3 0  13.5 3 0  14.25 3 0  15 3 0  15.75 3 0  16.5 3 0  17.25 3 0  18 3 0  18.75 3 0  19.5 3 0  20.25 3 0  21 3 0  21.75 3 0  22.5 3 0  23.25 3 0  24 3 0  24.75 3 0  25.5 3 0  26.25 3 0  27 3 0  27.75 3 0  28.5 3 0  29.25 3 0  30 3 0  30.75 3 0  31.5 3 0  32.25 3 0  33 3 0  33.75 3 0  34.5 3 0  35.25 3 0  36 3 0  36.75 3 0  37.5 3 0  38.25 3 0  39 3 0  39.75 3 0  40.5 3 0  41.25 3 0  42 3 0  42.75 3 0  43.5 3 0  44.25 3 0  45 3 0  45.75 3 0  46.5 3 0  47.25 3 0  48 3 0  48.75 3 0  49.5 3 0  50.25 3 0  51 3 0  51.75 3 0  52.5 3 0  53.25 3 0  54 3 0  54.75 3 0  55.5 3 0  56.25 3 0  57 3 0  57.75 3 0  58.5 3 0  59.25 3 0  60 3 0  0 3.5 0  0.75 3.5 0  1.5 3.5 0  2.25 3.5 0  3 3.5 0  3.75 3.5 0  4.5 3.5 0  5.25 3.5 0  6 3.5 0  6.75 3.5 0  7.5 3.5 0  8.25 3.5 0  9 3.5 0  9.75 3.5 0  10.5 3.5 0  11.25 3.5 0  12 3.5 0  12.75 3.5 0  13.5 3.5 0  14.25 3.5 0  15 3.5 0  15.75 3.5 0  16.5 3.5 0  17.25 3.5 0  18 3.5 0  18.75 3.5 0  19.5 3.5 0  20.25 3.5 0  21 3.5 0  21.75 3.5 0  22.5 3.5 0  23.25 3.5 0  24 3.5 0  24.75 3.5 0  25.5 3.5 0  26.25 3.5 0  27 3.5 0  27.75 3.5 0  28.5 3.5 0  29.25 3.5 0  30 3.5 0  30.75 3.5 0  31.5 3.5 0  32.25 3.5 0  33 3.5 0  33.75 3.5 0  34.5 3.5 0  35.25 3.5 0  36 3.5 0  36.75 3.5 0  37.5 3.5 0  38.25 3.5 0  39 3.5 0  39.75 3.5 0  40.5 3.5 0  41.25 3.5 0  42 3.5 0  42.75 3.5 0  43.5 3.5 0  44.25 3.5 0  45 3.5 0  45.75 3.5 0  46.5 3.5 0  47.25 3.5 0  48 3.5 0  48.75 3.5 0  49.5 3.5 0  50.25 3.5 0  51 3.5 0  51.75 3.5 0  52.5 3.5 0  53.25 3.5 0  54 3.5 0  54.75 3.5 0  55.5 3.5 0  56.25 3.5 0  57 3.5 0  57.75 3.5 0  58.5 3.5 0  59.25 3.5 0  60 3.5 0  0 4 0  0.75 4 0  1.5 4 0  2.25 4 0  3 4 0  3.75 4 0  4.5 4 0  5.25 4 0  6 4 0  6.75 4 0  7.5 4 0  8.25 4 0  9 4 0  9.75 4 0  10.5 4 0  11.25 4 0  12 4 0  12.75 4 0  13.5 4 0  14.25 4 0  15 4 0  15.75 4 0  16.5 4 0  17.25 4 0  18 4 0  18.75 4 0  19.5 4 0  20.25 4 0  21 4 0  21.75 4 0  22.5 4 0  23.25 4 0  24 4 0  24.75 4 0  25.5 4 0  26.25 4 0  27 4 0  27.75 4 0  28.5 4 0  29.25 4 0  30 4 0  30.75 4 0  31.5 4 0  32.25 4 0  33 4 0  33.75 4 0  34.5 4 0  35.25 4 0  36 4 0  36.75 4 0  37.5 4 0  38.25 4 0  39 4 0  39.75 4 0  40.5 4 0  41.25 4 0  42 4 0  42.75 4 0  43.5 4 0  44.25 4 0  45 4 0  45.75 4 0  46.5 4 0  47.25 4 0  48 4 0  48.75 4 0  49.5 4 0  50.25 4 0  51 4 0  51.75 4 0  52.5 4 0  53.25 4 0  54 4 0  54.75 4 0  55.5 4 0  56.25 4 0  57 4 0  57.75 4 0  58.5 4 0  59.25 4 0  60 4 0  0.375 0.25 0  1.125 0.25 0  1.875 0.25 0  2.625 0.25 0  3.375 0.25 0  4.125 0.25 0  4.875 0.25 0  5.625 0.25 0  6.375 0.25 0  7.125 0.25 0  7.875 0.25 0  8.625 0.25 0  9.375 0.25 0  10.125 0.25 0  10.875 0.25 0  11.625 0.25 0  12.375 0.25 0  13.125 0.25 0  13.875 0.25 0  14.625 0.25 0  15.375 0.25 0  16.125 0.25 0  16.875 0.25 0  17.625 0.25 0  18.375 0.25 0  19.125 0.25 0  19.875 0.25 0  20.625 0.25 0  21.375 0.25 0  22.125 0.25 0  22.875 0.25 0  23.625 0.25 0  24.375 0.25 0  25.125 0.25 0  25.875 0.25 0  26.625 0.25 0  27.375 0.25 0  28.125 0.25 0  28.875 0.25 0  29.625 0.25 0  30.375 0.25 0  31.125 0.25 0  31.875 0.25 0  32.625 0.25 0  33.375 0.25 0  34.125 0.25 0  34.875 0.25 0  35.625 0.25 0  36.375 0.25 0  37.125 0.25 0  37.875 0.25 0  38.625 0.25 0  39.375 0.25 0  40.125 0.25 0  40.875 0.25 0  41.625 0.25 0  42.375 0.25 0  43.125 0.25 0  43.875 0.25 0  44.625 0.25 0  45.375 0.25 0  46.125 0.25 0  46.875 0.25 0  47.625 0.25 0  48.375 0.25 0  49.125 0.25 0  49.875 0.25 0  50.625 0.25 0  51.375 0.25 0  52.125 0.25 0  52.875 0.25 0  53.625 0.25 0  54.375 0.25 0  55.125 0.25 0  55.875 0.25 0  56.625 0.25 0  57.375 0.25 0  58.125 0.25 0  58.875 0.25 0  59.625 0.25 0  0.375 0.75 0  1.125 0.75 0  1.875 0.75 0  2.625 0.75 0  3.375 0.75 0  4.125 0.75 0  4.875 0.75 0  5.625 0.75 0  6.375 0.75 0  7.125 0.75 0  7.875 0.75 0  8.625 0.75 0  9.375 0.75 0  10.125 0.75 0  10.875 0.75 0  11.625 0.75 0  12.375 0.75 0  13.125 0.75 0  13.875 0.75 0  14.625 0.75 0  15.375 0.75 0  16.125 0.75 0  16.875 0.75 0  17.625 0.75 0  18.375 0.75 0  19.125 0.75 0  19.875 0.75 0  20.625 0.75 0  21.375 0.75 0  22.125 0.75 0  22.875 0.75 0  23.625 0.75 0  24.375 0.75 0  25.125 0.75 0  25.875 0.75 0  26.625 0.75 0  27.375 0.75 0  28.125 0.75 0  28.875 0.75 0  29.625 0.75 0  30.375 0.75 0  31.125 0.75 0  31.875 0.75 0  32.625 0.75 0  33.375 0.75 0  34.125 0.75 0  34.875 0.75 0  35.625 0.75 0  36.375 0.75 0  37.125 0.75 0  37.875 0.75 0  38.625 0.75 0  39.375 0.75 0  40.125 0.75 0  40
[...]
<PointData  Scalars="f_8-1"> 
<DataArray  type="Float64"  Name="f_8-1"  format="ascii">-2.9231089300977875e+11  2.3771835573555252e+11  -8.2414401284252213e+10  -5.3596743796048096e+11  -3.6217523675038385e+11  -5.8707853972044116e+11  -1.6495121398597229e+11  -1.8462785323059376e+10  9.7270420668641492e+11  4.7745003656564380e+11  -5.0370492720674072e+11  -6.5262135951510645e+11  -3.5653050686232965e+11  9.1205323294157141e+11  4.7306756651306989e+11  1.6707792336350348e+11  -9.3646028591816467e+10  -9.4985890254344208e+10  -8.3672104518741357e+11  -2.9067513999690399e+11  -4.5772544865242017e+11  -2.0293827055199216e+12  -7.3727948297884058e+11  1.1081927745576871e+11  -9.7288427745221704e+11  2.0614644741360339e+12  -1.4649660506991655e+12  -3.5112901186307100e+12  -4.4817228096977490e+12  7.3839828853551917e+11  -1.3847543232623821e+12  2.2803690976197539e+12  2.1610623535401572e+12  5.5327171895896416e+12  1.5145851663815962e+12  -5.6318068067943762e+11  5.9427635416658740e+12  -1.5614790765759331e+12  -3.8664574195413177e+11  4.7042649256372959e+12  -2.1711547541757681e+12  -1.7810072121333572e+12  -1.3997108428312197e+12  -5.3793768644440747e+11  -2.8491353436187366e+11  -8.9456264351666919e+11  6.6086293135809070e+11  1.0787777490683862e+12  -9.3022437986497949e+11  2.2393068548082300e+12  6.5407397131598242e+11  -2.0409231775453645e+12  -3.2456738229663647e+11  -1.2700961625952607e+12  -6.7891838230971338e+11  5.2441414847944443e+10  -4.1442372007521765e+11  -2.4296272543760159e+11  -4.9851172194662860e+11  -4.5883776758679639e+11  -9.3261376167673804e+11  -4.2321390605003595e+11  5.8885819990521008e+11  -1.8007333184393921e+12  1.3894840089146790e+12  -5.8293600234404407e+11  5.6365449084966919e+10  -4.3830457963034961e+11  -4.5544076165791913e+11  -2.1939965589427701e+11  4.0270804433600671e+11  1.5275177019360447e+12  -1.4603917124276030e+12  5.7516468035130591e+11  -3.5098630092669977e+11  -3.7760369371107117e+11  -1.3899773066439426e+12  -6.1993870174931506e+11  1.2584826801460798e+12  -1.0134968760725680e+12  9.9040488039546545e+11  9.8769074160895081e+11  -1.6900306835082202e+12  1.3533804203541189e+10  1.9701239838204593e+11  4.4308209154936987e+11  -4.1336048343945776e+11  8.4313022537261902e+11  -1.2911488479516985e+11  -2.9917576675260769e+10  -2.0328290036145654e+11  1.1420619857587367e+11  -4.5211093162247455e+11  7.1340932568925830e+11  1.0770946937427759e+12  3.5442892250667474e+11  4.7220584012967133e+10  2.3363757158398746e+10  -5.0519536582929279e+11  -4.5689362324721985e+11  -2.7820331390250555e+11  5.7016643703622144e+11  5.1583341228569519e+11  -9.2388864712477615e+10  -3.4944694183941071e+11  -1.1737366136056165e+12  -2.5076703853784419e+12  -2.3008687099726138e+12  1.7703533520542273e+12  -4.5509728902796152e+12  3.2963186828073467e+12  1.8065366763821074e+12  2.6918606138021567e+12  3.9968721723251206e+12  -8.0071917169665027e+11  3.2370931699551776e+11  -4.6046978276093701e+12  6.4336861427410801e+12  3.1817614381615552e+12  -1.5036117632810381e+12  -3.9973802657896515e+10  -1.5020121897020662e+12  -6.8231669295716833e+11  -1.4401744719645059e+12  -5.5567475057671497e+11  -1.1212538023561340e+12  7.8738512421718958e+11  1.0077936686015096e+12  2.5146212319673467e+12  7.0704781032856079e+11  9.0310236500234595e+11  -2.5249089940799960e+11  -1.1192982951457999e+11  -9.2434939496074170e+11  -1.2049017961517737e+11  -3.4889732987810980e+11  2.6031912835415697e+09  8.2443401515478409e+10  -5.2232630758602429e+11  -4.2972115952147998e+11  -4.2599351831479333e+11  -2.5204596739528882e+11  -7.3744998412409875e+11  -1.4827332104588367e+11  6.1236461572709702e+10  -6.4590859973248276e+10  -1.8894969916213458e+11  -3.2916400110381000e+11  1.1967550420130635e+11  -3.2619871641566223e+11  -2.1589622646000137e+11  6.3990203321449426e+11  7.7128485295593945e+11  -1.3518347343975237e+11  -3.6705621684698047e+11  -1.4222466466263196e+11  -4.7604337274558643e+11  -2.2221695283828537e+11  1.1746491221339798e+10  -1.0398907861548427e+12  3.7060909386177640e+09  -8.9924833742980957e+10  5.6252445783736853e+11  -6.0839101478120459e+11  -5.8130140945877368e+11  2.1795919675692426e+11  1.4163702556551483e+11  -6.4823594724345776e+11  1.5552977992020023e+11  -1.3742702450326895e+12  -2.1790184737310449e+11  -6.3981709795951379e+11  -9.7797790536141129e+10  1.4012267174706108e+12  -4.5671453576668190e+10  5.8801097280777298e+10  -3.6517251159242316e+11  -5.0681034199373578e+11  -6.5116704771190048e+10  5.1050890710392822e+10  -1.3438197452815387e+11  -3.2216589553699421e+10  4.6190563503960278e+11  -2.9026370481136462e+11  -1.1661139071065625e+12  -3.5215578810362567e+11  -2.5822374124852681e+12  2.2200704501508066e+11  4.5720588842442456e+11  6.0718500653812573e+11  9.2409094640365381e+11  3.3255935665920488e+12  5.1639183522079004e+12  1.8302983152874336e+12  2.5821216626102114e+12  2.3588240602181904e+12  -1.3519541860858660e+12  -1.6816594493917158e+12  -2.5778065668501465e+12  -1.0779281415920702e+12  -1.6815398619510664e+12  -1.1069252419358254e+12  -2.7555861926366325e+10  -2.2574826062694971e+12  -4.6891654243940277e+11  4.7075548421722450e+10  -7.8624184567485681e+11  -6.1017154172888794e+11  9.1938268044030014e+10  5.7958854867418106e+10  1.0774670196789397e+12  6.2807976022455518e+11  6.7878668516035864e+11  -5.4210351002118005e+11  -4.3217937743831647e+11  -6.4860296940807411e+10  -4.5716310933768500e+11  -4.6394222998737439e+11  2.7269205510816946e+11  9.8250506940223740e+10  4.9782153520412152e+11  -2.7693709936137830e+11  -3.1098976684968176e+11  1.4003934897186718e+10  -3.0912286195506250e+11  -1.4592817710565329e+11  -5.2481556375720184e+10  -3.7139213668516803e+11  -2.4226919243776929e+11  -5.7125525927779382e+11  3.7863536037870923e+11  1.2011134754878137e+11  3.4215959257508490e+11  2.6156151148123688e+11  1.1288446023538039e+11  4.6157029586135492e+11  -7.9320460250509363e+11  -1.1018923661691560e+12  -2.1239699206317749e+10  5.0031567756047925e+11  1.4551910391078906e+11  -5.3114888059807574e+11  3.4985267547477441e+11  2.7529207015081927e+11  -5.8929720160065625e+11  -1.0354242739268147e+12  1.3051829564337730e+11  -4.3659769017028336e+10  2.3939974897736539e+11  -4.8955953976202460e+11  -6.6053000334895142e+11  -7.8580099996195325e+11  -4.8981014078615240e+11  -9.7631779888986182e+11  5.8770210828962061e+11  -2.4975920081395264e+10  -3.4237547283474017e+11  1.6865930586362869e+11  3.5891513374984528e+11  -2.3765157857468900e+11  -2.3227080687592651e+10  -2.9137647894457715e+11  -2.4552008818558481e+11  -8.1517185564574646e+10  -1.6514600989628543e+11  -9.0482295623705469e+11  -4.7217912166687280e+11  -1.6838590096436089e+12  -4.7986754338368770e+12  1.1043877884379185e+12  -6.7473745388616951e+10  -1.0651493995500868e+12  9.3704047472038550e+11  9.1936565819319983e+11  3.8190903246490742e+12  1.7279659084910611e+11  2.9385403133471475e+12  -1.2123189642695083e+12  2.6462168011154849e+12  -1.9153102154107258e+12  -3.8474497910750283e+12  -6.3050710489706318e+12  -2.1725859756961072e+12  -8.6200815132331641e+11  -2.2807070012489810e+12  3.3498371386287524e+11  -1.8293635597816156e+11  1.6965855317755859e+11  -9.5010561838127881e+11  -5.8737743286875378e+11  1.0138621914455425e+12  1.1288678137697056e+12  -3.4819088585925262e+11  -8.7592928005795593e+11  -5.5747223611737231e+11  -1.7805520508840503e+11  -7.8790864093537451e+11  4.6138253174368462e+10  -7.8821242714568103e+11  -8.6139597843068039e+10  -5.3761507993252182e+10  2.0312226576532303e+11  -1.8507964639578937e+11  4.8620115048606567e+10  1.0610977032715698e+11  -2.0051944520551318e+11  -3.8954253337160114e+11  9.8782764624829224e+10  1.0421787918527011e+11  3.3398777647505548e+11  3.8837652797802887e+11  -2.0691152112277591e+11  -5.5613695936444252e+10  -2.3126479109466931e+11  1.8684724155084338e+11  -2.2066693805807919e+11  -1.6894907589824075e+11  -7.4352061906043518e+11  6.3858204092244637e+10  3.2410847717159186e+11  -5.9541232735147803e+11  -6.4204459699134204e+11  -5.3809408444707837e+11  -9.0489789838398224e+10  6.4105108461861099e+10  -1.3203498097605146e+12  8.2859466664093335e+11  4.0703624389021988e+09  -4.2590075626513245e+10  -6.6317431123477698e+11  4.6301010402194519e+11  -3.7837476151620770e+11  6.3190450827655251e+10  5.5633281314662910e+10  -7.0314766474348145e+11  -5.9781394665974744e+11  -5.6272173929559839e+11  5.2397982738775409e+11  6.4578030268690234e+11  -4.4403892386759880e+10  -3.9250390336747821e+11  -8.4403371629150818e+10  3.5432226253207962e+10  -3.1177575632376611e+11  -3.1289328481833502e+11  -4.7297244735702246e+11  3.3478055251035059e+11  -1.1053964278521284e+12  2.4503695823089087e+12  -7.2809047171450273e+12  -3.7546798473737671e+11  -1.2078830496560986e+12  -6.7423251491863098e+11  -9.2159912336039758e+11  1.2110298883636152e+12  -3.4421498994580762e+12  8.3201765522831995e+11  4.1137461537443970e+12  -2.9146061525743965e+12  7.5703391170076672e+11  -2.1992666496535488e+12  -2.9227234372201885e+12  -2.6502152519564985e+12  -3.2628407491767256e+12  -2.4885791375807378e+12  -1.1264232858644688e+12  -3.9219326245415558e+11  -5.3153109040138062e+11  6.7862108583192963e+10  -1.5671660367836702e+12  3.2480823044309875e+11  -6.8433226616999255e+11  8.4041166400692163e+11  1.2090340109741641e+12  -1.7991175108698090e+10  -4.3318704375356024e+11  -1.0420094980256484e+12  -3.3264955435311359e+11  2.9729244953076343e+11  -8.5161847477991379e+10  2.9668170230635760e+11  2.1168208370649420e+11  -1.2295093545006010e+10  -1.0398496928051176e+11  -2.3350244132978842e+11  -4.5729469805930695e+11  -4.5836946303060107e+11  -6.7959759725461328e+11  -6.0197541131066711e+10  3.4866575502853119e+11  -2.8846555233131966e+10  1.8651895354783105e+11  4.8155168239834015e+11  6.1349199701622448e+09  -4.4042117372216354e+10  2.5745100921343347e+11  -2.0900979611122787e+11  -7.3908686161445605e+11  -4.7853820808499182e+11  6.6355878969465418e+09  -3.6668706781460309e+11  -5.2457946108768511e+09  1.1562855724987029e+11  -6.4020400010546985e+11  7.4567418329331161e+10  4.4590205818086914e+11  -5.5397674084601343e+11  -9.3821143305574478e+10  3.6101584532991180e+11  9.7174405572810388e+11  2.9514285926554767e+11  -1.1667145828920912e+10  -6.8664890756579089e+11  6.9754386245808887e+11  -1.0885180593667036e+11  -4.9089852481406364e+10  -8.5816910652500842e+11  7.5540579816967529e+11  8.9957198815208398e+11  5.5979668110053113e+11  -1.0881037833031671e+11  3.7918874150378564e+11  1.6172667581616736e+11  2.5559624906605442e+10  -4.3309754286896527e+11  -1.5790669700658014e+11  -4.5268780291353571e+11  -1.4557034349940161e+11  7.8857803053664526e+11  -6.2712990794001367e+11  -1.7469028051295447e+12  -1.4584581868061558e+12  -1.7436557659103118e+12  4.2389849166772839e+11  7.7403191353358582e+11  5.6105721751742468e+11  -2.6477003529364304e+11  1.9410427203634553e+12  8.1315660729197424e+11  3.1323799245021992e+12  1.5831208818340557e+12  1.4510308062773993e+11  -1.9848975909592361e+12  -5.0060142719492529e+11  -3.4217103148209697e+12  1.7793683747108445e+12  -1.2150504198147698e+12  -1.3333328009282554e+12  -2.0424356867754501e+11  -1.4206523027640474e+12  -9.4398019850476428e+11  1.3887051687677997e+11  -5.9530420959333521e+11  2.9452491337408105e+11  2.1012256206771988e+10  -1.7758499816479241e+12  5.7210056163824902e+11  -6.1756080255844604e+11  -1.1794975387409972e+11  2.1209127221055695e+11  1.8744350330429208e+11  -2.1227270997093655e+11  -1.4017557329097809e+11  4.3697273116867793e+08  6.0521594654077995e+10  -2.2856762464342166e+11  -3.8450546326755084e+11  -1.5536256113862802e+11  -9.0611216485779529e+11  9.0913230133165137e+11  3.2856037051433179e+11  6.0048893872197449e+11  3.1041779247011072e+11  3.3513479730375232e+11  6.5655031919792175e+09  2.4912009515904990e+11  -7.6684943756088940e+11  -8.3328763469834131e+11  -1.0988471197469252e+12  -6.4033273687976453e+11  -6.2221584081160717e+09  -5.1054757495046265e+11  -4.3481927853538806e+11  -2.9995436816779138e+11  -5.3942198495554626e+11  1.2039077808628046e+10  -2.4203794774110596e+10  1.4974027591434661e+12  4.0726037774290265e+11  7.3363811698704480e+11  -3.1874118223843155e+10  7.2280209909225476e+11  -4.6371190053048790e+10  -6.5149905593354016e+11  -1.8932970405292014e+11  -2.9891340100866467e+11  1.3960223187784280e+11  -1.1624720685443097e+11  -4.5311561089320854e+10  6.0633098374511511e+11  1.4214754189957022e+11  9.5572638882259369e+10  -1.6125417073831152e+11  1.6046992617908167e+11  -3.6432370091588763e+11  -5.5356001144984180e+11  -2.0791503761825717e+11  -2.8822233751198285e+11  -3.2371753269514624e+11  -1.0915108150455212e+12  -2.2117900478792632e+12  -2.1050772948135449e+12  -1.6329837764412422e+12  2.7797681554867603e+11  -1.4484355791334463e+12  1.6481862420603611e+12  -4.4190708882264595e+10  2.5465601127601865e+12  -1.3170190404588721e+12  -8.4867708221837976e+11  -9.0614517882984827e+11  -8.9834263063878955e+11  1.8041351361842080e+12  -1.6917550514900271e+12  -1.9693297551981526e+12  -8.2582144673711194e+11  -3.4071546552022522e+11  -7.6420047671509729e+11  6.0325782901179956e+11  -1.7838637157782356e+12  6.8508973859436646e+11  -6.7440188053740344e+11  -2.5952240707672470e+11  -3.0851475433039313e+11  -3.2504252589503949e+11  1.8299580344519952e+11  -1.2028786428933000e+11  7.2979017253762466e+10  -1.5300157851882721e+11  -2.2475722765278412e+11  6.9782325257637891e+11  4.7477576175967261e+11  -7.0772975878287903e+10  -3.2884180635866910e+08  -4.0155061221626770e+11  3.1763329705062981e+10  -3.6397613465131641e+11  -1.4648990414407880e+11  4.4395859743134509e+11  1.5531459981051172e+11  3.4656578336431976e+11  -2.6897643954323994e+10  1.8040787432525790e+11  -5.6443339525786118e+10  2.2071671836015842e+11  2.6733290896391287e+11  5.0122074656063678e+11  8.7865625859537109e+11  -9.6886045307355554e+11  -6.6001359076249792e+11  -4.1584454603436243e+11  -6.6782274370854517e+11  -5.1855126752330450e+11  -4.3311261416009418e+11  -8.0728589721227051e+11  4.5080942869364388e+10  2.6688053030563666e+11  2.0803105503363000e+11  7.0898797597247485e+11  6.7356589866117419e+11  -8.5991021989220535e+10  7.4956527055718323e+11  1.2649781408282952e+12  1.2082637794584390e+12  1.5432102955220850e+11  -1.2586493887911907e+12  1.3784194358746931e+12  -7.1901261236866309e+11  -4.1482255716058331e+11  7.5708684658667456e+11  2.9862377380117633e+11  3.4174281370442859e+11  1.1838824694820638e+11  -1.1677506107231683e+11  1.4998368289184454e+11  1.3971058729636050e+11  -4.9605762256521252e+11  -4.6242475731145264e+11  -6.6360058784528778e+10  2.3450843420409183e+11  9.9105309173186523e+10  -5.3504157340639752e+11  2.9306294615298052e+12  6.9693786537856897e+11  9.6724379166172729e+11  -3.0324571062300713e+10  -3.1187206811808906e+12  1.9506321417253611e+12  -2.2283293966046562e+12  9.7135975758017847e+11  -1.2850914459955642e+12  -2.1527821129316797e+12  -9.0048295717560852e+11  -2.0672234251532437e+12  -9.1410962699713867e+11  -1.2715132482952607e+12  2.2425844117504746e+12  -1.0249584490580605e+12  1.1861332733723625e+12  1.8113653355802363e+12  1.6986724626350237e+12  1.5813383676310684e+12  8.0643421634876602e+10  -4.4951693927739325e+11  7.8974397200862198e+10  1.4573669263036790e+12  -1.5353207628601224e+11  1.4023439371111813e+11  -4.5062188780244797e+10  -1.9103757377944034e+11  3.8284791228347626e+10  -4.4173849586551379e+11  -5.6754039399827263e+10  -1.9812185333875201e+11  -2.8943016494092474e+11  1.3547824692282983e+12  -4.5880311792015228e+09  3.2827020445418347e+11  -7.6314600702099884e+10  -4.3638882781810474e+11  1.5925781533319476e+11  7.5086416707957474e+10  -1.4888370417704703e+11  -2.7876749241950696e+11  1.2272781042913655e+11  -8.6779315966951538e+10  -1.2676415581835265e+11  6.9136676239881527e+08  3.6276507241920929e+11  -1.3121545379181436e+12  -9.9191994854493652e+11  -7.6966118665789648e+11  2.2526872326432242e+11  -4.3584787163299597e+11  -3.0191874193663559e+10  -4.9019228397979681e+11  1.3455968495598837e+11  -2.1832815551488303e+11  1.2706519144850811e+12  -1.0738454906137955e+11  -1.4646113237553131e+11  7.0721851821993652e+10  3.1618321916686646e+11  1.3362313805092268e+10  6.9776283209865845e+11  -1.5021118248081390e+11  1.6329461700823935e+11  3.6452135275711346e+09  -1.0318681421333249e+11  1.6507964839617535e+11  -9.9932599640147400e+10  2.8722449438045850e+11  -4.1165573924620644e+10  2.7854858418187089e+09  -5.1443675569601738e+10  -2.0941295646152954e+10  -8.6881990901601746e+10  -5.7959831680942395e+11  5.2918011840133209e+11  -7.1905969384472461e+11  4.5034905035177936e+11  3.2955870162916144e+11  -4.6304091566108240e+11  5.4449295612991736e+11  -5.4195967392992511e+11  2.0853538590614399e+12  -2.4716850705862363e+12  1.3644020558515996e+12  -1.2668586149398147e+12  1.3594107350036443e+12  -5.0418160880026093e+11  1.6590400322998856e+10  1.4972014400398650e+12  -5.7387177636110144e+11  -5.5347694328208142e+11  1.3872460481784951e+12  -2.0154036192947128e+11  -2.0488956757778501e+12  9.9671298602021289e+11  8.3561920550002051e+11  4.2639396574151050e+11  8.9495969345200940e+11  4.7603256498177106e+11  1.3139056319478281e+11  2.6918051894181360e+11  2.8028089269820758e+11  2.5400828442340118e+11  -2.5965563523964023e+11  -1.1736124082799557e+11  -7.0709319052962311e+10  -7.6855339064773178e+10  -3.7181305143078662e+11  -1.4817601816846078e+11  1.3228126278203827e+10  2.0662643532723190e+11  -1.8644384309041061e+10  -4.7543319100590002e+11  5.4866655840825432e+10  -1.1532738206545889e+10  9.4208891126884064e+10  3.3966965043647011e+10  2.7466569152691330e+10  3.2684911152427422e+10  -1.0641660095356636e+11  2.9620748093025897e+11  -3.8291680767760551e+10  -4.6973249860023300e+10  1.8492483834431711e+11  6.1166976508074883e+10  -2.0423598033858899e+11  2.7968643127987390e+11  -5.9492521450452478e+11  -2.6303515546763129e+11  4.0907397182093634e+11  -1.6252148906180487e+11  5.7924402893666138e+11  -3.0597554116140601e+11  -1.7611707135747232e+11  -3.8185807298634473e+11  4.6793950277477606e+11  -9.7664627639617664e+11  -1.3844378473326816e+12  -1.4063612967494849e+11  -1.2972669911669019e+12  -9.7027622982804733e+10  1.3421037235248933e+11  2.8360362365112726e+11  9.0639118734468005e+11  -5.9356852197085901e+11  -4.3811253548774115e+11  5.6303641913595312e+11  -5.7707513876086133e+11  4.1405227736939038e+11  -2.0714363990063245e+11  2.5662058221293503e+11  7.7455709312319653e+11  -7.2047212187538611e+11  -4.2453333553084930e+11  -3.0978396188080707e+11  -4.1267606229343250e+11  -1.0857664352614403e+12  -4.8456480934710748e+11  1.2543225977003186e+12  -1.3806765807094788e+12  1.2382795047342683e+12  -7.6978755269927676e+12  3.7557421018908706e+12  -1.5796430393844399e+12  2.5586511395660933e+12  8.1195973569462720e+11  2.6917558571292378e+12  5.6931958259655947e+12  3.0934295561601748e+12  2.0089969249266826e+12  -1.4986195846408943e+12  3.9743394175937480e+12  5.5589517249619854e+12  1.9350432659960173e+12  -4.4250046195777695e+10  -2.0737286289765361e+12  -1.9501817571670159e+12  -1.1841849208894272e+12  -6.1886240405312866e+11  -4.9468021626444800e+11  -6.2360577182746045e+11  3.0244836629335162e+11  6.5477759504379639e+11  5.9784917068772986e+11  1.6795922329022202e+11  -7.9202398379976990e+10  -1.0809687259594796e+12  -1.1002408899823110e+12  -1.2027614787374590e+12  -4.4805527929551660e+11  -4.2738456296823206e+11  -3.0684147459409216e+11  -5.6503175851462753e+10  -5.2122275788664447e+11  -6.2852026835416089e+11  -9.1289790891321716e+11  -4.3660117346649316e+11  -8.5316854519656079e+11  -2.3730872644590561e+11  8.3312082312203870e+11  -3.2276445557163336e+11  -9.4313262100432724e+10  -8.0450152860635388e+11  2.2087006478029837e+11  2.5483182448654675e+11  1.2578415337941309e+12  -8.8929976937073242e+11  -8.3776104051040787e+10  -9.2022852770536646e+11  -2.8368420863165588e+11  -8.4981332014955054e+11  -4.9228691328045758e+11  3.4950168199277789e+11  -7.7018889144879059e+10  -3.9073802837207928e+11  -4.9291655042560217e+1