<?xml version="1.0"?>
<VTKFile type="UnstructuredGrid"  version="0.1"  >
<UnstructuredGrid>
<Piece  NumberOfPoints="1369" NumberOfCells="2560">
<Points>
<DataArray  type="Float64"  NumberOfComponents="3"  format="ascii">0 0 0  0.75 0 0  1.5 0 0  2.25 0 0  3 0 0  3.75 0 0  4.5 0 0  5.25 0 0  6 0 0  6.75 0 0  7.5 0 0  8.25 0 0  9 0 0  9.75 0 0  10.5 0 0  11.25 0 0  12 0 0  12.75 0 0  13.5 0 0  14.25 0 0  15 0 0  15.75 0 0  16.5 0 0  17.25 0 0  18 0 0  18.75 0 0  19.5 0 0  20.25 0 0  21 0 0  21.75 0 0  22.5 0 0  23.25 0 0  24 0 0  24.75 0 0  25.5 0 0  26.25 0 0  27 0 0  27.75 0 0  28.5 0 0  29.25 0 0  30 0 0  30.75 0 0  31.5 0 0  32.25 0 0  33 0 0  33.75 0 0  34.5 0 0  35.25 0 0  36 0 0  36.75 0 0  37.5 0 0  38.25 0 0  39 0 0  39.75 0 0  40.5 0 0  41.25 0 0  42 0 0  42.75 0 0  43.5 0 0  44.25 0 0  45 0 0  45.75 0 0  46.5 0 0  47.25 0 0  48 0 0  48.75 0 0  49.5 0 0  50.25 0 0  51 0 0  51.75 0 0  52.5 0 0  53.25 0 0  54 0 0  54.75 0 0  55.5 0 0  56.25 0 0  57 0 0  57.75 0 0  58.5 0 0  59.25 0 0  60 0 0  0 0.5 0  0.75 0.5 0  1.5 0.5 0  2.25 0.5 0  3 0.5 0  3.75 0.5 0  4.5 0.5 0  5.25 0.5 0  6 0.5 0  6.75 0.5 0  7.5 0.5 0  8.25 0.5 0  9 0.5 0  9.75 0.5 0  10.5 0.5 0  11.25 0.5 0  12 0.5 0  12.75 0.5 0  13.5 0.5 0  14.25 0.5 0  15 0.5 0  15.75 0.5 0  16.5 0.5 0  17.25 0.5 0  18 0.5 0  18.75 0.5 0  19.5 0.5 0  20.25 0.5 0  21 0.5 0  21.75 0.5 0  22.5 0.5 0  23.25 0.5 0  24 0.5 0  24.75 0.5 0  25.5 0.5 0  26.25 0.5 0  27 0.5 0  27.75 0.5 0  28.5 0.5 0  29.25 0.5 0  30 0.5 0  30.75 0.5 0  31.5 0.5 0  32.25 0.5 0  33 0.5 0  33.75 0.5 0  34.5 0.5 0  35.25 0.5 0  36 0.5 0  36.75 0.5 0  37.5 0.5 0  38.25 0.5 0  39 0.5 0  39.75 0.5 0  40.5 0.5 0  41.25 0.5 0  42 0.5 0  42.75 0.5 0  43.5 0.5 0  44.25 0.5 0  45 0.5 0  45.75 0.5 0  46.5 0.5 0  47.25 0.5 0  48 0.5 0  48.75 0.5 0  49.5 0.5 0  50.25 0.5 0  51 0.5 0  51.75 0.5 0  52.5 0.5 0  53.25 0.5 0  54 0.5 0  54.75 0.5 0  55.5 0.5 0  56.25 0.5 0  57 0.5 0  57.75 0.5 0  58.5 0.5 0  59.25 0.5 0  60 0.5 0  0 1 0  0.75 1 0  1.5 1 0  2.25 1 0  3 1 0  3.75 1 0  4.5 1 0  5.25 1 0  6 1 0  6.75 1 0  7.5 1 0  8.25 1 0  9 1 0  9.75 1 0  10.5 1 0  11.25 1 0  12 1 0  12.75 1 0  13.5 1 0  14.25 1 0  15 1 0  15.75 1 0  16.5 1 0  17.25 1 0  18 1 0  18.75 1 0  19.5 1 0  20.25 1 0  21 1 0  21.75 1 0  22.5 1 0  23.25 1 0  24 1 0  24.75 1 0  25.5 1 0  26.25 1 0  27 1 0  27.75 1 0  28.5 1 0  29.25 1 0  30 1 0  30.75 1 0  31.5 1 0  32.25 1 0  33 1 0  33.75 1 0  34.5 1 0  35.25 1 0  36 1 0  36.75 1 0  37.5 1 0  38.25 1 0  39 1 0  39.75 1 0  40.5 1 0  41.25 1 0  42 1 0  42.75 1 0  43.5 1 0  44.25 1 0  45 1 0  45.75 1 0  46.5 1 0  47.25 1 0  48 1 0  48.75 1 0  49.5 1 0  50.25 1 0  51 1 0  51.75 1 0  52.5 1 0  53.25 1 0  54 1 0  54.75 1 0  55.5 1 0  56.25 1 0  57 1 0  57.75 1 0  58.5 1 0  59.25 1 0  60 1 0  0 1.5 0  0.75 1.5 0  1.5 1.5 0  2.25 1.5 0  3 1.5 0  3.75 1.5 0  4.5 1.5 0  5.25 1.5 0  6 1.5 0  6.75 1.5 0  7.5 1.5 0  8.25 1.5 0  9 1.5 0  9.75 1.5 0  10.5 1.5 0  11.25 1.5 0  12 1.5 0  12.75 1.5 0  13.5 1.5 0  14.25 1.5 0  15 1.5 0  15.75 1.5 0  16.5 1.5 0  17.25 1.5 0  18 1.5 0  18.75 1.5 0  19.5 1.5 0  20.25 1.5 0  21 1.5 0  21.75 1.5 0  22.5 1.5 0  23.25 1.5 0  24 1.5 0  24.75 1.5 0  25.5 1.5 0  26.25 1.5 0  27 1.5 0  27.75 1.5 0  28.5 1.5 0  29.25 1.5 0  30 1.5 0  30.75 1.5 0  31.5 1.5 0  32.25 1.5 0  33 1.5 0  33.75 1.5 0  34.5 1.5 0  35.25 1.5 0  36 1.5 0  36.75 1.5 0  37.5 1.5 0  38.25 1.5 0  39 1.5 0  39.75 1.5 0  40.5 1.5 0  41.25 1.5 0  42 1.5 0  42.75 1.5 0  43.5 1.5 0  44.25 1.5 0  45 1.5 0  45.75 1.5 0  46.5 1.5 0  47.25 1.5 0  48 1.5 0  48.75 1.5 0  49.5 1.5 0  50.25 1.5 0  51 1.5 0  51.75 1.5 0  52.5 1.5 0  53.25 1.5 0  54 1.5 0  54.75 1.5 0  55.5 1.5 0  56.25 1.5 0  57 1.5 0  57.75 1.5 0  58.5 1.5 0  59.25 1.5 0  60 1.5 0  0 2 0  0.75 2 0  1.5 2 0  2.25 2 0  3 2 0  3.75 2 0  4.5 2 0  5.25 2 0  6 2 0  6.75 2 0  7.5 2 0  8.25 2 0  9 2 0  9.75 2 0  10.5 2 0  11.25 2 0  12 2 0  12.75 2 0  13.5 2 0  14.25 2 0  15 2 0  15.75 2 0  16.5 2 0  17.25 2 0  18 2 0  18.75 2 0  19.5 2 0  20.25 2 0  21 2 0  21.75 2 0  22.5 2 0  23.25 2 0  24 2 0  24.75 2 0  25.5 2 0  26.25 2 0  27 2 0  27.75 2 0  28.5 2 0  29.25 2 0  30 2 0  30.75 2 0  31.5 2 0  32.25 2 0  33 2 0  33.75 2 0  34.5 2 0  35.25 2 0  36 2 0  36.75 2 0  37.5 2 0  38.25 2 0  39 2 0  39.75 2 0  40.5 2 0  41.25 2 0  42 2 0  42.75 2 0  43.5 2 0  44.25 2 0  45 2 0  45.75 2 0  46.5 2 0  47.25 2 0  48 2 0  48.75 2 0  49.5 2 0  50.25 2 0  51 2 0  51.75 2 0  52.5 2 0  53.25 2 0  54 2 0  54.75 2 0  55.5 2 0  56.25 2 0  57 2 0  57.75 2 0  58.5 2 0  59.25 2 0  60 2 0  0 2.5 0  0.75 2.5 0  1.5 2.5 0  2.25 2.5 0  3 2.5 0  3.75 2.5 0  4.5 2.5 0  5.25 2.5 0  6 2.5 0  6.75 2.5 0  7.5 2.5 0  8.25 2.5 0  9 2.5 0  9.75 2.5 0  10.5 2.5 0  11.25 2.5 0  12 2.5 0  12.75 2.5 0  13.5 2.5 0  14.25 2.5 0  15 2.5 0  15.75 2.5 0  16.5 2.5 0  17.25 2.5 0  18 2.5 0  18.75 2.5 0  19.5 2.5 0  20.25 2.5 0  21 2.5 0  21.75 2.5 0  22.5 2.5 0  23.25 2.5 0  24 2.5 0  24.75 2.5 0  25.5 2.5 0  26.25 2.5 0  27 2.5 0  27.75 2.5 0  28.5 2.5 0  29.25 2.5 0  30 2.5 0  30.75 2.5 0  31.5 2.5 0  32.25 2.5 0  33 2.5 0  33.75 2.5 0  34.5 2.5 0  35.25 2.5 0  36 2.5 0  36.75 2.5 0  37.5 2.5 0  38.25 2.5 0  39 2.5 0  39.75 2.5 0  40.5 2.5 0  41.25 2.5 0  42 2.5 0  42.75 2.5 0  43.5 2.5 0  44.25 2.5 0  45 2.5 0  45.75 2.5 0  46.5 2.5 0  47.25 2.5 0  48 2.5 0  48.75 2.5 0  49.5 2.5 0  50.25 2.5 0  51 2.5 0  51.75 2.5 0  52.5 2.5 0  53.25 2.5 0  54 2.5 0  54.75 2.5 0  55.5 2.5 0  56.25 2.5 0  57 2.5 0  57.75 2.5 0  58.5 2.5 0  59.25 2.5 0  60 2.5 0  0 3 0  0.75 3 0  1.5 3 0  2.25 3 0  3 3 0  3.75 3 0  4.5 3 0  5.25 3 0  6 3 0  6.75 3 0  7.5 3 0  8.25 3 0  9 3 0  9.75 3 0  10.5 3 0  11.25 3 0  12 3 0  12.75 3 0  13.5 3 0  14.25 3 0  15 3 0  15.75 3 0  16.5 3 0  17.25 3 0  18 3 0  18.75 3 0  19.5 3 0  20.25 3 0  21 3 0  21.75 3 0  22.5 3 0  23.25 3 0  24 3 0  24.75 3 0  25.5 3 0  26.25 3 0  27 3 0  27.75 3 0  28.5 3 0  29.25 3 0  30 3 0  30.75 3 0  31.5 3 0  32.25 3 0  33 3 0  33.75 3 0  34.5 3 0  35.25 3 0  36 3 0  36.75 3 0  37.5 3 0  38.25 3 0  39 3 0  39.75 3 0  40.5 3 0  41.25 3 0  42 3 0  42.75 3 0  43.5 3 0  44.25 3 0  45 3 0  45.75 3 0  46.5 3 0  47.25 3 0  48 3 0  48.75 3 0  49.5 3 0  50.25 3 0  51 3 0  51.75 3 0  52.5 3 0  53.25 3 0  54 3 0  54.75 3 0  55.5 3 0  56.25 3 0  57 3 0  57.75 3 0  58.5 3 0  59.25 3 0  60 3 0  0 3.5 0  0.75 3.5 0  1.5 3.5 0  2.25 3.5 0  3 3.5 0  3.75 3.5 0  4.5 3.5 0  5.25 3.5 0  6 3.5 0  6.75 3.5 0  7.5 3.5 0  8.25 3.5 0  9 3.5 0  9.75 3.5 0  10.5 3.5 0  11.25 3.5 0  12 3.5 0  12.75 3.5 0  13.5 3.5 0  14.25 3.5 0  15 3.5 0  15.75 3.5 0  16.5 3.5 0  17.25 3.5 0  18 3.5 0  18.75 3.5 0  19.5 3.5 0  20.25 3.5 0  21 3.5 0  21.75 3.5 0  22.5 3.5 0  23.25 3.5 0  24 3.5 0  24.75 3.5 0  25.5 3.5 0  26.25 3.5 0  27 3.5 0  27.75 3.5 0  28.5 3.5 0  29.25 3.5 0  30 3.5 0  30.75 3.5 0  31.5 3.5 0  32.25 3.5 0  33 3.5 0  33.75 3.5 0  34.5 3.5 0  35.25 3.5 0  36 3.5 0  36.75 3.5 0  37.5 3.5 0  38.25 3.5 0  39 3.5 0  39.75 3.5 0  40.5 3.5 0  41.25 3.5 0  42 3.5 0  42.75 3.5 0  43.5 3.5 0  44.25 3.5 0  45 3.5 0  45.75 3.5 0  46.5 3.5 0  47.25 3.5 0  48 3.5 0  48.75 3.5 0  49.5 3.5 0  50.25 3.5 0  51 3.5 0  51.75 3.5 0  52.5 3.5 0  53.25 3.5 0  54 3.5 0  54.75 3.5 0  55.5 3.5 0  56.25 3.5 0  57 3.5 0  57.75 3.5 0  58.5 3.5 0  59.25 3.5 0  60 3.5 0  0 4 0  0.75 4 0  1.5 4 0  2.25 4 0  3 4 0  3.75 4 0  4.5 4 0  5.25 4 0  6 4 0  6.75 4 0  7.5 4 0  8.25 4 0  9 4 0  9.75 4 0  10.5 4 0  11.25 4 0  12 4 0  12.75 4 0  13.5 4 0  14.25 4 0  15 4 0  15.75 4 0  16.5 4 0  17.25 4 0  18 4 0  18.75 4 0  19.5 4 0  20.25 4 0  21 4 0  21.75 4 0  22.5 4 0  23.25 4 0  24 4 0  24.75 4 0  25.5 4 0  26.25 4 0  27 4 0  27.75 4 0  28.5 4 0  29.25 4 0  30 4 0  30.75 4 0  31.5 4 0  32.25 4 0  33 4 0  33.75 4 0  34.5 4 0  35.25 4 0  36 4 0  36.75 4 0  37.5 4 0  38.25 4 0  39 4 0  39.75 4 0  40.5 4 0  41.25 4 0  42 4 0  42.75 4 0  43.5 4 0  44.25 4 0  45 4 0  45.75 4 0  46.5 4 0  47.25 4 0  48 4 0  48.75 4 0  49.5 4 0  50.25 4 0  51 4 0  51.75 4 0  52.5 4 0  53.25 4 0  54 4 0  54.75 4 0  55.5 4 0  56.25 4 0  57 4 0  57.75 4 0  58.5 4 0  59.25 4 0  60 4 0  0.375 0.25 0  1.125 0.25 0  1.875 0.25 0  2.625 0.25 0  3.375 0.25 0  4.125 0.25 0  4.875 0.25 0  5.625 0.25 0  6.375 0.25 0  7.125 0.25 0  7.875 0.25 0  8.625 0.25 0  9.375 0.25 0  10.125 0.25 0  10.875 0.25 0  11.625 0.25 0  12.375 0.25 0  13.125 0.25 0  13.875 0.25 0  14.625 0.25 0  15.375 0.25 0  16.125 0.25 0  16.875 0.25 0  17.625 0.25 0  18.375 0.25 0  19.125 0.25 0  19.875 0.25 0  20.625 0.25 0  21.375 0.25 0  22.125 0.25 0  22.875 0.25 0  23.625 0.25 0  24.375 0.25 0  25.125 0.25 0  25.875 0.25 0  26.625 0.25 0  27.375 0.25 0  28.125 0.25 0  28.875 0.25 0  29.625 0.25 0  30.375 0.25 0  31.125 0.25 0  31.875 0.25 0  32.625 0.25 0  33.375 0.25 0  34.125 0.25 0  34.875 0.25 0  35.625 0.25 0  36.375 0.25 0  37.125 0.25 0  37.875 0.25 0  38.625 0.25 0  39.375 0.25 0  40.125 0.25 0  40.875 0.25 0  41.625 0.25 0  42.375 0.25 0  43.125 0.25 0  43.875 0.25 0  44.625 0.25 0  45.375 0.25 0  46.125 0.25 0  46.875 0.25 0  47.625 0.25 0  48.375 0.25 0  49.125 0.25 0  49.875 0.25 0  50.625 0.25 0  51.375 0.25 0  52.125 0.25 0  52.875 0.25 0  53.625 0.25 0  54.375 0.25 0  55.125 0.25 0  55.875 0.25 0  56.625 0.25 0  57.375 0.25 0  58.125 0.25 0  58.875 0.25 0  59.625 0.25 0  0.375 0.75 0  1.125 0.75 0  1.875 0.75 0  2.625 0.75 0  3.375 0.75 0  4.125 0.75 0  4.875 0.75 0  5.625 0.75 0  6.375 0.75 0  7.125 0.75 0  7.875 0.75 0  8.625 0.75 0  9.375 0.75 0  10.125 0.75 0  10.875 0.75 0  11.625 0.75 0  12.375 0.75 0  13.125 0.75 0  13.875 0.75 0  14.625 0.75 0  15.375 0.75 0  16.125 0.75 0  16.875 0.75 0  17.625 0.75 0  18.375 0.75 0  19.125 0.75 0  19.875 0.75 0  20.625 0.75 0  21.375 0.75 0  22.125 0.75 0  22.875 0.75 0  23.625 0.75 0  24.375 0.75 0  25.125 0.75 0  25.875 0.75 0  26.625 0.75 0  27.375 0.75 0  28.125 0.75 0  28.875 0.75 0  29.625 0.75 0  30.375 0.75 0  31.125 0.75 0  31.875 0.75 0  32.625 0.75 0  33.375 0.75 0  34.125 0.75 0  34.875 0.75 0  35.625 0.75 0  36.375 0.75 0  37.125 0.75 0  37.875 0.75 0  38.625 0.75 0  39.375 0.75 0  40.125 0.75 0  40
[...]
<PointData  Scalars="f_8-1"> 
<DataArray  type="Float64"  Name="f_8-1"  format="ascii">1.1336581624050295e+10  -3.6188542611502510e+10  -1.3389777482209776e+10  -8.1072395689020214e+09  -4.3638411636014872e+09  -8.7930908702371635e+09  -1.4572111155964279e+09  -8.4208223791792383e+09  -1.8313767122396650e+09  -4.9828120066701231e+09  6.2201935225501144e+08  -1.1895538393936438e+10  -5.0706915710700064e+09  -5.7183695561772842e+09  1.5399121289191024e+09  -9.1456826211388512e+09  -7.8211373292153912e+09  -1.3709915695301268e+09  -7.6759171733650093e+09  6.2344225232071571e+09  2.5297702792288227e+10  -7.1813696019320129e+10  1.5900043208910104e+07  3.5374500852002007e+10  6.8435232132437180e+10  4.1899345038428047e+10  1.7034284136122175e+10  -7.3764165061232605e+10  1.0707747946538936e+11  3.6255645547290352e+10  -2.3847501734107136e+10  -7.9245276411337967e+10  4.7774331753337944e+10  -4.0039945574489281e+10  1.3721743043000624e+09  -8.2808436421377884e+10  7.3394240030753036e+10  -1.7045384213463938e+10  1.4558788209673700e+09  -5.9525341143362799e+09  2.2212051672815147e+10  -2.2961442488808853e+10  1.3263312167703812e+10  -8.3284360495737038e+09  -2.6663975983704257e+09  3.0231533265749268e+10  2.4042502729572575e+10  1.3862464350293228e+10  1.3248445642358908e+10  7.3464190986657991e+09  1.3357758627594769e+10  1.4636272867212156e+10  2.4653386326264980e+10  4.0090704755518486e+10  9.4020590620802784e+09  8.0668897781341724e+09  3.0169413419764094e+09  6.4512130723154907e+09  1.7645523479009515e+08  1.8764917572125762e+09  1.8038209867126183e+10  -7.9730703308536444e+09  -3.7439747271593785e+08  -5.8615771897663631e+09  7.8724141537082682e+09  1.4243559270295206e+10  1.8645792682066000e+09  1.2853924065561007e+10  5.4728474507102242e+09  6.1866659682638264e+09  1.0943488196745810e+10  6.9328013027974100e+09  5.4653027456491241e+09  9.4466293815728798e+09  5.5317341025460663e+09  -9.8544612151834443e+06  2.4649694387978463e+09  -1.3993251433963174e+08  -5.9414936332267303e+09  2.3096917061464840e+08  -2.8621595477709785e+09  -3.2067908491596532e+09  7.5490837813565578e+09  -5.9027970668609467e+09  1.2538898440042417e+09  3.5363445458416629e+08  -1.8871035142704098e+10  -7.3094723438934908e+09  -7.3106654032833595e+09  -7.4296377150599031e+09  -9.1475001286301613e+09  -5.8323318101568470e+09  -9.2698594670573730e+09  -6.2812602976854811e+09  -6.5135740123132849e+09  -4.4828422030883532e+09  -1.2567548704897535e+10  -6.0537555120737720e+08  -2.7640388864934554e+09  -2.1681214440940490e+09  -4.4959937343691528e+08  -3.6268454200019455e+10  1.2925898344594152e+08  -3.5442297522189018e+10  -4.6848905154174814e+09  -2.0268280504329693e+09  3.5783956823926933e+10  -1.8480326071480862e+10  -4.6260278405909891e+09  -3.6162464420937332e+10  -2.9416092226739731e+10  -6.4093886641467743e+10  -3.6655300517203491e+10  -1.4130916678086063e+10  2.2969479679421291e+09  -1.7853197194198158e+10  -5.3847948663390495e+10  -5.8584080635946426e+09  -3.1723683317628918e+10  -4.3805088315970430e+09  7.5593161751288033e+09  -1.7169793508454451e+10  -4.4869524768689775e+09  -6.2464153733100021e+08  1.1662604100504696e+10  -2.2391687858288994e+10  1.2861322834559893e+10  4.4022362632418571e+10  -4.4360346816508913e+09  5.0391966391079102e+09  1.5871610982557007e+10  4.7337818081509180e+09  1.7073449043175133e+10  1.0735035241205021e+10  3.6055323886302551e+10  2.5919435822833599e+10  1.1532328550978704e+10  4.5690118702175379e+09  4.1130121803952656e+09  9.4813243662182274e+09  -3.9641822806781888e+09  -6.5198419319302654e+09  -5.0747463969656134e+09  -8.5012798395864925e+09  -4.6109121640310812e+09  7.9230043998645048e+09  -3.3188766064945173e+09  9.7597305101289520e+09  3.4101231035325384e+09  6.3272885432489405e+09  4.2496835127910652e+09  6.6613610673158455e+09  4.9211944294757729e+09  1.7784160098728004e+09  1.4519133147018820e+10  -1.2757807253772819e+09  5.8315632784410219e+09  -6.8714467741199770e+09  2.8743161678371549e+09  -4.6499188749164906e+09  -1.5471716760507832e+09  2.6961807946173372e+09  -1.8320333234553099e+08  -1.2953514210997480e+10  -8.6430453886942062e+09  1.1138425270855100e+09  -7.4718799093284664e+09  8.0721170934339771e+09  -1.4648121887675812e+10  -5.8797430370191562e+08  -6.5132288032858639e+09  7.4905140100171204e+09  2.3829199149837961e+09  -8.3757110245141256e+08  -2.5845444679514647e+09  2.7674861765383375e+08  -8.7253200268191242e+09  -2.4346863705657837e+10  -5.3240393018761911e+09  -1.1838965027971067e+10  -2.5436780740995708e+09  -1.6449865649483370e+10  -2.9554463481353718e+10  -1.4691452084473055e+10  1.4843048921213903e+10  3.2592759687211224e+10  -2.0467406606683285e+10  -4.3466541634342060e+09  3.1360701927743349e+09  -3.9743136351539566e+10  2.6902893476211400e+09  -6.6992156559263855e+10  -8.6936460989754028e+10  -1.0876293171658251e+10  -2.0759328583499329e+10  6.3200188130388823e+09  -2.1421175259578659e+10  2.7088974326820263e+10  7.4302038146594734e+09  5.8953808718734055e+10  8.6027172979834957e+09  -3.2851245407680573e+10  -2.4204481211492924e+10  -1.9367398344319103e+10  1.7458872342623550e+10  -2.1959143942109828e+09  -2.1188469440882393e+10  1.3353326966387196e+10  2.9336624403401405e+10  -2.5567249585224533e+09  2.4945523627865570e+10  2.0601094306004276e+10  1.1282292591862898e+10  9.0107033006301785e+09  1.2569141671495722e+10  2.1104027507273350e+10  1.9573782697669048e+10  -5.5415741055269394e+09  2.0759339584357197e+10  -5.4030152665766640e+09  1.3296077125450817e+10  4.8274711055363327e+08  -6.1965859609422388e+09  -5.0960192436512060e+09  -6.9235009586331148e+09  -3.2083298532846957e+06  3.0787505830399032e+09  9.0663642312716274e+09  -2.2261651936522846e+09  2.8330697362265630e+09  3.8793623025611825e+09  5.5307774682650547e+09  7.0285791086609449e+09  6.8934394370898533e+09  3.7387566070564556e+08  1.6553657170536666e+09  -8.0445186265682590e+08  6.1259645654451914e+09  -4.2653701970699410e+09  -2.4427680493129687e+09  -4.1262051543784466e+09  -6.0168713094978678e+08  1.0345408348671676e+08  -1.4099286882311609e+08  -1.1912579497876080e+10  -9.4228278104350414e+09  6.0216670441685829e+09  -7.1117168886717963e+08  -9.4699563690195560e+09  6.0200680985779009e+09  -5.9880806129782162e+09  -7.0743645510177002e+09  -1.8170932226027393e+09  -3.4280211653156376e+09  5.6417567878278818e+09  -1.3888235395059834e+09  -3.4235576417944064e+09  -3.0135533220365705e+09  -8.1692269686807079e+09  -1.6184161895715395e+10  -1.2075797441684166e+10  -2.3474160560779166e+09  -1.0462693325805460e+10  -1.7171983495343946e+10  -6.8258491790709963e+09  -6.2568629863242035e+09  -3.2097277423078213e+10  1.5758249567783710e+10  -5.9001752348949448e+10  -2.3647143074442257e+10  2.8604833645450115e+10  -4.6031602171175339e+10  8.5764610154853746e+07  2.4415568142710390e+09  -4.9906471879560265e+10  1.0270355920164174e+11  3.9609555405707994e+09  2.7186549820594263e+09  2.1659842133072556e+10  2.9946432322888897e+10  5.3479750438822470e+09  -1.7359275597665546e+10  -4.1980318332799149e+10  -1.4117430280602636e+10  -2.4442995435412346e+10  -4.4177676554010477e+09  -8.5613018471771498e+09  1.4283469992944437e+10  -1.0708473561886787e+10  3.7020240009219070e+10  5.7595236930076513e+09  3.2223969261793388e+10  7.8059867521925325e+09  2.4118664728333889e+10  1.0792370035840748e+10  1.1300420958126619e+10  2.3329462123195511e+10  8.5901757767657471e+09  -5.8471519101122255e+09  -6.0409211263614964e+08  1.3838930937391399e+10  5.4832442211325159e+09  -6.3721887810859766e+09  -1.2279115542440603e+09  -1.2123301657878948e+10  3.1601042465193105e+09  8.6869173479432812e+09  -3.7018870868546090e+09  -4.6137322919618530e+09  8.4235449506905050e+09  4.1194026391483998e+08  4.7830426628926849e+09  6.0566698006575060e+09  3.8125139761649480e+09  8.8709084614114285e+09  1.5389094563756802e+09  3.5927962556322494e+09  -9.5466356849714870e+09  3.1938684618639016e+09  -4.2513810510118496e+08  -1.1019884424584496e+10  -3.3197984319000163e+09  6.4566262121063542e+08  -3.6335942559728274e+09  5.4735265901326025e+08  2.0652154816370318e+09  -1.5724158429291502e+10  3.4591619552146034e+09  -3.1626972310835648e+09  -8.9238501894267731e+09  4.1855362856362176e+09  -1.8828619481585087e+10  -1.5820703515813124e+10  -9.2215920444560471e+09  -1.7852874600841455e+09  3.9724120409399886e+09  5.9644301309448409e+08  6.3982691044921322e+09  -1.1994598476830585e+10  -1.9110171129869312e+10  -1.3510835845264446e+10  -1.2322150464469877e+10  1.1408760446584537e+09  -1.0961823211805120e+10  -1.6249137792555128e+10  -1.1581846237784094e+10  -9.2323800012539312e+07  -3.2242367332792778e+10  1.1696612287601494e+10  -9.2497159548375721e+09  4.3602508263314064e+10  3.0808640784409557e+10  2.7413966145573719e+10  -5.6170126838550158e+09  -2.2099666965925312e+10  -9.0471197270206207e+10  8.7545312137591873e+10  -3.8792199704664769e+09  9.5411086317872753e+09  4.3859760928633423e+09  2.0254423014917957e+10  5.4569708609947617e+10  1.8199198678403614e+10  -2.9162028099563599e+10  -9.2727737308675861e+09  -5.1786691675382805e+09  -1.2887888065558496e+10  -5.1591294504930506e+09  -2.9965535548898091e+09  2.0399888878057673e+09  2.7194147249419788e+10  1.1087651923918339e+10  1.3550940420529608e+10  -1.9272909224493217e+09  1.8784900959559622e+08  8.9022783774961586e+09  1.6092457825558733e+10  1.1668506749425053e+10  6.1225132127413349e+09  -3.6570177533241715e+09  1.7413706073193130e+10  1.9349064273167492e+10  1.7346844667051890e+09  -7.0366185233321857e+09  -4.5381839473849213e+08  3.5812927037933888e+09  6.7614242632269182e+09  7.9152711998432369e+09  8.5950817946988487e+09  3.9673192771426682e+09  -4.5603048711765213e+09  5.2178130433903217e+09  -1.7697314971747022e+09  5.9734885815334153e+08  3.2560803161501198e+09  -1.4828550585116203e+09  -6.3912537576647291e+09  7.6824604228032100e+08  6.4278051524938655e+08  -1.4911963357662308e+09  2.0577932144460077e+09  -1.6670326401840432e+09  -6.1887862796945967e+07  -1.5322312051959088e+09  1.6805980914539502e+09  7.8901657208909452e+08  -1.1345656108696034e+09  -9.7638551703305378e+09  -6.8018839777516594e+09  6.6857629838600578e+09  -1.3694919039645689e+10  3.8371199832006216e+09  -5.1343009903588524e+09  -2.0362554771794586e+09  -1.3478973767286331e+10  -7.5534128432642126e+09  5.7893223384613047e+09  -5.1264319131776800e+09  -3.8881602158529305e+09  -9.0849967461300240e+09  -3.0268112869470909e+10  -9.7641405064219894e+09  -8.8645767647063923e+09  1.0614294439359001e+10  -6.6942503073268948e+09  -9.4396091853619881e+09  3.8905779380549904e+10  2.3109392032261515e+09  -1.6474344199300325e+10  4.1889864308960271e+09  -6.2828330107802725e+09  3.5973324106245804e+09  3.4253555378165081e+10  -9.7891815856898270e+09  -2.5958070480861465e+10  -3.0281678031077648e+10  -1.8629710172400082e+10  7.9662753986648804e+10  -8.8735814771684494e+09  4.0076964450178413e+10  4.0026979565226865e+09  4.6432040295880260e+09  -1.7098488678461531e+10  1.6327811510779129e+10  8.8260992245236850e+08  1.0300915342841190e+10  -5.3832122432783842e+09  -1.0997814004025356e+10  -1.5596678632342968e+10  -3.3036301330318338e+08  1.0165665139150721e+10  1.1602813742239397e+10  6.8871416629612494e+09  1.5228138065350428e+09  6.4662458039313822e+09  2.2445167698499427e+09  1.0425764359970303e+10  3.6056126016043239e+09  5.8486530639641380e+09  1.2856971568316107e+09  2.3221529188958945e+09  4.6548960366051016e+09  1.8988150547144463e+10  7.7156336439914093e+09  -7.2511490574805222e+09  -5.7940146980323000e+09  -4.3410997166298714e+09  7.9614770143111887e+09  7.0751870499289207e+09  1.0526620499016240e+09  1.6910108793276021e+08  -1.2676792896413381e+09  -3.9904850138422160e+09  2.0723587928773298e+09  -2.7849001446396599e+09  -5.5479321476777134e+09  1.9146786937163872e+08  -5.6791513706952143e+09  -6.5393442234843273e+09  -9.7033772695330200e+09  -9.7251934714389286e+09  -2.4825106903903341e+09  -2.9510544276554232e+09  7.3198222544099414e+08  4.0421667220157356e+09  2.7255419631918669e+09  2.4707268910642700e+09  -2.3147211135978284e+09  -8.3365888325410957e+09  5.3035215595527096e+09  -3.0929993873827881e+10  -1.2270180714945015e+10  -7.9601714589135933e+09  -3.2662090133388371e+09  -1.9340623165051750e+10  -2.8843500786660583e+10  -5.3401073193485746e+09  2.6662773169437817e+08  1.2905234890973437e+09  -1.2465905592914068e+10  -1.6288765010658352e+10  1.3672128606302780e+10  2.3527688151207802e+10  -2.0226959148919716e+10  1.5941213119045929e+10  -3.4750474271437893e+09  1.5978339314604914e+09  8.0130781801326027e+09  2.7370203008797302e+09  -2.0353649134112751e+09  -3.1089958085440187e+09  7.3798386990054197e+09  8.3377071371813612e+09  2.9952968604560802e+10  6.8251237005207386e+09  -1.4203591913278713e+10  -2.7401895489561813e+10  -7.4654936080738363e+09  3.0344336888577185e+09  -2.8116331598289951e+10  5.7219942145624905e+09  2.3782191497681034e+10  -1.7635494732202381e+10  1.8860642792774291e+09  -6.8365897545558310e+09  -7.1450966771807499e+09  -7.0755275013067951e+09  1.7014911478466278e+10  -1.5489941711128866e+10  1.8059237417667768e+09  -1.2860449111675875e+10  7.9253128722605200e+09  1.2599481498064718e+10  1.1314456761450378e+10  -5.0727336244059601e+09  7.7318817915477314e+09  5.5452163493529987e+09  8.7758722183228455e+09  4.6777533538438044e+09  5.3430365243399410e+09  4.8132711049118662e+09  2.1576907493130383e+09  -7.3440071959138048e+08  1.4361017750116371e+10  3.9841963557463803e+09  1.9020667307691116e+09  5.7160766965211420e+09  -5.3673877353816729e+09  8.7449076377060394e+09  1.7852342228508492e+10  3.0491841751045203e+09  5.1485992664542704e+09  -7.7434282639864521e+09  -9.4021339902707779e+08  -2.0801803901863998e+08  -3.1372825344702039e+09  -2.9694940204005551e+09  -4.2256008211537371e+09  -1.8355092663029346e+08  -1.0006593051462408e+10  5.3418930999775046e+08  -8.7348281145740604e+09  -5.4711144620114412e+09  -2.0642215076197615e+09  3.9481836906623693e+09  8.0279127049325311e+08  1.0315759806715281e+09  4.1637460249915605e+09  -1.9630750533255157e+09  -6.4593114242817364e+09  -1.2101102946892454e+10  -1.1559966607800055e+10  7.3058076155983152e+09  3.6339193606898534e+08  6.2712978866625166e+08  -4.8456549492557325e+09  -1.4311646121609671e+10  5.9012547271763830e+09  -8.9719233150750237e+09  2.4019951147137957e+09  -4.7669523623926010e+09  4.7719365283240833e+09  -7.7378729311159201e+09  1.7056324690013580e+10  1.9722570287523761e+09  1.3084800172141292e+09  -1.1151153697165007e+10  1.8493946180634739e+10  2.6968062793364868e+10  9.7986058195442848e+09  2.2525924766422050e+10  -4.7564185084073572e+09  2.2743394458483036e+10  2.3858299076558033e+10  3.2070842981457977e+10  2.6144907705767197e+10  2.0666438773057491e+10  -3.6049663818090233e+10  -1.2484684605948059e+10  -3.3528086363305485e+10  -1.0509908532519924e+10  -4.3764267549277565e+10  -1.2057174682084904e+10  -2.5478996527535183e+10  -1.9422622019847023e+10  1.7316618140282776e+10  2.6892446605829662e+08  1.5488358307081541e+10  -5.1583776629911375e+09  -4.5036644874917593e+09  -9.9131781212732067e+09  2.5867541627661037e+09  1.2255149190337498e+10  9.5528819324478340e+09  1.2125211574747298e+09  -7.4763628153728209e+09  5.8936377242033253e+09  -4.0826586333235364e+09  2.1403717728360858e+09  9.3123961263853149e+09  -6.5083187479406424e+09  -4.7093144837032156e+09  -1.0370962999773016e+10  -3.0516530296628494e+09  9.8408574342743683e+09  7.5074491894813919e+09  1.6257309788011035e+08  -2.4717913527837095e+09  -1.0603157229392403e+09  2.1655427677962842e+09  2.2139623544787507e+09  1.1407967169868171e+09  3.2394045561508451e+09  3.3721376716150360e+09  2.9771408283492975e+09  -2.4388724546147184e+09  -5.8933954267035379e+09  -4.6278311572254028e+09  -1.1884774595737268e+10  -8.8439976500451622e+09  -3.4713780364396019e+09  5.5106441021552200e+09  -6.6168352971674614e+09  -4.1518016206271601e+08  1.2960477235214391e+09  3.5205846432965283e+09  2.5555095354737129e+09  -8.9056159523666930e+08  3.6914330162611862e+10  -5.7251818892133455e+09  4.5435052269423598e+08  6.5543906659949446e+09  2.0341182513699839e+09  3.6229534617736876e+08  -2.2851671011873250e+09  5.3541208539566383e+09  -6.7024042439494553e+09  5.6810898232333269e+09  -3.1576949189309742e+07  6.3957731684813471e+09  -9.0490085899966507e+09  5.8101400903418932e+09  -2.1749540220703411e+09  1.4723790127381389e+09  -3.3326541343672633e+09  2.2462512398380561e+09  -4.1232013579201941e+09  1.9309604709299641e+10  -2.6589225610999104e+07  -7.0684969993167133e+09  7.3672619003172483e+09  -1.1596275401244415e+10  3.9800087621220269e+09  1.8902376248795567e+10  -2.9014303215553684e+10  1.0898617462540731e+10  -2.1133602664649997e+09  -5.0006781748337116e+09  -1.5467359494912828e+10  1.5191112179635443e+10  -5.3386393564938078e+09  -1.8060694638824005e+09  2.5132696097524948e+09  -4.1643281193178048e+09  6.1786051326625042e+09  -2.7037204948106322e+09  -6.6945459693854017e+09  5.1532609479043798e+09  -3.8113338379439421e+09  6.9004153863243132e+09  -4.1204465030521159e+09  2.8601839218382096e+09  1.5872154409168591e+09  -3.1522463280593200e+09  5.7576529090567474e+09  -2.1887486632601523e+09  5.2454092787246192e+08  1.6102417152994341e+08  3.9385339852209511e+09  1.9678815317453935e+09  -6.4534593793939171e+09  -1.0562370104282757e+10  -1.9457220353990383e+09  1.0618511245568426e+10  6.4827854895868254e+08  5.2314147244084244e+09  -9.2522813755652535e+08  1.0763402855405300e+09  2.1496358403900914e+09  5.0892177606192160e+09  -1.3595958439900291e+09  1.1257826784716144e+09  -9.8896021712001050e+08  1.2578231679699483e+09  5.8602850705015268e+09  -2.7464530268593493e+09  2.5623830081988783e+09  -4.1734960584315103e+08  -5.9868836154906106e+08  -2.0315666876883910e+09  -1.7730261585392127e+09  -9.5900851475563586e+07  5.0038629833996353e+09  -8.2101062406882706e+09  1.3993679836179955e+09  1.2404123712652242e+09  3.1086988350804800e+08  3.6584433218544531e+08  -1.2895303038728120e+09  -7.4380926077482061e+09  1.6487954344806862e+10  1.4485934694588339e+10  -6.3525296985677986e+09  -8.1982291491114492e+09  -4.0229022641238532e+09  3.0364710110039234e+08  -5.3282342686648054e+09  -1.0871124989930408e+10  -7.0111775261509666e+09  -4.3127174661745119e+09  -6.6492105562282860e+08  -1.1958211049467283e+10  -4.1774526262081089e+09  -7.2772177392708149e+09  -1.6114345570339794e+10  -2.2437565292632651e+09  -3.5993070374377713e+07  -2.8670462064083166e+09  1.4271078221016989e+09  -2.3335967542149761e+10  -6.3873489616128075e+10  3.6861828180642479e+10  2.9019375304526756e+10  5.1610331657765060e+10  -1.0151637198869326e+10  -4.5447759686363853e+10  2.1181386489882621e+08  5.5486697575133842e+10  -4.1404711389176346e+10  -1.0561774422584644e+10  -2.2994039859956821e+10  -8.4809512996645460e+09  -7.2096168240079365e+09  -3.3966252758858696e+10  9.3652645515287399e+09  1.0642411256644241e+10  -4.2907686619607129e+09  3.8266896506730682e+10  -2.0461884397028576e+10  -5.1606471286645226e+10  -1.1238156019961615e+10  9.2707222520097446e+09  -1.8609146197777473e+10  -1.1392209368333502e+10  2.6267142987249794e+10  1.2468521606505911e+10  9.6333905497369614e+09  1.1905935147020422e+10  1.2777687596068027e+10  7.9510214679705515e+09  1.8064034315561722e+10  2.9704225654734547e+10  1.9362378349544052e+10  8.3389217790349245e+09  9.9849951694500084e+09  -5.5677377878512359e+08  -2.6273364996747437e+08  1.1730486090497618e+09  1.5195446412896349e+10  -4.9331996013085175e+09  -1.3066053398247759e+09  8.2572399289604887e+07  -2.5574732524712005e+09  7.5300125868096657e+09  5.5228054492245359e+09  9.1408744950903664e+09  1.0769555547170578e+08  3.1311346533245587e+09  5.8251061930118103e+09  9.2609411566119556e+09  1.3519111549908648e+10  1.6537063903713505e+10  -1.7509758429360981e+09  1.6419180965872922e+09  3.4486405663245559e+09  -7.7145539115865746e+09  -4.7236370419776459e+09  -3.0730686722985082e+09  2.2079588858441257e+09  -8.8756212149974442e+09  -1.2704208609486792e+10  -9.6746566012670746e+09  -2.2830949664596