<?xml version="1.0"?>
<VTKFile type="UnstructuredGrid"  version="0.1"  >
<UnstructuredGrid>
<Piece  NumberOfPoints="1369" NumberOfCells="2560">
<Points>
<DataArray  type="Float64"  NumberOfComponents="3"  format="ascii">0 0 0  0.75 0 0  1.5 0 0  2.25 0 0  3 0 0  3.75 0 0  4.5 0 0  5.25 0 0  6 0 0  6.75 0 0  7.5 0 0  8.25 0 0  9 0 0  9.75 0 0  10.5 0 0  11.25 0 0  12 0 0  12.75 0 0  13.5 0 0  14.25 0 0  15 0 0  15.75 0 0  16.5 0 0  17.25 0 0  18 0 0  18.75 0 0  19.5 0 0  20.25 0 0  21 0 0  21.75 0 0  22.5 0 0  23.25 0 0  24 0 0  24.75 0 0  25.5 0 0  26.25 0 0  27 0 0  27.75 0 0  28.5 0 0  29.25 0 0  30 0 0  30.75 0 0  31.5 0 0  32.25 0 0  33 0 0  33.75 0 0  34.5 0 0  35.25 0 0  36 0 0  36.75 0 0  37.5 0 0  38.25 0 0  39 0 0  39.75 0 0  40.5 0 0  41.25 0 0  42 0 0  42.75 0 0  43.5 0 0  44.25 0 0  45 0 0  45.75 0 0  46.5 0 0  47.25 0 0  48 0 0  48.75 0 0  49.5 0 0  50.25 0 0  51 0 0  51.75 0 0  52.5 0 0  53.25 0 0  54 0 0  54.75 0 0  55.5 0 0  56.25 0 0  57 0 0  57.75 0 0  58.5 0 0  59.25 0 0  60 0 0  0 0.5 0  0.75 0.5 0  1.5 0.5 0  2.25 0.5 0  3 0.5 0  3.75 0.5 0  4.5 0.5 0  5.25 0.5 0  6 0.5 0  6.75 0.5 0  7.5 0.5 0  8.25 0.5 0  9 0.5 0  9.75 0.5 0  10.5 0.5 0  11.25 0.5 0  12 0.5 0  12.75 0.5 0  13.5 0.5 0  14.25 0.5 0  15 0.5 0  15.75 0.5 0  16.5 0.5 0  17.25 0.5 0  18 0.5 0  18.75 0.5 0  19.5 0.5 0  20.25 0.5 0  21 0.5 0  21.75 0.5 0  22.5 0.5 0  23.25 0.5 0  24 0.5 0  24.75 0.5 0  25.5 0.5 0  26.25 0.5 0  27 0.5 0  27.75 0.5 0  28.5 0.5 0  29.25 0.5 0  30 0.5 0  30.75 0.5 0  31.5 0.5 0  32.25 0.5 0  33 0.5 0  33.75 0.5 0  34.5 0.5 0  35.25 0.5 0  36 0.5 0  36.75 0.5 0  37.5 0.5 0  38.25 0.5 0  39 0.5 0  39.75 0.5 0  40.5 0.5 0  41.25 0.5 0  42 0.5 0  42.75 0.5 0  43.5 0.5 0  44.25 0.5 0  45 0.5 0  45.75 0.5 0  46.5 0.5 0  47.25 0.5 0  48 0.5 0  48.75 0.5 0  49.5 0.5 0  50.25 0.5 0  51 0.5 0  51.75 0.5 0  52.5 0.5 0  53.25 0.5 0  54 0.5 0  54.75 0.5 0  55.5 0.5 0  56.25 0.5 0  57 0.5 0  57.75 0.5 0  58.5 0.5 0  59.25 0.5 0  60 0.5 0  0 1 0  0.75 1 0  1.5 1 0  2.25 1 0  3 1 0  3.75 1 0  4.5 1 0  5.25 1 0  6 1 0  6.75 1 0  7.5 1 0  8.25 1 0  9 1 0  9.75 1 0  10.5 1 0  11.25 1 0  12 1 0  12.75 1 0  13.5 1 0  14.25 1 0  15 1 0  15.75 1 0  16.5 1 0  17.25 1 0  18 1 0  18.75 1 0  19.5 1 0  20.25 1 0  21 1 0  21.75 1 0  22.5 1 0  23.25 1 0  24 1 0  24.75 1 0  25.5 1 0  26.25 1 0  27 1 0  27.75 1 0  28.5 1 0  29.25 1 0  30 1 0  30.75 1 0  31.5 1 0  32.25 1 0  33 1 0  33.75 1 0  34.5 1 0  35.25 1 0  36 1 0  36.75 1 0  37.5 1 0  38.25 1 0  39 1 0  39.75 1 0  40.5 1 0  41.25 1 0  42 1 0  42.75 1 0  43.5 1 0  44.25 1 0  45 1 0  45.75 1 0  46.5 1 0  47.25 1 0  48 1 0  48.75 1 0  49.5 1 0  50.25 1 0  51 1 0  51.75 1 0  52.5 1 0  53.25 1 0  54 1 0  54.75 1 0  55.5 1 0  56.25 1 0  57 1 0  57.75 1 0  58.5 1 0  59.25 1 0  60 1 0  0 1.5 0  0.75 1.5 0  1.5 1.5 0  2.25 1.5 0  3 1.5 0  3.75 1.5 0  4.5 1.5 0  5.25 1.5 0  6 1.5 0  6.75 1.5 0  7.5 1.5 0  8.25 1.5 0  9 1.5 0  9.75 1.5 0  10.5 1.5 0  11.25 1.5 0  12 1.5 0  12.75 1.5 0  13.5 1.5 0  14.25 1.5 0  15 1.5 0  15.75 1.5 0  16.5 1.5 0  17.25 1.5 0  18 1.5 0  18.75 1.5 0  19.5 1.5 0  20.25 1.5 0  21 1.5 0  21.75 1.5 0  22.5 1.5 0  23.25 1.5 0  24 1.5 0  24.75 1.5 0  25.5 1.5 0  26.25 1.5 0  27 1.5 0  27.75 1.5 0  28.5 1.5 0  29.25 1.5 0  30 1.5 0  30.75 1.5 0  31.5 1.5 0  32.25 1.5 0  33 1.5 0  33.75 1.5 0  34.5 1.5 0  35.25 1.5 0  36 1.5 0  36.75 1.5 0  37.5 1.5 0  38.25 1.5 0  39 1.5 0  39.75 1.5 0  40.5 1.5 0  41.25 1.5 0  42 1.5 0  42.75 1.5 0  43.5 1.5 0  44.25 1.5 0  45 1.5 0  45.75 1.5 0  46.5 1.5 0  47.25 1.5 0  48 1.5 0  48.75 1.5 0  49.5 1.5 0  50.25 1.5 0  51 1.5 0  51.75 1.5 0  52.5 1.5 0  53.25 1.5 0  54 1.5 0  54.75 1.5 0  55.5 1.5 0  56.25 1.5 0  57 1.5 0  57.75 1.5 0  58.5 1.5 0  59.25 1.5 0  60 1.5 0  0 2 0  0.75 2 0  1.5 2 0  2.25 2 0  3 2 0  3.75 2 0  4.5 2 0  5.25 2 0  6 2 0  6.75 2 0  7.5 2 0  8.25 2 0  9 2 0  9.75 2 0  10.5 2 0  11.25 2 0  12 2 0  12.75 2 0  13.5 2 0  14.25 2 0  15 2 0  15.75 2 0  16.5 2 0  17.25 2 0  18 2 0  18.75 2 0  19.5 2 0  20.25 2 0  21 2 0  21.75 2 0  22.5 2 0  23.25 2 0  24 2 0  24.75 2 0  25.5 2 0  26.25 2 0  27 2 0  27.75 2 0  28.5 2 0  29.25 2 0  30 2 0  30.75 2 0  31.5 2 0  32.25 2 0  33 2 0  33.75 2 0  34.5 2 0  35.25 2 0  36 2 0  36.75 2 0  37.5 2 0  38.25 2 0  39 2 0  39.75 2 0  40.5 2 0  41.25 2 0  42 2 0  42.75 2 0  43.5 2 0  44.25 2 0  45 2 0  45.75 2 0  46.5 2 0  47.25 2 0  48 2 0  48.75 2 0  49.5 2 0  50.25 2 0  51 2 0  51.75 2 0  52.5 2 0  53.25 2 0  54 2 0  54.75 2 0  55.5 2 0  56.25 2 0  57 2 0  57.75 2 0  58.5 2 0  59.25 2 0  60 2 0  0 2.5 0  0.75 2.5 0  1.5 2.5 0  2.25 2.5 0  3 2.5 0  3.75 2.5 0  4.5 2.5 0  5.25 2.5 0  6 2.5 0  6.75 2.5 0  7.5 2.5 0  8.25 2.5 0  9 2.5 0  9.75 2.5 0  10.5 2.5 0  11.25 2.5 0  12 2.5 0  12.75 2.5 0  13.5 2.5 0  14.25 2.5 0  15 2.5 0  15.75 2.5 0  16.5 2.5 0  17.25 2.5 0  18 2.5 0  18.75 2.5 0  19.5 2.5 0  20.25 2.5 0  21 2.5 0  21.75 2.5 0  22.5 2.5 0  23.25 2.5 0  24 2.5 0  24.75 2.5 0  25.5 2.5 0  26.25 2.5 0  27 2.5 0  27.75 2.5 0  28.5 2.5 0  29.25 2.5 0  30 2.5 0  30.75 2.5 0  31.5 2.5 0  32.25 2.5 0  33 2.5 0  33.75 2.5 0  34.5 2.5 0  35.25 2.5 0  36 2.5 0  36.75 2.5 0  37.5 2.5 0  38.25 2.5 0  39 2.5 0  39.75 2.5 0  40.5 2.5 0  41.25 2.5 0  42 2.5 0  42.75 2.5 0  43.5 2.5 0  44.25 2.5 0  45 2.5 0  45.75 2.5 0  46.5 2.5 0  47.25 2.5 0  48 2.5 0  48.75 2.5 0  49.5 2.5 0  50.25 2.5 0  51 2.5 0  51.75 2.5 0  52.5 2.5 0  53.25 2.5 0  54 2.5 0  54.75 2.5 0  55.5 2.5 0  56.25 2.5 0  57 2.5 0  57.75 2.5 0  58.5 2.5 0  59.25 2.5 0  60 2.5 0  0 3 0  0.75 3 0  1.5 3 0  2.25 3 0  3 3 0  3.75 3 0  4.5 3 0  5.25 3 0  6 3 0  6.75 3 0  7.5 3 0  8.25 3 0  9 3 0  9.75 3 0  10.5 3 0  11.25 3 0  12 3 0  12.75 3 0  13.5 3 0  14.25 3 0  15 3 0  15.75 3 0  16.5 3 0  17.25 3 0  18 3 0  18.75 3 0  19.5 3 0  20.25 3 0  21 3 0  21.75 3 0  22.5 3 0  23.25 3 0  24 3 0  24.75 3 0  25.5 3 0  26.25 3 0  27 3 0  27.75 3 0  28.5 3 0  29.25 3 0  30 3 0  30.75 3 0  31.5 3 0  32.25 3 0  33 3 0  33.75 3 0  34.5 3 0  35.25 3 0  36 3 0  36.75 3 0  37.5 3 0  38.25 3 0  39 3 0  39.75 3 0  40.5 3 0  41.25 3 0  42 3 0  42.75 3 0  43.5 3 0  44.25 3 0  45 3 0  45.75 3 0  46.5 3 0  47.25 3 0  48 3 0  48.75 3 0  49.5 3 0  50.25 3 0  51 3 0  51.75 3 0  52.5 3 0  53.25 3 0  54 3 0  54.75 3 0  55.5 3 0  56.25 3 0  57 3 0  57.75 3 0  58.5 3 0  59.25 3 0  60 3 0  0 3.5 0  0.75 3.5 0  1.5 3.5 0  2.25 3.5 0  3 3.5 0  3.75 3.5 0  4.5 3.5 0  5.25 3.5 0  6 3.5 0  6.75 3.5 0  7.5 3.5 0  8.25 3.5 0  9 3.5 0  9.75 3.5 0  10.5 3.5 0  11.25 3.5 0  12 3.5 0  12.75 3.5 0  13.5 3.5 0  14.25 3.5 0  15 3.5 0  15.75 3.5 0  16.5 3.5 0  17.25 3.5 0  18 3.5 0  18.75 3.5 0  19.5 3.5 0  20.25 3.5 0  21 3.5 0  21.75 3.5 0  22.5 3.5 0  23.25 3.5 0  24 3.5 0  24.75 3.5 0  25.5 3.5 0  26.25 3.5 0  27 3.5 0  27.75 3.5 0  28.5 3.5 0  29.25 3.5 0  30 3.5 0  30.75 3.5 0  31.5 3.5 0  32.25 3.5 0  33 3.5 0  33.75 3.5 0  34.5 3.5 0  35.25 3.5 0  36 3.5 0  36.75 3.5 0  37.5 3.5 0  38.25 3.5 0  39 3.5 0  39.75 3.5 0  40.5 3.5 0  41.25 3.5 0  42 3.5 0  42.75 3.5 0  43.5 3.5 0  44.25 3.5 0  45 3.5 0  45.75 3.5 0  46.5 3.5 0  47.25 3.5 0  48 3.5 0  48.75 3.5 0  49.5 3.5 0  50.25 3.5 0  51 3.5 0  51.75 3.5 0  52.5 3.5 0  53.25 3.5 0  54 3.5 0  54.75 3.5 0  55.5 3.5 0  56.25 3.5 0  57 3.5 0  57.75 3.5 0  58.5 3.5 0  59.25 3.5 0  60 3.5 0  0 4 0  0.75 4 0  1.5 4 0  2.25 4 0  3 4 0  3.75 4 0  4.5 4 0  5.25 4 0  6 4 0  6.75 4 0  7.5 4 0  8.25 4 0  9 4 0  9.75 4 0  10.5 4 0  11.25 4 0  12 4 0  12.75 4 0  13.5 4 0  14.25 4 0  15 4 0  15.75 4 0  16.5 4 0  17.25 4 0  18 4 0  18.75 4 0  19.5 4 0  20.25 4 0  21 4 0  21.75 4 0  22.5 4 0  23.25 4 0  24 4 0  24.75 4 0  25.5 4 0  26.25 4 0  27 4 0  27.75 4 0  28.5 4 0  29.25 4 0  30 4 0  30.75 4 0  31.5 4 0  32.25 4 0  33 4 0  33.75 4 0  34.5 4 0  35.25 4 0  36 4 0  36.75 4 0  37.5 4 0  38.25 4 0  39 4 0  39.75 4 0  40.5 4 0  41.25 4 0  42 4 0  42.75 4 0  43.5 4 0  44.25 4 0  45 4 0  45.75 4 0  46.5 4 0  47.25 4 0  48 4 0  48.75 4 0  49.5 4 0  50.25 4 0  51 4 0  51.75 4 0  52.5 4 0  53.25 4 0  54 4 0  54.75 4 0  55.5 4 0  56.25 4 0  57 4 0  57.75 4 0  58.5 4 0  59.25 4 0  60 4 0  0.375 0.25 0  1.125 0.25 0  1.875 0.25 0  2.625 0.25 0  3.375 0.25 0  4.125 0.25 0  4.875 0.25 0  5.625 0.25 0  6.375 0.25 0  7.125 0.25 0  7.875 0.25 0  8.625 0.25 0  9.375 0.25 0  10.125 0.25 0  10.875 0.25 0  11.625 0.25 0  12.375 0.25 0  13.125 0.25 0  13.875 0.25 0  14.625 0.25 0  15.375 0.25 0  16.125 0.25 0  16.875 0.25 0  17.625 0.25 0  18.375 0.25 0  19.125 0.25 0  19.875 0.25 0  20.625 0.25 0  21.375 0.25 0  22.125 0.25 0  22.875 0.25 0  23.625 0.25 0  24.375 0.25 0  25.125 0.25 0  25.875 0.25 0  26.625 0.25 0  27.375 0.25 0  28.125 0.25 0  28.875 0.25 0  29.625 0.25 0  30.375 0.25 0  31.125 0.25 0  31.875 0.25 0  32.625 0.25 0  33.375 0.25 0  34.125 0.25 0  34.875 0.25 0  35.625 0.25 0  36.375 0.25 0  37.125 0.25 0  37.875 0.25 0  38.625 0.25 0  39.375 0.25 0  40.125 0.25 0  40.875 0.25 0  41.625 0.25 0  42.375 0.25 0  43.125 0.25 0  43.875 0.25 0  44.625 0.25 0  45.375 0.25 0  46.125 0.25 0  46.875 0.25 0  47.625 0.25 0  48.375 0.25 0  49.125 0.25 0  49.875 0.25 0  50.625 0.25 0  51.375 0.25 0  52.125 0.25 0  52.875 0.25 0  53.625 0.25 0  54.375 0.25 0  55.125 0.25 0  55.875 0.25 0  56.625 0.25 0  57.375 0.25 0  58.125 0.25 0  58.875 0.25 0  59.625 0.25 0  0.375 0.75 0  1.125 0.75 0  1.875 0.75 0  2.625 0.75 0  3.375 0.75 0  4.125 0.75 0  4.875 0.75 0  5.625 0.75 0  6.375 0.75 0  7.125 0.75 0  7.875 0.75 0  8.625 0.75 0  9.375 0.75 0  10.125 0.75 0  10.875 0.75 0  11.625 0.75 0  12.375 0.75 0  13.125 0.75 0  13.875 0.75 0  14.625 0.75 0  15.375 0.75 0  16.125 0.75 0  16.875 0.75 0  17.625 0.75 0  18.375 0.75 0  19.125 0.75 0  19.875 0.75 0  20.625 0.75 0  21.375 0.75 0  22.125 0.75 0  22.875 0.75 0  23.625 0.75 0  24.375 0.75 0  25.125 0.75 0  25.875 0.75 0  26.625 0.75 0  27.375 0.75 0  28.125 0.75 0  28.875 0.75 0  29.625 0.75 0  30.375 0.75 0  31.125 0.75 0  31.875 0.75 0  32.625 0.75 0  33.375 0.75 0  34.125 0.75 0  34.875 0.75 0  35.625 0.75 0  36.375 0.75 0  37.125 0.75 0  37.875 0.75 0  38.625 0.75 0  39.375 0.75 0  40.125 0.75 0  40
[...]
<PointData  Scalars="f_8-1"> 
<DataArray  type="Float64"  Name="f_8-1"  format="ascii">4.8816579814072449e+00  4.0324378593558317e+00  3.2372349762351265e+00  2.8134344233753437e+00  2.4624890931953565e+00  2.1651277513595431e+00  1.8574633862000514e+00  1.5543631360061505e+00  1.2655333626530763e+00  1.0069426291357122e+00  7.8589885633874512e-01  6.0423759224822815e-01  4.5922663647858958e-01  3.4599004197852901e-01  2.5898367692741736e-01  1.9292214213558465e-01  1.4319852077367917e-01  1.0601027525911039e-01  7.8326917049990105e-02  5.7789603714325732e-02  4.2591961070844495e-02  3.1366446390169833e-02  2.3086149747659459e-02  1.6984452224172580e-02  1.2491469553281990e-02  9.1848674893855627e-03  6.7523618810168906e-03  4.9634217817165864e-03  3.6480724625963458e-03  2.6810995912755447e-03  1.9703225249161917e-03  1.4479122112707246e-03  1.0639759948941211e-03  7.8182432531578112e-04  5.7448213755447223e-04  4.2211961974654753e-04  3.1016116653679525e-04  2.2789409520639645e-04  1.6744537141000286e-04  1.2302917855675757e-04  9.0393739761070123e-05  6.6414681139815562e-05  4.8796145921907910e-05  3.5851123923483250e-05  2.6340010747310399e-05  1.9351966575748935e-05  1.4217730990569158e-05  1.0445555488353717e-05  7.6741249608611452e-06  5.6379637823635349e-06  4.1420161613225095e-06  3.0429680168754818e-06  2.2355226394512425e-06  1.6423164169052614e-06  1.2065092622497393e-06  8.8634037413796294e-07  6.5112807953298786e-07  4.7833074411651443e-07  3.5138731517446028e-07  2.5813070337810503e-07  1.8962205682059855e-07  1.3929428188784976e-07  1.0232277831578615e-07  7.5163114602858230e-08  5.5211357676460472e-08  4.0554517887340608e-08  2.9787201676120074e-08  2.1876906010811473e-08  1.6065048153613552e-08  1.1794247646568044e-08  8.6548924298343624e-09  6.3458685767568126e-09  4.6456901989854940e-09  3.3912625722507086e-09  2.4622432029022407e-09  1.7695006011823438e-09  1.2465720886974784e-09  8.4325335412514702e-10  5.2101094656933534e-10  2.4781338135223905e-10  4.9823570647257573e-12  5.0142133973415586e+00  3.9092787909304834e+00  3.2369904856990637e+00  2.7836276559857263e+00  2.4741020100939717e+00  2.1662576782591692e+00  1.8649731601129116e+00  1.5571646375303669e+00  1.2669816726430332e+00  1.0064464719542852e+00  7.8455465941021640e-01  6.0253187561646127e-01  4.5753562003610510e-01  3.4448445076630430e-01  2.5772616724488462e-01  1.9191278282052138e-01  1.4240947666926085e-01  1.0540449528938307e-01  7.7867667683091668e-02  5.7444541869158768e-02  4.2334352147285315e-02  3.1175014727769981e-02  2.2944372840898047e-02  1.6879707827266124e-02  1.2414223744820046e-02  9.1279762958398746e-03  6.7105025554841935e-03  4.9326447365257674e-03  3.6254557191511198e-03  2.6644860934340571e-03  1.9581224191186899e-03  1.4389550637517903e-03  1.0574008838291720e-03  7.7699839455344242e-04  5.7094039888958698e-04  4.1952054482073952e-04  3.0825397246191658e-04  2.2649466936418871e-04  1.6641856739307861e-04  1.2227580450327794e-04  8.9840999351871581e-05  6.6009153262517055e-05  4.8498629981271633e-05  3.5632855665717135e-05  2.6179884578485383e-05  1.9234496879934874e-05  1.4131555955552675e-05  1.0382339142099210e-05  7.6277514740075132e-06  5.6039462627789901e-06  4.1170628536143104e-06  3.0246640079998987e-06  2.2220963211090923e-06  1.6324681392584429e-06  1.1992856199872005e-06  8.8104197405506860e-07  6.4724187372389954e-07  4.7548038675195847e-07  3.4929674277896646e-07  2.5659741671412628e-07  1.8849752036849891e-07  1.3846954507057800e-07  1.0171792753576444e-07  7.4719535622003548e-08  5.4886059677785456e-08  4.0315969977584595e-08  2.9612278899042944e-08  2.1748649283903357e-08  1.5971021295012537e-08  1.1725332438783600e-08  8.6044050596300728e-09  6.3089118975328946e-09  4.6186790830568481e-09  3.3715764197352793e-09  2.4479717177116851e-09  1.7592596666565305e-09  1.2393627156012271e-09  8.3840782760485537e-10  5.1785741081296071e-10  2.4731588147621530e-10  -1.4472489635726700e-12  4.8262864438933919e+00  3.7474313720911421e+00  3.0012324682184564e+00  2.7372090608827393e+00  2.4134136587591120e+00  2.1470840657971015e+00  1.8348125580979593e+00  1.5288142189650851e+00  1.2354882139520382e+00  9.7654272167833256e-01  7.5766209959285336e-01  5.7977406452753977e-01  4.3900833632771685e-01  3.2983034565811487e-01  2.4636916318790736e-01  1.8323906464347106e-01  1.3585450134311389e-01  1.0048830037493357e-01  7.4200861474120333e-02  5.4720581252300469e-02  4.0316731846449717e-02  2.9683780762930552e-02  2.1843927211142394e-02  1.6068580132947950e-02  1.1816858061727442e-02  8.6883144597932581e-03  6.3870609450225029e-03  4.6947833913741806e-03  3.4505753405151083e-03  2.5359350083874132e-03  1.8636405213873196e-03  1.3695206236687856e-03  1.0063778856297450e-03  7.3950713837262383e-04  5.4339347689091682e-04  3.9928104762526807e-04  2.9338389567030169e-04  2.1556980678104693e-04  1.5839237031282200e-04  1.1637928101564843e-04  8.5509127642802426e-05  6.2826794148689393e-05  4.6160776178110437e-05  3.3915420097697226e-05  2.4918234928945036e-05  1.8307683055301532e-05  1.3450721085257348e-05  9.8822047322300226e-06  7.2603614089090389e-06  5.3340705164547030e-06  3.9188206520728749e-06  2.8790429460395404e-06  2.1151297409718333e-06  1.5538961289531638e-06  1.1415713176999457e-06  8.3864890559753448e-07  6.1610306099426136e-07  4.5260834142898269e-07  3.3249696072052951e-07  2.4425790790168444e-07  1.7943419689840149e-07  1.3181264379320363e-07  9.6828577450386093e-08  7.1128469942054778e-08  5.2248595499070390e-08  3.8378938160471294e-08  2.8189732589619271e-08  2.0704021267032611e-08  1.5204018777221531e-08  1.1162312178476724e-08  8.1913055481070527e-09  6.0060645453210794e-09  4.3970005989497526e-09  3.2097770415772648e-09  2.3305115156646213e-09  1.6748562161500196e-09  1.1799106279308402e-09  7.9818396098403876e-10  4.9307084093693647e-10  2.3518194420791401e-10  -3.9659878739146567e-13  5.1579339888591296e+00  2.9416455122269554e+00  2.8417412729196361e+00  2.5273224720425911e+00  2.3625632881529577e+00  2.0570612850057080e+00  1.7666182473999401e+00  1.4503237880131279e+00  1.1634514649912620e+00  9.1114849648467289e-01  7.0220573415530474e-01  5.3439670477629786e-01  4.0298127531892114e-01  3.0182227673213885e-01  2.2492806496387507e-01  1.6700664013690836e-01  1.2366409697677398e-01  9.1386869494108208e-02  6.7434590184943619e-02  4.9705965959415850e-02  3.6608752510935386e-02  2.6946543070182599e-02  1.9825766386262482e-02  1.4581933498153322e-02  1.0722469860303971e-02  7.8830803322568858e-03  5.7947968238012916e-03  4.2592797278776604e-03  3.1304049120169939e-03  2.3005896653810190e-03  1.6906663931960889e-03  1.2423989111591724e-03  9.1295998236127064e-04  6.7086058525319238e-04  4.9295170467229441e-04  3.6221737854929506e-04  2.6615089340384677e-04  1.9556042995060187e-04  1.4369079337363721e-04  1.0557769283315028e-04  7.7573059384490595e-05  5.6996132957963278e-05  4.1877015002165436e-05  3.0768193453264693e-05  2.2606029992254123e-05  1.6608968855537811e-05  1.2202733953764136e-05  8.9653600489653394e-06  6.5867997450680909e-06  4.8392417796427390e-06  3.5553005355487554e-06  2.6119896263141175e-06  1.9189457730884483e-06  1.4097758658824540e-06  1.0356989636023662e-06  7.6087461284565145e-07  5.5897025893423072e-07  4.1063912191591617e-07  3.0166706106479543e-07  2.2161099196354739e-07  1.6279847826141932e-07  1.1959269878853825e-07  8.7852399050056381e-08  6.4535105979774206e-08  4.7405603158446986e-08  3.4821743608556188e-08  2.5577083667937004e-08  1.8785263341395247e-08  1.3795056921691651e-08  1.0127955374165869e-08  7.4323002712240687e-09  5.4495746073672982e-09  3.9896204512838623e-09  2.9124086319778279e-09  2.1146133927619081e-09  1.5197054460302491e-09  1.0706134013659510e-09  7.2425287539853070e-10  4.4738591395397159e-10  2.1344153518367003e-10  -4.7041560394450144e-13  4.1319019076841670e+00  2.4013310688370240e+00  2.2437534102466574e+00  2.5236815494460423e+00  2.1653452657252017e+00  1.9627002580878605e+00  1.6227257847135910e+00  1.3233332526434223e+00  1.0435138667591308e+00  8.0863765526358289e-01  6.1737170632280358e-01  4.6658588405283857e-01  3.4998666471136869e-01  2.6110084971654313e-01  1.9401436531210611e-01  1.4374417635086464e-01  1.0627064839588921e-01  7.8442056294935877e-02  5.7833240005397274e-02  4.2602153954332637e-02  3.1362353116078101e-02  2.3077068681179820e-02  1.6974638351694452e-02  1.2482665914093763e-02  9.1776158803320001e-03  6.7466679848911457e-03  4.9590829578140911e-03  3.6448319628399604e-03  2.6787133779457594e-03  1.9685834983116106e-03  1.4466547683761358e-03  1.0630723678095753e-03  7.8117820963600386e-04  5.7402210096235814e-04  4.2179328571911921e-04  3.0993045841466699e-04  2.2773151330197989e-04  1.6733115798415931e-04  1.2294919857297812e-04  9.0337917228392657e-05  6.6375856305380947e-05  4.8769245991244396e-05  3.5832564612917731e-05  2.6327266318369156e-05  1.9343262040314663e-05  1.4211822455456677e-05  1.0441573828871593e-05  7.6714648437686390e-06  5.6362050697776398e-06  4.1408683768046136e-06  3.0422311983807482e-06  2.2350598102032131e-06  1.6420342752915537e-06  1.2063446735664882e-06  8.8625094874441547e-07  6.5108562246249814e-07  4.7831671741785481e-07  3.5138970732135336e-07  2.5814187952699997e-07  1.8963729070166172e-07  1.3931075984118746e-07  1.0233892926211869e-07  7.5178164286779335e-08  5.5225036840221510e-08  4.0566876036196605e-08  2.9798493565228512e-08  2.1887528899084001e-08  1.6075515645822549e-08  1.1805191598321777e-08  8.6670886629497128e-09  6.3602856035789959e-09  4.6635632169386011e-09  3.4141980791417250e-09  2.4923627972515509e-09  1.8096378542889310e-09  1.3005340481087635e-09  9.1621316768712385e-10  6.1980440806053399e-10  3.8286895325923882e-10  1.8265225142554358e-10  -3.8874544297708320e-13  4.7375714486626279e+00  1.5276812507101043e+00  2.6148215110407858e+00  2.3753405162810557e+00  2.0077483407163204e+00  1.7695202552513665e+00  1.4130351681782898e+00  1.1284062609977255e+00  8.7283743218342380e-01  6.6647340938182031e-01  5.0319720783335031e-01  3.7709921132786173e-01  2.8109743905595530e-01  2.0873746387139591e-01  1.5457647158745855e-01  1.1423774511826194e-01  8.4300877218128720e-02  6.2141254691529035e-02  4.5769608432207891e-02  3.3691055113351388e-02  2.4789017257909551e-02  1.8233110912127683e-02  1.3407739143477407e-02  9.8575875603786629e-03  7.2464615460332395e-03  5.3264312429482661e-03  3.9148264640505529e-03  2.8771505357149440e-03  2.1144258128280905e-03  1.5538406482925044e-03  1.1418469050767277e-03  8.3907160018467186e-04  6.1656894894110198e-04  4.5306137976503712e-04  3.3290946672097398e-04  2.4461869544775629e-04  1.7974137157035578e-04  1.3206925615145629e-04  9.7040037644682950e-05  7.1301049161239763e-05  5.2388596589989616e-05  3.8492275842645712e-05  2.8281762159231840e-05  2.0779516701357453e-05  1.5267240681878478e-05  1.1217131620273711e-05  8.2413668330887155e-06  6.0549818635053521e-06  4.4485924429964051e-06  3.2683500293108152e-06  2.4012128950934140e-06  1.7641232630095520e-06  1.2960547003583449e-06  9.5216862734531562e-07  6.9952062023371956e-07  5.1390550574509171e-07  3.7753923270601339e-07  2.7735559708287583e-07  2.0375474943933815e-07  1.4968366043293166e-07  1.0996049831203853e-07  8.0778223427194647e-08  5.9339863197566855e-08  4.3590538918119917e-08  3.2020579969896420e-08  2.3520868137873164e-08  1.7276556440554439e-08  1.2688981932497893e-08  9.3182921789225446e-09  6.8412890364692899e-09  5.0204509551605394e-09  3.6811658055559645e-09  2.6949927646620643e-09  1.9673493823545055e-09  1.4284439089143771e-09  1.0265838961319167e-09  7.2321979305742468e-10  4.8924824376072998e-10  3.0222105879602811e-10  1.4417829025296951e-10  -3.0723680802445739e-13  3.0394773320442625e+00  7.2280720409293586e-01  4.5815752254932374e+00  1.5471511342395230e+00  2.0951993570138061e+00  1.3309459309327085e+00  1.1328190423598055e+00  8.4673593116777357e-01  6.4609555334410140e-01  4.8354909799014878e-01  3.6052244723816379e-01  2.6756611179935214e-01  1.9804451445690507e-01  1.4630229712258433e-01  1.0792987937859658e-01  7.9542077977056425e-02  5.8577621487458070e-02  4.3115033256311400e-02  3.1721108653059410e-02  2.3331103531621489e-02  1.7156261385821645e-02  1.2613486909721201e-02  9.2723791848539384e-03  6.8156048898830885e-03  5.0093918288022761e-03  3.6816333086812508e-03  2.7056809947423226e-03  1.9883706033371092e-03  1.4611870921524032e-03  1.0737528695879978e-03  7.8903185495961107e-04  5.7979926096500675e-04  4.2604414876576315e-04  3.1305889335313513e-04  2.3003423078151887e-04  1.6902627703178924e-04  1.2419713623206362e-04  9.1256692387452665e-05  6.7052316578509929e-05  4.9267312017606482e-05  3.6199288618278328e-05  2.6597286846151473e-05  1.9542080728542852e-05  1.4358215048544107e-05  1.0549364549555441e-05  7.7508324366453111e-06  5.6946442359135158e-06  4.1838975847010566e-06  3.0739138069219257e-06  2.2583877591974070e-06  1.6592105959394764e-06  1.2189915043892229e-06  8.9556270228760354e-07  6.5794176627838423e-07  4.8336481836317360e-07  3.5510658002917286e-07  2.6087861241526630e-07  1.9165240064171719e-07  1.4079460579755781e-07  1.0343168996323607e-07  7.5983077361463476e-08  5.5818149483358632e-08  4.1004227911452738e-08  3.0121410219300119e-08  2.2126525564338137e-08  1.6253180105288963e-08  1.1938318393386318e-08  8.7682662404867008e-09  6.4390863536406155e-09  4.7274488700506999e-09  3.4692260765644314e-09  2.5437604863777925e-09  1.8622989190245690e-09  1.3594843307000833e-09  9.8709008558856756e-10  7.0939623040021377e-10  4.9976449681872574e-10  3.3808464158991520e-10  2.0884159327676053e-10  9.9635995497050775e-11  -2.2251714742874190e-13  3.6291574950542060e-01  -8.0515183679458353e+00  6.4065372461853505e+00  -3.5987394609943407e-01  1.9716012066969382e+00  7.2211120030883391e-01  6.6122713752785300e-01  4.8372757473377548e-01  3.5461268323782041e-01  2.6124335572822371e-01  1.9165752913098519e-01  1.4072471861259728e-01  1.0333401513430686e-01  7.5898263092121110e-02  5.5757242972390209e-02  4.0966508795345830e-02  3.0101914425137589e-02  2.2119834080509004e-02  1.6254815433956179e-02  1.1945053689393206e-02  8.7780085405940161e-03  6.4506472040090860e-03  4.7403298999274925e-03  3.4834616572618857e-03  2.5598249116496985e-03  1.8810746182292592e-03  1.3822869647785350e-03  1.0157498827092848e-03  7.4640013787999684e-04  5.4847015358785447e-04  4.0302375701036050e-04  2.9614517190752017e-04  2.1760808562683626e-04  1.5989753212722519e-04  1.1749106780909248e-04  8.6330507342228187e-05  6.3433705402906281e-05  4.6609259817999737e-05  3.4246852223153941e-05  2.5163174654874662e-05  1.8488705825692276e-05  1.3584507258105158e-05  9.9810803997026661e-06  7.3334357640224545e-06  5.3880757552865660e-06  3.9587323938164694e-06  2.9085386223212020e-06  2.1369273209262397e-06  1.5700044443182066e-06  1.1534750710387028e-06  8.4744541066469217e-07  6.2260331083322802e-07  4.5741171138936488e-07  3.3604642462015585e-07  2.4688085097989166e-07  1.8137258311655154e-07  1.3324531503537549e-07  9.7887737907384278e-08  7.1911873700020484e-08  5.2828559813448704e-08  3.8809012668199037e-08  2.8509638903990466e-08  2.0943318153149059e-08  1.5384830769625452e-08  1.1301373282037662e-08  8.3015066280657935e-09  6.0976473670829989e-09  4.4785090280735552e-09  3.2888536904082678e-09  2.4146140472112382e-09  1.7719605987426039e-09  1.2992665185503834e-09  9.5120031258900989e-10  6.9438023045752231e-10  5.0417401510691250e-10  3.6233727073141290e-10  2.5526437165263928e-10  1.7268244319851708e-10  1.0667548989923007e-10  5.0860225179326979e-11  -4.0542921455710343e-14  6.3341565419101107e+00  -1.3185672662640338e+01  5.6285503470946736e+00  -7.1263094938081140e-02  -1.0655848892006108e+00  3.6785636697205826e-01  -7.0204089314807150e-02  2.6229813417467517e-02  3.8989926876010295e-03  2.7214470783664163e-03  1.2473732553962189e-03  6.2053087442883283e-04  3.2071833540217224e-04  1.7153220727831383e-04  9.5519854435982001e-05  5.5177583567977020e-05  3.3029017979234345e-05  2.0435912431095973e-05  1.3033670887535273e-05  8.5405681466012861e-06  5.7292502269915444e-06  3.9201549713173040e-06  2.7262799647421578e-06  1.9209170672493706e-06  1.3674575030199565e-06  9.8125726312912436e-07  7.0844216584187253e-07  5.1385108889277557e-07  3.7401054663850807e-07  2.7293733276070988e-07  1.9956555123401574e-07  1.4612828837047726e-07  1.0711404159769426e-07  7.8577946644779340e-08  5.7677584070226147e-08  4.2354428963398797e-08  3.1111905925663784e-08  2.2858826999162196e-08  1.6797856746044736e-08  1.2345439284306551e-08  9.0739695217111858e-09  6.6698394546327346e-09  4.9028971566871312e-09  3.6041566838168725e-09  2.6494986276641072e-09  1.9477342879403473e-09  1.4318560231472015e-09  1.0526182485220198e-09  7.7382555701737859e-10  5.6887249347018226e-10  4.1820170649004646e-10  3.0743630735553908e-10  2.2600737989797000e-10  1.6614524489282534e-10  1.2213800775452068e-10  8.9786533839584383e-11  6.6003795549536824e-11  4.8520339438379312e-11  3.5667761044087994e-11  2.6219524726385363e-11  1.9273940138183040e-11  1.4168130337768746e-11  1.0414783805940641e-11  7.6556564650658776e-12  5.6273877790024292e-12  4.1363697689387787e-12  3.0402713900342761e-12  2.2344556125746091e-12  1.6419932966132332e-12  1.2063210851463938e-12  8.8584275388450727e-13  6.4995899735347291e-13  4.7614631685527085e-13  3.4780866256613400e-13  2.5268413907255572e-13  1.8172864132843550e-13  1.2789566236462166e-13  8.7970931072909938e-14  4.4054459962299672e-14  9.7366995767647701e-14  -6.9083210429868952e-13  4.4561192359677042e+00  3.6227837070670255e+00  3.0358588879227506e+00  2.6450036783438313e+00  2.3222543010942749e+00  2.0182060232780907e+00  1.7124144001487394e+00  1.4145843966781297e+00  1.1391468162691256e+00  8.9772500422235557e-01  6.9531026049344880e-01  5.3137406173770907e-01  4.0199653957813675e-01  3.0182443714951357e-01  2.2534224518945509e-01  1.6754141265018554e-01  1.2418404462749580e-01  9.1838252547511573e-02  6.7803822078004325e-02  4.9997485100397233e-02  3.6833759038141539e-02  2.7117602051186736e-02  1.9954463787638009e-02  1.4678053679462207e-02  1.0793885690907093e-02  7.9359423474508056e-03  5.8338188179412331e-03  4.2880279417942362e-03  3.1515533217017630e-03  2.3161305780147385e-03  1.7020775203357757e-03  1.2507727079521232e-03  9.1910217007644542e-04  6.7536437626417565e-04  4.9625329290838981e-04  3.6463719774345547e-04  2.6792417312502718e-04  1.9685976119782490e-04  1.4464275866920090e-04  1.0627510339495100e-04  7.8083949686626029e-05  5.7370366416907485e-05  4.2151132254997003e-05  3.0968969133658394e-05  2.2753081133082678e-05  1.6716667287577320e-05  1.2281608134162719e-05  9.0231224711331662e-06  6.6290998427218159e-06  4.8702176144780181e-06  3.5779830123934427e-06  2.6285986374167632e-06  1.9311071532048723e-06  1.4186803256485938e-06  1.0422185132230999e-06  7.6564784266980362e-07  5.6246480525762341e-07  4.1319741985207981e-07  3.0353985481167862e-07  2.2298187735308678e-07  1.6380187660034350e-07  1.2032701928356607e-07  8.8389676967031260e-08  6.4928059242860069e-08  4.7692797735805657e-08  3.5031373119235135e-08  2.5729733125540166e-08  1.8895927588016303e-08  1.3874611394493231e-08  1.0184223263406698e-08  7.4708206365601938e-09  5.4741467597278288e-09  4.0026780205799826e-09  2.9152600920180551e-09  2.1075727513053916e-09  1.5021262189359411e-09  1.0408287425670878e-09  6.7942066531892091e-10  3.8318764323821857e-10  1.2364170646326267e-10  4.4723405189618664e+00  3.4654148538392424e+00  2.9797850387101086e+00  2.6066947644944420e+00  2.3119037738502120e+00  2.0120180242614376e+00  1.7047029998539425e+00  1.4036313165842187e+00  1.1259498160561934e+00  8.8410435476598603e-01  6.8263847057193283e-01  5.2040039362009249e-01  3.9294589060023072e-01  2.9460716053948904e-01  2.1972036274015141e-01  1.6323382487852114e-01  1.2092180610228925e-01  8.9388194644871438e-02  6.5974736442624693e-02  4.8637888497842320e-02  3.5