<?xml version="1.0"?>
<VTKFile type="UnstructuredGrid"  version="0.1"  >
<UnstructuredGrid>
<Piece  NumberOfPoints="1369" NumberOfCells="2560">
<Points>
<DataArray  type="Float64"  NumberOfComponents="3"  format="ascii">0 0 0  0.75 0 0  1.5 0 0  2.25 0 0  3 0 0  3.75 0 0  4.5 0 0  5.25 0 0  6 0 0  6.75 0 0  7.5 0 0  8.25 0 0  9 0 0  9.75 0 0  10.5 0 0  11.25 0 0  12 0 0  12.75 0 0  13.5 0 0  14.25 0 0  15 0 0  15.75 0 0  16.5 0 0  17.25 0 0  18 0 0  18.75 0 0  19.5 0 0  20.25 0 0  21 0 0  21.75 0 0  22.5 0 0  23.25 0 0  24 0 0  24.75 0 0  25.5 0 0  26.25 0 0  27 0 0  27.75 0 0  28.5 0 0  29.25 0 0  30 0 0  30.75 0 0  31.5 0 0  32.25 0 0  33 0 0  33.75 0 0  34.5 0 0  35.25 0 0  36 0 0  36.75 0 0  37.5 0 0  38.25 0 0  39 0 0  39.75 0 0  40.5 0 0  41.25 0 0  42 0 0  42.75 0 0  43.5 0 0  44.25 0 0  45 0 0  45.75 0 0  46.5 0 0  47.25 0 0  48 0 0  48.75 0 0  49.5 0 0  50.25 0 0  51 0 0  51.75 0 0  52.5 0 0  53.25 0 0  54 0 0  54.75 0 0  55.5 0 0  56.25 0 0  57 0 0  57.75 0 0  58.5 0 0  59.25 0 0  60 0 0  0 0.5 0  0.75 0.5 0  1.5 0.5 0  2.25 0.5 0  3 0.5 0  3.75 0.5 0  4.5 0.5 0  5.25 0.5 0  6 0.5 0  6.75 0.5 0  7.5 0.5 0  8.25 0.5 0  9 0.5 0  9.75 0.5 0  10.5 0.5 0  11.25 0.5 0  12 0.5 0  12.75 0.5 0  13.5 0.5 0  14.25 0.5 0  15 0.5 0  15.75 0.5 0  16.5 0.5 0  17.25 0.5 0  18 0.5 0  18.75 0.5 0  19.5 0.5 0  20.25 0.5 0  21 0.5 0  21.75 0.5 0  22.5 0.5 0  23.25 0.5 0  24 0.5 0  24.75 0.5 0  25.5 0.5 0  26.25 0.5 0  27 0.5 0  27.75 0.5 0  28.5 0.5 0  29.25 0.5 0  30 0.5 0  30.75 0.5 0  31.5 0.5 0  32.25 0.5 0  33 0.5 0  33.75 0.5 0  34.5 0.5 0  35.25 0.5 0  36 0.5 0  36.75 0.5 0  37.5 0.5 0  38.25 0.5 0  39 0.5 0  39.75 0.5 0  40.5 0.5 0  41.25 0.5 0  42 0.5 0  42.75 0.5 0  43.5 0.5 0  44.25 0.5 0  45 0.5 0  45.75 0.5 0  46.5 0.5 0  47.25 0.5 0  48 0.5 0  48.75 0.5 0  49.5 0.5 0  50.25 0.5 0  51 0.5 0  51.75 0.5 0  52.5 0.5 0  53.25 0.5 0  54 0.5 0  54.75 0.5 0  55.5 0.5 0  56.25 0.5 0  57 0.5 0  57.75 0.5 0  58.5 0.5 0  59.25 0.5 0  60 0.5 0  0 1 0  0.75 1 0  1.5 1 0  2.25 1 0  3 1 0  3.75 1 0  4.5 1 0  5.25 1 0  6 1 0  6.75 1 0  7.5 1 0  8.25 1 0  9 1 0  9.75 1 0  10.5 1 0  11.25 1 0  12 1 0  12.75 1 0  13.5 1 0  14.25 1 0  15 1 0  15.75 1 0  16.5 1 0  17.25 1 0  18 1 0  18.75 1 0  19.5 1 0  20.25 1 0  21 1 0  21.75 1 0  22.5 1 0  23.25 1 0  24 1 0  24.75 1 0  25.5 1 0  26.25 1 0  27 1 0  27.75 1 0  28.5 1 0  29.25 1 0  30 1 0  30.75 1 0  31.5 1 0  32.25 1 0  33 1 0  33.75 1 0  34.5 1 0  35.25 1 0  36 1 0  36.75 1 0  37.5 1 0  38.25 1 0  39 1 0  39.75 1 0  40.5 1 0  41.25 1 0  42 1 0  42.75 1 0  43.5 1 0  44.25 1 0  45 1 0  45.75 1 0  46.5 1 0  47.25 1 0  48 1 0  48.75 1 0  49.5 1 0  50.25 1 0  51 1 0  51.75 1 0  52.5 1 0  53.25 1 0  54 1 0  54.75 1 0  55.5 1 0  56.25 1 0  57 1 0  57.75 1 0  58.5 1 0  59.25 1 0  60 1 0  0 1.5 0  0.75 1.5 0  1.5 1.5 0  2.25 1.5 0  3 1.5 0  3.75 1.5 0  4.5 1.5 0  5.25 1.5 0  6 1.5 0  6.75 1.5 0  7.5 1.5 0  8.25 1.5 0  9 1.5 0  9.75 1.5 0  10.5 1.5 0  11.25 1.5 0  12 1.5 0  12.75 1.5 0  13.5 1.5 0  14.25 1.5 0  15 1.5 0  15.75 1.5 0  16.5 1.5 0  17.25 1.5 0  18 1.5 0  18.75 1.5 0  19.5 1.5 0  20.25 1.5 0  21 1.5 0  21.75 1.5 0  22.5 1.5 0  23.25 1.5 0  24 1.5 0  24.75 1.5 0  25.5 1.5 0  26.25 1.5 0  27 1.5 0  27.75 1.5 0  28.5 1.5 0  29.25 1.5 0  30 1.5 0  30.75 1.5 0  31.5 1.5 0  32.25 1.5 0  33 1.5 0  33.75 1.5 0  34.5 1.5 0  35.25 1.5 0  36 1.5 0  36.75 1.5 0  37.5 1.5 0  38.25 1.5 0  39 1.5 0  39.75 1.5 0  40.5 1.5 0  41.25 1.5 0  42 1.5 0  42.75 1.5 0  43.5 1.5 0  44.25 1.5 0  45 1.5 0  45.75 1.5 0  46.5 1.5 0  47.25 1.5 0  48 1.5 0  48.75 1.5 0  49.5 1.5 0  50.25 1.5 0  51 1.5 0  51.75 1.5 0  52.5 1.5 0  53.25 1.5 0  54 1.5 0  54.75 1.5 0  55.5 1.5 0  56.25 1.5 0  57 1.5 0  57.75 1.5 0  58.5 1.5 0  59.25 1.5 0  60 1.5 0  0 2 0  0.75 2 0  1.5 2 0  2.25 2 0  3 2 0  3.75 2 0  4.5 2 0  5.25 2 0  6 2 0  6.75 2 0  7.5 2 0  8.25 2 0  9 2 0  9.75 2 0  10.5 2 0  11.25 2 0  12 2 0  12.75 2 0  13.5 2 0  14.25 2 0  15 2 0  15.75 2 0  16.5 2 0  17.25 2 0  18 2 0  18.75 2 0  19.5 2 0  20.25 2 0  21 2 0  21.75 2 0  22.5 2 0  23.25 2 0  24 2 0  24.75 2 0  25.5 2 0  26.25 2 0  27 2 0  27.75 2 0  28.5 2 0  29.25 2 0  30 2 0  30.75 2 0  31.5 2 0  32.25 2 0  33 2 0  33.75 2 0  34.5 2 0  35.25 2 0  36 2 0  36.75 2 0  37.5 2 0  38.25 2 0  39 2 0  39.75 2 0  40.5 2 0  41.25 2 0  42 2 0  42.75 2 0  43.5 2 0  44.25 2 0  45 2 0  45.75 2 0  46.5 2 0  47.25 2 0  48 2 0  48.75 2 0  49.5 2 0  50.25 2 0  51 2 0  51.75 2 0  52.5 2 0  53.25 2 0  54 2 0  54.75 2 0  55.5 2 0  56.25 2 0  57 2 0  57.75 2 0  58.5 2 0  59.25 2 0  60 2 0  0 2.5 0  0.75 2.5 0  1.5 2.5 0  2.25 2.5 0  3 2.5 0  3.75 2.5 0  4.5 2.5 0  5.25 2.5 0  6 2.5 0  6.75 2.5 0  7.5 2.5 0  8.25 2.5 0  9 2.5 0  9.75 2.5 0  10.5 2.5 0  11.25 2.5 0  12 2.5 0  12.75 2.5 0  13.5 2.5 0  14.25 2.5 0  15 2.5 0  15.75 2.5 0  16.5 2.5 0  17.25 2.5 0  18 2.5 0  18.75 2.5 0  19.5 2.5 0  20.25 2.5 0  21 2.5 0  21.75 2.5 0  22.5 2.5 0  23.25 2.5 0  24 2.5 0  24.75 2.5 0  25.5 2.5 0  26.25 2.5 0  27 2.5 0  27.75 2.5 0  28.5 2.5 0  29.25 2.5 0  30 2.5 0  30.75 2.5 0  31.5 2.5 0  32.25 2.5 0  33 2.5 0  33.75 2.5 0  34.5 2.5 0  35.25 2.5 0  36 2.5 0  36.75 2.5 0  37.5 2.5 0  38.25 2.5 0  39 2.5 0  39.75 2.5 0  40.5 2.5 0  41.25 2.5 0  42 2.5 0  42.75 2.5 0  43.5 2.5 0  44.25 2.5 0  45 2.5 0  45.75 2.5 0  46.5 2.5 0  47.25 2.5 0  48 2.5 0  48.75 2.5 0  49.5 2.5 0  50.25 2.5 0  51 2.5 0  51.75 2.5 0  52.5 2.5 0  53.25 2.5 0  54 2.5 0  54.75 2.5 0  55.5 2.5 0  56.25 2.5 0  57 2.5 0  57.75 2.5 0  58.5 2.5 0  59.25 2.5 0  60 2.5 0  0 3 0  0.75 3 0  1.5 3 0  2.25 3 0  3 3 0  3.75 3 0  4.5 3 0  5.25 3 0  6 3 0  6.75 3 0  7.5 3 0  8.25 3 0  9 3 0  9.75 3 0  10.5 3 0  11.25 3 0  12 3 0  12.75 3 0  13.5 3 0  14.25 3 0  15 3 0  15.75 3 0  16.5 3 0  17.25 3 0  18 3 0  18.75 3 0  19.5 3 0  20.25 3 0  21 3 0  21.75 3 0  22.5 3 0  23.25 3 0  24 3 0  24.75 3 0  25.5 3 0  26.25 3 0  27 3 0  27.75 3 0  28.5 3 0  29.25 3 0  30 3 0  30.75 3 0  31.5 3 0  32.25 3 0  33 3 0  33.75 3 0  34.5 3 0  35.25 3 0  36 3 0  36.75 3 0  37.5 3 0  38.25 3 0  39 3 0  39.75 3 0  40.5 3 0  41.25 3 0  42 3 0  42.75 3 0  43.5 3 0  44.25 3 0  45 3 0  45.75 3 0  46.5 3 0  47.25 3 0  48 3 0  48.75 3 0  49.5 3 0  50.25 3 0  51 3 0  51.75 3 0  52.5 3 0  53.25 3 0  54 3 0  54.75 3 0  55.5 3 0  56.25 3 0  57 3 0  57.75 3 0  58.5 3 0  59.25 3 0  60 3 0  0 3.5 0  0.75 3.5 0  1.5 3.5 0  2.25 3.5 0  3 3.5 0  3.75 3.5 0  4.5 3.5 0  5.25 3.5 0  6 3.5 0  6.75 3.5 0  7.5 3.5 0  8.25 3.5 0  9 3.5 0  9.75 3.5 0  10.5 3.5 0  11.25 3.5 0  12 3.5 0  12.75 3.5 0  13.5 3.5 0  14.25 3.5 0  15 3.5 0  15.75 3.5 0  16.5 3.5 0  17.25 3.5 0  18 3.5 0  18.75 3.5 0  19.5 3.5 0  20.25 3.5 0  21 3.5 0  21.75 3.5 0  22.5 3.5 0  23.25 3.5 0  24 3.5 0  24.75 3.5 0  25.5 3.5 0  26.25 3.5 0  27 3.5 0  27.75 3.5 0  28.5 3.5 0  29.25 3.5 0  30 3.5 0  30.75 3.5 0  31.5 3.5 0  32.25 3.5 0  33 3.5 0  33.75 3.5 0  34.5 3.5 0  35.25 3.5 0  36 3.5 0  36.75 3.5 0  37.5 3.5 0  38.25 3.5 0  39 3.5 0  39.75 3.5 0  40.5 3.5 0  41.25 3.5 0  42 3.5 0  42.75 3.5 0  43.5 3.5 0  44.25 3.5 0  45 3.5 0  45.75 3.5 0  46.5 3.5 0  47.25 3.5 0  48 3.5 0  48.75 3.5 0  49.5 3.5 0  50.25 3.5 0  51 3.5 0  51.75 3.5 0  52.5 3.5 0  53.25 3.5 0  54 3.5 0  54.75 3.5 0  55.5 3.5 0  56.25 3.5 0  57 3.5 0  57.75 3.5 0  58.5 3.5 0  59.25 3.5 0  60 3.5 0  0 4 0  0.75 4 0  1.5 4 0  2.25 4 0  3 4 0  3.75 4 0  4.5 4 0  5.25 4 0  6 4 0  6.75 4 0  7.5 4 0  8.25 4 0  9 4 0  9.75 4 0  10.5 4 0  11.25 4 0  12 4 0  12.75 4 0  13.5 4 0  14.25 4 0  15 4 0  15.75 4 0  16.5 4 0  17.25 4 0  18 4 0  18.75 4 0  19.5 4 0  20.25 4 0  21 4 0  21.75 4 0  22.5 4 0  23.25 4 0  24 4 0  24.75 4 0  25.5 4 0  26.25 4 0  27 4 0  27.75 4 0  28.5 4 0  29.25 4 0  30 4 0  30.75 4 0  31.5 4 0  32.25 4 0  33 4 0  33.75 4 0  34.5 4 0  35.25 4 0  36 4 0  36.75 4 0  37.5 4 0  38.25 4 0  39 4 0  39.75 4 0  40.5 4 0  41.25 4 0  42 4 0  42.75 4 0  43.5 4 0  44.25 4 0  45 4 0  45.75 4 0  46.5 4 0  47.25 4 0  48 4 0  48.75 4 0  49.5 4 0  50.25 4 0  51 4 0  51.75 4 0  52.5 4 0  53.25 4 0  54 4 0  54.75 4 0  55.5 4 0  56.25 4 0  57 4 0  57.75 4 0  58.5 4 0  59.25 4 0  60 4 0  0.375 0.25 0  1.125 0.25 0  1.875 0.25 0  2.625 0.25 0  3.375 0.25 0  4.125 0.25 0  4.875 0.25 0  5.625 0.25 0  6.375 0.25 0  7.125 0.25 0  7.875 0.25 0  8.625 0.25 0  9.375 0.25 0  10.125 0.25 0  10.875 0.25 0  11.625 0.25 0  12.375 0.25 0  13.125 0.25 0  13.875 0.25 0  14.625 0.25 0  15.375 0.25 0  16.125 0.25 0  16.875 0.25 0  17.625 0.25 0  18.375 0.25 0  19.125 0.25 0  19.875 0.25 0  20.625 0.25 0  21.375 0.25 0  22.125 0.25 0  22.875 0.25 0  23.625 0.25 0  24.375 0.25 0  25.125 0.25 0  25.875 0.25 0  26.625 0.25 0  27.375 0.25 0  28.125 0.25 0  28.875 0.25 0  29.625 0.25 0  30.375 0.25 0  31.125 0.25 0  31.875 0.25 0  32.625 0.25 0  33.375 0.25 0  34.125 0.25 0  34.875 0.25 0  35.625 0.25 0  36.375 0.25 0  37.125 0.25 0  37.875 0.25 0  38.625 0.25 0  39.375 0.25 0  40.125 0.25 0  40.875 0.25 0  41.625 0.25 0  42.375 0.25 0  43.125 0.25 0  43.875 0.25 0  44.625 0.25 0  45.375 0.25 0  46.125 0.25 0  46.875 0.25 0  47.625 0.25 0  48.375 0.25 0  49.125 0.25 0  49.875 0.25 0  50.625 0.25 0  51.375 0.25 0  52.125 0.25 0  52.875 0.25 0  53.625 0.25 0  54.375 0.25 0  55.125 0.25 0  55.875 0.25 0  56.625 0.25 0  57.375 0.25 0  58.125 0.25 0  58.875 0.25 0  59.625 0.25 0  0.375 0.75 0  1.125 0.75 0  1.875 0.75 0  2.625 0.75 0  3.375 0.75 0  4.125 0.75 0  4.875 0.75 0  5.625 0.75 0  6.375 0.75 0  7.125 0.75 0  7.875 0.75 0  8.625 0.75 0  9.375 0.75 0  10.125 0.75 0  10.875 0.75 0  11.625 0.75 0  12.375 0.75 0  13.125 0.75 0  13.875 0.75 0  14.625 0.75 0  15.375 0.75 0  16.125 0.75 0  16.875 0.75 0  17.625 0.75 0  18.375 0.75 0  19.125 0.75 0  19.875 0.75 0  20.625 0.75 0  21.375 0.75 0  22.125 0.75 0  22.875 0.75 0  23.625 0.75 0  24.375 0.75 0  25.125 0.75 0  25.875 0.75 0  26.625 0.75 0  27.375 0.75 0  28.125 0.75 0  28.875 0.75 0  29.625 0.75 0  30.375 0.75 0  31.125 0.75 0  31.875 0.75 0  32.625 0.75 0  33.375 0.75 0  34.125 0.75 0  34.875 0.75 0  35.625 0.75 0  36.375 0.75 0  37.125 0.75 0  37.875 0.75 0  38.625 0.75 0  39.375 0.75 0  40.125 0.75 0  40
[...]
<PointData  Scalars="f_8-1"> 
<DataArray  type="Float64"  Name="f_8-1"  format="ascii">-7.2680706275771503e+09  3.2834206683948978e+10  -2.7556707174014954e+11  -2.0475935189421646e+11  5.8039356091027298e+10  -1.0743127744339609e+11  -2.0064939231526272e+10  3.1591989136556496e+10  -7.2833059556146790e+10  1.0273403456972157e+11  1.9289314445110779e+11  -1.3940972497592609e+11  4.2843363990031134e+11  -5.7796072511013710e+10  2.2165609726510239e+10  2.5231279293670696e+10  3.4589598240881180e+10  -7.6819542265147583e+10  -1.2160153662758177e+10  6.1352791555212257e+10  1.0789965666905780e+11  7.6351439599016449e+10  -7.4704340414460077e+09  -8.8758991523835449e+10  1.7605489573674078e+11  2.9252616772244135e+11  2.2107001509707654e+11  -1.5404155990342084e+11  3.5219628662860466e+10  -2.9527225255678696e+10  3.3675244952814610e+10  -1.2342751516815210e+11  3.3226323360334308e+11  4.4371229731005615e+10  1.5752911212680740e+11  -2.3017327891432733e+11  -2.4143676420081573e+10  2.4686309140452032e+11  2.5697609735761807e+11  -1.4132968333522754e+11  4.9623429533331116e+10  -4.4487486518091805e+10  -1.3104289355439159e+11  -3.0220219905023499e+11  -9.5667013206725739e+10  -1.2208772666485768e+11  1.3237157151851181e+11  -1.8517822813338269e+11  2.6519895830084671e+10  1.2719265311628836e+11  1.7225709652674545e+10  1.0382120734479869e+11  1.0752628884963065e+11  2.0692078647988062e+11  -3.2069538409820898e+11  -2.7595001457013654e+11  1.5825482421844312e+11  7.8708917226500000e+10  -1.9356993201110114e+11  7.3571305873189346e+10  -3.6121561215901909e+09  4.5677772528641467e+11  5.1237510396051849e+11  -6.5397442852616309e+11  -1.0568081830426653e+10  -1.2190289353709485e+11  9.0931427683286346e+10  -1.4949941292623444e+11  -9.8635928754488541e+10  -2.1234922081641470e+11  -4.7654726446833481e+10  -3.0567936631916980e+11  -3.0154249187640350e+10  -2.5367536437291622e+10  -2.8633973272659094e+11  -1.7751194102463992e+11  -2.4239394840018338e+11  -5.2747605894194604e+11  -6.2560940188517529e+11  5.0258330410660638e+11  4.7145784989186798e+11  7.3931653781318884e+09  -8.1094769537019148e+09  -1.7289216126014438e+11  -4.4361505597961371e+11  -7.1824000300346100e+10  -6.6339742628179871e+10  -2.5320560556143448e+10  -7.4468701163644424e+10  -2.5133238634831944e+10  2.0513536965884213e+11  1.8507781855007946e+10  -1.1752855050312294e+11  7.9872357184805847e+10  1.1624916679189646e+10  -7.5021553726198975e+10  2.7874101389543514e+10  -1.0482840837177779e+11  -2.1100498643448700e+10  -1.5856249724110971e+11  -3.9583634305486748e+10  6.0792343939687431e+10  2.8246355841281620e+10  -1.1068009966552437e+11  9.3709171325149567e+10  -4.7095187675216377e+10  3.6628482499533852e+10  2.4381281396044370e+11  4.2824902401751733e+11  1.8354592821827985e+11  6.6219908684565491e+10  -1.1746265507560130e+11  4.7879981589975601e+10  -1.2651519671656348e+11  1.4055381298629001e+11  -8.7856381406180862e+10  7.5619509352727081e+10  -1.9931054586109684e+10  5.0174698598400139e+10  -1.3302448399623787e+10  4.7449329199873253e+10  -5.3619133371506287e+10  -2.3847830020938110e+10  -1.2319599221566064e+11  -2.1617690263138821e+11  -7.1485114266190216e+10  -3.6613295784274673e+10  -3.5365515966388107e+10  -6.7704136103955185e+10  2.8552867391942889e+11  -1.1700777094287688e+11  -1.0415237863026591e+11  2.6945261940636841e+11  1.7015252732856354e+11  2.0059062520225937e+11  -1.0399492102283406e+11  1.7207509422669193e+11  -4.3952486605075397e+11  -9.9072182955462921e+10  -1.2447868386710690e+11  1.4808459949117001e+11  2.2629319363747754e+11  2.3976302246613535e+11  1.3052732080148860e+11  -1.9038875310213989e+11  -1.5169290758168377e+10  -5.6174673298529213e+10  1.4400997595496075e+10  4.9559020819912460e+10  -1.0452147619347989e+11  2.8925478395349453e+10  -1.2272383284657666e+11  -1.0341579089263341e+11  -1.6282222337265143e+11  -2.9794349211010168e+11  -4.5684058720042267e+11  -3.9807843030102393e+11  8.7831813562504456e+10  -3.7608531568915314e+11  -2.4781618729033878e+11  3.7272198936298363e+10  -5.4570858156238243e+10  5.1177665334079666e+09  5.0045368388242752e+10  -8.9070898183080780e+10  -1.1489857444617043e+10  -1.8227332821763007e+11  -9.8685047836809647e+10  6.9477226456733658e+10  2.1574006248712135e+10  -1.8590073691951809e+10  4.6088797746592949e+10  1.2178376344679411e+11  -1.9504905435264427e+10  -4.0242651465207924e+10  -4.7093892996307632e+10  -1.0761301305883905e+11  8.2218239518732252e+09  -1.1646275511536143e+11  -9.7630818616711090e+10  1.4444880938797892e+10  1.1886428818667953e+11  1.0002417479972699e+11  -3.0502677810069084e+10  1.0972669063231354e+11  -1.5695610237528494e+11  2.8983050568391437e+11  1.5696549588145413e+11  2.0782190953181119e+11  1.5946997863275137e+11  2.4526456815559912e+11  1.0102626557943767e+11  -1.1129094325802684e+11  -6.0919529958266296e+10  -1.0535192453510686e+11  -8.9343721005667282e+10  -7.7811778742880264e+10  4.8567746013997162e+10  -9.2208489170217209e+10  -3.4918194698464783e+10  1.2181589683965736e+11  -6.9908422833640503e+10  -1.4716149152683566e+11  -9.5822997231541809e+10  -2.4362260360889130e+10  -1.8846392558299710e+11  -9.5461338302509537e+10  -2.1628535655007547e+11  -1.4864804854297098e+11  5.0982624033773575e+10  -4.5747670759654327e+10  1.6363389536683908e+10  -7.2381312579473633e+10  1.2298225127603519e+11  2.4879711834970004e+11  -1.7825793869371561e+11  -7.2306885386283707e+10  -8.4386325523050964e+10  2.2758354135960437e+11  -1.8975653854989377e+11  -1.1112238705942789e+11  1.9633437908945303e+11  3.0663370494117999e+11  -7.8731842344689743e+10  2.3202848319289352e+11  2.2928339670781116e+09  7.4896492925439575e+10  2.5040926784563896e+10  6.1367908710159073e+10  1.0886814028669308e+10  -2.6173471937163120e+10  -3.3089850419005932e+10  -6.1610143388053177e+10  -1.6602572946804913e+11  -1.1983120802833588e+11  -3.2541358825578168e+11  -3.2735407160953638e+11  -4.1378066414747174e+11  -2.7691486739360577e+11  -1.2051115395799158e+11  -9.6525414227873138e+10  2.6964849878455738e+10  -8.3732973272723297e+10  -8.6542537634075760e+10  -1.6121937106184401e+10  -7.6221442574513184e+10  2.7187436128922886e+10  -1.9273471170351614e+11  9.8276225246093826e+09  -4.7866121764690445e+10  7.5819772022264282e+10  7.1536870129475586e+10  6.3658286764486168e+10  8.6782177334935318e+10  5.5712027051251190e+10  -5.8312012382493866e+10  -1.4887943374465854e+11  -5.3621283266801399e+10  -2.0948745183640515e+11  4.4168264132594093e+10  -1.9263869716353842e+11  -5.5995125598397865e+10  1.8355729958014271e+10  -6.6826097651151016e+10  -7.5022540213905441e+10  5.0790024994436943e+10  -7.0565010739379364e+10  -3.9389258857912607e+09  6.3817742711188672e+11  3.4118904976869653e+11  1.0846958625809280e+11  1.1152947277183156e+11  -2.1166904226104488e+10  -2.8045620650816326e+10  -6.5961195177469398e+10  -9.0882587433037170e+10  -8.0484582449841080e+10  -1.5247621195367902e+11  -1.8747842871795052e+10  2.7490045511063511e+10  -8.2391738487468970e+08  8.1151334162956985e+10  -1.6054731788971399e+11  -8.8374297807025620e+10  -4.3173250459402618e+10  -8.2705231315044937e+10  -6.5533682504249565e+10  -2.2574247204534991e+11  -3.0440188597587976e+11  -2.5163909060272101e+11  -1.0175955383270232e+11  5.3603349561801735e+10  -7.5766106131056854e+10  2.4754988554676248e+11  -1.7837100238300638e+11  -2.6924893307519840e+10  -1.4820117678949963e+11  2.6395987069531015e+11  2.0998598597094952e+11  4.3868537460760201e+10  8.0669329723062622e+10  2.4056852748041025e+11  -4.0924702592270667e+11  -1.0684323286460841e+11  2.2866829712790396e+11  8.6834929259867111e+10  4.0028752147180988e+11  2.0253606482259512e+11  -1.3190709890045252e+09  2.3460465662559726e+11  -1.4932012502076456e+11  4.8059603874042320e+10  1.3428320528202295e+11  1.3125264327179567e+10  2.1053855609831104e+10  -4.3990455746336511e+11  1.8742848367063141e+11  -3.6223743367261877e+11  -2.6462257423367450e+11  -3.7484993960664899e+11  3.5694326489562286e+10  8.8032627347578373e+09  -1.2436442188379237e+11  -8.1741666150598999e+10  2.5223336897541885e+10  -9.4007790028650497e+10  -1.6839051766666101e+11  -1.1442490017392281e+11  9.0140385032336960e+10  1.8780720121508276e+11  -8.8299020481955048e+10  2.0083207301564078e+11  5.3804060028884003e+10  1.1746116687310719e+11  2.3018382188940189e+10  1.3765722690438084e+10  1.3668975801384413e+10  -1.6287757890561948e+11  -6.9483037612908630e+10  -5.6104723066468636e+10  8.3629529169376965e+09  -2.9796646796429863e+09  -4.2902499283866501e+10  -1.1038304450595288e+11  8.3806006387019241e+10  5.3631428009704109e+10  -1.9931577606402710e+10  -1.1007215580251157e+11  7.0137117684712723e+10  1.6762137103605023e+11  2.5485173375551523e+11  2.7982084205817639e+11  2.7270294007665749e+09  -5.0732099115090645e+10  7.9216303451164352e+10  -1.8791598675043973e+11  -1.0128431383354399e+11  -1.7696273401742633e+11  -6.0133187725688148e+10  3.6270470642945724e+10  -7.6851978155244583e+10  -1.8146624731325184e+10  -7.0640772801360809e+10  -7.7644961529396072e+10  -1.9478562950150830e+11  -1.5644087720789435e+11  -1.6167948630913626e+11  -1.3882901699078357e+11  -2.7257297925662582e+11  -3.2192103935212299e+11  -2.5436392033703494e+11  2.2577908450157126e+11  1.1419912532909694e+11  8.9800418849116802e+09  7.2181284905608795e+10  -1.0839065121711710e+11  -9.9830477079586441e+10  1.6961868048620267e+11  2.4509446943176517e+11  1.5729683194332312e+11  6.1605055002815147e+10  7.2845632223628006e+10  1.6675197140769656e+11  -8.8386772528533997e+10  -9.6412150590569321e+10  3.0415218043495625e+10  3.7179239608383850e+10  -2.2754077783346050e+10  1.5575786618755542e+11  1.8367615659115421e+11  1.3058600442028178e+11  2.2670705575238049e+11  4.4768590732378244e+09  -9.7619340799414017e+10  -5.2387813946232040e+10  -3.8944296717936157e+10  -2.3980451241239526e+11  -9.1019593489945908e+10  -6.9544318253390350e+10  -5.5711364994146033e+11  -8.0882574217414379e+09  -1.4865201354615427e+11  -1.8641947513787289e+11  4.3953523717290297e+09  2.8242315442067863e+10  2.7292451690464294e+10  3.3212043728356850e+10  -4.5490734653642548e+10  8.6698601543587738e+10  1.1460274600459279e+11  -1.1231971213181720e+11  1.1682761457098804e+11  -6.6574684410052681e+10  3.1747299068217438e+10  1.7133621916996893e+11  -7.8736177490851679e+09  7.1992744101169556e+10  -3.6818200741363579e+10  -5.1402801902768578e+10  9.2857216712622650e+10  6.6060634721226974e+10  5.2121152652899834e+10  9.2898652408937836e+10  7.7566380922038422e+10  2.6427274130375816e+10  8.1300997173302917e+10  -1.8978062879172089e+11  5.2422682018152351e+09  -3.1018486754480240e+10  -1.6713796196177198e+10  1.3543309781984311e+11  -1.2162663747707376e+10  3.6594563790236351e+10  8.9123550674376812e+09  -1.7025341781861389e+11  2.8909288744031328e+08  -8.3330651702448273e+10  -1.9604239679942035e+11  -1.1221214987245296e+11  -1.2448106307013716e+10  -1.2657719247069785e+11  -1.0400207483560274e+10  -1.3770717734548349e+11  -2.3465080358829643e+10  -1.4377609459010664e+10  -1.1144531599795906e+11  -1.6522983366468420e+11  -3.9341075322141907e+10  -2.6208143044219513e+11  -2.3510103248141626e+11  -1.9012023568959006e+11  -1.7276108849806638e+11  -1.4919465097854889e+10  7.3293551427269470e+10  1.0363080884695398e+11  -3.8013604089751778e+10  -2.4163109471075439e+09  -5.6277963943465820e+10  2.9924275437328418e+11  2.0747925035010388e+11  5.0738975594648224e+10  2.6509460720636089e+10  -1.1380071354256683e+11  -2.3550407086700098e+11  -7.5727685542349380e+10  -3.6585407961305267e+10  -6.7771159096459114e+10  -4.1390776577510269e+10  -1.0206080673737581e+11  3.4113318416751721e+11  -1.7444379367485687e+11  6.2953890382984390e+10  3.7661284564496960e+11  4.3747574336621954e+11  -1.5011022780631323e+11  3.2136063642925775e+11  -2.6895094770427795e+11  -6.1865366053316422e+10  -2.9324712448646014e+11  -9.6058484340424957e+10  -7.0463506316832153e+10  3.1391927299930347e+11  6.0834810157767944e+09  -2.5946828410164562e+10  -1.5921493579433154e+11  4.9703148413557583e+08  7.5244040709388397e+10  1.5323111560984048e+11  -7.8569033262349167e+10  5.8080807661554535e+10  5.5393754814748863e+10  1.3082889365631598e+10  5.5520544075485779e+10  7.1880107036971375e+10  2.0896426563756393e+11  1.1541806928925056e+11  1.0248091607536993e+11  6.7720129940957733e+10  -3.1902666562505089e+10  2.3012842673866001e+10  -5.7591195014927620e+10  9.2446230710096146e+10  1.0265570069091391e+11  2.9341687522356030e+10  7.3315078288188992e+09  -4.2303093698208862e+10  -1.7452515389521359e+11  -1.5168054801931683e+11  4.5772498022777939e+10  -1.6226158568365921e+11  7.3457658081059235e+10  5.0450101432311234e+10  1.4898541655653168e+11  2.0903208849133231e+11  1.8156661606297549e+11  -5.0242813679702011e+10  -8.5169113086784210e+10  -9.5621868804000259e+10  -3.6837733478270142e+10  -7.7965267785349930e+10  8.9397549082039001e+10  -1.3463998165090373e+11  -6.9500226414703781e+10  -2.1019493131915134e+10  -8.2733936368664261e+10  -2.6035937887426010e+10  -7.2123537117033951e+10  -1.2783425858115407e+11  1.2067091032350033e+10  -1.3740196939901549e+11  -2.1372294456137286e+11  -2.3370200684398306e+11  -1.1697591027091803e+11  8.7695203152310959e+10  2.4796056611276974e+11  3.9020077264071202e+09  -5.7583830934551689e+10  -6.1993672136245010e+10  5.8118760342967194e+10  -6.5964437745306274e+10  5.2918154472131645e+10  -1.1250226550515329e+10  2.0346390669946259e+10  -1.7646082393244299e+11  -8.7915835096040863e+10  -3.1796317867543671e+11  -8.2384989974443390e+10  -1.4432082941096945e+11  3.3580267394774895e+10  6.6634828157741432e+10  1.4437364150696704e+11  8.5678248669347595e+10  -4.8621072020505135e+10  -2.0707734980424088e+10  1.6138078476885645e+10  -5.4860787809789209e+09  -1.5130430214589729e+10  -2.8641938218805298e+11  8.4571462594058670e+10  -1.4376918391140158e+11  -4.5540804202579669e+11  -6.2084035703780563e+10  -3.9184107363818005e+11  7.7980694521124512e+10  -7.6424358942523041e+10  -1.2770612299043965e+11  -9.8438172919437542e+09  -1.6954567014604932e+11  -1.0142480018415778e+11  -9.1020119668712128e+10  7.7745437364404282e+10  -2.9376276659443676e+10  1.9267574462657642e+11  7.2787026840695053e+10  1.4443002727805185e+11  9.7686070278105743e+10  1.3556287859904155e+11  1.1527352183349257e+11  3.2871757829571651e+10  3.1193690617385240e+09  -1.8186183882505363e+10  9.9607085462032108e+09  -1.2127130454569240e+09  1.0219646124626747e+10  9.5751604238120514e+10  3.9953645376081932e+10  -4.4857580299939690e+10  -1.2052354987549307e+11  -8.7027969525893448e+10  -1.9487380618613338e+10  1.6236214223270294e+11  4.3575229645409477e+10  5.7502316496033440e+10  -1.1950445959558444e+11  1.6733605288164346e+11  -2.4867592556421161e+09  2.5689187007139212e+11  -3.6541773570776642e+10  -2.6421053832924683e+10  -1.1385280829003423e+11  3.1211224838490788e+10  -5.7545584087408882e+10  1.0322589462888779e+10  -6.1571627522835167e+10  3.7287657279116356e+10  1.4652805206337540e+10  -4.4686055179756996e+10  -5.4857470768497337e+10  2.9149093891835587e+10  -4.4149658266671684e+10  1.6719237779899799e+10  -1.3779236531984570e+11  -3.1379349340344227e+10  -2.0896024237865210e+11  -1.5305035444990772e+10  1.0243593278667262e+11  -8.6920076247450241e+10  -1.0768825499917857e+11  -1.1147344075369296e+11  4.6069370299043518e+10  -4.8797614599993881e+10  -1.1148659454171970e+11  3.8603545400458698e+09  -3.0831987684547754e+11  2.4910025295781559e+10  -8.2149908613959290e+10  1.2417431268091531e+11  -5.8618255781096207e+10  -2.2331086718800894e+11  9.5875712160823395e+10  -2.0758767139079214e+11  3.3734478721097443e+11  -1.1546832295264719e+11  3.5691021546970444e+10  -2.6395928911750430e+11  3.0506977495172864e+11  1.4321396286629477e+11  -5.9442279408092712e+10  -2.0304493455363757e+11  -1.9038189077009116e+11  3.5555363100112079e+11  -6.5587556787878613e+11  -8.6207887770768986e+09  1.0595169962678818e+11  -1.5346943970194806e+11  4.1461605153652576e+11  9.4490305586502701e+10  5.4014779931954544e+10  -4.3655316567102524e+10  -5.8067293980100380e+10  -7.3279318648668015e+10  -8.0533796504165222e+10  2.3476921645031787e+11  -2.0645849944776740e+11  1.1340183348361592e+11  -2.1858937738687534e+10  5.3634768233588440e+10  2.3850647922649593e+10  1.8972647478968220e+10  2.3592202763081554e+10  -2.3560456060913125e+08  6.5069769633552074e+09  -1.2995290584709042e+10  3.6840768196247429e+10  2.9433951051316124e+10  -5.8701101028795509e+10  5.3384908757990379e+10  -8.7735245843089066e+10  -6.8927231810571609e+10  9.3447883627219162e+10  -3.8045859219741272e+10  3.6648207270211288e+10  -8.9242607810034515e+10  7.3843847545941940e+10  5.4860564225532051e+10  6.0076636255516502e+10  7.3915841286388016e+10  -2.0450289281650814e+10  -6.2333579871635847e+09  -5.1859594167505165e+10  2.0883008462197887e+10  -1.0333354413330112e+10  5.0221398362873520e+10  -2.3558384247000679e+10  -2.0619882044441639e+10  -4.0075849841285219e+09  -7.1171347638515747e+08  -3.8209760440550697e+10  3.3362419691229548e+09  -6.6589287821284103e+10  1.7099827136751187e+09  -4.5565981074517899e+10  1.5353614517463562e+10  3.5028525258945908e+10  1.8986980916484407e+08  -3.9305660540741592e+10  -6.5155169507491255e+09  -3.3319578616506756e+10  3.0872521647042797e+10  -1.0930604083947382e+10  8.7519433778641556e+10  -3.7195760667042252e+10  -8.7905288185302460e+10  1.2645531140157522e+10  1.8825194681491672e+11  -2.7966943171881981e+10  -8.5153604764311171e+09  1.5373986459617639e+11  -5.8223569949340332e+10  -3.9984454765289055e+10  1.4268334998173080e+11  9.1112751331079010e+10  6.4398954834104109e+09  5.7727943903077827e+10  1.1620938110016429e+11  -6.2235422914061249e+10  -4.1511334871593469e+11  -6.5676244634266090e+10  2.7394885503171899e+11  -8.1643628999786591e+10  4.8779474795141388e+10  -5.7222467277818977e+10  -3.3826540917987756e+11  9.6256699966625992e+10  -5.2454960763224388e+10  1.9209861998670734e+11  -1.1760064660208675e+11  2.2592466903317966e+11  -3.5985628016801373e+11  5.1486612197721806e+09  -1.0715213810280699e+11  -3.8680510905458931e+10  -3.9467984649937981e+10  -6.4936044259583214e+10  2.6883769147856724e+10  -2.3676675936566364e+10  -9.8697258325335922e+10  6.8046393280159325e+10  2.4867292125884155e+11  1.1865300927250313e+11  1.5370789166465237e+11  3.1012883552866577e+11  -1.5357118994162024e+10  8.0159416042731171e+10  -9.6567364196723984e+10  -1.7444190111928125e+11  -1.3198051395661942e+11  9.4032618673759384e+10  1.5034442951038797e+11  5.3138339481992989e+10  -4.8264162557983179e+09  -1.7284498592060870e+11  1.4022210931411478e+11  1.5146112788865131e+11  1.9937827152955988e+11  3.9009934448795364e+10  -1.2138732545524356e+11  -6.4350076110774193e+10  -3.3279112588208912e+10  1.4480121730095460e+09  -7.0431352661804993e+10  -5.8573122549360161e+10  1.3274980227783266e+11  -5.5878257906149040e+10  -1.6568271624657562e+10  7.3521564881939102e+10  7.2572516764406113e+10  -7.7513762974475983e+10  -1.8766928791875851e+11  6.6860685688798683e+10  1.1647910614030360e+11  -3.4340292527338556e+11  -1.6943400404580301e+11  -6.4253294301568947e+10  -1.1263316043185291e+11  -2.3972270416969700e+10  2.8414838454040173e+11  2.7236704969492383e+11  4.4216242867442975e+11  8.2972795150772415e+10  -5.6103161725373749e+10  2.3645394250343158e+11  7.3732883808687744e+10  -3.0667825730834259e+11  -6.0996045521065865e+10  1.5388002584238470e+10  2.4559094955633419e+10  -2.3253305907657315e+11  7.2951341348497295e+09  3.9426489465910516e+11  -5.5044948923580627e+09  -5.3638137096364227e+11  -2.5282986017642255e+11  -4.2373980929205399e+10  -1.3101438664273935e+11  6.1637364028135811e+10  -2.2029837607137189e+11  -4.4325208998341455e+11  4.3600180022352783e+10  -2.9135522299926487e+10  -1.2929839060872882e+11  -2.1299803131859222e+11  3.5308233117944016e+10  -4.7567597616349847e+11  -8.0983252052820930e+09  -6.4951127283951489e+11  -7.3641915922581042e+11  2.2626820107666626e+10  1.2746808038577628e+11  6.2654134956647291e+09  -1.9686942801760704e+10  