<?xml version="1.0"?>
<VTKFile type="UnstructuredGrid"  version="0.1"  >
<UnstructuredGrid>
<Piece  NumberOfPoints="1369" NumberOfCells="2560">
<Points>
<DataArray  type="Float64"  NumberOfComponents="3"  format="ascii">0 0 0  0.75 0 0  1.5 0 0  2.25 0 0  3 0 0  3.75 0 0  4.5 0 0  5.25 0 0  6 0 0  6.75 0 0  7.5 0 0  8.25 0 0  9 0 0  9.75 0 0  10.5 0 0  11.25 0 0  12 0 0  12.75 0 0  13.5 0 0  14.25 0 0  15 0 0  15.75 0 0  16.5 0 0  17.25 0 0  18 0 0  18.75 0 0  19.5 0 0  20.25 0 0  21 0 0  21.75 0 0  22.5 0 0  23.25 0 0  24 0 0  24.75 0 0  25.5 0 0  26.25 0 0  27 0 0  27.75 0 0  28.5 0 0  29.25 0 0  30 0 0  30.75 0 0  31.5 0 0  32.25 0 0  33 0 0  33.75 0 0  34.5 0 0  35.25 0 0  36 0 0  36.75 0 0  37.5 0 0  38.25 0 0  39 0 0  39.75 0 0  40.5 0 0  41.25 0 0  42 0 0  42.75 0 0  43.5 0 0  44.25 0 0  45 0 0  45.75 0 0  46.5 0 0  47.25 0 0  48 0 0  48.75 0 0  49.5 0 0  50.25 0 0  51 0 0  51.75 0 0  52.5 0 0  53.25 0 0  54 0 0  54.75 0 0  55.5 0 0  56.25 0 0  57 0 0  57.75 0 0  58.5 0 0  59.25 0 0  60 0 0  0 0.5 0  0.75 0.5 0  1.5 0.5 0  2.25 0.5 0  3 0.5 0  3.75 0.5 0  4.5 0.5 0  5.25 0.5 0  6 0.5 0  6.75 0.5 0  7.5 0.5 0  8.25 0.5 0  9 0.5 0  9.75 0.5 0  10.5 0.5 0  11.25 0.5 0  12 0.5 0  12.75 0.5 0  13.5 0.5 0  14.25 0.5 0  15 0.5 0  15.75 0.5 0  16.5 0.5 0  17.25 0.5 0  18 0.5 0  18.75 0.5 0  19.5 0.5 0  20.25 0.5 0  21 0.5 0  21.75 0.5 0  22.5 0.5 0  23.25 0.5 0  24 0.5 0  24.75 0.5 0  25.5 0.5 0  26.25 0.5 0  27 0.5 0  27.75 0.5 0  28.5 0.5 0  29.25 0.5 0  30 0.5 0  30.75 0.5 0  31.5 0.5 0  32.25 0.5 0  33 0.5 0  33.75 0.5 0  34.5 0.5 0  35.25 0.5 0  36 0.5 0  36.75 0.5 0  37.5 0.5 0  38.25 0.5 0  39 0.5 0  39.75 0.5 0  40.5 0.5 0  41.25 0.5 0  42 0.5 0  42.75 0.5 0  43.5 0.5 0  44.25 0.5 0  45 0.5 0  45.75 0.5 0  46.5 0.5 0  47.25 0.5 0  48 0.5 0  48.75 0.5 0  49.5 0.5 0  50.25 0.5 0  51 0.5 0  51.75 0.5 0  52.5 0.5 0  53.25 0.5 0  54 0.5 0  54.75 0.5 0  55.5 0.5 0  56.25 0.5 0  57 0.5 0  57.75 0.5 0  58.5 0.5 0  59.25 0.5 0  60 0.5 0  0 1 0  0.75 1 0  1.5 1 0  2.25 1 0  3 1 0  3.75 1 0  4.5 1 0  5.25 1 0  6 1 0  6.75 1 0  7.5 1 0  8.25 1 0  9 1 0  9.75 1 0  10.5 1 0  11.25 1 0  12 1 0  12.75 1 0  13.5 1 0  14.25 1 0  15 1 0  15.75 1 0  16.5 1 0  17.25 1 0  18 1 0  18.75 1 0  19.5 1 0  20.25 1 0  21 1 0  21.75 1 0  22.5 1 0  23.25 1 0  24 1 0  24.75 1 0  25.5 1 0  26.25 1 0  27 1 0  27.75 1 0  28.5 1 0  29.25 1 0  30 1 0  30.75 1 0  31.5 1 0  32.25 1 0  33 1 0  33.75 1 0  34.5 1 0  35.25 1 0  36 1 0  36.75 1 0  37.5 1 0  38.25 1 0  39 1 0  39.75 1 0  40.5 1 0  41.25 1 0  42 1 0  42.75 1 0  43.5 1 0  44.25 1 0  45 1 0  45.75 1 0  46.5 1 0  47.25 1 0  48 1 0  48.75 1 0  49.5 1 0  50.25 1 0  51 1 0  51.75 1 0  52.5 1 0  53.25 1 0  54 1 0  54.75 1 0  55.5 1 0  56.25 1 0  57 1 0  57.75 1 0  58.5 1 0  59.25 1 0  60 1 0  0 1.5 0  0.75 1.5 0  1.5 1.5 0  2.25 1.5 0  3 1.5 0  3.75 1.5 0  4.5 1.5 0  5.25 1.5 0  6 1.5 0  6.75 1.5 0  7.5 1.5 0  8.25 1.5 0  9 1.5 0  9.75 1.5 0  10.5 1.5 0  11.25 1.5 0  12 1.5 0  12.75 1.5 0  13.5 1.5 0  14.25 1.5 0  15 1.5 0  15.75 1.5 0  16.5 1.5 0  17.25 1.5 0  18 1.5 0  18.75 1.5 0  19.5 1.5 0  20.25 1.5 0  21 1.5 0  21.75 1.5 0  22.5 1.5 0  23.25 1.5 0  24 1.5 0  24.75 1.5 0  25.5 1.5 0  26.25 1.5 0  27 1.5 0  27.75 1.5 0  28.5 1.5 0  29.25 1.5 0  30 1.5 0  30.75 1.5 0  31.5 1.5 0  32.25 1.5 0  33 1.5 0  33.75 1.5 0  34.5 1.5 0  35.25 1.5 0  36 1.5 0  36.75 1.5 0  37.5 1.5 0  38.25 1.5 0  39 1.5 0  39.75 1.5 0  40.5 1.5 0  41.25 1.5 0  42 1.5 0  42.75 1.5 0  43.5 1.5 0  44.25 1.5 0  45 1.5 0  45.75 1.5 0  46.5 1.5 0  47.25 1.5 0  48 1.5 0  48.75 1.5 0  49.5 1.5 0  50.25 1.5 0  51 1.5 0  51.75 1.5 0  52.5 1.5 0  53.25 1.5 0  54 1.5 0  54.75 1.5 0  55.5 1.5 0  56.25 1.5 0  57 1.5 0  57.75 1.5 0  58.5 1.5 0  59.25 1.5 0  60 1.5 0  0 2 0  0.75 2 0  1.5 2 0  2.25 2 0  3 2 0  3.75 2 0  4.5 2 0  5.25 2 0  6 2 0  6.75 2 0  7.5 2 0  8.25 2 0  9 2 0  9.75 2 0  10.5 2 0  11.25 2 0  12 2 0  12.75 2 0  13.5 2 0  14.25 2 0  15 2 0  15.75 2 0  16.5 2 0  17.25 2 0  18 2 0  18.75 2 0  19.5 2 0  20.25 2 0  21 2 0  21.75 2 0  22.5 2 0  23.25 2 0  24 2 0  24.75 2 0  25.5 2 0  26.25 2 0  27 2 0  27.75 2 0  28.5 2 0  29.25 2 0  30 2 0  30.75 2 0  31.5 2 0  32.25 2 0  33 2 0  33.75 2 0  34.5 2 0  35.25 2 0  36 2 0  36.75 2 0  37.5 2 0  38.25 2 0  39 2 0  39.75 2 0  40.5 2 0  41.25 2 0  42 2 0  42.75 2 0  43.5 2 0  44.25 2 0  45 2 0  45.75 2 0  46.5 2 0  47.25 2 0  48 2 0  48.75 2 0  49.5 2 0  50.25 2 0  51 2 0  51.75 2 0  52.5 2 0  53.25 2 0  54 2 0  54.75 2 0  55.5 2 0  56.25 2 0  57 2 0  57.75 2 0  58.5 2 0  59.25 2 0  60 2 0  0 2.5 0  0.75 2.5 0  1.5 2.5 0  2.25 2.5 0  3 2.5 0  3.75 2.5 0  4.5 2.5 0  5.25 2.5 0  6 2.5 0  6.75 2.5 0  7.5 2.5 0  8.25 2.5 0  9 2.5 0  9.75 2.5 0  10.5 2.5 0  11.25 2.5 0  12 2.5 0  12.75 2.5 0  13.5 2.5 0  14.25 2.5 0  15 2.5 0  15.75 2.5 0  16.5 2.5 0  17.25 2.5 0  18 2.5 0  18.75 2.5 0  19.5 2.5 0  20.25 2.5 0  21 2.5 0  21.75 2.5 0  22.5 2.5 0  23.25 2.5 0  24 2.5 0  24.75 2.5 0  25.5 2.5 0  26.25 2.5 0  27 2.5 0  27.75 2.5 0  28.5 2.5 0  29.25 2.5 0  30 2.5 0  30.75 2.5 0  31.5 2.5 0  32.25 2.5 0  33 2.5 0  33.75 2.5 0  34.5 2.5 0  35.25 2.5 0  36 2.5 0  36.75 2.5 0  37.5 2.5 0  38.25 2.5 0  39 2.5 0  39.75 2.5 0  40.5 2.5 0  41.25 2.5 0  42 2.5 0  42.75 2.5 0  43.5 2.5 0  44.25 2.5 0  45 2.5 0  45.75 2.5 0  46.5 2.5 0  47.25 2.5 0  48 2.5 0  48.75 2.5 0  49.5 2.5 0  50.25 2.5 0  51 2.5 0  51.75 2.5 0  52.5 2.5 0  53.25 2.5 0  54 2.5 0  54.75 2.5 0  55.5 2.5 0  56.25 2.5 0  57 2.5 0  57.75 2.5 0  58.5 2.5 0  59.25 2.5 0  60 2.5 0  0 3 0  0.75 3 0  1.5 3 0  2.25 3 0  3 3 0  3.75 3 0  4.5 3 0  5.25 3 0  6 3 0  6.75 3 0  7.5 3 0  8.25 3 0  9 3 0  9.75 3 0  10.5 3 0  11.25 3 0  12 3 0  12.75 3 0  13.5 3 0  14.25 3 0  15 3 0  15.75 3 0  16.5 3 0  17.25 3 0  18 3 0  18.75 3 0  19.5 3 0  20.25 3 0  21 3 0  21.75 3 0  22.5 3 0  23.25 3 0  24 3 0  24.75 3 0  25.5 3 0  26.25 3 0  27 3 0  27.75 3 0  28.5 3 0  29.25 3 0  30 3 0  30.75 3 0  31.5 3 0  32.25 3 0  33 3 0  33.75 3 0  34.5 3 0  35.25 3 0  36 3 0  36.75 3 0  37.5 3 0  38.25 3 0  39 3 0  39.75 3 0  40.5 3 0  41.25 3 0  42 3 0  42.75 3 0  43.5 3 0  44.25 3 0  45 3 0  45.75 3 0  46.5 3 0  47.25 3 0  48 3 0  48.75 3 0  49.5 3 0  50.25 3 0  51 3 0  51.75 3 0  52.5 3 0  53.25 3 0  54 3 0  54.75 3 0  55.5 3 0  56.25 3 0  57 3 0  57.75 3 0  58.5 3 0  59.25 3 0  60 3 0  0 3.5 0  0.75 3.5 0  1.5 3.5 0  2.25 3.5 0  3 3.5 0  3.75 3.5 0  4.5 3.5 0  5.25 3.5 0  6 3.5 0  6.75 3.5 0  7.5 3.5 0  8.25 3.5 0  9 3.5 0  9.75 3.5 0  10.5 3.5 0  11.25 3.5 0  12 3.5 0  12.75 3.5 0  13.5 3.5 0  14.25 3.5 0  15 3.5 0  15.75 3.5 0  16.5 3.5 0  17.25 3.5 0  18 3.5 0  18.75 3.5 0  19.5 3.5 0  20.25 3.5 0  21 3.5 0  21.75 3.5 0  22.5 3.5 0  23.25 3.5 0  24 3.5 0  24.75 3.5 0  25.5 3.5 0  26.25 3.5 0  27 3.5 0  27.75 3.5 0  28.5 3.5 0  29.25 3.5 0  30 3.5 0  30.75 3.5 0  31.5 3.5 0  32.25 3.5 0  33 3.5 0  33.75 3.5 0  34.5 3.5 0  35.25 3.5 0  36 3.5 0  36.75 3.5 0  37.5 3.5 0  38.25 3.5 0  39 3.5 0  39.75 3.5 0  40.5 3.5 0  41.25 3.5 0  42 3.5 0  42.75 3.5 0  43.5 3.5 0  44.25 3.5 0  45 3.5 0  45.75 3.5 0  46.5 3.5 0  47.25 3.5 0  48 3.5 0  48.75 3.5 0  49.5 3.5 0  50.25 3.5 0  51 3.5 0  51.75 3.5 0  52.5 3.5 0  53.25 3.5 0  54 3.5 0  54.75 3.5 0  55.5 3.5 0  56.25 3.5 0  57 3.5 0  57.75 3.5 0  58.5 3.5 0  59.25 3.5 0  60 3.5 0  0 4 0  0.75 4 0  1.5 4 0  2.25 4 0  3 4 0  3.75 4 0  4.5 4 0  5.25 4 0  6 4 0  6.75 4 0  7.5 4 0  8.25 4 0  9 4 0  9.75 4 0  10.5 4 0  11.25 4 0  12 4 0  12.75 4 0  13.5 4 0  14.25 4 0  15 4 0  15.75 4 0  16.5 4 0  17.25 4 0  18 4 0  18.75 4 0  19.5 4 0  20.25 4 0  21 4 0  21.75 4 0  22.5 4 0  23.25 4 0  24 4 0  24.75 4 0  25.5 4 0  26.25 4 0  27 4 0  27.75 4 0  28.5 4 0  29.25 4 0  30 4 0  30.75 4 0  31.5 4 0  32.25 4 0  33 4 0  33.75 4 0  34.5 4 0  35.25 4 0  36 4 0  36.75 4 0  37.5 4 0  38.25 4 0  39 4 0  39.75 4 0  40.5 4 0  41.25 4 0  42 4 0  42.75 4 0  43.5 4 0  44.25 4 0  45 4 0  45.75 4 0  46.5 4 0  47.25 4 0  48 4 0  48.75 4 0  49.5 4 0  50.25 4 0  51 4 0  51.75 4 0  52.5 4 0  53.25 4 0  54 4 0  54.75 4 0  55.5 4 0  56.25 4 0  57 4 0  57.75 4 0  58.5 4 0  59.25 4 0  60 4 0  0.375 0.25 0  1.125 0.25 0  1.875 0.25 0  2.625 0.25 0  3.375 0.25 0  4.125 0.25 0  4.875 0.25 0  5.625 0.25 0  6.375 0.25 0  7.125 0.25 0  7.875 0.25 0  8.625 0.25 0  9.375 0.25 0  10.125 0.25 0  10.875 0.25 0  11.625 0.25 0  12.375 0.25 0  13.125 0.25 0  13.875 0.25 0  14.625 0.25 0  15.375 0.25 0  16.125 0.25 0  16.875 0.25 0  17.625 0.25 0  18.375 0.25 0  19.125 0.25 0  19.875 0.25 0  20.625 0.25 0  21.375 0.25 0  22.125 0.25 0  22.875 0.25 0  23.625 0.25 0  24.375 0.25 0  25.125 0.25 0  25.875 0.25 0  26.625 0.25 0  27.375 0.25 0  28.125 0.25 0  28.875 0.25 0  29.625 0.25 0  30.375 0.25 0  31.125 0.25 0  31.875 0.25 0  32.625 0.25 0  33.375 0.25 0  34.125 0.25 0  34.875 0.25 0  35.625 0.25 0  36.375 0.25 0  37.125 0.25 0  37.875 0.25 0  38.625 0.25 0  39.375 0.25 0  40.125 0.25 0  40.875 0.25 0  41.625 0.25 0  42.375 0.25 0  43.125 0.25 0  43.875 0.25 0  44.625 0.25 0  45.375 0.25 0  46.125 0.25 0  46.875 0.25 0  47.625 0.25 0  48.375 0.25 0  49.125 0.25 0  49.875 0.25 0  50.625 0.25 0  51.375 0.25 0  52.125 0.25 0  52.875 0.25 0  53.625 0.25 0  54.375 0.25 0  55.125 0.25 0  55.875 0.25 0  56.625 0.25 0  57.375 0.25 0  58.125 0.25 0  58.875 0.25 0  59.625 0.25 0  0.375 0.75 0  1.125 0.75 0  1.875 0.75 0  2.625 0.75 0  3.375 0.75 0  4.125 0.75 0  4.875 0.75 0  5.625 0.75 0  6.375 0.75 0  7.125 0.75 0  7.875 0.75 0  8.625 0.75 0  9.375 0.75 0  10.125 0.75 0  10.875 0.75 0  11.625 0.75 0  12.375 0.75 0  13.125 0.75 0  13.875 0.75 0  14.625 0.75 0  15.375 0.75 0  16.125 0.75 0  16.875 0.75 0  17.625 0.75 0  18.375 0.75 0  19.125 0.75 0  19.875 0.75 0  20.625 0.75 0  21.375 0.75 0  22.125 0.75 0  22.875 0.75 0  23.625 0.75 0  24.375 0.75 0  25.125 0.75 0  25.875 0.75 0  26.625 0.75 0  27.375 0.75 0  28.125 0.75 0  28.875 0.75 0  29.625 0.75 0  30.375 0.75 0  31.125 0.75 0  31.875 0.75 0  32.625 0.75 0  33.375 0.75 0  34.125 0.75 0  34.875 0.75 0  35.625 0.75 0  36.375 0.75 0  37.125 0.75 0  37.875 0.75 0  38.625 0.75 0  39.375 0.75 0  40.125 0.75 0  40
[...]
<PointData  Scalars="f_8-1"> 
<DataArray  type="Float64"  Name="f_8-1"  format="ascii">-1.0130946359320293e+10  -2.3167545923101463e+10  -8.6729680661785088e+09  1.6785580201610683e+10  2.0497640476394161e+10  2.1743920806107018e+10  1.9794724279045303e+10  -5.0074815212563858e+09  4.1630043722293686e+10  1.6254361631936028e+10  3.5515471018677231e+10  -1.8268649319874550e+10  7.2580794289305201e+09  -1.1358669491249388e+10  -1.2484788169244778e+09  -8.1646878396222429e+09  -6.3980274513294859e+09  -6.7583843728814096e+09  -3.9676093361869903e+09  -6.3281335178342829e+09  -3.0274705327480664e+09  -6.6653015998056898e+09  -8.9767154067156963e+09  -3.5316953248320570e+09  -2.6670764732198973e+09  -8.4553673413828382e+09  3.5394629148031268e+09  -2.0532425545987725e+09  -6.2040569263315284e+08  -7.2940855164045181e+09  7.0628551708073606e+09  -5.7839070593108358e+09  -4.3715123302878742e+09  6.6811939678509226e+09  3.9015291578557235e+08  -3.4933230013613243e+09  -1.3219731415247484e+10  -1.2543937575973177e+10  7.7185303951016321e+09  8.6807030383217735e+09  1.1507198277680326e+09  2.7851240936267715e+09  -3.5183258908812804e+09  4.0279086816402378e+09  -2.5184566644205909e+09  1.6150899960447989e+09  2.6478549851005468e+09  1.2403420351226616e+10  1.3750021741618242e+09  6.0322917863047018e+09  -2.9360106791082630e+09  1.0851656566137602e+10  -1.3803599245887799e+09  -2.1782130899809833e+09  1.9470625021341009e+09  -8.3778566060048950e+08  4.8234957501411457e+09  8.0323042302181416e+09  3.5456863711846876e+09  4.8742240524738464e+10  1.6408764571003692e+09  -5.2890475340178213e+09  2.0856515704449224e+09  1.0410180669218775e+09  -3.4346071571371160e+09  2.2753410934996578e+08  -3.7058108305536804e+09  3.4174971485634708e+09  9.0807761546907463e+09  3.8510332217932854e+09  8.9370505375767860e+09  3.5698716151202602e+09  -1.2821532854813364e+09  5.5237368811177025e+09  4.0648451295692935e+09  -8.6279161331919432e+08  -4.0772314399664445e+09  -1.7169508678140812e+09  -2.4227214825947428e+09  -2.0579441951370928e+09  5.3062673874292505e+08  -2.9522177381529112e+09  -9.1426700301137948e+08  -2.5893873301096897e+09  -5.3067335313585205e+09  -1.8540100364535842e+09  2.2137866233715611e+09  -7.3599005339172821e+09  -3.5907117526490135e+09  -2.0407790571148036e+09  3.5979372741670708e+10  -1.2923871223485109e+10  -8.8467398063544388e+09  4.4902088873459301e+09  -1.7568614504119034e+09  -6.1153317418186283e+09  -9.6848036381415691e+09  -3.3088570814676065e+09  -6.5188343619494267e+09  -5.5896887292534494e+09  -4.4266031299416771e+09  -3.5862650938321209e+09  -5.8192864874485073e+09  -8.0790257827181396e+09  -8.6316021919515209e+09  -3.2607817418864131e+09  -2.1790861778692398e+09  -4.8179738963765621e+09  2.2134788459806919e+09  -1.0004111531849917e+09  9.8995530214356911e+08  -1.3611058063371496e+09  -3.0867151192076960e+09  1.9760063228724518e+09  -3.6275425994976296e+09  -2.0803157600083072e+07  -4.7018685416924543e+09  -1.0825768428749573e+10  -7.3694059479474020e+09  -4.9186823840750637e+09  8.6524608199680901e+09  3.6608120063446841e+09  3.1157362975831423e+09  4.4362770500759155e+08  8.9408345806636477e+08  -2.2010206000225611e+09  3.9453525658008862e+09  9.8048611888349495e+09  -1.1269755843295685e+10  2.1030442083746560e+09  7.7087397345009089e+08  -3.4839133572271237e+09  -1.8218882086421599e+09  2.9138202888729644e+09  -2.0592921949403226e+09  4.5387789421851807e+09  5.3747410951138916e+09  -5.3992853654298055e+08  6.1101115171226768e+09  5.5243563220739012e+09  9.6891810017185593e+09  -6.6725912533898029e+09  -3.0470415490625048e+09  -2.0325769957626948e+09  -1.4960795058636863e+09  -6.9181126042639408e+09  3.0881499945200329e+09  2.1915245203399372e+09  -1.1150718487627747e+09  1.3310590851680496e+10  5.9643759357078953e+09  7.8275112984648590e+09  1.7858830806762464e+09  2.7685173445408945e+09  -1.8653431958104610e+09  6.0262038326379728e+09  4.8230634485876489e+08  -2.0863457850711770e+09  -1.4441944678842030e+09  -1.9176122552811496e+09  -1.0671233955801610e+09  -7.9607357314795399e+08  1.2598913479719809e+10  -1.6765456079463620e+09  3.1519391000468650e+09  -4.8811378381198559e+09  -1.5966690028337772e+10  -7.8908157003876686e+09  1.5432757980976725e+09  -1.0865596335031116e+10  -1.6350156742691352e+09  -5.2020337162054148e+09  4.8736685499421425e+09  9.8012494717640018e+09  -3.3138967457568803e+09  -4.5763019190044947e+09  -7.6846918031585541e+09  -1.1192396481114038e+10  -8.1233760668752308e+09  -4.4370646769060574e+09  -6.3345219440134182e+09  -4.8900692100399446e+09  -3.7886365797811708e+09  -4.2575855043741145e+09  -7.7298972023704643e+09  -1.3372069778441126e+09  -3.8944120645994782e+09  -2.4177811475552483e+09  -1.7988504540698633e+09  -4.5436645797545271e+09  -3.7722389288572869e+09  9.4845083795777237e+08  -6.6097755164717655e+09  -9.1357571195074387e+09  3.7255420171028566e+09  3.1328695611331850e+08  -6.0891344505417938e+09  4.3798354569311218e+09  -3.5814246831236782e+09  -7.7136982663851805e+09  -5.4784770214714327e+09  3.2982695319975567e+09  3.0367439753766136e+09  9.0874476662331982e+09  4.1683466314697714e+09  1.4862196628831446e+09  -2.8210299515269799e+09  -2.9613318902686915e+09  3.8866166377580471e+09  4.2016668317928739e+09  -2.9648280240815625e+09  -5.8694447446561590e+07  -1.2175680421597043e+08  2.5056037707084945e+08  -6.7890374929635870e+08  5.3426358183765011e+09  -2.8012505249917424e+08  -6.8983885066215348e+08  -7.9979015970791602e+08  1.1287846927250175e+10  1.1865001045694674e+10  9.7515516452221928e+09  -9.4228280192994843e+09  -3.7819938297334948e+09  -1.6136573674613533e+09  -1.7007602635929937e+09  5.4151358062600651e+09  -4.8027325798679280e+08  3.0176656310098400e+09  -1.3098608616188438e+10  -4.7339486910625029e+09  1.2891792206778997e+10  2.7079637993212280e+09  9.0102011916064949e+09  1.1506551048807527e+08  2.6801896837610617e+09  4.8904888739920673e+09  1.5694872235344827e+09  -9.9227816426614308e+08  -2.6609004738745847e+09  -1.3140283675934954e+09  -8.3470164451068103e+08  1.8180491178565246e+08  4.5581418921234077e+08  2.7448475592749432e+10  3.4349147648963161e+09  8.9673175074081898e+09  -7.2685006110755014e+09  9.1859137388636036e+09  -3.2130914918818722e+09  2.9028064815012348e+08  -9.7145002148902493e+09  -1.2760227815905197e+10  -2.7538920277583876e+09  2.0586755147995968e+10  -3.6612852506179018e+09  -6.8932673596386814e+09  -1.0170530564982004e+10  -6.5385381848231134e+09  -1.3004594960689571e+10  -2.0584000009406760e+09  -1.3046307895988008e+10  -7.3994837285593195e+09  -5.5573601357828178e+09  -4.2695411357769809e+09  -2.8838616287966478e+08  -4.1547025406803021e+09  3.0672589825411019e+09  -8.1275045736160259e+09  -2.6172679667714658e+09  -3.0645906336728964e+09  -4.1851055461311259e+09  -6.8375639841824474e+09  1.9773419628548894e+09  -2.3498869202796788e+09  1.7359600197916362e+09  2.6075487235248251e+09  -4.5104500983860636e+09  4.9362148258232203e+09  -1.2171903659200405e+10  -8.2742684689272575e+09  -3.9729521909392462e+09  4.9898531944300737e+09  3.4355959424721389e+09  -4.0217628185105050e+08  2.8626944090334477e+09  -2.2855794784597583e+09  1.0856282118168380e+09  -1.6566136691000080e+09  4.1584710136776199e+09  -6.8382352213281832e+09  -7.4200366442742968e+09  -5.2707364893590803e+09  -2.2823611278219991e+09  -4.6654969750419178e+09  5.2727626535569658e+09  -1.5345562422356842e+09  1.1242926254904606e+09  5.2669058079936562e+09  -8.9004276595157659e+08  4.5845245160509930e+09  1.0374212969647377e+10  -5.8560380943872023e+09  -4.7012729009027414e+09  -1.0081480754190079e+10  -1.1618600335271063e+10  4.3821255308507175e+09  -1.9306699928879056e+09  -9.0868359142565429e+08  1.2657600388179545e+09  -4.3773151370620050e+09  -8.0216921178734903e+09  -8.1935364500518093e+09  4.7832605552388153e+09  6.9215972859956694e+09  -1.7923937296716626e+09  3.8370639892805047e+09  7.5144119300725186e+08  3.1937022893732014e+09  2.5566772086699328e+09  -4.9791109226044363e+08  -2.3009501361631117e+09  -5.5602373947918832e+08  3.2802941976038940e+07  -3.6274346755317330e+09  -1.1853471660037935e+10  1.5238995656981403e+10  1.9546070616600784e+10  1.6000520900033457e+09  -1.2298314867313510e+08  4.6456405891313047e+09  -2.0736502407671566e+10  -9.9176668692920399e+09  -5.0127046123265352e+09  1.4253648524950233e+08  4.2165856432082267e+09  5.1083127641897602e+09  -1.7064702837123239e+09  -1.3200916088799207e+09  -5.6177485782440777e+09  -3.5852145723931189e+09  -1.1274788396212547e+10  -6.2424190710810452e+09  -1.3120150269063904e+09  -4.6804131207600603e+09  -5.9309471816028118e+09  -7.0318961091291618e+09  -2.7271006486641617e+09  1.9000291075049512e+09  -7.3896377397519946e+08  -4.7910267520837183e+09  -7.6035331394788539e+08  -2.4847597706704025e+09  -2.1938631342826357e+09  8.3997108921670923e+09  -7.5171036438958101e+09  1.0794066620496112e+08  -7.4688492644773846e+09  -3.1891106692527919e+09  -7.8405914816915989e+09  -2.2967007702682662e+09  -5.0380780746920700e+09  -5.4300163011518702e+07  -4.2875880245596671e+09  -3.6034197821725039e+09  3.5235883626505909e+09  -3.5313221248494453e+09  6.6658510894728336e+09  -3.0604854870190513e+08  -7.5179647527853661e+09  -1.7495474657037642e+09  -2.5474768460620217e+09  -1.5093230130421927e+09  -6.0140778989082317e+09  -1.4494121933936689e+09  5.8450460796575079e+09  -1.1962616122084274e+09  -5.5201929048414230e+09  2.3696591017643237e+09  1.0397448520693258e+10  1.3459633124427083e+09  4.6094029870146217e+09  2.9520951879388447e+09  -1.0480257879445086e+10  -6.6138483152809343e+09  -4.8011778299059337e+08  -1.0318571115944418e+10  6.6015723076033850e+09  4.0939773408431215e+09  1.3543236567702723e+09  8.6290658574116478e+09  5.5518110329085159e+09  6.4448445488342953e+09  -2.0304824396085005e+09  8.9203322496362793e+08  3.1335705037036147e+09  3.1986340686020193e+09  8.8385287204873407e+08  9.1533533260988057e+08  2.0379926747119686e+08  3.8638750080067196e+09  3.3391440022612107e+08  -6.5596125140915118e+07  -8.7405645503892303e+08  1.6815428007448032e+08  -2.6344510793344646e+09  1.2454490712277868e+10  1.3126697352431641e+10  -1.0549980061098094e+09  1.2226529522122709e+10  -3.9326890794002371e+09  -1.2182768600717449e+10  -1.3235014362821126e+09  7.8949094255065126e+09  -1.9257263359828838e+10  3.4611333281320062e+09  -4.9094822594896183e+09  -3.8017054093933964e+09  -6.7551436597097960e+09  -7.3824314099831562e+09  4.1528477086773968e+09  -7.2837958888537512e+09  -1.9630811101983888e+09  -1.5148243760172581e+10  -2.0198741941983235e+09  -6.6374230185645790e+09  1.8770748663429086e+09  -1.1624791219438966e+07  -6.6812322843576307e+09  -6.6996080806863337e+09  -4.6357069740340958e+09  4.2890033393553085e+09  -9.8755798617711270e+08  4.1011978040999947e+09  -2.4265775722500983e+08  3.0374713039907761e+09  -2.9294680729888997e+09  4.7277298946965599e+09  1.2562449600690119e+09  -8.1727484494183598e+09  -2.3466547773146715e+09  -4.0079357990393372e+09  2.7822049621583185e+09  -3.1281515799808826e+09  -2.5998413788683219e+09  1.1219235941968365e+10  -4.5680077390359907e+09  3.0020766802876210e+09  4.8115708825045710e+09  -5.8168837073714695e+09  -3.0755483981435456e+09  -2.9809364528087630e+09  3.5888636156555338e+09  -3.4273105897312355e+08  -5.1945382421728458e+09  -2.9595927153329426e+08  -2.3788871055498095e+09  1.4950987786895633e+09  5.2137053177457085e+09  2.6211655781465039e+08  3.2840615477784262e+09  2.4436313622532430e+09  1.1501070340026009e+09  3.0399942966843832e+08  -1.1278012037259008e+10  -5.2901663293840009e+08  -8.5414190069095726e+09  1.5204209357054009e+09  4.1547886195946890e+08  8.4954730676252489e+09  6.0594498117716999e+09  1.6599913467265465e+10  2.7205693826960049e+09  -1.9570313796560714e+09  1.5885473155898340e+09  1.2813523808769310e+10  6.3970721848362851e+08  8.9867330555278111e+09  2.8096456964887137e+09  6.2779982032709646e+08  2.0790746136249716e+09  6.1765721672500162e+09  -2.1584660612864636e+07  1.8473576661951540e+09  -7.7967738905887052e+07  7.4185743050798059e+08  6.6497672979709947e+08  -5.8036869222286940e+09  4.7954856821475973e+09  1.1857974406841181e+10  6.2251361567545042e+09  -9.0783706316173019e+09  -4.0006876214016104e+08  -3.2857574160034661e+09  -1.8313967701776998e+09  -2.2588391739138622e+10  1.4050565578327429e+10  -9.3415587578214626e+09  -6.2367382085900984e+09  -1.0525760493722820e+10  -1.8185269534098747e+09  -5.4970291890215597e+09  -5.0358986091884680e+09  6.7579757597777805e+09  -1.0619306650990444e+10  -6.6857200050811815e+09  3.7687743332809716e+08  -3.2262700294588933e+09  -5.3826590288545351e+09  3.5275730775062590e+09  -2.9536891297405839e+09  1.5328339837620151e+09  4.8036867711411273e+08  4.8440472068328136e+08  -6.4153114409560232e+09  2.3924599348189082e+09  2.8351723772578168e+09  2.0341527664631929e+09  3.2256524401232753e+09  -8.6376090578570747e+09  -4.0895245054891887e+09  -2.8011006393276820e+09  5.6646701610659885e+09  4.7482355216669077e+08  -2.6495319855918741e+09  8.5030731663328838e+09  7.1007050823755503e+09  -3.1122431804178820e+09  -5.8923742951020956e+09  4.7879684459095132e+06  -6.6661428775441008e+09  3.2329319375254812e+09  -4.6115425922038832e+09  1.6939441170308739e+08  -8.0597880018802810e+08  -2.7606085558150482e+09  -3.2996239965255475e+09  -3.1281507794975533e+09  1.0136497409468720e+09  -3.4091348383055339e+09  9.5948417634383507e+09  -4.3102511697968159e+09  1.4269232325725365e+09  -4.0592013763078823e+09  -2.1179379370696671e+09  4.5061275483588400e+09  -3.3241131135529923e+09  -1.1497922764176495e+10  -3.8358550146342053e+09  1.4044014807578652e+09  -4.7721170979921722e+09  2.2948055146067245e+10  5.4939150357413232e+08  1.2416091778466944e+10  4.3642350487212830e+09  1.8042856573831970e+10  -3.2896539721347451e+09  4.7874233182913933e+09  -1.7538252204801390e+09  1.6668241546367843e+09  1.3346665560613642e+09  3.9788313399544010e+09  2.9846543042446747e+09  1.0923790112724662e+09  1.4845864211768596e+09  1.2780688086741641e+09  -6.6134423675720406e+08  -1.5339684615979624e+10  -4.4106084702000942e+09  6.0562008243171716e+08  1.4441427983860004e+09  3.2626984419786468e+09  2.8325640256974087e+09  4.8143371860078831e+09  -1.9466695531300662e+09  -5.2969760942679968e+09  -1.3021796999438511e+10  -1.6756651160040061e+09  5.8638605807923641e+09  -7.8077059406207514e+09  -1.1339254493217804e+10  -1.1346979397255432e+10  -7.5832778307287321e+09  -6.2311864595432539e+09  4.4638368704007616e+09  -1.6929563298404398e+09  -1.6247278713376579e+10  7.3897006220062697e+08  -1.3004881591861358e+09  -5.6485739784468794e+09  -3.2871458374876480e+09  1.4188680065158424e+09  -2.9399296307764971e+08  -1.2824427896023397e+09  -6.2160731730925236e+09  -4.4078365824687500e+09  -1.0825928928288576e+10  3.0728009738427925e+09  1.7770827578034950e+10  1.6430638007210784e+09  -3.9355924981595635e+09  -4.3724561701488380e+09  4.1558976901246476e+09  2.1968057658923644e+08  -8.5208262099986446e+08  4.9898168554728165e+09  -3.0992315096285605e+09  -5.3401053993266964e+09  2.3704147178846016e+09  -4.2855329836499200e+09  -5.5816065052494411e+09  -4.4655356219565029e+09  -3.5118918866657615e+08  1.4466376779020355e+09  -5.9302553440818710e+09  8.1456738798092874e+06  -4.3237584598438702e+09  -5.9976449878028727e+09  -4.7591811906237125e+08  5.5006784832807279e+08  1.1156383787282576e+10  -1.1243423039365671e+09  -6.9604539257944670e+09  -3.5349703161113868e+09  4.6428317453724737e+09  -3.2511082031966764e+08  -4.9450875388751078e+09  -3.0321435555874138e+09  6.4087725353492610e+07  -3.5907936205777483e+09  3.6573718534861460e+09  2.9556918393434381e+09  5.5482853565620899e+09  8.2399047037883139e+09  5.4957870325676413e+09  2.1464776267022011e+10  3.3034765757170739e+09  5.9593428767687092e+09  -9.0878968386545908e+08  6.4414469068835115e+09  2.3004231271385913e+09  2.5004200505980868e+09  5.8520434455004168e+09  6.0461339960230904e+09  -3.0361833061356883e+09  -3.5647963016312718e+08  5.8637947126002681e+08  -4.1490786374753761e+08  -2.1958913947037544e+09  -8.2345456839065924e+09  1.7097411785157483e+09  3.1292084382668018e+09  3.6642056849387665e+09  -5.8986315630120492e+08  -7.5904744179152660e+09  1.9393404139140847e+09  -1.6643283683650365e+09  1.1333412466671593e+09  4.9386809922791309e+09  1.7525140577544861e+09  -1.2408137787789357e+09  -8.7789819303058922e+08  1.8492858497008336e+09  1.6825279174075921e+09  -6.3649072386935797e+09  1.1321413566646988e+09  -1.7227226695201865e+08  -1.6470376476055856e+09  3.5944671869157515e+09  -4.7215061980140913e+08  3.5286981322672143e+09  -5.0265371038560534e+09  1.0985594245764239e+09  2.4314340806213677e+08  2.4157740110046825e+09  -2.2717190306081676e+09  2.4918052358929892e+09  3.2299900660529027e+09  -5.2896245329906073e+09  8.4841375100071585e+08  -3.1330633803214054e+09  9.5221375097455597e+08  2.7727533417983108e+09  2.5419951233198854e+08  3.0969469952992451e+08  3.2175418280884433e+08  2.7364398321871171e+09  -1.8586266654272428e+09  1.2418605179891846e+08  -7.9013134761776114e+08  -2.2064000236686907e+09  4.0425840120366988e+09  2.1311000503655314e+09  2.0223714580426688e+09  -2.9488225984833372e+08  1.2387048062098615e+09  -1.4019372726144402e+09  1.7008051473280923e+09  1.9443883392034683e+09  -3.0354955437508807e+09  -8.2766002177697878e+09  -7.0161180280337560e+08  1.0401580748209916e+09  -1.2302155109277266e+10  1.5804459133147401e+08  3.2101841126785841e+09  -2.2016004451856038e+08  4.0961237125941879e+08  -1.7891738782019718e+09  1.8901271046697628e+08  -8.7372763355723768e+06  9.9344312997006387e+07  -1.2217834486592073e+09  -9.7123520140596104e+08  1.4865751686290896e+08  2.7869336133100586e+09  -1.1108477048882002e+10  1.5122269476253878e+10  1.5122248045773091e+09  -5.3881115479949341e+09  1.8221824103975127e+09  -3.2111624576500230e+09  2.0240539629446816e+08  -3.7052692774635538e+07  -8.6471862340173066e+08  3.6861586636716537e+09  -2.7309760250491014e+09  6.8429504579238319e+08  3.7797193509558135e+08  -8.5752919259044542e+09  -1.9565991470252087e+10  1.7264169029388260e+10  2.2305701501603432e+10  1.1614314626275688e+10  3.0209825215266342e+10  -5.4372849726598749e+09  -1.0041488829491512e+10  3.3859972511802376e+10  3.4523186224311323e+09  -8.2664739233812408e+09  -1.6111034692708982e+10  -3.0558587284873548e+09  -8.2433963334271851e+09  -5.7576663148705521e+09  -6.4666353701232929e+09  8.8530812941462269e+09  5.3936171014473379e+08  -8.4477811871337090e+09  -4.2929381359486818e+09  -5.7461629371865692e+09  -7.4617577624169979e+09  -3.3451188205745354e+09  -2.6687313146262455e+09  -3.0384508245414510e+09  -5.3425830653630953e+09  -3.9438918240706511e+09  -1.4351584782983422e+09  -2.3757740611293054e+09  -3.3375068912744565e+09  -5.7247319512047195e+09  -5.7946210735738306e+09  7.3324362719574976e+09  2.0568146928248158e+09  -3.0212924742423043e+09  -7.0953751180198832e+09  -7.8226123674249334e+09  -2.7558092788487363e+09  -5.8208765209520025e+09  3.6102773488499351e+09  2.3442682646153421e+09  -1.2099514541659119e+09  -1.7452299842716372e+09  -1.9767134261948505e+10  -2.6462991585574040e+09  -3.2960159266601009e+09  -3.2590046882425409e+07  -1.3827776136985276e+09  2.0683062713858495e+09  -6.2307811665812349e+09  6.3931204677935064e+08  2.5344347595337234e+09  -3.0510441168664503e+09  5.9901602759400234e+09  1.6396220241400251e+09  -4.3239922474363537e+09  3.0110401554303331e+09  2.1548496278133740e+09  4.9566955197766647e+09  1.6062327952789169e+10  -6.4389757252391186e+09  3.1214202166268291e+09  6.0834468083334627e+09  8.4627223007870417e+09  -3.9103008291461415e+09  6.7209141782928410e+09  -2.2779346184648848e+09  -2.3106666766791716e+09  3.3774377607388601e+09  3.3009938413006673e+09  3.9163223108397136e+09  -1.1030446837507397e+10  -4.2652022766664195e+08  4.0288010721707463e+09  3.5913886073684363e+09  -3.0212841619327984e+09  -2.5696037838871303e+09  -2.7902892204947834e+09  -3.0024122361511855e+09  4.5501258311083394e+08  2.8435513300325195e+10  1.3200129124009436e+10