<?xml version="1.0"?>
<VTKFile type="UnstructuredGrid"  version="0.1"  >
<UnstructuredGrid>
<Piece  NumberOfPoints="1369" NumberOfCells="2560">
<Points>
<DataArray  type="Float64"  NumberOfComponents="3"  format="ascii">0 0 0  0.75 0 0  1.5 0 0  2.25 0 0  3 0 0  3.75 0 0  4.5 0 0  5.25 0 0  6 0 0  6.75 0 0  7.5 0 0  8.25 0 0  9 0 0  9.75 0 0  10.5 0 0  11.25 0 0  12 0 0  12.75 0 0  13.5 0 0  14.25 0 0  15 0 0  15.75 0 0  16.5 0 0  17.25 0 0  18 0 0  18.75 0 0  19.5 0 0  20.25 0 0  21 0 0  21.75 0 0  22.5 0 0  23.25 0 0  24 0 0  24.75 0 0  25.5 0 0  26.25 0 0  27 0 0  27.75 0 0  28.5 0 0  29.25 0 0  30 0 0  30.75 0 0  31.5 0 0  32.25 0 0  33 0 0  33.75 0 0  34.5 0 0  35.25 0 0  36 0 0  36.75 0 0  37.5 0 0  38.25 0 0  39 0 0  39.75 0 0  40.5 0 0  41.25 0 0  42 0 0  42.75 0 0  43.5 0 0  44.25 0 0  45 0 0  45.75 0 0  46.5 0 0  47.25 0 0  48 0 0  48.75 0 0  49.5 0 0  50.25 0 0  51 0 0  51.75 0 0  52.5 0 0  53.25 0 0  54 0 0  54.75 0 0  55.5 0 0  56.25 0 0  57 0 0  57.75 0 0  58.5 0 0  59.25 0 0  60 0 0  0 0.5 0  0.75 0.5 0  1.5 0.5 0  2.25 0.5 0  3 0.5 0  3.75 0.5 0  4.5 0.5 0  5.25 0.5 0  6 0.5 0  6.75 0.5 0  7.5 0.5 0  8.25 0.5 0  9 0.5 0  9.75 0.5 0  10.5 0.5 0  11.25 0.5 0  12 0.5 0  12.75 0.5 0  13.5 0.5 0  14.25 0.5 0  15 0.5 0  15.75 0.5 0  16.5 0.5 0  17.25 0.5 0  18 0.5 0  18.75 0.5 0  19.5 0.5 0  20.25 0.5 0  21 0.5 0  21.75 0.5 0  22.5 0.5 0  23.25 0.5 0  24 0.5 0  24.75 0.5 0  25.5 0.5 0  26.25 0.5 0  27 0.5 0  27.75 0.5 0  28.5 0.5 0  29.25 0.5 0  30 0.5 0  30.75 0.5 0  31.5 0.5 0  32.25 0.5 0  33 0.5 0  33.75 0.5 0  34.5 0.5 0  35.25 0.5 0  36 0.5 0  36.75 0.5 0  37.5 0.5 0  38.25 0.5 0  39 0.5 0  39.75 0.5 0  40.5 0.5 0  41.25 0.5 0  42 0.5 0  42.75 0.5 0  43.5 0.5 0  44.25 0.5 0  45 0.5 0  45.75 0.5 0  46.5 0.5 0  47.25 0.5 0  48 0.5 0  48.75 0.5 0  49.5 0.5 0  50.25 0.5 0  51 0.5 0  51.75 0.5 0  52.5 0.5 0  53.25 0.5 0  54 0.5 0  54.75 0.5 0  55.5 0.5 0  56.25 0.5 0  57 0.5 0  57.75 0.5 0  58.5 0.5 0  59.25 0.5 0  60 0.5 0  0 1 0  0.75 1 0  1.5 1 0  2.25 1 0  3 1 0  3.75 1 0  4.5 1 0  5.25 1 0  6 1 0  6.75 1 0  7.5 1 0  8.25 1 0  9 1 0  9.75 1 0  10.5 1 0  11.25 1 0  12 1 0  12.75 1 0  13.5 1 0  14.25 1 0  15 1 0  15.75 1 0  16.5 1 0  17.25 1 0  18 1 0  18.75 1 0  19.5 1 0  20.25 1 0  21 1 0  21.75 1 0  22.5 1 0  23.25 1 0  24 1 0  24.75 1 0  25.5 1 0  26.25 1 0  27 1 0  27.75 1 0  28.5 1 0  29.25 1 0  30 1 0  30.75 1 0  31.5 1 0  32.25 1 0  33 1 0  33.75 1 0  34.5 1 0  35.25 1 0  36 1 0  36.75 1 0  37.5 1 0  38.25 1 0  39 1 0  39.75 1 0  40.5 1 0  41.25 1 0  42 1 0  42.75 1 0  43.5 1 0  44.25 1 0  45 1 0  45.75 1 0  46.5 1 0  47.25 1 0  48 1 0  48.75 1 0  49.5 1 0  50.25 1 0  51 1 0  51.75 1 0  52.5 1 0  53.25 1 0  54 1 0  54.75 1 0  55.5 1 0  56.25 1 0  57 1 0  57.75 1 0  58.5 1 0  59.25 1 0  60 1 0  0 1.5 0  0.75 1.5 0  1.5 1.5 0  2.25 1.5 0  3 1.5 0  3.75 1.5 0  4.5 1.5 0  5.25 1.5 0  6 1.5 0  6.75 1.5 0  7.5 1.5 0  8.25 1.5 0  9 1.5 0  9.75 1.5 0  10.5 1.5 0  11.25 1.5 0  12 1.5 0  12.75 1.5 0  13.5 1.5 0  14.25 1.5 0  15 1.5 0  15.75 1.5 0  16.5 1.5 0  17.25 1.5 0  18 1.5 0  18.75 1.5 0  19.5 1.5 0  20.25 1.5 0  21 1.5 0  21.75 1.5 0  22.5 1.5 0  23.25 1.5 0  24 1.5 0  24.75 1.5 0  25.5 1.5 0  26.25 1.5 0  27 1.5 0  27.75 1.5 0  28.5 1.5 0  29.25 1.5 0  30 1.5 0  30.75 1.5 0  31.5 1.5 0  32.25 1.5 0  33 1.5 0  33.75 1.5 0  34.5 1.5 0  35.25 1.5 0  36 1.5 0  36.75 1.5 0  37.5 1.5 0  38.25 1.5 0  39 1.5 0  39.75 1.5 0  40.5 1.5 0  41.25 1.5 0  42 1.5 0  42.75 1.5 0  43.5 1.5 0  44.25 1.5 0  45 1.5 0  45.75 1.5 0  46.5 1.5 0  47.25 1.5 0  48 1.5 0  48.75 1.5 0  49.5 1.5 0  50.25 1.5 0  51 1.5 0  51.75 1.5 0  52.5 1.5 0  53.25 1.5 0  54 1.5 0  54.75 1.5 0  55.5 1.5 0  56.25 1.5 0  57 1.5 0  57.75 1.5 0  58.5 1.5 0  59.25 1.5 0  60 1.5 0  0 2 0  0.75 2 0  1.5 2 0  2.25 2 0  3 2 0  3.75 2 0  4.5 2 0  5.25 2 0  6 2 0  6.75 2 0  7.5 2 0  8.25 2 0  9 2 0  9.75 2 0  10.5 2 0  11.25 2 0  12 2 0  12.75 2 0  13.5 2 0  14.25 2 0  15 2 0  15.75 2 0  16.5 2 0  17.25 2 0  18 2 0  18.75 2 0  19.5 2 0  20.25 2 0  21 2 0  21.75 2 0  22.5 2 0  23.25 2 0  24 2 0  24.75 2 0  25.5 2 0  26.25 2 0  27 2 0  27.75 2 0  28.5 2 0  29.25 2 0  30 2 0  30.75 2 0  31.5 2 0  32.25 2 0  33 2 0  33.75 2 0  34.5 2 0  35.25 2 0  36 2 0  36.75 2 0  37.5 2 0  38.25 2 0  39 2 0  39.75 2 0  40.5 2 0  41.25 2 0  42 2 0  42.75 2 0  43.5 2 0  44.25 2 0  45 2 0  45.75 2 0  46.5 2 0  47.25 2 0  48 2 0  48.75 2 0  49.5 2 0  50.25 2 0  51 2 0  51.75 2 0  52.5 2 0  53.25 2 0  54 2 0  54.75 2 0  55.5 2 0  56.25 2 0  57 2 0  57.75 2 0  58.5 2 0  59.25 2 0  60 2 0  0 2.5 0  0.75 2.5 0  1.5 2.5 0  2.25 2.5 0  3 2.5 0  3.75 2.5 0  4.5 2.5 0  5.25 2.5 0  6 2.5 0  6.75 2.5 0  7.5 2.5 0  8.25 2.5 0  9 2.5 0  9.75 2.5 0  10.5 2.5 0  11.25 2.5 0  12 2.5 0  12.75 2.5 0  13.5 2.5 0  14.25 2.5 0  15 2.5 0  15.75 2.5 0  16.5 2.5 0  17.25 2.5 0  18 2.5 0  18.75 2.5 0  19.5 2.5 0  20.25 2.5 0  21 2.5 0  21.75 2.5 0  22.5 2.5 0  23.25 2.5 0  24 2.5 0  24.75 2.5 0  25.5 2.5 0  26.25 2.5 0  27 2.5 0  27.75 2.5 0  28.5 2.5 0  29.25 2.5 0  30 2.5 0  30.75 2.5 0  31.5 2.5 0  32.25 2.5 0  33 2.5 0  33.75 2.5 0  34.5 2.5 0  35.25 2.5 0  36 2.5 0  36.75 2.5 0  37.5 2.5 0  38.25 2.5 0  39 2.5 0  39.75 2.5 0  40.5 2.5 0  41.25 2.5 0  42 2.5 0  42.75 2.5 0  43.5 2.5 0  44.25 2.5 0  45 2.5 0  45.75 2.5 0  46.5 2.5 0  47.25 2.5 0  48 2.5 0  48.75 2.5 0  49.5 2.5 0  50.25 2.5 0  51 2.5 0  51.75 2.5 0  52.5 2.5 0  53.25 2.5 0  54 2.5 0  54.75 2.5 0  55.5 2.5 0  56.25 2.5 0  57 2.5 0  57.75 2.5 0  58.5 2.5 0  59.25 2.5 0  60 2.5 0  0 3 0  0.75 3 0  1.5 3 0  2.25 3 0  3 3 0  3.75 3 0  4.5 3 0  5.25 3 0  6 3 0  6.75 3 0  7.5 3 0  8.25 3 0  9 3 0  9.75 3 0  10.5 3 0  11.25 3 0  12 3 0  12.75 3 0  13.5 3 0  14.25 3 0  15 3 0  15.75 3 0  16.5 3 0  17.25 3 0  18 3 0  18.75 3 0  19.5 3 0  20.25 3 0  21 3 0  21.75 3 0  22.5 3 0  23.25 3 0  24 3 0  24.75 3 0  25.5 3 0  26.25 3 0  27 3 0  27.75 3 0  28.5 3 0  29.25 3 0  30 3 0  30.75 3 0  31.5 3 0  32.25 3 0  33 3 0  33.75 3 0  34.5 3 0  35.25 3 0  36 3 0  36.75 3 0  37.5 3 0  38.25 3 0  39 3 0  39.75 3 0  40.5 3 0  41.25 3 0  42 3 0  42.75 3 0  43.5 3 0  44.25 3 0  45 3 0  45.75 3 0  46.5 3 0  47.25 3 0  48 3 0  48.75 3 0  49.5 3 0  50.25 3 0  51 3 0  51.75 3 0  52.5 3 0  53.25 3 0  54 3 0  54.75 3 0  55.5 3 0  56.25 3 0  57 3 0  57.75 3 0  58.5 3 0  59.25 3 0  60 3 0  0 3.5 0  0.75 3.5 0  1.5 3.5 0  2.25 3.5 0  3 3.5 0  3.75 3.5 0  4.5 3.5 0  5.25 3.5 0  6 3.5 0  6.75 3.5 0  7.5 3.5 0  8.25 3.5 0  9 3.5 0  9.75 3.5 0  10.5 3.5 0  11.25 3.5 0  12 3.5 0  12.75 3.5 0  13.5 3.5 0  14.25 3.5 0  15 3.5 0  15.75 3.5 0  16.5 3.5 0  17.25 3.5 0  18 3.5 0  18.75 3.5 0  19.5 3.5 0  20.25 3.5 0  21 3.5 0  21.75 3.5 0  22.5 3.5 0  23.25 3.5 0  24 3.5 0  24.75 3.5 0  25.5 3.5 0  26.25 3.5 0  27 3.5 0  27.75 3.5 0  28.5 3.5 0  29.25 3.5 0  30 3.5 0  30.75 3.5 0  31.5 3.5 0  32.25 3.5 0  33 3.5 0  33.75 3.5 0  34.5 3.5 0  35.25 3.5 0  36 3.5 0  36.75 3.5 0  37.5 3.5 0  38.25 3.5 0  39 3.5 0  39.75 3.5 0  40.5 3.5 0  41.25 3.5 0  42 3.5 0  42.75 3.5 0  43.5 3.5 0  44.25 3.5 0  45 3.5 0  45.75 3.5 0  46.5 3.5 0  47.25 3.5 0  48 3.5 0  48.75 3.5 0  49.5 3.5 0  50.25 3.5 0  51 3.5 0  51.75 3.5 0  52.5 3.5 0  53.25 3.5 0  54 3.5 0  54.75 3.5 0  55.5 3.5 0  56.25 3.5 0  57 3.5 0  57.75 3.5 0  58.5 3.5 0  59.25 3.5 0  60 3.5 0  0 4 0  0.75 4 0  1.5 4 0  2.25 4 0  3 4 0  3.75 4 0  4.5 4 0  5.25 4 0  6 4 0  6.75 4 0  7.5 4 0  8.25 4 0  9 4 0  9.75 4 0  10.5 4 0  11.25 4 0  12 4 0  12.75 4 0  13.5 4 0  14.25 4 0  15 4 0  15.75 4 0  16.5 4 0  17.25 4 0  18 4 0  18.75 4 0  19.5 4 0  20.25 4 0  21 4 0  21.75 4 0  22.5 4 0  23.25 4 0  24 4 0  24.75 4 0  25.5 4 0  26.25 4 0  27 4 0  27.75 4 0  28.5 4 0  29.25 4 0  30 4 0  30.75 4 0  31.5 4 0  32.25 4 0  33 4 0  33.75 4 0  34.5 4 0  35.25 4 0  36 4 0  36.75 4 0  37.5 4 0  38.25 4 0  39 4 0  39.75 4 0  40.5 4 0  41.25 4 0  42 4 0  42.75 4 0  43.5 4 0  44.25 4 0  45 4 0  45.75 4 0  46.5 4 0  47.25 4 0  48 4 0  48.75 4 0  49.5 4 0  50.25 4 0  51 4 0  51.75 4 0  52.5 4 0  53.25 4 0  54 4 0  54.75 4 0  55.5 4 0  56.25 4 0  57 4 0  57.75 4 0  58.5 4 0  59.25 4 0  60 4 0  0.375 0.25 0  1.125 0.25 0  1.875 0.25 0  2.625 0.25 0  3.375 0.25 0  4.125 0.25 0  4.875 0.25 0  5.625 0.25 0  6.375 0.25 0  7.125 0.25 0  7.875 0.25 0  8.625 0.25 0  9.375 0.25 0  10.125 0.25 0  10.875 0.25 0  11.625 0.25 0  12.375 0.25 0  13.125 0.25 0  13.875 0.25 0  14.625 0.25 0  15.375 0.25 0  16.125 0.25 0  16.875 0.25 0  17.625 0.25 0  18.375 0.25 0  19.125 0.25 0  19.875 0.25 0  20.625 0.25 0  21.375 0.25 0  22.125 0.25 0  22.875 0.25 0  23.625 0.25 0  24.375 0.25 0  25.125 0.25 0  25.875 0.25 0  26.625 0.25 0  27.375 0.25 0  28.125 0.25 0  28.875 0.25 0  29.625 0.25 0  30.375 0.25 0  31.125 0.25 0  31.875 0.25 0  32.625 0.25 0  33.375 0.25 0  34.125 0.25 0  34.875 0.25 0  35.625 0.25 0  36.375 0.25 0  37.125 0.25 0  37.875 0.25 0  38.625 0.25 0  39.375 0.25 0  40.125 0.25 0  40.875 0.25 0  41.625 0.25 0  42.375 0.25 0  43.125 0.25 0  43.875 0.25 0  44.625 0.25 0  45.375 0.25 0  46.125 0.25 0  46.875 0.25 0  47.625 0.25 0  48.375 0.25 0  49.125 0.25 0  49.875 0.25 0  50.625 0.25 0  51.375 0.25 0  52.125 0.25 0  52.875 0.25 0  53.625 0.25 0  54.375 0.25 0  55.125 0.25 0  55.875 0.25 0  56.625 0.25 0  57.375 0.25 0  58.125 0.25 0  58.875 0.25 0  59.625 0.25 0  0.375 0.75 0  1.125 0.75 0  1.875 0.75 0  2.625 0.75 0  3.375 0.75 0  4.125 0.75 0  4.875 0.75 0  5.625 0.75 0  6.375 0.75 0  7.125 0.75 0  7.875 0.75 0  8.625 0.75 0  9.375 0.75 0  10.125 0.75 0  10.875 0.75 0  11.625 0.75 0  12.375 0.75 0  13.125 0.75 0  13.875 0.75 0  14.625 0.75 0  15.375 0.75 0  16.125 0.75 0  16.875 0.75 0  17.625 0.75 0  18.375 0.75 0  19.125 0.75 0  19.875 0.75 0  20.625 0.75 0  21.375 0.75 0  22.125 0.75 0  22.875 0.75 0  23.625 0.75 0  24.375 0.75 0  25.125 0.75 0  25.875 0.75 0  26.625 0.75 0  27.375 0.75 0  28.125 0.75 0  28.875 0.75 0  29.625 0.75 0  30.375 0.75 0  31.125 0.75 0  31.875 0.75 0  32.625 0.75 0  33.375 0.75 0  34.125 0.75 0  34.875 0.75 0  35.625 0.75 0  36.375 0.75 0  37.125 0.75 0  37.875 0.75 0  38.625 0.75 0  39.375 0.75 0  40.125 0.75 0  40
[...]
<PointData  Scalars="f_8-1"> 
<DataArray  type="Float64"  Name="f_8-1"  format="ascii">5.0564389911958218e+09  -1.3197213138476744e+10  -6.8485609453986053e+09  1.4144512114990690e+09  8.5099058272577953e+08  7.8472140550347710e+09  1.9699599155997948e+10  4.7697624735783119e+09  2.0460392301639973e+10  2.8620992757903266e+09  5.5784799327127810e+09  2.2417937649703045e+09  1.6460093811063693e+09  1.1422392705904518e+10  5.3391678770471501e+08  3.3511207478628240e+09  -1.2306956886997744e+10  -2.8359110292102821e+10  -1.1650330856835190e+10  3.7492463593882179e+09  4.9377559904196758e+09  -1.5666255415512981e+10  -2.0939291573743893e+10  -3.4977196482306013e+09  -1.0102300634206701e+10  -6.8796083694846306e+09  -2.6028407871320166e+07  8.5282214311832256e+09  -1.7982161928286071e+09  1.9346405286674681e+09  1.1101474627257626e+10  5.3998415266606827e+09  4.3187872856773243e+09  2.3182211817894011e+09  1.2278995478829520e+09  -5.4935309143096578e+08  -6.0151988750697308e+09  3.5755340655104218e+09  2.8123307222885003e+09  -1.4243631551213907e+10  -2.7466307088243097e+08  4.5109264679080067e+09  3.9392067933460169e+09  -9.2904487032859635e+08  -1.3298702528873787e+09  -3.5519793923873892e+09  -5.3657682929269829e+09  -8.0778415856054592e+08  5.9311551863079286e+08  3.9475533558604321e+09  -3.6390629464374032e+09  3.6994873416695490e+09  9.7836178232325592e+09  1.3902640332472956e+10  -1.2341705632551813e+09  -2.9230500591049433e+09  2.7407084329376760e+09  -4.9740093154908924e+09  -6.4634181321373196e+09  9.0630876478593349e+09  1.0176197794365486e+10  -4.8280548495580940e+09  3.8897509124364128e+09  9.0656193503264313e+09  -4.3920686464009857e+09  5.4027577677683711e+08  -8.0932549870407104e+07  2.9819059032081342e+09  2.6689346843344455e+09  5.1184679987275009e+09  2.3451318845333853e+09  -5.1151434253993040e+08  1.0163785447524024e+09  -1.6615889419679976e+09  -1.5477530344591820e+08  -8.0917557214985892e+07  2.8756401090027690e+09  1.7746261463085494e+09  -1.2572082921465959e+08  9.7695478878556728e+08  -7.9684709499218380e+08  -3.2743932977271385e+09  -6.1564186899514513e+09  -3.1386209770542789e+09  -3.4855146714639969e+09  1.1752621956575262e+10  -5.5965761481445799e+09  1.5795553417636290e+10  9.5806528860968342e+09  8.6504340249268627e+09  2.4697969963980835e+10  -9.7411794085978127e+09  6.8467283655712378e+08  4.8011528977969074e+09  7.9049091979796410e+09  5.6887069495087824e+09  6.4085036779762602e+09  5.6124252969836025e+09  -2.0894154972088360e+10  -4.5095166959121220e+07  -6.4306074047385788e+09  3.3484462916958580e+09  -1.9346586129006344e+10  -1.5859359639148098e+10  -2.9466775426775746e+09  -6.0929058975531311e+09  -6.9655872710311902e+08  2.5619846266060481e+09  5.5398980295722141e+09  7.2022074485866871e+09  3.3701927563518721e+08  6.2668539905626335e+09  1.3532044094768271e+09  2.5496567469310546e+09  1.7567360735555725e+09  1.6947688549865232e+09  1.3396155046013768e+09  -2.6933320416197424e+09  -1.4002284383468482e+08  -3.3548265918194151e+09  1.8174368927580917e+09  1.1311668047050226e+09  4.5808281804162598e+09  3.3064544040032325e+09  1.9415825449456894e+09  1.5557543569960718e+09  -1.6480699240420024e+09  -1.0330585525284984e+09  -3.8701335198857039e+08  2.6660866190702305e+09  4.1039915775529943e+09  1.4762105468665729e+09  1.3559776045894585e+09  2.8524465858909297e+09  -3.9685089691812034e+09  7.1117270299302542e+08  -3.2633198549391813e+09  -6.7982934937565374e+08  6.1169469028915043e+09  -1.5080698646938610e+09  8.1715829454716787e+09  -2.3316032246403140e+08  -2.3681416446669607e+09  6.9156667528501396e+09  1.6409999460856392e+09  4.5207758113880482e+09  1.9979626790455170e+09  1.1519980173143067e+09  2.4189664989496055e+09  4.2371910355081701e+09  3.8911759574813733e+09  3.6376746349355474e+09  1.0724316555134575e+09  8.4700515326642811e+08  -1.1971907627139363e+09  4.4545392487257749e+08  9.2815223537974274e+08  1.1508063767086673e+09  -6.7422534462321448e+08  3.9678296874114335e+08  7.8427550418477523e+08  -6.1544735318454310e+07  -6.2388354499195709e+09  -4.9135027362949381e+09  -2.2942966968105803e+09  -2.9653627446920152e+09  7.0861921908973951e+09  7.1056834460088263e+09  3.3245771685230365e+09  1.0658146569675516e+10  2.8138083582130156e+09  1.2941183268855200e+10  1.7166725301120798e+10  6.5405482149593143e+09  -2.3223551637569156e+08  8.3433175108099976e+09  6.8789867765046701e+09  5.7918501777190609e+09  1.5900124943811991e+09  -6.2739780679472923e+09  -6.7288591825034365e+07  1.6375795334805441e+09  -1.1432101041292091e+10  -1.0329034958636778e+10  -1.2002342659338434e+10  -5.4208675493726168e+09  -3.5346745534847784e+09  -6.1435369098759489e+09  -1.5531295901512909e+09  2.2612692128947568e+09  -3.1511223219176002e+09  4.4713914535797052e+09  -1.8678267609251165e+09  -6.0347968388468361e+08  1.3361098534243269e+09  2.1953595659205627e+09  3.2598182404918408e+09  2.5691899205294390e+09  -6.9259669774770403e+09  9.7288290130138531e+09  -3.6547972830322022e+09  2.0779098370225489e+08  3.2466140659845052e+09  1.1594150223004444e+10  3.8471941521943550e+09  4.8412949953631220e+09  -6.1330898899765718e+08  6.6235158426537044e+07  -2.6147869166067481e+09  -2.0201826491578729e+09  1.5085192752628794e+09  -4.6386981603537267e+08  -2.1565134218366461e+09  -2.0134232715275517e+09  -7.4100415125042524e+09  -6.9449033309680271e+09  1.4565504060074308e+09  -2.2172758603241191e+09  -3.7708327723782806e+09  1.2659112211236014e+09  5.0703536030634317e+09  2.2758122195903058e+09  1.5990803270644398e+10  -7.3564603111824191e+08  2.2590438729164910e+09  2.6167997862715034e+09  2.0270744893989577e+09  3.2593279789149833e+09  3.7857773601313787e+09  1.5197835248043568e+09  2.6379844133101664e+09  3.9623081763151603e+09  2.0240915609810097e+09  -2.3921481275898534e+08  1.1798404081583178e+09  -1.2791240764240825e+09  -2.0537802577375156e+08  6.7498150629109955e+08  -1.0323382752130829e+09  -2.6327993724948582e+08  -4.4476057397845590e+08  -1.0518276897147099e+09  4.9296294450026876e+08  2.0108103364433568e+09  -1.1190510342518980e+10  -5.0113576663487587e+09  -1.5991502239518135e+09  4.2026922085968727e+08  4.4894901792924070e+08  1.0339833142535427e+09  6.1153316348155222e+09  -1.4063761233183491e+09  5.4611768014391623e+09  1.5750832778863754e+10  5.7461769318436842e+09  1.2466639427124405e+09  -3.0083021231031127e+09  1.1723761864578747e+10  4.2367568017832179e+09  -6.2328006425677185e+09  3.9168633509392462e+09  -1.3083488626880085e+10  -7.6205295061432552e+09  -7.4458539247101707e+09  -1.6858728822263666e+10  -3.6497589893426394e+09  -7.6083263401616936e+09  -6.0879984829924238e+08  -2.6788644820133185e+09  -4.3096444949626583e+08  -2.3241134565331521e+09  -4.1941994638746208e+08  2.0042209092872305e+09  -5.0271326735780106e+09  4.7358184054122000e+09  -1.5078989220933735e+08  -1.5585330698605213e+09  1.5616237463736603e+09  -9.6569587638945267e+07  2.2065162217773976e+09  4.2633816534967847e+09  -1.2144109984276500e+09  2.8677741023917027e+09  -4.5026712578435221e+09  2.0447679918930771e+09  1.5276052883674631e+09  3.6376881838099399e+09  2.0036847003816803e+09  1.5939126253521591e+08  -1.6001573440659111e+09  -4.8035158087854071e+09  1.7559374292245941e+09  9.5467346336164224e+08  -2.1191494521149702e+09  1.4370130656938515e+09  -3.6447094699100928e+09  -7.6833263656088591e+09  1.8531784366106718e+09  -4.0815927321047916e+09  -3.5489914525030488e+08  -7.1756234189041317e+08  -4.3440255788782990e+08  5.5848261012946568e+09  -1.6950141788911057e+08  3.1045659753516917e+09  4.2135764203426857e+09  3.8497397886204538e+09  7.0873093682355461e+09  3.3949776480079947e+09  4.2690790012474098e+09  -3.7404385098685372e+08  4.1305034195407519e+09  3.8446716684162116e+09  1.4227362332686782e+09  1.7292989046937401e+09  -2.9848276403434439e+09  -2.9194069884958043e+09  -1.5635143106240623e+09  -1.6085336724389088e+09  -1.8125756882936549e+09  -4.2264761574156165e+08  2.9468329910268575e+08  1.0843770951755302e+09  -8.0778435383389938e+08  1.6758347711774671e+09  8.0266330578583956e+08  -1.7057004496481864e+09  6.0732774957394350e+08  2.2341045636905260e+09  3.8529929591626716e+09  1.2538944272839067e+09  -2.0669924201509333e+08  4.2522226813700801e+08  1.0173522256228790e+09  1.3262243311742731e+10  6.8243643538688841e+09  2.4749775484038949e+09  8.0999929814164889e+08  5.3296668228623734e+09  3.4979395916259766e+09  2.8758043168282781e+09  -6.7777440449076490e+09  3.4656534422860203e+09  -2.2911238096630139e+09  -1.7778326481271519e+10  -9.8236735144716148e+09  -1.3979523046992738e+09  7.6108647435432792e+07  -4.2239823770799012e+09  -5.1910307515445668e+08  -1.0564178358750908e+09  3.9448962672945919e+09  -1.9966679212371290e+09  -7.0077330373597944e+08  3.6204582892545714e+09  -2.9944324497977757e+09  2.3598316739090514e+09  -6.5971998570869532e+09  -3.1710623059269100e+08  -5.4140348641265478e+09  2.0399345420867071e+09  2.2915515862261877e+09  2.3932262040708101e+08  1.1675613531797941e+09  -9.7444901997079515e+08  -7.4471697902490437e+07  3.6429790749224644e+09  4.5883939538903742e+09  -1.4492881332287984e+09  6.1674313167082384e+07  -7.0651371098146808e+08  -2.9360077825736203e+09  -7.6581676397235835e+08  9.4874802346100104e+08  -1.9925222682473657e+08  3.0735550930910001e+09  -1.9731901378326735e+09  -9.1973858007719193e+09  -5.3220546638638866e+08  -2.6407487452530546e+09  -1.0420436564287773e+09  -1.3140780894297848e+09  1.0545707294060961e+09  4.7643132489853106e+09  -6.6563512206956792e+08  2.4960956096017818e+09  -3.3906827294403720e+08  1.0872038725309971e+10  5.2260094323016253e+09  3.9806107583445878e+09  8.3544669793599310e+09  -4.4240110291883361e+08  1.3014341989338758e+09  3.7613351045466361e+09  2.8815204960512023e+09  4.8364036307229185e+09  5.5603211049609671e+09  -1.1822464456547236e+09  7.0022102565598083e+08  -2.4933832095941892e+09  -1.4279657462856066e+09  -9.0634983596434641e+08  -3.0952235215581566e+08  -9.4009584743333966e+07  1.1071598876631947e+09  -1.7245737948371131e+09  -2.1289858605106890e+09  3.0269097023592615e+08  3.2580176078018837e+09  3.7802432581222019e+09  2.1309108485417132e+09  6.8022769399065552e+09  -3.4806025257886875e+08  2.6937518533342280e+09  4.8682762864927320e+09  7.6061209529278622e+09  2.4221537903243623e+09  8.1885586450412369e+09  -2.8242929074110732e+09  3.6184892233820186e+09  6.8223460713438759e+09  -7.2629446395047426e+09  9.3097669993329849e+09  3.6456671445414000e+09  1.9388396909404910e+09  -8.0826897276110296e+09  -2.6563307796860585e+09  6.4992480418531191e+08  3.1359813439807997e+09  -2.8106709815774074e+09  5.8020891746802235e+08  -2.0216654203155937e+09  4.7219701873350534e+09  -2.0472136502539155e+09  4.4395278208632326e+09  9.7843597157181397e+07  -3.9783949531552548e+09  -2.7181706261857085e+09  -5.4951693667740736e+09  1.4287864810789237e+09  2.1641713905622482e+09  3.9373330874655366e+08  1.6739672513195169e+09  -2.7358124645685949e+09  -2.7980565178312212e+08  -6.0509252449743919e+09  2.5363942448432369e+09  7.6215118622253647e+09  2.6281932163137407e+09  2.9874669335132132e+09  2.8707596613851776e+09  -1.2946625679926913e+09  -1.6173660668072250e+09  -1.7675560844655917e+09  -1.8389393052394459e+08  1.7931635353324053e+09  2.2187008123852569e+08  -1.1192176053179290e+09  -2.5323863614565253e+09  -1.3713051683667545e+09  -4.0462764092590779e+08  -1.0432814602648097e+09  1.4271225757505379e+09  2.9864803268303719e+09  2.4281284276710825e+09  4.4178874248362226e+09  5.3258726011226578e+09  3.7808989294811072e+09  3.9133250380254421e+09  3.0365152682356129e+09  8.8268101175953846e+09  1.6884230390357320e+09  7.2722413073238063e+08  1.0369947372811311e+09  1.9928851384445727e+09  5.1574449989188251e+09  2.0754771963632503e+09  -4.2246278230111843e+08  2.6149475719072337e+09  6.0172274373916845e+09  1.4808539961504495e+08  -3.9599821068932849e+08  -2.3825691462929754e+09  -4.0865473496390188e+08  -5.1816537899924701e+08  5.5831746085170531e+08  4.0825411417957788e+09  -8.1477838646880474e+09  1.3887890966877265e+09  -7.4278536691521192e+08  4.6713443551657209e+09  3.7396284001125598e+09  1.9922678180696576e+09  -5.4739893834111106e+08  -3.6057389460092750e+09  -2.4533440632619491e+09  2.1705238180455236e+09  7.0619821753805647e+09  2.2068639933545737e+09  -2.7408444529678226e+09  3.9139927355780087e+09  6.1311669634002705e+09  9.3355393776885021e+08  -4.8356765868746328e+09  8.3112070493654575e+09  -1.5975874191542208e+10  -3.1530864450597376e+08  -3.1685649669055238e+09  2.1551178984887180e+09  1.9457626071263797e+09  -1.9669839394210072e+09  1.3622499205626686e+09  1.9010112833734897e+08  1.2562948388188291e+09  1.7414575670257372e+08  3.2582806198565364e+08  2.9482696359334245e+09  8.9694180441392269e+09  6.3433945374622822e+08  2.0568460928859052e+08  -4.5304415619566278e+09  5.8900102313581741e+08  2.3880293880397220e+09  -3.1522897640517731e+09  -6.2561597951775342e+07  -7.7180880096078548e+09  8.9509602026897705e+08  2.9329750560410595e+09  2.3234222760201702e+09  1.6110295384252031e+09  5.5865714245797949e+09  -2.4100227635149220e+08  -3.5330248463812337e+09  -7.6458426717489374e+08  -3.8753331013300934e+09  -2.4477155941613665e+09  -3.3342498542010224e+08  7.8243802582244503e+08  -1.4946412998663652e+09  -2.2250350393712831e+09  -9.9512642226265395e+08  -9.6860511656541467e+08  1.2107776924669070e+09  8.7225105395760226e+08  -7.1596790720236242e+08  1.6561291192297237e+09  1.7954865526626468e+09  4.2436799286997051e+09  3.4148915047098584e+09  1.5560564198042548e+09  2.1847121700835094e+09  3.8370623125177288e+09  1.4688762295982387e+09  -2.1889078195821795e+09  -1.5455595779411030e+09  -3.2269397541220455e+09  -1.6273578202405708e+09  1.4072921110401154e+09  5.9150189217617598e+09  1.5209429027026424e+08  -4.1078079871590006e+08  1.2340392322367575e+09  -1.0224352239072758e+09  -1.7115027239011507e+09  -8.6460149799937263e+07  1.0602875054140258e+08  -6.5883796444910622e+08  2.8783439899612217e+09  -1.0642478391057901e+09  3.2017026525732511e+08  7.5645543994084444e+09  -3.5968437739904175e+09  3.8474814184579206e+09  -6.3070041914882255e+08  -1.3288459954784288e+09  -2.5615212923967576e+09  2.2715527264649653e+09  -5.4929271224697351e+09  4.9523209709741592e+09  4.3932938960637398e+09  -1.3352981947514942e+09  1.5078557716760490e+09  4.8630019030046034e+08  -9.0294215237099552e+08  3.7536852445044374e+08  -8.4600680109194107e+09  -2.3773328326537900e+09  -1.1734850202411745e+08  1.7053400769226208e+09  3.7168623725628872e+09  1.5669259771432624e+09  3.0160045234145923e+09  5.7654621138403726e+08  -4.0683647717508597e+09  2.3798523419682741e+09  -2.7989622708308506e+09  -1.7377771950647061e+09  4.0025629236204491e+09  3.9387496662104459e+09  4.4406990060660803e+08  -4.0265156585081224e+09  1.5036688220496684e+08  8.1421527779147416e+07  7.7392739720662844e+08  2.4179527663158756e+08  -1.3851149928315482e+09  -5.8098207844080949e+08  -9.7135746494987655e+08  1.8490480700572278e+09  1.8432892406397557e+09  -9.9863040361581182e+08  1.2113788729638409e+07  3.3386694504526025e+08  -9.2665512598093033e+08  -3.0980544852397499e+09  -4.3232702512221727e+09  -8.9820344851268426e+07  -8.2133038079749537e+08  1.7498077829615631e+09  -4.8903654768178570e+08  -3.4057569586768727e+09  -2.9994949493380556e+09  -9.0628592492766511e+08  6.5160763170427442e+08  -4.4690748820373505e+08  6.1496851495528865e+08  9.9998418158074677e+08  1.5922024310762928e+09  2.4568468645667424e+09  -7.0094965201259792e+08  4.0962564838839591e+08  6.6324343946365995e+09  6.1028672289725285e+09  3.3324354587014570e+09  2.2778934073433776e+09  -7.4836448579772425e+08  7.4327472431695151e+08  -9.8247393007019615e+08  1.5769284835352349e+09  1.8018500567137861e+09  2.9406386967915902e+09  -4.9891546586250134e+07  -1.8539303711049485e+09  3.7498697286540146e+09  3.3166214145554023e+09  5.2270101794267309e+08  1.7852074017404333e+08  1.9788124303622304e+06  1.6711781752662220e+09  -1.3483255031768541e+09  2.7925710727717161e+09  -3.4812122335305748e+09  -4.6846212945472229e+08  -4.8225267581807405e+08  3.1656624123906606e+08  -8.9303492170933640e+08  -7.0114826252417564e+08  1.6395210367384028e+09  -6.3340216637096083e+08  6.6382428560324132e+08  -6.6619237229253376e+08  -1.9865301883519173e+09  1.2559162226736591e+09  -8.3960325543775547e+08  1.2289668894201739e+09  -7.6482130879590201e+08  7.2466841812556994e+08  9.9389695861832416e+08  -1.3808312960849888e+09  6.7077702369057965e+08  1.1099073137763307e+09  -4.7947811561662078e+08  7.4383405001619995e+08  8.0853123730179691e+08  -1.8079206752681048e+09  4.8831119290192932e+08  -4.6074401165265733e+08  -3.1758039710369778e+09  2.5050752013138041e+09  -9.9538411007931542e+08  1.2919847375569837e+09  4.1643146767403793e+08  4.6850089429107934e+08  1.6921771030030310e+09  -1.6703662863173398e+08  3.4616922342017156e+08  8.9769437518893465e+07  -1.7967706112547822e+09  -6.3778124591791070e+08  -3.9440541213393408e+08  2.1321806572347960e+09  1.5020521565957837e+07  2.4420101319246513e+08  1.3160978071724576e+08  5.3848318682113254e+08  -8.7888396380068314e+08  3.3445465562765589e+09  -8.0135810535896373e+08  2.4966568125696382e+08  4.0724340994730198e+08  -8.7529264361006343e+08  -5.9889561232029355e+08  -1.2203314623628047e+09  2.0277446561837950e+09  -2.6837585344919629e+07  -3.8812087620106894e+08  -7.3681982210154578e+07  -7.6726096402353668e+08  1.9171652691359633e+08  -5.6309065048596811e+08  9.3396352373077619e+08  -1.9715630851555598e+09  -1.3680124241035397e+09  2.6052641502893052e+09  2.7364100624799647e+09  -8.6884391251896429e+08  1.3379135266433654e+09  9.1863997277350199e+08  -1.7302950860111332e+08  3.8853473144752376e+07  -3.0161296958371961e+08  8.5343614052160358e+08  8.1525311362443137e+08  3.0829265972738087e+08  -3.3851759034500426e+08  2.5330486677429056e+09  1.1759366763455219e+09  -2.3984621216797638e+08  4.2544334478902316e+08  -3.3964684593010159e+09  -6.0408417930608139e+09  1.8250907994459286e+09  1.1413295646233892e+10  3.1039227798083167e+09  1.7156690139016937e+10  3.9474996847671881e+09  3.0919840822663941e+09  1.4851574845883318e+10  -8.8310272031390905e+08  1.8783376654245299e+08  8.3795284138914118e+09  4.4376008873512259e+09  5.8541607302386503e+09  5.4602170888153992e+09  -7.9732576553120041e+09  -3.8514158389697464e+10  -4.6714374338577118e+09  -1.9194268972451462e+10  -7.6799575767934160e+09  3.7441566027767644e+09  -2.2542204037894321e+10  -1.3569612836035540e+10  -1.0538308230501478e+10  -8.9236279472738495e+09  -5.6464727984936552e+09  9.2466096949405899e+09  3.6423675063538589e+09  -4.8893967802584515e+09  -4.8959762125908785e+09  5.7266172998920622e+09  4.9318190770466747e+09  6.1512603174150932e+08  1.5398167380237026e+09  3.5214633990018237e+08  -1.9146667863806999e+09  -2.0316957236168337e+09  -1.2407728605344458e+09  4.0779724237301469e+09  -1.9737885919609022e+09  4.8971760964505148e+09  6.0721880550870762e+09  -1.0243328206497997e+10  5.8455112058871422e+09  -2.0015385467093902e+09  -3.2861764918021929e+08  -4.2769183813479180e+09  4.5319789311419934e+07  5.4005596475917888e+08  3.7307880916681900e+09  5.7268609052927418e+09  6.9998579331730881e+09  1.2896517768041084e+10  8.0808464827609444e+09  -1.0003554560074293e+10  -1.8191422834955878e+09  -3.3340568094775572e+09  -5.1003916466682510e+09  -6.2422641944367104e+09  6.5282074802125893e+09  7.8403261843338785e+09  5.0330808053857851e+09  6.8471803382290964e+09  2.8884901490901623e+09  2.6325392497572422e+09  1.5270612036532090e+09  1.2459171206526670e+09  4.4025352155617285e+09  4.4446910209545412e+09  4.5129022510849390e+09  1.5602367245152073e+09  -6.1991008722078001e+08  6.3715701212844737e+06  -7.2841425113430333e+08  1.4387749209416169e+08  3.3259966095677495e+09  1.1890590687090638e+09  -9.5899194409692502e+08  1.9097238210628839e+09  -4.9171074048594987e+08  -8.4911867565075445e+09  -3.0915195501254902e+09  -2.4064724629137130e+09  -2.0840370453292136e+09  -6.5741431053582125e+09  1.6627752593617193e+10 