<?xml version="1.0"?>
<VTKFile type="UnstructuredGrid"  version="0.1"  >
<UnstructuredGrid>
<Piece  NumberOfPoints="1369" NumberOfCells="2560">
<Points>
<DataArray  type="Float64"  NumberOfComponents="3"  format="ascii">0 0 0  0.75 0 0  1.5 0 0  2.25 0 0  3 0 0  3.75 0 0  4.5 0 0  5.25 0 0  6 0 0  6.75 0 0  7.5 0 0  8.25 0 0  9 0 0  9.75 0 0  10.5 0 0  11.25 0 0  12 0 0  12.75 0 0  13.5 0 0  14.25 0 0  15 0 0  15.75 0 0  16.5 0 0  17.25 0 0  18 0 0  18.75 0 0  19.5 0 0  20.25 0 0  21 0 0  21.75 0 0  22.5 0 0  23.25 0 0  24 0 0  24.75 0 0  25.5 0 0  26.25 0 0  27 0 0  27.75 0 0  28.5 0 0  29.25 0 0  30 0 0  30.75 0 0  31.5 0 0  32.25 0 0  33 0 0  33.75 0 0  34.5 0 0  35.25 0 0  36 0 0  36.75 0 0  37.5 0 0  38.25 0 0  39 0 0  39.75 0 0  40.5 0 0  41.25 0 0  42 0 0  42.75 0 0  43.5 0 0  44.25 0 0  45 0 0  45.75 0 0  46.5 0 0  47.25 0 0  48 0 0  48.75 0 0  49.5 0 0  50.25 0 0  51 0 0  51.75 0 0  52.5 0 0  53.25 0 0  54 0 0  54.75 0 0  55.5 0 0  56.25 0 0  57 0 0  57.75 0 0  58.5 0 0  59.25 0 0  60 0 0  0 0.5 0  0.75 0.5 0  1.5 0.5 0  2.25 0.5 0  3 0.5 0  3.75 0.5 0  4.5 0.5 0  5.25 0.5 0  6 0.5 0  6.75 0.5 0  7.5 0.5 0  8.25 0.5 0  9 0.5 0  9.75 0.5 0  10.5 0.5 0  11.25 0.5 0  12 0.5 0  12.75 0.5 0  13.5 0.5 0  14.25 0.5 0  15 0.5 0  15.75 0.5 0  16.5 0.5 0  17.25 0.5 0  18 0.5 0  18.75 0.5 0  19.5 0.5 0  20.25 0.5 0  21 0.5 0  21.75 0.5 0  22.5 0.5 0  23.25 0.5 0  24 0.5 0  24.75 0.5 0  25.5 0.5 0  26.25 0.5 0  27 0.5 0  27.75 0.5 0  28.5 0.5 0  29.25 0.5 0  30 0.5 0  30.75 0.5 0  31.5 0.5 0  32.25 0.5 0  33 0.5 0  33.75 0.5 0  34.5 0.5 0  35.25 0.5 0  36 0.5 0  36.75 0.5 0  37.5 0.5 0  38.25 0.5 0  39 0.5 0  39.75 0.5 0  40.5 0.5 0  41.25 0.5 0  42 0.5 0  42.75 0.5 0  43.5 0.5 0  44.25 0.5 0  45 0.5 0  45.75 0.5 0  46.5 0.5 0  47.25 0.5 0  48 0.5 0  48.75 0.5 0  49.5 0.5 0  50.25 0.5 0  51 0.5 0  51.75 0.5 0  52.5 0.5 0  53.25 0.5 0  54 0.5 0  54.75 0.5 0  55.5 0.5 0  56.25 0.5 0  57 0.5 0  57.75 0.5 0  58.5 0.5 0  59.25 0.5 0  60 0.5 0  0 1 0  0.75 1 0  1.5 1 0  2.25 1 0  3 1 0  3.75 1 0  4.5 1 0  5.25 1 0  6 1 0  6.75 1 0  7.5 1 0  8.25 1 0  9 1 0  9.75 1 0  10.5 1 0  11.25 1 0  12 1 0  12.75 1 0  13.5 1 0  14.25 1 0  15 1 0  15.75 1 0  16.5 1 0  17.25 1 0  18 1 0  18.75 1 0  19.5 1 0  20.25 1 0  21 1 0  21.75 1 0  22.5 1 0  23.25 1 0  24 1 0  24.75 1 0  25.5 1 0  26.25 1 0  27 1 0  27.75 1 0  28.5 1 0  29.25 1 0  30 1 0  30.75 1 0  31.5 1 0  32.25 1 0  33 1 0  33.75 1 0  34.5 1 0  35.25 1 0  36 1 0  36.75 1 0  37.5 1 0  38.25 1 0  39 1 0  39.75 1 0  40.5 1 0  41.25 1 0  42 1 0  42.75 1 0  43.5 1 0  44.25 1 0  45 1 0  45.75 1 0  46.5 1 0  47.25 1 0  48 1 0  48.75 1 0  49.5 1 0  50.25 1 0  51 1 0  51.75 1 0  52.5 1 0  53.25 1 0  54 1 0  54.75 1 0  55.5 1 0  56.25 1 0  57 1 0  57.75 1 0  58.5 1 0  59.25 1 0  60 1 0  0 1.5 0  0.75 1.5 0  1.5 1.5 0  2.25 1.5 0  3 1.5 0  3.75 1.5 0  4.5 1.5 0  5.25 1.5 0  6 1.5 0  6.75 1.5 0  7.5 1.5 0  8.25 1.5 0  9 1.5 0  9.75 1.5 0  10.5 1.5 0  11.25 1.5 0  12 1.5 0  12.75 1.5 0  13.5 1.5 0  14.25 1.5 0  15 1.5 0  15.75 1.5 0  16.5 1.5 0  17.25 1.5 0  18 1.5 0  18.75 1.5 0  19.5 1.5 0  20.25 1.5 0  21 1.5 0  21.75 1.5 0  22.5 1.5 0  23.25 1.5 0  24 1.5 0  24.75 1.5 0  25.5 1.5 0  26.25 1.5 0  27 1.5 0  27.75 1.5 0  28.5 1.5 0  29.25 1.5 0  30 1.5 0  30.75 1.5 0  31.5 1.5 0  32.25 1.5 0  33 1.5 0  33.75 1.5 0  34.5 1.5 0  35.25 1.5 0  36 1.5 0  36.75 1.5 0  37.5 1.5 0  38.25 1.5 0  39 1.5 0  39.75 1.5 0  40.5 1.5 0  41.25 1.5 0  42 1.5 0  42.75 1.5 0  43.5 1.5 0  44.25 1.5 0  45 1.5 0  45.75 1.5 0  46.5 1.5 0  47.25 1.5 0  48 1.5 0  48.75 1.5 0  49.5 1.5 0  50.25 1.5 0  51 1.5 0  51.75 1.5 0  52.5 1.5 0  53.25 1.5 0  54 1.5 0  54.75 1.5 0  55.5 1.5 0  56.25 1.5 0  57 1.5 0  57.75 1.5 0  58.5 1.5 0  59.25 1.5 0  60 1.5 0  0 2 0  0.75 2 0  1.5 2 0  2.25 2 0  3 2 0  3.75 2 0  4.5 2 0  5.25 2 0  6 2 0  6.75 2 0  7.5 2 0  8.25 2 0  9 2 0  9.75 2 0  10.5 2 0  11.25 2 0  12 2 0  12.75 2 0  13.5 2 0  14.25 2 0  15 2 0  15.75 2 0  16.5 2 0  17.25 2 0  18 2 0  18.75 2 0  19.5 2 0  20.25 2 0  21 2 0  21.75 2 0  22.5 2 0  23.25 2 0  24 2 0  24.75 2 0  25.5 2 0  26.25 2 0  27 2 0  27.75 2 0  28.5 2 0  29.25 2 0  30 2 0  30.75 2 0  31.5 2 0  32.25 2 0  33 2 0  33.75 2 0  34.5 2 0  35.25 2 0  36 2 0  36.75 2 0  37.5 2 0  38.25 2 0  39 2 0  39.75 2 0  40.5 2 0  41.25 2 0  42 2 0  42.75 2 0  43.5 2 0  44.25 2 0  45 2 0  45.75 2 0  46.5 2 0  47.25 2 0  48 2 0  48.75 2 0  49.5 2 0  50.25 2 0  51 2 0  51.75 2 0  52.5 2 0  53.25 2 0  54 2 0  54.75 2 0  55.5 2 0  56.25 2 0  57 2 0  57.75 2 0  58.5 2 0  59.25 2 0  60 2 0  0 2.5 0  0.75 2.5 0  1.5 2.5 0  2.25 2.5 0  3 2.5 0  3.75 2.5 0  4.5 2.5 0  5.25 2.5 0  6 2.5 0  6.75 2.5 0  7.5 2.5 0  8.25 2.5 0  9 2.5 0  9.75 2.5 0  10.5 2.5 0  11.25 2.5 0  12 2.5 0  12.75 2.5 0  13.5 2.5 0  14.25 2.5 0  15 2.5 0  15.75 2.5 0  16.5 2.5 0  17.25 2.5 0  18 2.5 0  18.75 2.5 0  19.5 2.5 0  20.25 2.5 0  21 2.5 0  21.75 2.5 0  22.5 2.5 0  23.25 2.5 0  24 2.5 0  24.75 2.5 0  25.5 2.5 0  26.25 2.5 0  27 2.5 0  27.75 2.5 0  28.5 2.5 0  29.25 2.5 0  30 2.5 0  30.75 2.5 0  31.5 2.5 0  32.25 2.5 0  33 2.5 0  33.75 2.5 0  34.5 2.5 0  35.25 2.5 0  36 2.5 0  36.75 2.5 0  37.5 2.5 0  38.25 2.5 0  39 2.5 0  39.75 2.5 0  40.5 2.5 0  41.25 2.5 0  42 2.5 0  42.75 2.5 0  43.5 2.5 0  44.25 2.5 0  45 2.5 0  45.75 2.5 0  46.5 2.5 0  47.25 2.5 0  48 2.5 0  48.75 2.5 0  49.5 2.5 0  50.25 2.5 0  51 2.5 0  51.75 2.5 0  52.5 2.5 0  53.25 2.5 0  54 2.5 0  54.75 2.5 0  55.5 2.5 0  56.25 2.5 0  57 2.5 0  57.75 2.5 0  58.5 2.5 0  59.25 2.5 0  60 2.5 0  0 3 0  0.75 3 0  1.5 3 0  2.25 3 0  3 3 0  3.75 3 0  4.5 3 0  5.25 3 0  6 3 0  6.75 3 0  7.5 3 0  8.25 3 0  9 3 0  9.75 3 0  10.5 3 0  11.25 3 0  12 3 0  12.75 3 0  13.5 3 0  14.25 3 0  15 3 0  15.75 3 0  16.5 3 0  17.25 3 0  18 3 0  18.75 3 0  19.5 3 0  20.25 3 0  21 3 0  21.75 3 0  22.5 3 0  23.25 3 0  24 3 0  24.75 3 0  25.5 3 0  26.25 3 0  27 3 0  27.75 3 0  28.5 3 0  29.25 3 0  30 3 0  30.75 3 0  31.5 3 0  32.25 3 0  33 3 0  33.75 3 0  34.5 3 0  35.25 3 0  36 3 0  36.75 3 0  37.5 3 0  38.25 3 0  39 3 0  39.75 3 0  40.5 3 0  41.25 3 0  42 3 0  42.75 3 0  43.5 3 0  44.25 3 0  45 3 0  45.75 3 0  46.5 3 0  47.25 3 0  48 3 0  48.75 3 0  49.5 3 0  50.25 3 0  51 3 0  51.75 3 0  52.5 3 0  53.25 3 0  54 3 0  54.75 3 0  55.5 3 0  56.25 3 0  57 3 0  57.75 3 0  58.5 3 0  59.25 3 0  60 3 0  0 3.5 0  0.75 3.5 0  1.5 3.5 0  2.25 3.5 0  3 3.5 0  3.75 3.5 0  4.5 3.5 0  5.25 3.5 0  6 3.5 0  6.75 3.5 0  7.5 3.5 0  8.25 3.5 0  9 3.5 0  9.75 3.5 0  10.5 3.5 0  11.25 3.5 0  12 3.5 0  12.75 3.5 0  13.5 3.5 0  14.25 3.5 0  15 3.5 0  15.75 3.5 0  16.5 3.5 0  17.25 3.5 0  18 3.5 0  18.75 3.5 0  19.5 3.5 0  20.25 3.5 0  21 3.5 0  21.75 3.5 0  22.5 3.5 0  23.25 3.5 0  24 3.5 0  24.75 3.5 0  25.5 3.5 0  26.25 3.5 0  27 3.5 0  27.75 3.5 0  28.5 3.5 0  29.25 3.5 0  30 3.5 0  30.75 3.5 0  31.5 3.5 0  32.25 3.5 0  33 3.5 0  33.75 3.5 0  34.5 3.5 0  35.25 3.5 0  36 3.5 0  36.75 3.5 0  37.5 3.5 0  38.25 3.5 0  39 3.5 0  39.75 3.5 0  40.5 3.5 0  41.25 3.5 0  42 3.5 0  42.75 3.5 0  43.5 3.5 0  44.25 3.5 0  45 3.5 0  45.75 3.5 0  46.5 3.5 0  47.25 3.5 0  48 3.5 0  48.75 3.5 0  49.5 3.5 0  50.25 3.5 0  51 3.5 0  51.75 3.5 0  52.5 3.5 0  53.25 3.5 0  54 3.5 0  54.75 3.5 0  55.5 3.5 0  56.25 3.5 0  57 3.5 0  57.75 3.5 0  58.5 3.5 0  59.25 3.5 0  60 3.5 0  0 4 0  0.75 4 0  1.5 4 0  2.25 4 0  3 4 0  3.75 4 0  4.5 4 0  5.25 4 0  6 4 0  6.75 4 0  7.5 4 0  8.25 4 0  9 4 0  9.75 4 0  10.5 4 0  11.25 4 0  12 4 0  12.75 4 0  13.5 4 0  14.25 4 0  15 4 0  15.75 4 0  16.5 4 0  17.25 4 0  18 4 0  18.75 4 0  19.5 4 0  20.25 4 0  21 4 0  21.75 4 0  22.5 4 0  23.25 4 0  24 4 0  24.75 4 0  25.5 4 0  26.25 4 0  27 4 0  27.75 4 0  28.5 4 0  29.25 4 0  30 4 0  30.75 4 0  31.5 4 0  32.25 4 0  33 4 0  33.75 4 0  34.5 4 0  35.25 4 0  36 4 0  36.75 4 0  37.5 4 0  38.25 4 0  39 4 0  39.75 4 0  40.5 4 0  41.25 4 0  42 4 0  42.75 4 0  43.5 4 0  44.25 4 0  45 4 0  45.75 4 0  46.5 4 0  47.25 4 0  48 4 0  48.75 4 0  49.5 4 0  50.25 4 0  51 4 0  51.75 4 0  52.5 4 0  53.25 4 0  54 4 0  54.75 4 0  55.5 4 0  56.25 4 0  57 4 0  57.75 4 0  58.5 4 0  59.25 4 0  60 4 0  0.375 0.25 0  1.125 0.25 0  1.875 0.25 0  2.625 0.25 0  3.375 0.25 0  4.125 0.25 0  4.875 0.25 0  5.625 0.25 0  6.375 0.25 0  7.125 0.25 0  7.875 0.25 0  8.625 0.25 0  9.375 0.25 0  10.125 0.25 0  10.875 0.25 0  11.625 0.25 0  12.375 0.25 0  13.125 0.25 0  13.875 0.25 0  14.625 0.25 0  15.375 0.25 0  16.125 0.25 0  16.875 0.25 0  17.625 0.25 0  18.375 0.25 0  19.125 0.25 0  19.875 0.25 0  20.625 0.25 0  21.375 0.25 0  22.125 0.25 0  22.875 0.25 0  23.625 0.25 0  24.375 0.25 0  25.125 0.25 0  25.875 0.25 0  26.625 0.25 0  27.375 0.25 0  28.125 0.25 0  28.875 0.25 0  29.625 0.25 0  30.375 0.25 0  31.125 0.25 0  31.875 0.25 0  32.625 0.25 0  33.375 0.25 0  34.125 0.25 0  34.875 0.25 0  35.625 0.25 0  36.375 0.25 0  37.125 0.25 0  37.875 0.25 0  38.625 0.25 0  39.375 0.25 0  40.125 0.25 0  40.875 0.25 0  41.625 0.25 0  42.375 0.25 0  43.125 0.25 0  43.875 0.25 0  44.625 0.25 0  45.375 0.25 0  46.125 0.25 0  46.875 0.25 0  47.625 0.25 0  48.375 0.25 0  49.125 0.25 0  49.875 0.25 0  50.625 0.25 0  51.375 0.25 0  52.125 0.25 0  52.875 0.25 0  53.625 0.25 0  54.375 0.25 0  55.125 0.25 0  55.875 0.25 0  56.625 0.25 0  57.375 0.25 0  58.125 0.25 0  58.875 0.25 0  59.625 0.25 0  0.375 0.75 0  1.125 0.75 0  1.875 0.75 0  2.625 0.75 0  3.375 0.75 0  4.125 0.75 0  4.875 0.75 0  5.625 0.75 0  6.375 0.75 0  7.125 0.75 0  7.875 0.75 0  8.625 0.75 0  9.375 0.75 0  10.125 0.75 0  10.875 0.75 0  11.625 0.75 0  12.375 0.75 0  13.125 0.75 0  13.875 0.75 0  14.625 0.75 0  15.375 0.75 0  16.125 0.75 0  16.875 0.75 0  17.625 0.75 0  18.375 0.75 0  19.125 0.75 0  19.875 0.75 0  20.625 0.75 0  21.375 0.75 0  22.125 0.75 0  22.875 0.75 0  23.625 0.75 0  24.375 0.75 0  25.125 0.75 0  25.875 0.75 0  26.625 0.75 0  27.375 0.75 0  28.125 0.75 0  28.875 0.75 0  29.625 0.75 0  30.375 0.75 0  31.125 0.75 0  31.875 0.75 0  32.625 0.75 0  33.375 0.75 0  34.125 0.75 0  34.875 0.75 0  35.625 0.75 0  36.375 0.75 0  37.125 0.75 0  37.875 0.75 0  38.625 0.75 0  39.375 0.75 0  40.125 0.75 0  40
[...]
<PointData  Scalars="f_8-1"> 
<DataArray  type="Float64"  Name="f_8-1"  format="ascii">2.8788332110168541e+10  2.9234542561851416e+11  -9.5033757348258514e+09  -1.6081965104059323e+11  -4.3741642581202881e+10  1.5027294294502173e+11  7.0379065915384277e+10  5.6718195633504028e+10  -8.6088654564507580e+08  1.4107021541967203e+11  1.4038157096995953e+11  9.0975098463319645e+09  -1.5315842641162991e+10  1.9331255768823163e+11  6.5299317746252762e+10  6.9206776546279984e+10  1.5074529161987216e+11  2.5398600365651646e+10  -5.0659625903230743e+10  2.9060495135465460e+09  7.2534615234041931e+10  1.0424928010816878e+11  -2.5425584149645435e+10  1.7328718246133380e+09  5.4967267719432938e+10  3.5379787549383568e+10  3.0258109524182465e+10  9.6881285439323929e+10  1.3952150056406839e+11  -4.3893698816823662e+10  2.0460159076398907e+10  1.2328701352468130e+10  7.5599322110562180e+10  1.0322216772088275e+11  -4.3427972613588982e+10  -1.3842751413296738e+11  -9.6565008835018463e+09  3.1816936129874939e+10  1.1382467844829222e+10  -5.3445850595909088e+11  -1.5069513516649127e+11  -1.8473289220743973e+11  -4.9546214515193506e+11  -3.3773640682621136e+11  -3.2116373873128168e+11  -7.4453637263665664e+08  -3.4954623532407494e+10  6.0397034292534500e+10  -2.9743736741238287e+11  1.3302134570804070e+11  -4.4590608635143750e+11  6.7612423591728992e+11  2.0200958682760147e+11  1.2486131145147308e+11  2.0250382270607043e+11  3.2164073364103766e+11  1.9410187828434671e+11  3.2061230453293030e+11  2.8498171897033948e+11  -2.7166059235891346e+10  3.1790656226157207e+10  -6.5115283058740466e+11  -3.3348502356247406e+11  8.5087736167895172e+10  6.3050314631238623e+11  1.2134101009074469e+11  -8.4469345087801498e+10  -7.7648958961934204e+10  2.1693448718456091e+11  4.6101338666840393e+11  5.9865909459467688e+11  2.7065034753474353e+11  3.6838572875456915e+11  -9.9100609416016296e+10  5.5550494029305212e+11  4.6817350824291840e+11  8.9156276619796130e+11  4.9657322153066730e+11  2.9658231686404492e+11  3.8684059069169000e+11  1.8882212162748404e+11  3.7658150166698022e+09  -2.7484128669139981e+11  -1.8423705905008914e+11  -9.1986785328752045e+10  5.7279702615515780e+08  1.8788382758799057e+11  8.9616901730672729e+10  3.1742791143419029e+10  4.8580245297306287e+08  1.1872936874368175e+11  8.7653510751271683e+10  -3.6336444883779297e+09  9.0026963809226303e+10  8.3840134250691437e+10  3.4157124111130859e+10  1.0261613853998129e+11  7.0716340909565002e+10  1.3228679759879274e+10  4.9424935434769554e+09  6.1505255653134659e+10  1.5949658586194760e+11  9.1616927678413345e+10  -1.9450390673778099e+10  1.8668323338479752e+10  3.8882591777235718e+10  4.2216459563364983e+10  2.8242121731251839e+10  2.3303069509997092e+11  1.1717763312867781e+10  -1.0589190645321016e+11  -7.0492582235066957e+09  3.2693184241497723e+10  -1.6704040132373568e+10  -4.3496255539576988e+10  -1.0661644289044408e+11  -1.5594926589965063e+11  -7.3758258497013870e+10  -9.2364987781529556e+10  -6.3742505201157974e+10  -2.5462975939889484e+11  -1.2806580711820564e+11  -4.0513434938291150e+11  -1.6600024227740802e+11  -2.4766697168952319e+11  -1.1087928245439121e+12  -3.0674608678967953e+09  1.9126396334401022e+11  1.1901450611978517e+11  -2.2853057964462601e+10  -1.4787514676567673e+11  1.4539078226456067e+11  2.6907964720622668e+11  9.4205317131526184e+10  4.2326500692084050e+09  2.3381473171201617e+11  2.2393507482948557e+11  1.1736003441612300e+11  2.5772443346753497e+11  3.1361811712872284e+11  3.6792585603483559e+10  -3.8119398497488519e+11  5.2398735390434052e+10  -4.9273873139424500e+10  -2.9962624793740942e+11  -1.4282128013102832e+11  2.3970053411207205e+11  3.4539895825960938e+10  -6.1518255656944473e+10  1.3588277934320811e+11  2.8098760884253162e+11  4.7922531878835590e+11  7.1019362415651331e+11  7.8499975339090527e+11  -4.8507275559468376e+10  4.6282141476671393e+11  5.3765818021490771e+11  -9.8286194372897354e+10  2.8669378364526013e+11  1.1912214647900334e+11  4.0833057005450970e+11  1.6731499900687483e+10  -5.2870640582737007e+09  -2.3236810009536152e+10  -1.1882776931564476e+11  -7.6796178923576843e+10  -4.8988814996329903e+10  9.0735751126805939e+10  6.0158172310812027e+10  1.0833284268427626e+11  6.2042434659027725e+10  -4.5935421511218552e+10  9.3735349170741287e+10  2.1325668194299475e+11  7.1815705556640434e+09  3.7527645694967133e+10  2.0184183650491702e+11  1.3435592029755415e+11  2.8420799082476299e+10  6.8657358785522270e+10  6.9774852811456802e+10  4.2860964016854004e+10  9.3503307533253174e+10  1.1980269945443083e+11  8.0178152796973448e+09  -3.5277270600672264e+10  6.2935604672023933e+10  3.9628887461852066e+10  3.1055311654664330e+10  1.4856258858670325e+11  9.5134965073876587e+10  -6.4516654878330193e+10  -5.3862480460291641e+10  4.0894189409168811e+09  2.4423506111889324e+09  -1.7933293933149372e+10  -1.3739559084623151e+11  -1.7124880585425102e+10  2.4989711439967319e+10  -6.1364252093597778e+10  -1.6360565053544003e+11  -4.9896000109303612e+10  -7.4266091309816345e+10  1.8906183564713348e+11  1.1979172942151634e+11  -1.1675302226428707e+10  6.7661155775118454e+10  -3.7260791891512720e+11  2.4686277237422562e+11  -3.8462551634905838e+10  -4.4133775081534073e+10  -4.0061730627582531e+09  -2.3402164644669055e+11  2.1876398385093048e+11  -8.8152668574704533e+09  -4.7823761845486841e+09  2.0081571706166171e+11  1.0398259330943263e+11  3.1593871277481635e+11  -1.6745665283658044e+11  3.8617393585849725e+11  -7.6038747213045319e+10  -9.6299452094328796e+10  -2.4725748486416553e+11  9.3303055645558380e+10  -4.2262868542903003e+11  1.2007147747279926e+11  9.2227478024121857e+09  1.0638329311632808e+11  1.7479683221929660e+11  -7.9118936670765138e+08  1.2341973902069489e+11  3.7418947685899017e+11  9.7795726908008679e+11  6.2342276376031079e+11  3.6055529224980035e+11  2.2800345710096692e+11  3.0497694047159753e+11  -1.8255895953084602e+10  1.6405629373821466e+11  2.1681019100467456e+11  3.5694810355425122e+11  -9.7537831859546700e+09  -9.4667988927128620e+09  -5.8350744277123404e+09  -8.5274477995397812e+10  -7.8457787768314468e+10  1.0501522309390694e+10  9.9844088852397171e+10  1.0958050393564934e+11  7.3508488785616592e+10  2.5223191545534153e+10  9.0637546451572388e+10  3.3622559139656334e+10  1.1374502224919829e+11  5.4352315816107544e+10  1.1002760910853862e+11  1.7614628651440897e+11  1.7789319083748410e+11  9.9226157883763931e+10  -8.4021943911908569e+10  8.5205973659859848e+10  8.9796680867639252e+10  8.8449499169807709e+10  1.3249397304429631e+11  -3.5498681108041458e+10  4.0772028872673012e+10  9.5659131293855301e+10  1.1417229972547252e+11  2.2835930087667484e+10  6.9985328553146698e+10  1.2702752783630042e+11  -1.4503021029379025e+10  -4.9837407719689590e+10  1.3062857108197683e+10  -9.0441118864155579e+09  -9.1805776275840912e+10  -9.7158830878061340e+10  -4.4895990956016068e+10  9.2253931186019760e+10  -9.7652934850095612e+10  -6.7373055745322281e+10  4.4276068673274818e+10  -4.2901375591640070e+11  -1.6457136384708942e+11  -1.9656656498524963e+11  1.2341788246785046e+11  2.0441014737732809e+11  -4.7581830322295799e+10  2.3806155186229871e+11  -3.6241988110227972e+11  2.6231200536089516e+10  -2.2287688160814227e+11  1.7713989116302844e+11  1.9836349019207974e+11  2.4684427409132236e+11  6.6813567012616997e+10  2.0207335287284293e+11  -2.7310025632245590e+10  2.5433091257636740e+11  3.0964920168018890e+11  8.3598662138376236e+10  9.2638128088375412e+10  -1.7688419526219510e+11  -1.7600326413832275e+11  9.4131070675034409e+10  -6.3462368522481133e+10  9.5541970881219955e+10  -2.1348082758464874e+11  1.0044364146844656e+10  -1.5707305060327051e+11  4.4280477500420551e+11  -5.0008023678911972e+10  5.6376333942879004e+11  7.2257157809835010e+11  7.2447897758633875e+11  2.0179357606807297e+11  1.5186168782766223e+11  7.1665694388319312e+11  2.1304460144177121e+11  9.8460105869391537e+08  2.8811514344963483e+11  6.1485926982486275e+10  -7.0608363605187588e+09  1.3728393215516266e+10  -1.6479538770850592e+10  -5.8196478992321396e+10  -6.9143624711681427e+10  1.0065118104528735e+11  -3.7176483175766487e+10  -5.1868125346467567e+10  1.2463276178099049e+11  1.3427107704761157e+11  1.0797800170585172e+11  6.0415935606377754e+10  -1.0551537379666504e+10  7.4493387136908783e+10  2.2819436267344536e+10  1.1046805308067322e+11  1.8263645027694424e+11  9.2878803764832886e+10  3.1302363737498581e+10  2.1822343641934250e+10  1.2684769968356285e+11  9.3129609631762161e+10  6.3761276048071655e+10  4.4354353463161148e+10  1.4248884086875510e+11  1.4237257897158185e+11  2.2365426514479069e+10  9.1565670935244766e+10  8.8067915085780716e+10  8.4609738839192993e+10  2.9939691276277817e+10  3.5825931377572899e+10  1.9600577458812485e+10  -3.7439166833109886e+10  2.8036537956116795e+10  -5.6858184776459480e+10  -2.7807501071887341e+10  -2.7414858538439373e+10  -3.6813378379096535e+10  -1.4057361855397437e+11  -1.3640625455489024e+11  -1.2101817528534920e+11  8.2327090622773911e+10  1.2076541569956340e+11  2.2706717619592685e+11  -4.9856549875018494e+10  -4.9387974606523727e+10  2.5551748641441626e+11  -2.7934009701541382e+11  1.8208041986108514e+11  -8.6340152503388474e+10  2.0545488879204993e+11  2.7656561116356360e+11  8.8946800582467499e+10  5.2593307277439423e+11  1.3160399479144879e+11  2.9146330561933636e+11  -6.1096465947841705e+10  2.9849342507700281e+11  -1.7035403426005505e+11  -1.5930737016843478e+11  1.6601209523285016e+11  4.0540523380995232e+10  1.5970240164858124e+11  3.6129298175316528e+10  1.7985334682947513e+11  3.6076955872409711e+11  2.4608643348920399e+10  7.0569428291845123e+10  -4.9609793260880875e+10  -2.0252717973482104e+11  4.4686830069699744e+11  3.4038537919954132e+11  4.6102996506611847e+11  3.4340290998060089e+11  3.0333486134301904e+11  2.7842645010836853e+11  4.5268648207460956e+11  9.5089220147962982e+10  -6.2516705684862068e+10  1.3958034782064841e+11  -4.0968958267514587e+10  7.4690779346646929e+08  4.3856106284926880e+10  5.7996318301960442e+10  -9.1548648982738342e+10  -5.1289390772833366e+10  1.3911876444556238e+11  -2.1023251993567230e+10  6.5153106173859879e+10  6.3508562157741417e+10  5.2454163573530853e+10  7.2100123788168457e+10  2.1248727876516117e+10  3.2622218580944622e+10  4.4444820120402008e+10  2.9188690414898079e+10  8.5580766928332458e+10  -2.6095061985601032e+10  2.1939580750317540e+09  5.4272226186982780e+10  9.8845202306459641e+10  1.1834211881907811e+11  5.3356925886106430e+10  7.6829422082393936e+10  -7.9370850226023846e+09  8.2922764367500702e+10  -3.5492714089069061e+10  -3.4017985497074669e+10  6.0243075685018074e+10  -2.1685830567626514e+10  2.3108101988492729e+10  4.0748159066014390e+09  8.2212764288968155e+10  -1.1078183667235687e+10  -1.8843678958223862e+10  -1.1325410947535242e+11  -4.7175150249400681e+10  -7.4995532429062119e+10  -3.7540201067485794e+10  -1.0502918185450526e+11  -1.1866482173502556e+11  -2.6320724308414337e+11  -6.7224833677394524e+10  1.4794078071794333e+11  1.5013760409023041e+11  1.3568039435249036e+11  -3.0936803866658008e+11  1.8260397053901465e+09  -1.6828261344249094e+11  1.2565092668075447e+11  -1.1244782390743420e+10  2.3828550568085675e+11  7.9048701992598770e+10  1.0147341144929420e+11  1.4817907409954102e+11  1.3677314191783110e+11  2.1553801562302924e+11  3.2277272721018958e+11  8.3289273598244553e+10  4.0075223878869885e+11  -1.4816528959933377e+11  -2.6873503985134750e+11  -2.4032302720169885e+11  -2.5124915726856302e+11  3.1074010100754181e+11  7.0364904342283783e+10  -1.7648564235632693e+11  -3.9015367403628090e+10  -1.4053640455748605e+11  1.4433168800890698e+11  -8.6129634884444061e+10  3.5972572877156116e+11  2.8597524437657147e+11  4.0183652023328296e+11  -2.8849189146638403e+11  1.3403355308946997e+11  4.3887229437692785e+09  9.0398153155029639e+11  6.2044402581757133e+10  -3.4394320356726294e+11  1.2054375885796184e+11  -1.0560452142970241e+11  7.4990126730533543e+09  1.4731758732140079e+10  9.2595971397896500e+10  -1.0892692500559776e+11  5.2534510067257774e+10  1.1912558768584715e+11  -3.0386838192819618e+10  1.6359951637607642e+11  4.4413585600085983e+10  3.6816596457117290e+09  7.2009167242610474e+10  -3.2890678849926358e+08  1.6230360187398779e+10  3.8711463093224213e+10  -4.5803605029791145e+09  -1.4503060467627695e+10  8.7882098934958243e+08  2.2988477126558784e+10  6.6344570599459579e+10  9.4252372412400360e+10  5.2147387682689888e+10  2.9830768687843323e+10  -1.1918227917627813e+10  4.8302136909438944e+09  -9.8048939479722919e+09  2.2343444341257072e+10  9.7415293735294609e+09  -5.0670476868596327e+08  2.7375526895687374e+10  -4.9961886929863113e+10  2.8344490584500702e+10  -3.0668130633323418e+10  5.3304644855922607e+10  -5.9194578862467804e+10  -9.3914294473151184e+10  -3.5917611669082306e+10  -4.1276807068622398e+10  -8.5635701920940857e+09  -1.4303543453482473e+09  7.5478190360961441e+10  -1.4465490623242221e+11  -1.7083057429204828e+11  7.7718408094719055e+10  -3.3503514848741882e+11  2.5597146135251663e+11  2.4197322103308846e+10  1.1830578549358278e+11  1.6802153516473334e+11  2.9095882743437964e+11  7.0734860571762177e+10  6.6911526233791351e+10  5.8875882281395981e+10  7.7161406789242493e+10  2.5082649613739960e+10  2.2731505819036749e+11  2.7669140044513531e+11  9.9694696146480972e+10  1.0740182981016826e+11  9.0508336793779404e+10  2.1949550925909357e+11  9.9185834109403778e+10  3.0459798871134766e+10  2.0719797818845880e+11  4.9588267232381726e+11  1.3179876788629753e+11  1.5316122796891405e+10  -4.1688501912790314e+10  1.2962192171398387e+11  8.1944091252742096e+10  1.8056106688875827e+08  2.4781490442859104e+10  1.6458311827558759e+11  9.1102787472482605e+10  4.8283743875514626e+10  -5.0177411454463312e+11  2.5732671169699881e+11  7.3925392390397388e+11  7.5390287880310745e+10  3.2866408770392906e+10  3.7822421364859827e+11  -2.4348602458647382e+11  8.2739676060691864e+10  -2.7694533962134888e+10  5.7197622499722206e+10  3.6872413808662498e+10  -3.7491535255878325e+09  -1.3151985733178052e+11  -2.8764222902193958e+10  5.6533117376929512e+10  1.4778028507075275e+10  -2.9569052897893974e+10  1.4096495673938198e+10  3.7676139549997787e+10  -6.1500033899151001e+09  1.4689003668941143e+10  -3.9541953106326640e+08  2.1472256720572243e+10  -3.3061437889356828e+09  1.9329364912917294e+10  -2.6099928774682102e+09  8.1085474445179110e+09  2.3346396306366489e+10  2.1684541901973545e+10  -7.5928288674645033e+09  1.2107763902537611e+10  -1.4886575016329268e+10  3.6069375509649300e+10  6.7253105070035620e+09  2.1929838562812481e+10  -4.9434222578895973e+10  4.4142902495839981e+10  -6.9591762166277237e+09  1.8707210191459366e+10  -1.0270695899367802e+09  -5.1974029658960358e+10  -1.3938825578375839e+10  6.3524301114433603e+09  -5.1078236209650253e+10  2.6952502381260258e+10  1.7194119544425430e+11  6.1808138368729248e+10  -3.0897288904416040e+11  4.5485581638228989e+10  -1.5855085304555552e+10  -9.6785985849166367e+10  4.1071541817211197e+10  -1.3646000706621388e+11  -6.0334436145064270e+10  7.7914986344536026e+10  1.1243506580214110e+11  4.3896042727680992e+10  1.1179123745834606e+10  1.5688436657961407e+11  -2.0754415556053440e+10  9.1202341336909424e+10  1.4685796887416721e+11  3.2227434323891624e+10  8.4102359649582550e+10  -9.3915210471599884e+09  7.4498056604728561e+10  8.5684640520477615e+10  -1.0521962890921632e+11  1.7500775300565281e+10  -2.4740347661464348e+10  1.5042355789472099e+10  1.7902684738322739e+11  2.7454329162781738e+11  3.2159787737054489e+10  8.8318741036796341e+10  -5.1881710752833153e+10  6.5479606934943192e+10  -1.3498591050663496e+11  5.1541852115637683e+11  3.6744638658295251e+11  -1.0154150004758258e+11  -6.6698225553983191e+11  1.8338440342787372e+11  5.1039312796678113e+11  -1.9521848656637128e+11  2.2350992699288785e+11  2.6298037320419897e+11  2.0784365427727374e+11  1.1137655959451454e+11  -9.6975844328310806e+10  3.0943577156329150e+09  3.1338065098647842e+09  -6.8768809300296431e+09  4.8593355282286682e+10  -4.2348758051119186e+10  2.2064617765828491e+10  -1.9718766892557510e+10  3.8933329184914918e+09  1.4380189260833405e+10  -2.3829449989074135e+10  2.4872102208773849e+10  -5.2351474691405449e+09  1.4784621019974047e+10  5.1042527786664762e+09  -1.9534759148291718e+10  9.2267391929070148e+09  -7.0831254617080927e+09  3.0868995287829544e+10  -1.4216550330694372e+10  8.3455838578447170e+09  8.6777074746130047e+09  -2.1299036434770245e+10  -1.9250459487195954e+09  7.0762081747519913e+09  1.0069800779866550e+10  -2.0197321286167362e+10  8.9863953996082726e+09  1.9791707078265984e+10  2.5118574907304668e+09  -3.4039786755768368e+10  1.1025036028773615e+10  1.7672064738975082e+10  -2.3129708442887711e+10  1.0542954840687542e+10  3.3388897217345366e+09  -4.1891680365202316e+10  7.5817413670490265e+10  5.7099361176364311e+10  -5.8747035283693329e+10  -2.3344196830023224e+10  3.7047717633507301e+10  1.1938188650171572e+10  -4.2660573175498917e+10  7.7667608326879242e+10  -1.3259989539776543e+11  8.1132412762059555e+10  5.2157024094057999e+10  -3.4829936510136940e+10  9.8274348942421234e+10  -1.8670571301497055e+11  4.6039921728172241e+10  -8.5768998106296253e+09  4.4281949019887466e+10  -4.1043472506018517e+10  5.3832683279761915e+09  1.7354171453883884e+10  1.3750515646460306e+11  -6.3514755153579430e+10  3.9830411458810692e+10  9.8593522490045502e+10  1.8565104450155067e+10  -3.5325303049633064e+10  4.1786058327882439e+10  -1.0882641712725516e+11  -7.7759041408043198e+10  -1.0382432485993534e+10  4.9020070176260635e+10  -1.4794183384450174e+11  -1.6016572427755164e+11  1.1547459025802956e+11  -1.6036608901143942e+11  1.7473369481210696e+11  1.9347117031034542e+10  -3.2013750325600458e+11  4.0373460304045831e+11  -8.8018098435165479e+11  -1.4440425386712259e+11  3.5144330742439709e+11  -1.3475520980910635e+11  -3.6383659689068947e+09  -2.5730459077990460e+11  -1.1278314019939532e+11  -9.5403816265020004e+10  8.5976348675662582e+10  5.9253507994734909e+10  1.2828456454682459e+10  6.4245557349418434e+10  2.8647078070342865e+10  3.9181294441327377e+10  7.9368747323414948e+10  1.4010783012120572e+11  1.9785275046650641e+11  6.9003740603015625e+10  1.4677903978306390e+11  1.0773404871826765e+11  2.7012567675208411e+11  -2.6483717609729351e+10  -3.1174713267634087e+10  4.4639041585075958e+10  8.9014588345904617e+10  6.4368232892550392e+10  -2.5359415258288277e+10  7.1485342039926624e+09  4.9062985956607262e+10  3.8310025597972115e+10  -3.8085855137343353e+10  1.8305573440556213e+11  8.6234756026334106e+10  1.2955433456915623e+11  2.5075209241867653e+10  6.1197328432625000e+10  2.1649126696276279e+11  -1.2639525235465044e+10  -1.0569072086460451e+11  -1.5290750561395508e+11  -9.8825799420356125e+10  -1.7941173517824921e+11  -1.5954188232870419e+11  -3.7581695093447461e+11  -1.8958430874122449e+11  -1.2600951364243008e+11  -7.7691095615692065e+11  -3.0275809931225800e+11  -1.5655744921769272e+12  4.4695360501221564e+11  -2.1594676343847397e+11  -2.1357875894216864e+09  -1.4685997235562683e+11  -4.8600232823300623e+11  1.8273755308025024e+11  1.5360783877809576e+11  1.3476262544379530e+11  -1.6114818502943387e+11  3.7733910557275293e+11  1.8596582318805197e+11  2.7739021810216095e+11  3.3085144376116852e+11  -9.7614772908229858e+10  1.9063003722694577e+11  -1.9088910411115852e+10  -8.5837267702597974e+11  8.5897994510570145e+10  1.5924015988386203e+11  3.3264718182709509e+11  -3.5646767540216010e+11  -1.9223522920013202e+11  1.6536277922145486e+11  1.2843759181052112e+11  4.7613829087718231e+11  5.7516757044940442e+11  1.1920936894124338e+12  8.3919961209623621e+11  2.3282417185857721e+11  2.2702183205063284e+11  3.3560940069287616e+11  3.7558193685814136e+11  4.2204725165781567e+11  8.2462602231725433e+10  1.9821402595146359e+11  1.2312120827950217e+11  -1.1625897704287073e+11  -1.7289603642704385e+11  2.4086362472191288e+10  1.7571250135406860e+11  7.6847643621015228e+10  7.2415292463982819e+10  4.2058471016951836e+10  5.494997075