<?xml version="1.0"?>
<VTKFile type="UnstructuredGrid"  version="0.1"  >
<UnstructuredGrid>
<Piece  NumberOfPoints="1369" NumberOfCells="2560">
<Points>
<DataArray  type="Float64"  NumberOfComponents="3"  format="ascii">0 0 0  0.75 0 0  1.5 0 0  2.25 0 0  3 0 0  3.75 0 0  4.5 0 0  5.25 0 0  6 0 0  6.75 0 0  7.5 0 0  8.25 0 0  9 0 0  9.75 0 0  10.5 0 0  11.25 0 0  12 0 0  12.75 0 0  13.5 0 0  14.25 0 0  15 0 0  15.75 0 0  16.5 0 0  17.25 0 0  18 0 0  18.75 0 0  19.5 0 0  20.25 0 0  21 0 0  21.75 0 0  22.5 0 0  23.25 0 0  24 0 0  24.75 0 0  25.5 0 0  26.25 0 0  27 0 0  27.75 0 0  28.5 0 0  29.25 0 0  30 0 0  30.75 0 0  31.5 0 0  32.25 0 0  33 0 0  33.75 0 0  34.5 0 0  35.25 0 0  36 0 0  36.75 0 0  37.5 0 0  38.25 0 0  39 0 0  39.75 0 0  40.5 0 0  41.25 0 0  42 0 0  42.75 0 0  43.5 0 0  44.25 0 0  45 0 0  45.75 0 0  46.5 0 0  47.25 0 0  48 0 0  48.75 0 0  49.5 0 0  50.25 0 0  51 0 0  51.75 0 0  52.5 0 0  53.25 0 0  54 0 0  54.75 0 0  55.5 0 0  56.25 0 0  57 0 0  57.75 0 0  58.5 0 0  59.25 0 0  60 0 0  0 0.5 0  0.75 0.5 0  1.5 0.5 0  2.25 0.5 0  3 0.5 0  3.75 0.5 0  4.5 0.5 0  5.25 0.5 0  6 0.5 0  6.75 0.5 0  7.5 0.5 0  8.25 0.5 0  9 0.5 0  9.75 0.5 0  10.5 0.5 0  11.25 0.5 0  12 0.5 0  12.75 0.5 0  13.5 0.5 0  14.25 0.5 0  15 0.5 0  15.75 0.5 0  16.5 0.5 0  17.25 0.5 0  18 0.5 0  18.75 0.5 0  19.5 0.5 0  20.25 0.5 0  21 0.5 0  21.75 0.5 0  22.5 0.5 0  23.25 0.5 0  24 0.5 0  24.75 0.5 0  25.5 0.5 0  26.25 0.5 0  27 0.5 0  27.75 0.5 0  28.5 0.5 0  29.25 0.5 0  30 0.5 0  30.75 0.5 0  31.5 0.5 0  32.25 0.5 0  33 0.5 0  33.75 0.5 0  34.5 0.5 0  35.25 0.5 0  36 0.5 0  36.75 0.5 0  37.5 0.5 0  38.25 0.5 0  39 0.5 0  39.75 0.5 0  40.5 0.5 0  41.25 0.5 0  42 0.5 0  42.75 0.5 0  43.5 0.5 0  44.25 0.5 0  45 0.5 0  45.75 0.5 0  46.5 0.5 0  47.25 0.5 0  48 0.5 0  48.75 0.5 0  49.5 0.5 0  50.25 0.5 0  51 0.5 0  51.75 0.5 0  52.5 0.5 0  53.25 0.5 0  54 0.5 0  54.75 0.5 0  55.5 0.5 0  56.25 0.5 0  57 0.5 0  57.75 0.5 0  58.5 0.5 0  59.25 0.5 0  60 0.5 0  0 1 0  0.75 1 0  1.5 1 0  2.25 1 0  3 1 0  3.75 1 0  4.5 1 0  5.25 1 0  6 1 0  6.75 1 0  7.5 1 0  8.25 1 0  9 1 0  9.75 1 0  10.5 1 0  11.25 1 0  12 1 0  12.75 1 0  13.5 1 0  14.25 1 0  15 1 0  15.75 1 0  16.5 1 0  17.25 1 0  18 1 0  18.75 1 0  19.5 1 0  20.25 1 0  21 1 0  21.75 1 0  22.5 1 0  23.25 1 0  24 1 0  24.75 1 0  25.5 1 0  26.25 1 0  27 1 0  27.75 1 0  28.5 1 0  29.25 1 0  30 1 0  30.75 1 0  31.5 1 0  32.25 1 0  33 1 0  33.75 1 0  34.5 1 0  35.25 1 0  36 1 0  36.75 1 0  37.5 1 0  38.25 1 0  39 1 0  39.75 1 0  40.5 1 0  41.25 1 0  42 1 0  42.75 1 0  43.5 1 0  44.25 1 0  45 1 0  45.75 1 0  46.5 1 0  47.25 1 0  48 1 0  48.75 1 0  49.5 1 0  50.25 1 0  51 1 0  51.75 1 0  52.5 1 0  53.25 1 0  54 1 0  54.75 1 0  55.5 1 0  56.25 1 0  57 1 0  57.75 1 0  58.5 1 0  59.25 1 0  60 1 0  0 1.5 0  0.75 1.5 0  1.5 1.5 0  2.25 1.5 0  3 1.5 0  3.75 1.5 0  4.5 1.5 0  5.25 1.5 0  6 1.5 0  6.75 1.5 0  7.5 1.5 0  8.25 1.5 0  9 1.5 0  9.75 1.5 0  10.5 1.5 0  11.25 1.5 0  12 1.5 0  12.75 1.5 0  13.5 1.5 0  14.25 1.5 0  15 1.5 0  15.75 1.5 0  16.5 1.5 0  17.25 1.5 0  18 1.5 0  18.75 1.5 0  19.5 1.5 0  20.25 1.5 0  21 1.5 0  21.75 1.5 0  22.5 1.5 0  23.25 1.5 0  24 1.5 0  24.75 1.5 0  25.5 1.5 0  26.25 1.5 0  27 1.5 0  27.75 1.5 0  28.5 1.5 0  29.25 1.5 0  30 1.5 0  30.75 1.5 0  31.5 1.5 0  32.25 1.5 0  33 1.5 0  33.75 1.5 0  34.5 1.5 0  35.25 1.5 0  36 1.5 0  36.75 1.5 0  37.5 1.5 0  38.25 1.5 0  39 1.5 0  39.75 1.5 0  40.5 1.5 0  41.25 1.5 0  42 1.5 0  42.75 1.5 0  43.5 1.5 0  44.25 1.5 0  45 1.5 0  45.75 1.5 0  46.5 1.5 0  47.25 1.5 0  48 1.5 0  48.75 1.5 0  49.5 1.5 0  50.25 1.5 0  51 1.5 0  51.75 1.5 0  52.5 1.5 0  53.25 1.5 0  54 1.5 0  54.75 1.5 0  55.5 1.5 0  56.25 1.5 0  57 1.5 0  57.75 1.5 0  58.5 1.5 0  59.25 1.5 0  60 1.5 0  0 2 0  0.75 2 0  1.5 2 0  2.25 2 0  3 2 0  3.75 2 0  4.5 2 0  5.25 2 0  6 2 0  6.75 2 0  7.5 2 0  8.25 2 0  9 2 0  9.75 2 0  10.5 2 0  11.25 2 0  12 2 0  12.75 2 0  13.5 2 0  14.25 2 0  15 2 0  15.75 2 0  16.5 2 0  17.25 2 0  18 2 0  18.75 2 0  19.5 2 0  20.25 2 0  21 2 0  21.75 2 0  22.5 2 0  23.25 2 0  24 2 0  24.75 2 0  25.5 2 0  26.25 2 0  27 2 0  27.75 2 0  28.5 2 0  29.25 2 0  30 2 0  30.75 2 0  31.5 2 0  32.25 2 0  33 2 0  33.75 2 0  34.5 2 0  35.25 2 0  36 2 0  36.75 2 0  37.5 2 0  38.25 2 0  39 2 0  39.75 2 0  40.5 2 0  41.25 2 0  42 2 0  42.75 2 0  43.5 2 0  44.25 2 0  45 2 0  45.75 2 0  46.5 2 0  47.25 2 0  48 2 0  48.75 2 0  49.5 2 0  50.25 2 0  51 2 0  51.75 2 0  52.5 2 0  53.25 2 0  54 2 0  54.75 2 0  55.5 2 0  56.25 2 0  57 2 0  57.75 2 0  58.5 2 0  59.25 2 0  60 2 0  0 2.5 0  0.75 2.5 0  1.5 2.5 0  2.25 2.5 0  3 2.5 0  3.75 2.5 0  4.5 2.5 0  5.25 2.5 0  6 2.5 0  6.75 2.5 0  7.5 2.5 0  8.25 2.5 0  9 2.5 0  9.75 2.5 0  10.5 2.5 0  11.25 2.5 0  12 2.5 0  12.75 2.5 0  13.5 2.5 0  14.25 2.5 0  15 2.5 0  15.75 2.5 0  16.5 2.5 0  17.25 2.5 0  18 2.5 0  18.75 2.5 0  19.5 2.5 0  20.25 2.5 0  21 2.5 0  21.75 2.5 0  22.5 2.5 0  23.25 2.5 0  24 2.5 0  24.75 2.5 0  25.5 2.5 0  26.25 2.5 0  27 2.5 0  27.75 2.5 0  28.5 2.5 0  29.25 2.5 0  30 2.5 0  30.75 2.5 0  31.5 2.5 0  32.25 2.5 0  33 2.5 0  33.75 2.5 0  34.5 2.5 0  35.25 2.5 0  36 2.5 0  36.75 2.5 0  37.5 2.5 0  38.25 2.5 0  39 2.5 0  39.75 2.5 0  40.5 2.5 0  41.25 2.5 0  42 2.5 0  42.75 2.5 0  43.5 2.5 0  44.25 2.5 0  45 2.5 0  45.75 2.5 0  46.5 2.5 0  47.25 2.5 0  48 2.5 0  48.75 2.5 0  49.5 2.5 0  50.25 2.5 0  51 2.5 0  51.75 2.5 0  52.5 2.5 0  53.25 2.5 0  54 2.5 0  54.75 2.5 0  55.5 2.5 0  56.25 2.5 0  57 2.5 0  57.75 2.5 0  58.5 2.5 0  59.25 2.5 0  60 2.5 0  0 3 0  0.75 3 0  1.5 3 0  2.25 3 0  3 3 0  3.75 3 0  4.5 3 0  5.25 3 0  6 3 0  6.75 3 0  7.5 3 0  8.25 3 0  9 3 0  9.75 3 0  10.5 3 0  11.25 3 0  12 3 0  12.75 3 0  13.5 3 0  14.25 3 0  15 3 0  15.75 3 0  16.5 3 0  17.25 3 0  18 3 0  18.75 3 0  19.5 3 0  20.25 3 0  21 3 0  21.75 3 0  22.5 3 0  23.25 3 0  24 3 0  24.75 3 0  25.5 3 0  26.25 3 0  27 3 0  27.75 3 0  28.5 3 0  29.25 3 0  30 3 0  30.75 3 0  31.5 3 0  32.25 3 0  33 3 0  33.75 3 0  34.5 3 0  35.25 3 0  36 3 0  36.75 3 0  37.5 3 0  38.25 3 0  39 3 0  39.75 3 0  40.5 3 0  41.25 3 0  42 3 0  42.75 3 0  43.5 3 0  44.25 3 0  45 3 0  45.75 3 0  46.5 3 0  47.25 3 0  48 3 0  48.75 3 0  49.5 3 0  50.25 3 0  51 3 0  51.75 3 0  52.5 3 0  53.25 3 0  54 3 0  54.75 3 0  55.5 3 0  56.25 3 0  57 3 0  57.75 3 0  58.5 3 0  59.25 3 0  60 3 0  0 3.5 0  0.75 3.5 0  1.5 3.5 0  2.25 3.5 0  3 3.5 0  3.75 3.5 0  4.5 3.5 0  5.25 3.5 0  6 3.5 0  6.75 3.5 0  7.5 3.5 0  8.25 3.5 0  9 3.5 0  9.75 3.5 0  10.5 3.5 0  11.25 3.5 0  12 3.5 0  12.75 3.5 0  13.5 3.5 0  14.25 3.5 0  15 3.5 0  15.75 3.5 0  16.5 3.5 0  17.25 3.5 0  18 3.5 0  18.75 3.5 0  19.5 3.5 0  20.25 3.5 0  21 3.5 0  21.75 3.5 0  22.5 3.5 0  23.25 3.5 0  24 3.5 0  24.75 3.5 0  25.5 3.5 0  26.25 3.5 0  27 3.5 0  27.75 3.5 0  28.5 3.5 0  29.25 3.5 0  30 3.5 0  30.75 3.5 0  31.5 3.5 0  32.25 3.5 0  33 3.5 0  33.75 3.5 0  34.5 3.5 0  35.25 3.5 0  36 3.5 0  36.75 3.5 0  37.5 3.5 0  38.25 3.5 0  39 3.5 0  39.75 3.5 0  40.5 3.5 0  41.25 3.5 0  42 3.5 0  42.75 3.5 0  43.5 3.5 0  44.25 3.5 0  45 3.5 0  45.75 3.5 0  46.5 3.5 0  47.25 3.5 0  48 3.5 0  48.75 3.5 0  49.5 3.5 0  50.25 3.5 0  51 3.5 0  51.75 3.5 0  52.5 3.5 0  53.25 3.5 0  54 3.5 0  54.75 3.5 0  55.5 3.5 0  56.25 3.5 0  57 3.5 0  57.75 3.5 0  58.5 3.5 0  59.25 3.5 0  60 3.5 0  0 4 0  0.75 4 0  1.5 4 0  2.25 4 0  3 4 0  3.75 4 0  4.5 4 0  5.25 4 0  6 4 0  6.75 4 0  7.5 4 0  8.25 4 0  9 4 0  9.75 4 0  10.5 4 0  11.25 4 0  12 4 0  12.75 4 0  13.5 4 0  14.25 4 0  15 4 0  15.75 4 0  16.5 4 0  17.25 4 0  18 4 0  18.75 4 0  19.5 4 0  20.25 4 0  21 4 0  21.75 4 0  22.5 4 0  23.25 4 0  24 4 0  24.75 4 0  25.5 4 0  26.25 4 0  27 4 0  27.75 4 0  28.5 4 0  29.25 4 0  30 4 0  30.75 4 0  31.5 4 0  32.25 4 0  33 4 0  33.75 4 0  34.5 4 0  35.25 4 0  36 4 0  36.75 4 0  37.5 4 0  38.25 4 0  39 4 0  39.75 4 0  40.5 4 0  41.25 4 0  42 4 0  42.75 4 0  43.5 4 0  44.25 4 0  45 4 0  45.75 4 0  46.5 4 0  47.25 4 0  48 4 0  48.75 4 0  49.5 4 0  50.25 4 0  51 4 0  51.75 4 0  52.5 4 0  53.25 4 0  54 4 0  54.75 4 0  55.5 4 0  56.25 4 0  57 4 0  57.75 4 0  58.5 4 0  59.25 4 0  60 4 0  0.375 0.25 0  1.125 0.25 0  1.875 0.25 0  2.625 0.25 0  3.375 0.25 0  4.125 0.25 0  4.875 0.25 0  5.625 0.25 0  6.375 0.25 0  7.125 0.25 0  7.875 0.25 0  8.625 0.25 0  9.375 0.25 0  10.125 0.25 0  10.875 0.25 0  11.625 0.25 0  12.375 0.25 0  13.125 0.25 0  13.875 0.25 0  14.625 0.25 0  15.375 0.25 0  16.125 0.25 0  16.875 0.25 0  17.625 0.25 0  18.375 0.25 0  19.125 0.25 0  19.875 0.25 0  20.625 0.25 0  21.375 0.25 0  22.125 0.25 0  22.875 0.25 0  23.625 0.25 0  24.375 0.25 0  25.125 0.25 0  25.875 0.25 0  26.625 0.25 0  27.375 0.25 0  28.125 0.25 0  28.875 0.25 0  29.625 0.25 0  30.375 0.25 0  31.125 0.25 0  31.875 0.25 0  32.625 0.25 0  33.375 0.25 0  34.125 0.25 0  34.875 0.25 0  35.625 0.25 0  36.375 0.25 0  37.125 0.25 0  37.875 0.25 0  38.625 0.25 0  39.375 0.25 0  40.125 0.25 0  40.875 0.25 0  41.625 0.25 0  42.375 0.25 0  43.125 0.25 0  43.875 0.25 0  44.625 0.25 0  45.375 0.25 0  46.125 0.25 0  46.875 0.25 0  47.625 0.25 0  48.375 0.25 0  49.125 0.25 0  49.875 0.25 0  50.625 0.25 0  51.375 0.25 0  52.125 0.25 0  52.875 0.25 0  53.625 0.25 0  54.375 0.25 0  55.125 0.25 0  55.875 0.25 0  56.625 0.25 0  57.375 0.25 0  58.125 0.25 0  58.875 0.25 0  59.625 0.25 0  0.375 0.75 0  1.125 0.75 0  1.875 0.75 0  2.625 0.75 0  3.375 0.75 0  4.125 0.75 0  4.875 0.75 0  5.625 0.75 0  6.375 0.75 0  7.125 0.75 0  7.875 0.75 0  8.625 0.75 0  9.375 0.75 0  10.125 0.75 0  10.875 0.75 0  11.625 0.75 0  12.375 0.75 0  13.125 0.75 0  13.875 0.75 0  14.625 0.75 0  15.375 0.75 0  16.125 0.75 0  16.875 0.75 0  17.625 0.75 0  18.375 0.75 0  19.125 0.75 0  19.875 0.75 0  20.625 0.75 0  21.375 0.75 0  22.125 0.75 0  22.875 0.75 0  23.625 0.75 0  24.375 0.75 0  25.125 0.75 0  25.875 0.75 0  26.625 0.75 0  27.375 0.75 0  28.125 0.75 0  28.875 0.75 0  29.625 0.75 0  30.375 0.75 0  31.125 0.75 0  31.875 0.75 0  32.625 0.75 0  33.375 0.75 0  34.125 0.75 0  34.875 0.75 0  35.625 0.75 0  36.375 0.75 0  37.125 0.75 0  37.875 0.75 0  38.625 0.75 0  39.375 0.75 0  40.125 0.75 0  40
[...]
<PointData  Vectors="f_8-0"> 
<DataArray  type="Float64"  Name="f_8-0"  NumberOfComponents="3" format="ascii">0.0000000000000000e+00 0.0000000000000000e+00 0.0000000000000000e+00  0.0000000000000000e+00 0.0000000000000000e+00 0.0000000000000000e+00  0.0000000000000000e+00 0.0000000000000000e+00 0.0000000000000000e+00  0.0000000000000000e+00 0.0000000000000000e+00 0.0000000000000000e+00  0.0000000000000000e+00 0.0000000000000000e+00 0.0000000000000000e+00  0.0000000000000000e+00 0.0000000000000000e+00 0.0000000000000000e+00  0.0000000000000000e+00 0.0000000000000000e+00 0.0000000000000000e+00  0.0000000000000000e+00 0.0000000000000000e+00 0.0000000000000000e+00  0.0000000000000000e+00 0.0000000000000000e+00 0.0000000000000000e+00  0.0000000000000000e+00 0.0000000000000000e+00 0.0000000000000000e+00  0.0000000000000000e+00 0.0000000000000000e+00 0.0000000000000000e+00  0.0000000000000000e+00 0.0000000000000000e+00 0.0000000000000000e+00  0.0000000000000000e+00 0.0000000000000000e+00 0.0000000000000000e+00  0.0000000000000000e+00 0.0000000000000000e+00 0.0000000000000000e+00  0.0000000000000000e+00 0.0000000000000000e+00 0.0000000000000000e+00  0.0000000000000000e+00 0.0000000000000000e+00 0.0000000000000000e+00  0.0000000000000000e+00 0.0000000000000000e+00 0.0000000000000000e+00  0.0000000000000000e+00 0.0000000000000000e+00 0.0000000000000000e+00  0.0000000000000000e+00 0.0000000000000000e+00 0.0000000000000000e+00  0.0000000000000000e+00 0.0000000000000000e+00 0.0000000000000000e+00  0.0000000000000000e+00 0.0000000000000000e+00 0.0000000000000000e+00  0.0000000000000000e+00 0.0000000000000000e+00 0.0000000000000000e+00  0.0000000000000000e+00 0.0000000000000000e+00 0.0000000000000000e+00  0.0000000000000000e+00 0.0000000000000000e+00 0.0000000000000000e+00  0.0000000000000000e+00 0.0000000000000000e+00 0.0000000000000000e+00  0.0000000000000000e+00 0.0000000000000000e+00 0.0000000000000000e+00  0.0000000000000000e+00 0.0000000000000000e+00 0.0000000000000000e+00  0.0000000000000000e+00 0.0000000000000000e+00 0.0000000000000000e+00  0.0000000000000000e+00 0.0000000000000000e+00 0.0000000000000000e+00  0.0000000000000000e+00 0.0000000000000000e+00 0.0000000000000000e+00  0.0000000000000000e+00 0.0000000000000000e+00 0.0000000000000000e+00  0.0000000000000000e+00 0.0000000000000000e+00 0.0000000000000000e+00  0.0000000000000000e+00 0.0000000000000000e+00 0.0000000000000000e+00  0.0000000000000000e+00 0.0000000000000000e+00 0.0000000000000000e+00  0.0000000000000000e+00 0.0000000000000000e+00 0.0000000000000000e+00  0.0000000000000000e+00 0.0000000000000000e+00 0.0000000000000000e+00  0.0000000000000000e+00 0.0000000000000000e+00 0.0000000000000000e+00  0.0000000000000000e+00 0.0000000000000000e+00 0.0000000000000000e+00  0.0000000000000000e+00 0.0000000000000000e+00 0.0000000000000000e+00  0.0000000000000000e+00 0.0000000000000000e+00 0.0000000000000000e+00  0.0000000000000000e+00 0.0000000000000000e+00 0.0000000000000000e+00  0.0000000000000000e+00 0.0000000000000000e+00 0.0000000000000000e+00  0.0000000000000000e+00 0.0000000000000000e+00 0.0000000000000000e+00  0.0000000000000000e+00 0.0000000000000000e+00 0.0000000000000000e+00  0.0000000000000000e+00 0.0000000000000000e+00 0.0000000000000000e+00  0.0000000000000000e+00 0.0000000000000000e+00 0.0000000000000000e+00  0.0000000000000000e+00 0.0000000000000000e+00 0.0000000000000000e+00  0.0000000000000000e+00 0.0000000000000000e+00 0.0000000000000000e+00  0.0000000000000000e+00 0.0000000000000000e+00 0.0000000000000000e+00  0.0000000000000000e+00 0.0000000000000000e+00 0.0000000000000000e+00  0.0000000000000000e+00 0.0000000000000000e+00 0.0000000000000000e+00  0.0000000000000000e+00 0.0000000000000000e+00 0.0000000000000000e+00  0.0000000000000000e+00 0.0000000000000000e+00 0.0000000000000000e+00  0.0000000000000000e+00 0.0000000000000000e+00 0.0000000000000000e+00  0.0000000000000000e+00 0.0000000000000000e+00 0.0000000000000000e+00  0.0000000000000000e+00 0.0000000000000000e+00 0.0000000000000000e+00  0.0000000000000000e+00 0.0000000000000000e+00 0.0000000000000000e+00  0.0000000000000000e+00 0.0000000000000000e+00 0.0000000000000000e+00  0.0000000000000000e+00 0.0000000000000000e+00 0.0000000000000000e+00  0.0000000000000000e+00 0.0000000000000000e+00 0.0000000000000000e+00  0.0000000000000000e+00 0.0000000000000000e+00 0.0000000000000000e+00  0.0000000000000000e+00 0.0000000000000000e+00 0.0000000000000000e+00  0.0000000000000000e+00 0.0000000000000000e+00 0.0000000000000000e+00  0.0000000000000000e+00 0.0000000000000000e+00 0.0000000000000000e+00  0.0000000000000000e+00 0.0000000000000000e+00 0.0000000000000000e+00  0.0000000000000000e+00 0.0000000000000000e+00 0.0000000000000000e+00  0.0000000000000000e+00 0.0000000000000000e+00 0.0000000000000000e+00  0.0000000000000000e+00 0.0000000000000000e+00 0.0000000000000000e+00  0.0000000000000000e+00 0.0000000000000000e+00 0.0000000000000000e+00  0.0000000000000000e+00 0.0000000000000000e+00 0.0000000000000000e+00  0.0000000000000000e+00 0.0000000000000000e+00 0.0000000000000000e+00  0.0000000000000000e+00 0.0000000000000000e+00 0.0000000000000000e+00  0.0000000000000000e+00 0.0000000000000000e+00 0.0000000000000000e+00  0.0000000000000000e+00 0.0000000000000000e+00 0.0000000000000000e+00  0.0000000000000000e+00 0.0000000000000000e+00 0.0000000000000000e+00  0.0000000000000000e+00 0.0000000000000000e+00 0.0000000000000000e+00  0.0000000000000000e+00 0.0000000000000000e+00 0.0000000000000000e+00  0.0000000000000000e+00 0.0000000000000000e+00 0.0000000000000000e+00  0.0000000000000000e+00 0.0000000000000000e+00 0.0000000000000000e+00  0.0000000000000000e+00 0.0000000000000000e+00 0.0000000000000000e+00  0.0000000000000000e+00 0.0000000000000000e+00 0.0000000000000000e+00  1.9226999557027678e+01 0.0000000000000000e+00 0.0000000000000000e+00  1.8839296402074247e+01 7.1119076739304565e-01 0.0000000000000000e+00  1.7068390385341655e+01 1.1862802207262904e+00 0.0000000000000000e+00  1.4475173594049526e+01 1.4248829423660685e+00 0.0000000000000000e+00  1.1647182173604598e+01 1.3914396773920066e+00 0.0000000000000000e+00  9.0506062308869417e+00 1.2102006625854278e+00 0.0000000000000000e+00  6.8816888625337373e+00 9.8304773590922423e-01 0.0000000000000000e+00  5.1658204518242403e+00 7.6739021475352154e-01 0.0000000000000000e+00  3.8491584657845479e+00 5.8534860828053659e-01 0.0000000000000000e+00  2.8559794373522114e+00 4.4052923386861464e-01 0.0000000000000000e+00  2.1139595107914579e+00 3.2894310768304064e-01 0.0000000000000000e+00  1.5625634194192677e+00 2.4448302617334319e-01 0.0000000000000000e+00  1.1540659199522458e+00 1.8120294459728534e-01 0.0000000000000000e+00  8.5195910341412828e-01 1.3407279669113847e-01 0.0000000000000000e+00  6.2875851956298456e-01 9.9095206142750913e-02 0.0000000000000000e+00  4.6395232595897912e-01 7.3192725531383299e-02 0.0000000000000000e+00  3.4230636944623183e-01 5.4036676274948431e-02 0.0000000000000000e+00  2.5253722643756876e-01 3.9882165987032335e-02 0.0000000000000000e+00  1.8630084332908936e-01 2.9429253262398109e-02 0.0000000000000000e+00  1.3743254880125733e-01 2.1712860006967667e-02 0.0000000000000000e+00  1.0138036146979065e-01 1.6018067642571840e-02 0.0000000000000000e+00  7.4784261079145625e-02 1.1816009339073176e-02 0.0000000000000000e+00  5.5164605141698644e-02 8.7158087360894431e-03 0.0000000000000000e+00  4.0691714165217205e-02 6.4287530775493087e-03 0.0000000000000000e+00  3.0015630716947718e-02 4.7416804095583506e-03 0.0000000000000000e+00  2.2140405921398518e-02 3.4972556215929962e-03 0.0000000000000000e+00  1.6331298889091423e-02 2.5793737154677508e-03 0.0000000000000000e+00  1.2046287468001194e-02 1.9023682102929237e-03 0.0000000000000000e+00  8.8855289162057625e-03 1.4030381832548465e-03 0.0000000000000000e+00  6.5540699126551537e-03 1.0347605575320054e-03 0.0000000000000000e+00  4.8343344366957456e-03 7.6314373036021597e-04 0.0000000000000000e+00  3.5658266825576907e-03 5.6281981289637770e-04 0.0000000000000000e+00  2.6301574301096134e-03 4.1507761819235535e-04 0.0000000000000000e+00  1.9399979602434229e-03 3.0611626375074807e-04 0.0000000000000000e+00  1.4309315029586761e-03 2.2575679029112537e-04 0.0000000000000000e+00  1.0554422566273543e-03 1.6649174313714901e-04 0.0000000000000000e+00  7.7848129774309432e-04 1.2278410061838620e-04 0.0000000000000000e+00  5.7419574264491952e-04 9.0550152923078882e-05 0.0000000000000000e+00  4.2351601192492608e-04 6.6778077416489401e-05 0.0000000000000000e+00  3.1237608836443947e-04 4.9246609413880418e-05 0.0000000000000000e+00  2.3040070812971057e-04 3.6317544770101945e-05 0.0000000000000000e+00  1.6993698642926141e-04 2.6782700253686734e-05 0.0000000000000000e+00  1.2534011420389478e-04 1.9751040645700701e-05 0.0000000000000000e+00  9.2446468311911347e-05 1.4565431290570654e-05 0.0000000000000000e+00  6.8184964984378384e-05 1.0741240936293243e-05 0.0000000000000000e+00  5.0290386180538009e-05 7.9210600888010860e-06 0.0000000000000000e+00  3.7091924210837860e-05 5.8413051203122623e-06 0.0000000000000000e+00  2.7357209339337520e-05 4.3075884593191254e-06 0.0000000000000000e+00  2.0177262904600671e-05 3.1765539653637202e-06 0.0000000000000000e+00  1.4881637904617265e-05 2.3424804916186344e-06 0.0000000000000000e+00  1.0975826347215558e-05 1.7274020476061542e-06 0.0000000000000000e+00  8.0950908573756066e-06 1.2738214844326189e-06 0.0000000000000000e+00  5.9704109781212175e-06 9.3933691404341427e-07 0.0000000000000000e+00  4.4033653499730745e-06 6.9267877031394590e-07 0.0000000000000000e+00  3.2476050254539427e-06 5.1078721330399233e-07 0.0000000000000000e+00  2.3951884067921143e-06 3.7665677875370818e-07 0.0000000000000000e+00  1.7665021029510898e-06 2.7774686223302565e-07 0.0000000000000000e+00  1.3028267391442397e-06 2.0480949778132028e-07 0.0000000000000000e+00  9.6085365902228408e-07 1.5102488333763428e-07 0.0000000000000000e+00  7.0864058129243327e-07 1.1136386243526413e-07 0.0000000000000000e+00  5.2262860699091715e-07 8.2117780109227973e-08 0.0000000000000000e+00  3.8544205950580402e-07 6.0551772173947935e-08 0.0000000000000000e+00  2.8426572546832239e-07 4.4649082327932397e-08 0.0000000000000000e+00  2.0964797289093954e-07 3.2922508710346405e-08 0.0000000000000000e+00  1.5461798553788277e-07 2.4275355446008257e-08 0.0000000000000000e+00  1.1403468125641994e-07 1.7898891602798182e-08 0.0000000000000000e+00  8.4106514745186391e-08 1.3196732193874396e-08 0.0000000000000000e+00  6.2037321489828395e-08 9.7290722429340657e-09 0.0000000000000000e+00  4.5765128978044904e-08 7.1715606464580707e-09 0.0000000000000000e+00  3.3769542593876270e-08 5.2849690317372706e-09 0.0000000000000000e+00  2.4929717287625745e-08 3.8928199135927151e-09 0.0000000000000000e+00  1.8419650101446141e-08 2.8648825037467238e-09 0.0000000000000000e+00  1.3631013961437832e-08 2.1049930695257050e-09 0.0000000000000000e+00  1.0116325295318980e-08 1.5420610032552982e-09 0.0000000000000000e+00  7.5471368497469500e-09 1.1234198169743502e-09 0.0000000000000000e+00  5.6833522268240736e-09 8.0989977641522692e-10 0.0000000000000000e+00  4.3507848556413507e-09 5.7217199681543169e-10 0.0000000000000000e+00  3.4249451720445862e-09 3.8792770944759711e-10 0.0000000000000000e+00  2.8189828199781664e-09 2.4017723533308912e-10 0.0000000000000000e+00  2.4772822649394214e-09 1.0988523924175701e-10 0.0000000000000000e+00  2.3303030913314878e-09 0.0000000000000000e+00 0.0000000000000000e+00  2.0814763298501976e+01 0.0000000000000000e+00 0.0000000000000000e+00  2.0109902364732278e+01 1.5311838293023399e+00 0.0000000000000000e+00  1.8041855687461659e+01 2.8958518421327404e+00 0.0000000000000000e+00  1.4996013862078243e+01 3.4304959209403583e+00 0.0000000000000000e+00  1.1837752493054582e+01 3.2993671876283246e+00 0.0000000000000000e+00  9.0623852329779240e+00 2.8282529315079858e+00 0.0000000000000000e+00  6.8221387250710537e+00 2.2732086602192334e+00 0.0000000000000000e+00  5.0893586334230720e+00 1.7619322815385434e+00 0.0000000000000000e+00  3.7781118242145069e+00 1.3378315066069293e+00 0.0000000000000000e+00  2.7971541836077245e+00 1.0039408684727424e+00 0.0000000000000000e+00  2.0677810299691868e+00 7.4828461075786956e-01 0.0000000000000000e+00  1.5272876268694633e+00 5.5551928469040812e-01 0.0000000000000000e+00  1.1275117941084836e+00 4.1143656951801338e-01 0.0000000000000000e+00  8.3213330797317409e-01 3.0428548011701095e-01 0.0000000000000000e+00  6.1402538682411989e-01 2.2483843451866306e-01 0.0000000000000000e+00  4.5303369355542195e-01 1.6603970961118786e-01 0.0000000000000000e+00  3.3422794320187710e-01 1.2257204776269308e-01 0.0000000000000000e+00  2.4656624349406769e-01 9.0461245675638152e-02 0.0000000000000000e+00  1.8189034519774550e-01 6.6751268003926459e-02 0.0000000000000000e+00  1.3417605712778768e-01 4.9249819192355139e-02 0.0000000000000000e+00  9.8976590011279161e-02 3.6333968506831141e-02 0.0000000000000000e+00  7.3010253664223507e-02 2.6803669884030483e-02 0.0000000000000000e+00  5.3855539299164229e-02 1.9772243615294734e-02 0.0000000000000000e+00  3.9725823938661267e-02 1.4584879957992432e-02 0.0000000000000000e+00  2.9302998597210854e-02 1.0758172327760308e-02 0.0000000000000000e+00  2.1614652598614975e-02 7.9353372717825658e-03 0.0000000000000000e+00  1.5943431698172247e-02 5.8530921711461032e-03 0.0000000000000000e+00  1.1760151626755502e-02 4.3171758664368089e-03 0.0000000000000000e+00  8.6744463311990861e-03 3.1842670871255548e-03 0.0000000000000000e+00  6.3983567069965013e-03 2.3486338210852459e-03 0.0000000000000000e+00  4.7194680881201207e-03 1.7322785368335536e-03 0.0000000000000000e+00  3.4810931022839914e-03 1.2776653209065458e-03 0.0000000000000000e+00  2.5676524772478885e-03 9.4235325379508385e-04 0.0000000000000000e+00  1.8938906276440742e-03 6.9503681293029329e-04 0.0000000000000000e+00  1.3969202474138063e-03 5.1262463550333262e-04 0.0000000000000000e+00  1.0303538701988363e-03 3.7808446867944843e-04 0.0000000000000000e+00  7.5997496293642251e-04 2.7885342002697991e-04 0.0000000000000000e+00  5.6054469828083436e-04 2.0566526106885946e-04 0.0000000000000000e+00  4.1344648109297653e-04 1.5168539697321291e-04 0.0000000000000000e+00  3.0494845304252725e-04 1.1187279658088417e-04 0.0000000000000000e+00  2.2492185133893056e-04 8.2509342090694658e-05 0.0000000000000000e+00  1.6589562765925126e-04 6.0852674571667100e-05 0.0000000000000000e+00  1.2235910734291269e-04 4.4880133474339122e-05 0.0000000000000000e+00  9.0247612883155120e-05 3.3099888611343365e-05 0.0000000000000000e+00  6.6563048376100373e-05 2.4411633818869798e-05 0.0000000000000000e+00  4.9094035453941162e-05 1.8003837316290579e-05 0.0000000000000000e+00  3.6209481195393290e-05 1.3277956051314081e-05 0.0000000000000000e+00  2.6706311276960355e-05 9.7925383555378957e-06 0.0000000000000000e+00  1.9697156562960517e-05 7.2219958780760840e-06 0.0000000000000000e+00  1.4527510074248957e-05 5.3261952612305636e-06 0.0000000000000000e+00  1.0714621745786281e-05 3.9280301780088332e-06 0.0000000000000000e+00  7.9024272302445069e-06 2.8968794462643551e-06 0.0000000000000000e+00  5.8283035495319289e-06 2.1364065147879712e-06 0.0000000000000000e+00  4.2985482917970567e-06 1.5755609831669913e-06 0.0000000000000000e+00  3.1702933140139875e-06 1.1619418106141178e-06 0.0000000000000000e+00  2.3381645291165194e-06 8.5690240149775111e-07 0.0000000000000000e+00  1.7244423850992086e-06 6.3194041551934745e-07 0.0000000000000000e+00  1.2718044286966918e-06 4.6603512465194040e-07 0.0000000000000000e+00  9.3797238747609557e-07 3.4368362848623026e-07 0.0000000000000000e+00  6.9176399870789523e-07 2.5345250667267092e-07 0.0000000000000000e+00  5.1018095595667358e-07 1.8690962579010319e-07 0.0000000000000000e+00  3.7626107566923718e-07 1.3783632314004401e-07 0.0000000000000000e+00  2.7749413522292710e-07 1.0164637705296709e-07 0.0000000000000000e+00  2.0465346096366798e-07 7.4957487661839021e-08 0.0000000000000000e+00  1.5093416230163346e-07 5.5275237389893213e-08 0.0000000000000000e+00  1.1131753953974385e-07 4.0760006931490362e-08 0.0000000000000000e+00  8.2102311617814231e-08 3.0055071471128182e-08 0.0000000000000000e+00  6.0558886878215423e-08 2.2159816978873806e-08 0.0000000000000000e+00  4.4674389523661684e-08 1.6336231400718525e-08 0.0000000000000000e+00  3.2964629312727100e-08 1.2039934099074282e-08 0.0000000000000000e+00  2.4335453464572582e-08 8.8692993310669460e-09 0.0000000000000000e+00  1.7980531388850724e-08 6.5279200017928080e-09 0.0000000000000000e+00  1.3306025305630193e-08 4.7969042919501793e-09 0.0000000000000000e+00  9.8751107380945984e-09 3.5144164761836769e-09 0.0000000000000000e+00  7.3671648778657200e-09 2.5605499769569946e-09 0.0000000000000000e+00  5.5478097639791034e-09 1.8461198259465277e-09 0.0000000000000000e+00  4.2470173550348818e-09 1.3043207880049488e-09 0.0000000000000000e+00  3.3431888922457132e-09 8.8451931210778099e-10 0.0000000000000000e+00  2.7519032688626844e-09 5.4725900529910411e-10 0.0000000000000000e+00  2.4168244476557041e-09 2.6308858380507362e-10 0.0000000000000000e+00  2.2997766271310359e-09 0.0000000000000000e+00 0.0000000000000000e+00  2.2311515486068927e+01 0.0000000000000000e+00 0.0000000000000000e+00  2.1698207735628582e+01 2.6692769020115468e+00 0.0000000000000000e+00  1.8933126958777233e+01 5.0064165039976443e+00 0.0000000000000000e+00  1.5129317934089212e+01 5.7650379355772747e+00 0.0000000000000000e+00  1.1505892973996954e+01 5.3705887019493961e+00 0.0000000000000000e+00  8.5722373308337492e+00 4.4926823980353054e+00 0.0000000000000000e+00  6.3409416996859322e+00 3.5527769274786158e+00 0.0000000000000000e+00  4.6802800304439058e+00 2.7259945488306405e+00 0.0000000000000000e+00  3.4526653220760446e+00 2.0572403720760750e+00 0.0000000000000000e+00  2.5468465659508719e+00 1.5381832547817031e+00 0.0000000000000000e+00  1.8787106317542825e+00 1.1439850565181016e+00 0.0000000000000000e+00  1.3858859714591647e+00 8.4816943904187969e-01 0.0000000000000000e+00  1.0223505362942187e+00 6.2768080107763047e-01 0.0000000000000000e+00  7.5417492147927545e-01 4.6398339624268498e-01 0.0000000000000000e+00  5.5634162166675061e-01 3.4273418256126403e-01 0.0000000000000000e+00  4.1039971331044567e-01 2.5305452266000272e-01 0.0000000000000000e+00  3.0273894501895843e-01 1.8678419735173055e-01 0.0000000000000000e+00  2.2331887990905575e-01 1.3784086184114142e-01 0.0000000000000000e+00  1.6473232248986910e-01 1.0170796790601948e-01 0.0000000000000000e+00  1.2151469471498341e-01 7.5039358980234200e-02 0.0000000000000000e+00  8.9634606253914548e-02 5.5359543315615094e-02 0.0000000000000000e+00  6.6118022029619458e-02 4.0838842761536154e-02 0.0000000000000000e+00  4.8770975802480007e-02 3.0125737265838688e-02 0.0000000000000000e+00  3.5974989220976625e-02 2.2222317813144307e-02 0.0000000000000000e+00  2.6536135356900071e-02 1.6391977631450880e-02 0.0000000000000000e+00  1.9573683105912194e-02 1.2091098995897722e-02 0.0000000000000000e+00  1.4437945121904407e-02 8.9185478318094327e-03 0.0000000000000000e+00  1.0649671981488820e-02 6.5783589030417103e-03 0.0000000000000000e+00  7.8553425255108462e-03 4.8521792648183355e-03 0.0000000000000000e+00  5.7941815802410044e-03 3.5789246540925816e-03 0.0000000000000000e+00  4.2738293115197152e-03 2.6397642835875750e-03 0.0000000000000000e+00  3.1523930062290636e-03 1.9470402607357901e-03 0.0000000000000000e+00  2.3252071743436677e-03 1.4360915798666753e-03 0.0000000000000000e+00  1.7150669318004455e-03 1.0592218425439465e-03 0.0000000000000000e+00  1.2650235571836494e-03 7.8124891953974720e-04 0.0000000000000000e+00  9.3307009690099421e-04 5.7622185860685513e-04 0.0000000000000000e+00  6.8822119778566841e-04 4.2499898037590860e-04 0.0000000000000000e+00  5.0762140846207806e-04 3.1346131512873351e-04 0.0000000000000000e+00  3.7441213823584206e-04 2.3119473994849963e-04 0.0000000000000000e+00  2.7615824198577813e-04 1.7051787083829787e-04 0.0000000000000000e+00  2.0368741263306466e-04 1.2576500743785918e-04 0.0000000000000000e+00  1.50234079