<?xml version="1.0"?>
<VTKFile type="UnstructuredGrid"  version="0.1"  >
<UnstructuredGrid>
<Piece  NumberOfPoints="1369" NumberOfCells="2560">
<Points>
<DataArray  type="Float64"  NumberOfComponents="3"  format="ascii">0 0 0  0.75 0 0  1.5 0 0  2.25 0 0  3 0 0  3.75 0 0  4.5 0 0  5.25 0 0  6 0 0  6.75 0 0  7.5 0 0  8.25 0 0  9 0 0  9.75 0 0  10.5 0 0  11.25 0 0  12 0 0  12.75 0 0  13.5 0 0  14.25 0 0  15 0 0  15.75 0 0  16.5 0 0  17.25 0 0  18 0 0  18.75 0 0  19.5 0 0  20.25 0 0  21 0 0  21.75 0 0  22.5 0 0  23.25 0 0  24 0 0  24.75 0 0  25.5 0 0  26.25 0 0  27 0 0  27.75 0 0  28.5 0 0  29.25 0 0  30 0 0  30.75 0 0  31.5 0 0  32.25 0 0  33 0 0  33.75 0 0  34.5 0 0  35.25 0 0  36 0 0  36.75 0 0  37.5 0 0  38.25 0 0  39 0 0  39.75 0 0  40.5 0 0  41.25 0 0  42 0 0  42.75 0 0  43.5 0 0  44.25 0 0  45 0 0  45.75 0 0  46.5 0 0  47.25 0 0  48 0 0  48.75 0 0  49.5 0 0  50.25 0 0  51 0 0  51.75 0 0  52.5 0 0  53.25 0 0  54 0 0  54.75 0 0  55.5 0 0  56.25 0 0  57 0 0  57.75 0 0  58.5 0 0  59.25 0 0  60 0 0  0 0.5 0  0.75 0.5 0  1.5 0.5 0  2.25 0.5 0  3 0.5 0  3.75 0.5 0  4.5 0.5 0  5.25 0.5 0  6 0.5 0  6.75 0.5 0  7.5 0.5 0  8.25 0.5 0  9 0.5 0  9.75 0.5 0  10.5 0.5 0  11.25 0.5 0  12 0.5 0  12.75 0.5 0  13.5 0.5 0  14.25 0.5 0  15 0.5 0  15.75 0.5 0  16.5 0.5 0  17.25 0.5 0  18 0.5 0  18.75 0.5 0  19.5 0.5 0  20.25 0.5 0  21 0.5 0  21.75 0.5 0  22.5 0.5 0  23.25 0.5 0  24 0.5 0  24.75 0.5 0  25.5 0.5 0  26.25 0.5 0  27 0.5 0  27.75 0.5 0  28.5 0.5 0  29.25 0.5 0  30 0.5 0  30.75 0.5 0  31.5 0.5 0  32.25 0.5 0  33 0.5 0  33.75 0.5 0  34.5 0.5 0  35.25 0.5 0  36 0.5 0  36.75 0.5 0  37.5 0.5 0  38.25 0.5 0  39 0.5 0  39.75 0.5 0  40.5 0.5 0  41.25 0.5 0  42 0.5 0  42.75 0.5 0  43.5 0.5 0  44.25 0.5 0  45 0.5 0  45.75 0.5 0  46.5 0.5 0  47.25 0.5 0  48 0.5 0  48.75 0.5 0  49.5 0.5 0  50.25 0.5 0  51 0.5 0  51.75 0.5 0  52.5 0.5 0  53.25 0.5 0  54 0.5 0  54.75 0.5 0  55.5 0.5 0  56.25 0.5 0  57 0.5 0  57.75 0.5 0  58.5 0.5 0  59.25 0.5 0  60 0.5 0  0 1 0  0.75 1 0  1.5 1 0  2.25 1 0  3 1 0  3.75 1 0  4.5 1 0  5.25 1 0  6 1 0  6.75 1 0  7.5 1 0  8.25 1 0  9 1 0  9.75 1 0  10.5 1 0  11.25 1 0  12 1 0  12.75 1 0  13.5 1 0  14.25 1 0  15 1 0  15.75 1 0  16.5 1 0  17.25 1 0  18 1 0  18.75 1 0  19.5 1 0  20.25 1 0  21 1 0  21.75 1 0  22.5 1 0  23.25 1 0  24 1 0  24.75 1 0  25.5 1 0  26.25 1 0  27 1 0  27.75 1 0  28.5 1 0  29.25 1 0  30 1 0  30.75 1 0  31.5 1 0  32.25 1 0  33 1 0  33.75 1 0  34.5 1 0  35.25 1 0  36 1 0  36.75 1 0  37.5 1 0  38.25 1 0  39 1 0  39.75 1 0  40.5 1 0  41.25 1 0  42 1 0  42.75 1 0  43.5 1 0  44.25 1 0  45 1 0  45.75 1 0  46.5 1 0  47.25 1 0  48 1 0  48.75 1 0  49.5 1 0  50.25 1 0  51 1 0  51.75 1 0  52.5 1 0  53.25 1 0  54 1 0  54.75 1 0  55.5 1 0  56.25 1 0  57 1 0  57.75 1 0  58.5 1 0  59.25 1 0  60 1 0  0 1.5 0  0.75 1.5 0  1.5 1.5 0  2.25 1.5 0  3 1.5 0  3.75 1.5 0  4.5 1.5 0  5.25 1.5 0  6 1.5 0  6.75 1.5 0  7.5 1.5 0  8.25 1.5 0  9 1.5 0  9.75 1.5 0  10.5 1.5 0  11.25 1.5 0  12 1.5 0  12.75 1.5 0  13.5 1.5 0  14.25 1.5 0  15 1.5 0  15.75 1.5 0  16.5 1.5 0  17.25 1.5 0  18 1.5 0  18.75 1.5 0  19.5 1.5 0  20.25 1.5 0  21 1.5 0  21.75 1.5 0  22.5 1.5 0  23.25 1.5 0  24 1.5 0  24.75 1.5 0  25.5 1.5 0  26.25 1.5 0  27 1.5 0  27.75 1.5 0  28.5 1.5 0  29.25 1.5 0  30 1.5 0  30.75 1.5 0  31.5 1.5 0  32.25 1.5 0  33 1.5 0  33.75 1.5 0  34.5 1.5 0  35.25 1.5 0  36 1.5 0  36.75 1.5 0  37.5 1.5 0  38.25 1.5 0  39 1.5 0  39.75 1.5 0  40.5 1.5 0  41.25 1.5 0  42 1.5 0  42.75 1.5 0  43.5 1.5 0  44.25 1.5 0  45 1.5 0  45.75 1.5 0  46.5 1.5 0  47.25 1.5 0  48 1.5 0  48.75 1.5 0  49.5 1.5 0  50.25 1.5 0  51 1.5 0  51.75 1.5 0  52.5 1.5 0  53.25 1.5 0  54 1.5 0  54.75 1.5 0  55.5 1.5 0  56.25 1.5 0  57 1.5 0  57.75 1.5 0  58.5 1.5 0  59.25 1.5 0  60 1.5 0  0 2 0  0.75 2 0  1.5 2 0  2.25 2 0  3 2 0  3.75 2 0  4.5 2 0  5.25 2 0  6 2 0  6.75 2 0  7.5 2 0  8.25 2 0  9 2 0  9.75 2 0  10.5 2 0  11.25 2 0  12 2 0  12.75 2 0  13.5 2 0  14.25 2 0  15 2 0  15.75 2 0  16.5 2 0  17.25 2 0  18 2 0  18.75 2 0  19.5 2 0  20.25 2 0  21 2 0  21.75 2 0  22.5 2 0  23.25 2 0  24 2 0  24.75 2 0  25.5 2 0  26.25 2 0  27 2 0  27.75 2 0  28.5 2 0  29.25 2 0  30 2 0  30.75 2 0  31.5 2 0  32.25 2 0  33 2 0  33.75 2 0  34.5 2 0  35.25 2 0  36 2 0  36.75 2 0  37.5 2 0  38.25 2 0  39 2 0  39.75 2 0  40.5 2 0  41.25 2 0  42 2 0  42.75 2 0  43.5 2 0  44.25 2 0  45 2 0  45.75 2 0  46.5 2 0  47.25 2 0  48 2 0  48.75 2 0  49.5 2 0  50.25 2 0  51 2 0  51.75 2 0  52.5 2 0  53.25 2 0  54 2 0  54.75 2 0  55.5 2 0  56.25 2 0  57 2 0  57.75 2 0  58.5 2 0  59.25 2 0  60 2 0  0 2.5 0  0.75 2.5 0  1.5 2.5 0  2.25 2.5 0  3 2.5 0  3.75 2.5 0  4.5 2.5 0  5.25 2.5 0  6 2.5 0  6.75 2.5 0  7.5 2.5 0  8.25 2.5 0  9 2.5 0  9.75 2.5 0  10.5 2.5 0  11.25 2.5 0  12 2.5 0  12.75 2.5 0  13.5 2.5 0  14.25 2.5 0  15 2.5 0  15.75 2.5 0  16.5 2.5 0  17.25 2.5 0  18 2.5 0  18.75 2.5 0  19.5 2.5 0  20.25 2.5 0  21 2.5 0  21.75 2.5 0  22.5 2.5 0  23.25 2.5 0  24 2.5 0  24.75 2.5 0  25.5 2.5 0  26.25 2.5 0  27 2.5 0  27.75 2.5 0  28.5 2.5 0  29.25 2.5 0  30 2.5 0  30.75 2.5 0  31.5 2.5 0  32.25 2.5 0  33 2.5 0  33.75 2.5 0  34.5 2.5 0  35.25 2.5 0  36 2.5 0  36.75 2.5 0  37.5 2.5 0  38.25 2.5 0  39 2.5 0  39.75 2.5 0  40.5 2.5 0  41.25 2.5 0  42 2.5 0  42.75 2.5 0  43.5 2.5 0  44.25 2.5 0  45 2.5 0  45.75 2.5 0  46.5 2.5 0  47.25 2.5 0  48 2.5 0  48.75 2.5 0  49.5 2.5 0  50.25 2.5 0  51 2.5 0  51.75 2.5 0  52.5 2.5 0  53.25 2.5 0  54 2.5 0  54.75 2.5 0  55.5 2.5 0  56.25 2.5 0  57 2.5 0  57.75 2.5 0  58.5 2.5 0  59.25 2.5 0  60 2.5 0  0 3 0  0.75 3 0  1.5 3 0  2.25 3 0  3 3 0  3.75 3 0  4.5 3 0  5.25 3 0  6 3 0  6.75 3 0  7.5 3 0  8.25 3 0  9 3 0  9.75 3 0  10.5 3 0  11.25 3 0  12 3 0  12.75 3 0  13.5 3 0  14.25 3 0  15 3 0  15.75 3 0  16.5 3 0  17.25 3 0  18 3 0  18.75 3 0  19.5 3 0  20.25 3 0  21 3 0  21.75 3 0  22.5 3 0  23.25 3 0  24 3 0  24.75 3 0  25.5 3 0  26.25 3 0  27 3 0  27.75 3 0  28.5 3 0  29.25 3 0  30 3 0  30.75 3 0  31.5 3 0  32.25 3 0  33 3 0  33.75 3 0  34.5 3 0  35.25 3 0  36 3 0  36.75 3 0  37.5 3 0  38.25 3 0  39 3 0  39.75 3 0  40.5 3 0  41.25 3 0  42 3 0  42.75 3 0  43.5 3 0  44.25 3 0  45 3 0  45.75 3 0  46.5 3 0  47.25 3 0  48 3 0  48.75 3 0  49.5 3 0  50.25 3 0  51 3 0  51.75 3 0  52.5 3 0  53.25 3 0  54 3 0  54.75 3 0  55.5 3 0  56.25 3 0  57 3 0  57.75 3 0  58.5 3 0  59.25 3 0  60 3 0  0 3.5 0  0.75 3.5 0  1.5 3.5 0  2.25 3.5 0  3 3.5 0  3.75 3.5 0  4.5 3.5 0  5.25 3.5 0  6 3.5 0  6.75 3.5 0  7.5 3.5 0  8.25 3.5 0  9 3.5 0  9.75 3.5 0  10.5 3.5 0  11.25 3.5 0  12 3.5 0  12.75 3.5 0  13.5 3.5 0  14.25 3.5 0  15 3.5 0  15.75 3.5 0  16.5 3.5 0  17.25 3.5 0  18 3.5 0  18.75 3.5 0  19.5 3.5 0  20.25 3.5 0  21 3.5 0  21.75 3.5 0  22.5 3.5 0  23.25 3.5 0  24 3.5 0  24.75 3.5 0  25.5 3.5 0  26.25 3.5 0  27 3.5 0  27.75 3.5 0  28.5 3.5 0  29.25 3.5 0  30 3.5 0  30.75 3.5 0  31.5 3.5 0  32.25 3.5 0  33 3.5 0  33.75 3.5 0  34.5 3.5 0  35.25 3.5 0  36 3.5 0  36.75 3.5 0  37.5 3.5 0  38.25 3.5 0  39 3.5 0  39.75 3.5 0  40.5 3.5 0  41.25 3.5 0  42 3.5 0  42.75 3.5 0  43.5 3.5 0  44.25 3.5 0  45 3.5 0  45.75 3.5 0  46.5 3.5 0  47.25 3.5 0  48 3.5 0  48.75 3.5 0  49.5 3.5 0  50.25 3.5 0  51 3.5 0  51.75 3.5 0  52.5 3.5 0  53.25 3.5 0  54 3.5 0  54.75 3.5 0  55.5 3.5 0  56.25 3.5 0  57 3.5 0  57.75 3.5 0  58.5 3.5 0  59.25 3.5 0  60 3.5 0  0 4 0  0.75 4 0  1.5 4 0  2.25 4 0  3 4 0  3.75 4 0  4.5 4 0  5.25 4 0  6 4 0  6.75 4 0  7.5 4 0  8.25 4 0  9 4 0  9.75 4 0  10.5 4 0  11.25 4 0  12 4 0  12.75 4 0  13.5 4 0  14.25 4 0  15 4 0  15.75 4 0  16.5 4 0  17.25 4 0  18 4 0  18.75 4 0  19.5 4 0  20.25 4 0  21 4 0  21.75 4 0  22.5 4 0  23.25 4 0  24 4 0  24.75 4 0  25.5 4 0  26.25 4 0  27 4 0  27.75 4 0  28.5 4 0  29.25 4 0  30 4 0  30.75 4 0  31.5 4 0  32.25 4 0  33 4 0  33.75 4 0  34.5 4 0  35.25 4 0  36 4 0  36.75 4 0  37.5 4 0  38.25 4 0  39 4 0  39.75 4 0  40.5 4 0  41.25 4 0  42 4 0  42.75 4 0  43.5 4 0  44.25 4 0  45 4 0  45.75 4 0  46.5 4 0  47.25 4 0  48 4 0  48.75 4 0  49.5 4 0  50.25 4 0  51 4 0  51.75 4 0  52.5 4 0  53.25 4 0  54 4 0  54.75 4 0  55.5 4 0  56.25 4 0  57 4 0  57.75 4 0  58.5 4 0  59.25 4 0  60 4 0  0.375 0.25 0  1.125 0.25 0  1.875 0.25 0  2.625 0.25 0  3.375 0.25 0  4.125 0.25 0  4.875 0.25 0  5.625 0.25 0  6.375 0.25 0  7.125 0.25 0  7.875 0.25 0  8.625 0.25 0  9.375 0.25 0  10.125 0.25 0  10.875 0.25 0  11.625 0.25 0  12.375 0.25 0  13.125 0.25 0  13.875 0.25 0  14.625 0.25 0  15.375 0.25 0  16.125 0.25 0  16.875 0.25 0  17.625 0.25 0  18.375 0.25 0  19.125 0.25 0  19.875 0.25 0  20.625 0.25 0  21.375 0.25 0  22.125 0.25 0  22.875 0.25 0  23.625 0.25 0  24.375 0.25 0  25.125 0.25 0  25.875 0.25 0  26.625 0.25 0  27.375 0.25 0  28.125 0.25 0  28.875 0.25 0  29.625 0.25 0  30.375 0.25 0  31.125 0.25 0  31.875 0.25 0  32.625 0.25 0  33.375 0.25 0  34.125 0.25 0  34.875 0.25 0  35.625 0.25 0  36.375 0.25 0  37.125 0.25 0  37.875 0.25 0  38.625 0.25 0  39.375 0.25 0  40.125 0.25 0  40.875 0.25 0  41.625 0.25 0  42.375 0.25 0  43.125 0.25 0  43.875 0.25 0  44.625 0.25 0  45.375 0.25 0  46.125 0.25 0  46.875 0.25 0  47.625 0.25 0  48.375 0.25 0  49.125 0.25 0  49.875 0.25 0  50.625 0.25 0  51.375 0.25 0  52.125 0.25 0  52.875 0.25 0  53.625 0.25 0  54.375 0.25 0  55.125 0.25 0  55.875 0.25 0  56.625 0.25 0  57.375 0.25 0  58.125 0.25 0  58.875 0.25 0  59.625 0.25 0  0.375 0.75 0  1.125 0.75 0  1.875 0.75 0  2.625 0.75 0  3.375 0.75 0  4.125 0.75 0  4.875 0.75 0  5.625 0.75 0  6.375 0.75 0  7.125 0.75 0  7.875 0.75 0  8.625 0.75 0  9.375 0.75 0  10.125 0.75 0  10.875 0.75 0  11.625 0.75 0  12.375 0.75 0  13.125 0.75 0  13.875 0.75 0  14.625 0.75 0  15.375 0.75 0  16.125 0.75 0  16.875 0.75 0  17.625 0.75 0  18.375 0.75 0  19.125 0.75 0  19.875 0.75 0  20.625 0.75 0  21.375 0.75 0  22.125 0.75 0  22.875 0.75 0  23.625 0.75 0  24.375 0.75 0  25.125 0.75 0  25.875 0.75 0  26.625 0.75 0  27.375 0.75 0  28.125 0.75 0  28.875 0.75 0  29.625 0.75 0  30.375 0.75 0  31.125 0.75 0  31.875 0.75 0  32.625 0.75 0  33.375 0.75 0  34.125 0.75 0  34.875 0.75 0  35.625 0.75 0  36.375 0.75 0  37.125 0.75 0  37.875 0.75 0  38.625 0.75 0  39.375 0.75 0  40.125 0.75 0  40
[...]
<PointData  Vectors="f_8-0"> 
<DataArray  type="Float64"  Name="f_8-0"  NumberOfComponents="3" format="ascii">6.9123915517748849e-08 -5.6296708541505514e-08 0.0000000000000000e+00  0.0000000000000000e+00 0.0000000000000000e+00 0.0000000000000000e+00  -4.8383301035237268e-06 -2.3680838104339432e-06 0.0000000000000000e+00  0.0000000000000000e+00 0.0000000000000000e+00 0.0000000000000000e+00  0.0000000000000000e+00 1.6508330863639745e-07 0.0000000000000000e+00  -5.9109306565649141e-06 1.2128655291956851e-05 0.0000000000000000e+00  3.3468923459707779e-06 0.0000000000000000e+00 0.0000000000000000e+00  7.7894418202154784e-06 1.1672702305628149e-05 0.0000000000000000e+00  -1.3018283430818162e-06 -1.0715830927277213e-06 0.0000000000000000e+00  -5.6770427737738273e-06 -2.8969249250708912e-07 0.0000000000000000e+00  4.4827690703692813e-06 1.4155941851676850e-06 0.0000000000000000e+00  -6.1557193147819094e-06 -1.4783291077835206e-07 0.0000000000000000e+00  -2.5174364224246151e-06 -6.2275622782835850e-06 0.0000000000000000e+00  -7.0521122724249813e-06 -2.3279540424204764e-06 0.0000000000000000e+00  -1.1697601987809006e-05 2.2004848643036732e-05 0.0000000000000000e+00  0.0000000000000000e+00 0.0000000000000000e+00 0.0000000000000000e+00  0.0000000000000000e+00 0.0000000000000000e+00 0.0000000000000000e+00  -9.3307047279939480e-08 -9.7362257576492412e-08 0.0000000000000000e+00  -9.7265473981207786e-07 -5.7310374000092420e-06 0.0000000000000000e+00  3.3284742115671305e-05 1.6301249398111291e-06 0.0000000000000000e+00  -1.1542809823434142e-05 -1.7513766446244714e-05 0.0000000000000000e+00  0.0000000000000000e+00 0.0000000000000000e+00 0.0000000000000000e+00  0.0000000000000000e+00 -1.6031017934938118e-08 0.0000000000000000e+00  0.0000000000000000e+00 0.0000000000000000e+00 0.0000000000000000e+00  -8.1749132833072022e-06 -1.2309204136766248e-05 0.0000000000000000e+00  1.2240450055256009e-05 -2.1677544198796186e-07 0.0000000000000000e+00  7.5756496801186104e-07 0.0000000000000000e+00 0.0000000000000000e+00  -1.8624801587908276e-06 1.0279306232017267e-05 0.0000000000000000e+00  0.0000000000000000e+00 0.0000000000000000e+00 0.0000000000000000e+00  0.0000000000000000e+00 -2.2707646854202199e-07 0.0000000000000000e+00  0.0000000000000000e+00 0.0000000000000000e+00 0.0000000000000000e+00  1.5096984355793991e-05 6.6515409912632874e-06 0.0000000000000000e+00  0.0000000000000000e+00 -1.1781700574762979e-07 0.0000000000000000e+00  1.1974148200195732e-06 -1.0564601898957940e-07 0.0000000000000000e+00  0.0000000000000000e+00 -7.1331088022620485e-08 0.0000000000000000e+00  0.0000000000000000e+00 0.0000000000000000e+00 0.0000000000000000e+00  0.0000000000000000e+00 0.0000000000000000e+00 0.0000000000000000e+00  5.9931642417331839e-07 7.9576918013847328e-06 0.0000000000000000e+00  0.0000000000000000e+00 0.0000000000000000e+00 0.0000000000000000e+00  5.4647028534751555e-06 7.8306739899616376e-07 0.0000000000000000e+00  4.6973917179899099e-05 -6.5367893248202579e-06 0.0000000000000000e+00  0.0000000000000000e+00 6.5718251914427273e-07 0.0000000000000000e+00  -1.7666494500176094e-06 -1.3277696248494012e-06 0.0000000000000000e+00  0.0000000000000000e+00 0.0000000000000000e+00 0.0000000000000000e+00  0.0000000000000000e+00 0.0000000000000000e+00 0.0000000000000000e+00  1.4168046974744301e-07 -5.4094752429021255e-07 0.0000000000000000e+00  -1.3710014305905320e-07 -3.6209522300496211e-07 0.0000000000000000e+00  0.0000000000000000e+00 1.1062752721058405e-07 0.0000000000000000e+00  2.1717097487969082e-05 8.0353755915510877e-07 0.0000000000000000e+00  7.9921949276937780e-07 2.0732958331367193e-06 0.0000000000000000e+00  0.0000000000000000e+00 0.0000000000000000e+00 0.0000000000000000e+00  0.0000000000000000e+00 4.0940820653499026e-08 0.0000000000000000e+00  0.0000000000000000e+00 0.0000000000000000e+00 0.0000000000000000e+00  0.0000000000000000e+00 0.0000000000000000e+00 0.0000000000000000e+00  1.2496816864769125e-05 9.7746433057908681e-06 0.0000000000000000e+00  9.5288923504716482e-06 2.9191823066988716e-05 0.0000000000000000e+00  1.6604661146075521e-05 -4.8445284941274795e-06 0.0000000000000000e+00  -3.5707207449649711e-07 6.7204811887927368e-08 0.0000000000000000e+00  -1.6762237967919878e-05 -1.1356265662572110e-08 0.0000000000000000e+00  -9.4749884127038681e-06 2.7800954393948408e-05 0.0000000000000000e+00  -2.1067342539637707e-05 -5.5067843756617717e-06 0.0000000000000000e+00  -1.3090658778810533e-06 1.8408353343746626e-07 0.0000000000000000e+00  0.0000000000000000e+00 0.0000000000000000e+00 0.0000000000000000e+00  -7.4651969729028471e-06 -5.1911239894690274e-06 0.0000000000000000e+00  1.3272711993011668e-06 5.6627672366006399e-06 0.0000000000000000e+00  0.0000000000000000e+00 2.2874162359091229e-08 0.0000000000000000e+00  4.8936355437082397e-06 -3.9868584443896448e-06 0.0000000000000000e+00  2.8173138808883356e-07 6.4015884959782541e-05 0.0000000000000000e+00  -3.3708003616898189e-06 -8.0374702442330143e-06 0.0000000000000000e+00  0.0000000000000000e+00 0.0000000000000000e+00 0.0000000000000000e+00  0.0000000000000000e+00 4.1671591593315787e-07 0.0000000000000000e+00  0.0000000000000000e+00 0.0000000000000000e+00 0.0000000000000000e+00  0.0000000000000000e+00 0.0000000000000000e+00 0.0000000000000000e+00  -1.6158955273138255e-06 -3.3156001568999304e-06 0.0000000000000000e+00  0.0000000000000000e+00 0.0000000000000000e+00 0.0000000000000000e+00  0.0000000000000000e+00 0.0000000000000000e+00 0.0000000000000000e+00  0.0000000000000000e+00 1.1585747462182211e-07 0.0000000000000000e+00  0.0000000000000000e+00 0.0000000000000000e+00 0.0000000000000000e+00  0.0000000000000000e+00 0.0000000000000000e+00 0.0000000000000000e+00  0.0000000000000000e+00 0.0000000000000000e+00 0.0000000000000000e+00  -9.1876391311141920e-08 -1.2530865471087800e-07 0.0000000000000000e+00  1.4159396509197074e+08 1.1013580805778997e-07 0.0000000000000000e+00  1.7359057244706735e+08 -1.6901858188534221e+08 0.0000000000000000e+00  6.7345471757927313e+07 4.6823844727930345e+07 0.0000000000000000e+00  -1.7013619569610763e+07 -3.7544455612914287e+07 0.0000000000000000e+00  -6.4053205468500480e+07 -4.2309463139829300e+06 0.0000000000000000e+00  -3.1470155017413277e+07 9.5362976274290875e+07 0.0000000000000000e+00  -8.4552246874287680e+07 -2.5560021848321509e+08 0.0000000000000000e+00  -4.4124150907002017e+07 -2.9131629671405452e+08 0.0000000000000000e+00  1.4950541000961825e+08 9.0213467604178324e+07 0.0000000000000000e+00  1.2147130358672058e+06 2.1053650040964717e+08 0.0000000000000000e+00  5.2248609342863269e+07 -1.7018950006345981e+08 0.0000000000000000e+00  3.2841068442510180e+07 2.5982227821903336e+08 0.0000000000000000e+00  4.8140988841393761e+07 -3.4527275132776201e+08 0.0000000000000000e+00  1.5170960762229566e+07 -1.1650213114614485e+08 0.0000000000000000e+00  -1.3563121100691071e+08 -1.3963061502586934e+08 0.0000000000000000e+00  2.1990068722401425e+08 -8.2332570586684272e+07 0.0000000000000000e+00  -1.0869824033864670e+08 1.6184096487869143e+08 0.0000000000000000e+00  -6.4071881999378026e+07 -1.6294863025420535e+08 0.0000000000000000e+00  -7.1768091654726937e+07 -3.2522139634504989e+07 0.0000000000000000e+00  -1.2486054760104717e+08 -1.0031337349655989e+08 0.0000000000000000e+00  1.6552370384768975e+08 2.3695844491524735e+08 0.0000000000000000e+00  2.7625929424324954e+08 -2.3613773637709585e+08 0.0000000000000000e+00  3.0389188531386566e+08 1.1781718048743213e+07 0.0000000000000000e+00  -1.3362220499768132e+08 -1.0535416905288747e+07 0.0000000000000000e+00  -4.6596667943760045e+06 -1.7003812700508002e+07 0.0000000000000000e+00  1.3894948967640442e+08 -7.3984576011849552e+07 0.0000000000000000e+00  -6.2491457959062018e+07 2.1945597144922450e+08 0.0000000000000000e+00  5.6272018595761079e+06 1.0340996680380641e+08 0.0000000000000000e+00  -2.1001622422489172e+08 -9.5296726952150330e+07 0.0000000000000000e+00  1.4456331442507911e+08 -8.2738194220957652e+07 0.0000000000000000e+00  -4.5168505507305011e+07 -2.3493397802398974e+08 0.0000000000000000e+00  1.1941656349468775e+08 -8.9326936667871892e+07 0.0000000000000000e+00  -5.7773161919552758e+07 2.4248180499279734e+07 0.0000000000000000e+00  -1.3058497576548116e+08 6.1833249443280709e+08 0.0000000000000000e+00  3.2654502192291099e+08 -2.6884042082182473e+08 0.0000000000000000e+00  2.0637749529479554e+08 -2.0975959193278369e+08 0.0000000000000000e+00  5.7259765463908303e+08 3.4200887752599072e+08 0.0000000000000000e+00  -2.0141330064028865e+08 -2.7934073367631322e+08 0.0000000000000000e+00  -3.5161374094813752e+08 -8.0330820874306202e+07 0.0000000000000000e+00  -3.8530952386969614e+08 -2.1837064281776059e+08 0.0000000000000000e+00  1.1409115739985667e+07 -2.8654899344104415e+08 0.0000000000000000e+00  -2.3314622814456898e+08 3.4793353703288841e+08 0.0000000000000000e+00  1.6426907929525070e+07 4.1233226920580147e+06 0.0000000000000000e+00  -4.4607062359424800e+07 1.5215180853284085e+08 0.0000000000000000e+00  -3.5301407003102034e+07 -4.6903158061138123e+07 0.0000000000000000e+00  2.3071134333548456e+08 5.0500033539078809e+07 0.0000000000000000e+00  5.4414196358440500e+06 -1.5293694509927431e+08 0.0000000000000000e+00  3.9674800819793411e+07 3.5234754438941181e+07 0.0000000000000000e+00  1.1167083973801526e+08 -1.7028493106766555e+08 0.0000000000000000e+00  -4.8069617149883375e+07 1.5994407059945425e+08 0.0000000000000000e+00  1.2758075860088299e+08 -2.2336610881228882e+08 0.0000000000000000e+00  9.3006267808963403e+07 6.8390422257996261e+07 0.0000000000000000e+00  -1.0185405791015352e+08 2.8822056001728749e+08 0.0000000000000000e+00  4.5774853372196175e+07 -1.8961666803979257e+08 0.0000000000000000e+00  1.7680336398696056e+08 -8.8940835133160904e+07 0.0000000000000000e+00  5.9423888868986584e+07 3.6553308811074071e+07 0.0000000000000000e+00  -2.0293001595596392e+07 -6.3449340751447365e+07 0.0000000000000000e+00  -2.8036463629510170e+08 2.2686031214628446e+08 0.0000000000000000e+00  1.1813480145142546e+08 -6.9294941207521066e+07 0.0000000000000000e+00  4.5121781066205293e+07 1.9002479139714614e+08 0.0000000000000000e+00  -5.2226143340206033e+08 -6.0404349766255990e+07 0.0000000000000000e+00  -1.0006483166859601e+08 -1.8487731585197892e+07 0.0000000000000000e+00  -5.6466341576048516e+07 1.7672097874486335e+07 0.0000000000000000e+00  -5.7126034277311996e+07 -1.8366520011137582e+07 0.0000000000000000e+00  -3.4813254068701915e+07 2.8123576020464633e+07 0.0000000000000000e+00  1.3792594034150356e+08 9.6048412387276977e+07 0.0000000000000000e+00  2.1841974365178827e+07 -2.1354614275193149e+08 0.0000000000000000e+00  -3.4581659211611219e+07 1.0087871768106584e+07 0.0000000000000000e+00  -2.3913479440479629e+07 -1.6931444194178175e+07 0.0000000000000000e+00  2.2084139620143387e+08 -2.9700198021433946e+07 0.0000000000000000e+00  3.6913984714100415e+08 4.1763189947702453e+07 0.0000000000000000e+00  -8.6182338035855725e+07 -2.0599256889528218e+08 0.0000000000000000e+00  -2.6953576407476163e+08 1.7812536349374633e+07 0.0000000000000000e+00  1.6995708993032491e+08 -4.0793746439927691e+08 0.0000000000000000e+00  6.7615019802205801e+07 2.7068063722064060e+08 0.0000000000000000e+00  -1.7602807141641647e+08 -6.2433366331064665e+08 0.0000000000000000e+00  -2.2287947495657605e+08 9.9812041292541832e+07 0.0000000000000000e+00  -2.1807266380081940e+08 -4.7001924301657900e+07 0.0000000000000000e+00  -4.0714222246285582e+08 1.2669305846550508e+08 0.0000000000000000e+00  -2.7387510647843152e+08 9.2051145802947611e+07 0.0000000000000000e+00  -3.1382374835066491e+08 0.0000000000000000e+00 0.0000000000000000e+00  -1.8292633043392727e+08 0.0000000000000000e+00 0.0000000000000000e+00  -9.3390863048330739e+07 -9.2497260340990677e+07 0.0000000000000000e+00  -1.2786975042481679e+08 -1.0165983620177241e+08 0.0000000000000000e+00  -2.2770833315693390e+08 -2.6489153466210663e+08 0.0000000000000000e+00  8.5321189246432006e+07 -7.1692980358655050e+07 0.0000000000000000e+00  4.0693488459087409e+07 1.6395765653149756e+07 0.0000000000000000e+00  1.3232846950103469e+08 4.9973652841976464e+07 0.0000000000000000e+00  2.2208043232235745e+08 1.2375688167897962e+08 0.0000000000000000e+00  8.1030557688758671e+07 4.2715024006439887e+07 0.0000000000000000e+00  8.9908599662649825e+07 1.7845652529981351e+08 0.0000000000000000e+00  -1.1074649552204214e+07 -2.2306062746569115e+08 0.0000000000000000e+00  5.2831341743678167e+07 4.8595941640902072e+07 0.0000000000000000e+00  2.2981337591260210e+07 2.8360161548323298e+08 0.0000000000000000e+00  3.6103289717351630e+07 5.0589493243840709e+07 0.0000000000000000e+00  8.2939936740413845e+07 -2.0095362241959121e+07 0.0000000000000000e+00  1.2444126685708877e+07 1.2998021700646272e+08 0.0000000000000000e+00  9.2352511624738395e+07 8.8111012088455424e+07 0.0000000000000000e+00  -3.1435849246465421e+08 2.4785242335424997e+07 0.0000000000000000e+00  -1.7465071035141623e+08 3.2539275230296487e+08 0.0000000000000000e+00  3.1747618015039723e+07 3.7723681679905593e+07 0.0000000000000000e+00  2.8502845575314766e+08 -4.1567258522380730e+06 0.0000000000000000e+00  -6.3755688260010414e+07 1.1162909787433924e+08 0.0000000000000000e+00  1.5295010390501413e+08 1.5241798073108891e+08 0.0000000000000000e+00  2.8166515622744316e+08 2.4160243323964760e+08 0.0000000000000000e+00  -3.1617313841709081e+07 1.8822400415080392e+08 0.0000000000000000e+00  2.5774497948221204e+08 1.7886583734947018e+07 0.0000000000000000e+00  -1.2224350482268856e+08 -7.4281279276582763e+07 0.0000000000000000e+00  -3.9473066329565251e+08 7.7103860891668111e+07 0.0000000000000000e+00  3.5781073671836257e+08 2.8595774619614393e+08 0.0000000000000000e+00  1.9279094721271232e+08 -4.5012959139660776e+08 0.0000000000000000e+00  5.8076631020470572e+08 2.1797496959733179e+08 0.0000000000000000e+00  3.6175025630674571e+08 -1.1237647183769868e+08 0.0000000000000000e+00  -7.8988127739681304e+07 2.8717183512188381e+08 0.0000000000000000e+00  -3.1807929283607507e+08 3.8100510725313091e+08 0.0000000000000000e+00  -1.7952000398347378e+08 3.7560762454468048e+08 0.0000000000000000e+00  -8.9068641486906081e+07 2.0774403546320033e+08 0.0000000000000000e+00  -3.0904126714322543e+08 -1.1210402384546544e+08 0.0000000000000000e+00  5.8675973268764846e+07 -5.4451369452948481e+07 0.0000000000000000e+00  -6.1494656970788918e+07 -1.5968690315227816e+08 0.0000000000000000e+00  -2.5114582144953546e+08 -2.8170762795023090e+08 0.0000000000000000e+00  1.8443895198530827e+07 -2.2559449471109048e+08 0.0000000000000000e+00  3.4086048473216826e+08 4.1236737864944227e+07 0.0000000000000000e+00  6.9739721151215985e+07 2.6749598353970286e+07 0.0000000000000000e+00  8.9341367780945018e+07 2.2161522851123087e+07 0.0000000000000000e+00  1.0923405932669407e+08 2.3472161871330518e+07 0.0000000000000000e+00  2.1176396983597845e+08 -8.6487074131588936e+07 0.0000000000000000e+00  9.8399327303534105e+07 -3.2608300256877679e+08 0.0000000000000000e+00  5.7136589505557068e+07 -4.7772096844672419e+07 0.0000000000000000e+00  -3.4221473357202247e+07 3.4438878920900308e+07 0.0000000000000000e+00  -4.4391716684764899e+07 -1.1407983727403206e+08 0.0000000000000000e+00  8.9256461337973967e+07 -8.4523440094788134e+07 0.0000000000000000e+00  -6.0959450175925240e+07 1.6549986146786179e+07 0.0000000000000000e+00  1.5577235695249718e+08 7.1415348365571350e+07 0.0000000000000000e+00  5.6253210495882511e+07 5.2148359297748439e+07 0.0000000000000000e+00  1.0275708434881276e+08 5.5466486153122567e+07 0.0000000000000000e+00  9.0561194939246207e+07 1.0931237263701249e+07 0.0000000000000000e+00  6.3733180837199293e+07 1.5329261682458574e+07 0.0000000000000000e+00  3.4105413625679508e+07 -1.4131396271919250e+08 0.0000000000000000e+00  -3.6628024157611795e+07 3.3937686785881048e+08 0.0000000000000000e+00  -8.6079798495522350e+07 2.7406355487504143e+08 0.0000000000000000e+00  3.3684672228686199e+07 3.8390850823755050e+08 0.0000000000000000e+00  -2.3028112626290670e+08 -1.6205008340150651e+08 0.0000000000000000e+00  2.1046133616336407e+06 -8.1606223844808713e+07 0.0000000000000000e+00  -7.9496284550926551e+07 3.4558672692937061e+07 0.0000000000000000e+00  -2.9888396501732495e+07 -8.8396070143807113e+07 0.0000000000000000e+00  6.8758263858445525e+07 -1.1693602965506954e+08 0.0000000000000000e+00  -5.8239190134948909e+07 -8.0736191988954827e+07 0.0000000000000000e+00  -7.0666080585419685e+07 9.7635491043722406e+07 0.0000000000000000e+00  7.6457399611758068e+07 1.4835229709807608e+08 0.0000000000000000e+00  9.3996162974322110e+07 -1.2810255316267397e+08 0.0000000000000000e+00  1.0328569872542289e+08 3.2896142034872718e+07 0.0000000000000000e+00  1.8715921726709858e+08 -4.0783311963487089e+07 0.0000000000000000e+00  2.3663263169504413e+08 1.2957114953964479e+08 0.0000000000000000e+00  2.8289023200340545e+08 5.2952633080805920e+07 0.0000000000000000e+00  2.6911808354076546e+08 5.8772098052879520e+07 0.0000000000000000e+00  1.7960108423350561e+08 -8.5388197420063168e+07 0.0000000000000000e+00  2.3164620604639727e+08 -1.3842799545945394e+08 0.0000000000000000e+00  2.9471594289612776e+08 -3.8505638696314967e+08 0.0000000000000000e+00  -5.8372177995083012e+07 1.5331250219370103e+08 0.0000000000000000e+00  -2.1264254914574468e+08 -1.4722979154373565e+08 0.0000000000000000e+00  -5.1753068263611352e+08 1.0971738629789312e-08 0.0000000000000000e+00  -1.2229769880177355e+08 0.0000000000000000e+00 0.0000000000000000e+00  -1.9883240821503031e+08 -1.7941881550122669e+08 0.0000000000000000e+00  -1.1004940746771559e+08 -8.0166741015525619e+06 0.0000000000000000e+00  -5.8017643217122138e+07 -5.7509334488879137e+07 0.0000000000000000e+00  -2.4352213914208412e+08 4.0758849482951008e+07 0.0000000000000000e+00  -7.6370661371364877e+07 2.4766261738686147e+08 0.0000000000000000e+00  1.6137300888438737e+08 2.1831985898243898e+08 0.0000000000000000e+00  2.4016231205500695e+08 9.7455340553731993e+07 0.0000000000000000e+00  8.7411346601169154e+07 -1.9122321431804627e+08 0.0000000000000000e+00  5.8119112717869049e+06 -5.5452361183087736e+07 0.0000000000000000e+00  7.7713045163315013e+07 -5.6536218817888953e+07 0.0000000000000000e+00  8.1528730376672506e+07 1.1926178910369994e+08 0.0000000000000000e+00  -9.7656529782258004e+07 1.6436870082825628e+08 0.0000000000000000e+00  1.5405051774589822e+08 2.3404234795315966e+08 0.0000000000000000e+00  -4.7602341402873166e+07 -3.6295075141273782e+07 0.0000000000000000e+00  1.8449004798066446e+08 6.2564013247849435e+07 0.0000000000000000e+00  -7.9730462993612424e+07 2.3921532642426154e+08 0.0000000000000000e+00  -1.1025115902780507e+07 -2.1901203915525571e+07 0.0000000000000000e+00  3.8783992489705868e+07 4.7518627406943314e+07 0.0000000000000000e+00  -2.2117468426980901e+08 1.1825919225446948e+08 0.0000000000000000e+00  -2.1149866431459081e+08 -1.7460837075573513e+08 0.0000000000000000e+00  -1.0064077598133935e+07 -1.7709847543179892e+07 0.0000000000000000e+00  -1.5009974386187783e+08 1.4180945671162961e+07 0.0000000000000000e+00  -1.1964011262363420e+08 3.5670443325328505e+08 0.0000000000000000e+00  2.1030241702152038e+08 -3.1898306943417752e+08 0.0000000000000000e+00  6.2543164242699541e+07 1.5646560672034645e+08 0.0000000000000000e+00  2.1725142062851006e+08 1.2869701531499948e+08 0.0000000000000000e+00  2.6885637103701186e+08 -7.3918715829906747e+07 0.0000000000000000e+00  -4.1235642024312526e+08 5.5969254637676507e+07 0.0000000000000000e+00  -5.3198028767729521e+07 -2.6243572052299652e+08 0.0000000000000000e+00  1.2746895534434882e+08 -1.6607748660926640e+08 0.0000000000000000e+00  5.1814888050940864e+07 2.6753186275720172e+07 0.0000000000000000e+00  -9.0603554968192413e+07 1.7102425167993400e+08 0.0000000000000000e+00  1.8075806344737208e+08 -6.0839652163477969e+08 0.0000000000000000e+00  1.7383843330816358e+08 1.5001791265106386e+08 0.0000000000000000e+00  -2.5115537911135453e+08 -2.4920189714586961e+08 0.0000000000000000e+00  -1.4138109167487752e+08 3.4737903743877256e+08 0.0000000000000000e+00  -2.0569121340436387e+08 -1.8291315883087251e+07 0.0