<?xml version="1.0"?>
<VTKFile type="UnstructuredGrid"  version="0.1"  >
<UnstructuredGrid>
<Piece  NumberOfPoints="1369" NumberOfCells="2560">
<Points>
<DataArray  type="Float64"  NumberOfComponents="3"  format="ascii">0 0 0  0.75 0 0  1.5 0 0  2.25 0 0  3 0 0  3.75 0 0  4.5 0 0  5.25 0 0  6 0 0  6.75 0 0  7.5 0 0  8.25 0 0  9 0 0  9.75 0 0  10.5 0 0  11.25 0 0  12 0 0  12.75 0 0  13.5 0 0  14.25 0 0  15 0 0  15.75 0 0  16.5 0 0  17.25 0 0  18 0 0  18.75 0 0  19.5 0 0  20.25 0 0  21 0 0  21.75 0 0  22.5 0 0  23.25 0 0  24 0 0  24.75 0 0  25.5 0 0  26.25 0 0  27 0 0  27.75 0 0  28.5 0 0  29.25 0 0  30 0 0  30.75 0 0  31.5 0 0  32.25 0 0  33 0 0  33.75 0 0  34.5 0 0  35.25 0 0  36 0 0  36.75 0 0  37.5 0 0  38.25 0 0  39 0 0  39.75 0 0  40.5 0 0  41.25 0 0  42 0 0  42.75 0 0  43.5 0 0  44.25 0 0  45 0 0  45.75 0 0  46.5 0 0  47.25 0 0  48 0 0  48.75 0 0  49.5 0 0  50.25 0 0  51 0 0  51.75 0 0  52.5 0 0  53.25 0 0  54 0 0  54.75 0 0  55.5 0 0  56.25 0 0  57 0 0  57.75 0 0  58.5 0 0  59.25 0 0  60 0 0  0 0.5 0  0.75 0.5 0  1.5 0.5 0  2.25 0.5 0  3 0.5 0  3.75 0.5 0  4.5 0.5 0  5.25 0.5 0  6 0.5 0  6.75 0.5 0  7.5 0.5 0  8.25 0.5 0  9 0.5 0  9.75 0.5 0  10.5 0.5 0  11.25 0.5 0  12 0.5 0  12.75 0.5 0  13.5 0.5 0  14.25 0.5 0  15 0.5 0  15.75 0.5 0  16.5 0.5 0  17.25 0.5 0  18 0.5 0  18.75 0.5 0  19.5 0.5 0  20.25 0.5 0  21 0.5 0  21.75 0.5 0  22.5 0.5 0  23.25 0.5 0  24 0.5 0  24.75 0.5 0  25.5 0.5 0  26.25 0.5 0  27 0.5 0  27.75 0.5 0  28.5 0.5 0  29.25 0.5 0  30 0.5 0  30.75 0.5 0  31.5 0.5 0  32.25 0.5 0  33 0.5 0  33.75 0.5 0  34.5 0.5 0  35.25 0.5 0  36 0.5 0  36.75 0.5 0  37.5 0.5 0  38.25 0.5 0  39 0.5 0  39.75 0.5 0  40.5 0.5 0  41.25 0.5 0  42 0.5 0  42.75 0.5 0  43.5 0.5 0  44.25 0.5 0  45 0.5 0  45.75 0.5 0  46.5 0.5 0  47.25 0.5 0  48 0.5 0  48.75 0.5 0  49.5 0.5 0  50.25 0.5 0  51 0.5 0  51.75 0.5 0  52.5 0.5 0  53.25 0.5 0  54 0.5 0  54.75 0.5 0  55.5 0.5 0  56.25 0.5 0  57 0.5 0  57.75 0.5 0  58.5 0.5 0  59.25 0.5 0  60 0.5 0  0 1 0  0.75 1 0  1.5 1 0  2.25 1 0  3 1 0  3.75 1 0  4.5 1 0  5.25 1 0  6 1 0  6.75 1 0  7.5 1 0  8.25 1 0  9 1 0  9.75 1 0  10.5 1 0  11.25 1 0  12 1 0  12.75 1 0  13.5 1 0  14.25 1 0  15 1 0  15.75 1 0  16.5 1 0  17.25 1 0  18 1 0  18.75 1 0  19.5 1 0  20.25 1 0  21 1 0  21.75 1 0  22.5 1 0  23.25 1 0  24 1 0  24.75 1 0  25.5 1 0  26.25 1 0  27 1 0  27.75 1 0  28.5 1 0  29.25 1 0  30 1 0  30.75 1 0  31.5 1 0  32.25 1 0  33 1 0  33.75 1 0  34.5 1 0  35.25 1 0  36 1 0  36.75 1 0  37.5 1 0  38.25 1 0  39 1 0  39.75 1 0  40.5 1 0  41.25 1 0  42 1 0  42.75 1 0  43.5 1 0  44.25 1 0  45 1 0  45.75 1 0  46.5 1 0  47.25 1 0  48 1 0  48.75 1 0  49.5 1 0  50.25 1 0  51 1 0  51.75 1 0  52.5 1 0  53.25 1 0  54 1 0  54.75 1 0  55.5 1 0  56.25 1 0  57 1 0  57.75 1 0  58.5 1 0  59.25 1 0  60 1 0  0 1.5 0  0.75 1.5 0  1.5 1.5 0  2.25 1.5 0  3 1.5 0  3.75 1.5 0  4.5 1.5 0  5.25 1.5 0  6 1.5 0  6.75 1.5 0  7.5 1.5 0  8.25 1.5 0  9 1.5 0  9.75 1.5 0  10.5 1.5 0  11.25 1.5 0  12 1.5 0  12.75 1.5 0  13.5 1.5 0  14.25 1.5 0  15 1.5 0  15.75 1.5 0  16.5 1.5 0  17.25 1.5 0  18 1.5 0  18.75 1.5 0  19.5 1.5 0  20.25 1.5 0  21 1.5 0  21.75 1.5 0  22.5 1.5 0  23.25 1.5 0  24 1.5 0  24.75 1.5 0  25.5 1.5 0  26.25 1.5 0  27 1.5 0  27.75 1.5 0  28.5 1.5 0  29.25 1.5 0  30 1.5 0  30.75 1.5 0  31.5 1.5 0  32.25 1.5 0  33 1.5 0  33.75 1.5 0  34.5 1.5 0  35.25 1.5 0  36 1.5 0  36.75 1.5 0  37.5 1.5 0  38.25 1.5 0  39 1.5 0  39.75 1.5 0  40.5 1.5 0  41.25 1.5 0  42 1.5 0  42.75 1.5 0  43.5 1.5 0  44.25 1.5 0  45 1.5 0  45.75 1.5 0  46.5 1.5 0  47.25 1.5 0  48 1.5 0  48.75 1.5 0  49.5 1.5 0  50.25 1.5 0  51 1.5 0  51.75 1.5 0  52.5 1.5 0  53.25 1.5 0  54 1.5 0  54.75 1.5 0  55.5 1.5 0  56.25 1.5 0  57 1.5 0  57.75 1.5 0  58.5 1.5 0  59.25 1.5 0  60 1.5 0  0 2 0  0.75 2 0  1.5 2 0  2.25 2 0  3 2 0  3.75 2 0  4.5 2 0  5.25 2 0  6 2 0  6.75 2 0  7.5 2 0  8.25 2 0  9 2 0  9.75 2 0  10.5 2 0  11.25 2 0  12 2 0  12.75 2 0  13.5 2 0  14.25 2 0  15 2 0  15.75 2 0  16.5 2 0  17.25 2 0  18 2 0  18.75 2 0  19.5 2 0  20.25 2 0  21 2 0  21.75 2 0  22.5 2 0  23.25 2 0  24 2 0  24.75 2 0  25.5 2 0  26.25 2 0  27 2 0  27.75 2 0  28.5 2 0  29.25 2 0  30 2 0  30.75 2 0  31.5 2 0  32.25 2 0  33 2 0  33.75 2 0  34.5 2 0  35.25 2 0  36 2 0  36.75 2 0  37.5 2 0  38.25 2 0  39 2 0  39.75 2 0  40.5 2 0  41.25 2 0  42 2 0  42.75 2 0  43.5 2 0  44.25 2 0  45 2 0  45.75 2 0  46.5 2 0  47.25 2 0  48 2 0  48.75 2 0  49.5 2 0  50.25 2 0  51 2 0  51.75 2 0  52.5 2 0  53.25 2 0  54 2 0  54.75 2 0  55.5 2 0  56.25 2 0  57 2 0  57.75 2 0  58.5 2 0  59.25 2 0  60 2 0  0 2.5 0  0.75 2.5 0  1.5 2.5 0  2.25 2.5 0  3 2.5 0  3.75 2.5 0  4.5 2.5 0  5.25 2.5 0  6 2.5 0  6.75 2.5 0  7.5 2.5 0  8.25 2.5 0  9 2.5 0  9.75 2.5 0  10.5 2.5 0  11.25 2.5 0  12 2.5 0  12.75 2.5 0  13.5 2.5 0  14.25 2.5 0  15 2.5 0  15.75 2.5 0  16.5 2.5 0  17.25 2.5 0  18 2.5 0  18.75 2.5 0  19.5 2.5 0  20.25 2.5 0  21 2.5 0  21.75 2.5 0  22.5 2.5 0  23.25 2.5 0  24 2.5 0  24.75 2.5 0  25.5 2.5 0  26.25 2.5 0  27 2.5 0  27.75 2.5 0  28.5 2.5 0  29.25 2.5 0  30 2.5 0  30.75 2.5 0  31.5 2.5 0  32.25 2.5 0  33 2.5 0  33.75 2.5 0  34.5 2.5 0  35.25 2.5 0  36 2.5 0  36.75 2.5 0  37.5 2.5 0  38.25 2.5 0  39 2.5 0  39.75 2.5 0  40.5 2.5 0  41.25 2.5 0  42 2.5 0  42.75 2.5 0  43.5 2.5 0  44.25 2.5 0  45 2.5 0  45.75 2.5 0  46.5 2.5 0  47.25 2.5 0  48 2.5 0  48.75 2.5 0  49.5 2.5 0  50.25 2.5 0  51 2.5 0  51.75 2.5 0  52.5 2.5 0  53.25 2.5 0  54 2.5 0  54.75 2.5 0  55.5 2.5 0  56.25 2.5 0  57 2.5 0  57.75 2.5 0  58.5 2.5 0  59.25 2.5 0  60 2.5 0  0 3 0  0.75 3 0  1.5 3 0  2.25 3 0  3 3 0  3.75 3 0  4.5 3 0  5.25 3 0  6 3 0  6.75 3 0  7.5 3 0  8.25 3 0  9 3 0  9.75 3 0  10.5 3 0  11.25 3 0  12 3 0  12.75 3 0  13.5 3 0  14.25 3 0  15 3 0  15.75 3 0  16.5 3 0  17.25 3 0  18 3 0  18.75 3 0  19.5 3 0  20.25 3 0  21 3 0  21.75 3 0  22.5 3 0  23.25 3 0  24 3 0  24.75 3 0  25.5 3 0  26.25 3 0  27 3 0  27.75 3 0  28.5 3 0  29.25 3 0  30 3 0  30.75 3 0  31.5 3 0  32.25 3 0  33 3 0  33.75 3 0  34.5 3 0  35.25 3 0  36 3 0  36.75 3 0  37.5 3 0  38.25 3 0  39 3 0  39.75 3 0  40.5 3 0  41.25 3 0  42 3 0  42.75 3 0  43.5 3 0  44.25 3 0  45 3 0  45.75 3 0  46.5 3 0  47.25 3 0  48 3 0  48.75 3 0  49.5 3 0  50.25 3 0  51 3 0  51.75 3 0  52.5 3 0  53.25 3 0  54 3 0  54.75 3 0  55.5 3 0  56.25 3 0  57 3 0  57.75 3 0  58.5 3 0  59.25 3 0  60 3 0  0 3.5 0  0.75 3.5 0  1.5 3.5 0  2.25 3.5 0  3 3.5 0  3.75 3.5 0  4.5 3.5 0  5.25 3.5 0  6 3.5 0  6.75 3.5 0  7.5 3.5 0  8.25 3.5 0  9 3.5 0  9.75 3.5 0  10.5 3.5 0  11.25 3.5 0  12 3.5 0  12.75 3.5 0  13.5 3.5 0  14.25 3.5 0  15 3.5 0  15.75 3.5 0  16.5 3.5 0  17.25 3.5 0  18 3.5 0  18.75 3.5 0  19.5 3.5 0  20.25 3.5 0  21 3.5 0  21.75 3.5 0  22.5 3.5 0  23.25 3.5 0  24 3.5 0  24.75 3.5 0  25.5 3.5 0  26.25 3.5 0  27 3.5 0  27.75 3.5 0  28.5 3.5 0  29.25 3.5 0  30 3.5 0  30.75 3.5 0  31.5 3.5 0  32.25 3.5 0  33 3.5 0  33.75 3.5 0  34.5 3.5 0  35.25 3.5 0  36 3.5 0  36.75 3.5 0  37.5 3.5 0  38.25 3.5 0  39 3.5 0  39.75 3.5 0  40.5 3.5 0  41.25 3.5 0  42 3.5 0  42.75 3.5 0  43.5 3.5 0  44.25 3.5 0  45 3.5 0  45.75 3.5 0  46.5 3.5 0  47.25 3.5 0  48 3.5 0  48.75 3.5 0  49.5 3.5 0  50.25 3.5 0  51 3.5 0  51.75 3.5 0  52.5 3.5 0  53.25 3.5 0  54 3.5 0  54.75 3.5 0  55.5 3.5 0  56.25 3.5 0  57 3.5 0  57.75 3.5 0  58.5 3.5 0  59.25 3.5 0  60 3.5 0  0 4 0  0.75 4 0  1.5 4 0  2.25 4 0  3 4 0  3.75 4 0  4.5 4 0  5.25 4 0  6 4 0  6.75 4 0  7.5 4 0  8.25 4 0  9 4 0  9.75 4 0  10.5 4 0  11.25 4 0  12 4 0  12.75 4 0  13.5 4 0  14.25 4 0  15 4 0  15.75 4 0  16.5 4 0  17.25 4 0  18 4 0  18.75 4 0  19.5 4 0  20.25 4 0  21 4 0  21.75 4 0  22.5 4 0  23.25 4 0  24 4 0  24.75 4 0  25.5 4 0  26.25 4 0  27 4 0  27.75 4 0  28.5 4 0  29.25 4 0  30 4 0  30.75 4 0  31.5 4 0  32.25 4 0  33 4 0  33.75 4 0  34.5 4 0  35.25 4 0  36 4 0  36.75 4 0  37.5 4 0  38.25 4 0  39 4 0  39.75 4 0  40.5 4 0  41.25 4 0  42 4 0  42.75 4 0  43.5 4 0  44.25 4 0  45 4 0  45.75 4 0  46.5 4 0  47.25 4 0  48 4 0  48.75 4 0  49.5 4 0  50.25 4 0  51 4 0  51.75 4 0  52.5 4 0  53.25 4 0  54 4 0  54.75 4 0  55.5 4 0  56.25 4 0  57 4 0  57.75 4 0  58.5 4 0  59.25 4 0  60 4 0  0.375 0.25 0  1.125 0.25 0  1.875 0.25 0  2.625 0.25 0  3.375 0.25 0  4.125 0.25 0  4.875 0.25 0  5.625 0.25 0  6.375 0.25 0  7.125 0.25 0  7.875 0.25 0  8.625 0.25 0  9.375 0.25 0  10.125 0.25 0  10.875 0.25 0  11.625 0.25 0  12.375 0.25 0  13.125 0.25 0  13.875 0.25 0  14.625 0.25 0  15.375 0.25 0  16.125 0.25 0  16.875 0.25 0  17.625 0.25 0  18.375 0.25 0  19.125 0.25 0  19.875 0.25 0  20.625 0.25 0  21.375 0.25 0  22.125 0.25 0  22.875 0.25 0  23.625 0.25 0  24.375 0.25 0  25.125 0.25 0  25.875 0.25 0  26.625 0.25 0  27.375 0.25 0  28.125 0.25 0  28.875 0.25 0  29.625 0.25 0  30.375 0.25 0  31.125 0.25 0  31.875 0.25 0  32.625 0.25 0  33.375 0.25 0  34.125 0.25 0  34.875 0.25 0  35.625 0.25 0  36.375 0.25 0  37.125 0.25 0  37.875 0.25 0  38.625 0.25 0  39.375 0.25 0  40.125 0.25 0  40.875 0.25 0  41.625 0.25 0  42.375 0.25 0  43.125 0.25 0  43.875 0.25 0  44.625 0.25 0  45.375 0.25 0  46.125 0.25 0  46.875 0.25 0  47.625 0.25 0  48.375 0.25 0  49.125 0.25 0  49.875 0.25 0  50.625 0.25 0  51.375 0.25 0  52.125 0.25 0  52.875 0.25 0  53.625 0.25 0  54.375 0.25 0  55.125 0.25 0  55.875 0.25 0  56.625 0.25 0  57.375 0.25 0  58.125 0.25 0  58.875 0.25 0  59.625 0.25 0  0.375 0.75 0  1.125 0.75 0  1.875 0.75 0  2.625 0.75 0  3.375 0.75 0  4.125 0.75 0  4.875 0.75 0  5.625 0.75 0  6.375 0.75 0  7.125 0.75 0  7.875 0.75 0  8.625 0.75 0  9.375 0.75 0  10.125 0.75 0  10.875 0.75 0  11.625 0.75 0  12.375 0.75 0  13.125 0.75 0  13.875 0.75 0  14.625 0.75 0  15.375 0.75 0  16.125 0.75 0  16.875 0.75 0  17.625 0.75 0  18.375 0.75 0  19.125 0.75 0  19.875 0.75 0  20.625 0.75 0  21.375 0.75 0  22.125 0.75 0  22.875 0.75 0  23.625 0.75 0  24.375 0.75 0  25.125 0.75 0  25.875 0.75 0  26.625 0.75 0  27.375 0.75 0  28.125 0.75 0  28.875 0.75 0  29.625 0.75 0  30.375 0.75 0  31.125 0.75 0  31.875 0.75 0  32.625 0.75 0  33.375 0.75 0  34.125 0.75 0  34.875 0.75 0  35.625 0.75 0  36.375 0.75 0  37.125 0.75 0  37.875 0.75 0  38.625 0.75 0  39.375 0.75 0  40.125 0.75 0  40
[...]
<PointData  Vectors="f_8-0"> 
<DataArray  type="Float64"  Name="f_8-0"  NumberOfComponents="3" format="ascii">0.0000000000000000e+00 0.0000000000000000e+00 0.0000000000000000e+00  0.0000000000000000e+00 0.0000000000000000e+00 0.0000000000000000e+00  0.0000000000000000e+00 0.0000000000000000e+00 0.0000000000000000e+00  0.0000000000000000e+00 0.0000000000000000e+00 0.0000000000000000e+00  0.0000000000000000e+00 -2.3698243761337984e-09 0.0000000000000000e+00  9.3170983571954695e-08 -3.2062795941647730e-08 0.0000000000000000e+00  1.2793472857999878e-06 -8.8419306970780359e-07 0.0000000000000000e+00  -1.4521032670441839e-07 4.2890983573615491e-08 0.0000000000000000e+00  5.3236483099894605e-08 -1.8642902632658972e-07 0.0000000000000000e+00  0.0000000000000000e+00 0.0000000000000000e+00 0.0000000000000000e+00  0.0000000000000000e+00 0.0000000000000000e+00 0.0000000000000000e+00  0.0000000000000000e+00 0.0000000000000000e+00 0.0000000000000000e+00  -4.4242403623059098e-06 -9.7858305140255333e-07 0.0000000000000000e+00  2.3078510743718631e-05 1.3280041170471571e-05 0.0000000000000000e+00  2.5179615648140937e-07 3.9608061490004110e-07 0.0000000000000000e+00  -5.7581012024732211e-07 -2.9600112777896526e-06 0.0000000000000000e+00  -8.0960459220299168e-06 1.8983224888414885e-07 0.0000000000000000e+00  -1.5240917920481058e-06 -1.3690480472793392e-06 0.0000000000000000e+00  -3.0740219938108064e-08 -3.5466736429743105e-09 0.0000000000000000e+00  -4.5751639430985924e-07 6.1306348280190175e-07 0.0000000000000000e+00  0.0000000000000000e+00 6.3107391955673374e-09 0.0000000000000000e+00  6.3269173749262437e-08 -9.6609671928480314e-08 0.0000000000000000e+00  0.0000000000000000e+00 0.0000000000000000e+00 0.0000000000000000e+00  -1.2719695516034412e-07 1.9023868372431984e-06 0.0000000000000000e+00  8.1245135730950461e-09 -2.2480407864627063e-08 0.0000000000000000e+00  0.0000000000000000e+00 2.3317080354851558e-07 0.0000000000000000e+00  0.0000000000000000e+00 0.0000000000000000e+00 0.0000000000000000e+00  0.0000000000000000e+00 0.0000000000000000e+00 0.0000000000000000e+00  2.3765964533175388e-07 -3.3970148585874079e-07 0.0000000000000000e+00  0.0000000000000000e+00 -3.0554265927669402e-09 0.0000000000000000e+00  4.2717009740251938e-06 6.8365968690087531e-08 0.0000000000000000e+00  6.5804021876417720e-08 -5.6535093211299631e-08 0.0000000000000000e+00  0.0000000000000000e+00 0.0000000000000000e+00 0.0000000000000000e+00  3.6449106388406559e-07 1.2766818771848158e-07 0.0000000000000000e+00  0.0000000000000000e+00 0.0000000000000000e+00 0.0000000000000000e+00  8.3822748704864126e-09 -2.2521177813897469e-08 0.0000000000000000e+00  0.0000000000000000e+00 0.0000000000000000e+00 0.0000000000000000e+00  0.0000000000000000e+00 0.0000000000000000e+00 0.0000000000000000e+00  0.0000000000000000e+00 0.0000000000000000e+00 0.0000000000000000e+00  -1.0050123217227775e-06 1.0511690393369451e-06 0.0000000000000000e+00  0.0000000000000000e+00 -1.0993805143473094e-07 0.0000000000000000e+00  1.3701445252710006e-07 -1.0687346493984862e-07 0.0000000000000000e+00  0.0000000000000000e+00 0.0000000000000000e+00 0.0000000000000000e+00  -1.5824505201331404e-07 -3.6490701208740086e-08 0.0000000000000000e+00  0.0000000000000000e+00 0.0000000000000000e+00 0.0000000000000000e+00  -2.0063925881823863e-06 -1.7161957324406435e-07 0.0000000000000000e+00  0.0000000000000000e+00 0.0000000000000000e+00 0.0000000000000000e+00  3.2169354553045958e-08 2.6897030253662071e-08 0.0000000000000000e+00  2.3224443219031420e-07 -6.1044154696313628e-08 0.0000000000000000e+00  0.0000000000000000e+00 -2.1980585491943398e-08 0.0000000000000000e+00  0.0000000000000000e+00 5.6316632838633414e-09 0.0000000000000000e+00  -1.4670687138904275e-06 1.2874454663870991e-07 0.0000000000000000e+00  -1.2728567934271495e-07 0.0000000000000000e+00 0.0000000000000000e+00  0.0000000000000000e+00 0.0000000000000000e+00 0.0000000000000000e+00  -5.2226387848853219e-07 8.5569016505537046e-07 0.0000000000000000e+00  0.0000000000000000e+00 0.0000000000000000e+00 0.0000000000000000e+00  4.7533043714679839e-07 8.2331847351973074e-07 0.0000000000000000e+00  2.8596188046153083e-07 3.3206227989389668e-08 0.0000000000000000e+00  0.0000000000000000e+00 0.0000000000000000e+00 0.0000000000000000e+00  0.0000000000000000e+00 0.0000000000000000e+00 0.0000000000000000e+00  0.0000000000000000e+00 0.0000000000000000e+00 0.0000000000000000e+00  0.0000000000000000e+00 0.0000000000000000e+00 0.0000000000000000e+00  -2.6217375737796343e-10 0.0000000000000000e+00 0.0000000000000000e+00  -4.8822403471463910e-08 3.6469449637039889e-08 0.0000000000000000e+00  -7.1803690364230268e-08 -5.3836933904752581e-08 0.0000000000000000e+00  6.0539737334512131e-07 -6.1003442996750702e-07 0.0000000000000000e+00  -9.0885381185210058e-07 2.3927112158110477e-07 0.0000000000000000e+00  1.5419583450260031e-07 5.0050445522101974e-10 0.0000000000000000e+00  -3.5860179887032204e-08 0.0000000000000000e+00 0.0000000000000000e+00  2.1035784807740930e-07 1.0891917478472429e-06 0.0000000000000000e+00  0.0000000000000000e+00 0.0000000000000000e+00 0.0000000000000000e+00  8.2960775489593590e-07 7.0767544598230389e-07 0.0000000000000000e+00  -2.6913381032021480e-07 -9.5427392747023657e-07 0.0000000000000000e+00  -7.3449445174439670e-07 -1.0809624765514601e-07 0.0000000000000000e+00  1.0231467491379979e-07 4.6948842151174783e-08 0.0000000000000000e+00  0.0000000000000000e+00 1.6152370707334914e-08 0.0000000000000000e+00  -4.7143415590504985e-07 -6.6690277969679635e-08 0.0000000000000000e+00  6.1440597862354063e-07 -7.9461387799036440e-07 0.0000000000000000e+00  0.0000000000000000e+00 -1.9856012781906505e-09 0.0000000000000000e+00  -4.2363346083646414e-07 1.2965087522046476e-09 0.0000000000000000e+00  0.0000000000000000e+00 -1.3404613381412113e-09 0.0000000000000000e+00  2.2031571120686200e+07 0.0000000000000000e+00 0.0000000000000000e+00  5.9789716081571244e+07 2.9472810005200658e+07 0.0000000000000000e+00  7.9152595073835496e+06 6.3175978451950364e+07 0.0000000000000000e+00  1.9640199943156946e+07 -1.3806067735405006e+06 0.0000000000000000e+00  2.5034474885204267e+07 -1.5828453292047972e+07 0.0000000000000000e+00  -1.3020057730430076e+07 9.6901097215730231e+06 0.0000000000000000e+00  3.1601125584834120e+06 -2.1050826116924271e+07 0.0000000000000000e+00  1.2549246923791369e+07 -3.0272425275673565e+07 0.0000000000000000e+00  4.5998480875504091e+07 -2.4538086696984604e+07 0.0000000000000000e+00  -2.1456684632186573e+07 1.2141414866537325e+08 0.0000000000000000e+00  2.9562424207147248e+07 -1.0071982921378322e+08 0.0000000000000000e+00  8.5379260282327086e+07 -2.9909407283670127e+07 0.0000000000000000e+00  3.8362558212594916e+06 1.0977741651891774e+07 0.0000000000000000e+00  3.9310997819783068e+06 -3.0676738075650182e+07 0.0000000000000000e+00  9.4714946490504742e+06 -1.4994258162985716e+07 0.0000000000000000e+00  7.0354725157362456e+06 8.5006351321587688e+05 0.0000000000000000e+00  -6.7806469022245137e+06 1.3367606923311597e+07 0.0000000000000000e+00  1.5199316413190966e+07 2.8838943973187511e+06 0.0000000000000000e+00  6.0181639432666255e+06 8.2984414693981986e+06 0.0000000000000000e+00  -2.9271227019346569e+05 -2.5645950400328252e+07 0.0000000000000000e+00  1.4516122071820203e+07 -8.2194222984225182e+06 0.0000000000000000e+00  -5.8585664649353297e+06 -5.0538849400181510e+05 0.0000000000000000e+00  4.3172102421186836e+06 1.9997140365073810e+05 0.0000000000000000e+00  5.8511730214315576e+03 3.0140472730939193e+06 0.0000000000000000e+00  4.6076649985480662e+06 7.0526240579166822e+06 0.0000000000000000e+00  1.1014270202706505e+06 -4.4153553044616692e+06 0.0000000000000000e+00  4.6627600851054704e+06 1.4776347573698254e+07 0.0000000000000000e+00  9.6997029650233313e+05 1.4468793804094503e+07 0.0000000000000000e+00  9.9003896881332956e+06 1.4166808673016919e+07 0.0000000000000000e+00  9.6858425063187666e+06 1.6623280527046798e+07 0.0000000000000000e+00  -1.5479778781946940e+07 -2.6882093943835725e+06 0.0000000000000000e+00  1.1426013215800304e+07 5.8142633546507393e+05 0.0000000000000000e+00  5.3271103094157577e+06 -6.6719441488224380e+06 0.0000000000000000e+00  2.3932375757998456e+06 7.2380399719807087e+06 0.0000000000000000e+00  1.7014242066344168e+07 -3.0952846788426349e+06 0.0000000000000000e+00  6.0350281958081294e+06 -8.9265680539928339e+06 0.0000000000000000e+00  4.3185665709740501e+06 2.9634880907268240e+06 0.0000000000000000e+00  -2.2822951781774005e+06 3.3990255091453539e+06 0.0000000000000000e+00  -3.3648481698696925e+06 -1.2982979361153299e+07 0.0000000000000000e+00  1.0418847652482400e+06 -1.7275323523763388e+07 0.0000000000000000e+00  1.1463363543704076e+07 1.5043191399631556e+06 0.0000000000000000e+00  -2.6949774957229230e+06 -6.8926566830604654e+06 0.0000000000000000e+00  5.9558358865255481e+06 1.1394001491758492e+07 0.0000000000000000e+00  9.7855213715447672e+06 9.0064694534026668e+05 0.0000000000000000e+00  1.4781217186831182e+07 -2.5296274228367843e+06 0.0000000000000000e+00  -1.6102971249418525e+07 6.0052588881638441e+06 0.0000000000000000e+00  5.1965911444156906e+06 -1.5695957215527115e+07 0.0000000000000000e+00  6.1982501738241250e+06 -9.1785071552432533e+06 0.0000000000000000e+00  1.1825771696467658e+06 -8.0460734228498330e+06 0.0000000000000000e+00  2.4585684673685287e+06 1.0961282501872946e+06 0.0000000000000000e+00  -3.4496266583897038e+06 -4.8216112525702845e+06 0.0000000000000000e+00  8.3314124479024932e+06 2.4987886536691356e+07 0.0000000000000000e+00  4.1675238481478994e+06 4.5605349331443720e+06 0.0000000000000000e+00  -9.6311036051995310e+04 2.6807086800317734e+05 0.0000000000000000e+00  -5.9851119676412502e+05 -1.6257864180971628e+07 0.0000000000000000e+00  4.6661773575702943e+06 -1.2810643489025738e+07 0.0000000000000000e+00  2.8731564281701110e+06 -3.3354912853974564e+05 0.0000000000000000e+00  7.1068163159327526e+06 6.2041765140226847e+06 0.0000000000000000e+00  8.0016557041466096e+06 -7.0604650939493692e+06 0.0000000000000000e+00  1.3503866879427537e+07 1.8156457720094535e+07 0.0000000000000000e+00  -4.9122197822764120e+05 -5.6281469264794961e+06 0.0000000000000000e+00  -1.4860992173018940e+07 -6.4549719659015909e+06 0.0000000000000000e+00  9.3567724641706403e+06 -1.7002705553887466e+06 0.0000000000000000e+00  1.9308206931862295e+07 8.8083117802706659e+06 0.0000000000000000e+00  7.5011984607440198e+05 -5.4042231401960151e+06 0.0000000000000000e+00  8.1727669720500456e+06 -2.5567422743316810e+06 0.0000000000000000e+00  -7.7785676688986481e+04 -6.9486364586288529e+06 0.0000000000000000e+00  -7.4846712117312048e+06 -1.2339096338210611e+07 0.0000000000000000e+00  -8.9713282926192470e+06 -1.2901213287059283e+07 0.0000000000000000e+00  -6.0178074966867073e+06 -4.8540892189996401e+06 0.0000000000000000e+00  -1.2164125730044324e+07 9.9065419795510937e+06 0.0000000000000000e+00  -3.1009945330541991e+06 -1.3587066800893351e+07 0.0000000000000000e+00  -2.5583364743039948e+06 6.6177235599625809e+06 0.0000000000000000e+00  -4.9219377507638708e+06 -2.3045900500389677e+06 0.0000000000000000e+00  4.4253854870330561e+06 4.3364250034700790e+06 0.0000000000000000e+00  -4.0104021478460454e+04 -4.6347378177581617e+05 0.0000000000000000e+00  4.8643479911862211e+06 1.0533755077120156e+06 0.0000000000000000e+00  -1.8507500086032734e+06 2.3179328096167031e+06 0.0000000000000000e+00  -4.8091000385374855e+06 1.5185062236299017e+05 0.0000000000000000e+00  -9.5680574485538004e+05 1.8912006697053788e+06 0.0000000000000000e+00  -1.2787221417698821e+05 0.0000000000000000e+00 0.0000000000000000e+00  1.6116986845280246e+06 -2.3511031884305206e-10 0.0000000000000000e+00  4.5487470482193008e+07 9.0235111341397818e+06 0.0000000000000000e+00  1.1617452523401337e+07 -4.9516138821040280e+06 0.0000000000000000e+00  3.1739485517072700e+07 -1.1484322169863511e+07 0.0000000000000000e+00  1.7537353393041946e+07 -8.6075617543240953e+06 0.0000000000000000e+00  1.0688407785519147e+07 8.8581854884836376e+06 0.0000000000000000e+00  1.3945817383651484e+07 3.1502277009350569e+06 0.0000000000000000e+00  1.8577611200946975e+07 -3.0794083448886252e+06 0.0000000000000000e+00  1.6325672374771247e+07 -1.8868289997392878e+07 0.0000000000000000e+00  -5.2056747974952739e+06 -6.0204633518800162e+07 0.0000000000000000e+00  -3.1454682526912559e+07 -8.6254693083274454e+07 0.0000000000000000e+00  1.3606734719241723e+07 -3.1013548318554096e+07 0.0000000000000000e+00  2.4141577112388268e+07 1.3183357068180643e+07 0.0000000000000000e+00  4.6021334227155363e+06 6.6517491612282805e+06 0.0000000000000000e+00  -1.3598674655788704e+06 -6.8064963199893318e+04 0.0000000000000000e+00  7.4714741812271753e+05 6.5771299363879682e+06 0.0000000000000000e+00  -1.7298769585640658e+07 -2.3037935240080520e+06 0.0000000000000000e+00  -1.2037542370026719e+07 7.3972554822902530e+06 0.0000000000000000e+00  -6.7571856397323823e+06 2.8033643272457089e+07 0.0000000000000000e+00  5.2146256389029603e+06 6.9139716348852729e+06 0.0000000000000000e+00  -2.8427329659176199e+06 -2.3666439208449963e+06 0.0000000000000000e+00  -1.2604285133132502e+07 1.2294063677125257e+07 0.0000000000000000e+00  -1.5879658201474883e+07 -5.2129457653795360e+06 0.0000000000000000e+00  -3.3392074450732040e+05 5.7178522175512994e+06 0.0000000000000000e+00  9.1750434721954016e+05 4.1240185307675698e+06 0.0000000000000000e+00  2.3935315248022776e+07 4.5357393117564488e+06 0.0000000000000000e+00  -8.7190077823314501e+05 -2.5041266487072003e+06 0.0000000000000000e+00  -8.5508884264681116e+06 7.1586164826916624e+06 0.0000000000000000e+00  6.5564776480601598e+06 5.7060903939652524e+05 0.0000000000000000e+00  6.4694925671436526e+06 6.5555946382006276e+06 0.0000000000000000e+00  -2.1046516251424388e+06 8.9133483532162178e+06 0.0000000000000000e+00  1.4504499589423643e+07 -4.9132598587486614e+06 0.0000000000000000e+00  1.8721926059105960e+06 -8.1352242653593365e+06 0.0000000000000000e+00  5.2480870466461573e+06 -9.2489864524331819e+06 0.0000000000000000e+00  7.6365145282480214e+06 1.4974642225888527e+06 0.0000000000000000e+00  6.4837580504495138e+06 -8.4975794515846521e+06 0.0000000000000000e+00  -2.7080700496759742e+07 4.0814327086737537e+05 0.0000000000000000e+00  -2.6989519797426593e+06 9.2466352658015434e+06 0.0000000000000000e+00  -2.8227912459987630e+06 -1.0918821292405954e+07 0.0000000000000000e+00  -2.9898533582901917e+06 4.4455246346275741e+06 0.0000000000000000e+00  -4.0029257330930359e+06 -8.7191306497213952e+06 0.0000000000000000e+00  5.1351696125496151e+06 -9.7687914815440774e+06 0.0000000000000000e+00  5.1401720854420811e+06 1.4951377349657397e+05 0.0000000000000000e+00  1.1617498477187730e+07 -8.3419038467210894e+06 0.0000000000000000e+00  -3.8553864786087829e+06 -2.5686407995545291e+06 0.0000000000000000e+00  -2.2135607625782106e+07 6.5139707928710608e+06 0.0000000000000000e+00  -1.4504051175725570e+07 5.6365385592717957e+06 0.0000000000000000e+00  5.0074640374049414e+06 2.4694115138342464e+06 0.0000000000000000e+00  -1.2267710112418616e+07 -1.6386074072435841e+07 0.0000000000000000e+00  3.8321072635414766e+05 -8.1980567901586685e+06 0.0000000000000000e+00  4.8099010258893594e+06 -7.3188372189937411e+06 0.0000000000000000e+00  2.3464526336879335e+07 9.1143161090128496e+06 0.0000000000000000e+00  2.5185944066700744e+06 -9.4732600139778701e+05 0.0000000000000000e+00  7.9768327908237837e+05 9.9889487019053556e+05 0.0000000000000000e+00  -2.4177824220445137e+06 -9.2845050082801413e+06 0.0000000000000000e+00  1.5567216884024953e+06 -1.6625411976302598e+07 0.0000000000000000e+00  1.4143439921637075e+07 1.9937849999340683e+07 0.0000000000000000e+00  9.0100425035139173e+06 -2.6517722411782551e+05 0.0000000000000000e+00  -5.6194378169458574e+06 -1.6333373416091945e+07 0.0000000000000000e+00  1.0660826474720774e+07 1.2661740703084437e+07 0.0000000000000000e+00  -2.4060274996464915e+05 1.8963145141697947e+07 0.0000000000000000e+00  -3.8529777329035169e+06 -1.5132864155659895e+07 0.0000000000000000e+00  2.2897964298985038e+07 2.1045579523540316e+06 0.0000000000000000e+00  3.9509949646147788e+06 -5.1510053363295812e+06 0.0000000000000000e+00  2.0439120826119941e+07 -1.8887854408451028e+06 0.0000000000000000e+00  -7.5164303683607196e+06 -3.8815522379678241e+06 0.0000000000000000e+00  1.9599480765190840e+07 -6.1073072610312002e+06 0.0000000000000000e+00  -3.7622717376501118e+06 -1.5148880508591926e+07 0.0000000000000000e+00  -5.5264033394354619e+06 -2.7292416873325049e+06 0.0000000000000000e+00  1.2950079854684291e+07 1.3218545888166912e+07 0.0000000000000000e+00  -2.6339399402534120e+07 -1.8194668170635927e+07 0.0000000000000000e+00  1.7876082801392304e+06 9.3330224137007091e+06 0.0000000000000000e+00  -8.7095213317684233e+06 2.5238313961839518e+06 0.0000000000000000e+00  2.8297139278820679e+06 5.3152901239568647e+06 0.0000000000000000e+00  -4.4041893365191566e+06 -1.4913210719696754e+06 0.0000000000000000e+00  -6.4024032035716958e+06 4.2285620659238826e+06 0.0000000000000000e+00  -6.3776916183784036e+06 -6.3065470766620245e+05 0.0000000000000000e+00  2.4075335633218088e+06 -1.7806777255346500e+06 0.0000000000000000e+00  -2.0473471980365801e+06 2.3198692455745973e+06 0.0000000000000000e+00  2.2555649406386879e+06 4.0569758108429476e+06 0.0000000000000000e+00  1.4974026423365332e+06 1.7467614422061888e-07 0.0000000000000000e+00  -2.2720325923082165e+07 0.0000000000000000e+00 0.0000000000000000e+00  -6.8869398265522840e+06 1.9469840627839798e+06 0.0000000000000000e+00  2.1312245475393582e+07 -6.6873919900646796e+06 0.0000000000000000e+00  1.8302686459880140e+07 2.1596419488957222e+05 0.0000000000000000e+00  1.0985365934783887e+07 9.3489829900766145e+06 0.0000000000000000e+00  9.6793077849371079e+06 1.2725402907131551e+07 0.0000000000000000e+00  2.4930222686617535e+07 -2.2195200747688923e+07 0.0000000000000000e+00  1.3741469378988082e+07 -4.5008328515046332e+06 0.0000000000000000e+00  -5.2410033606261043e+06 -2.9380212871282324e+07 0.0000000000000000e+00  5.1672842139158741e+07 -1.9235166122868933e+07 0.0000000000000000e+00  3.3327221289129265e+07 -1.5899922988490148e+07 0.0000000000000000e+00  -7.2586432577993600e+06 1.0526576702148963e+07 0.0000000000000000e+00  -9.9547297140235584e+06 2.6336557637439098e+07 0.0000000000000000e+00  1.0073239262037743e+07 4.1540271790567085e+07 0.0000000000000000e+00  -7.4863919261942161e+06 1.0098767250127494e+07 0.0000000000000000e+00  -1.2196782286668180e+07 1.2845884519066650e+07 0.0000000000000000e+00  -1.3504551393271091e+06 -1.0760469889779003e+07 0.0000000000000000e+00  -6.3115162974124281e+06 -5.1427360721847313e+06 0.0000000000000000e+00  -7.4543905866937572e+06 -1.0445116897777397e+07 0.0000000000000000e+00  1.0716641719815757e+07 -6.9760302438627149e+05 0.0000000000000000e+00  2.3169025098978034e+06 -3.6297565555955223e+06 0.0000000000000000e+00  -1.2128501709138588e+06 -1.3192359447997805e+07 0.0000000000000000e+00  -8.8523276985646617e+06 6.0564848749302980e+06 0.0000000000000000e+00  -2.7924097599982720e+07 2.3101928603716036e+06 0.0000000000000000e+00  -1.4336919977353400e+07 -2.8921885631838716e+06 0.0000000000000000e+00  -6.6482190765456650e+06 -2.2648717742520482e+06 0.0000000000000000e+00  1.2364389337936193e+07 1.4490534682647754e+06 0.0000000000000000e+00  3.9100023150209384e+06 -6.8965111472909972e+06 0.0000000000000000e+00  1.0110264212250445e+07 -1.6935620506848104e+07 0.0000000000000000e+00  1.1741384052680513e+07 1.4647713907684030e+07 0.0000000000000000e+00  6.1432196653099880e+06 1.9915912022365827e+07 0.0000000000000000e+00  1.3792867987310169e+07 -1.8286928640742715e+07 0.0000000000000000e+00  1.5602301750045735e+06 1.8666343162199012e+06 0.0000000000000000e+00  7.0221089661013354e+06 -7.9165411856768257e+05 0.0000000000000000e+00  -5.6720738248986872e+06 -3.7051595063230814e+06 0.0000000000000000e+00  -1.1108656563751807e+06 -6.6913978641631305e+06 0.0000000000000000e+00  -1.3137513366700944e+07 1.5266865785355423e+07 0.0000000000000000e+00  4.5206304958998086e+06 1.0604268862223821e+07 0.0000000