<?xml version="1.0"?>
<VTKFile type="UnstructuredGrid"  version="0.1"  >
<UnstructuredGrid>
<Piece  NumberOfPoints="1369" NumberOfCells="2560">
<Points>
<DataArray  type="Float64"  NumberOfComponents="3"  format="ascii">0 0 0  0.75 0 0  1.5 0 0  2.25 0 0  3 0 0  3.75 0 0  4.5 0 0  5.25 0 0  6 0 0  6.75 0 0  7.5 0 0  8.25 0 0  9 0 0  9.75 0 0  10.5 0 0  11.25 0 0  12 0 0  12.75 0 0  13.5 0 0  14.25 0 0  15 0 0  15.75 0 0  16.5 0 0  17.25 0 0  18 0 0  18.75 0 0  19.5 0 0  20.25 0 0  21 0 0  21.75 0 0  22.5 0 0  23.25 0 0  24 0 0  24.75 0 0  25.5 0 0  26.25 0 0  27 0 0  27.75 0 0  28.5 0 0  29.25 0 0  30 0 0  30.75 0 0  31.5 0 0  32.25 0 0  33 0 0  33.75 0 0  34.5 0 0  35.25 0 0  36 0 0  36.75 0 0  37.5 0 0  38.25 0 0  39 0 0  39.75 0 0  40.5 0 0  41.25 0 0  42 0 0  42.75 0 0  43.5 0 0  44.25 0 0  45 0 0  45.75 0 0  46.5 0 0  47.25 0 0  48 0 0  48.75 0 0  49.5 0 0  50.25 0 0  51 0 0  51.75 0 0  52.5 0 0  53.25 0 0  54 0 0  54.75 0 0  55.5 0 0  56.25 0 0  57 0 0  57.75 0 0  58.5 0 0  59.25 0 0  60 0 0  0 0.5 0  0.75 0.5 0  1.5 0.5 0  2.25 0.5 0  3 0.5 0  3.75 0.5 0  4.5 0.5 0  5.25 0.5 0  6 0.5 0  6.75 0.5 0  7.5 0.5 0  8.25 0.5 0  9 0.5 0  9.75 0.5 0  10.5 0.5 0  11.25 0.5 0  12 0.5 0  12.75 0.5 0  13.5 0.5 0  14.25 0.5 0  15 0.5 0  15.75 0.5 0  16.5 0.5 0  17.25 0.5 0  18 0.5 0  18.75 0.5 0  19.5 0.5 0  20.25 0.5 0  21 0.5 0  21.75 0.5 0  22.5 0.5 0  23.25 0.5 0  24 0.5 0  24.75 0.5 0  25.5 0.5 0  26.25 0.5 0  27 0.5 0  27.75 0.5 0  28.5 0.5 0  29.25 0.5 0  30 0.5 0  30.75 0.5 0  31.5 0.5 0  32.25 0.5 0  33 0.5 0  33.75 0.5 0  34.5 0.5 0  35.25 0.5 0  36 0.5 0  36.75 0.5 0  37.5 0.5 0  38.25 0.5 0  39 0.5 0  39.75 0.5 0  40.5 0.5 0  41.25 0.5 0  42 0.5 0  42.75 0.5 0  43.5 0.5 0  44.25 0.5 0  45 0.5 0  45.75 0.5 0  46.5 0.5 0  47.25 0.5 0  48 0.5 0  48.75 0.5 0  49.5 0.5 0  50.25 0.5 0  51 0.5 0  51.75 0.5 0  52.5 0.5 0  53.25 0.5 0  54 0.5 0  54.75 0.5 0  55.5 0.5 0  56.25 0.5 0  57 0.5 0  57.75 0.5 0  58.5 0.5 0  59.25 0.5 0  60 0.5 0  0 1 0  0.75 1 0  1.5 1 0  2.25 1 0  3 1 0  3.75 1 0  4.5 1 0  5.25 1 0  6 1 0  6.75 1 0  7.5 1 0  8.25 1 0  9 1 0  9.75 1 0  10.5 1 0  11.25 1 0  12 1 0  12.75 1 0  13.5 1 0  14.25 1 0  15 1 0  15.75 1 0  16.5 1 0  17.25 1 0  18 1 0  18.75 1 0  19.5 1 0  20.25 1 0  21 1 0  21.75 1 0  22.5 1 0  23.25 1 0  24 1 0  24.75 1 0  25.5 1 0  26.25 1 0  27 1 0  27.75 1 0  28.5 1 0  29.25 1 0  30 1 0  30.75 1 0  31.5 1 0  32.25 1 0  33 1 0  33.75 1 0  34.5 1 0  35.25 1 0  36 1 0  36.75 1 0  37.5 1 0  38.25 1 0  39 1 0  39.75 1 0  40.5 1 0  41.25 1 0  42 1 0  42.75 1 0  43.5 1 0  44.25 1 0  45 1 0  45.75 1 0  46.5 1 0  47.25 1 0  48 1 0  48.75 1 0  49.5 1 0  50.25 1 0  51 1 0  51.75 1 0  52.5 1 0  53.25 1 0  54 1 0  54.75 1 0  55.5 1 0  56.25 1 0  57 1 0  57.75 1 0  58.5 1 0  59.25 1 0  60 1 0  0 1.5 0  0.75 1.5 0  1.5 1.5 0  2.25 1.5 0  3 1.5 0  3.75 1.5 0  4.5 1.5 0  5.25 1.5 0  6 1.5 0  6.75 1.5 0  7.5 1.5 0  8.25 1.5 0  9 1.5 0  9.75 1.5 0  10.5 1.5 0  11.25 1.5 0  12 1.5 0  12.75 1.5 0  13.5 1.5 0  14.25 1.5 0  15 1.5 0  15.75 1.5 0  16.5 1.5 0  17.25 1.5 0  18 1.5 0  18.75 1.5 0  19.5 1.5 0  20.25 1.5 0  21 1.5 0  21.75 1.5 0  22.5 1.5 0  23.25 1.5 0  24 1.5 0  24.75 1.5 0  25.5 1.5 0  26.25 1.5 0  27 1.5 0  27.75 1.5 0  28.5 1.5 0  29.25 1.5 0  30 1.5 0  30.75 1.5 0  31.5 1.5 0  32.25 1.5 0  33 1.5 0  33.75 1.5 0  34.5 1.5 0  35.25 1.5 0  36 1.5 0  36.75 1.5 0  37.5 1.5 0  38.25 1.5 0  39 1.5 0  39.75 1.5 0  40.5 1.5 0  41.25 1.5 0  42 1.5 0  42.75 1.5 0  43.5 1.5 0  44.25 1.5 0  45 1.5 0  45.75 1.5 0  46.5 1.5 0  47.25 1.5 0  48 1.5 0  48.75 1.5 0  49.5 1.5 0  50.25 1.5 0  51 1.5 0  51.75 1.5 0  52.5 1.5 0  53.25 1.5 0  54 1.5 0  54.75 1.5 0  55.5 1.5 0  56.25 1.5 0  57 1.5 0  57.75 1.5 0  58.5 1.5 0  59.25 1.5 0  60 1.5 0  0 2 0  0.75 2 0  1.5 2 0  2.25 2 0  3 2 0  3.75 2 0  4.5 2 0  5.25 2 0  6 2 0  6.75 2 0  7.5 2 0  8.25 2 0  9 2 0  9.75 2 0  10.5 2 0  11.25 2 0  12 2 0  12.75 2 0  13.5 2 0  14.25 2 0  15 2 0  15.75 2 0  16.5 2 0  17.25 2 0  18 2 0  18.75 2 0  19.5 2 0  20.25 2 0  21 2 0  21.75 2 0  22.5 2 0  23.25 2 0  24 2 0  24.75 2 0  25.5 2 0  26.25 2 0  27 2 0  27.75 2 0  28.5 2 0  29.25 2 0  30 2 0  30.75 2 0  31.5 2 0  32.25 2 0  33 2 0  33.75 2 0  34.5 2 0  35.25 2 0  36 2 0  36.75 2 0  37.5 2 0  38.25 2 0  39 2 0  39.75 2 0  40.5 2 0  41.25 2 0  42 2 0  42.75 2 0  43.5 2 0  44.25 2 0  45 2 0  45.75 2 0  46.5 2 0  47.25 2 0  48 2 0  48.75 2 0  49.5 2 0  50.25 2 0  51 2 0  51.75 2 0  52.5 2 0  53.25 2 0  54 2 0  54.75 2 0  55.5 2 0  56.25 2 0  57 2 0  57.75 2 0  58.5 2 0  59.25 2 0  60 2 0  0 2.5 0  0.75 2.5 0  1.5 2.5 0  2.25 2.5 0  3 2.5 0  3.75 2.5 0  4.5 2.5 0  5.25 2.5 0  6 2.5 0  6.75 2.5 0  7.5 2.5 0  8.25 2.5 0  9 2.5 0  9.75 2.5 0  10.5 2.5 0  11.25 2.5 0  12 2.5 0  12.75 2.5 0  13.5 2.5 0  14.25 2.5 0  15 2.5 0  15.75 2.5 0  16.5 2.5 0  17.25 2.5 0  18 2.5 0  18.75 2.5 0  19.5 2.5 0  20.25 2.5 0  21 2.5 0  21.75 2.5 0  22.5 2.5 0  23.25 2.5 0  24 2.5 0  24.75 2.5 0  25.5 2.5 0  26.25 2.5 0  27 2.5 0  27.75 2.5 0  28.5 2.5 0  29.25 2.5 0  30 2.5 0  30.75 2.5 0  31.5 2.5 0  32.25 2.5 0  33 2.5 0  33.75 2.5 0  34.5 2.5 0  35.25 2.5 0  36 2.5 0  36.75 2.5 0  37.5 2.5 0  38.25 2.5 0  39 2.5 0  39.75 2.5 0  40.5 2.5 0  41.25 2.5 0  42 2.5 0  42.75 2.5 0  43.5 2.5 0  44.25 2.5 0  45 2.5 0  45.75 2.5 0  46.5 2.5 0  47.25 2.5 0  48 2.5 0  48.75 2.5 0  49.5 2.5 0  50.25 2.5 0  51 2.5 0  51.75 2.5 0  52.5 2.5 0  53.25 2.5 0  54 2.5 0  54.75 2.5 0  55.5 2.5 0  56.25 2.5 0  57 2.5 0  57.75 2.5 0  58.5 2.5 0  59.25 2.5 0  60 2.5 0  0 3 0  0.75 3 0  1.5 3 0  2.25 3 0  3 3 0  3.75 3 0  4.5 3 0  5.25 3 0  6 3 0  6.75 3 0  7.5 3 0  8.25 3 0  9 3 0  9.75 3 0  10.5 3 0  11.25 3 0  12 3 0  12.75 3 0  13.5 3 0  14.25 3 0  15 3 0  15.75 3 0  16.5 3 0  17.25 3 0  18 3 0  18.75 3 0  19.5 3 0  20.25 3 0  21 3 0  21.75 3 0  22.5 3 0  23.25 3 0  24 3 0  24.75 3 0  25.5 3 0  26.25 3 0  27 3 0  27.75 3 0  28.5 3 0  29.25 3 0  30 3 0  30.75 3 0  31.5 3 0  32.25 3 0  33 3 0  33.75 3 0  34.5 3 0  35.25 3 0  36 3 0  36.75 3 0  37.5 3 0  38.25 3 0  39 3 0  39.75 3 0  40.5 3 0  41.25 3 0  42 3 0  42.75 3 0  43.5 3 0  44.25 3 0  45 3 0  45.75 3 0  46.5 3 0  47.25 3 0  48 3 0  48.75 3 0  49.5 3 0  50.25 3 0  51 3 0  51.75 3 0  52.5 3 0  53.25 3 0  54 3 0  54.75 3 0  55.5 3 0  56.25 3 0  57 3 0  57.75 3 0  58.5 3 0  59.25 3 0  60 3 0  0 3.5 0  0.75 3.5 0  1.5 3.5 0  2.25 3.5 0  3 3.5 0  3.75 3.5 0  4.5 3.5 0  5.25 3.5 0  6 3.5 0  6.75 3.5 0  7.5 3.5 0  8.25 3.5 0  9 3.5 0  9.75 3.5 0  10.5 3.5 0  11.25 3.5 0  12 3.5 0  12.75 3.5 0  13.5 3.5 0  14.25 3.5 0  15 3.5 0  15.75 3.5 0  16.5 3.5 0  17.25 3.5 0  18 3.5 0  18.75 3.5 0  19.5 3.5 0  20.25 3.5 0  21 3.5 0  21.75 3.5 0  22.5 3.5 0  23.25 3.5 0  24 3.5 0  24.75 3.5 0  25.5 3.5 0  26.25 3.5 0  27 3.5 0  27.75 3.5 0  28.5 3.5 0  29.25 3.5 0  30 3.5 0  30.75 3.5 0  31.5 3.5 0  32.25 3.5 0  33 3.5 0  33.75 3.5 0  34.5 3.5 0  35.25 3.5 0  36 3.5 0  36.75 3.5 0  37.5 3.5 0  38.25 3.5 0  39 3.5 0  39.75 3.5 0  40.5 3.5 0  41.25 3.5 0  42 3.5 0  42.75 3.5 0  43.5 3.5 0  44.25 3.5 0  45 3.5 0  45.75 3.5 0  46.5 3.5 0  47.25 3.5 0  48 3.5 0  48.75 3.5 0  49.5 3.5 0  50.25 3.5 0  51 3.5 0  51.75 3.5 0  52.5 3.5 0  53.25 3.5 0  54 3.5 0  54.75 3.5 0  55.5 3.5 0  56.25 3.5 0  57 3.5 0  57.75 3.5 0  58.5 3.5 0  59.25 3.5 0  60 3.5 0  0 4 0  0.75 4 0  1.5 4 0  2.25 4 0  3 4 0  3.75 4 0  4.5 4 0  5.25 4 0  6 4 0  6.75 4 0  7.5 4 0  8.25 4 0  9 4 0  9.75 4 0  10.5 4 0  11.25 4 0  12 4 0  12.75 4 0  13.5 4 0  14.25 4 0  15 4 0  15.75 4 0  16.5 4 0  17.25 4 0  18 4 0  18.75 4 0  19.5 4 0  20.25 4 0  21 4 0  21.75 4 0  22.5 4 0  23.25 4 0  24 4 0  24.75 4 0  25.5 4 0  26.25 4 0  27 4 0  27.75 4 0  28.5 4 0  29.25 4 0  30 4 0  30.75 4 0  31.5 4 0  32.25 4 0  33 4 0  33.75 4 0  34.5 4 0  35.25 4 0  36 4 0  36.75 4 0  37.5 4 0  38.25 4 0  39 4 0  39.75 4 0  40.5 4 0  41.25 4 0  42 4 0  42.75 4 0  43.5 4 0  44.25 4 0  45 4 0  45.75 4 0  46.5 4 0  47.25 4 0  48 4 0  48.75 4 0  49.5 4 0  50.25 4 0  51 4 0  51.75 4 0  52.5 4 0  53.25 4 0  54 4 0  54.75 4 0  55.5 4 0  56.25 4 0  57 4 0  57.75 4 0  58.5 4 0  59.25 4 0  60 4 0  0.375 0.25 0  1.125 0.25 0  1.875 0.25 0  2.625 0.25 0  3.375 0.25 0  4.125 0.25 0  4.875 0.25 0  5.625 0.25 0  6.375 0.25 0  7.125 0.25 0  7.875 0.25 0  8.625 0.25 0  9.375 0.25 0  10.125 0.25 0  10.875 0.25 0  11.625 0.25 0  12.375 0.25 0  13.125 0.25 0  13.875 0.25 0  14.625 0.25 0  15.375 0.25 0  16.125 0.25 0  16.875 0.25 0  17.625 0.25 0  18.375 0.25 0  19.125 0.25 0  19.875 0.25 0  20.625 0.25 0  21.375 0.25 0  22.125 0.25 0  22.875 0.25 0  23.625 0.25 0  24.375 0.25 0  25.125 0.25 0  25.875 0.25 0  26.625 0.25 0  27.375 0.25 0  28.125 0.25 0  28.875 0.25 0  29.625 0.25 0  30.375 0.25 0  31.125 0.25 0  31.875 0.25 0  32.625 0.25 0  33.375 0.25 0  34.125 0.25 0  34.875 0.25 0  35.625 0.25 0  36.375 0.25 0  37.125 0.25 0  37.875 0.25 0  38.625 0.25 0  39.375 0.25 0  40.125 0.25 0  40.875 0.25 0  41.625 0.25 0  42.375 0.25 0  43.125 0.25 0  43.875 0.25 0  44.625 0.25 0  45.375 0.25 0  46.125 0.25 0  46.875 0.25 0  47.625 0.25 0  48.375 0.25 0  49.125 0.25 0  49.875 0.25 0  50.625 0.25 0  51.375 0.25 0  52.125 0.25 0  52.875 0.25 0  53.625 0.25 0  54.375 0.25 0  55.125 0.25 0  55.875 0.25 0  56.625 0.25 0  57.375 0.25 0  58.125 0.25 0  58.875 0.25 0  59.625 0.25 0  0.375 0.75 0  1.125 0.75 0  1.875 0.75 0  2.625 0.75 0  3.375 0.75 0  4.125 0.75 0  4.875 0.75 0  5.625 0.75 0  6.375 0.75 0  7.125 0.75 0  7.875 0.75 0  8.625 0.75 0  9.375 0.75 0  10.125 0.75 0  10.875 0.75 0  11.625 0.75 0  12.375 0.75 0  13.125 0.75 0  13.875 0.75 0  14.625 0.75 0  15.375 0.75 0  16.125 0.75 0  16.875 0.75 0  17.625 0.75 0  18.375 0.75 0  19.125 0.75 0  19.875 0.75 0  20.625 0.75 0  21.375 0.75 0  22.125 0.75 0  22.875 0.75 0  23.625 0.75 0  24.375 0.75 0  25.125 0.75 0  25.875 0.75 0  26.625 0.75 0  27.375 0.75 0  28.125 0.75 0  28.875 0.75 0  29.625 0.75 0  30.375 0.75 0  31.125 0.75 0  31.875 0.75 0  32.625 0.75 0  33.375 0.75 0  34.125 0.75 0  34.875 0.75 0  35.625 0.75 0  36.375 0.75 0  37.125 0.75 0  37.875 0.75 0  38.625 0.75 0  39.375 0.75 0  40.125 0.75 0  40
[...]
<PointData  Vectors="f_8-0"> 
<DataArray  type="Float64"  Name="f_8-0"  NumberOfComponents="3" format="ascii">9.4484385249810591e-08 0.0000000000000000e+00 0.0000000000000000e+00  0.0000000000000000e+00 -5.4157234662794204e-08 0.0000000000000000e+00  1.3939370405438431e-05 -2.7999789393513136e-05 0.0000000000000000e+00  0.0000000000000000e+00 -1.0236234713369214e-07 0.0000000000000000e+00  0.0000000000000000e+00 0.0000000000000000e+00 0.0000000000000000e+00  8.0837651500521106e-05 -4.0936553055467317e-05 0.0000000000000000e+00  -3.4382133459801496e-05 0.0000000000000000e+00 0.0000000000000000e+00  -1.6083892868547725e-06 -2.9301371853466053e-06 0.0000000000000000e+00  -4.7024474358189058e-06 2.9123906611610772e-05 0.0000000000000000e+00  0.0000000000000000e+00 0.0000000000000000e+00 0.0000000000000000e+00  0.0000000000000000e+00 0.0000000000000000e+00 0.0000000000000000e+00  -8.6224221363818955e-06 -1.0358504151754740e-06 0.0000000000000000e+00  0.0000000000000000e+00 0.0000000000000000e+00 0.0000000000000000e+00  0.0000000000000000e+00 0.0000000000000000e+00 0.0000000000000000e+00  0.0000000000000000e+00 0.0000000000000000e+00 0.0000000000000000e+00  5.7048047481988959e-06 1.1266113063415769e-05 0.0000000000000000e+00  0.0000000000000000e+00 0.0000000000000000e+00 0.0000000000000000e+00  2.8284184132371172e-06 3.3352847164215406e-07 0.0000000000000000e+00  1.5753230386144838e-06 1.2052969558589653e-06 0.0000000000000000e+00  -1.8861602080478035e-05 -5.2697026454501538e-06 0.0000000000000000e+00  5.5093630452622903e-06 -2.6800727089003169e-06 0.0000000000000000e+00  0.0000000000000000e+00 0.0000000000000000e+00 0.0000000000000000e+00  -1.3024857777965446e-05 4.1914357435966559e-06 0.0000000000000000e+00  0.0000000000000000e+00 -1.7468761692730596e-07 0.0000000000000000e+00  2.4728359633856913e-06 4.9672138220869939e-07 0.0000000000000000e+00  0.0000000000000000e+00 0.0000000000000000e+00 0.0000000000000000e+00  0.0000000000000000e+00 0.0000000000000000e+00 0.0000000000000000e+00  0.0000000000000000e+00 0.0000000000000000e+00 0.0000000000000000e+00  0.0000000000000000e+00 0.0000000000000000e+00 0.0000000000000000e+00  0.0000000000000000e+00 2.3291452805889163e-07 0.0000000000000000e+00  6.4494110175790324e-07 5.4104398028960771e-06 0.0000000000000000e+00  2.5999547494450398e-04 -7.8790156491617417e-05 0.0000000000000000e+00  0.0000000000000000e+00 -9.1583794965861809e-07 0.0000000000000000e+00  0.0000000000000000e+00 0.0000000000000000e+00 0.0000000000000000e+00  6.5969862386127368e-06 -1.7763335141570631e-06 0.0000000000000000e+00  -5.7784423259267778e-07 1.3001415096879471e-05 0.0000000000000000e+00  0.0000000000000000e+00 -7.1219249811208192e-08 0.0000000000000000e+00  1.2105258608886686e-05 2.8927870736511268e-05 0.0000000000000000e+00  0.0000000000000000e+00 -6.6836713227919617e-09 0.0000000000000000e+00  2.4808370151490891e-07 -7.2262307170125595e-09 0.0000000000000000e+00  0.0000000000000000e+00 0.0000000000000000e+00 0.0000000000000000e+00  0.0000000000000000e+00 0.0000000000000000e+00 0.0000000000000000e+00  0.0000000000000000e+00 0.0000000000000000e+00 0.0000000000000000e+00  0.0000000000000000e+00 -2.8928738733166735e-08 0.0000000000000000e+00  1.5771998078225287e-05 -1.5369176526013533e-06 0.0000000000000000e+00  0.0000000000000000e+00 0.0000000000000000e+00 0.0000000000000000e+00  0.0000000000000000e+00 -8.3415481805782979e-07 0.0000000000000000e+00  -8.6990457803929578e-07 -9.5371158516392682e-06 0.0000000000000000e+00  0.0000000000000000e+00 0.0000000000000000e+00 0.0000000000000000e+00  0.0000000000000000e+00 0.0000000000000000e+00 0.0000000000000000e+00  5.5566660562226360e-06 0.0000000000000000e+00 0.0000000000000000e+00  1.1507224769383670e-05 -6.4417758268139945e-05 0.0000000000000000e+00  -4.7109853258307297e-07 0.0000000000000000e+00 0.0000000000000000e+00  1.1390790998811446e-06 -1.8265258258205330e-05 0.0000000000000000e+00  0.0000000000000000e+00 -2.6549308605650467e-07 0.0000000000000000e+00  1.1296628389573392e-07 1.6238668503991103e-07 0.0000000000000000e+00  -9.2322246911812508e-07 0.0000000000000000e+00 0.0000000000000000e+00  0.0000000000000000e+00 0.0000000000000000e+00 0.0000000000000000e+00  -1.2112726530499666e-07 -5.2681347932499209e-08 0.0000000000000000e+00  0.0000000000000000e+00 -8.0186972689326814e-08 0.0000000000000000e+00  0.0000000000000000e+00 0.0000000000000000e+00 0.0000000000000000e+00  0.0000000000000000e+00 1.1437900531148910e-07 0.0000000000000000e+00  0.0000000000000000e+00 0.0000000000000000e+00 0.0000000000000000e+00  -5.2712523148852674e-06 -7.0806753853299678e-07 0.0000000000000000e+00  0.0000000000000000e+00 -1.7197963044395751e-07 0.0000000000000000e+00  -8.2952495957785506e-06 8.2496681816464162e-06 0.0000000000000000e+00  0.0000000000000000e+00 1.2988404037451912e-07 0.0000000000000000e+00  0.0000000000000000e+00 0.0000000000000000e+00 0.0000000000000000e+00  -7.9607227959356204e-06 -2.0346849703693412e-06 0.0000000000000000e+00  0.0000000000000000e+00 0.0000000000000000e+00 0.0000000000000000e+00  4.7216615362282501e-07 0.0000000000000000e+00 0.0000000000000000e+00  0.0000000000000000e+00 0.0000000000000000e+00 0.0000000000000000e+00  0.0000000000000000e+00 0.0000000000000000e+00 0.0000000000000000e+00  -7.6902882570784386e-06 -8.1601610671129414e-06 0.0000000000000000e+00  0.0000000000000000e+00 0.0000000000000000e+00 0.0000000000000000e+00  0.0000000000000000e+00 0.0000000000000000e+00 0.0000000000000000e+00  0.0000000000000000e+00 3.6662211686224141e-09 0.0000000000000000e+00  -9.1500914845195642e-07 9.0423636090055358e-08 0.0000000000000000e+00  0.0000000000000000e+00 0.0000000000000000e+00 0.0000000000000000e+00  0.0000000000000000e+00 0.0000000000000000e+00 0.0000000000000000e+00  -1.7951904326023236e-06 -1.5250039740988545e-06 0.0000000000000000e+00  -1.3677460494525942e+08 -3.1790483518234934e-08 0.0000000000000000e+00  -1.7886027110569823e+08 2.7240693483697337e+08 0.0000000000000000e+00  -2.5027907429271881e+06 -2.2007933370542932e+08 0.0000000000000000e+00  9.2114702390945125e+06 -8.4798892618695963e+06 0.0000000000000000e+00  6.2879425252948955e+07 5.0465505814096265e+07 0.0000000000000000e+00  3.8599642880367473e+07 -1.2206950085990654e+08 0.0000000000000000e+00  5.2894922386840463e+07 3.3183006914876705e+08 0.0000000000000000e+00  -1.3953866926382980e+08 2.3281994024182394e+08 0.0000000000000000e+00  -1.8512350624825627e+08 -8.0180927410544723e+07 0.0000000000000000e+00  -3.7464642324907318e+07 -1.8578846896948656e+08 0.0000000000000000e+00  -6.7353011281836346e+07 2.3129952511591175e+08 0.0000000000000000e+00  4.4329755660251249e+06 -2.9546956604641354e+08 0.0000000000000000e+00  3.7202042818112828e+07 3.6238387445853531e+08 0.0000000000000000e+00  7.8263194739025794e+06 3.5352562070359625e+07 0.0000000000000000e+00  6.0697256933301389e+07 1.7436757086890271e+08 0.0000000000000000e+00  -1.5772991431826240e+08 6.2158311179558918e+07 0.0000000000000000e+00  1.0421810084808773e+08 -1.5082265966280168e+08 0.0000000000000000e+00  -1.6192937461247103e+07 3.9550987691369854e+07 0.0000000000000000e+00  6.7037662211352848e+07 3.9144550204564109e+07 0.0000000000000000e+00  1.3578566200510520e+08 7.2418683848147422e+07 0.0000000000000000e+00  -1.7751582329846090e+08 -3.0446329513738471e+08 0.0000000000000000e+00  -1.9344489015778056e+08 2.7834086809616798e+08 0.0000000000000000e+00  -2.3088183876863590e+08 -7.6516669220923092e+06 0.0000000000000000e+00  2.5125462905159459e+08 4.6163253040763453e+07 0.0000000000000000e+00  6.5105131684209719e+07 5.5880310665369846e+07 0.0000000000000000e+00  -1.5704166840396175e+08 4.1338545657606624e+07 0.0000000000000000e+00  2.2823036782337900e+07 -3.4719191537484044e+08 0.0000000000000000e+00  1.9621313371312063e+07 -1.6052854153155407e+08 0.0000000000000000e+00  1.4333781335044092e+08 3.7925049093351379e+07 0.0000000000000000e+00  -6.5003937525165327e+07 5.3806800984076127e+07 0.0000000000000000e+00  2.1937211186251093e+07 8.1313017366174713e+07 0.0000000000000000e+00  -1.7999528992064482e+08 6.1808252882597812e+07 0.0000000000000000e+00  1.4725294528406096e+08 -1.0762489952589104e+08 0.0000000000000000e+00  1.9848974633299738e+08 -6.3218365526371300e+08 0.0000000000000000e+00  -2.6602273355104938e+08 2.6561378967271376e+08 0.0000000000000000e+00  -2.1492020968453437e+08 1.1213978124903472e+08 0.0000000000000000e+00  -5.6890201377496028e+08 -3.7271879588455838e+08 0.0000000000000000e+00  1.7132158742840242e+08 3.6358109481811661e+08 0.0000000000000000e+00  4.5214518191189516e+08 9.6178181553456694e+07 0.0000000000000000e+00  -1.3438635056598073e+08 2.9195571618199155e+07 0.0000000000000000e+00  2.1383488108572465e+08 6.1113081789898920e+08 0.0000000000000000e+00  3.7905070513171381e+08 -1.3078299295007607e+08 0.0000000000000000e+00  4.8753444547595955e+07 -1.2312237581175637e+07 0.0000000000000000e+00  1.2867098291929862e+08 -1.2921723138079736e+08 0.0000000000000000e+00  1.1203626208054702e+08 1.8041461141710183e+08 0.0000000000000000e+00  -1.8331309736045223e+08 -7.6568079010402188e+07 0.0000000000000000e+00  3.5768785303830422e+07 1.7771435764082068e+08 0.0000000000000000e+00  4.5926940558251292e+07 5.8057175434790261e+07 0.0000000000000000e+00  -1.9816574591597107e+08 8.3768684800845027e+07 0.0000000000000000e+00  7.2074218053289009e+06 -1.2165005731805193e+08 0.0000000000000000e+00  -1.5123092408028805e+08 2.9413310879463041e+08 0.0000000000000000e+00  -1.0441763115909359e+08 -8.5802603991063789e+07 0.0000000000000000e+00  3.7025614893220827e+07 -3.7820612219871283e+08 0.0000000000000000e+00  -4.9470923356095038e+07 5.5978150347517475e+07 0.0000000000000000e+00  -2.2662223808439657e+07 3.6308778738637105e+07 0.0000000000000000e+00  -7.1546833107682690e+06 -7.1768795647301361e+07 0.0000000000000000e+00  9.6839050719782293e+07 1.3867453287270349e+08 0.0000000000000000e+00  5.3405542919861865e+08 -2.5216959174067667e+08 0.0000000000000000e+00  3.9476988900161818e+07 1.5574941153376400e+07 0.0000000000000000e+00  2.5624146140740889e+08 -2.5299928536907282e+08 0.0000000000000000e+00  6.2642454506568789e+08 -5.2725298269555248e+07 0.0000000000000000e+00  9.2562682057804540e+07 1.7969510529078925e+08 0.0000000000000000e+00  2.0614406601287022e+08 2.2491574751319674e+08 0.0000000000000000e+00  3.8798392089871787e+06 -1.3328690705779889e+08 0.0000000000000000e+00  -1.0002182706294041e+07 5.7699595929465659e+07 0.0000000000000000e+00  -7.1161450317594424e+07 -2.5514246144651893e+08 0.0000000000000000e+00  1.8028491155146591e+07 2.0390881968986008e+08 0.0000000000000000e+00  4.2856079391417623e+07 1.5132528465181011e+08 0.0000000000000000e+00  -4.2166820348303035e+07 9.8039672601108775e+07 0.0000000000000000e+00  -2.0966030446865004e+08 5.2900584176010057e+07 0.0000000000000000e+00  -3.8825506501638973e+08 -9.4262175975519210e+07 0.0000000000000000e+00  1.1028253108915320e+08 1.7273717763678554e+08 0.0000000000000000e+00  3.0122171734912831e+08 1.2094832215523530e+07 0.0000000000000000e+00  -3.1152954153190717e+07 5.0421721473362094e+08 0.0000000000000000e+00  -1.3983804797408177e+07 -2.6240856028815141e+08 0.0000000000000000e+00  2.5476942650572303e+08 6.1710831844716275e+08 0.0000000000000000e+00  1.9964689475282556e+08 -8.1965647213932514e+07 0.0000000000000000e+00  1.4300314844352865e+08 1.0749049776683824e+08 0.0000000000000000e+00  4.2888588140183342e+08 3.5207072513305008e+07 0.0000000000000000e+00  4.1376217342048872e+08 -2.3782785135492194e+08 0.0000000000000000e+00  2.1548999135171998e+08 0.0000000000000000e+00 0.0000000000000000e+00  1.9109001259254253e+08 0.0000000000000000e+00 0.0000000000000000e+00  9.0685551630573258e+07 6.9018579000941619e+07 0.0000000000000000e+00  1.8994111679899421e+08 1.4117804432624304e+08 0.0000000000000000e+00  2.0415493283666241e+08 2.0915905971640477e+08 0.0000000000000000e+00  -1.4441494559177268e+08 -3.0983468160799770e+06 0.0000000000000000e+00  -8.6420811190441191e+07 2.9912586528226636e+07 0.0000000000000000e+00  -1.0823702094353035e+08 -1.5319661895142270e+07 0.0000000000000000e+00  -2.1062733252605176e+08 -1.8587637347641489e+08 0.0000000000000000e+00  -1.0838589552586155e+08 -3.6440085194828035e+06 0.0000000000000000e+00  -1.1682536997074082e+08 -1.8624472838874245e+08 0.0000000000000000e+00  3.0499219684705850e+07 9.5616937434104770e+07 0.0000000000000000e+00  -6.8482375477598920e+07 -1.3020442367496794e+07 0.0000000000000000e+00  1.1230527276005575e+07 -2.5322204259101477e+08 0.0000000000000000e+00  -6.5214255451094732e+07 -7.2893192329426795e+07 0.0000000000000000e+00  -1.4080739567621267e+08 -3.7765952045005910e+07 0.0000000000000000e+00  -4.9109424221818201e+07 -1.5155871366544485e+08 0.0000000000000000e+00  -8.2846275160817027e+07 -1.8480900451448321e+08 0.0000000000000000e+00  2.4198772825108629e+08 2.0894474651382335e+07 0.0000000000000000e+00  1.7682957096250099e+08 -3.3591491555938083e+08 0.0000000000000000e+00  -5.5424719675768293e+07 -8.0492574425940225e+06 0.0000000000000000e+00  -2.7097846948591095e+08 -3.5948410267531727e+06 0.0000000000000000e+00  3.9005590484379135e+07 -1.6248375443776464e+08 0.0000000000000000e+00  -1.9169516253897536e+08 -1.7165032869475788e+08 0.0000000000000000e+00  -3.9748387996858662e+08 -2.3429086459913582e+08 0.0000000000000000e+00  7.4116585473126164e+06 -2.0922767326671785e+08 0.0000000000000000e+00  -1.1397544582302859e+08 6.4444542231854022e+07 0.0000000000000000e+00  9.9672727751083866e+07 9.0158919896472722e+07 0.0000000000000000e+00  3.5282246345385832e+08 -1.7867602343605781e+08 0.0000000000000000e+00  -4.8982799302704901e+08 -4.5761100454523152e+08 0.0000000000000000e+00  -3.4347834216072989e+08 6.3393775913714862e+08 0.0000000000000000e+00  -4.6332908961002195e+08 -4.8985143550166792e+08 0.0000000000000000e+00  -4.7100384727340955e+08 5.0488944233283192e+07 0.0000000000000000e+00  2.5341371709492254e+08 -1.9385134477325818e+08 0.0000000000000000e+00  2.6568178087874353e+08 -3.1548817421209025e+08 0.0000000000000000e+00  9.6133848877762243e+07 -4.8775098570934147e+08 0.0000000000000000e+00  1.0333086288174662e+08 -1.5953119080304638e+08 0.0000000000000000e+00  3.9604446813911426e+08 4.1679197663969874e+07 0.0000000000000000e+00  1.8594735012046035e+07 6.7792012026393473e+07 0.0000000000000000e+00  3.0777863470533848e+08 -1.4061889320161792e+07 0.0000000000000000e+00  3.5300420319619566e+08 1.8147478452827099e+08 0.0000000000000000e+00  -3.5471246697245859e+07 3.4326315545751601e+08 0.0000000000000000e+00  -4.0212881110885209e+08 8.8339007213970497e+07 0.0000000000000000e+00  -5.3353693390603801e+06 1.3858818567338064e+08 0.0000000000000000e+00  -9.6654651633845031e+07 -1.5033070495756191e+08 0.0000000000000000e+00  1.6943022685227636e+08 -1.6394394648367974e+08 0.0000000000000000e+00  -1.2334481543804836e+08 3.4526829292177275e+07 0.0000000000000000e+00  -8.3643097218142703e+07 2.4195286100062153e+08 0.0000000000000000e+00  1.4506051827622019e+07 1.3179522003087726e+08 0.0000000000000000e+00  -4.7999338692939416e+07 -2.4125971360403207e+08 0.0000000000000000e+00  -7.9018503349329427e+07 2.1707642629893550e+08 0.0000000000000000e+00  -7.2748582852220789e+07 1.6749678183406380e+08 0.0000000000000000e+00  3.7216555004116595e+07 -2.2176756099506814e+07 0.0000000000000000e+00  -7.3369827624816999e+07 7.3842091581847921e+07 0.0000000000000000e+00  -5.3380428557588067e+06 -7.1105317544832706e+07 0.0000000000000000e+00  1.0291247158362885e+08 -8.8653747953151181e+07 0.0000000000000000e+00  -4.8476607991582170e+07 6.2761047746885575e+07 0.0000000000000000e+00  -4.6529117055785703e+06 -6.6533393182329714e+07 0.0000000000000000e+00  -6.0060062883222640e+07 1.4816454126745623e+08 0.0000000000000000e+00  8.3034202057294801e+07 -1.2074720724233437e+08 0.0000000000000000e+00  1.1395511892438731e+08 -2.2516643767429030e+08 0.0000000000000000e+00  5.5560023654295124e+07 -3.5000284620977157e+08 0.0000000000000000e+00  1.8237644061361837e+08 5.0117797530966192e+07 0.0000000000000000e+00  -7.2202673692642093e+07 9.2368392164153427e+07 0.0000000000000000e+00  1.6411477492911990e+06 5.1056932627051659e+07 0.0000000000000000e+00  2.0362865898552928e+07 1.4491349868720382e+08 0.0000000000000000e+00  2.0081098310225356e+07 1.2312336470174316e+08 0.0000000000000000e+00  -1.1992892750267953e+07 1.1302337708824821e+07 0.0000000000000000e+00  1.2735875848781559e+08 6.0360225827097362e+06 0.0000000000000000e+00  -1.8241303986179806e+07 -2.5899196180473998e+08 0.0000000000000000e+00  -5.7926142069712758e+07 -3.8167930421140864e+07 0.0000000000000000e+00  -4.5408368064949401e+07 -1.4378197902150869e+08 0.0000000000000000e+00  -9.6125243473128781e+07 8.6900651229256187e+06 0.0000000000000000e+00  -8.9157907380946249e+07 -1.0724962718047088e+08 0.0000000000000000e+00  -1.8554785523561722e+08 -2.5705208413401846e+07 0.0000000000000000e+00  -2.8063200045068949e+08 -3.3705607422476746e+07 0.0000000000000000e+00  -2.6077538351226151e+08 4.8506288125732772e+07 0.0000000000000000e+00  -2.0602416976487079e+08 1.9287708309719068e+08 0.0000000000000000e+00  -2.6216114109665349e+08 2.7234673534478760e+08 0.0000000000000000e+00  2.5090513932600766e+07 -2.6476900700165725e+08 0.0000000000000000e+00  2.8183485886674565e+08 2.6922145466722679e+08 0.0000000000000000e+00  5.6095094290404832e+08 -7.8384775210519869e-09 0.0000000000000000e+00  1.9943506202221025e+07 0.0000000000000000e+00 0.0000000000000000e+00  1.4475951741850570e+08 1.9534382644207278e+08 0.0000000000000000e+00  1.0743311376886418e+08 2.5933138446045440e+07 0.0000000000000000e+00  3.1854880592890024e+07 7.0043485791649222e+07 0.0000000000000000e+00  3.0883636984397030e+08 8.7902573575229626e+06 0.0000000000000000e+00  1.2361650666347815e+08 -2.7214010903189802e+08 0.0000000000000000e+00  -1.9043243547832820e+08 -2.1175693583892223e+08 0.0000000000000000e+00  -2.2079090232374856e+08 -6.4952828505666085e+07 0.0000000000000000e+00  -1.1951158900176238e+08 1.9070495408694762e+08 0.0000000000000000e+00  -8.7349645130948648e+06 -1.7892517659557343e+08 0.0000000000000000e+00  -1.5202752626027250e+08 1.7782812950055394e+08 0.0000000000000000e+00  -5.6464478457132563e+07 9.0242268334809095e+06 0.0000000000000000e+00  9.5519497176970959e+07 -8.7265835446331128e+07 0.0000000000000000e+00  -2.2797599525304529e+08 -1.7634474786968619e+08 0.0000000000000000e+00  2.7024402669704780e+07 4.7548919605353996e+07 0.0000000000000000e+00  -1.9207366389576149e+08 -1.1540000029479499e+08 0.0000000000000000e+00  9.9901879228801683e+07 -2.3308960260337833e+08 0.0000000000000000e+00  -2.7930976706702843e+07 -5.3137176764151074e+07 0.0000000000000000e+00  -4.0445298228728706e+06 -5.7939440534742959e+07 0.0000000000000000e+00  2.2645493224801517e+08 -2.0337383533023503e+08 0.0000000000000000e+00  1.6678117924359500e+08 1.7670414518279496e+08 0.0000000000000000e+00  -3.9634193194976799e+07 -3.6619162590683602e+07 0.0000000000000000e+00  1.9208018403341356e+08 -2.4095623889390975e+07 0.0000000000000000e+00  1.4253294747681838e+08 -2.9698655198922658e+08 0.0000000000000000e+00  -2.2950194714973828e+08 3.2268814410345334e+08 0.0000000000000000e+00  -3.2079651407928836e+07 -1.6072580316058177e+08 0.0000000000000000e+00  -1.8413473974372742e+08 -1.7978480790431911e+08 0.0000000000000000e+00  -3.8175284578693527e+08 -1.0765273284568873e+08 0.0000000000000000e+00  4.5759321911809874e+08 -1.2185000814953442e+08 0.0000000000000000e+00  1.7349974372526780e+08 2.9142468462575221e+08 0.0000000000000000e+00  -9.2933677237914369e+07 1.1015763277519518e+08 0.0000000000000000e+00  -9.7018528506262854e+07 9.6840766886850566e+07 0.0000000000000000e+00  4.5493280302617066e+07 -1.2201938553188068e+08 0.0000000000000000e+00  -1.1676374227693308e+07 7.6951202862151062e+08 0.0000000000000000e+00  -9.8575130041698739e+07 -2.0702806468997273e+08 0.0000000000000000e+00  3.4784217577677703e+08 2.1458945234967470e+08 0.0000000000000000e+00  2.3598889862943622e+08 -4.2203784424303997e+08 0.0000000000000000e+00  8.3279609902917698e+07 7.0817049854871519e+06 0.0