<?xml version="1.0"?>
<VTKFile type="UnstructuredGrid"  version="0.1"  >
<UnstructuredGrid>
<Piece  NumberOfPoints="1369" NumberOfCells="2560">
<Points>
<DataArray  type="Float64"  NumberOfComponents="3"  format="ascii">0 0 0  0.75 0 0  1.5 0 0  2.25 0 0  3 0 0  3.75 0 0  4.5 0 0  5.25 0 0  6 0 0  6.75 0 0  7.5 0 0  8.25 0 0  9 0 0  9.75 0 0  10.5 0 0  11.25 0 0  12 0 0  12.75 0 0  13.5 0 0  14.25 0 0  15 0 0  15.75 0 0  16.5 0 0  17.25 0 0  18 0 0  18.75 0 0  19.5 0 0  20.25 0 0  21 0 0  21.75 0 0  22.5 0 0  23.25 0 0  24 0 0  24.75 0 0  25.5 0 0  26.25 0 0  27 0 0  27.75 0 0  28.5 0 0  29.25 0 0  30 0 0  30.75 0 0  31.5 0 0  32.25 0 0  33 0 0  33.75 0 0  34.5 0 0  35.25 0 0  36 0 0  36.75 0 0  37.5 0 0  38.25 0 0  39 0 0  39.75 0 0  40.5 0 0  41.25 0 0  42 0 0  42.75 0 0  43.5 0 0  44.25 0 0  45 0 0  45.75 0 0  46.5 0 0  47.25 0 0  48 0 0  48.75 0 0  49.5 0 0  50.25 0 0  51 0 0  51.75 0 0  52.5 0 0  53.25 0 0  54 0 0  54.75 0 0  55.5 0 0  56.25 0 0  57 0 0  57.75 0 0  58.5 0 0  59.25 0 0  60 0 0  0 0.5 0  0.75 0.5 0  1.5 0.5 0  2.25 0.5 0  3 0.5 0  3.75 0.5 0  4.5 0.5 0  5.25 0.5 0  6 0.5 0  6.75 0.5 0  7.5 0.5 0  8.25 0.5 0  9 0.5 0  9.75 0.5 0  10.5 0.5 0  11.25 0.5 0  12 0.5 0  12.75 0.5 0  13.5 0.5 0  14.25 0.5 0  15 0.5 0  15.75 0.5 0  16.5 0.5 0  17.25 0.5 0  18 0.5 0  18.75 0.5 0  19.5 0.5 0  20.25 0.5 0  21 0.5 0  21.75 0.5 0  22.5 0.5 0  23.25 0.5 0  24 0.5 0  24.75 0.5 0  25.5 0.5 0  26.25 0.5 0  27 0.5 0  27.75 0.5 0  28.5 0.5 0  29.25 0.5 0  30 0.5 0  30.75 0.5 0  31.5 0.5 0  32.25 0.5 0  33 0.5 0  33.75 0.5 0  34.5 0.5 0  35.25 0.5 0  36 0.5 0  36.75 0.5 0  37.5 0.5 0  38.25 0.5 0  39 0.5 0  39.75 0.5 0  40.5 0.5 0  41.25 0.5 0  42 0.5 0  42.75 0.5 0  43.5 0.5 0  44.25 0.5 0  45 0.5 0  45.75 0.5 0  46.5 0.5 0  47.25 0.5 0  48 0.5 0  48.75 0.5 0  49.5 0.5 0  50.25 0.5 0  51 0.5 0  51.75 0.5 0  52.5 0.5 0  53.25 0.5 0  54 0.5 0  54.75 0.5 0  55.5 0.5 0  56.25 0.5 0  57 0.5 0  57.75 0.5 0  58.5 0.5 0  59.25 0.5 0  60 0.5 0  0 1 0  0.75 1 0  1.5 1 0  2.25 1 0  3 1 0  3.75 1 0  4.5 1 0  5.25 1 0  6 1 0  6.75 1 0  7.5 1 0  8.25 1 0  9 1 0  9.75 1 0  10.5 1 0  11.25 1 0  12 1 0  12.75 1 0  13.5 1 0  14.25 1 0  15 1 0  15.75 1 0  16.5 1 0  17.25 1 0  18 1 0  18.75 1 0  19.5 1 0  20.25 1 0  21 1 0  21.75 1 0  22.5 1 0  23.25 1 0  24 1 0  24.75 1 0  25.5 1 0  26.25 1 0  27 1 0  27.75 1 0  28.5 1 0  29.25 1 0  30 1 0  30.75 1 0  31.5 1 0  32.25 1 0  33 1 0  33.75 1 0  34.5 1 0  35.25 1 0  36 1 0  36.75 1 0  37.5 1 0  38.25 1 0  39 1 0  39.75 1 0  40.5 1 0  41.25 1 0  42 1 0  42.75 1 0  43.5 1 0  44.25 1 0  45 1 0  45.75 1 0  46.5 1 0  47.25 1 0  48 1 0  48.75 1 0  49.5 1 0  50.25 1 0  51 1 0  51.75 1 0  52.5 1 0  53.25 1 0  54 1 0  54.75 1 0  55.5 1 0  56.25 1 0  57 1 0  57.75 1 0  58.5 1 0  59.25 1 0  60 1 0  0 1.5 0  0.75 1.5 0  1.5 1.5 0  2.25 1.5 0  3 1.5 0  3.75 1.5 0  4.5 1.5 0  5.25 1.5 0  6 1.5 0  6.75 1.5 0  7.5 1.5 0  8.25 1.5 0  9 1.5 0  9.75 1.5 0  10.5 1.5 0  11.25 1.5 0  12 1.5 0  12.75 1.5 0  13.5 1.5 0  14.25 1.5 0  15 1.5 0  15.75 1.5 0  16.5 1.5 0  17.25 1.5 0  18 1.5 0  18.75 1.5 0  19.5 1.5 0  20.25 1.5 0  21 1.5 0  21.75 1.5 0  22.5 1.5 0  23.25 1.5 0  24 1.5 0  24.75 1.5 0  25.5 1.5 0  26.25 1.5 0  27 1.5 0  27.75 1.5 0  28.5 1.5 0  29.25 1.5 0  30 1.5 0  30.75 1.5 0  31.5 1.5 0  32.25 1.5 0  33 1.5 0  33.75 1.5 0  34.5 1.5 0  35.25 1.5 0  36 1.5 0  36.75 1.5 0  37.5 1.5 0  38.25 1.5 0  39 1.5 0  39.75 1.5 0  40.5 1.5 0  41.25 1.5 0  42 1.5 0  42.75 1.5 0  43.5 1.5 0  44.25 1.5 0  45 1.5 0  45.75 1.5 0  46.5 1.5 0  47.25 1.5 0  48 1.5 0  48.75 1.5 0  49.5 1.5 0  50.25 1.5 0  51 1.5 0  51.75 1.5 0  52.5 1.5 0  53.25 1.5 0  54 1.5 0  54.75 1.5 0  55.5 1.5 0  56.25 1.5 0  57 1.5 0  57.75 1.5 0  58.5 1.5 0  59.25 1.5 0  60 1.5 0  0 2 0  0.75 2 0  1.5 2 0  2.25 2 0  3 2 0  3.75 2 0  4.5 2 0  5.25 2 0  6 2 0  6.75 2 0  7.5 2 0  8.25 2 0  9 2 0  9.75 2 0  10.5 2 0  11.25 2 0  12 2 0  12.75 2 0  13.5 2 0  14.25 2 0  15 2 0  15.75 2 0  16.5 2 0  17.25 2 0  18 2 0  18.75 2 0  19.5 2 0  20.25 2 0  21 2 0  21.75 2 0  22.5 2 0  23.25 2 0  24 2 0  24.75 2 0  25.5 2 0  26.25 2 0  27 2 0  27.75 2 0  28.5 2 0  29.25 2 0  30 2 0  30.75 2 0  31.5 2 0  32.25 2 0  33 2 0  33.75 2 0  34.5 2 0  35.25 2 0  36 2 0  36.75 2 0  37.5 2 0  38.25 2 0  39 2 0  39.75 2 0  40.5 2 0  41.25 2 0  42 2 0  42.75 2 0  43.5 2 0  44.25 2 0  45 2 0  45.75 2 0  46.5 2 0  47.25 2 0  48 2 0  48.75 2 0  49.5 2 0  50.25 2 0  51 2 0  51.75 2 0  52.5 2 0  53.25 2 0  54 2 0  54.75 2 0  55.5 2 0  56.25 2 0  57 2 0  57.75 2 0  58.5 2 0  59.25 2 0  60 2 0  0 2.5 0  0.75 2.5 0  1.5 2.5 0  2.25 2.5 0  3 2.5 0  3.75 2.5 0  4.5 2.5 0  5.25 2.5 0  6 2.5 0  6.75 2.5 0  7.5 2.5 0  8.25 2.5 0  9 2.5 0  9.75 2.5 0  10.5 2.5 0  11.25 2.5 0  12 2.5 0  12.75 2.5 0  13.5 2.5 0  14.25 2.5 0  15 2.5 0  15.75 2.5 0  16.5 2.5 0  17.25 2.5 0  18 2.5 0  18.75 2.5 0  19.5 2.5 0  20.25 2.5 0  21 2.5 0  21.75 2.5 0  22.5 2.5 0  23.25 2.5 0  24 2.5 0  24.75 2.5 0  25.5 2.5 0  26.25 2.5 0  27 2.5 0  27.75 2.5 0  28.5 2.5 0  29.25 2.5 0  30 2.5 0  30.75 2.5 0  31.5 2.5 0  32.25 2.5 0  33 2.5 0  33.75 2.5 0  34.5 2.5 0  35.25 2.5 0  36 2.5 0  36.75 2.5 0  37.5 2.5 0  38.25 2.5 0  39 2.5 0  39.75 2.5 0  40.5 2.5 0  41.25 2.5 0  42 2.5 0  42.75 2.5 0  43.5 2.5 0  44.25 2.5 0  45 2.5 0  45.75 2.5 0  46.5 2.5 0  47.25 2.5 0  48 2.5 0  48.75 2.5 0  49.5 2.5 0  50.25 2.5 0  51 2.5 0  51.75 2.5 0  52.5 2.5 0  53.25 2.5 0  54 2.5 0  54.75 2.5 0  55.5 2.5 0  56.25 2.5 0  57 2.5 0  57.75 2.5 0  58.5 2.5 0  59.25 2.5 0  60 2.5 0  0 3 0  0.75 3 0  1.5 3 0  2.25 3 0  3 3 0  3.75 3 0  4.5 3 0  5.25 3 0  6 3 0  6.75 3 0  7.5 3 0  8.25 3 0  9 3 0  9.75 3 0  10.5 3 0  11.25 3 0  12 3 0  12.75 3 0  13.5 3 0  14.25 3 0  15 3 0  15.75 3 0  16.5 3 0  17.25 3 0  18 3 0  18.75 3 0  19.5 3 0  20.25 3 0  21 3 0  21.75 3 0  22.5 3 0  23.25 3 0  24 3 0  24.75 3 0  25.5 3 0  26.25 3 0  27 3 0  27.75 3 0  28.5 3 0  29.25 3 0  30 3 0  30.75 3 0  31.5 3 0  32.25 3 0  33 3 0  33.75 3 0  34.5 3 0  35.25 3 0  36 3 0  36.75 3 0  37.5 3 0  38.25 3 0  39 3 0  39.75 3 0  40.5 3 0  41.25 3 0  42 3 0  42.75 3 0  43.5 3 0  44.25 3 0  45 3 0  45.75 3 0  46.5 3 0  47.25 3 0  48 3 0  48.75 3 0  49.5 3 0  50.25 3 0  51 3 0  51.75 3 0  52.5 3 0  53.25 3 0  54 3 0  54.75 3 0  55.5 3 0  56.25 3 0  57 3 0  57.75 3 0  58.5 3 0  59.25 3 0  60 3 0  0 3.5 0  0.75 3.5 0  1.5 3.5 0  2.25 3.5 0  3 3.5 0  3.75 3.5 0  4.5 3.5 0  5.25 3.5 0  6 3.5 0  6.75 3.5 0  7.5 3.5 0  8.25 3.5 0  9 3.5 0  9.75 3.5 0  10.5 3.5 0  11.25 3.5 0  12 3.5 0  12.75 3.5 0  13.5 3.5 0  14.25 3.5 0  15 3.5 0  15.75 3.5 0  16.5 3.5 0  17.25 3.5 0  18 3.5 0  18.75 3.5 0  19.5 3.5 0  20.25 3.5 0  21 3.5 0  21.75 3.5 0  22.5 3.5 0  23.25 3.5 0  24 3.5 0  24.75 3.5 0  25.5 3.5 0  26.25 3.5 0  27 3.5 0  27.75 3.5 0  28.5 3.5 0  29.25 3.5 0  30 3.5 0  30.75 3.5 0  31.5 3.5 0  32.25 3.5 0  33 3.5 0  33.75 3.5 0  34.5 3.5 0  35.25 3.5 0  36 3.5 0  36.75 3.5 0  37.5 3.5 0  38.25 3.5 0  39 3.5 0  39.75 3.5 0  40.5 3.5 0  41.25 3.5 0  42 3.5 0  42.75 3.5 0  43.5 3.5 0  44.25 3.5 0  45 3.5 0  45.75 3.5 0  46.5 3.5 0  47.25 3.5 0  48 3.5 0  48.75 3.5 0  49.5 3.5 0  50.25 3.5 0  51 3.5 0  51.75 3.5 0  52.5 3.5 0  53.25 3.5 0  54 3.5 0  54.75 3.5 0  55.5 3.5 0  56.25 3.5 0  57 3.5 0  57.75 3.5 0  58.5 3.5 0  59.25 3.5 0  60 3.5 0  0 4 0  0.75 4 0  1.5 4 0  2.25 4 0  3 4 0  3.75 4 0  4.5 4 0  5.25 4 0  6 4 0  6.75 4 0  7.5 4 0  8.25 4 0  9 4 0  9.75 4 0  10.5 4 0  11.25 4 0  12 4 0  12.75 4 0  13.5 4 0  14.25 4 0  15 4 0  15.75 4 0  16.5 4 0  17.25 4 0  18 4 0  18.75 4 0  19.5 4 0  20.25 4 0  21 4 0  21.75 4 0  22.5 4 0  23.25 4 0  24 4 0  24.75 4 0  25.5 4 0  26.25 4 0  27 4 0  27.75 4 0  28.5 4 0  29.25 4 0  30 4 0  30.75 4 0  31.5 4 0  32.25 4 0  33 4 0  33.75 4 0  34.5 4 0  35.25 4 0  36 4 0  36.75 4 0  37.5 4 0  38.25 4 0  39 4 0  39.75 4 0  40.5 4 0  41.25 4 0  42 4 0  42.75 4 0  43.5 4 0  44.25 4 0  45 4 0  45.75 4 0  46.5 4 0  47.25 4 0  48 4 0  48.75 4 0  49.5 4 0  50.25 4 0  51 4 0  51.75 4 0  52.5 4 0  53.25 4 0  54 4 0  54.75 4 0  55.5 4 0  56.25 4 0  57 4 0  57.75 4 0  58.5 4 0  59.25 4 0  60 4 0  0.375 0.25 0  1.125 0.25 0  1.875 0.25 0  2.625 0.25 0  3.375 0.25 0  4.125 0.25 0  4.875 0.25 0  5.625 0.25 0  6.375 0.25 0  7.125 0.25 0  7.875 0.25 0  8.625 0.25 0  9.375 0.25 0  10.125 0.25 0  10.875 0.25 0  11.625 0.25 0  12.375 0.25 0  13.125 0.25 0  13.875 0.25 0  14.625 0.25 0  15.375 0.25 0  16.125 0.25 0  16.875 0.25 0  17.625 0.25 0  18.375 0.25 0  19.125 0.25 0  19.875 0.25 0  20.625 0.25 0  21.375 0.25 0  22.125 0.25 0  22.875 0.25 0  23.625 0.25 0  24.375 0.25 0  25.125 0.25 0  25.875 0.25 0  26.625 0.25 0  27.375 0.25 0  28.125 0.25 0  28.875 0.25 0  29.625 0.25 0  30.375 0.25 0  31.125 0.25 0  31.875 0.25 0  32.625 0.25 0  33.375 0.25 0  34.125 0.25 0  34.875 0.25 0  35.625 0.25 0  36.375 0.25 0  37.125 0.25 0  37.875 0.25 0  38.625 0.25 0  39.375 0.25 0  40.125 0.25 0  40.875 0.25 0  41.625 0.25 0  42.375 0.25 0  43.125 0.25 0  43.875 0.25 0  44.625 0.25 0  45.375 0.25 0  46.125 0.25 0  46.875 0.25 0  47.625 0.25 0  48.375 0.25 0  49.125 0.25 0  49.875 0.25 0  50.625 0.25 0  51.375 0.25 0  52.125 0.25 0  52.875 0.25 0  53.625 0.25 0  54.375 0.25 0  55.125 0.25 0  55.875 0.25 0  56.625 0.25 0  57.375 0.25 0  58.125 0.25 0  58.875 0.25 0  59.625 0.25 0  0.375 0.75 0  1.125 0.75 0  1.875 0.75 0  2.625 0.75 0  3.375 0.75 0  4.125 0.75 0  4.875 0.75 0  5.625 0.75 0  6.375 0.75 0  7.125 0.75 0  7.875 0.75 0  8.625 0.75 0  9.375 0.75 0  10.125 0.75 0  10.875 0.75 0  11.625 0.75 0  12.375 0.75 0  13.125 0.75 0  13.875 0.75 0  14.625 0.75 0  15.375 0.75 0  16.125 0.75 0  16.875 0.75 0  17.625 0.75 0  18.375 0.75 0  19.125 0.75 0  19.875 0.75 0  20.625 0.75 0  21.375 0.75 0  22.125 0.75 0  22.875 0.75 0  23.625 0.75 0  24.375 0.75 0  25.125 0.75 0  25.875 0.75 0  26.625 0.75 0  27.375 0.75 0  28.125 0.75 0  28.875 0.75 0  29.625 0.75 0  30.375 0.75 0  31.125 0.75 0  31.875 0.75 0  32.625 0.75 0  33.375 0.75 0  34.125 0.75 0  34.875 0.75 0  35.625 0.75 0  36.375 0.75 0  37.125 0.75 0  37.875 0.75 0  38.625 0.75 0  39.375 0.75 0  40.125 0.75 0  40
[...]
<PointData  Vectors="f_8-0"> 
<DataArray  type="Float64"  Name="f_8-0"  NumberOfComponents="3" format="ascii">2.3059940337234746e-08 1.9228127739915694e-08 0.0000000000000000e+00  0.0000000000000000e+00 0.0000000000000000e+00 0.0000000000000000e+00  0.0000000000000000e+00 0.0000000000000000e+00 0.0000000000000000e+00  0.0000000000000000e+00 5.1482838247877636e-09 0.0000000000000000e+00  7.2466430875266092e-07 -9.0780223211915386e-08 0.0000000000000000e+00  0.0000000000000000e+00 0.0000000000000000e+00 0.0000000000000000e+00  0.0000000000000000e+00 0.0000000000000000e+00 0.0000000000000000e+00  0.0000000000000000e+00 0.0000000000000000e+00 0.0000000000000000e+00  -6.6360152333124240e-07 4.1120157208888086e-08 0.0000000000000000e+00  -8.4570258446623044e-09 9.0734744425330632e-09 0.0000000000000000e+00  0.0000000000000000e+00 0.0000000000000000e+00 0.0000000000000000e+00  0.0000000000000000e+00 0.0000000000000000e+00 0.0000000000000000e+00  0.0000000000000000e+00 -1.9048779761868631e-08 0.0000000000000000e+00  -6.3913082482884422e-08 -3.2585409407173093e-07 0.0000000000000000e+00  5.6700548899668266e-06 2.3130742651106136e-07 0.0000000000000000e+00  -1.1374712796401210e-05 6.5982205417393400e-06 0.0000000000000000e+00  1.0109636642183355e-06 -3.7624919413136860e-07 0.0000000000000000e+00  0.0000000000000000e+00 0.0000000000000000e+00 0.0000000000000000e+00  0.0000000000000000e+00 0.0000000000000000e+00 0.0000000000000000e+00  4.4087397981691870e-08 -4.9594740362796119e-09 0.0000000000000000e+00  0.0000000000000000e+00 0.0000000000000000e+00 0.0000000000000000e+00  9.0879759849683634e-07 -2.4989071798830140e-07 0.0000000000000000e+00  0.0000000000000000e+00 0.0000000000000000e+00 0.0000000000000000e+00  -5.2315158878791875e-06 -2.7360685301325653e-07 0.0000000000000000e+00  0.0000000000000000e+00 5.6481853417039476e-08 0.0000000000000000e+00  0.0000000000000000e+00 0.0000000000000000e+00 0.0000000000000000e+00  -1.4175415975310984e-07 -1.5311452900657421e-07 0.0000000000000000e+00  1.0515029929059283e-06 4.0474566542352105e-07 0.0000000000000000e+00  -2.6913645476010962e-07 4.0677969121887505e-07 0.0000000000000000e+00  0.0000000000000000e+00 0.0000000000000000e+00 0.0000000000000000e+00  -3.4010367792401074e-06 -6.7364145228360750e-07 0.0000000000000000e+00  -8.1610121500591671e-08 -3.6865136030810891e-06 0.0000000000000000e+00  0.0000000000000000e+00 0.0000000000000000e+00 0.0000000000000000e+00  1.1056093559901193e-07 -4.7022528773853454e-07 0.0000000000000000e+00  -9.5000017476000286e-07 8.7011132347252806e-07 0.0000000000000000e+00  9.5774069759544270e-06 -3.9770376364362761e-06 0.0000000000000000e+00  0.0000000000000000e+00 1.5793256222939364e-07 0.0000000000000000e+00  0.0000000000000000e+00 0.0000000000000000e+00 0.0000000000000000e+00  1.3290815793278304e-06 1.9751427141391672e-06 0.0000000000000000e+00  -2.6870550745549713e-08 -1.8516871694065588e-06 0.0000000000000000e+00  0.0000000000000000e+00 -3.7035865588674115e-09 0.0000000000000000e+00  0.0000000000000000e+00 8.9714938883800417e-08 0.0000000000000000e+00  6.5135056478758757e-08 2.3156385429794831e-07 0.0000000000000000e+00  0.0000000000000000e+00 0.0000000000000000e+00 0.0000000000000000e+00  0.0000000000000000e+00 1.3506699068625646e-08 0.0000000000000000e+00  0.0000000000000000e+00 0.0000000000000000e+00 0.0000000000000000e+00  0.0000000000000000e+00 -2.4307783479373901e-08 0.0000000000000000e+00  0.0000000000000000e+00 0.0000000000000000e+00 0.0000000000000000e+00  -3.6571509704714281e-07 1.7274154356611619e-06 0.0000000000000000e+00  0.0000000000000000e+00 1.2173253623011561e-09 0.0000000000000000e+00  -7.4123671469859241e-07 -1.5203343884647887e-06 0.0000000000000000e+00  4.8331512927752900e-08 1.0544848971757158e-08 0.0000000000000000e+00  0.0000000000000000e+00 0.0000000000000000e+00 0.0000000000000000e+00  -3.0220974819082450e-07 1.3050363116385065e-06 0.0000000000000000e+00  0.0000000000000000e+00 0.0000000000000000e+00 0.0000000000000000e+00  -5.4259650363019243e-09 -4.1708398381198105e-08 0.0000000000000000e+00  -7.6556870570527042e-08 4.7582953741843775e-08 0.0000000000000000e+00  -2.5702972802422206e-08 2.9203451608309084e-08 0.0000000000000000e+00  7.4884693862212807e-08 3.0418796785604242e-08 0.0000000000000000e+00  1.2326273468656666e-07 -6.1625144631391174e-08 0.0000000000000000e+00  -3.2343446620983766e-08 -8.6442426270441431e-08 0.0000000000000000e+00  0.0000000000000000e+00 0.0000000000000000e+00 0.0000000000000000e+00  -1.3173519296582393e-06 -3.9110114968291649e-07 0.0000000000000000e+00  1.6229301230286241e-08 1.4752483773609283e-08 0.0000000000000000e+00  5.8932453862525323e-07 4.3054992023683003e-08 0.0000000000000000e+00  0.0000000000000000e+00 1.9374139200954484e-08 0.0000000000000000e+00  0.0000000000000000e+00 0.0000000000000000e+00 0.0000000000000000e+00  0.0000000000000000e+00 -3.7354414947982133e-08 0.0000000000000000e+00  -9.2326806391395882e-07 3.1590881929345269e-07 0.0000000000000000e+00  0.0000000000000000e+00 0.0000000000000000e+00 0.0000000000000000e+00  0.0000000000000000e+00 7.0853274823434555e-09 0.0000000000000000e+00  0.0000000000000000e+00 0.0000000000000000e+00 0.0000000000000000e+00  -1.2781574031052155e-06 2.0028125743105250e-06 0.0000000000000000e+00  -1.6482191599447781e-06 4.8345771620944503e-07 0.0000000000000000e+00  0.0000000000000000e+00 0.0000000000000000e+00 0.0000000000000000e+00  -1.8950126872220082e-07 7.6095821558248612e-08 0.0000000000000000e+00  -1.7877431676334111e-06 9.4922884293972468e-07 0.0000000000000000e+00  0.0000000000000000e+00 0.0000000000000000e+00 0.0000000000000000e+00  -5.1897866429263545e-09 1.8464182408319767e-08 0.0000000000000000e+00  0.0000000000000000e+00 7.1056373170590511e-09 0.0000000000000000e+00  1.1843304601896768e-09 -5.7103283595060336e-10 0.0000000000000000e+00  -1.2561504893346980e+07 -6.4644518825130198e-10 0.0000000000000000e+00  -9.7402455000948265e+07 1.0787712403267543e+06 0.0000000000000000e+00  1.4393199859851018e+07 -3.3086576530747425e+07 0.0000000000000000e+00  -3.2698107601855990e+07 4.0388012065950088e+07 0.0000000000000000e+00  -4.2390493243362933e+07 1.9067994111920461e+07 0.0000000000000000e+00  -2.1567505644046623e+07 -6.1556376000369102e+07 0.0000000000000000e+00  -3.5360007493123859e+07 9.1566328585571963e+06 0.0000000000000000e+00  -3.0957128530104175e+07 3.2627169173117984e+07 0.0000000000000000e+00  -3.7663407826344483e+07 2.0091191723124668e+07 0.0000000000000000e+00  4.2227488688725559e+06 -9.8048385229582176e+07 0.0000000000000000e+00  -4.4982616506992459e+07 1.0988499587222941e+08 0.0000000000000000e+00  -1.0292365845159739e+08 1.4559524422371853e+07 0.0000000000000000e+00  1.1598117813510594e+06 -3.0586573956239451e+07 0.0000000000000000e+00  -9.0113385748377647e+06 4.2290446442973793e+07 0.0000000000000000e+00  -1.6128933020969713e+06 -7.9780390652225595e+06 0.0000000000000000e+00  6.8866666964283884e+06 1.7566808655466806e+07 0.0000000000000000e+00  1.2845422142558847e+07 -3.1879632897892505e+07 0.0000000000000000e+00  5.4873489296195759e+06 -2.1939393468126152e+06 0.0000000000000000e+00  1.0736747405145889e+07 -3.2147576409660742e+07 0.0000000000000000e+00  1.1053805127755679e+07 2.0488142359923702e+07 0.0000000000000000e+00  -3.8084279932522796e+07 -4.3294909370542526e+07 0.0000000000000000e+00  1.5812642575887730e+06 4.4473190860414520e+07 0.0000000000000000e+00  -8.6751140636516705e+07 -6.9396403596769765e+07 0.0000000000000000e+00  1.6660830352912102e+07 6.2129414137305866e+05 0.0000000000000000e+00  -1.8242151566677928e+07 2.1512141574271590e+07 0.0000000000000000e+00  3.2878451376485702e+07 -7.7818270703352854e+07 0.0000000000000000e+00  2.1935054266695879e+07 6.4326322930650532e+07 0.0000000000000000e+00  6.7024160965196513e+07 4.0344346653996289e+07 0.0000000000000000e+00  -6.2108123328855364e+06 6.9971878084509537e+07 0.0000000000000000e+00  -2.1139348450559296e+07 3.2011920595966116e+07 0.0000000000000000e+00  1.0370487541842878e+07 1.3962477078065437e+06 0.0000000000000000e+00  2.9353106701444007e+07 1.3925773514876369e+07 0.0000000000000000e+00  -1.2808708793388553e+07 1.9926104283205837e+07 0.0000000000000000e+00  4.6538162461061720e+06 -7.8788376845959919e+06 0.0000000000000000e+00  -3.6915814160797442e+06 1.6937677467417903e+07 0.0000000000000000e+00  -1.2068883964053916e+07 -5.5250744533357406e+06 0.0000000000000000e+00  -1.1445200394526199e+08 -1.2457540552826030e+07 0.0000000000000000e+00  9.7243420244676359e+06 -2.5414618796801079e+07 0.0000000000000000e+00  5.8365860031779846e+06 3.2823741140083633e+07 0.0000000000000000e+00  -2.4294540607701801e+07 1.2649967603969721e+07 0.0000000000000000e+00  -2.1216638563924469e+07 9.1608472737038583e+06 0.0000000000000000e+00  5.8485425220434770e+07 -3.7131983854666114e+07 0.0000000000000000e+00  -4.1762982929232232e+07 2.4410254916083314e+07 0.0000000000000000e+00  -4.9705542900792867e+07 1.7771503737323388e+07 0.0000000000000000e+00  -4.5428572478760749e+07 2.3050921928614058e+07 0.0000000000000000e+00  -9.7582121065448567e+07 4.1165935253916129e+07 0.0000000000000000e+00  1.4823444314772269e+07 -4.8882263421446886e+06 0.0000000000000000e+00  9.3220227704512309e+06 7.2969467859367296e+07 0.0000000000000000e+00  -6.5450892901411857e+06 -8.3633041806576168e+06 0.0000000000000000e+00  9.1282126799104419e+06 2.1537652784068856e+07 0.0000000000000000e+00  -1.2965708181244817e+07 8.4762888532504681e+06 0.0000000000000000e+00  -4.9863789931204192e+07 4.3034519658902818e+06 0.0000000000000000e+00  -1.8830660906988271e+07 2.7231339801370427e+07 0.0000000000000000e+00  -2.0248383649403468e+07 1.1217574887541790e+07 0.0000000000000000e+00  -1.9273061166156309e+06 2.8507682527890161e+07 0.0000000000000000e+00  1.0929271179384466e+07 3.0766637050744526e+07 0.0000000000000000e+00  1.9666071910691403e+06 -1.1934137282959751e+06 0.0000000000000000e+00  1.1112034986092372e+07 -6.9995798876411829e+05 0.0000000000000000e+00  -1.0916344605456568e+07 7.2684797767259553e+06 0.0000000000000000e+00  -1.6866610316163689e+07 -2.7656587398453965e+06 0.0000000000000000e+00  5.5975225526756784e+06 1.2594903370302832e+07 0.0000000000000000e+00  -1.0003852629165178e+07 1.2608571031279126e+07 0.0000000000000000e+00  -1.9413816050119396e+07 -1.7414439207750934e+06 0.0000000000000000e+00  -4.2185338064546056e+07 3.3466507056507850e+06 0.0000000000000000e+00  -7.3169692918035416e+06 -6.8230012661623675e+06 0.0000000000000000e+00  -4.6446510432573324e+06 1.4709605644576851e+07 0.0000000000000000e+00  -1.2714760599118873e+07 2.3203570202093586e+07 0.0000000000000000e+00  -5.4478619497773824e+06 1.3919153283441929e+07 0.0000000000000000e+00  1.0973835535508379e+07 2.0752240989807967e+07 0.0000000000000000e+00  -6.4270265169685902e+06 2.5539463217022698e+06 0.0000000000000000e+00  1.2323195655655000e+07 4.0688687188610854e+06 0.0000000000000000e+00  1.0034635277817145e+07 1.0102706175089303e+07 0.0000000000000000e+00  1.7707244540186409e+07 1.5825715757301117e+06 0.0000000000000000e+00  9.2609868391327579e+06 -1.0601966507859159e+07 0.0000000000000000e+00  -1.0944320448595548e+07 -2.7361957816154086e+06 0.0000000000000000e+00  -4.0740880670984844e+06 9.0694985003854812e+05 0.0000000000000000e+00  2.7361523936049971e+06 3.6203226129106348e+06 0.0000000000000000e+00  1.5356704081928058e+07 -4.9234951927707233e+06 0.0000000000000000e+00  9.2841099697887115e+06 2.9357928475697068e+06 0.0000000000000000e+00  6.4017841070805779e+06 5.3532851323428629e+06 0.0000000000000000e+00  -1.2145571345177270e+06 0.0000000000000000e+00 0.0000000000000000e+00  1.2390656552469498e+07 -8.3216035436710167e-08 0.0000000000000000e+00  -2.2959640241503324e+07 -2.1226396488828812e+07 0.0000000000000000e+00  2.0358116668116156e+07 -2.9337287670825712e+07 0.0000000000000000e+00  -2.3572490584585279e+07 2.0683558156362042e+07 0.0000000000000000e+00  -6.0546933069370054e+07 4.0889713232308574e+07 0.0000000000000000e+00  -3.2524295264656425e+07 3.2298094629374143e+07 0.0000000000000000e+00  -5.7226666742307298e+07 -5.1562258406879388e+07 0.0000000000000000e+00  -1.5087011852400260e+07 -9.4067160658309571e+06 0.0000000000000000e+00  -7.7631700679126028e+06 -1.6892568950285899e+05 0.0000000000000000e+00  2.6731607059123307e+06 5.8922749190354049e+07 0.0000000000000000e+00  2.4807700299424950e+07 8.9988691189232722e+07 0.0000000000000000e+00  -1.0563161038669227e+07 4.7988886229603782e+07 0.0000000000000000e+00  -5.7926060551408924e+07 -2.8641980704523693e+06 0.0000000000000000e+00  -7.2172540327811958e+06 -1.8479243089044176e+07 0.0000000000000000e+00  1.4404686739242868e+07 3.0499791660321683e+07 0.0000000000000000e+00  4.2048918956789032e+07 6.8890035205889061e+07 0.0000000000000000e+00  3.2316666205932867e+07 6.0075075501798943e+05 0.0000000000000000e+00  2.8236018143753432e+07 -3.6098936133033998e+07 0.0000000000000000e+00  3.2823112986435425e+07 -8.2054005757646963e+07 0.0000000000000000e+00  1.4665815537864739e+07 -2.4302215382527012e+07 0.0000000000000000e+00  -5.3495459154521395e+06 -1.4423546461002547e+06 0.0000000000000000e+00  -1.9471852730008967e+07 -2.4131555960205622e+07 0.0000000000000000e+00  5.3052885457846457e+06 3.6006492516633771e+07 0.0000000000000000e+00  5.1507997571496986e+07 1.8436690205045354e+07 0.0000000000000000e+00  7.7294622797579020e+07 -3.5356915816670299e+07 0.0000000000000000e+00  -1.0653326219152266e+07 9.9444599796245340e+06 0.0000000000000000e+00  2.8189620083818957e+07 8.1027897121664152e+07 0.0000000000000000e+00  4.3190319338550195e+07 -4.2840630310528405e+07 0.0000000000000000e+00  -1.2305220770634679e+08 6.5163128248434486e+06 0.0000000000000000e+00  4.4451411265096352e+07 5.0099034226552770e+07 0.0000000000000000e+00  -3.1726499806733917e+07 -7.6675325023199096e+07 0.0000000000000000e+00  -7.9788179067572346e+06 -5.5704893176518552e+07 0.0000000000000000e+00  3.4044142185883125e+05 -2.3241943424587771e+07 0.0000000000000000e+00  5.3221712474001227e+06 3.9899720567597583e+07 0.0000000000000000e+00  7.6654690918677114e+06 1.4349820814398317e+07 0.0000000000000000e+00  -3.3867885477526605e+07 -3.6941591216575087e+05 0.0000000000000000e+00  2.4396832967545852e+07 -1.9572703177405357e+07 0.0000000000000000e+00  9.7958842007609401e+06 1.0328877047223596e+07 0.0000000000000000e+00  -2.6983052895325005e+07 4.7538285013148345e+07 0.0000000000000000e+00  -4.0959413016627036e+07 3.8025066988712110e+07 0.0000000000000000e+00  2.2216199736975662e+07 6.2211591516755999e+05 0.0000000000000000e+00  -4.3998164073602334e+07 2.0665104367532367e+06 0.0000000000000000e+00  1.9982381114391830e+07 9.4045245631793011e+06 0.0000000000000000e+00  -2.1444495841121599e+07 4.7519329857093252e+07 0.0000000000000000e+00  8.6134255238175578e+06 8.6885023931772672e+06 0.0000000000000000e+00  4.4972955544139825e+07 -5.9759367037437640e+07 0.0000000000000000e+00  2.3600719900523644e+07 3.4003247478594802e+07 0.0000000000000000e+00  2.0517288154387321e+07 -1.9479692457949329e+07 0.0000000000000000e+00  1.9117995151737664e+07 2.0782277063285381e+07 0.0000000000000000e+00  -2.1676473166086148e+06 4.0379111272261046e+07 0.0000000000000000e+00  -2.2242674703247044e+07 3.3634281038823649e+07 0.0000000000000000e+00  2.1215073587923631e+07 -2.0897703346268632e+06 0.0000000000000000e+00  1.7729469190610446e+07 1.4577756733328704e+07 0.0000000000000000e+00  2.7177965497838482e+07 2.8113118757245332e+07 0.0000000000000000e+00  -1.5440516430964466e+07 1.9330658135781858e+07 0.0000000000000000e+00  1.7593477275108185e+07 3.7895193559656337e+07 0.0000000000000000e+00  -1.5918776599447966e+07 2.6225111828283296e+05 0.0000000000000000e+00  -2.8453338676903430e+07 -7.7620436202749126e+06 0.0000000000000000e+00  -8.8559986126430202e+06 -9.0035454231370334e+05 0.0000000000000000e+00  -1.0424034556799481e+07 -1.8495616152883537e+07 0.0000000000000000e+00  -1.0332018091259502e+07 -7.0337378623592146e+06 0.0000000000000000e+00  9.7843960791455954e+05 1.1262464510962296e+07 0.0000000000000000e+00  -2.9685547233043898e+07 7.9624267343769753e+06 0.0000000000000000e+00  -5.7794695921038212e+06 1.6974658973868005e+07 0.0000000000000000e+00  -3.7454881147166193e+07 3.2232826619408287e+07 0.0000000000000000e+00  3.4908514332962669e+06 -8.0252804279533885e+06 0.0000000000000000e+00  -4.6073663933522537e+07 2.3570518997654695e+07 0.0000000000000000e+00  -1.2672014123582831e+07 1.3512503800695540e+07 0.0000000000000000e+00  -7.3283932394866627e+06 -1.2882486410043626e+06 0.0000000000000000e+00  -2.1817938925935354e+07 -5.5365302485698191e+06 0.0000000000000000e+00  3.2022507856572662e+07 2.3048507277421340e+07 0.0000000000000000e+00  6.0356488171054898e+06 -9.8241292563096900e+06 0.0000000000000000e+00  1.8200503525021034e+06 -5.1362665008958708e+05 0.0000000000000000e+00  -6.6237986456736401e+06 -4.6361007568712488e+07 0.0000000000000000e+00  3.8730539479432385e+06 -1.7515103937140140e+06 0.0000000000000000e+00  -9.2266648927820046e+06 -1.8168010232798515e+06 0.0000000000000000e+00  1.1550337374693269e+07 -3.3583048996197522e+07 0.0000000000000000e+00  1.1640929407097565e+06 -5.8227929731743783e+06 0.0000000000000000e+00  -3.2241399494327530e+06 5.3960018291082035e+05 0.0000000000000000e+00  -4.0826476998287946e+05 1.5843262909996100e+06 0.0000000000000000e+00  1.2632238325013464e+07 -7.3525676964042189e-10 0.0000000000000000e+00  2.5951657898068607e+07 7.1093762479280383e-08 0.0000000000000000e+00  -1.9458995574202898e+06 -5.0249496154246524e+07 0.0000000000000000e+00  -6.7387073168180641e+06 -1.5440626348900761e+07 0.0000000000000000e+00  -5.0501127497455820e+07 3.6360402377630919e+07 0.0000000000000000e+00  -2.4561489303336773e+07 2.4031966801362611e+07 0.0000000000000000e+00  -3.5137292668643408e+07 -5.5347920760175101e+07 0.0000000000000000e+00  -2.2822757074759882e+07 1.1992726286804501e+07 0.0000000000000000e+00  -4.8102535010566898e+07 -3.6638569316058040e+07 0.0000000000000000e+00  -3.1067977653335063e+06 5.0058723375252888e+07 0.0000000000000000e+00  -4.9298719953095630e+07 8.5965560263742767e+06 0.0000000000000000e+00  -3.9880972368884578e+07 7.0048711823942447e+06 0.0000000000000000e+00  -1.3716371829342142e+07 -3.8540447907695457e+07 0.0000000000000000e+00  1.2159265961283425e+07 -2.5231662786237881e+07 0.0000000000000000e+00  -2.9558771815852173e+07 -5.2296139037681252e+07 0.0000000000000000e+00  1.0757378851543099e+07 1.8613264331568819e+07 0.0000000000000000e+00  3.2459568360180579e+07 4.0496952310191267e+06 0.0000000000000000e+00  6.0922914220457207e+06 1.6209189014230553e+07 0.0000000000000000e+00  -2.6281790286579605e+07 -3.6977850652817581e+06 0.0000000000000000e+00  2.1699376155230209e+07 -1.7103525047384325e+07 0.0000000000000000e+00  6.3092036063624043e+06 -3.7375073460148506e+07 0.0000000000000000e+00  7.9173481871550977e+06 1.2311853137914570e+07 0.0000000000000000e+00  -8.8060495435018465e+06 -1.4318472534319643e+07 0.0000000000000000e+00  1.6485967203149928e+07 -9.3832223848747343e+07 0.0000000000000000e+00  -2.9945433460704193e+07 3.2628396431996380e+06 0.0000000000000000e+00  2.3521884349414472e+07 -5.6015059561979566e+06 0.0000000000000000e+00  3.6996714765372621e+06 -8.8095265190329403e+07 0.0000000000000000e+00  -3.3325682016926194e+06 -1.4978418385777719e+07 0.0000000000000000e+00  -8.7882344767395034e+07 8.6220254638326783e+06 0.0000000000000000e+00  -1.0133924872506334e+08 1.0846987860663566e+08 0.0000000000000000e+00  -2.2850398750808332e+07 -2.0468747291725878e+07 0.0000000000000000e+00  3.2749119002458110e+07 -4.0211656062668048e+07 0.0000000000000000e+00  6.8544870045314297e+07 -2.8090359113015313e+07 0.0000000000000000e+00  4.4626229954740003e+07 -1.5899499808537446e+07 0.0000000000000000e+00  -2.8254181273703337e+07 4.7912145480931379e+07 0.0000000000000000e+00  3.7640732577359147e+07 5.1692747255659901e+07 0.0000000000000000e+00  2.6799199767922223e+07 -5.0798238528857110e+06 0.0000000000000000e+00  4.3897950349891067e+07 -2.0944719061344516e+07 0.0000000000000000e+00  -2.6653843938301098e+07 -5.0765610384876005e+07 0.0