<?xml version="1.0"?>
<VTKFile type="UnstructuredGrid"  version="0.1"  >
<UnstructuredGrid>
<Piece  NumberOfPoints="1369" NumberOfCells="2560">
<Points>
<DataArray  type="Float64"  NumberOfComponents="3"  format="ascii">0 0 0  0.75 0 0  1.5 0 0  2.25 0 0  3 0 0  3.75 0 0  4.5 0 0  5.25 0 0  6 0 0  6.75 0 0  7.5 0 0  8.25 0 0  9 0 0  9.75 0 0  10.5 0 0  11.25 0 0  12 0 0  12.75 0 0  13.5 0 0  14.25 0 0  15 0 0  15.75 0 0  16.5 0 0  17.25 0 0  18 0 0  18.75 0 0  19.5 0 0  20.25 0 0  21 0 0  21.75 0 0  22.5 0 0  23.25 0 0  24 0 0  24.75 0 0  25.5 0 0  26.25 0 0  27 0 0  27.75 0 0  28.5 0 0  29.25 0 0  30 0 0  30.75 0 0  31.5 0 0  32.25 0 0  33 0 0  33.75 0 0  34.5 0 0  35.25 0 0  36 0 0  36.75 0 0  37.5 0 0  38.25 0 0  39 0 0  39.75 0 0  40.5 0 0  41.25 0 0  42 0 0  42.75 0 0  43.5 0 0  44.25 0 0  45 0 0  45.75 0 0  46.5 0 0  47.25 0 0  48 0 0  48.75 0 0  49.5 0 0  50.25 0 0  51 0 0  51.75 0 0  52.5 0 0  53.25 0 0  54 0 0  54.75 0 0  55.5 0 0  56.25 0 0  57 0 0  57.75 0 0  58.5 0 0  59.25 0 0  60 0 0  0 0.5 0  0.75 0.5 0  1.5 0.5 0  2.25 0.5 0  3 0.5 0  3.75 0.5 0  4.5 0.5 0  5.25 0.5 0  6 0.5 0  6.75 0.5 0  7.5 0.5 0  8.25 0.5 0  9 0.5 0  9.75 0.5 0  10.5 0.5 0  11.25 0.5 0  12 0.5 0  12.75 0.5 0  13.5 0.5 0  14.25 0.5 0  15 0.5 0  15.75 0.5 0  16.5 0.5 0  17.25 0.5 0  18 0.5 0  18.75 0.5 0  19.5 0.5 0  20.25 0.5 0  21 0.5 0  21.75 0.5 0  22.5 0.5 0  23.25 0.5 0  24 0.5 0  24.75 0.5 0  25.5 0.5 0  26.25 0.5 0  27 0.5 0  27.75 0.5 0  28.5 0.5 0  29.25 0.5 0  30 0.5 0  30.75 0.5 0  31.5 0.5 0  32.25 0.5 0  33 0.5 0  33.75 0.5 0  34.5 0.5 0  35.25 0.5 0  36 0.5 0  36.75 0.5 0  37.5 0.5 0  38.25 0.5 0  39 0.5 0  39.75 0.5 0  40.5 0.5 0  41.25 0.5 0  42 0.5 0  42.75 0.5 0  43.5 0.5 0  44.25 0.5 0  45 0.5 0  45.75 0.5 0  46.5 0.5 0  47.25 0.5 0  48 0.5 0  48.75 0.5 0  49.5 0.5 0  50.25 0.5 0  51 0.5 0  51.75 0.5 0  52.5 0.5 0  53.25 0.5 0  54 0.5 0  54.75 0.5 0  55.5 0.5 0  56.25 0.5 0  57 0.5 0  57.75 0.5 0  58.5 0.5 0  59.25 0.5 0  60 0.5 0  0 1 0  0.75 1 0  1.5 1 0  2.25 1 0  3 1 0  3.75 1 0  4.5 1 0  5.25 1 0  6 1 0  6.75 1 0  7.5 1 0  8.25 1 0  9 1 0  9.75 1 0  10.5 1 0  11.25 1 0  12 1 0  12.75 1 0  13.5 1 0  14.25 1 0  15 1 0  15.75 1 0  16.5 1 0  17.25 1 0  18 1 0  18.75 1 0  19.5 1 0  20.25 1 0  21 1 0  21.75 1 0  22.5 1 0  23.25 1 0  24 1 0  24.75 1 0  25.5 1 0  26.25 1 0  27 1 0  27.75 1 0  28.5 1 0  29.25 1 0  30 1 0  30.75 1 0  31.5 1 0  32.25 1 0  33 1 0  33.75 1 0  34.5 1 0  35.25 1 0  36 1 0  36.75 1 0  37.5 1 0  38.25 1 0  39 1 0  39.75 1 0  40.5 1 0  41.25 1 0  42 1 0  42.75 1 0  43.5 1 0  44.25 1 0  45 1 0  45.75 1 0  46.5 1 0  47.25 1 0  48 1 0  48.75 1 0  49.5 1 0  50.25 1 0  51 1 0  51.75 1 0  52.5 1 0  53.25 1 0  54 1 0  54.75 1 0  55.5 1 0  56.25 1 0  57 1 0  57.75 1 0  58.5 1 0  59.25 1 0  60 1 0  0 1.5 0  0.75 1.5 0  1.5 1.5 0  2.25 1.5 0  3 1.5 0  3.75 1.5 0  4.5 1.5 0  5.25 1.5 0  6 1.5 0  6.75 1.5 0  7.5 1.5 0  8.25 1.5 0  9 1.5 0  9.75 1.5 0  10.5 1.5 0  11.25 1.5 0  12 1.5 0  12.75 1.5 0  13.5 1.5 0  14.25 1.5 0  15 1.5 0  15.75 1.5 0  16.5 1.5 0  17.25 1.5 0  18 1.5 0  18.75 1.5 0  19.5 1.5 0  20.25 1.5 0  21 1.5 0  21.75 1.5 0  22.5 1.5 0  23.25 1.5 0  24 1.5 0  24.75 1.5 0  25.5 1.5 0  26.25 1.5 0  27 1.5 0  27.75 1.5 0  28.5 1.5 0  29.25 1.5 0  30 1.5 0  30.75 1.5 0  31.5 1.5 0  32.25 1.5 0  33 1.5 0  33.75 1.5 0  34.5 1.5 0  35.25 1.5 0  36 1.5 0  36.75 1.5 0  37.5 1.5 0  38.25 1.5 0  39 1.5 0  39.75 1.5 0  40.5 1.5 0  41.25 1.5 0  42 1.5 0  42.75 1.5 0  43.5 1.5 0  44.25 1.5 0  45 1.5 0  45.75 1.5 0  46.5 1.5 0  47.25 1.5 0  48 1.5 0  48.75 1.5 0  49.5 1.5 0  50.25 1.5 0  51 1.5 0  51.75 1.5 0  52.5 1.5 0  53.25 1.5 0  54 1.5 0  54.75 1.5 0  55.5 1.5 0  56.25 1.5 0  57 1.5 0  57.75 1.5 0  58.5 1.5 0  59.25 1.5 0  60 1.5 0  0 2 0  0.75 2 0  1.5 2 0  2.25 2 0  3 2 0  3.75 2 0  4.5 2 0  5.25 2 0  6 2 0  6.75 2 0  7.5 2 0  8.25 2 0  9 2 0  9.75 2 0  10.5 2 0  11.25 2 0  12 2 0  12.75 2 0  13.5 2 0  14.25 2 0  15 2 0  15.75 2 0  16.5 2 0  17.25 2 0  18 2 0  18.75 2 0  19.5 2 0  20.25 2 0  21 2 0  21.75 2 0  22.5 2 0  23.25 2 0  24 2 0  24.75 2 0  25.5 2 0  26.25 2 0  27 2 0  27.75 2 0  28.5 2 0  29.25 2 0  30 2 0  30.75 2 0  31.5 2 0  32.25 2 0  33 2 0  33.75 2 0  34.5 2 0  35.25 2 0  36 2 0  36.75 2 0  37.5 2 0  38.25 2 0  39 2 0  39.75 2 0  40.5 2 0  41.25 2 0  42 2 0  42.75 2 0  43.5 2 0  44.25 2 0  45 2 0  45.75 2 0  46.5 2 0  47.25 2 0  48 2 0  48.75 2 0  49.5 2 0  50.25 2 0  51 2 0  51.75 2 0  52.5 2 0  53.25 2 0  54 2 0  54.75 2 0  55.5 2 0  56.25 2 0  57 2 0  57.75 2 0  58.5 2 0  59.25 2 0  60 2 0  0 2.5 0  0.75 2.5 0  1.5 2.5 0  2.25 2.5 0  3 2.5 0  3.75 2.5 0  4.5 2.5 0  5.25 2.5 0  6 2.5 0  6.75 2.5 0  7.5 2.5 0  8.25 2.5 0  9 2.5 0  9.75 2.5 0  10.5 2.5 0  11.25 2.5 0  12 2.5 0  12.75 2.5 0  13.5 2.5 0  14.25 2.5 0  15 2.5 0  15.75 2.5 0  16.5 2.5 0  17.25 2.5 0  18 2.5 0  18.75 2.5 0  19.5 2.5 0  20.25 2.5 0  21 2.5 0  21.75 2.5 0  22.5 2.5 0  23.25 2.5 0  24 2.5 0  24.75 2.5 0  25.5 2.5 0  26.25 2.5 0  27 2.5 0  27.75 2.5 0  28.5 2.5 0  29.25 2.5 0  30 2.5 0  30.75 2.5 0  31.5 2.5 0  32.25 2.5 0  33 2.5 0  33.75 2.5 0  34.5 2.5 0  35.25 2.5 0  36 2.5 0  36.75 2.5 0  37.5 2.5 0  38.25 2.5 0  39 2.5 0  39.75 2.5 0  40.5 2.5 0  41.25 2.5 0  42 2.5 0  42.75 2.5 0  43.5 2.5 0  44.25 2.5 0  45 2.5 0  45.75 2.5 0  46.5 2.5 0  47.25 2.5 0  48 2.5 0  48.75 2.5 0  49.5 2.5 0  50.25 2.5 0  51 2.5 0  51.75 2.5 0  52.5 2.5 0  53.25 2.5 0  54 2.5 0  54.75 2.5 0  55.5 2.5 0  56.25 2.5 0  57 2.5 0  57.75 2.5 0  58.5 2.5 0  59.25 2.5 0  60 2.5 0  0 3 0  0.75 3 0  1.5 3 0  2.25 3 0  3 3 0  3.75 3 0  4.5 3 0  5.25 3 0  6 3 0  6.75 3 0  7.5 3 0  8.25 3 0  9 3 0  9.75 3 0  10.5 3 0  11.25 3 0  12 3 0  12.75 3 0  13.5 3 0  14.25 3 0  15 3 0  15.75 3 0  16.5 3 0  17.25 3 0  18 3 0  18.75 3 0  19.5 3 0  20.25 3 0  21 3 0  21.75 3 0  22.5 3 0  23.25 3 0  24 3 0  24.75 3 0  25.5 3 0  26.25 3 0  27 3 0  27.75 3 0  28.5 3 0  29.25 3 0  30 3 0  30.75 3 0  31.5 3 0  32.25 3 0  33 3 0  33.75 3 0  34.5 3 0  35.25 3 0  36 3 0  36.75 3 0  37.5 3 0  38.25 3 0  39 3 0  39.75 3 0  40.5 3 0  41.25 3 0  42 3 0  42.75 3 0  43.5 3 0  44.25 3 0  45 3 0  45.75 3 0  46.5 3 0  47.25 3 0  48 3 0  48.75 3 0  49.5 3 0  50.25 3 0  51 3 0  51.75 3 0  52.5 3 0  53.25 3 0  54 3 0  54.75 3 0  55.5 3 0  56.25 3 0  57 3 0  57.75 3 0  58.5 3 0  59.25 3 0  60 3 0  0 3.5 0  0.75 3.5 0  1.5 3.5 0  2.25 3.5 0  3 3.5 0  3.75 3.5 0  4.5 3.5 0  5.25 3.5 0  6 3.5 0  6.75 3.5 0  7.5 3.5 0  8.25 3.5 0  9 3.5 0  9.75 3.5 0  10.5 3.5 0  11.25 3.5 0  12 3.5 0  12.75 3.5 0  13.5 3.5 0  14.25 3.5 0  15 3.5 0  15.75 3.5 0  16.5 3.5 0  17.25 3.5 0  18 3.5 0  18.75 3.5 0  19.5 3.5 0  20.25 3.5 0  21 3.5 0  21.75 3.5 0  22.5 3.5 0  23.25 3.5 0  24 3.5 0  24.75 3.5 0  25.5 3.5 0  26.25 3.5 0  27 3.5 0  27.75 3.5 0  28.5 3.5 0  29.25 3.5 0  30 3.5 0  30.75 3.5 0  31.5 3.5 0  32.25 3.5 0  33 3.5 0  33.75 3.5 0  34.5 3.5 0  35.25 3.5 0  36 3.5 0  36.75 3.5 0  37.5 3.5 0  38.25 3.5 0  39 3.5 0  39.75 3.5 0  40.5 3.5 0  41.25 3.5 0  42 3.5 0  42.75 3.5 0  43.5 3.5 0  44.25 3.5 0  45 3.5 0  45.75 3.5 0  46.5 3.5 0  47.25 3.5 0  48 3.5 0  48.75 3.5 0  49.5 3.5 0  50.25 3.5 0  51 3.5 0  51.75 3.5 0  52.5 3.5 0  53.25 3.5 0  54 3.5 0  54.75 3.5 0  55.5 3.5 0  56.25 3.5 0  57 3.5 0  57.75 3.5 0  58.5 3.5 0  59.25 3.5 0  60 3.5 0  0 4 0  0.75 4 0  1.5 4 0  2.25 4 0  3 4 0  3.75 4 0  4.5 4 0  5.25 4 0  6 4 0  6.75 4 0  7.5 4 0  8.25 4 0  9 4 0  9.75 4 0  10.5 4 0  11.25 4 0  12 4 0  12.75 4 0  13.5 4 0  14.25 4 0  15 4 0  15.75 4 0  16.5 4 0  17.25 4 0  18 4 0  18.75 4 0  19.5 4 0  20.25 4 0  21 4 0  21.75 4 0  22.5 4 0  23.25 4 0  24 4 0  24.75 4 0  25.5 4 0  26.25 4 0  27 4 0  27.75 4 0  28.5 4 0  29.25 4 0  30 4 0  30.75 4 0  31.5 4 0  32.25 4 0  33 4 0  33.75 4 0  34.5 4 0  35.25 4 0  36 4 0  36.75 4 0  37.5 4 0  38.25 4 0  39 4 0  39.75 4 0  40.5 4 0  41.25 4 0  42 4 0  42.75 4 0  43.5 4 0  44.25 4 0  45 4 0  45.75 4 0  46.5 4 0  47.25 4 0  48 4 0  48.75 4 0  49.5 4 0  50.25 4 0  51 4 0  51.75 4 0  52.5 4 0  53.25 4 0  54 4 0  54.75 4 0  55.5 4 0  56.25 4 0  57 4 0  57.75 4 0  58.5 4 0  59.25 4 0  60 4 0  0.375 0.25 0  1.125 0.25 0  1.875 0.25 0  2.625 0.25 0  3.375 0.25 0  4.125 0.25 0  4.875 0.25 0  5.625 0.25 0  6.375 0.25 0  7.125 0.25 0  7.875 0.25 0  8.625 0.25 0  9.375 0.25 0  10.125 0.25 0  10.875 0.25 0  11.625 0.25 0  12.375 0.25 0  13.125 0.25 0  13.875 0.25 0  14.625 0.25 0  15.375 0.25 0  16.125 0.25 0  16.875 0.25 0  17.625 0.25 0  18.375 0.25 0  19.125 0.25 0  19.875 0.25 0  20.625 0.25 0  21.375 0.25 0  22.125 0.25 0  22.875 0.25 0  23.625 0.25 0  24.375 0.25 0  25.125 0.25 0  25.875 0.25 0  26.625 0.25 0  27.375 0.25 0  28.125 0.25 0  28.875 0.25 0  29.625 0.25 0  30.375 0.25 0  31.125 0.25 0  31.875 0.25 0  32.625 0.25 0  33.375 0.25 0  34.125 0.25 0  34.875 0.25 0  35.625 0.25 0  36.375 0.25 0  37.125 0.25 0  37.875 0.25 0  38.625 0.25 0  39.375 0.25 0  40.125 0.25 0  40.875 0.25 0  41.625 0.25 0  42.375 0.25 0  43.125 0.25 0  43.875 0.25 0  44.625 0.25 0  45.375 0.25 0  46.125 0.25 0  46.875 0.25 0  47.625 0.25 0  48.375 0.25 0  49.125 0.25 0  49.875 0.25 0  50.625 0.25 0  51.375 0.25 0  52.125 0.25 0  52.875 0.25 0  53.625 0.25 0  54.375 0.25 0  55.125 0.25 0  55.875 0.25 0  56.625 0.25 0  57.375 0.25 0  58.125 0.25 0  58.875 0.25 0  59.625 0.25 0  0.375 0.75 0  1.125 0.75 0  1.875 0.75 0  2.625 0.75 0  3.375 0.75 0  4.125 0.75 0  4.875 0.75 0  5.625 0.75 0  6.375 0.75 0  7.125 0.75 0  7.875 0.75 0  8.625 0.75 0  9.375 0.75 0  10.125 0.75 0  10.875 0.75 0  11.625 0.75 0  12.375 0.75 0  13.125 0.75 0  13.875 0.75 0  14.625 0.75 0  15.375 0.75 0  16.125 0.75 0  16.875 0.75 0  17.625 0.75 0  18.375 0.75 0  19.125 0.75 0  19.875 0.75 0  20.625 0.75 0  21.375 0.75 0  22.125 0.75 0  22.875 0.75 0  23.625 0.75 0  24.375 0.75 0  25.125 0.75 0  25.875 0.75 0  26.625 0.75 0  27.375 0.75 0  28.125 0.75 0  28.875 0.75 0  29.625 0.75 0  30.375 0.75 0  31.125 0.75 0  31.875 0.75 0  32.625 0.75 0  33.375 0.75 0  34.125 0.75 0  34.875 0.75 0  35.625 0.75 0  36.375 0.75 0  37.125 0.75 0  37.875 0.75 0  38.625 0.75 0  39.375 0.75 0  40.125 0.75 0  40
[...]
<PointData  Vectors="f_8-0"> 
<DataArray  type="Float64"  Name="f_8-0"  NumberOfComponents="3" format="ascii">-5.9927180765322042e-09 8.1497451874578512e-08 0.0000000000000000e+00  0.0000000000000000e+00 0.0000000000000000e+00 0.0000000000000000e+00  0.0000000000000000e+00 -3.7413124018511838e-08 0.0000000000000000e+00  0.0000000000000000e+00 0.0000000000000000e+00 0.0000000000000000e+00  -3.6659016843141053e-06 -3.8475433583476994e-06 0.0000000000000000e+00  -3.8207408767597430e-05 8.9717050471750523e-06 0.0000000000000000e+00  0.0000000000000000e+00 -4.8615505029926502e-08 0.0000000000000000e+00  1.8401455036412329e-06 -8.4928561463038754e-08 0.0000000000000000e+00  3.4181979970538234e-06 -2.9819906256523604e-06 0.0000000000000000e+00  0.0000000000000000e+00 -4.1213621401682971e-07 0.0000000000000000e+00  -1.4499732651993672e-06 7.5320094625527475e-07 0.0000000000000000e+00  2.5010394820771311e-05 -9.6950533218117143e-06 0.0000000000000000e+00  -2.3719563294322642e-05 -1.6616643361462850e-05 0.0000000000000000e+00  -3.7953396936164886e-06 5.6789373302144218e-06 0.0000000000000000e+00  0.0000000000000000e+00 0.0000000000000000e+00 0.0000000000000000e+00  0.0000000000000000e+00 -5.2377292443458582e-07 0.0000000000000000e+00  0.0000000000000000e+00 0.0000000000000000e+00 0.0000000000000000e+00  -2.8014348431398599e-08 -1.0129397864229182e-08 0.0000000000000000e+00  -2.2410555772699394e-06 -2.4104557695986102e-07 0.0000000000000000e+00  0.0000000000000000e+00 0.0000000000000000e+00 0.0000000000000000e+00  -9.5935062163804959e-06 9.4114833425741148e-07 0.0000000000000000e+00  0.0000000000000000e+00 7.1460129414143305e-07 0.0000000000000000e+00  -1.0267139936121615e-05 2.4653702219497582e-06 0.0000000000000000e+00  1.3124194162355690e-05 -8.7043871843635382e-06 0.0000000000000000e+00  0.0000000000000000e+00 -3.2596216222361939e-07 0.0000000000000000e+00  -5.5164635135400738e-06 -3.6997989778028874e-06 0.0000000000000000e+00  0.0000000000000000e+00 -6.3226393334707016e-07 0.0000000000000000e+00  0.0000000000000000e+00 0.0000000000000000e+00 0.0000000000000000e+00  1.1713707430374603e-07 -5.5802428819142956e-07 0.0000000000000000e+00  6.2888621765645899e-05 7.4961389850924901e-05 0.0000000000000000e+00  0.0000000000000000e+00 0.0000000000000000e+00 0.0000000000000000e+00  0.0000000000000000e+00 -1.4622406542796631e-07 0.0000000000000000e+00  0.0000000000000000e+00 0.0000000000000000e+00 0.0000000000000000e+00  0.0000000000000000e+00 0.0000000000000000e+00 0.0000000000000000e+00  0.0000000000000000e+00 0.0000000000000000e+00 0.0000000000000000e+00  1.9390314068935050e-07 3.4695373325455182e-08 0.0000000000000000e+00  -1.2076439895583284e-05 2.9649254393869646e-07 0.0000000000000000e+00  0.0000000000000000e+00 0.0000000000000000e+00 0.0000000000000000e+00  0.0000000000000000e+00 -6.9494730785376864e-07 0.0000000000000000e+00  3.4012107494283421e-07 -9.5033180772566369e-08 0.0000000000000000e+00  0.0000000000000000e+00 -1.3138126605146879e-06 0.0000000000000000e+00  -1.9565725543190031e-07 2.0838432650099816e-07 0.0000000000000000e+00  1.7230265466962688e-05 3.9076977903273918e-05 0.0000000000000000e+00  0.0000000000000000e+00 -8.7831603444457899e-08 0.0000000000000000e+00  0.0000000000000000e+00 0.0000000000000000e+00 0.0000000000000000e+00  0.0000000000000000e+00 0.0000000000000000e+00 0.0000000000000000e+00  0.0000000000000000e+00 0.0000000000000000e+00 0.0000000000000000e+00  -1.5801168482859410e-06 9.7236749641314732e-08 0.0000000000000000e+00  0.0000000000000000e+00 0.0000000000000000e+00 0.0000000000000000e+00  0.0000000000000000e+00 0.0000000000000000e+00 0.0000000000000000e+00  0.0000000000000000e+00 0.0000000000000000e+00 0.0000000000000000e+00  -7.0720102911145015e-06 -4.4305504112585799e-06 0.0000000000000000e+00  -3.3321139560105075e-08 -6.1070359213816361e-07 0.0000000000000000e+00  1.6815072715926790e-05 -2.8168808984418243e-04 0.0000000000000000e+00  0.0000000000000000e+00 2.5992669167040386e-06 0.0000000000000000e+00  1.7411640835635483e-05 6.4012398132443107e-06 0.0000000000000000e+00  0.0000000000000000e+00 0.0000000000000000e+00 0.0000000000000000e+00  2.3454742004938162e-06 -1.1808897594647400e-05 0.0000000000000000e+00  9.9967818876139911e-06 1.3725896642142302e-04 0.0000000000000000e+00  2.8894152380382314e-05 1.0194590634848619e-05 0.0000000000000000e+00  0.0000000000000000e+00 0.0000000000000000e+00 0.0000000000000000e+00  -7.4852545065575781e-06 1.9929398069006321e-05 0.0000000000000000e+00  0.0000000000000000e+00 -1.3947293256210865e-07 0.0000000000000000e+00  1.1379941449940090e-05 1.9228963964847509e-06 0.0000000000000000e+00  -1.0039662531859513e-04 -4.6533684142703490e-05 0.0000000000000000e+00  0.0000000000000000e+00 0.0000000000000000e+00 0.0000000000000000e+00  0.0000000000000000e+00 0.0000000000000000e+00 0.0000000000000000e+00  1.1640484884284792e-06 3.2518240530459002e-07 0.0000000000000000e+00  -1.1182613685376984e-06 -4.7441603178241840e-07 0.0000000000000000e+00  -1.6304072726669307e-05 1.9310137618532289e-05 0.0000000000000000e+00  -1.3814322754760506e-06 -9.1017750961015058e-07 0.0000000000000000e+00  0.0000000000000000e+00 -3.6302947882940709e-07 0.0000000000000000e+00  0.0000000000000000e+00 0.0000000000000000e+00 0.0000000000000000e+00  6.0943377589839382e-06 4.6567486532898234e-06 0.0000000000000000e+00  0.0000000000000000e+00 0.0000000000000000e+00 0.0000000000000000e+00  0.0000000000000000e+00 0.0000000000000000e+00 0.0000000000000000e+00  -2.0437259637730513e-06 1.1877239574461751e-07 0.0000000000000000e+00  0.0000000000000000e+00 0.0000000000000000e+00 0.0000000000000000e+00  0.0000000000000000e+00 0.0000000000000000e+00 0.0000000000000000e+00  1.3974152577663644e-07 -1.8479675963632644e-07 0.0000000000000000e+00  -1.1284482649331576e-06 5.7568856470396026e-07 0.0000000000000000e+00  -3.2389952885563966e+07 0.0000000000000000e+00 0.0000000000000000e+00  1.5725577552362904e+07 -2.5106110938212281e+08 0.0000000000000000e+00  6.7232019555272743e+07 1.6259435667602161e+07 0.0000000000000000e+00  2.1169263694232706e+07 3.0880012627877086e+08 0.0000000000000000e+00  -2.4167178839434266e+08 2.8969553482376742e+08 0.0000000000000000e+00  -2.8189180021877724e+08 -2.1351839546029204e+08 0.0000000000000000e+00  -1.6911983757381517e+08 -2.5015514749259722e+08 0.0000000000000000e+00  5.2488233962563731e+07 -6.2314092384367160e+07 0.0000000000000000e+00  3.4710643308153056e+07 8.7866495471729204e+07 0.0000000000000000e+00  -5.4405745633867331e+07 -1.0806867614929679e+08 0.0000000000000000e+00  3.0864966902743870e+08 -3.7598005588553697e+07 0.0000000000000000e+00  -1.1157954846897200e+08 2.3280852572219971e+08 0.0000000000000000e+00  -8.1428017365700036e+07 -2.7602473831565017e+08 0.0000000000000000e+00  -6.8832293646839529e+07 8.8526304379558459e+07 0.0000000000000000e+00  -1.9940352047031900e+08 -1.4144154147243547e+08 0.0000000000000000e+00  1.6429265637905368e+08 4.4976559296318211e+07 0.0000000000000000e+00  -7.0787654538512647e+07 1.0390675541403209e+08 0.0000000000000000e+00  1.0235844921329257e+08 -1.3083233316991772e+08 0.0000000000000000e+00  -1.6398797867470624e+07 -2.2604654738212540e+06 0.0000000000000000e+00  -2.9666099194840932e+08 -2.6829583915932581e+07 0.0000000000000000e+00  2.2598039742208809e+08 3.2791100962166309e+08 0.0000000000000000e+00  2.7561696605592877e+08 -2.9682193270036703e+08 0.0000000000000000e+00  2.7605661843318552e+08 2.5571532755102810e+07 0.0000000000000000e+00  -9.3937243316583216e+07 -5.0026811864656776e+07 0.0000000000000000e+00  -1.0287310710912377e+08 -2.7750620845947068e+07 0.0000000000000000e+00  3.8969647538271475e+08 1.3782395450582373e+08 0.0000000000000000e+00  1.4076449797617683e+08 3.0740001498414516e+08 0.0000000000000000e+00  -1.4464985203373659e+07 -8.1187115473919109e+07 0.0000000000000000e+00  -3.4213259302171838e+08 9.2446899162182763e+07 0.0000000000000000e+00  -4.2522992181472816e+07 4.2709388938258708e+07 0.0000000000000000e+00  -1.8825501813052353e+08 2.7127157563283714e+06 0.0000000000000000e+00  2.9980622721032411e+08 1.1390493030328849e+08 0.0000000000000000e+00  -2.6910469028796807e+07 2.8985823183961183e+08 0.0000000000000000e+00  -2.5264244792368570e+08 6.4345868076922894e+08 0.0000000000000000e+00  2.6760679890076619e+08 -2.7293017055023408e+08 0.0000000000000000e+00  2.2474712873349071e+08 -1.0021848736590172e+08 0.0000000000000000e+00  5.7806892711676741e+08 3.9412518410359490e+08 0.0000000000000000e+00  -1.8345514210640031e+08 -3.7631686635807621e+08 0.0000000000000000e+00  -4.3876256838857669e+08 -9.1921204232424095e+07 0.0000000000000000e+00  2.2802545198936388e+08 -1.0054395490305161e+08 0.0000000000000000e+00  -1.4770952696040714e+08 -7.3470329492437148e+08 0.0000000000000000e+00  -4.6483411024543101e+08 2.4376615828602299e+08 0.0000000000000000e+00  -3.4172302999171941e+06 -2.2096623890225561e+06 0.0000000000000000e+00  -1.5809356140168476e+08 7.9346055514880851e+07 0.0000000000000000e+00  -4.3338082374421820e+07 -3.3480070173276484e+08 0.0000000000000000e+00  2.7079024928167105e+08 -1.6998567533257109e+08 0.0000000000000000e+00  7.9906118171080649e+07 -1.9203775206511721e+08 0.0000000000000000e+00  -3.1644980627676971e+07 -1.5251554505803496e+08 0.0000000000000000e+00  2.3950648682102147e+08 4.5168167902913159e+06 0.0000000000000000e+00  -3.7884311555255271e+07 1.4369023129204300e+08 0.0000000000000000e+00  1.2774170453318247e+08 -1.5067233496111694e+08 0.0000000000000000e+00  8.0493889633181334e+07 -1.1663191904721078e+07 0.0000000000000000e+00  -4.1022349646559380e+07 3.1988169679780251e+08 0.0000000000000000e+00  -2.7670314320051644e+07 -9.9644078205822840e+07 0.0000000000000000e+00  -8.8368538782372586e+06 -8.8846154433354497e+07 0.0000000000000000e+00  5.6738350622321434e+07 6.3186014006537637e+06 0.0000000000000000e+00  -5.5270461728328228e+07 -1.7285690912003046e+08 0.0000000000000000e+00  -5.8669126889718914e+08 2.7410330581928486e+08 0.0000000000000000e+00  1.5616286207948338e+07 2.1937951257091206e+07 0.0000000000000000e+00  -1.6564246797466573e+08 2.3526566627912486e+08 0.0000000000000000e+00  -5.1696892219821352e+08 -3.4464921619336113e+07 0.0000000000000000e+00  -1.7346368413897803e+08 -4.6021459134915881e+07 0.0000000000000000e+00  -2.8036045705821431e+08 -2.3770832192647105e+08 0.0000000000000000e+00  -1.7528074815150186e+07 8.3140634759015679e+07 0.0000000000000000e+00  1.3517193544237870e+08 -1.0771608904215938e+08 0.0000000000000000e+00  1.8316624389496487e+08 8.1155183467241675e+07 0.0000000000000000e+00  -4.1248001085335123e+06 8.5834320588675693e+07 0.0000000000000000e+00  -1.2090531098533740e+07 -2.6141558202253339e+08 0.0000000000000000e+00  1.1939454617143299e+08 -6.4015312586725183e+07 0.0000000000000000e+00  2.8210904350069451e+08 2.4155294086381450e+07 0.0000000000000000e+00  3.8474844555213785e+08 2.0244569317315790e+08 0.0000000000000000e+00  -5.9869838588770367e+07 -1.8618127894542831e+08 0.0000000000000000e+00  -3.1569698170236009e+08 -5.9330942506367013e+07 0.0000000000000000e+00  -6.4385497954293741e+06 -5.7772317773448741e+08 0.0000000000000000e+00  2.1565380261076051e+06 3.0986085521616137e+08 0.0000000000000000e+00  -2.7145743833503616e+08 -6.1899634943192852e+08 0.0000000000000000e+00  -2.9789758863365412e+08 1.4036325502573606e+08 0.0000000000000000e+00  -1.7756507618579865e+08 -9.3410955418077961e+07 0.0000000000000000e+00  -5.0061845421485472e+08 -5.4734448872381143e+07 0.0000000000000000e+00  -4.4739584280933118e+08 1.9152973062580198e+08 0.0000000000000000e+00  -2.3012163533794323e+08 0.0000000000000000e+00 0.0000000000000000e+00  -2.5189493712283835e+08 0.0000000000000000e+00 0.0000000000000000e+00  -1.4943196982071179e+08 -3.0090458105389553e+08 0.0000000000000000e+00  -1.7964377193028215e+08 -1.7252876997041041e+08 0.0000000000000000e+00  -1.5045521931962538e+08 -9.3849632046864450e+07 0.0000000000000000e+00  1.8423616057685059e+08 1.0092538386086778e+08 0.0000000000000000e+00  4.5071235860572211e+07 3.4660761603466570e+08 0.0000000000000000e+00  2.1330835431626403e+08 -3.6197386706313795e+08 0.0000000000000000e+00  2.0666507694510975e+08 4.0047328991406792e+08 0.0000000000000000e+00  7.4130131908527836e+07 -2.2555891167234141e+07 0.0000000000000000e+00  1.6266083463212436e+08 1.1082751651142001e+08 0.0000000000000000e+00  -2.0441821958524816e+07 -6.1064518269618727e+07 0.0000000000000000e+00  1.5485314221287796e+08 2.4816719887987503e+08 0.0000000000000000e+00  -8.1636799427931637e+07 4.5095598525921649e+08 0.0000000000000000e+00  -7.5083637648913130e+07 8.0280288932251826e+07 0.0000000000000000e+00  7.2060126484014928e+07 1.9476812758696589e+08 0.0000000000000000e+00  4.4449739810932942e+07 1.9804202550834402e+08 0.0000000000000000e+00  8.2961872398138046e+07 8.9410391050200477e+07 0.0000000000000000e+00  -1.3247100012376072e+08 -2.0834306096817550e+08 0.0000000000000000e+00  -1.5737074526889616e+08 3.7228242722747940e+08 0.0000000000000000e+00  -1.7824142626575969e+07 8.8695238895631716e+07 0.0000000000000000e+00  3.4596098303030986e+08 -8.9838017264261469e+07 0.0000000000000000e+00  -4.6566897074608609e+07 2.5721281103561267e+08 0.0000000000000000e+00  2.6452619229533651e+08 1.1720682720960146e+08 0.0000000000000000e+00  3.3605355910199279e+08 1.8947623467893198e+08 0.0000000000000000e+00  3.1100390611475728e+07 2.3385502218193513e+08 0.0000000000000000e+00  1.0840712371027911e+08 -2.1457588126127836e+08 0.0000000000000000e+00  -1.0747454935449286e+08 -2.9037682429619089e+07 0.0000000000000000e+00  -3.9284169293842614e+08 1.7191393899376303e+08 0.0000000000000000e+00  4.4797758312405676e+08 4.4539654973686719e+08 0.0000000000000000e+00  3.3102072211448526e+08 -6.2616086564414394e+08 0.0000000000000000e+00  5.3498625278230441e+08 5.8411374155547607e+08 0.0000000000000000e+00  3.7392366790639681e+08 -3.1330652327144638e+07 0.0000000000000000e+00  -3.2795817342370504e+08 1.5035416729148442e+08 0.0000000000000000e+00  -2.5896700157404965e+08 3.7027412288294804e+08 0.0000000000000000e+00  -7.8298503806192338e+07 5.3111411345350188e+08 0.0000000000000000e+00  -6.9006980216171086e+07 1.4130084269107494e+08 0.0000000000000000e+00  -3.9249775339104432e+08 7.1259503638038978e+07 0.0000000000000000e+00  -1.1069535791447228e+07 -8.7671811213520110e+07 0.0000000000000000e+00  -3.7037651278524482e+08 -3.1387992159719743e+07 0.0000000000000000e+00  -1.8155219225804627e+08 -7.9489872195828915e+07 0.0000000000000000e+00  1.0692039372975104e+08 -3.7345987958984244e+08 0.0000000000000000e+00  4.8599423333149236e+08 -7.2658085687905669e+07 0.0000000000000000e+00  -1.2970175067749783e+08 -1.4796157256277809e+08 0.0000000000000000e+00  7.5507966995431349e+07 1.4039653726745136e+07 0.0000000000000000e+00  -1.5970498242071190e+08 1.1660150350130700e+08 0.0000000000000000e+00  1.7046760362474430e+08 -4.8520685284821220e+07 0.0000000000000000e+00  1.4046968922196987e+08 -3.1958413248360604e+08 0.0000000000000000e+00  1.6705436910259029e+07 -9.8001257227250293e+07 0.0000000000000000e+00  -8.0059641694401540e+06 2.9560050717919159e+08 0.0000000000000000e+00  4.2046650334288366e+07 -1.9651876309315652e+08 0.0000000000000000e+00  5.9881023113792606e+07 -1.9907073650928643e+08 0.0000000000000000e+00  -4.3040021077787347e+07 1.5241639971164283e+08 0.0000000000000000e+00  5.3850783833062850e+07 2.5046746992975185e+06 0.0000000000000000e+00  -3.5073074375184730e+07 8.2065108283304125e+07 0.0000000000000000e+00  -1.1957643642643255e+08 1.0871459674343589e+08 0.0000000000000000e+00  2.7187941223332919e+07 -1.0832195811848891e+08 0.0000000000000000e+00  -6.4767607705742605e+07 3.4466879584777743e+07 0.0000000000000000e+00  -5.8391270221532909e+06 -2.5441543760963804e+08 0.0000000000000000e+00  -5.8489859780124076e+07 2.1851587155464309e+08 0.0000000000000000e+00  -1.3278642476765758e+08 2.2898399374775776e+08 0.0000000000000000e+00  -2.6933122087727983e+07 2.7842664220813775e+08 0.0000000000000000e+00  -2.4074257322056773e+08 -2.0777182142993815e+07 0.0000000000000000e+00  6.7535559129908737e+06 -8.9460224261692658e+07 0.0000000000000000e+00  6.9206167670225978e+07 -5.4446267205808505e+07 0.0000000000000000e+00  -1.1680327439622095e+08 -1.7758809226911074e+08 0.0000000000000000e+00  6.4107873790083090e+06 -5.2995504468066400e+08 0.0000000000000000e+00  -9.6538246191796929e+07 -3.1348276454461598e+08 0.0000000000000000e+00  -1.1543676078109427e+08 2.1374547290318992e+07 0.0000000000000000e+00  -2.9060724169447836e+07 2.9994361299933940e+08 0.0000000000000000e+00  1.0744194061943842e+08 6.7975832511778563e+07 0.0000000000000000e+00  4.5233289743445672e+07 2.3139894956708649e+08 0.0000000000000000e+00  1.1358141527013461e+08 1.2947159574204223e+08 0.0000000000000000e+00  8.1932652964491889e+07 2.4874777705805200e+08 0.0000000000000000e+00  1.4295926884922487e+08 7.9886810265991464e+07 0.0000000000000000e+00  2.2170819925807321e+08 1.6323645906420611e+07 0.0000000000000000e+00  2.8483181380816042e+08 -7.5004894829206124e+07 0.0000000000000000e+00  4.8451616380277775e+07 -9.8542265639857471e+07 0.0000000000000000e+00  2.4539088658444482e+08 -2.2690853527350616e+08 0.0000000000000000e+00  -2.1659478170462906e+07 3.2725389430797142e+08 0.0000000000000000e+00  -2.8202495727678835e+08 -1.8155347587475127e+08 0.0000000000000000e+00  -5.9273240883615530e+08 1.2676029733026254e-07 0.0000000000000000e+00  -3.1933892243861619e+07 0.0000000000000000e+00 0.0000000000000000e+00  -1.2127237866654721e+08 -2.5991548083139116e+08 0.0000000000000000e+00  -2.5116516572019878e+08 9.3125408596435130e+07 0.0000000000000000e+00  7.9686270527918890e+07 6.1092936202714615e+07 0.0000000000000000e+00  -2.9906872723893672e+07 5.9230580957385816e+07 0.0000000000000000e+00  -1.7141706252898467e+08 3.9393439468985891e+08 0.0000000000000000e+00  1.7019096942503572e+08 1.7594523446977016e+08 0.0000000000000000e+00  1.2039619119824451e+08 7.4303928893539950e+07 0.0000000000000000e+00  1.1244951496609730e+08 -1.8588419287956944e+08 0.0000000000000000e+00  -2.8084344707633726e+07 1.6315897349239460e+08 0.0000000000000000e+00  2.0582403510700040e+07 -6.3614011607987508e+07 0.0000000000000000e+00  1.2889500816123278e+08 -1.3914537916398504e+08 0.0000000000000000e+00  -2.5384357714060083e+08 -8.8282817322117835e+07 0.0000000000000000e+00  5.2661207860435802e+08 2.0561631182719117e+08 0.0000000000000000e+00  -3.8540387431401357e+07 -4.6831072440279298e+07 0.0000000000000000e+00  2.1710293539170066e+08 1.0391485384092821e+08 0.0000000000000000e+00  -1.2699430843983047e+08 1.6767487811150274e+08 0.0000000000000000e+00  3.1670828136757229e+07 6.6354844198884040e+07 0.0000000000000000e+00  2.5258393109077555e+08 4.5035968934712690e+08 0.0000000000000000e+00  -4.6217885584346950e+07 2.3984225884864625e+08 0.0000000000000000e+00  -1.9546436542361513e+07 -1.8363029346557748e+08 0.0000000000000000e+00  3.9001432474917866e+07 3.3516455508929592e+07 0.0000000000000000e+00  -2.1333159095044935e+08 7.4136265990253270e+07 0.0000000000000000e+00  -7.3465413479320914e+07 4.4857668006236118e+08 0.0000000000000000e+00  2.6395145248375875e+08 -4.4042789042865551e+08 0.0000000000000000e+00  2.3715766090521496e+07 3.6979239553981316e+08 0.0000000000000000e+00  1.2168247970529632e+08 3.7627488722406554e+08 0.0000000000000000e+00  3.0297560426474619e+08 1.1077281462725438e+08 0.0000000000000000e+00  -5.3262789303621244e+08 6.7465855894656867e+07 0.0000000000000000e+00  -2.1460201875810257e+08 -2.5447993909732246e+08 0.0000000000000000e+00  8.4873067159483656e+07 -1.0365721515441479e+08 0.0000000000000000e+00  -3.0643341944401491e+07 -1.3233074320144227e+08 0.0000000000000000e+00  -5.7171742256367765e+07 1.3605232339335602e+07 0.0000000000000000e+00  -6.5055586779669061e+07 -7.8172482200354040e+08 0.0000000000000000e+00  7.8026853311800882e+07 2.4449022408265600e+08 0.0000000000000000e+00  -3.3866805992284817e+08 -1.8840601879755151e+08 0.0000000000000000e+00  -2.2448470206343129e+08 4.9227788273144013e+08 0.0000000000000000e+00  -6.8624671008909598e+07 5.707968584