<?xml version="1.0"?>
<VTKFile type="UnstructuredGrid"  version="0.1"  >
<UnstructuredGrid>
<Piece  NumberOfPoints="1369" NumberOfCells="2560">
<Points>
<DataArray  type="Float64"  NumberOfComponents="3"  format="ascii">0 0 0  0.75 0 0  1.5 0 0  2.25 0 0  3 0 0  3.75 0 0  4.5 0 0  5.25 0 0  6 0 0  6.75 0 0  7.5 0 0  8.25 0 0  9 0 0  9.75 0 0  10.5 0 0  11.25 0 0  12 0 0  12.75 0 0  13.5 0 0  14.25 0 0  15 0 0  15.75 0 0  16.5 0 0  17.25 0 0  18 0 0  18.75 0 0  19.5 0 0  20.25 0 0  21 0 0  21.75 0 0  22.5 0 0  23.25 0 0  24 0 0  24.75 0 0  25.5 0 0  26.25 0 0  27 0 0  27.75 0 0  28.5 0 0  29.25 0 0  30 0 0  30.75 0 0  31.5 0 0  32.25 0 0  33 0 0  33.75 0 0  34.5 0 0  35.25 0 0  36 0 0  36.75 0 0  37.5 0 0  38.25 0 0  39 0 0  39.75 0 0  40.5 0 0  41.25 0 0  42 0 0  42.75 0 0  43.5 0 0  44.25 0 0  45 0 0  45.75 0 0  46.5 0 0  47.25 0 0  48 0 0  48.75 0 0  49.5 0 0  50.25 0 0  51 0 0  51.75 0 0  52.5 0 0  53.25 0 0  54 0 0  54.75 0 0  55.5 0 0  56.25 0 0  57 0 0  57.75 0 0  58.5 0 0  59.25 0 0  60 0 0  0 0.5 0  0.75 0.5 0  1.5 0.5 0  2.25 0.5 0  3 0.5 0  3.75 0.5 0  4.5 0.5 0  5.25 0.5 0  6 0.5 0  6.75 0.5 0  7.5 0.5 0  8.25 0.5 0  9 0.5 0  9.75 0.5 0  10.5 0.5 0  11.25 0.5 0  12 0.5 0  12.75 0.5 0  13.5 0.5 0  14.25 0.5 0  15 0.5 0  15.75 0.5 0  16.5 0.5 0  17.25 0.5 0  18 0.5 0  18.75 0.5 0  19.5 0.5 0  20.25 0.5 0  21 0.5 0  21.75 0.5 0  22.5 0.5 0  23.25 0.5 0  24 0.5 0  24.75 0.5 0  25.5 0.5 0  26.25 0.5 0  27 0.5 0  27.75 0.5 0  28.5 0.5 0  29.25 0.5 0  30 0.5 0  30.75 0.5 0  31.5 0.5 0  32.25 0.5 0  33 0.5 0  33.75 0.5 0  34.5 0.5 0  35.25 0.5 0  36 0.5 0  36.75 0.5 0  37.5 0.5 0  38.25 0.5 0  39 0.5 0  39.75 0.5 0  40.5 0.5 0  41.25 0.5 0  42 0.5 0  42.75 0.5 0  43.5 0.5 0  44.25 0.5 0  45 0.5 0  45.75 0.5 0  46.5 0.5 0  47.25 0.5 0  48 0.5 0  48.75 0.5 0  49.5 0.5 0  50.25 0.5 0  51 0.5 0  51.75 0.5 0  52.5 0.5 0  53.25 0.5 0  54 0.5 0  54.75 0.5 0  55.5 0.5 0  56.25 0.5 0  57 0.5 0  57.75 0.5 0  58.5 0.5 0  59.25 0.5 0  60 0.5 0  0 1 0  0.75 1 0  1.5 1 0  2.25 1 0  3 1 0  3.75 1 0  4.5 1 0  5.25 1 0  6 1 0  6.75 1 0  7.5 1 0  8.25 1 0  9 1 0  9.75 1 0  10.5 1 0  11.25 1 0  12 1 0  12.75 1 0  13.5 1 0  14.25 1 0  15 1 0  15.75 1 0  16.5 1 0  17.25 1 0  18 1 0  18.75 1 0  19.5 1 0  20.25 1 0  21 1 0  21.75 1 0  22.5 1 0  23.25 1 0  24 1 0  24.75 1 0  25.5 1 0  26.25 1 0  27 1 0  27.75 1 0  28.5 1 0  29.25 1 0  30 1 0  30.75 1 0  31.5 1 0  32.25 1 0  33 1 0  33.75 1 0  34.5 1 0  35.25 1 0  36 1 0  36.75 1 0  37.5 1 0  38.25 1 0  39 1 0  39.75 1 0  40.5 1 0  41.25 1 0  42 1 0  42.75 1 0  43.5 1 0  44.25 1 0  45 1 0  45.75 1 0  46.5 1 0  47.25 1 0  48 1 0  48.75 1 0  49.5 1 0  50.25 1 0  51 1 0  51.75 1 0  52.5 1 0  53.25 1 0  54 1 0  54.75 1 0  55.5 1 0  56.25 1 0  57 1 0  57.75 1 0  58.5 1 0  59.25 1 0  60 1 0  0 1.5 0  0.75 1.5 0  1.5 1.5 0  2.25 1.5 0  3 1.5 0  3.75 1.5 0  4.5 1.5 0  5.25 1.5 0  6 1.5 0  6.75 1.5 0  7.5 1.5 0  8.25 1.5 0  9 1.5 0  9.75 1.5 0  10.5 1.5 0  11.25 1.5 0  12 1.5 0  12.75 1.5 0  13.5 1.5 0  14.25 1.5 0  15 1.5 0  15.75 1.5 0  16.5 1.5 0  17.25 1.5 0  18 1.5 0  18.75 1.5 0  19.5 1.5 0  20.25 1.5 0  21 1.5 0  21.75 1.5 0  22.5 1.5 0  23.25 1.5 0  24 1.5 0  24.75 1.5 0  25.5 1.5 0  26.25 1.5 0  27 1.5 0  27.75 1.5 0  28.5 1.5 0  29.25 1.5 0  30 1.5 0  30.75 1.5 0  31.5 1.5 0  32.25 1.5 0  33 1.5 0  33.75 1.5 0  34.5 1.5 0  35.25 1.5 0  36 1.5 0  36.75 1.5 0  37.5 1.5 0  38.25 1.5 0  39 1.5 0  39.75 1.5 0  40.5 1.5 0  41.25 1.5 0  42 1.5 0  42.75 1.5 0  43.5 1.5 0  44.25 1.5 0  45 1.5 0  45.75 1.5 0  46.5 1.5 0  47.25 1.5 0  48 1.5 0  48.75 1.5 0  49.5 1.5 0  50.25 1.5 0  51 1.5 0  51.75 1.5 0  52.5 1.5 0  53.25 1.5 0  54 1.5 0  54.75 1.5 0  55.5 1.5 0  56.25 1.5 0  57 1.5 0  57.75 1.5 0  58.5 1.5 0  59.25 1.5 0  60 1.5 0  0 2 0  0.75 2 0  1.5 2 0  2.25 2 0  3 2 0  3.75 2 0  4.5 2 0  5.25 2 0  6 2 0  6.75 2 0  7.5 2 0  8.25 2 0  9 2 0  9.75 2 0  10.5 2 0  11.25 2 0  12 2 0  12.75 2 0  13.5 2 0  14.25 2 0  15 2 0  15.75 2 0  16.5 2 0  17.25 2 0  18 2 0  18.75 2 0  19.5 2 0  20.25 2 0  21 2 0  21.75 2 0  22.5 2 0  23.25 2 0  24 2 0  24.75 2 0  25.5 2 0  26.25 2 0  27 2 0  27.75 2 0  28.5 2 0  29.25 2 0  30 2 0  30.75 2 0  31.5 2 0  32.25 2 0  33 2 0  33.75 2 0  34.5 2 0  35.25 2 0  36 2 0  36.75 2 0  37.5 2 0  38.25 2 0  39 2 0  39.75 2 0  40.5 2 0  41.25 2 0  42 2 0  42.75 2 0  43.5 2 0  44.25 2 0  45 2 0  45.75 2 0  46.5 2 0  47.25 2 0  48 2 0  48.75 2 0  49.5 2 0  50.25 2 0  51 2 0  51.75 2 0  52.5 2 0  53.25 2 0  54 2 0  54.75 2 0  55.5 2 0  56.25 2 0  57 2 0  57.75 2 0  58.5 2 0  59.25 2 0  60 2 0  0 2.5 0  0.75 2.5 0  1.5 2.5 0  2.25 2.5 0  3 2.5 0  3.75 2.5 0  4.5 2.5 0  5.25 2.5 0  6 2.5 0  6.75 2.5 0  7.5 2.5 0  8.25 2.5 0  9 2.5 0  9.75 2.5 0  10.5 2.5 0  11.25 2.5 0  12 2.5 0  12.75 2.5 0  13.5 2.5 0  14.25 2.5 0  15 2.5 0  15.75 2.5 0  16.5 2.5 0  17.25 2.5 0  18 2.5 0  18.75 2.5 0  19.5 2.5 0  20.25 2.5 0  21 2.5 0  21.75 2.5 0  22.5 2.5 0  23.25 2.5 0  24 2.5 0  24.75 2.5 0  25.5 2.5 0  26.25 2.5 0  27 2.5 0  27.75 2.5 0  28.5 2.5 0  29.25 2.5 0  30 2.5 0  30.75 2.5 0  31.5 2.5 0  32.25 2.5 0  33 2.5 0  33.75 2.5 0  34.5 2.5 0  35.25 2.5 0  36 2.5 0  36.75 2.5 0  37.5 2.5 0  38.25 2.5 0  39 2.5 0  39.75 2.5 0  40.5 2.5 0  41.25 2.5 0  42 2.5 0  42.75 2.5 0  43.5 2.5 0  44.25 2.5 0  45 2.5 0  45.75 2.5 0  46.5 2.5 0  47.25 2.5 0  48 2.5 0  48.75 2.5 0  49.5 2.5 0  50.25 2.5 0  51 2.5 0  51.75 2.5 0  52.5 2.5 0  53.25 2.5 0  54 2.5 0  54.75 2.5 0  55.5 2.5 0  56.25 2.5 0  57 2.5 0  57.75 2.5 0  58.5 2.5 0  59.25 2.5 0  60 2.5 0  0 3 0  0.75 3 0  1.5 3 0  2.25 3 0  3 3 0  3.75 3 0  4.5 3 0  5.25 3 0  6 3 0  6.75 3 0  7.5 3 0  8.25 3 0  9 3 0  9.75 3 0  10.5 3 0  11.25 3 0  12 3 0  12.75 3 0  13.5 3 0  14.25 3 0  15 3 0  15.75 3 0  16.5 3 0  17.25 3 0  18 3 0  18.75 3 0  19.5 3 0  20.25 3 0  21 3 0  21.75 3 0  22.5 3 0  23.25 3 0  24 3 0  24.75 3 0  25.5 3 0  26.25 3 0  27 3 0  27.75 3 0  28.5 3 0  29.25 3 0  30 3 0  30.75 3 0  31.5 3 0  32.25 3 0  33 3 0  33.75 3 0  34.5 3 0  35.25 3 0  36 3 0  36.75 3 0  37.5 3 0  38.25 3 0  39 3 0  39.75 3 0  40.5 3 0  41.25 3 0  42 3 0  42.75 3 0  43.5 3 0  44.25 3 0  45 3 0  45.75 3 0  46.5 3 0  47.25 3 0  48 3 0  48.75 3 0  49.5 3 0  50.25 3 0  51 3 0  51.75 3 0  52.5 3 0  53.25 3 0  54 3 0  54.75 3 0  55.5 3 0  56.25 3 0  57 3 0  57.75 3 0  58.5 3 0  59.25 3 0  60 3 0  0 3.5 0  0.75 3.5 0  1.5 3.5 0  2.25 3.5 0  3 3.5 0  3.75 3.5 0  4.5 3.5 0  5.25 3.5 0  6 3.5 0  6.75 3.5 0  7.5 3.5 0  8.25 3.5 0  9 3.5 0  9.75 3.5 0  10.5 3.5 0  11.25 3.5 0  12 3.5 0  12.75 3.5 0  13.5 3.5 0  14.25 3.5 0  15 3.5 0  15.75 3.5 0  16.5 3.5 0  17.25 3.5 0  18 3.5 0  18.75 3.5 0  19.5 3.5 0  20.25 3.5 0  21 3.5 0  21.75 3.5 0  22.5 3.5 0  23.25 3.5 0  24 3.5 0  24.75 3.5 0  25.5 3.5 0  26.25 3.5 0  27 3.5 0  27.75 3.5 0  28.5 3.5 0  29.25 3.5 0  30 3.5 0  30.75 3.5 0  31.5 3.5 0  32.25 3.5 0  33 3.5 0  33.75 3.5 0  34.5 3.5 0  35.25 3.5 0  36 3.5 0  36.75 3.5 0  37.5 3.5 0  38.25 3.5 0  39 3.5 0  39.75 3.5 0  40.5 3.5 0  41.25 3.5 0  42 3.5 0  42.75 3.5 0  43.5 3.5 0  44.25 3.5 0  45 3.5 0  45.75 3.5 0  46.5 3.5 0  47.25 3.5 0  48 3.5 0  48.75 3.5 0  49.5 3.5 0  50.25 3.5 0  51 3.5 0  51.75 3.5 0  52.5 3.5 0  53.25 3.5 0  54 3.5 0  54.75 3.5 0  55.5 3.5 0  56.25 3.5 0  57 3.5 0  57.75 3.5 0  58.5 3.5 0  59.25 3.5 0  60 3.5 0  0 4 0  0.75 4 0  1.5 4 0  2.25 4 0  3 4 0  3.75 4 0  4.5 4 0  5.25 4 0  6 4 0  6.75 4 0  7.5 4 0  8.25 4 0  9 4 0  9.75 4 0  10.5 4 0  11.25 4 0  12 4 0  12.75 4 0  13.5 4 0  14.25 4 0  15 4 0  15.75 4 0  16.5 4 0  17.25 4 0  18 4 0  18.75 4 0  19.5 4 0  20.25 4 0  21 4 0  21.75 4 0  22.5 4 0  23.25 4 0  24 4 0  24.75 4 0  25.5 4 0  26.25 4 0  27 4 0  27.75 4 0  28.5 4 0  29.25 4 0  30 4 0  30.75 4 0  31.5 4 0  32.25 4 0  33 4 0  33.75 4 0  34.5 4 0  35.25 4 0  36 4 0  36.75 4 0  37.5 4 0  38.25 4 0  39 4 0  39.75 4 0  40.5 4 0  41.25 4 0  42 4 0  42.75 4 0  43.5 4 0  44.25 4 0  45 4 0  45.75 4 0  46.5 4 0  47.25 4 0  48 4 0  48.75 4 0  49.5 4 0  50.25 4 0  51 4 0  51.75 4 0  52.5 4 0  53.25 4 0  54 4 0  54.75 4 0  55.5 4 0  56.25 4 0  57 4 0  57.75 4 0  58.5 4 0  59.25 4 0  60 4 0  0.375 0.25 0  1.125 0.25 0  1.875 0.25 0  2.625 0.25 0  3.375 0.25 0  4.125 0.25 0  4.875 0.25 0  5.625 0.25 0  6.375 0.25 0  7.125 0.25 0  7.875 0.25 0  8.625 0.25 0  9.375 0.25 0  10.125 0.25 0  10.875 0.25 0  11.625 0.25 0  12.375 0.25 0  13.125 0.25 0  13.875 0.25 0  14.625 0.25 0  15.375 0.25 0  16.125 0.25 0  16.875 0.25 0  17.625 0.25 0  18.375 0.25 0  19.125 0.25 0  19.875 0.25 0  20.625 0.25 0  21.375 0.25 0  22.125 0.25 0  22.875 0.25 0  23.625 0.25 0  24.375 0.25 0  25.125 0.25 0  25.875 0.25 0  26.625 0.25 0  27.375 0.25 0  28.125 0.25 0  28.875 0.25 0  29.625 0.25 0  30.375 0.25 0  31.125 0.25 0  31.875 0.25 0  32.625 0.25 0  33.375 0.25 0  34.125 0.25 0  34.875 0.25 0  35.625 0.25 0  36.375 0.25 0  37.125 0.25 0  37.875 0.25 0  38.625 0.25 0  39.375 0.25 0  40.125 0.25 0  40.875 0.25 0  41.625 0.25 0  42.375 0.25 0  43.125 0.25 0  43.875 0.25 0  44.625 0.25 0  45.375 0.25 0  46.125 0.25 0  46.875 0.25 0  47.625 0.25 0  48.375 0.25 0  49.125 0.25 0  49.875 0.25 0  50.625 0.25 0  51.375 0.25 0  52.125 0.25 0  52.875 0.25 0  53.625 0.25 0  54.375 0.25 0  55.125 0.25 0  55.875 0.25 0  56.625 0.25 0  57.375 0.25 0  58.125 0.25 0  58.875 0.25 0  59.625 0.25 0  0.375 0.75 0  1.125 0.75 0  1.875 0.75 0  2.625 0.75 0  3.375 0.75 0  4.125 0.75 0  4.875 0.75 0  5.625 0.75 0  6.375 0.75 0  7.125 0.75 0  7.875 0.75 0  8.625 0.75 0  9.375 0.75 0  10.125 0.75 0  10.875 0.75 0  11.625 0.75 0  12.375 0.75 0  13.125 0.75 0  13.875 0.75 0  14.625 0.75 0  15.375 0.75 0  16.125 0.75 0  16.875 0.75 0  17.625 0.75 0  18.375 0.75 0  19.125 0.75 0  19.875 0.75 0  20.625 0.75 0  21.375 0.75 0  22.125 0.75 0  22.875 0.75 0  23.625 0.75 0  24.375 0.75 0  25.125 0.75 0  25.875 0.75 0  26.625 0.75 0  27.375 0.75 0  28.125 0.75 0  28.875 0.75 0  29.625 0.75 0  30.375 0.75 0  31.125 0.75 0  31.875 0.75 0  32.625 0.75 0  33.375 0.75 0  34.125 0.75 0  34.875 0.75 0  35.625 0.75 0  36.375 0.75 0  37.125 0.75 0  37.875 0.75 0  38.625 0.75 0  39.375 0.75 0  40.125 0.75 0  40
[...]
<PointData  Vectors="f_8-0"> 
<DataArray  type="Float64"  Name="f_8-0"  NumberOfComponents="3" format="ascii">7.2400278007801053e-09 -1.1887751673839752e-08 0.0000000000000000e+00  0.0000000000000000e+00 0.0000000000000000e+00 0.0000000000000000e+00  0.0000000000000000e+00 0.0000000000000000e+00 0.0000000000000000e+00  0.0000000000000000e+00 0.0000000000000000e+00 0.0000000000000000e+00  0.0000000000000000e+00 0.0000000000000000e+00 0.0000000000000000e+00  6.2792816682828295e-06 3.0669325961250167e-07 0.0000000000000000e+00  2.0373489136594933e-06 6.9453430046447021e-06 0.0000000000000000e+00  1.9994735188441343e-06 -6.2995855453929424e-07 0.0000000000000000e+00  -6.1435839459133758e-07 -7.3905636343751399e-06 0.0000000000000000e+00  8.4777139955268558e-07 2.2454064252467881e-07 0.0000000000000000e+00  0.0000000000000000e+00 0.0000000000000000e+00 0.0000000000000000e+00  0.0000000000000000e+00 3.6667157699672349e-09 0.0000000000000000e+00  0.0000000000000000e+00 0.0000000000000000e+00 0.0000000000000000e+00  3.4926278066235023e-06 -3.1293587003421494e-06 0.0000000000000000e+00  7.6584484519058085e-06 -4.5111484496821993e-06 0.0000000000000000e+00  0.0000000000000000e+00 0.0000000000000000e+00 0.0000000000000000e+00  0.0000000000000000e+00 0.0000000000000000e+00 0.0000000000000000e+00  0.0000000000000000e+00 -9.7291573469482593e-07 0.0000000000000000e+00  7.3514207906096391e-06 4.2185030409073836e-06 0.0000000000000000e+00  -3.0879822578042935e-07 -2.8350424388575702e-07 0.0000000000000000e+00  2.4329595953416353e-05 -1.2743472272300079e-06 0.0000000000000000e+00  0.0000000000000000e+00 0.0000000000000000e+00 0.0000000000000000e+00  0.0000000000000000e+00 0.0000000000000000e+00 0.0000000000000000e+00  0.0000000000000000e+00 -1.9029042164230276e-08 0.0000000000000000e+00  0.0000000000000000e+00 0.0000000000000000e+00 0.0000000000000000e+00  -2.5740316781229013e-05 6.0717229918775201e-06 0.0000000000000000e+00  0.0000000000000000e+00 0.0000000000000000e+00 0.0000000000000000e+00  0.0000000000000000e+00 0.0000000000000000e+00 0.0000000000000000e+00  1.1296353339962947e-05 1.0379902928826005e-05 0.0000000000000000e+00  9.4502591485586934e-07 0.0000000000000000e+00 0.0000000000000000e+00  -1.1275673627646295e-05 -2.1551173725549301e-09 0.0000000000000000e+00  4.5516888225794994e-05 -2.8851699010032923e-05 0.0000000000000000e+00  0.0000000000000000e+00 6.7321813601707947e-07 0.0000000000000000e+00  0.0000000000000000e+00 0.0000000000000000e+00 0.0000000000000000e+00  0.0000000000000000e+00 0.0000000000000000e+00 0.0000000000000000e+00  -2.8962053179688414e-07 1.3032843406506971e-06 0.0000000000000000e+00  0.0000000000000000e+00 0.0000000000000000e+00 0.0000000000000000e+00  0.0000000000000000e+00 0.0000000000000000e+00 0.0000000000000000e+00  -4.0819041088660621e-05 1.3658947526041905e-05 0.0000000000000000e+00  6.6353083536676471e-08 -2.4128244976331681e-07 0.0000000000000000e+00  0.0000000000000000e+00 -6.7975678223862003e-08 0.0000000000000000e+00  0.0000000000000000e+00 -4.2804201898405141e-07 0.0000000000000000e+00  0.0000000000000000e+00 4.4535850865433603e-09 0.0000000000000000e+00  0.0000000000000000e+00 3.6577502472729461e-07 0.0000000000000000e+00  -8.4734810787495721e-06 -5.5686518516385147e-07 0.0000000000000000e+00  -4.2444073428870259e-05 3.7403577853990549e-06 0.0000000000000000e+00  -5.1690670526450716e-07 -3.5774430089466770e-07 0.0000000000000000e+00  0.0000000000000000e+00 7.9434553406616885e-08 0.0000000000000000e+00  -2.1160732584527422e-06 3.6439317885204116e-06 0.0000000000000000e+00  -6.4975472031724695e-07 -5.0761665347099534e-08 0.0000000000000000e+00  0.0000000000000000e+00 0.0000000000000000e+00 0.0000000000000000e+00  1.2791867483934785e-05 -1.6504118394252769e-05 0.0000000000000000e+00  0.0000000000000000e+00 3.6244725356533938e-06 0.0000000000000000e+00  2.1545372485646714e-06 -1.3140666651427756e-05 0.0000000000000000e+00  0.0000000000000000e+00 3.3108449681943352e-07 0.0000000000000000e+00  4.7375971030030683e-06 8.0140822888738485e-06 0.0000000000000000e+00  -3.1601246338703008e-07 -9.7861106918889987e-08 0.0000000000000000e+00  0.0000000000000000e+00 0.0000000000000000e+00 0.0000000000000000e+00  1.2814905987822255e-06 -8.2758465824370464e-06 0.0000000000000000e+00  0.0000000000000000e+00 0.0000000000000000e+00 0.0000000000000000e+00  0.0000000000000000e+00 0.0000000000000000e+00 0.0000000000000000e+00  0.0000000000000000e+00 0.0000000000000000e+00 0.0000000000000000e+00  0.0000000000000000e+00 0.0000000000000000e+00 0.0000000000000000e+00  -9.0994228751462620e-06 -6.0339147738283170e-06 0.0000000000000000e+00  0.0000000000000000e+00 3.9375542158787457e-08 0.0000000000000000e+00  0.0000000000000000e+00 0.0000000000000000e+00 0.0000000000000000e+00  0.0000000000000000e+00 0.0000000000000000e+00 0.0000000000000000e+00  1.2864046121179354e-05 -2.3037211515173448e-07 0.0000000000000000e+00  4.3596745192117798e-06 -1.2806613906735727e-05 0.0000000000000000e+00  6.9968956709921483e-08 -9.9486219320707077e-08 0.0000000000000000e+00  0.0000000000000000e+00 0.0000000000000000e+00 0.0000000000000000e+00  0.0000000000000000e+00 0.0000000000000000e+00 0.0000000000000000e+00  0.0000000000000000e+00 0.0000000000000000e+00 0.0000000000000000e+00  -2.8266068085175667e-05 1.1631493070186185e-05 0.0000000000000000e+00  0.0000000000000000e+00 0.0000000000000000e+00 0.0000000000000000e+00  0.0000000000000000e+00 0.0000000000000000e+00 0.0000000000000000e+00  0.0000000000000000e+00 8.7612041312625270e-08 0.0000000000000000e+00  0.0000000000000000e+00 0.0000000000000000e+00 0.0000000000000000e+00  0.0000000000000000e+00 0.0000000000000000e+00 0.0000000000000000e+00  -2.0755055817876042e-07 0.0000000000000000e+00 0.0000000000000000e+00  2.7751472148815198e-08 7.8696301977831456e-08 0.0000000000000000e+00  1.1774968919614033e+08 1.6796594280697254e-07 0.0000000000000000e+00  1.8411857381560701e+08 -2.6509716632718003e+08 0.0000000000000000e+00  9.4766707941996958e+06 2.0782876025613922e+08 0.0000000000000000e+00  -9.0882053212170657e+06 4.1710813360721967e+06 0.0000000000000000e+00  -6.5002344135663375e+07 -2.4950315724334046e+07 0.0000000000000000e+00  -5.6965393701888338e+07 9.9879484636146024e+07 0.0000000000000000e+00  -5.3375215001589932e+07 -3.0885812062494177e+08 0.0000000000000000e+00  1.3206933335423453e+08 -2.2756198628347242e+08 0.0000000000000000e+00  1.4910358138798332e+08 6.0784875062735856e+07 0.0000000000000000e+00  5.4985048172516361e+07 1.8994438180882269e+08 0.0000000000000000e+00  5.1237022438566968e+07 -2.5526768612262881e+08 0.0000000000000000e+00  -3.7949734822371736e+07 3.3001480567142773e+08 0.0000000000000000e+00  -7.9287776912978843e+07 -3.3753962420252389e+08 0.0000000000000000e+00  -3.2006067308855038e+07 2.5915672860459235e+07 0.0000000000000000e+00  -1.1793719054742004e+08 -1.8046050764233309e+08 0.0000000000000000e+00  1.5647509002157897e+08 -8.3621195265850529e+07 0.0000000000000000e+00  -9.9513061796436176e+07 1.6492842118325371e+08 0.0000000000000000e+00  8.5081337200759519e+06 -5.2206363537718713e+07 0.0000000000000000e+00  -7.0739129756166399e+07 -4.5750019686906680e+07 0.0000000000000000e+00  -1.2766753939609225e+08 -6.3404293409516521e+07 0.0000000000000000e+00  1.8147900336271843e+08 2.9357985265294456e+08 0.0000000000000000e+00  2.1985085837075064e+08 -3.2524808635906959e+08 0.0000000000000000e+00  2.3516640587395743e+08 -4.4123853672995521e+06 0.0000000000000000e+00  -2.7227941438361067e+08 -9.3225072512829289e+07 0.0000000000000000e+00  -8.5071598983617678e+07 -7.6774260234546825e+07 0.0000000000000000e+00  1.2476001914678961e+08 -3.9443965062482469e+07 0.0000000000000000e+00  -4.0098379675620675e+07 3.5784950757302463e+08 0.0000000000000000e+00  -4.0399125995060444e+07 1.4827690760798693e+08 0.0000000000000000e+00  -1.3906954817196989e+08 -2.7692770851681609e+07 0.0000000000000000e+00  5.7620877774035014e+07 -4.7294049973952122e+07 0.0000000000000000e+00  -2.5881840842881419e+07 -5.6755645353378370e+07 0.0000000000000000e+00  1.7955260188600659e+08 -8.4188469473043457e+07 0.0000000000000000e+00  -1.7556920888667011e+08 1.2126708904408439e+08 0.0000000000000000e+00  -1.7936745145698985e+08 6.3939130993805671e+08 0.0000000000000000e+00  2.8342879987850255e+08 -2.7130019707158178e+08 0.0000000000000000e+00  2.1079247164976609e+08 -1.2473721959648389e+08 0.0000000000000000e+00  5.6908295027417958e+08 3.6966980784906989e+08 0.0000000000000000e+00  -1.5700133746882531e+08 -3.8093113835678154e+08 0.0000000000000000e+00  -4.4854473077212274e+08 -1.0888408377357365e+08 0.0000000000000000e+00  1.4230855728799430e+08 -3.4199568839655139e+07 0.0000000000000000e+00  -2.1127048308191860e+08 -6.2162326839545143e+08 0.0000000000000000e+00  -3.9853641923090279e+08 1.4286913364545986e+08 0.0000000000000000e+00  -5.5672442882242724e+07 2.2661134618291192e+07 0.0000000000000000e+00  -1.4106332927166358e+08 1.2520571634135678e+08 0.0000000000000000e+00  -1.2818369973638286e+08 -1.8858079277737969e+08 0.0000000000000000e+00  1.5411881075508720e+08 8.8597009998986974e+07 0.0000000000000000e+00  -3.6372564991519295e+07 -1.8499176139815819e+08 0.0000000000000000e+00  -3.0253010774994221e+07 -7.5804863551614463e+07 0.0000000000000000e+00  2.0949185848260424e+08 -5.2039762207439259e+07 0.0000000000000000e+00  -1.2101687844661698e+07 1.0947749745929341e+08 0.0000000000000000e+00  1.5396783012919986e+08 -2.8533333825072461e+08 0.0000000000000000e+00  8.3000905663387671e+07 6.6165438587304480e+07 0.0000000000000000e+00  -4.5112950746977516e+07 3.5312320401706475e+08 0.0000000000000000e+00  3.4190048874333128e+07 -8.5644518231563583e+07 0.0000000000000000e+00  3.5071548647358850e+07 -3.3225619257321905e+07 0.0000000000000000e+00  1.3241096593355998e+07 6.2759588838202961e+07 0.0000000000000000e+00  -1.2205571179974630e+08 -1.3509559305025294e+08 0.0000000000000000e+00  -5.7033705421361148e+08 2.5584650944668970e+08 0.0000000000000000e+00  -2.5653024923521657e+07 -2.8404898115837127e+07 0.0000000000000000e+00  -2.2921034523121801e+08 2.3631829371037462e+08 0.0000000000000000e+00  -6.1092016855483663e+08 3.1625154827162825e+07 0.0000000000000000e+00  -9.0453375301910609e+07 -1.7239106130545485e+08 0.0000000000000000e+00  -2.4057594111432126e+08 -3.0512129247575104e+08 0.0000000000000000e+00  4.5195824779411077e+07 1.0276133068361154e+08 0.0000000000000000e+00  3.5348734026753150e+07 -5.3031904582883589e+07 0.0000000000000000e+00  9.1573821737555102e+07 2.2145637018573177e+08 0.0000000000000000e+00  1.3170380859203632e+06 -1.1116017433936845e+08 0.0000000000000000e+00  -4.7313762552894931e+06 -2.0409745381559801e+08 0.0000000000000000e+00  2.0415672890203655e+07 -8.8649843475072294e+07 0.0000000000000000e+00  1.8882843847436756e+08 -3.2611585325972643e+07 0.0000000000000000e+00  3.9879756079767174e+08 1.7738889686134279e+08 0.0000000000000000e+00  -1.4204636974361733e+08 -1.8500088919578421e+08 0.0000000000000000e+00  -2.6176036792558506e+08 -3.8422552356367394e+07 0.0000000000000000e+00  5.6513966811091445e+07 -4.9830908089454955e+08 0.0000000000000000e+00  3.4861558269338630e+07 3.4970032504933834e+08 0.0000000000000000e+00  -2.8101840850809479e+08 -6.0886568498229790e+08 0.0000000000000000e+00  -2.5508066178612390e+08 1.3255420096949326e+08 0.0000000000000000e+00  -1.5478780316968754e+08 -1.1024719557568711e+08 0.0000000000000000e+00  -4.8798740546151137e+08 -4.1111408105935849e+07 0.0000000000000000e+00  -4.2334538187538308e+08 2.0271759049338216e+08 0.0000000000000000e+00  -1.9606807089852294e+08 0.0000000000000000e+00 0.0000000000000000e+00  -2.1765194981477162e+08 -6.9735986631529341e-08 0.0000000000000000e+00  -1.1334964457341152e+08 -1.1365061257628702e+08 0.0000000000000000e+00  -1.6073361269029635e+08 -1.3682791627744088e+08 0.0000000000000000e+00  -2.0112017099279514e+08 -2.1523513166056845e+08 0.0000000000000000e+00  1.3648138085409030e+08 -1.3735954012031406e+07 0.0000000000000000e+00  7.9965404891466081e+07 -3.1582509056462158e+07 0.0000000000000000e+00  1.3445800334322608e+08 2.6591626876821715e+07 0.0000000000000000e+00  2.2037243253071606e+08 1.9999220854208368e+08 0.0000000000000000e+00  1.2779990845542714e+08 -2.5435078345456435e+06 0.0000000000000000e+00  1.5429554149608031e+08 1.5967304630906400e+08 0.0000000000000000e+00  -2.8479183023395967e+07 -1.1083113622228131e+08 0.0000000000000000e+00  5.3324910973991647e+07 5.3343240393148161e+07 0.0000000000000000e+00  2.4654980516158823e+07 2.3681317014537066e+08 0.0000000000000000e+00  5.5951772491123587e+07 4.2687961042294748e+07 0.0000000000000000e+00  1.5935100723433647e+08 3.1508100412484605e+07 0.0000000000000000e+00  4.8233919855267756e+07 1.6057286631396788e+08 0.0000000000000000e+00  9.3107881168208510e+07 1.6052928514547706e+08 0.0000000000000000e+00  -2.6309960592196393e+08 -2.6073853206121691e+07 0.0000000000000000e+00  -1.7001620949433056e+08 3.3060065342795396e+08 0.0000000000000000e+00  5.5590272316408202e+07 4.5942872977191418e+07 0.0000000000000000e+00  2.6432693757639036e+08 1.6955295505408710e+06 0.0000000000000000e+00  -6.1598495171239525e+07 1.8642297853471273e+08 0.0000000000000000e+00  1.7660671848976797e+08 1.1561073193510272e+08 0.0000000000000000e+00  3.8841086228193331e+08 2.6141224968665874e+08 0.0000000000000000e+00  -1.9230616754578192e+07 2.0443619491083896e+08 0.0000000000000000e+00  1.2848249114874256e+08 -6.0164544096734621e+07 0.0000000000000000e+00  -1.3256727606269425e+08 -1.0127794018698791e+08 0.0000000000000000e+00  -3.6773787945932794e+08 1.8323399199138352e+08 0.0000000000000000e+00  4.6644533092456406e+08 4.6137520944650024e+08 0.0000000000000000e+00  3.3559875869775558e+08 -6.3555593237827134e+08 0.0000000000000000e+00  4.5301847750381130e+08 4.6979575578502190e+08 0.0000000000000000e+00  4.6241020377222925e+08 -5.3004806169755831e+07 0.0000000000000000e+00  -2.6905875825755191e+08 1.8081210155289686e+08 0.0000000000000000e+00  -2.6083873631687900e+08 3.0431976453472763e+08 0.0000000000000000e+00  -8.7774542119602442e+07 4.8286636971221948e+08 0.0000000000000000e+00  -1.0988084073539422e+08 1.5738341378880021e+08 0.0000000000000000e+00  -3.9465790114403111e+08 -2.6012001597968213e+07 0.0000000000000000e+00  -1.3567768492149511e+07 -6.9977801530782104e+07 0.0000000000000000e+00  -2.9312324757972276e+08 3.5024203459523775e+07 0.0000000000000000e+00  -3.5483037431458205e+08 -1.8348204999405175e+08 0.0000000000000000e+00  3.7268628369028181e+07 -3.6384008832706618e+08 0.0000000000000000e+00  3.8729187710738212e+08 -8.8452472213477731e+07 0.0000000000000000e+00  -1.9005496066378474e+07 -1.3516332814990094e+08 0.0000000000000000e+00  9.2806228610833496e+07 1.4323416281641236e+08 0.0000000000000000e+00  -1.8600014143159103e+08 1.8909479456378204e+08 0.0000000000000000e+00  1.7251412254039672e+08 -6.1379435485047288e+07 0.0000000000000000e+00  1.0568626908378062e+08 -2.7322359489342725e+08 0.0000000000000000e+00  -7.6923451204434372e+06 -1.3768727460701180e+08 0.0000000000000000e+00  3.9743708481876530e+07 2.6164860289287087e+08 0.0000000000000000e+00  7.9014697724031523e+07 -2.1801957537528381e+08 0.0000000000000000e+00  6.4503361158038542e+07 -1.6565224494985098e+08 0.0000000000000000e+00  -3.7744986328412987e+07 3.5391630460428931e+07 0.0000000000000000e+00  8.1204195652528435e+07 -6.0664283350343995e+07 0.0000000000000000e+00  1.6593010282997364e+07 7.5117919623979628e+07 0.0000000000000000e+00  -8.8342101022675604e+07 9.9167418400084570e+07 0.0000000000000000e+00  3.4925100518646531e+07 -6.4286203843628325e+07 0.0000000000000000e+00  -1.0652248611694345e+07 6.1567900649594337e+07 0.0000000000000000e+00  4.9019991614609689e+07 -2.1030760402439719e+08 0.0000000000000000e+00  -9.5516690877122328e+07 1.6856605454318121e+08 0.0000000000000000e+00  -7.7008838658862844e+07 2.5685341950331783e+08 0.0000000000000000e+00  -1.6530911537025228e+07 3.7086738268501467e+08 0.0000000000000000e+00  -1.8146322482363874e+08 -6.2234521416224562e+07 0.0000000000000000e+00  3.4947480088239148e+07 -4.0394541654996291e+07 0.0000000000000000e+00  3.1505439086059257e+07 -4.4052357296403416e+07 0.0000000000000000e+00  -6.6855586645410776e+07 -1.1846341771613349e+08 0.0000000000000000e+00  5.7336993060162902e+07 -3.9365600697048461e+08 0.0000000000000000e+00  -2.7105899650146153e+07 -4.4323953473440051e+07 0.0000000000000000e+00  -9.5911671816495970e+07 -5.8448425339533627e+07 0.0000000000000000e+00  1.0140395951010597e+05 2.4314784783231100e+08 0.0000000000000000e+00  1.1652650397022608e+08 5.9366806276425205e+07 0.0000000000000000e+00  9.1461307742934655e+06 1.8638680604497394e+08 0.0000000000000000e+00  6.1543764899570398e+07 1.3712860402147684e+08 0.0000000000000000e+00  5.8088326241260000e+07 1.7226188262197894e+08 0.0000000000000000e+00  1.4696483539930084e+08 1.4543806551204870e+07 0.0000000000000000e+00  2.6538369750528389e+08 3.1459412280871687e+06 0.0000000000000000e+00  3.2269926169842803e+08 -5.3665764307599165e+07 0.0000000000000000e+00  1.6419243023247150e+08 -1.7364875104355448e+08 0.0000000000000000e+00  2.5343247697752798e+08 -2.9199548158569932e+08 0.0000000000000000e+00  -2.6886028999227636e+07 2.8751236880937636e+08 0.0000000000000000e+00  -2.9380394300718164e+08 -2.7018811249576068e+08 0.0000000000000000e+00  -5.6519101634105778e+08 -3.2145113418469773e-08 0.0000000000000000e+00  -8.1207113524386762e+06 0.0000000000000000e+00 0.0000000000000000e+00  -1.2892537592189932e+08 -2.4228733693640089e+08 0.0000000000000000e+00  -1.0368892723464562e+08 -6.4255405547810979e+07 0.0000000000000000e+00  -4.0325075969583087e+07 -4.4192837254485853e+07 0.0000000000000000e+00  -3.4398560731574410e+08 -1.2977991167234780e+07 0.0000000000000000e+00  -1.0838340259867296e+08 2.5120701728401533e+08 0.0000000000000000e+00  1.9416002143020836e+08 2.0008396300655332e+08 0.0000000000000000e+00  2.1752301975151193e+08 6.0314941111961566e+07 0.0000000000000000e+00  9.7269043807353944e+07 -1.8926621503584483e+08 0.0000000000000000e+00  -6.1273820114213396e+06 2.1211400256340104e+08 0.0000000000000000e+00  1.8624627213656354e+08 -2.1623820855893809e+08 0.0000000000000000e+00  1.4785763001141053e+07 1.3481761320547692e+07 0.0000000000000000e+00  -9.1126518837640107e+07 1.1877655255423138e+08 0.0000000000000000e+00  2.3837416694901460e+08 1.8926427748421380e+08 0.0000000000000000e+00  -1.6293734143363915e+07 -7.9291352148101196e+07 0.0000000000000000e+00  2.0218567925503877e+08 9.7454060711346537e+07 0.0000000000000000e+00  -9.7872189550881341e+07 2.2785554567510194e+08 0.0000000000000000e+00  2.9564827553540047e+07 7.9738441120340049e+07 0.0000000000000000e+00  -6.8562190640361495e+06 4.2377252872435443e+07 0.0000000000000000e+00  -2.3211952141409984e+08 1.5150213878432676e+08 0.0000000000000000e+00  -1.7494513745251325e+08 -1.5569705282484299e+08 0.0000000000000000e+00  2.6279424326420981e+07 1.7000787542391978e+07 0.0000000000000000e+00  -1.9356276841444671e+08 4.1056745913352028e+07 0.0000000000000000e+00  -1.5961004873286891e+08 2.8417961473836261e+08 0.0000000000000000e+00  2.3662066389330387e+08 -3.3426794731087309e+08 0.0000000000000000e+00  2.0806784281106126e+07 1.6179334050593647e+08 0.0000000000000000e+00  1.8251590392000023e+08 1.6733606843508446e+08 0.0000000000000000e+00  3.7532264302867252e+08 1.0636840924932534e+08 0.0000000000000000e+00  -4.5446244856271434e+08 1.2290695547045487e+08 0.0000000000000000e+00  -1.6039082440471163e+08 -2.7804032323264110e+08 0.0000000000000000e+00  7.9970874178863153e+07 -1.0316538209415954e+08 0.0000000000000000e+00  4.9035123631252669e+07 -1.0992942038327959e+08 0.0000000000000000e+00  -3.6124991929301910e+07 1.0606685042016047e+08 0.0000000000000000e+00  2.2972667020947624e+07 -7.2527080498103476e+08 0.0000000000000000e+00  9.9480439792098850e+07 1.9210207413050243e+08 0.0000000000000000e+00  -3.5375699707480013e+08 -2.1416645022898677e+08 0.0000000000000000e+00  -2.3169847289319322e+08 4.2914643648463738e+08 0.0000000000000000e+00  -8.3240618603832558e+07 2.3735023759597051e+06 0