<?xml version="1.0"?>
<VTKFile type="UnstructuredGrid"  version="0.1"  >
<UnstructuredGrid>
<Piece  NumberOfPoints="1369" NumberOfCells="2560">
<Points>
<DataArray  type="Float64"  NumberOfComponents="3"  format="ascii">0 0 0  0.75 0 0  1.5 0 0  2.25 0 0  3 0 0  3.75 0 0  4.5 0 0  5.25 0 0  6 0 0  6.75 0 0  7.5 0 0  8.25 0 0  9 0 0  9.75 0 0  10.5 0 0  11.25 0 0  12 0 0  12.75 0 0  13.5 0 0  14.25 0 0  15 0 0  15.75 0 0  16.5 0 0  17.25 0 0  18 0 0  18.75 0 0  19.5 0 0  20.25 0 0  21 0 0  21.75 0 0  22.5 0 0  23.25 0 0  24 0 0  24.75 0 0  25.5 0 0  26.25 0 0  27 0 0  27.75 0 0  28.5 0 0  29.25 0 0  30 0 0  30.75 0 0  31.5 0 0  32.25 0 0  33 0 0  33.75 0 0  34.5 0 0  35.25 0 0  36 0 0  36.75 0 0  37.5 0 0  38.25 0 0  39 0 0  39.75 0 0  40.5 0 0  41.25 0 0  42 0 0  42.75 0 0  43.5 0 0  44.25 0 0  45 0 0  45.75 0 0  46.5 0 0  47.25 0 0  48 0 0  48.75 0 0  49.5 0 0  50.25 0 0  51 0 0  51.75 0 0  52.5 0 0  53.25 0 0  54 0 0  54.75 0 0  55.5 0 0  56.25 0 0  57 0 0  57.75 0 0  58.5 0 0  59.25 0 0  60 0 0  0 0.5 0  0.75 0.5 0  1.5 0.5 0  2.25 0.5 0  3 0.5 0  3.75 0.5 0  4.5 0.5 0  5.25 0.5 0  6 0.5 0  6.75 0.5 0  7.5 0.5 0  8.25 0.5 0  9 0.5 0  9.75 0.5 0  10.5 0.5 0  11.25 0.5 0  12 0.5 0  12.75 0.5 0  13.5 0.5 0  14.25 0.5 0  15 0.5 0  15.75 0.5 0  16.5 0.5 0  17.25 0.5 0  18 0.5 0  18.75 0.5 0  19.5 0.5 0  20.25 0.5 0  21 0.5 0  21.75 0.5 0  22.5 0.5 0  23.25 0.5 0  24 0.5 0  24.75 0.5 0  25.5 0.5 0  26.25 0.5 0  27 0.5 0  27.75 0.5 0  28.5 0.5 0  29.25 0.5 0  30 0.5 0  30.75 0.5 0  31.5 0.5 0  32.25 0.5 0  33 0.5 0  33.75 0.5 0  34.5 0.5 0  35.25 0.5 0  36 0.5 0  36.75 0.5 0  37.5 0.5 0  38.25 0.5 0  39 0.5 0  39.75 0.5 0  40.5 0.5 0  41.25 0.5 0  42 0.5 0  42.75 0.5 0  43.5 0.5 0  44.25 0.5 0  45 0.5 0  45.75 0.5 0  46.5 0.5 0  47.25 0.5 0  48 0.5 0  48.75 0.5 0  49.5 0.5 0  50.25 0.5 0  51 0.5 0  51.75 0.5 0  52.5 0.5 0  53.25 0.5 0  54 0.5 0  54.75 0.5 0  55.5 0.5 0  56.25 0.5 0  57 0.5 0  57.75 0.5 0  58.5 0.5 0  59.25 0.5 0  60 0.5 0  0 1 0  0.75 1 0  1.5 1 0  2.25 1 0  3 1 0  3.75 1 0  4.5 1 0  5.25 1 0  6 1 0  6.75 1 0  7.5 1 0  8.25 1 0  9 1 0  9.75 1 0  10.5 1 0  11.25 1 0  12 1 0  12.75 1 0  13.5 1 0  14.25 1 0  15 1 0  15.75 1 0  16.5 1 0  17.25 1 0  18 1 0  18.75 1 0  19.5 1 0  20.25 1 0  21 1 0  21.75 1 0  22.5 1 0  23.25 1 0  24 1 0  24.75 1 0  25.5 1 0  26.25 1 0  27 1 0  27.75 1 0  28.5 1 0  29.25 1 0  30 1 0  30.75 1 0  31.5 1 0  32.25 1 0  33 1 0  33.75 1 0  34.5 1 0  35.25 1 0  36 1 0  36.75 1 0  37.5 1 0  38.25 1 0  39 1 0  39.75 1 0  40.5 1 0  41.25 1 0  42 1 0  42.75 1 0  43.5 1 0  44.25 1 0  45 1 0  45.75 1 0  46.5 1 0  47.25 1 0  48 1 0  48.75 1 0  49.5 1 0  50.25 1 0  51 1 0  51.75 1 0  52.5 1 0  53.25 1 0  54 1 0  54.75 1 0  55.5 1 0  56.25 1 0  57 1 0  57.75 1 0  58.5 1 0  59.25 1 0  60 1 0  0 1.5 0  0.75 1.5 0  1.5 1.5 0  2.25 1.5 0  3 1.5 0  3.75 1.5 0  4.5 1.5 0  5.25 1.5 0  6 1.5 0  6.75 1.5 0  7.5 1.5 0  8.25 1.5 0  9 1.5 0  9.75 1.5 0  10.5 1.5 0  11.25 1.5 0  12 1.5 0  12.75 1.5 0  13.5 1.5 0  14.25 1.5 0  15 1.5 0  15.75 1.5 0  16.5 1.5 0  17.25 1.5 0  18 1.5 0  18.75 1.5 0  19.5 1.5 0  20.25 1.5 0  21 1.5 0  21.75 1.5 0  22.5 1.5 0  23.25 1.5 0  24 1.5 0  24.75 1.5 0  25.5 1.5 0  26.25 1.5 0  27 1.5 0  27.75 1.5 0  28.5 1.5 0  29.25 1.5 0  30 1.5 0  30.75 1.5 0  31.5 1.5 0  32.25 1.5 0  33 1.5 0  33.75 1.5 0  34.5 1.5 0  35.25 1.5 0  36 1.5 0  36.75 1.5 0  37.5 1.5 0  38.25 1.5 0  39 1.5 0  39.75 1.5 0  40.5 1.5 0  41.25 1.5 0  42 1.5 0  42.75 1.5 0  43.5 1.5 0  44.25 1.5 0  45 1.5 0  45.75 1.5 0  46.5 1.5 0  47.25 1.5 0  48 1.5 0  48.75 1.5 0  49.5 1.5 0  50.25 1.5 0  51 1.5 0  51.75 1.5 0  52.5 1.5 0  53.25 1.5 0  54 1.5 0  54.75 1.5 0  55.5 1.5 0  56.25 1.5 0  57 1.5 0  57.75 1.5 0  58.5 1.5 0  59.25 1.5 0  60 1.5 0  0 2 0  0.75 2 0  1.5 2 0  2.25 2 0  3 2 0  3.75 2 0  4.5 2 0  5.25 2 0  6 2 0  6.75 2 0  7.5 2 0  8.25 2 0  9 2 0  9.75 2 0  10.5 2 0  11.25 2 0  12 2 0  12.75 2 0  13.5 2 0  14.25 2 0  15 2 0  15.75 2 0  16.5 2 0  17.25 2 0  18 2 0  18.75 2 0  19.5 2 0  20.25 2 0  21 2 0  21.75 2 0  22.5 2 0  23.25 2 0  24 2 0  24.75 2 0  25.5 2 0  26.25 2 0  27 2 0  27.75 2 0  28.5 2 0  29.25 2 0  30 2 0  30.75 2 0  31.5 2 0  32.25 2 0  33 2 0  33.75 2 0  34.5 2 0  35.25 2 0  36 2 0  36.75 2 0  37.5 2 0  38.25 2 0  39 2 0  39.75 2 0  40.5 2 0  41.25 2 0  42 2 0  42.75 2 0  43.5 2 0  44.25 2 0  45 2 0  45.75 2 0  46.5 2 0  47.25 2 0  48 2 0  48.75 2 0  49.5 2 0  50.25 2 0  51 2 0  51.75 2 0  52.5 2 0  53.25 2 0  54 2 0  54.75 2 0  55.5 2 0  56.25 2 0  57 2 0  57.75 2 0  58.5 2 0  59.25 2 0  60 2 0  0 2.5 0  0.75 2.5 0  1.5 2.5 0  2.25 2.5 0  3 2.5 0  3.75 2.5 0  4.5 2.5 0  5.25 2.5 0  6 2.5 0  6.75 2.5 0  7.5 2.5 0  8.25 2.5 0  9 2.5 0  9.75 2.5 0  10.5 2.5 0  11.25 2.5 0  12 2.5 0  12.75 2.5 0  13.5 2.5 0  14.25 2.5 0  15 2.5 0  15.75 2.5 0  16.5 2.5 0  17.25 2.5 0  18 2.5 0  18.75 2.5 0  19.5 2.5 0  20.25 2.5 0  21 2.5 0  21.75 2.5 0  22.5 2.5 0  23.25 2.5 0  24 2.5 0  24.75 2.5 0  25.5 2.5 0  26.25 2.5 0  27 2.5 0  27.75 2.5 0  28.5 2.5 0  29.25 2.5 0  30 2.5 0  30.75 2.5 0  31.5 2.5 0  32.25 2.5 0  33 2.5 0  33.75 2.5 0  34.5 2.5 0  35.25 2.5 0  36 2.5 0  36.75 2.5 0  37.5 2.5 0  38.25 2.5 0  39 2.5 0  39.75 2.5 0  40.5 2.5 0  41.25 2.5 0  42 2.5 0  42.75 2.5 0  43.5 2.5 0  44.25 2.5 0  45 2.5 0  45.75 2.5 0  46.5 2.5 0  47.25 2.5 0  48 2.5 0  48.75 2.5 0  49.5 2.5 0  50.25 2.5 0  51 2.5 0  51.75 2.5 0  52.5 2.5 0  53.25 2.5 0  54 2.5 0  54.75 2.5 0  55.5 2.5 0  56.25 2.5 0  57 2.5 0  57.75 2.5 0  58.5 2.5 0  59.25 2.5 0  60 2.5 0  0 3 0  0.75 3 0  1.5 3 0  2.25 3 0  3 3 0  3.75 3 0  4.5 3 0  5.25 3 0  6 3 0  6.75 3 0  7.5 3 0  8.25 3 0  9 3 0  9.75 3 0  10.5 3 0  11.25 3 0  12 3 0  12.75 3 0  13.5 3 0  14.25 3 0  15 3 0  15.75 3 0  16.5 3 0  17.25 3 0  18 3 0  18.75 3 0  19.5 3 0  20.25 3 0  21 3 0  21.75 3 0  22.5 3 0  23.25 3 0  24 3 0  24.75 3 0  25.5 3 0  26.25 3 0  27 3 0  27.75 3 0  28.5 3 0  29.25 3 0  30 3 0  30.75 3 0  31.5 3 0  32.25 3 0  33 3 0  33.75 3 0  34.5 3 0  35.25 3 0  36 3 0  36.75 3 0  37.5 3 0  38.25 3 0  39 3 0  39.75 3 0  40.5 3 0  41.25 3 0  42 3 0  42.75 3 0  43.5 3 0  44.25 3 0  45 3 0  45.75 3 0  46.5 3 0  47.25 3 0  48 3 0  48.75 3 0  49.5 3 0  50.25 3 0  51 3 0  51.75 3 0  52.5 3 0  53.25 3 0  54 3 0  54.75 3 0  55.5 3 0  56.25 3 0  57 3 0  57.75 3 0  58.5 3 0  59.25 3 0  60 3 0  0 3.5 0  0.75 3.5 0  1.5 3.5 0  2.25 3.5 0  3 3.5 0  3.75 3.5 0  4.5 3.5 0  5.25 3.5 0  6 3.5 0  6.75 3.5 0  7.5 3.5 0  8.25 3.5 0  9 3.5 0  9.75 3.5 0  10.5 3.5 0  11.25 3.5 0  12 3.5 0  12.75 3.5 0  13.5 3.5 0  14.25 3.5 0  15 3.5 0  15.75 3.5 0  16.5 3.5 0  17.25 3.5 0  18 3.5 0  18.75 3.5 0  19.5 3.5 0  20.25 3.5 0  21 3.5 0  21.75 3.5 0  22.5 3.5 0  23.25 3.5 0  24 3.5 0  24.75 3.5 0  25.5 3.5 0  26.25 3.5 0  27 3.5 0  27.75 3.5 0  28.5 3.5 0  29.25 3.5 0  30 3.5 0  30.75 3.5 0  31.5 3.5 0  32.25 3.5 0  33 3.5 0  33.75 3.5 0  34.5 3.5 0  35.25 3.5 0  36 3.5 0  36.75 3.5 0  37.5 3.5 0  38.25 3.5 0  39 3.5 0  39.75 3.5 0  40.5 3.5 0  41.25 3.5 0  42 3.5 0  42.75 3.5 0  43.5 3.5 0  44.25 3.5 0  45 3.5 0  45.75 3.5 0  46.5 3.5 0  47.25 3.5 0  48 3.5 0  48.75 3.5 0  49.5 3.5 0  50.25 3.5 0  51 3.5 0  51.75 3.5 0  52.5 3.5 0  53.25 3.5 0  54 3.5 0  54.75 3.5 0  55.5 3.5 0  56.25 3.5 0  57 3.5 0  57.75 3.5 0  58.5 3.5 0  59.25 3.5 0  60 3.5 0  0 4 0  0.75 4 0  1.5 4 0  2.25 4 0  3 4 0  3.75 4 0  4.5 4 0  5.25 4 0  6 4 0  6.75 4 0  7.5 4 0  8.25 4 0  9 4 0  9.75 4 0  10.5 4 0  11.25 4 0  12 4 0  12.75 4 0  13.5 4 0  14.25 4 0  15 4 0  15.75 4 0  16.5 4 0  17.25 4 0  18 4 0  18.75 4 0  19.5 4 0  20.25 4 0  21 4 0  21.75 4 0  22.5 4 0  23.25 4 0  24 4 0  24.75 4 0  25.5 4 0  26.25 4 0  27 4 0  27.75 4 0  28.5 4 0  29.25 4 0  30 4 0  30.75 4 0  31.5 4 0  32.25 4 0  33 4 0  33.75 4 0  34.5 4 0  35.25 4 0  36 4 0  36.75 4 0  37.5 4 0  38.25 4 0  39 4 0  39.75 4 0  40.5 4 0  41.25 4 0  42 4 0  42.75 4 0  43.5 4 0  44.25 4 0  45 4 0  45.75 4 0  46.5 4 0  47.25 4 0  48 4 0  48.75 4 0  49.5 4 0  50.25 4 0  51 4 0  51.75 4 0  52.5 4 0  53.25 4 0  54 4 0  54.75 4 0  55.5 4 0  56.25 4 0  57 4 0  57.75 4 0  58.5 4 0  59.25 4 0  60 4 0  0.375 0.25 0  1.125 0.25 0  1.875 0.25 0  2.625 0.25 0  3.375 0.25 0  4.125 0.25 0  4.875 0.25 0  5.625 0.25 0  6.375 0.25 0  7.125 0.25 0  7.875 0.25 0  8.625 0.25 0  9.375 0.25 0  10.125 0.25 0  10.875 0.25 0  11.625 0.25 0  12.375 0.25 0  13.125 0.25 0  13.875 0.25 0  14.625 0.25 0  15.375 0.25 0  16.125 0.25 0  16.875 0.25 0  17.625 0.25 0  18.375 0.25 0  19.125 0.25 0  19.875 0.25 0  20.625 0.25 0  21.375 0.25 0  22.125 0.25 0  22.875 0.25 0  23.625 0.25 0  24.375 0.25 0  25.125 0.25 0  25.875 0.25 0  26.625 0.25 0  27.375 0.25 0  28.125 0.25 0  28.875 0.25 0  29.625 0.25 0  30.375 0.25 0  31.125 0.25 0  31.875 0.25 0  32.625 0.25 0  33.375 0.25 0  34.125 0.25 0  34.875 0.25 0  35.625 0.25 0  36.375 0.25 0  37.125 0.25 0  37.875 0.25 0  38.625 0.25 0  39.375 0.25 0  40.125 0.25 0  40.875 0.25 0  41.625 0.25 0  42.375 0.25 0  43.125 0.25 0  43.875 0.25 0  44.625 0.25 0  45.375 0.25 0  46.125 0.25 0  46.875 0.25 0  47.625 0.25 0  48.375 0.25 0  49.125 0.25 0  49.875 0.25 0  50.625 0.25 0  51.375 0.25 0  52.125 0.25 0  52.875 0.25 0  53.625 0.25 0  54.375 0.25 0  55.125 0.25 0  55.875 0.25 0  56.625 0.25 0  57.375 0.25 0  58.125 0.25 0  58.875 0.25 0  59.625 0.25 0  0.375 0.75 0  1.125 0.75 0  1.875 0.75 0  2.625 0.75 0  3.375 0.75 0  4.125 0.75 0  4.875 0.75 0  5.625 0.75 0  6.375 0.75 0  7.125 0.75 0  7.875 0.75 0  8.625 0.75 0  9.375 0.75 0  10.125 0.75 0  10.875 0.75 0  11.625 0.75 0  12.375 0.75 0  13.125 0.75 0  13.875 0.75 0  14.625 0.75 0  15.375 0.75 0  16.125 0.75 0  16.875 0.75 0  17.625 0.75 0  18.375 0.75 0  19.125 0.75 0  19.875 0.75 0  20.625 0.75 0  21.375 0.75 0  22.125 0.75 0  22.875 0.75 0  23.625 0.75 0  24.375 0.75 0  25.125 0.75 0  25.875 0.75 0  26.625 0.75 0  27.375 0.75 0  28.125 0.75 0  28.875 0.75 0  29.625 0.75 0  30.375 0.75 0  31.125 0.75 0  31.875 0.75 0  32.625 0.75 0  33.375 0.75 0  34.125 0.75 0  34.875 0.75 0  35.625 0.75 0  36.375 0.75 0  37.125 0.75 0  37.875 0.75 0  38.625 0.75 0  39.375 0.75 0  40.125 0.75 0  40
[...]
<PointData  Vectors="f_8-0"> 
<DataArray  type="Float64"  Name="f_8-0"  NumberOfComponents="3" format="ascii">4.2190846215740054e-08 4.9793744593074001e-08 0.0000000000000000e+00  0.0000000000000000e+00 0.0000000000000000e+00 0.0000000000000000e+00  0.0000000000000000e+00 1.6842989985927670e-08 0.0000000000000000e+00  0.0000000000000000e+00 0.0000000000000000e+00 0.0000000000000000e+00  -9.3879459333114862e-06 -2.9906944368308181e-07 0.0000000000000000e+00  8.9126570804456892e-07 2.5622086793040264e-06 0.0000000000000000e+00  -1.4873131232415632e-05 3.2012363210605255e-06 0.0000000000000000e+00  3.4436391910341680e-06 9.2833896581078223e-08 0.0000000000000000e+00  9.4778269936422234e-07 2.8648968567864632e-06 0.0000000000000000e+00  1.4683175379866411e-06 2.1267262132472388e-06 0.0000000000000000e+00  0.0000000000000000e+00 0.0000000000000000e+00 0.0000000000000000e+00  -1.1345999957316310e-07 -2.2438451360470942e-05 0.0000000000000000e+00  0.0000000000000000e+00 0.0000000000000000e+00 0.0000000000000000e+00  -9.8670778173516807e-06 1.6704794517674847e-07 0.0000000000000000e+00  -1.5815545557709001e-05 1.6893113593916854e-05 0.0000000000000000e+00  0.0000000000000000e+00 0.0000000000000000e+00 0.0000000000000000e+00  0.0000000000000000e+00 4.7677459625993569e-06 0.0000000000000000e+00  0.0000000000000000e+00 3.8962706862613399e-07 0.0000000000000000e+00  -5.4390820320686670e-08 1.7955750782051768e-06 0.0000000000000000e+00  -1.1885340959292937e-06 3.3504556657419748e-07 0.0000000000000000e+00  -6.5068994824954621e-07 4.0667369073023416e-08 0.0000000000000000e+00  -1.3576960541013890e-06 8.2044685612803363e-07 0.0000000000000000e+00  2.9998410241346666e-06 -4.1619436590117495e-05 0.0000000000000000e+00  3.3387739627808690e-07 1.3880189609216554e-07 0.0000000000000000e+00  0.0000000000000000e+00 -1.3467262473885768e-06 0.0000000000000000e+00  2.2619402749075952e-07 -1.1393379200828184e-06 0.0000000000000000e+00  0.0000000000000000e+00 0.0000000000000000e+00 0.0000000000000000e+00  0.0000000000000000e+00 0.0000000000000000e+00 0.0000000000000000e+00  9.5313752481554474e-06 3.1671956302698113e-06 0.0000000000000000e+00  0.0000000000000000e+00 4.0982526003908482e-07 0.0000000000000000e+00  0.0000000000000000e+00 0.0000000000000000e+00 0.0000000000000000e+00  2.2391937857634082e-05 -2.0852872138337971e-05 0.0000000000000000e+00  2.5148920047936940e-07 -1.2592676960119529e-07 0.0000000000000000e+00  0.0000000000000000e+00 -3.2964798037703053e-07 0.0000000000000000e+00  0.0000000000000000e+00 2.5229014331510714e-07 0.0000000000000000e+00  -1.5215569180658413e-06 -5.3133405131695397e-07 0.0000000000000000e+00  0.0000000000000000e+00 0.0000000000000000e+00 0.0000000000000000e+00  0.0000000000000000e+00 0.0000000000000000e+00 0.0000000000000000e+00  -1.9177987711836873e-05 1.3603175498817859e-05 0.0000000000000000e+00  1.9593945908494966e-07 -1.1728102586186931e-07 0.0000000000000000e+00  0.0000000000000000e+00 6.0066110785458462e-08 0.0000000000000000e+00  -1.8650588315259947e-06 5.5592844563899986e-07 0.0000000000000000e+00  0.0000000000000000e+00 0.0000000000000000e+00 0.0000000000000000e+00  0.0000000000000000e+00 0.0000000000000000e+00 0.0000000000000000e+00  -3.5722699883656477e-06 -4.2484054532997176e-06 0.0000000000000000e+00  -1.2696917821272690e-06 2.9287704716617982e-06 0.0000000000000000e+00  0.0000000000000000e+00 0.0000000000000000e+00 0.0000000000000000e+00  0.0000000000000000e+00 -6.0982894744482811e-08 0.0000000000000000e+00  0.0000000000000000e+00 0.0000000000000000e+00 0.0000000000000000e+00  0.0000000000000000e+00 0.0000000000000000e+00 0.0000000000000000e+00  0.0000000000000000e+00 0.0000000000000000e+00 0.0000000000000000e+00  2.2842504053177249e-06 -9.1633771691879235e-07 0.0000000000000000e+00  0.0000000000000000e+00 -4.3011651812278207e-06 0.0000000000000000e+00  -1.0274944297995728e-05 7.7892013542546871e-06 0.0000000000000000e+00  0.0000000000000000e+00 -2.0416622434646231e-07 0.0000000000000000e+00  1.8595410248282641e-06 1.6586580945357491e-05 0.0000000000000000e+00  -2.0514676652408370e-06 4.1763128087909535e-06 0.0000000000000000e+00  0.0000000000000000e+00 0.0000000000000000e+00 0.0000000000000000e+00  2.0288590826626585e-05 3.3276699407046118e-05 0.0000000000000000e+00  0.0000000000000000e+00 2.1593497706289254e-07 0.0000000000000000e+00  0.0000000000000000e+00 0.0000000000000000e+00 0.0000000000000000e+00  -3.8212248207125637e-07 1.1665262628860316e-07 0.0000000000000000e+00  0.0000000000000000e+00 1.3726948220387118e-07 0.0000000000000000e+00  0.0000000000000000e+00 0.0000000000000000e+00 0.0000000000000000e+00  0.0000000000000000e+00 -4.1457405427095967e-08 0.0000000000000000e+00  4.9872088917189470e-07 -2.6853674266639436e-07 0.0000000000000000e+00  3.2481795144843217e-06 2.2462223847225802e-06 0.0000000000000000e+00  0.0000000000000000e+00 0.0000000000000000e+00 0.0000000000000000e+00  -1.7867929677653533e-06 2.3497850210707867e-06 0.0000000000000000e+00  0.0000000000000000e+00 0.0000000000000000e+00 0.0000000000000000e+00  0.0000000000000000e+00 0.0000000000000000e+00 0.0000000000000000e+00  0.0000000000000000e+00 -2.1800830325051787e-07 0.0000000000000000e+00  0.0000000000000000e+00 0.0000000000000000e+00 0.0000000000000000e+00  6.4906556959546615e-06 5.4304811670263994e-06 0.0000000000000000e+00  0.0000000000000000e+00 0.0000000000000000e+00 0.0000000000000000e+00  0.0000000000000000e+00 0.0000000000000000e+00 0.0000000000000000e+00  0.0000000000000000e+00 -2.9480520935696702e-07 0.0000000000000000e+00  0.0000000000000000e+00 0.0000000000000000e+00 0.0000000000000000e+00  0.0000000000000000e+00 0.0000000000000000e+00 0.0000000000000000e+00  -8.7857915409416195e-08 0.0000000000000000e+00 0.0000000000000000e+00  -1.6820638631314656e-07 -5.0217575264785448e-07 0.0000000000000000e+00  1.1978608849537326e+08 -1.3596272910586414e-07 0.0000000000000000e+00  1.8120003870992708e+08 -2.6168628791439331e+08 0.0000000000000000e+00  1.7815056613938157e+07 2.0119760387662736e+08 0.0000000000000000e+00  -1.1101386286282314e+06 1.1591395119506925e+07 0.0000000000000000e+00  -6.2856316242172927e+07 -1.5682806715640206e+07 0.0000000000000000e+00  -5.2858409175611243e+07 9.1168328432627097e+07 0.0000000000000000e+00  -5.4133568615767449e+07 -3.0692126798251021e+08 0.0000000000000000e+00  1.2638574549920782e+08 -2.3321649723524320e+08 0.0000000000000000e+00  1.5414456901702273e+08 6.2148116040471345e+07 0.0000000000000000e+00  5.5507313163999088e+07 1.8907469278062281e+08 0.0000000000000000e+00  5.0445355812573537e+07 -2.5488201506930366e+08 0.0000000000000000e+00  -3.7855985362057559e+07 3.2943679661553061e+08 0.0000000000000000e+00  -7.9823906015059024e+07 -3.3681058284904194e+08 0.0000000000000000e+00  -3.0455737310183465e+07 2.5276413425476924e+07 0.0000000000000000e+00  -1.1975845928796007e+08 -1.7936782003775558e+08 0.0000000000000000e+00  1.5732914879194534e+08 -8.5290511687224418e+07 0.0000000000000000e+00  -9.9813214652353048e+07 1.6696520533071759e+08 0.0000000000000000e+00  8.6333742673330810e+06 -5.2377372830902740e+07 0.0000000000000000e+00  -7.0433253295424506e+07 -4.6258760233436652e+07 0.0000000000000000e+00  -1.2743185338041164e+08 -6.3655671408293657e+07 0.0000000000000000e+00  1.8233023552078107e+08 2.9297852354187816e+08 0.0000000000000000e+00  2.2074248229155916e+08 -3.2394353856033361e+08 0.0000000000000000e+00  2.3542686257713613e+08 -1.7431253925109510e+06 0.0000000000000000e+00  -2.6953994011634636e+08 -9.7923641894950241e+07 0.0000000000000000e+00  -8.5368414597854048e+07 -7.5091320826690868e+07 0.0000000000000000e+00  1.2745639376453139e+08 -3.7569844380334154e+07 0.0000000000000000e+00  -3.8690567719764091e+07 3.5676346691225415e+08 0.0000000000000000e+00  -3.9433093931596793e+07 1.4611891113456029e+08 0.0000000000000000e+00  -1.3698770899421886e+08 -2.8498115992864642e+07 0.0000000000000000e+00  5.8908444340966940e+07 -4.7981141211190231e+07 0.0000000000000000e+00  -2.7955413183410455e+07 -5.7721790308864892e+07 0.0000000000000000e+00  1.7848874808219379e+08 -8.6662124886714622e+07 0.0000000000000000e+00  -1.7925366003067678e+08 1.1895692584649335e+08 0.0000000000000000e+00  -1.7959359029678035e+08 6.3858654579787683e+08 0.0000000000000000e+00  2.8398406898058516e+08 -2.7146248931930333e+08 0.0000000000000000e+00  2.1076799481080487e+08 -1.2464429557728820e+08 0.0000000000000000e+00  5.6936568422987163e+08 3.6926377124026525e+08 0.0000000000000000e+00  -1.5737284979544067e+08 -3.8082159526812571e+08 0.0000000000000000e+00  -4.4916702994142944e+08 -1.0844022123800151e+08 0.0000000000000000e+00  1.4204855203530422e+08 -3.1909299674417835e+07 0.0000000000000000e+00  -2.1085325752739459e+08 -6.2342222437851179e+08 0.0000000000000000e+00  -3.9859142525740504e+08 1.4232132803499946e+08 0.0000000000000000e+00  -5.4711726450154088e+07 2.4340193870677914e+07 0.0000000000000000e+00  -1.4024916028649473e+08 1.2611700574654382e+08 0.0000000000000000e+00  -1.2675084821754070e+08 -1.8785933716520697e+08 0.0000000000000000e+00  1.5466026675029752e+08 8.9404656440767840e+07 0.0000000000000000e+00  -3.7304718176463805e+07 -1.8431932404307872e+08 0.0000000000000000e+00  -3.1119073370670464e+07 -7.4354060795438915e+07 0.0000000000000000e+00  2.0822105412923896e+08 -5.3838398076066248e+07 0.0000000000000000e+00  -1.2889456174080431e+07 1.0995937025292958e+08 0.0000000000000000e+00  1.5192883001880336e+08 -2.8505316111783689e+08 0.0000000000000000e+00  8.2758449538598061e+07 6.5925924597003371e+07 0.0000000000000000e+00  -4.5691966897286013e+07 3.5358138267475951e+08 0.0000000000000000e+00  3.3123284105829585e+07 -8.5379810210988358e+07 0.0000000000000000e+00  3.5333532726306416e+07 -3.2428630004501447e+07 0.0000000000000000e+00  1.2045426231648689e+07 6.2471620470005445e+07 0.0000000000000000e+00  -1.2267692338439102e+08 -1.3547609826953915e+08 0.0000000000000000e+00  -5.6929625167369223e+08 2.5674969211222407e+08 0.0000000000000000e+00  -2.5725094713123929e+07 -2.7998064456297141e+07 0.0000000000000000e+00  -2.3002780241046163e+08 2.3631581130476898e+08 0.0000000000000000e+00  -6.1147823767392397e+08 3.1187456417831816e+07 0.0000000000000000e+00  -8.9958878949668154e+07 -1.7183711938670406e+08 0.0000000000000000e+00  -2.4012085663600302e+08 -3.0548377740347201e+08 0.0000000000000000e+00  4.5800013724843569e+07 1.0267430443905756e+08 0.0000000000000000e+00  3.6022266485830873e+07 -5.1984116479625933e+07 0.0000000000000000e+00  9.0682031481293514e+07 2.2244111169962257e+08 0.0000000000000000e+00  1.1037850064808666e+06 -1.0948503784747098e+08 0.0000000000000000e+00  -4.1008522553746342e+06 -2.0429750487046531e+08 0.0000000000000000e+00  2.0288138126617663e+07 -8.7690914119615644e+07 0.0000000000000000e+00  1.8843907087865826e+08 -3.1325709791879606e+07 0.0000000000000000e+00  3.9872241836131394e+08 1.7739802511031258e+08 0.0000000000000000e+00  -1.4182232408898932e+08 -1.8508814227949855e+08 0.0000000000000000e+00  -2.6050611580331370e+08 -3.8278294411603302e+07 0.0000000000000000e+00  5.6919032258026838e+07 -4.9672901650229275e+08 0.0000000000000000e+00  3.4996474386121869e+07 3.5050948782720971e+08 0.0000000000000000e+00  -2.8110336219028115e+08 -6.0895566812235069e+08 0.0000000000000000e+00  -2.5549156473280013e+08 1.3288789163833877e+08 0.0000000000000000e+00  -1.5479957794054496e+08 -1.1021435675034502e+08 0.0000000000000000e+00  -4.8752199561842716e+08 -4.1408395591249205e+07 0.0000000000000000e+00  -4.2476853659413975e+08 2.0191822645007327e+08 0.0000000000000000e+00  -1.9684377053148142e+08 0.0000000000000000e+00 0.0000000000000000e+00  -2.0879581474298233e+08 1.4304311313617597e-08 0.0000000000000000e+00  -1.0985959075407241e+08 -1.1812563300856549e+08 0.0000000000000000e+00  -1.6125698616708559e+08 -1.3994160388362816e+08 0.0000000000000000e+00  -1.9398388497960091e+08 -2.1190911997472572e+08 0.0000000000000000e+00  1.4353916828652415e+08 -1.5289745913944732e+07 0.0000000000000000e+00  8.0620661161055684e+07 -2.5230877826178879e+07 0.0000000000000000e+00  1.3062552758042036e+08 2.7866418404056713e+07 0.0000000000000000e+00  2.1871535803374854e+08 1.9739894081290007e+08 0.0000000000000000e+00  1.2578830800099844e+08 -2.2732027458900651e+06 0.0000000000000000e+00  1.5308378390747654e+08 1.5805909745201483e+08 0.0000000000000000e+00  -2.9806266714828759e+07 -1.1173851730745143e+08 0.0000000000000000e+00  5.5506627059190132e+07 5.5678362390734799e+07 0.0000000000000000e+00  2.6626269793849450e+07 2.3620851761246443e+08 0.0000000000000000e+00  5.5859674438627824e+07 4.0950307384675190e+07 0.0000000000000000e+00  1.6346001878505108e+08 3.0764343559423197e+07 0.0000000000000000e+00  5.1543404372293867e+07 1.5990801667617118e+08 0.0000000000000000e+00  9.3887323319012925e+07 1.5787285982987958e+08 0.0000000000000000e+00  -2.6297105092322785e+08 -2.6193217439257447e+07 0.0000000000000000e+00  -1.6885076063761747e+08 3.2931465443426836e+08 0.0000000000000000e+00  5.4586609933417998e+07 4.5590351819417864e+07 0.0000000000000000e+00  2.6568087335440615e+08 5.6566996441575633e+06 0.0000000000000000e+00  -6.1248857740514800e+07 1.8591958434944201e+08 0.0000000000000000e+00  1.7598025079381698e+08 1.1835844498423970e+08 0.0000000000000000e+00  3.8774786445986372e+08 2.6385850701391011e+08 0.0000000000000000e+00  -2.0524608542153880e+07 2.0607049805442044e+08 0.0000000000000000e+00  1.2568809137784217e+08 -6.1229159228697665e+07 0.0000000000000000e+00  -1.3147100162183066e+08 -1.0339081380971542e+08 0.0000000000000000e+00  -3.6530013379977095e+08 1.8286782360762498e+08 0.0000000000000000e+00  4.6622736424186033e+08 4.6239346529945755e+08 0.0000000000000000e+00  3.3601294504975176e+08 -6.3574529179937267e+08 0.0000000000000000e+00  4.5392717849786013e+08 4.6787252562667394e+08 0.0000000000000000e+00  4.6143013012042385e+08 -4.9777182847768217e+07 0.0000000000000000e+00  -2.6792773729788375e+08 1.7769617300240108e+08 0.0000000000000000e+00  -2.6052165829753745e+08 3.0298649234953719e+08 0.0000000000000000e+00  -8.6510904831926554e+07 4.8262380180356920e+08 0.0000000000000000e+00  -1.0990146823885106e+08 1.5776470361489391e+08 0.0000000000000000e+00  -3.9361082179328042e+08 -2.8453721586470954e+07 0.0000000000000000e+00  -1.3767535981149744e+07 -6.9301975582016423e+07 0.0000000000000000e+00  -2.9482374550309724e+08 3.5000851846506573e+07 0.0000000000000000e+00  -3.5511821639878219e+08 -1.8459207274990574e+08 0.0000000000000000e+00  3.7027664484311081e+07 -3.6446772778815448e+08 0.0000000000000000e+00  3.8690639708141136e+08 -8.8372903906424850e+07 0.0000000000000000e+00  -1.8366818965795409e+07 -1.3578162195440444e+08 0.0000000000000000e+00  9.3892486370403528e+07 1.4396891052981207e+08 0.0000000000000000e+00  -1.8562948812821954e+08 1.9052626074817127e+08 0.0000000000000000e+00  1.7116838791281256e+08 -5.9642300339763395e+07 0.0000000000000000e+00  1.0570042490868984e+08 -2.7114454800142539e+08 0.0000000000000000e+00  -6.9540729442170225e+06 -1.3687148798880917e+08 0.0000000000000000e+00  3.9435431175003231e+07 2.6104385059317541e+08 0.0000000000000000e+00  7.8093114821198463e+07 -2.1840928642518821e+08 0.0000000000000000e+00  6.3785653507267565e+07 -1.6535440461238202e+08 0.0000000000000000e+00  -3.7812755487860903e+07 3.4753753898140870e+07 0.0000000000000000e+00  8.0123174333753005e+07 -6.0942264480711617e+07 0.0000000000000000e+00  1.6555768171337144e+07 7.5306194563053682e+07 0.0000000000000000e+00  -8.8074788984469458e+07 9.8693810508374572e+07 0.0000000000000000e+00  3.4155995758008607e+07 -6.4521650909370355e+07 0.0000000000000000e+00  -1.0202119339294570e+07 6.2144288447077788e+07 0.0000000000000000e+00  4.8868166900630742e+07 -2.0950010930039361e+08 0.0000000000000000e+00  -9.5518106174029499e+07 1.6926310831605247e+08 0.0000000000000000e+00  -7.6387400025936395e+07 2.5671362034714288e+08 0.0000000000000000e+00  -1.6413112307574812e+07 3.7048722698105639e+08 0.0000000000000000e+00  -1.8073194490191740e+08 -6.0994479019663371e+07 0.0000000000000000e+00  3.5509674623022869e+07 -3.9330167909576528e+07 0.0000000000000000e+00  3.1607377868216377e+07 -4.3625700005190052e+07 0.0000000000000000e+00  -6.6061900073334403e+07 -1.1862790888800116e+08 0.0000000000000000e+00  5.7941177709430076e+07 -3.9489175670056969e+08 0.0000000000000000e+00  -2.7770962111940008e+07 -4.6180687143092036e+07 0.0000000000000000e+00  -9.5721278032981172e+07 -5.9170758967476197e+07 0.0000000000000000e+00  3.3983211730786442e+05 2.4180373713192171e+08 0.0000000000000000e+00  1.1625568754680523e+08 5.8929581053305589e+07 0.0000000000000000e+00  9.0182087483542822e+06 1.8638858810277557e+08 0.0000000000000000e+00  6.1039321185582072e+07 1.3793572572283205e+08 0.0000000000000000e+00  5.7957116521231115e+07 1.7288726327258211e+08 0.0000000000000000e+00  1.4713277129387400e+08 1.4412931608545285e+07 0.0000000000000000e+00  2.6564995777232197e+08 3.2440964312173566e+06 0.0000000000000000e+00  3.2293647417860717e+08 -5.2901200115023576e+07 0.0000000000000000e+00  1.6481613550764468e+08 -1.7391993554889143e+08 0.0000000000000000e+00  2.5317827650730565e+08 -2.9233703530925971e+08 0.0000000000000000e+00  -2.6621893122523740e+07 2.8726775201206493e+08 0.0000000000000000e+00  -2.9479379887914276e+08 -2.7150210342890787e+08 0.0000000000000000e+00  -5.6597620496721387e+08 -1.0704123574125836e-07 0.0000000000000000e+00  6.2905299054036476e+06 6.4060967056732486e-06 0.0000000000000000e+00  -1.2941580932222995e+08 -2.4499210346995020e+08 0.0000000000000000e+00  -1.0462070220170173e+08 -7.2077654483653635e+07 0.0000000000000000e+00  -3.3918319914912634e+07 -4.8493736423042752e+07 0.0000000000000000e+00  -3.4234386901874721e+08 -1.6567638942710413e+07 0.0000000000000000e+00  -1.1130924556079543e+08 2.5902307476935130e+08 0.0000000000000000e+00  1.9325449602551222e+08 2.0785811405686903e+08 0.0000000000000000e+00  2.2052026614298153e+08 6.2300685521350682e+07 0.0000000000000000e+00  1.0014244021519312e+08 -1.9411901464656910e+08 0.0000000000000000e+00  -4.8478761930313706e+06 2.0996908920296589e+08 0.0000000000000000e+00  1.8390786600046071e+08 -2.1185336097121435e+08 0.0000000000000000e+00  1.4006366829100804e+07 1.5014955920717876e+07 0.0000000000000000e+00  -9.0601827987324849e+07 1.2084767303553382e+08 0.0000000000000000e+00  2.3763038630901572e+08 1.9011976457484749e+08 0.0000000000000000e+00  -1.3206752075085444e+07 -8.1807241299237490e+07 0.0000000000000000e+00  2.0311872777433071e+08 9.7751827938620314e+07 0.0000000000000000e+00  -9.7513864293207228e+07 2.2926588558902597e+08 0.0000000000000000e+00  3.0246812888853703e+07 8.5134788759510770e+07 0.0000000000000000e+00  -3.5967697044855715e+06 4.5300441098722577e+07 0.0000000000000000e+00  -2.2706912323673716e+08 1.5251592324237871e+08 0.0000000000000000e+00  -1.7339755664699733e+08 -1.5341024763471660e+08 0.0000000000000000e+00  2.6807675215772383e+07 1.6644337446253721e+07 0.0000000000000000e+00  -1.9946791001854473e+08 4.4674979811353475e+07 0.0000000000000000e+00  -1.5909335085653371e+08 2.8447596864629459e+08 0.0000000000000000e+00  2.3821680983189544e+08 -3.3545145564024711e+08 0.0000000000000000e+00  2.0069589252738241e+07 1.6073948970369211e+08 0.0000000000000000e+00  1.8195534299928084e+08 1.6611176795701253e+08 0.0000000000000000e+00  3.7539762517201984e+08 1.0644187626643050e+08 0.0000000000000000e+00  -4.5287304438068318e+08 1.2274065049577042e+08 0.0000000000000000e+00  -1.6032159266689053e+08 -2.7919584783322227e+08 0.0000000000000000e+00  8.1202384841989428e+07 -1.0277486906580833e+08 0.0000000000000000e+00  4.8107718582665056e+07 -1.0891922304499155e+08 0.0000000000000000e+00  -3.5591724720193073e+07 1.0814706264013444e+08 0.0000000000000000e+00  2.2741474841995917e+07 -7.2552744316242862e+08 0.0000000000000000e+00  9.9524992988210693e+07 1.9127455574240914e+08 0.0000000000000000e+00  -3.5444641056273448e+08 -2.1483393691673639e+08 0.0000000000000000e+00  -2.3117102930597186e+08 4.2771783243580890e+08 0.0000000000000000e+00  -8.1923869127240077e+07 2.7498388422221881e+06 0.