<?xml version="1.0"?>
<VTKFile type="UnstructuredGrid"  version="0.1"  >
<UnstructuredGrid>
<Piece  NumberOfPoints="1369" NumberOfCells="2560">
<Points>
<DataArray  type="Float64"  NumberOfComponents="3"  format="ascii">0 0 0  0.75 0 0  1.5 0 0  2.25 0 0  3 0 0  3.75 0 0  4.5 0 0  5.25 0 0  6 0 0  6.75 0 0  7.5 0 0  8.25 0 0  9 0 0  9.75 0 0  10.5 0 0  11.25 0 0  12 0 0  12.75 0 0  13.5 0 0  14.25 0 0  15 0 0  15.75 0 0  16.5 0 0  17.25 0 0  18 0 0  18.75 0 0  19.5 0 0  20.25 0 0  21 0 0  21.75 0 0  22.5 0 0  23.25 0 0  24 0 0  24.75 0 0  25.5 0 0  26.25 0 0  27 0 0  27.75 0 0  28.5 0 0  29.25 0 0  30 0 0  30.75 0 0  31.5 0 0  32.25 0 0  33 0 0  33.75 0 0  34.5 0 0  35.25 0 0  36 0 0  36.75 0 0  37.5 0 0  38.25 0 0  39 0 0  39.75 0 0  40.5 0 0  41.25 0 0  42 0 0  42.75 0 0  43.5 0 0  44.25 0 0  45 0 0  45.75 0 0  46.5 0 0  47.25 0 0  48 0 0  48.75 0 0  49.5 0 0  50.25 0 0  51 0 0  51.75 0 0  52.5 0 0  53.25 0 0  54 0 0  54.75 0 0  55.5 0 0  56.25 0 0  57 0 0  57.75 0 0  58.5 0 0  59.25 0 0  60 0 0  0 0.5 0  0.75 0.5 0  1.5 0.5 0  2.25 0.5 0  3 0.5 0  3.75 0.5 0  4.5 0.5 0  5.25 0.5 0  6 0.5 0  6.75 0.5 0  7.5 0.5 0  8.25 0.5 0  9 0.5 0  9.75 0.5 0  10.5 0.5 0  11.25 0.5 0  12 0.5 0  12.75 0.5 0  13.5 0.5 0  14.25 0.5 0  15 0.5 0  15.75 0.5 0  16.5 0.5 0  17.25 0.5 0  18 0.5 0  18.75 0.5 0  19.5 0.5 0  20.25 0.5 0  21 0.5 0  21.75 0.5 0  22.5 0.5 0  23.25 0.5 0  24 0.5 0  24.75 0.5 0  25.5 0.5 0  26.25 0.5 0  27 0.5 0  27.75 0.5 0  28.5 0.5 0  29.25 0.5 0  30 0.5 0  30.75 0.5 0  31.5 0.5 0  32.25 0.5 0  33 0.5 0  33.75 0.5 0  34.5 0.5 0  35.25 0.5 0  36 0.5 0  36.75 0.5 0  37.5 0.5 0  38.25 0.5 0  39 0.5 0  39.75 0.5 0  40.5 0.5 0  41.25 0.5 0  42 0.5 0  42.75 0.5 0  43.5 0.5 0  44.25 0.5 0  45 0.5 0  45.75 0.5 0  46.5 0.5 0  47.25 0.5 0  48 0.5 0  48.75 0.5 0  49.5 0.5 0  50.25 0.5 0  51 0.5 0  51.75 0.5 0  52.5 0.5 0  53.25 0.5 0  54 0.5 0  54.75 0.5 0  55.5 0.5 0  56.25 0.5 0  57 0.5 0  57.75 0.5 0  58.5 0.5 0  59.25 0.5 0  60 0.5 0  0 1 0  0.75 1 0  1.5 1 0  2.25 1 0  3 1 0  3.75 1 0  4.5 1 0  5.25 1 0  6 1 0  6.75 1 0  7.5 1 0  8.25 1 0  9 1 0  9.75 1 0  10.5 1 0  11.25 1 0  12 1 0  12.75 1 0  13.5 1 0  14.25 1 0  15 1 0  15.75 1 0  16.5 1 0  17.25 1 0  18 1 0  18.75 1 0  19.5 1 0  20.25 1 0  21 1 0  21.75 1 0  22.5 1 0  23.25 1 0  24 1 0  24.75 1 0  25.5 1 0  26.25 1 0  27 1 0  27.75 1 0  28.5 1 0  29.25 1 0  30 1 0  30.75 1 0  31.5 1 0  32.25 1 0  33 1 0  33.75 1 0  34.5 1 0  35.25 1 0  36 1 0  36.75 1 0  37.5 1 0  38.25 1 0  39 1 0  39.75 1 0  40.5 1 0  41.25 1 0  42 1 0  42.75 1 0  43.5 1 0  44.25 1 0  45 1 0  45.75 1 0  46.5 1 0  47.25 1 0  48 1 0  48.75 1 0  49.5 1 0  50.25 1 0  51 1 0  51.75 1 0  52.5 1 0  53.25 1 0  54 1 0  54.75 1 0  55.5 1 0  56.25 1 0  57 1 0  57.75 1 0  58.5 1 0  59.25 1 0  60 1 0  0 1.5 0  0.75 1.5 0  1.5 1.5 0  2.25 1.5 0  3 1.5 0  3.75 1.5 0  4.5 1.5 0  5.25 1.5 0  6 1.5 0  6.75 1.5 0  7.5 1.5 0  8.25 1.5 0  9 1.5 0  9.75 1.5 0  10.5 1.5 0  11.25 1.5 0  12 1.5 0  12.75 1.5 0  13.5 1.5 0  14.25 1.5 0  15 1.5 0  15.75 1.5 0  16.5 1.5 0  17.25 1.5 0  18 1.5 0  18.75 1.5 0  19.5 1.5 0  20.25 1.5 0  21 1.5 0  21.75 1.5 0  22.5 1.5 0  23.25 1.5 0  24 1.5 0  24.75 1.5 0  25.5 1.5 0  26.25 1.5 0  27 1.5 0  27.75 1.5 0  28.5 1.5 0  29.25 1.5 0  30 1.5 0  30.75 1.5 0  31.5 1.5 0  32.25 1.5 0  33 1.5 0  33.75 1.5 0  34.5 1.5 0  35.25 1.5 0  36 1.5 0  36.75 1.5 0  37.5 1.5 0  38.25 1.5 0  39 1.5 0  39.75 1.5 0  40.5 1.5 0  41.25 1.5 0  42 1.5 0  42.75 1.5 0  43.5 1.5 0  44.25 1.5 0  45 1.5 0  45.75 1.5 0  46.5 1.5 0  47.25 1.5 0  48 1.5 0  48.75 1.5 0  49.5 1.5 0  50.25 1.5 0  51 1.5 0  51.75 1.5 0  52.5 1.5 0  53.25 1.5 0  54 1.5 0  54.75 1.5 0  55.5 1.5 0  56.25 1.5 0  57 1.5 0  57.75 1.5 0  58.5 1.5 0  59.25 1.5 0  60 1.5 0  0 2 0  0.75 2 0  1.5 2 0  2.25 2 0  3 2 0  3.75 2 0  4.5 2 0  5.25 2 0  6 2 0  6.75 2 0  7.5 2 0  8.25 2 0  9 2 0  9.75 2 0  10.5 2 0  11.25 2 0  12 2 0  12.75 2 0  13.5 2 0  14.25 2 0  15 2 0  15.75 2 0  16.5 2 0  17.25 2 0  18 2 0  18.75 2 0  19.5 2 0  20.25 2 0  21 2 0  21.75 2 0  22.5 2 0  23.25 2 0  24 2 0  24.75 2 0  25.5 2 0  26.25 2 0  27 2 0  27.75 2 0  28.5 2 0  29.25 2 0  30 2 0  30.75 2 0  31.5 2 0  32.25 2 0  33 2 0  33.75 2 0  34.5 2 0  35.25 2 0  36 2 0  36.75 2 0  37.5 2 0  38.25 2 0  39 2 0  39.75 2 0  40.5 2 0  41.25 2 0  42 2 0  42.75 2 0  43.5 2 0  44.25 2 0  45 2 0  45.75 2 0  46.5 2 0  47.25 2 0  48 2 0  48.75 2 0  49.5 2 0  50.25 2 0  51 2 0  51.75 2 0  52.5 2 0  53.25 2 0  54 2 0  54.75 2 0  55.5 2 0  56.25 2 0  57 2 0  57.75 2 0  58.5 2 0  59.25 2 0  60 2 0  0 2.5 0  0.75 2.5 0  1.5 2.5 0  2.25 2.5 0  3 2.5 0  3.75 2.5 0  4.5 2.5 0  5.25 2.5 0  6 2.5 0  6.75 2.5 0  7.5 2.5 0  8.25 2.5 0  9 2.5 0  9.75 2.5 0  10.5 2.5 0  11.25 2.5 0  12 2.5 0  12.75 2.5 0  13.5 2.5 0  14.25 2.5 0  15 2.5 0  15.75 2.5 0  16.5 2.5 0  17.25 2.5 0  18 2.5 0  18.75 2.5 0  19.5 2.5 0  20.25 2.5 0  21 2.5 0  21.75 2.5 0  22.5 2.5 0  23.25 2.5 0  24 2.5 0  24.75 2.5 0  25.5 2.5 0  26.25 2.5 0  27 2.5 0  27.75 2.5 0  28.5 2.5 0  29.25 2.5 0  30 2.5 0  30.75 2.5 0  31.5 2.5 0  32.25 2.5 0  33 2.5 0  33.75 2.5 0  34.5 2.5 0  35.25 2.5 0  36 2.5 0  36.75 2.5 0  37.5 2.5 0  38.25 2.5 0  39 2.5 0  39.75 2.5 0  40.5 2.5 0  41.25 2.5 0  42 2.5 0  42.75 2.5 0  43.5 2.5 0  44.25 2.5 0  45 2.5 0  45.75 2.5 0  46.5 2.5 0  47.25 2.5 0  48 2.5 0  48.75 2.5 0  49.5 2.5 0  50.25 2.5 0  51 2.5 0  51.75 2.5 0  52.5 2.5 0  53.25 2.5 0  54 2.5 0  54.75 2.5 0  55.5 2.5 0  56.25 2.5 0  57 2.5 0  57.75 2.5 0  58.5 2.5 0  59.25 2.5 0  60 2.5 0  0 3 0  0.75 3 0  1.5 3 0  2.25 3 0  3 3 0  3.75 3 0  4.5 3 0  5.25 3 0  6 3 0  6.75 3 0  7.5 3 0  8.25 3 0  9 3 0  9.75 3 0  10.5 3 0  11.25 3 0  12 3 0  12.75 3 0  13.5 3 0  14.25 3 0  15 3 0  15.75 3 0  16.5 3 0  17.25 3 0  18 3 0  18.75 3 0  19.5 3 0  20.25 3 0  21 3 0  21.75 3 0  22.5 3 0  23.25 3 0  24 3 0  24.75 3 0  25.5 3 0  26.25 3 0  27 3 0  27.75 3 0  28.5 3 0  29.25 3 0  30 3 0  30.75 3 0  31.5 3 0  32.25 3 0  33 3 0  33.75 3 0  34.5 3 0  35.25 3 0  36 3 0  36.75 3 0  37.5 3 0  38.25 3 0  39 3 0  39.75 3 0  40.5 3 0  41.25 3 0  42 3 0  42.75 3 0  43.5 3 0  44.25 3 0  45 3 0  45.75 3 0  46.5 3 0  47.25 3 0  48 3 0  48.75 3 0  49.5 3 0  50.25 3 0  51 3 0  51.75 3 0  52.5 3 0  53.25 3 0  54 3 0  54.75 3 0  55.5 3 0  56.25 3 0  57 3 0  57.75 3 0  58.5 3 0  59.25 3 0  60 3 0  0 3.5 0  0.75 3.5 0  1.5 3.5 0  2.25 3.5 0  3 3.5 0  3.75 3.5 0  4.5 3.5 0  5.25 3.5 0  6 3.5 0  6.75 3.5 0  7.5 3.5 0  8.25 3.5 0  9 3.5 0  9.75 3.5 0  10.5 3.5 0  11.25 3.5 0  12 3.5 0  12.75 3.5 0  13.5 3.5 0  14.25 3.5 0  15 3.5 0  15.75 3.5 0  16.5 3.5 0  17.25 3.5 0  18 3.5 0  18.75 3.5 0  19.5 3.5 0  20.25 3.5 0  21 3.5 0  21.75 3.5 0  22.5 3.5 0  23.25 3.5 0  24 3.5 0  24.75 3.5 0  25.5 3.5 0  26.25 3.5 0  27 3.5 0  27.75 3.5 0  28.5 3.5 0  29.25 3.5 0  30 3.5 0  30.75 3.5 0  31.5 3.5 0  32.25 3.5 0  33 3.5 0  33.75 3.5 0  34.5 3.5 0  35.25 3.5 0  36 3.5 0  36.75 3.5 0  37.5 3.5 0  38.25 3.5 0  39 3.5 0  39.75 3.5 0  40.5 3.5 0  41.25 3.5 0  42 3.5 0  42.75 3.5 0  43.5 3.5 0  44.25 3.5 0  45 3.5 0  45.75 3.5 0  46.5 3.5 0  47.25 3.5 0  48 3.5 0  48.75 3.5 0  49.5 3.5 0  50.25 3.5 0  51 3.5 0  51.75 3.5 0  52.5 3.5 0  53.25 3.5 0  54 3.5 0  54.75 3.5 0  55.5 3.5 0  56.25 3.5 0  57 3.5 0  57.75 3.5 0  58.5 3.5 0  59.25 3.5 0  60 3.5 0  0 4 0  0.75 4 0  1.5 4 0  2.25 4 0  3 4 0  3.75 4 0  4.5 4 0  5.25 4 0  6 4 0  6.75 4 0  7.5 4 0  8.25 4 0  9 4 0  9.75 4 0  10.5 4 0  11.25 4 0  12 4 0  12.75 4 0  13.5 4 0  14.25 4 0  15 4 0  15.75 4 0  16.5 4 0  17.25 4 0  18 4 0  18.75 4 0  19.5 4 0  20.25 4 0  21 4 0  21.75 4 0  22.5 4 0  23.25 4 0  24 4 0  24.75 4 0  25.5 4 0  26.25 4 0  27 4 0  27.75 4 0  28.5 4 0  29.25 4 0  30 4 0  30.75 4 0  31.5 4 0  32.25 4 0  33 4 0  33.75 4 0  34.5 4 0  35.25 4 0  36 4 0  36.75 4 0  37.5 4 0  38.25 4 0  39 4 0  39.75 4 0  40.5 4 0  41.25 4 0  42 4 0  42.75 4 0  43.5 4 0  44.25 4 0  45 4 0  45.75 4 0  46.5 4 0  47.25 4 0  48 4 0  48.75 4 0  49.5 4 0  50.25 4 0  51 4 0  51.75 4 0  52.5 4 0  53.25 4 0  54 4 0  54.75 4 0  55.5 4 0  56.25 4 0  57 4 0  57.75 4 0  58.5 4 0  59.25 4 0  60 4 0  0.375 0.25 0  1.125 0.25 0  1.875 0.25 0  2.625 0.25 0  3.375 0.25 0  4.125 0.25 0  4.875 0.25 0  5.625 0.25 0  6.375 0.25 0  7.125 0.25 0  7.875 0.25 0  8.625 0.25 0  9.375 0.25 0  10.125 0.25 0  10.875 0.25 0  11.625 0.25 0  12.375 0.25 0  13.125 0.25 0  13.875 0.25 0  14.625 0.25 0  15.375 0.25 0  16.125 0.25 0  16.875 0.25 0  17.625 0.25 0  18.375 0.25 0  19.125 0.25 0  19.875 0.25 0  20.625 0.25 0  21.375 0.25 0  22.125 0.25 0  22.875 0.25 0  23.625 0.25 0  24.375 0.25 0  25.125 0.25 0  25.875 0.25 0  26.625 0.25 0  27.375 0.25 0  28.125 0.25 0  28.875 0.25 0  29.625 0.25 0  30.375 0.25 0  31.125 0.25 0  31.875 0.25 0  32.625 0.25 0  33.375 0.25 0  34.125 0.25 0  34.875 0.25 0  35.625 0.25 0  36.375 0.25 0  37.125 0.25 0  37.875 0.25 0  38.625 0.25 0  39.375 0.25 0  40.125 0.25 0  40.875 0.25 0  41.625 0.25 0  42.375 0.25 0  43.125 0.25 0  43.875 0.25 0  44.625 0.25 0  45.375 0.25 0  46.125 0.25 0  46.875 0.25 0  47.625 0.25 0  48.375 0.25 0  49.125 0.25 0  49.875 0.25 0  50.625 0.25 0  51.375 0.25 0  52.125 0.25 0  52.875 0.25 0  53.625 0.25 0  54.375 0.25 0  55.125 0.25 0  55.875 0.25 0  56.625 0.25 0  57.375 0.25 0  58.125 0.25 0  58.875 0.25 0  59.625 0.25 0  0.375 0.75 0  1.125 0.75 0  1.875 0.75 0  2.625 0.75 0  3.375 0.75 0  4.125 0.75 0  4.875 0.75 0  5.625 0.75 0  6.375 0.75 0  7.125 0.75 0  7.875 0.75 0  8.625 0.75 0  9.375 0.75 0  10.125 0.75 0  10.875 0.75 0  11.625 0.75 0  12.375 0.75 0  13.125 0.75 0  13.875 0.75 0  14.625 0.75 0  15.375 0.75 0  16.125 0.75 0  16.875 0.75 0  17.625 0.75 0  18.375 0.75 0  19.125 0.75 0  19.875 0.75 0  20.625 0.75 0  21.375 0.75 0  22.125 0.75 0  22.875 0.75 0  23.625 0.75 0  24.375 0.75 0  25.125 0.75 0  25.875 0.75 0  26.625 0.75 0  27.375 0.75 0  28.125 0.75 0  28.875 0.75 0  29.625 0.75 0  30.375 0.75 0  31.125 0.75 0  31.875 0.75 0  32.625 0.75 0  33.375 0.75 0  34.125 0.75 0  34.875 0.75 0  35.625 0.75 0  36.375 0.75 0  37.125 0.75 0  37.875 0.75 0  38.625 0.75 0  39.375 0.75 0  40.125 0.75 0  40
[...]
<PointData  Vectors="f_8-0"> 
<DataArray  type="Float64"  Name="f_8-0"  NumberOfComponents="3" format="ascii">-2.2668516256469768e-08 -2.3895076421531013e-08 0.0000000000000000e+00  0.0000000000000000e+00 0.0000000000000000e+00 0.0000000000000000e+00  8.1612988332635318e-08 2.1762816886709809e-08 0.0000000000000000e+00  0.0000000000000000e+00 -1.6851271876212723e-08 0.0000000000000000e+00  0.0000000000000000e+00 0.0000000000000000e+00 0.0000000000000000e+00  0.0000000000000000e+00 0.0000000000000000e+00 0.0000000000000000e+00  7.3669451227740781e-07 3.7580628028160023e-06 0.0000000000000000e+00  -9.6291544532146440e-07 -5.1136709516046114e-08 0.0000000000000000e+00  1.3076311856260497e-07 -6.9930637274075416e-08 0.0000000000000000e+00  0.0000000000000000e+00 0.0000000000000000e+00 0.0000000000000000e+00  0.0000000000000000e+00 0.0000000000000000e+00 0.0000000000000000e+00  3.7231962556611941e-09 -5.7007965130627511e-08 0.0000000000000000e+00  0.0000000000000000e+00 5.9224297525590988e-09 0.0000000000000000e+00  -5.3472522314384510e-06 4.5699443800709017e-07 0.0000000000000000e+00  -1.3691591066160173e-06 2.2332048944000463e-06 0.0000000000000000e+00  4.3309698439080025e-07 -3.2391967517209247e-07 0.0000000000000000e+00  -2.0763082041992997e-06 1.2348643287770731e-06 0.0000000000000000e+00  0.0000000000000000e+00 -1.0024176534518452e-09 0.0000000000000000e+00  0.0000000000000000e+00 0.0000000000000000e+00 0.0000000000000000e+00  0.0000000000000000e+00 0.0000000000000000e+00 0.0000000000000000e+00  -6.3834713958039202e-08 1.7729804651176858e-09 0.0000000000000000e+00  0.0000000000000000e+00 0.0000000000000000e+00 0.0000000000000000e+00  0.0000000000000000e+00 5.2330963974907644e-08 0.0000000000000000e+00  0.0000000000000000e+00 0.0000000000000000e+00 0.0000000000000000e+00  0.0000000000000000e+00 -4.0039327613385487e-08 0.0000000000000000e+00  1.3839497955158439e-08 -6.4810083607026567e-07 0.0000000000000000e+00  -2.8809341008077768e-05 -1.4224901431994866e-05 0.0000000000000000e+00  -1.3092540738115457e-07 -6.2364548090822310e-07 0.0000000000000000e+00  1.0812301589586946e-06 6.7572609790879987e-08 0.0000000000000000e+00  0.0000000000000000e+00 0.0000000000000000e+00 0.0000000000000000e+00  -1.0659846024227101e-07 2.3485826799649317e-06 0.0000000000000000e+00  4.5827589776949924e-06 -2.0782686345196662e-06 0.0000000000000000e+00  -6.6038952906151353e-07 1.5132562277402074e-06 0.0000000000000000e+00  9.5465390390502221e-07 -1.3954252626036261e-06 0.0000000000000000e+00  8.1122425564998085e-07 -1.4177650152387763e-06 0.0000000000000000e+00  -8.0030334023136263e-07 -2.8939244721109967e-06 0.0000000000000000e+00  0.0000000000000000e+00 2.3376116707952405e-08 0.0000000000000000e+00  5.0362251509818072e-07 0.0000000000000000e+00 0.0000000000000000e+00  -6.1217890446988058e-08 3.3283889576671529e-07 0.0000000000000000e+00  0.0000000000000000e+00 0.0000000000000000e+00 0.0000000000000000e+00  0.0000000000000000e+00 9.8937946141823489e-09 0.0000000000000000e+00  -3.6261697591616339e-08 1.8862993207976251e-07 0.0000000000000000e+00  -1.3400343115211384e-07 2.2214773975631171e-06 0.0000000000000000e+00  0.0000000000000000e+00 0.0000000000000000e+00 0.0000000000000000e+00  0.0000000000000000e+00 -3.3603361159471435e-09 0.0000000000000000e+00  0.0000000000000000e+00 -2.3914953835872019e-10 0.0000000000000000e+00  0.0000000000000000e+00 0.0000000000000000e+00 0.0000000000000000e+00  0.0000000000000000e+00 0.0000000000000000e+00 0.0000000000000000e+00  2.7205178616959275e-07 -2.2204269441938892e-08 0.0000000000000000e+00  1.7826185078134510e-06 -5.6168344035292335e-06 0.0000000000000000e+00  -4.0049905376487125e-07 6.2390658469797013e-08 0.0000000000000000e+00  0.0000000000000000e+00 0.0000000000000000e+00 0.0000000000000000e+00  6.1643842135462990e-08 1.4770776765079704e-08 0.0000000000000000e+00  8.1508775495019805e-07 -1.7108303063044077e-08 0.0000000000000000e+00  5.0492774802391302e-08 -7.8537097284946388e-08 0.0000000000000000e+00  0.0000000000000000e+00 0.0000000000000000e+00 0.0000000000000000e+00  4.7453452918566165e-07 8.3267277222676851e-07 0.0000000000000000e+00  -1.2232547876059799e-06 -6.4571115476868709e-06 0.0000000000000000e+00  0.0000000000000000e+00 0.0000000000000000e+00 0.0000000000000000e+00  2.7522384180280810e-07 -4.0851225358934145e-07 0.0000000000000000e+00  8.0213591561221621e-07 4.6605505714140410e-06 0.0000000000000000e+00  -6.4730770593581537e-08 -1.9775845073897505e-08 0.0000000000000000e+00  1.4252180200853547e-08 7.3848515788156404e-08 0.0000000000000000e+00  0.0000000000000000e+00 0.0000000000000000e+00 0.0000000000000000e+00  0.0000000000000000e+00 7.3400907636718045e-08 0.0000000000000000e+00  0.0000000000000000e+00 0.0000000000000000e+00 0.0000000000000000e+00  0.0000000000000000e+00 0.0000000000000000e+00 0.0000000000000000e+00  3.4235394017159568e-07 -9.1548389630196922e-08 0.0000000000000000e+00  0.0000000000000000e+00 0.0000000000000000e+00 0.0000000000000000e+00  -1.0231586827654220e-07 -2.2758947847895338e-07 0.0000000000000000e+00  -1.3884343589422971e-08 -6.6632723081896042e-08 0.0000000000000000e+00  5.9516751842997473e-07 1.5424354607982508e-06 0.0000000000000000e+00  -2.8873545691713958e-06 2.7333043637091927e-06 0.0000000000000000e+00  -4.9344443850225280e-07 -1.8004016284341752e-06 0.0000000000000000e+00  0.0000000000000000e+00 0.0000000000000000e+00 0.0000000000000000e+00  0.0000000000000000e+00 0.0000000000000000e+00 0.0000000000000000e+00  6.9098944687126621e-07 -5.9209170731027293e-07 0.0000000000000000e+00  2.0656875792081147e-07 -3.2644062942187303e-07 0.0000000000000000e+00  7.8061583672490821e-07 6.8286418580369715e-09 0.0000000000000000e+00  0.0000000000000000e+00 0.0000000000000000e+00 0.0000000000000000e+00  1.1284816106219633e-08 2.3746105773468544e-10 0.0000000000000000e+00  2.7983145114346586e+07 0.0000000000000000e+00 0.0000000000000000e+00  7.9032546378669471e+07 -2.3733685565008372e+07 0.0000000000000000e+00  -2.7606874302094508e+07 3.5796619132368483e+07 0.0000000000000000e+00  4.5015082477500150e+06 -4.0722955540968873e+07 0.0000000000000000e+00  5.2823401952375561e+07 -1.6732757103693018e+07 0.0000000000000000e+00  9.9896252928291783e+06 1.7296741766431596e+07 0.0000000000000000e+00  2.7895395458381590e+07 -1.6267397674486317e+07 0.0000000000000000e+00  1.7992444535514534e+07 -3.9447780979736127e+07 0.0000000000000000e+00  4.7958461970461704e+07 -2.2558283679042704e+07 0.0000000000000000e+00  -1.2715302313484758e+07 1.0169209036632350e+08 0.0000000000000000e+00  4.1969709956282392e+07 -1.0792801845674875e+08 0.0000000000000000e+00  1.0571929711183497e+08 -2.5174099179743379e+06 0.0000000000000000e+00  -1.1006309248415364e+07 1.1194070181854585e+07 0.0000000000000000e+00  6.7961036862422479e+06 -3.3172972464139331e+07 0.0000000000000000e+00  1.3727155496064546e+07 -8.1218550248808470e+06 0.0000000000000000e+00  7.7280900423518643e+06 -1.9461927361186836e+07 0.0000000000000000e+00  -8.9835267369570490e+05 3.2653570783184748e+07 0.0000000000000000e+00  -8.2214000850267159e+06 1.4196609383655636e+07 0.0000000000000000e+00  -1.4019123241068691e+07 2.5557375904744852e+07 0.0000000000000000e+00  -4.4385635861620279e+06 -2.0512163830650736e+07 0.0000000000000000e+00  4.1985961999966078e+07 3.9919802357312344e+07 0.0000000000000000e+00  -1.9849793048513904e+06 -5.3717699840983011e+07 0.0000000000000000e+00  1.0384288270495990e+08 7.4737392140246078e+07 0.0000000000000000e+00  -9.5393005866019800e+06 -8.3461968698176625e+05 0.0000000000000000e+00  2.2096047662667006e+07 -1.2292633682847319e+07 0.0000000000000000e+00  -3.6994660004900664e+07 7.9847274474620402e+07 0.0000000000000000e+00  -9.3539944251536150e+06 -5.5913013236890882e+07 0.0000000000000000e+00  -6.4621798330149278e+07 -4.2100895876148812e+07 0.0000000000000000e+00  -6.5661840440151691e+06 -5.9709992737092718e+07 0.0000000000000000e+00  2.4021762729695756e+07 -4.6016679578327939e+07 0.0000000000000000e+00  -1.7275025693400964e+07 4.6840264938978534e+06 0.0000000000000000e+00  -2.5644460773063719e+07 -2.0532307137663953e+07 0.0000000000000000e+00  3.5589207595447682e+07 -3.1540379053276996e+06 0.0000000000000000e+00  2.2756041123662242e+06 2.0503755586352769e+07 0.0000000000000000e+00  -7.2277649091273658e+06 -2.4127627589856293e+07 0.0000000000000000e+00  -9.6150429801983964e+06 1.2360172399500830e+07 0.0000000000000000e+00  6.5156919151299804e+07 2.1835843855928060e+07 0.0000000000000000e+00  -1.0707909265161822e+07 2.2862335909750398e+07 0.0000000000000000e+00  -2.0154730697279724e+06 -1.6609355023660932e+07 0.0000000000000000e+00  1.8808072444170058e+07 -5.4601792686484978e+06 0.0000000000000000e+00  3.4964361948853232e+07 -1.6999809325035639e+07 0.0000000000000000e+00  -5.1778807791010968e+07 1.0099788634939298e+07 0.0000000000000000e+00  5.1617321052256085e+07 -1.5308717713189671e+07 0.0000000000000000e+00  3.4507778858863771e+07 -1.2807132256825786e+07 0.0000000000000000e+00  2.6017497433610111e+07 -1.1092069729997164e+07 0.0000000000000000e+00  7.5153900749855816e+07 -3.4922292471114583e+07 0.0000000000000000e+00  -2.3696181464620385e+07 -4.1264138816273226e+06 0.0000000000000000e+00  -1.1929676244746454e+07 -4.2481316043354891e+07 0.0000000000000000e+00  1.6352396959040739e+07 7.3616256948945820e+06 0.0000000000000000e+00  -3.9469117786192675e+06 -1.2733659202018594e+07 0.0000000000000000e+00  4.4195809444785584e+06 -9.0697805619618166e+06 0.0000000000000000e+00  4.3727983538725361e+07 5.2340441021347800e+06 0.0000000000000000e+00  2.1305338223369636e+07 -3.4411430801209725e+07 0.0000000000000000e+00  1.9554984191873644e+07 -5.8616815545089301e+06 0.0000000000000000e+00  2.7184024890020522e+06 -2.6830865401332755e+07 0.0000000000000000e+00  -1.3753670214813532e+07 -2.9839244939691003e+07 0.0000000000000000e+00  2.4612645377691961e+06 1.8461686238225908e+06 0.0000000000000000e+00  -1.6068643147121405e+07 -7.7807884374253848e+05 0.0000000000000000e+00  6.2019431391626718e+06 -5.8630246499369936e+06 0.0000000000000000e+00  2.0520939134410068e+07 1.1853936560852520e+07 0.0000000000000000e+00  -1.0789476242442496e+07 -1.1143325775920754e+07 0.0000000000000000e+00  5.0746615050611775e+06 -6.3833259712296177e+05 0.0000000000000000e+00  1.4766209284649448e+07 6.5660852477021795e+06 0.0000000000000000e+00  2.9940405800250597e+07 -3.3622794927633418e+04 0.0000000000000000e+00  1.9103857390512943e+07 1.2425951011646653e+06 0.0000000000000000e+00  4.5965699693487845e+06 -9.3808949719785582e+06 0.0000000000000000e+00  9.8065557129764389e+06 -2.5427369422092430e+07 0.0000000000000000e+00  1.8337321538737202e+06 -1.3736382467035735e+07 0.0000000000000000e+00  -9.8097863052875306e+06 -1.5827965121482750e+07 0.0000000000000000e+00  3.9491819163977858e+06 -7.1883570416163269e+05 0.0000000000000000e+00  -7.6779742599320915e+06 5.7788065401211474e+06 0.0000000000000000e+00  4.5829530042787958e+06 -5.1106620883565694e+06 0.0000000000000000e+00  -8.1929823901266353e+06 1.5862935257878162e+07 0.0000000000000000e+00  -6.1947938044845946e+06 -5.5747463524769694e+06 0.0000000000000000e+00  1.4460496096592940e+07 2.0425374895295971e+06 0.0000000000000000e+00  5.0738805788353011e+06 -1.8362074928125527e+06 0.0000000000000000e+00  -6.5962489345153058e+06 -1.2764795274262272e+06 0.0000000000000000e+00  -8.8330564055855796e+06 8.3062830610670673e+05 0.0000000000000000e+00  -1.1041789741215337e+07 5.6229571567007890e+06 0.0000000000000000e+00  -9.3166368807854075e+06 -6.8423528551102383e+06 0.0000000000000000e+00  -2.6093950716028800e+06 3.2249152325760496e-08 0.0000000000000000e+00  -5.5468103698594645e+06 -2.1963816781450665e-08 0.0000000000000000e+00  5.1503219082035206e+07 3.3697670686820485e+07 0.0000000000000000e+00  -1.8483060348566059e+07 1.4884006421216507e+07 0.0000000000000000e+00  2.2973920106734045e+07 -2.1900590937317178e+07 0.0000000000000000e+00  3.3784545011671804e+07 -6.7948818863797858e+07 0.0000000000000000e+00  2.2866756765100960e+07 -2.8945778697915394e+07 0.0000000000000000e+00  3.8537459390680894e+07 1.0404352895577691e+07 0.0000000000000000e+00  3.3900900771937765e+07 1.2462900802249463e+07 0.0000000000000000e+00  1.8961703489467356e+07 -1.0676572108906200e+07 0.0000000000000000e+00  -5.4050378787245993e+06 -6.3799512879766218e+07 0.0000000000000000e+00  -2.8149861727351781e+07 -8.1841577614070207e+07 0.0000000000000000e+00  1.7018900821433008e+07 -2.5245725825755533e+07 0.0000000000000000e+00  5.7051657549699806e+07 2.7521716065757912e+07 0.0000000000000000e+00  5.2485892787088547e+06 2.7016958685893018e+07 0.0000000000000000e+00  -8.3513972163043544e+05 -3.1762717468365904e+07 0.0000000000000000e+00  -3.5244561449625485e+07 -5.0976024469097205e+07 0.0000000000000000e+00  -3.2094357763305213e+07 1.0494632269828616e+07 0.0000000000000000e+00  -1.0289368899292378e+07 7.4753231747063659e+06 0.0000000000000000e+00  -8.9396657205607817e+06 5.5376192166326657e+07 0.0000000000000000e+00  2.7899836324314964e+06 1.3866766258765681e+07 0.0000000000000000e+00  3.8195676903136219e+06 -8.4303695957124140e+05 0.0000000000000000e+00  3.0955578327607527e+07 3.2587692320907246e+07 0.0000000000000000e+00  -9.9108315459003707e+05 -4.1138058801477306e+07 0.0000000000000000e+00  -5.0677275266636781e+07 -1.8689906925441496e+07 0.0000000000000000e+00  -7.5334928661790743e+07 2.8858605043239478e+07 0.0000000000000000e+00  1.8805331343251765e+07 -5.4308023038046872e+06 0.0000000000000000e+00  -2.8069586168246694e+07 -6.8234856176990092e+07 0.0000000000000000e+00  -3.0319575477601435e+07 3.8065421060367748e+07 0.0000000000000000e+00  1.2017272633732164e+08 7.4245800505220899e+06 0.0000000000000000e+00  -4.3016518149927370e+07 -1.4855902372754892e+07 0.0000000000000000e+00  -1.2615735153260839e+06 7.3520908076502532e+07 0.0000000000000000e+00  6.0378246116275275e+06 5.4689967790790454e+07 0.0000000000000000e+00  -1.0409844847299548e+07 1.9147692965726983e+07 0.0000000000000000e+00  -1.1864468592285346e+06 -4.5239472060278252e+07 0.0000000000000000e+00  -1.2174029857221423e+07 -2.2058256140572947e+07 0.0000000000000000e+00  2.4552607996178903e+07 -4.0580210443921643e+06 0.0000000000000000e+00  -3.3831492766032763e+07 2.9203834039308131e+07 0.0000000000000000e+00  -3.3362709471576284e+06 5.1937722584932661e+06 0.0000000000000000e+00  2.0201893479159161e+07 -3.5655285080879949e+07 0.0000000000000000e+00  4.8216474676663935e+07 -2.8307777412888229e+07 0.0000000000000000e+00  -2.2080681591205273e+07 3.4832927885930310e+06 0.0000000000000000e+00  2.6963340999876380e+07 -5.9337795578259062e+06 0.0000000000000000e+00  -5.5979079823925765e+06 5.4175863981390167e+06 0.0000000000000000e+00  2.4719793684903491e+07 -3.4735380193045415e+07 0.0000000000000000e+00  -6.0561869951476948e+06 -8.7849566877402123e+06 0.0000000000000000e+00  -4.5250320746025965e+07 6.3409254331113532e+07 0.0000000000000000e+00  -3.0152689812093493e+07 -2.6161586260247696e+07 0.0000000000000000e+00  -1.9941628557782184e+07 2.8847530760854804e+06 0.0000000000000000e+00  -3.2616052613806147e+07 -2.5418420295712538e+07 0.0000000000000000e+00  2.4637530041284752e+06 -3.6283000145501986e+07 0.0000000000000000e+00  1.6882370086100742e+07 -3.3714223511168294e+07 0.0000000000000000e+00  -1.5537039349752933e+07 3.5622641577062290e+06 0.0000000000000000e+00  -1.3436922120861163e+07 -1.5381988349221773e+07 0.0000000000000000e+00  -2.8282439446845017e+07 -1.7200616819781553e+07 0.0000000000000000e+00  2.1183624723529387e+07 -1.4179280640878566e+07 0.0000000000000000e+00  -1.5473315744177334e+07 -3.4846496385099448e+07 0.0000000000000000e+00  1.7616467892589148e+07 3.5926813207097258e+06 0.0000000000000000e+00  1.9167930504370011e+07 1.5954595480307959e+07 0.0000000000000000e+00  -9.6278503375015482e+06 -8.7351842711271308e+06 0.0000000000000000e+00  1.9025265104704056e+07 2.7004947458197732e+07 0.0000000000000000e+00  2.3593369033408728e+06 2.0056652964766428e+07 0.0000000000000000e+00  -4.1130640539536001e+06 -1.1450457644339489e+07 0.0000000000000000e+00  1.8156633721857127e+07 5.1574150654014898e+06 0.0000000000000000e+00  1.3725584960311169e+07 -1.2792972067432396e+07 0.0000000000000000e+00  3.1911916108779170e+07 -2.0480238027788516e+07 0.0000000000000000e+00  -9.4831841873779111e+06 8.6742771469693445e+06 0.0000000000000000e+00  4.4205436042192236e+07 -2.2690974560305599e+07 0.0000000000000000e+00  1.5560681880993869e+07 -1.1753870946180379e+07 0.0000000000000000e+00  -4.9808687192417057e+06 5.3252497995428089e+06 0.0000000000000000e+00  2.1539306564592861e+07 2.2346188965652185e+06 0.0000000000000000e+00  -2.7090537348900151e+07 -1.9226373924939387e+07 0.0000000000000000e+00  -9.5948997373492662e+06 1.4261114465141650e+07 0.0000000000000000e+00  -4.5378708335150070e+06 1.1843145367659526e+07 0.0000000000000000e+00  -3.0507697693135715e+06 3.1448440449314412e+07 0.0000000000000000e+00  6.2297743655395228e+06 -6.7167107757757697e+06 0.0000000000000000e+00  -1.6143157834970604e+06 2.2322696532066152e+06 0.0000000000000000e+00  -2.0068036578655586e+07 1.7901750801308278e+07 0.0000000000000000e+00  1.9135917357003561e+06 -1.3022810915258706e+06 0.0000000000000000e+00  5.8312227597006252e+06 4.0815980689051808e+06 0.0000000000000000e+00  -5.2207518298067497e+06 -1.6047856222311766e+06 0.0000000000000000e+00  -1.7004125809032772e+07 0.0000000000000000e+00 0.0000000000000000e+00  2.4445376735578883e+06 0.0000000000000000e+00 0.0000000000000000e+00  -3.0040523927860116e+06 2.7825836120542962e+07 0.0000000000000000e+00  9.7343001810175534e+06 1.0532327614202635e+07 0.0000000000000000e+00  5.0763492369126260e+07 -5.4584374398932680e+07 0.0000000000000000e+00  2.5510332542911205e+07 -3.3481326682903809e+06 0.0000000000000000e+00  3.6117232028126329e+07 2.8889107972192202e+07 0.0000000000000000e+00  3.9202357992153808e+07 -1.0606623522622336e+07 0.0000000000000000e+00  3.5941437445533760e+07 1.3717983721338447e+07 0.0000000000000000e+00  2.8032483384489577e+04 -4.8081617388627455e+07 0.0000000000000000e+00  5.5539778627330527e+07 1.2825053783801859e+06 0.0000000000000000e+00  3.8289373780803427e+07 7.9619209344056975e+06 0.0000000000000000e+00  1.4014435129586980e+06 4.2830331702268779e+07 0.0000000000000000e+00  -1.5234233074841280e+07 2.6247557306862757e+07 0.0000000000000000e+00  1.7247300067491736e+07 3.8376095389305070e+07 0.0000000000000000e+00  2.2456461163287312e+06 -4.0990473974168211e+07 0.0000000000000000e+00  -6.4371755536487093e+06 -1.4478524469202796e+06 0.0000000000000000e+00  -9.7396433633172326e+06 -1.6214626433203584e+07 0.0000000000000000e+00  1.5173369082908016e+07 -2.9173010052237450e+06 0.0000000000000000e+00  7.1517981628065212e+06 1.7829023087724720e+06 0.0000000000000000e+00  1.1375921206477769e+07 3.5971190126039915e+07 0.0000000000000000e+00  1.4638337566878336e+07 7.9080816399204582e+06 0.0000000000000000e+00  1.0004245112965563e+07 1.8421429970810078e+07 0.0000000000000000e+00  -1.8871616021235298e+07 9.4356631216367647e+07 0.0000000000000000e+00  2.5368134779957306e+07 -9.0787254951930065e+06 0.0000000000000000e+00  -2.1589708295897089e+07 3.5651332979147229e+06 0.0000000000000000e+00  5.1940622042860454e+06 9.2076838834951043e+07 0.0000000000000000e+00  1.2645051097768985e+07 1.1959809112905722e+07 0.0000000000000000e+00  9.6621085905362859e+07 -5.4562345481740953e+06 0.0000000000000000e+00  1.0304170318668216e+08 -9.6182331447836295e+07 0.0000000000000000e+00  4.7018942120714962e+07 5.2980251208577037e+05 0.0000000000000000e+00  -3.0849086784612928e+07 2.6302004735340383e+07 0.0000000000000000e+00  -5.3247120072870620e+07 3.1594664967689913e+07 0.0000000000000000e+00  -4.0978190042889871e+07 3.8286771560422573e+06 0.0000000000000000e+00  1.3204904079609519e+07 -5.4452168279704697e+07 0.0000000000000000e+00  -1.9185193134637728e+07 -3.9650379179233201e+07 0.0000000000000000e+00  -2.4034158147920348e+07 -1.9684749849971935e+07 0.0000000000000000e+00  -1.8792175661641065e+07 1.9897720069982320e+07 0.0000000000000000e+00  1.0083012944649437e+07 3.361168739546522