<?xml version="1.0"?>
<VTKFile type="UnstructuredGrid"  version="0.1"  >
<UnstructuredGrid>
<Piece  NumberOfPoints="1369" NumberOfCells="2560">
<Points>
<DataArray  type="Float64"  NumberOfComponents="3"  format="ascii">0 0 0  0.75 0 0  1.5 0 0  2.25 0 0  3 0 0  3.75 0 0  4.5 0 0  5.25 0 0  6 0 0  6.75 0 0  7.5 0 0  8.25 0 0  9 0 0  9.75 0 0  10.5 0 0  11.25 0 0  12 0 0  12.75 0 0  13.5 0 0  14.25 0 0  15 0 0  15.75 0 0  16.5 0 0  17.25 0 0  18 0 0  18.75 0 0  19.5 0 0  20.25 0 0  21 0 0  21.75 0 0  22.5 0 0  23.25 0 0  24 0 0  24.75 0 0  25.5 0 0  26.25 0 0  27 0 0  27.75 0 0  28.5 0 0  29.25 0 0  30 0 0  30.75 0 0  31.5 0 0  32.25 0 0  33 0 0  33.75 0 0  34.5 0 0  35.25 0 0  36 0 0  36.75 0 0  37.5 0 0  38.25 0 0  39 0 0  39.75 0 0  40.5 0 0  41.25 0 0  42 0 0  42.75 0 0  43.5 0 0  44.25 0 0  45 0 0  45.75 0 0  46.5 0 0  47.25 0 0  48 0 0  48.75 0 0  49.5 0 0  50.25 0 0  51 0 0  51.75 0 0  52.5 0 0  53.25 0 0  54 0 0  54.75 0 0  55.5 0 0  56.25 0 0  57 0 0  57.75 0 0  58.5 0 0  59.25 0 0  60 0 0  0 0.5 0  0.75 0.5 0  1.5 0.5 0  2.25 0.5 0  3 0.5 0  3.75 0.5 0  4.5 0.5 0  5.25 0.5 0  6 0.5 0  6.75 0.5 0  7.5 0.5 0  8.25 0.5 0  9 0.5 0  9.75 0.5 0  10.5 0.5 0  11.25 0.5 0  12 0.5 0  12.75 0.5 0  13.5 0.5 0  14.25 0.5 0  15 0.5 0  15.75 0.5 0  16.5 0.5 0  17.25 0.5 0  18 0.5 0  18.75 0.5 0  19.5 0.5 0  20.25 0.5 0  21 0.5 0  21.75 0.5 0  22.5 0.5 0  23.25 0.5 0  24 0.5 0  24.75 0.5 0  25.5 0.5 0  26.25 0.5 0  27 0.5 0  27.75 0.5 0  28.5 0.5 0  29.25 0.5 0  30 0.5 0  30.75 0.5 0  31.5 0.5 0  32.25 0.5 0  33 0.5 0  33.75 0.5 0  34.5 0.5 0  35.25 0.5 0  36 0.5 0  36.75 0.5 0  37.5 0.5 0  38.25 0.5 0  39 0.5 0  39.75 0.5 0  40.5 0.5 0  41.25 0.5 0  42 0.5 0  42.75 0.5 0  43.5 0.5 0  44.25 0.5 0  45 0.5 0  45.75 0.5 0  46.5 0.5 0  47.25 0.5 0  48 0.5 0  48.75 0.5 0  49.5 0.5 0  50.25 0.5 0  51 0.5 0  51.75 0.5 0  52.5 0.5 0  53.25 0.5 0  54 0.5 0  54.75 0.5 0  55.5 0.5 0  56.25 0.5 0  57 0.5 0  57.75 0.5 0  58.5 0.5 0  59.25 0.5 0  60 0.5 0  0 1 0  0.75 1 0  1.5 1 0  2.25 1 0  3 1 0  3.75 1 0  4.5 1 0  5.25 1 0  6 1 0  6.75 1 0  7.5 1 0  8.25 1 0  9 1 0  9.75 1 0  10.5 1 0  11.25 1 0  12 1 0  12.75 1 0  13.5 1 0  14.25 1 0  15 1 0  15.75 1 0  16.5 1 0  17.25 1 0  18 1 0  18.75 1 0  19.5 1 0  20.25 1 0  21 1 0  21.75 1 0  22.5 1 0  23.25 1 0  24 1 0  24.75 1 0  25.5 1 0  26.25 1 0  27 1 0  27.75 1 0  28.5 1 0  29.25 1 0  30 1 0  30.75 1 0  31.5 1 0  32.25 1 0  33 1 0  33.75 1 0  34.5 1 0  35.25 1 0  36 1 0  36.75 1 0  37.5 1 0  38.25 1 0  39 1 0  39.75 1 0  40.5 1 0  41.25 1 0  42 1 0  42.75 1 0  43.5 1 0  44.25 1 0  45 1 0  45.75 1 0  46.5 1 0  47.25 1 0  48 1 0  48.75 1 0  49.5 1 0  50.25 1 0  51 1 0  51.75 1 0  52.5 1 0  53.25 1 0  54 1 0  54.75 1 0  55.5 1 0  56.25 1 0  57 1 0  57.75 1 0  58.5 1 0  59.25 1 0  60 1 0  0 1.5 0  0.75 1.5 0  1.5 1.5 0  2.25 1.5 0  3 1.5 0  3.75 1.5 0  4.5 1.5 0  5.25 1.5 0  6 1.5 0  6.75 1.5 0  7.5 1.5 0  8.25 1.5 0  9 1.5 0  9.75 1.5 0  10.5 1.5 0  11.25 1.5 0  12 1.5 0  12.75 1.5 0  13.5 1.5 0  14.25 1.5 0  15 1.5 0  15.75 1.5 0  16.5 1.5 0  17.25 1.5 0  18 1.5 0  18.75 1.5 0  19.5 1.5 0  20.25 1.5 0  21 1.5 0  21.75 1.5 0  22.5 1.5 0  23.25 1.5 0  24 1.5 0  24.75 1.5 0  25.5 1.5 0  26.25 1.5 0  27 1.5 0  27.75 1.5 0  28.5 1.5 0  29.25 1.5 0  30 1.5 0  30.75 1.5 0  31.5 1.5 0  32.25 1.5 0  33 1.5 0  33.75 1.5 0  34.5 1.5 0  35.25 1.5 0  36 1.5 0  36.75 1.5 0  37.5 1.5 0  38.25 1.5 0  39 1.5 0  39.75 1.5 0  40.5 1.5 0  41.25 1.5 0  42 1.5 0  42.75 1.5 0  43.5 1.5 0  44.25 1.5 0  45 1.5 0  45.75 1.5 0  46.5 1.5 0  47.25 1.5 0  48 1.5 0  48.75 1.5 0  49.5 1.5 0  50.25 1.5 0  51 1.5 0  51.75 1.5 0  52.5 1.5 0  53.25 1.5 0  54 1.5 0  54.75 1.5 0  55.5 1.5 0  56.25 1.5 0  57 1.5 0  57.75 1.5 0  58.5 1.5 0  59.25 1.5 0  60 1.5 0  0 2 0  0.75 2 0  1.5 2 0  2.25 2 0  3 2 0  3.75 2 0  4.5 2 0  5.25 2 0  6 2 0  6.75 2 0  7.5 2 0  8.25 2 0  9 2 0  9.75 2 0  10.5 2 0  11.25 2 0  12 2 0  12.75 2 0  13.5 2 0  14.25 2 0  15 2 0  15.75 2 0  16.5 2 0  17.25 2 0  18 2 0  18.75 2 0  19.5 2 0  20.25 2 0  21 2 0  21.75 2 0  22.5 2 0  23.25 2 0  24 2 0  24.75 2 0  25.5 2 0  26.25 2 0  27 2 0  27.75 2 0  28.5 2 0  29.25 2 0  30 2 0  30.75 2 0  31.5 2 0  32.25 2 0  33 2 0  33.75 2 0  34.5 2 0  35.25 2 0  36 2 0  36.75 2 0  37.5 2 0  38.25 2 0  39 2 0  39.75 2 0  40.5 2 0  41.25 2 0  42 2 0  42.75 2 0  43.5 2 0  44.25 2 0  45 2 0  45.75 2 0  46.5 2 0  47.25 2 0  48 2 0  48.75 2 0  49.5 2 0  50.25 2 0  51 2 0  51.75 2 0  52.5 2 0  53.25 2 0  54 2 0  54.75 2 0  55.5 2 0  56.25 2 0  57 2 0  57.75 2 0  58.5 2 0  59.25 2 0  60 2 0  0 2.5 0  0.75 2.5 0  1.5 2.5 0  2.25 2.5 0  3 2.5 0  3.75 2.5 0  4.5 2.5 0  5.25 2.5 0  6 2.5 0  6.75 2.5 0  7.5 2.5 0  8.25 2.5 0  9 2.5 0  9.75 2.5 0  10.5 2.5 0  11.25 2.5 0  12 2.5 0  12.75 2.5 0  13.5 2.5 0  14.25 2.5 0  15 2.5 0  15.75 2.5 0  16.5 2.5 0  17.25 2.5 0  18 2.5 0  18.75 2.5 0  19.5 2.5 0  20.25 2.5 0  21 2.5 0  21.75 2.5 0  22.5 2.5 0  23.25 2.5 0  24 2.5 0  24.75 2.5 0  25.5 2.5 0  26.25 2.5 0  27 2.5 0  27.75 2.5 0  28.5 2.5 0  29.25 2.5 0  30 2.5 0  30.75 2.5 0  31.5 2.5 0  32.25 2.5 0  33 2.5 0  33.75 2.5 0  34.5 2.5 0  35.25 2.5 0  36 2.5 0  36.75 2.5 0  37.5 2.5 0  38.25 2.5 0  39 2.5 0  39.75 2.5 0  40.5 2.5 0  41.25 2.5 0  42 2.5 0  42.75 2.5 0  43.5 2.5 0  44.25 2.5 0  45 2.5 0  45.75 2.5 0  46.5 2.5 0  47.25 2.5 0  48 2.5 0  48.75 2.5 0  49.5 2.5 0  50.25 2.5 0  51 2.5 0  51.75 2.5 0  52.5 2.5 0  53.25 2.5 0  54 2.5 0  54.75 2.5 0  55.5 2.5 0  56.25 2.5 0  57 2.5 0  57.75 2.5 0  58.5 2.5 0  59.25 2.5 0  60 2.5 0  0 3 0  0.75 3 0  1.5 3 0  2.25 3 0  3 3 0  3.75 3 0  4.5 3 0  5.25 3 0  6 3 0  6.75 3 0  7.5 3 0  8.25 3 0  9 3 0  9.75 3 0  10.5 3 0  11.25 3 0  12 3 0  12.75 3 0  13.5 3 0  14.25 3 0  15 3 0  15.75 3 0  16.5 3 0  17.25 3 0  18 3 0  18.75 3 0  19.5 3 0  20.25 3 0  21 3 0  21.75 3 0  22.5 3 0  23.25 3 0  24 3 0  24.75 3 0  25.5 3 0  26.25 3 0  27 3 0  27.75 3 0  28.5 3 0  29.25 3 0  30 3 0  30.75 3 0  31.5 3 0  32.25 3 0  33 3 0  33.75 3 0  34.5 3 0  35.25 3 0  36 3 0  36.75 3 0  37.5 3 0  38.25 3 0  39 3 0  39.75 3 0  40.5 3 0  41.25 3 0  42 3 0  42.75 3 0  43.5 3 0  44.25 3 0  45 3 0  45.75 3 0  46.5 3 0  47.25 3 0  48 3 0  48.75 3 0  49.5 3 0  50.25 3 0  51 3 0  51.75 3 0  52.5 3 0  53.25 3 0  54 3 0  54.75 3 0  55.5 3 0  56.25 3 0  57 3 0  57.75 3 0  58.5 3 0  59.25 3 0  60 3 0  0 3.5 0  0.75 3.5 0  1.5 3.5 0  2.25 3.5 0  3 3.5 0  3.75 3.5 0  4.5 3.5 0  5.25 3.5 0  6 3.5 0  6.75 3.5 0  7.5 3.5 0  8.25 3.5 0  9 3.5 0  9.75 3.5 0  10.5 3.5 0  11.25 3.5 0  12 3.5 0  12.75 3.5 0  13.5 3.5 0  14.25 3.5 0  15 3.5 0  15.75 3.5 0  16.5 3.5 0  17.25 3.5 0  18 3.5 0  18.75 3.5 0  19.5 3.5 0  20.25 3.5 0  21 3.5 0  21.75 3.5 0  22.5 3.5 0  23.25 3.5 0  24 3.5 0  24.75 3.5 0  25.5 3.5 0  26.25 3.5 0  27 3.5 0  27.75 3.5 0  28.5 3.5 0  29.25 3.5 0  30 3.5 0  30.75 3.5 0  31.5 3.5 0  32.25 3.5 0  33 3.5 0  33.75 3.5 0  34.5 3.5 0  35.25 3.5 0  36 3.5 0  36.75 3.5 0  37.5 3.5 0  38.25 3.5 0  39 3.5 0  39.75 3.5 0  40.5 3.5 0  41.25 3.5 0  42 3.5 0  42.75 3.5 0  43.5 3.5 0  44.25 3.5 0  45 3.5 0  45.75 3.5 0  46.5 3.5 0  47.25 3.5 0  48 3.5 0  48.75 3.5 0  49.5 3.5 0  50.25 3.5 0  51 3.5 0  51.75 3.5 0  52.5 3.5 0  53.25 3.5 0  54 3.5 0  54.75 3.5 0  55.5 3.5 0  56.25 3.5 0  57 3.5 0  57.75 3.5 0  58.5 3.5 0  59.25 3.5 0  60 3.5 0  0 4 0  0.75 4 0  1.5 4 0  2.25 4 0  3 4 0  3.75 4 0  4.5 4 0  5.25 4 0  6 4 0  6.75 4 0  7.5 4 0  8.25 4 0  9 4 0  9.75 4 0  10.5 4 0  11.25 4 0  12 4 0  12.75 4 0  13.5 4 0  14.25 4 0  15 4 0  15.75 4 0  16.5 4 0  17.25 4 0  18 4 0  18.75 4 0  19.5 4 0  20.25 4 0  21 4 0  21.75 4 0  22.5 4 0  23.25 4 0  24 4 0  24.75 4 0  25.5 4 0  26.25 4 0  27 4 0  27.75 4 0  28.5 4 0  29.25 4 0  30 4 0  30.75 4 0  31.5 4 0  32.25 4 0  33 4 0  33.75 4 0  34.5 4 0  35.25 4 0  36 4 0  36.75 4 0  37.5 4 0  38.25 4 0  39 4 0  39.75 4 0  40.5 4 0  41.25 4 0  42 4 0  42.75 4 0  43.5 4 0  44.25 4 0  45 4 0  45.75 4 0  46.5 4 0  47.25 4 0  48 4 0  48.75 4 0  49.5 4 0  50.25 4 0  51 4 0  51.75 4 0  52.5 4 0  53.25 4 0  54 4 0  54.75 4 0  55.5 4 0  56.25 4 0  57 4 0  57.75 4 0  58.5 4 0  59.25 4 0  60 4 0  0.375 0.25 0  1.125 0.25 0  1.875 0.25 0  2.625 0.25 0  3.375 0.25 0  4.125 0.25 0  4.875 0.25 0  5.625 0.25 0  6.375 0.25 0  7.125 0.25 0  7.875 0.25 0  8.625 0.25 0  9.375 0.25 0  10.125 0.25 0  10.875 0.25 0  11.625 0.25 0  12.375 0.25 0  13.125 0.25 0  13.875 0.25 0  14.625 0.25 0  15.375 0.25 0  16.125 0.25 0  16.875 0.25 0  17.625 0.25 0  18.375 0.25 0  19.125 0.25 0  19.875 0.25 0  20.625 0.25 0  21.375 0.25 0  22.125 0.25 0  22.875 0.25 0  23.625 0.25 0  24.375 0.25 0  25.125 0.25 0  25.875 0.25 0  26.625 0.25 0  27.375 0.25 0  28.125 0.25 0  28.875 0.25 0  29.625 0.25 0  30.375 0.25 0  31.125 0.25 0  31.875 0.25 0  32.625 0.25 0  33.375 0.25 0  34.125 0.25 0  34.875 0.25 0  35.625 0.25 0  36.375 0.25 0  37.125 0.25 0  37.875 0.25 0  38.625 0.25 0  39.375 0.25 0  40.125 0.25 0  40.875 0.25 0  41.625 0.25 0  42.375 0.25 0  43.125 0.25 0  43.875 0.25 0  44.625 0.25 0  45.375 0.25 0  46.125 0.25 0  46.875 0.25 0  47.625 0.25 0  48.375 0.25 0  49.125 0.25 0  49.875 0.25 0  50.625 0.25 0  51.375 0.25 0  52.125 0.25 0  52.875 0.25 0  53.625 0.25 0  54.375 0.25 0  55.125 0.25 0  55.875 0.25 0  56.625 0.25 0  57.375 0.25 0  58.125 0.25 0  58.875 0.25 0  59.625 0.25 0  0.375 0.75 0  1.125 0.75 0  1.875 0.75 0  2.625 0.75 0  3.375 0.75 0  4.125 0.75 0  4.875 0.75 0  5.625 0.75 0  6.375 0.75 0  7.125 0.75 0  7.875 0.75 0  8.625 0.75 0  9.375 0.75 0  10.125 0.75 0  10.875 0.75 0  11.625 0.75 0  12.375 0.75 0  13.125 0.75 0  13.875 0.75 0  14.625 0.75 0  15.375 0.75 0  16.125 0.75 0  16.875 0.75 0  17.625 0.75 0  18.375 0.75 0  19.125 0.75 0  19.875 0.75 0  20.625 0.75 0  21.375 0.75 0  22.125 0.75 0  22.875 0.75 0  23.625 0.75 0  24.375 0.75 0  25.125 0.75 0  25.875 0.75 0  26.625 0.75 0  27.375 0.75 0  28.125 0.75 0  28.875 0.75 0  29.625 0.75 0  30.375 0.75 0  31.125 0.75 0  31.875 0.75 0  32.625 0.75 0  33.375 0.75 0  34.125 0.75 0  34.875 0.75 0  35.625 0.75 0  36.375 0.75 0  37.125 0.75 0  37.875 0.75 0  38.625 0.75 0  39.375 0.75 0  40.125 0.75 0  40
[...]
<PointData  Vectors="f_8-0"> 
<DataArray  type="Float64"  Name="f_8-0"  NumberOfComponents="3" format="ascii">4.3321780384766601e-08 2.7826781704554767e-08 0.0000000000000000e+00  0.0000000000000000e+00 0.0000000000000000e+00 0.0000000000000000e+00  6.4618163706223630e-06 4.0884959587957822e-06 0.0000000000000000e+00  0.0000000000000000e+00 0.0000000000000000e+00 0.0000000000000000e+00  -8.2850069288343741e-06 7.1818292174077833e-07 0.0000000000000000e+00  -1.4493659380085758e-05 -2.2946909106882334e-05 0.0000000000000000e+00  1.5422469847970784e-05 3.6279945523506810e-05 0.0000000000000000e+00  -5.2554837358238377e-05 -4.7366674130980368e-05 0.0000000000000000e+00  0.0000000000000000e+00 0.0000000000000000e+00 0.0000000000000000e+00  5.4512271852609016e-07 -5.4202213419190981e-07 0.0000000000000000e+00  -5.9889384940286361e-07 -1.3876450573538702e-06 0.0000000000000000e+00  1.7612756311689460e-07 1.8064198372926787e-06 0.0000000000000000e+00  0.0000000000000000e+00 -5.4354582511924927e-08 0.0000000000000000e+00  2.5665093617040854e-06 1.0021948204164460e-05 0.0000000000000000e+00  2.9851796779954197e-07 0.0000000000000000e+00 0.0000000000000000e+00  0.0000000000000000e+00 -6.0069762891244088e-08 0.0000000000000000e+00  -4.1899624767529810e-08 9.8248968153027424e-07 0.0000000000000000e+00  6.4653895229642789e-07 9.1300150809364706e-07 0.0000000000000000e+00  0.0000000000000000e+00 0.0000000000000000e+00 0.0000000000000000e+00  -1.6225176243881436e-06 2.4667354033971903e-08 0.0000000000000000e+00  1.1642661015921006e-06 3.6934579193287049e-06 0.0000000000000000e+00  0.0000000000000000e+00 0.0000000000000000e+00 0.0000000000000000e+00  1.9943221293292459e-05 2.0668800755876496e-05 0.0000000000000000e+00  5.5116141325308414e-07 -1.7496791075060838e-06 0.0000000000000000e+00  0.0000000000000000e+00 1.6139999455215182e-06 0.0000000000000000e+00  3.6158928156247735e-06 2.3445906426000463e-06 0.0000000000000000e+00  -3.6248848685057307e-06 -1.0902847549537656e-06 0.0000000000000000e+00  0.0000000000000000e+00 -9.3739204489210120e-07 0.0000000000000000e+00  1.5324092984808672e-06 5.7615375363686182e-06 0.0000000000000000e+00  0.0000000000000000e+00 0.0000000000000000e+00 0.0000000000000000e+00  3.0141742564577024e-06 1.3439590311417729e-06 0.0000000000000000e+00  -1.0489438225792818e-05 5.9127186880787205e-07 0.0000000000000000e+00  0.0000000000000000e+00 0.0000000000000000e+00 0.0000000000000000e+00  0.0000000000000000e+00 0.0000000000000000e+00 0.0000000000000000e+00  7.6436955237546337e-07 0.0000000000000000e+00 0.0000000000000000e+00  -2.4618345571578011e-08 -3.7196547088388877e-07 0.0000000000000000e+00  8.0179298867946077e-06 8.9314978175393758e-05 0.0000000000000000e+00  0.0000000000000000e+00 0.0000000000000000e+00 0.0000000000000000e+00  -5.8931556421909648e-06 4.7000087438788839e-06 0.0000000000000000e+00  5.3446968089257631e-08 6.1081612487143722e-08 0.0000000000000000e+00  9.1592065044184144e-07 -1.6712977534128685e-07 0.0000000000000000e+00  -8.8702265483047535e-06 3.9341283945252862e-06 0.0000000000000000e+00  -1.2221120052814870e-07 -4.4579789976468629e-08 0.0000000000000000e+00  -1.6757897607701226e-05 -6.1757005878813604e-07 0.0000000000000000e+00  3.4688379824790900e-06 0.0000000000000000e+00 0.0000000000000000e+00  -1.4226100189966809e-05 2.0792811241085179e-05 0.0000000000000000e+00  3.3108308429521760e-07 7.8802755006988276e-07 0.0000000000000000e+00  -3.9435499234988050e-07 0.0000000000000000e+00 0.0000000000000000e+00  0.0000000000000000e+00 0.0000000000000000e+00 0.0000000000000000e+00  0.0000000000000000e+00 0.0000000000000000e+00 0.0000000000000000e+00  1.4278212293953308e-06 1.0190918811599810e-06 0.0000000000000000e+00  -5.4116540990927122e-07 2.7725996570543984e-06 0.0000000000000000e+00  0.0000000000000000e+00 0.0000000000000000e+00 0.0000000000000000e+00  -6.0571492748300076e-07 -4.0605373549452550e-06 0.0000000000000000e+00  0.0000000000000000e+00 0.0000000000000000e+00 0.0000000000000000e+00  -1.2388566929973697e-07 -4.0132946413151682e-07 0.0000000000000000e+00  4.1918075678102734e-08 0.0000000000000000e+00 0.0000000000000000e+00  9.5804469252312553e-07 -1.4460204927510840e-06 0.0000000000000000e+00  0.0000000000000000e+00 -1.3434131287560053e-07 0.0000000000000000e+00  6.6637845451571828e-06 -3.9917270187066133e-06 0.0000000000000000e+00  0.0000000000000000e+00 0.0000000000000000e+00 0.0000000000000000e+00  6.8768916482798304e-07 4.2431248897506197e-07 0.0000000000000000e+00  0.0000000000000000e+00 1.6681377564050422e-06 0.0000000000000000e+00  0.0000000000000000e+00 -9.8133424725433042e-08 0.0000000000000000e+00  0.0000000000000000e+00 0.0000000000000000e+00 0.0000000000000000e+00  0.0000000000000000e+00 -5.7665491289833606e-08 0.0000000000000000e+00  5.6719325758307411e-06 -1.4972814037229864e-05 0.0000000000000000e+00  -1.7287685871717438e-05 8.2367879496953089e-06 0.0000000000000000e+00  -3.1735736106174148e-06 1.0391537011506583e-05 0.0000000000000000e+00  4.1972447065048600e-06 2.0485222620691607e-06 0.0000000000000000e+00  -1.6629491983850696e-06 -9.7672595187728282e-06 0.0000000000000000e+00  6.9324052273075173e-06 4.8841662652017104e-06 0.0000000000000000e+00  0.0000000000000000e+00 0.0000000000000000e+00 0.0000000000000000e+00  6.3303138713656296e-06 -7.2064821985187479e-06 0.0000000000000000e+00  0.0000000000000000e+00 0.0000000000000000e+00 0.0000000000000000e+00  0.0000000000000000e+00 0.0000000000000000e+00 0.0000000000000000e+00  0.0000000000000000e+00 -5.6203968187815045e-08 0.0000000000000000e+00  0.0000000000000000e+00 -6.7966448794838776e-08 0.0000000000000000e+00  0.0000000000000000e+00 0.0000000000000000e+00 0.0000000000000000e+00  -2.8772103278538565e-07 0.0000000000000000e+00 0.0000000000000000e+00  -1.2414844857316392e-07 -2.0531986082305716e-07 0.0000000000000000e+00  1.4050533713164714e+08 0.0000000000000000e+00 0.0000000000000000e+00  1.8895550538428050e+08 -2.5917817256503084e+08 0.0000000000000000e+00  1.7117873498501346e+07 1.9946736649541610e+08 0.0000000000000000e+00  -3.6686981499891117e+07 -1.5462562305834839e+07 0.0000000000000000e+00  -5.2987349566601500e+07 -2.1798416523612712e+07 0.0000000000000000e+00  -2.7600147280845005e+07 9.8814814475560725e+07 0.0000000000000000e+00  -3.4255765043185279e+07 -2.8962107045667672e+08 0.0000000000000000e+00  6.6206282468342178e+07 -2.1537752325926200e+08 0.0000000000000000e+00  1.8879341369911769e+08 1.1967668642264755e+08 0.0000000000000000e+00  9.5831403430783264e+06 1.9142693544934264e+08 0.0000000000000000e+00  7.7688596345202431e+07 -1.8057167586299959e+08 0.0000000000000000e+00  4.3824244837292492e+07 2.5741303192274716e+08 0.0000000000000000e+00  1.0868900385349490e+07 -3.3039838941392410e+08 0.0000000000000000e+00  -3.4068779578486490e+06 -1.0767423428857405e+08 0.0000000000000000e+00  -1.2588795895424126e+08 -1.3695562764858249e+08 0.0000000000000000e+00  1.8832257288879353e+08 -7.7277365532185793e+07 0.0000000000000000e+00  -1.2939011173859517e+08 1.4377691311446330e+08 0.0000000000000000e+00  -8.1177987949288443e+07 -1.6699283241260669e+08 0.0000000000000000e+00  -7.5324751004440486e+07 -4.8679931834636912e+07 0.0000000000000000e+00  -1.3357475569314764e+08 -1.1743404511279711e+08 0.0000000000000000e+00  1.6941681957983485e+08 2.9032742078462720e+08 0.0000000000000000e+00  1.9893074030213013e+08 -2.6029809732035199e+08 0.0000000000000000e+00  2.3883985658832896e+08 3.9117329491190732e+07 0.0000000000000000e+00  -1.9617290010942134e+08 3.0368876494291946e+07 0.0000000000000000e+00  -2.2657609620710671e+07 -1.8318695838459201e+07 0.0000000000000000e+00  1.4370426160485613e+08 -8.1252317176421851e+07 0.0000000000000000e+00  -5.1347788238288291e+07 2.4460158352611679e+08 0.0000000000000000e+00  -1.1655493352983495e+07 1.2290590906553330e+08 0.0000000000000000e+00  -2.0903417858298123e+08 -6.3667517653368399e+07 0.0000000000000000e+00  1.4886926434137550e+08 -9.5708601669618756e+07 0.0000000000000000e+00  -5.7534544543735184e+07 -1.6904767384400162e+08 0.0000000000000000e+00  6.4527874890582740e+07 -7.7651511672763661e+07 0.0000000000000000e+00  -3.9052267772179209e+07 9.5779929952804800e+06 0.0000000000000000e+00  -1.2015739668831682e+08 6.2031587434178615e+08 0.0000000000000000e+00  3.4819696085574728e+08 -2.9649481313585085e+08 0.0000000000000000e+00  2.1585227550281879e+08 -2.0727897597622880e+08 0.0000000000000000e+00  5.8424931913278770e+08 3.3879702336678833e+08 0.0000000000000000e+00  -1.4956836344697979e+08 -3.1464034681325847e+08 0.0000000000000000e+00  -2.9448199057085252e+08 -9.1070373085351273e+07 0.0000000000000000e+00  -2.5645331720468968e+08 -2.3695815282726911e+08 0.0000000000000000e+00  4.1375851013852648e+07 -3.4184505583424002e+08 0.0000000000000000e+00  -2.1270605320624554e+08 3.3531691399445832e+08 0.0000000000000000e+00  -9.8276402811832577e+06 1.4857366265572483e+07 0.0000000000000000e+00  -2.2629061348498568e+07 1.3402003420386535e+08 0.0000000000000000e+00  -2.8175325026940372e+07 -7.2541158507369027e+07 0.0000000000000000e+00  2.4790396994370994e+08 1.5820098668136442e+08 0.0000000000000000e+00  1.2674179479381735e+07 -1.7016984397304270e+08 0.0000000000000000e+00  5.0207541220807925e+07 -5.1296887261925839e+07 0.0000000000000000e+00  3.2704675402091807e+08 -1.1069489572645971e+08 0.0000000000000000e+00  -6.1912659875150152e+07 1.5727132114227861e+08 0.0000000000000000e+00  1.3960509914531213e+08 -2.7979053683917755e+08 0.0000000000000000e+00  1.4363816979141051e+08 8.1296303410497397e+07 0.0000000000000000e+00  -4.4613670881808221e+07 3.4055902359308195e+08 0.0000000000000000e+00  4.5477773879029639e+07 -2.2720638869378522e+08 0.0000000000000000e+00  1.7113874751764548e+08 -7.3514856522546321e+07 0.0000000000000000e+00  7.8619890125406206e+07 3.6073986186665088e+07 0.0000000000000000e+00  -1.0572409970732340e+08 -1.2923976675378811e+08 0.0000000000000000e+00  -3.9326444859659427e+08 1.8465555516117856e+08 0.0000000000000000e+00  5.5766150818142809e+07 -4.8403180856346928e+07 0.0000000000000000e+00  -6.2456703520162493e+07 2.3663171238797864e+08 0.0000000000000000e+00  -4.9687484466497993e+08 -1.6426356014594261e+07 0.0000000000000000e+00  -6.0079008827387519e+07 -1.2945703631931271e+08 0.0000000000000000e+00  -9.5606745117244348e+07 -9.7278952038168050e+06 0.0000000000000000e+00  -2.6064233660677220e+06 2.6050726042148639e+07 0.0000000000000000e+00  1.6862785927626714e+06 4.2471445913286634e+07 0.0000000000000000e+00  1.7467520410863781e+08 1.0643773442500862e+08 0.0000000000000000e+00  1.7621174057452928e+07 -2.0313600509306234e+08 0.0000000000000000e+00  -5.1541337705003232e+07 -1.9068384517373245e+07 0.0000000000000000e+00  -1.3449180277431838e+07 2.2131390564685270e+07 0.0000000000000000e+00  2.1334764438795194e+08 -7.0940323057688311e+07 0.0000000000000000e+00  3.7521695491303527e+08 8.5398769978328884e+07 0.0000000000000000e+00  -1.0483313801567881e+08 -1.3901788266729951e+08 0.0000000000000000e+00  -2.8925815988923091e+08 3.9296878058945197e+06 0.0000000000000000e+00  1.0682985049713266e+08 -4.5022931923113948e+08 0.0000000000000000e+00  4.2655553940050110e+07 2.5476704287421882e+08 0.0000000000000000e+00  -1.8251654511553922e+08 -6.1647514744445002e+08 0.0000000000000000e+00  -2.0246800046543127e+08 6.7853094990733087e+07 0.0000000000000000e+00  -1.8010687520331272e+08 -6.1389399312233925e+07 0.0000000000000000e+00  -3.7962403308881223e+08 6.2443047450800002e+07 0.0000000000000000e+00  -2.8137139243656003e+08 1.6983822003070450e+08 0.0000000000000000e+00  -2.8679455390165550e+08 0.0000000000000000e+00 0.0000000000000000e+00  -1.9697430914120609e+08 0.0000000000000000e+00 0.0000000000000000e+00  -1.1695928628864123e+08 -9.9022889474299610e+07 0.0000000000000000e+00  -1.8498692887696764e+08 -9.6207870866153792e+07 0.0000000000000000e+00  -2.1527878375340763e+08 -2.3101114539712602e+08 0.0000000000000000e+00  6.8104460956358805e+07 -4.5580325629708454e+07 0.0000000000000000e+00  5.9091974815509543e+07 -1.4617026879138721e+06 0.0000000000000000e+00  1.5959739732883736e+08 7.8415549831531227e+07 0.0000000000000000e+00  2.4045263671115461e+08 1.9936349094227704e+08 0.0000000000000000e+00  1.0894945704606479e+08 4.5725099032720037e+07 0.0000000000000000e+00  9.5663137252926961e+07 2.0116360357939386e+08 0.0000000000000000e+00  5.4343723148421953e+06 -1.5321334009147817e+08 0.0000000000000000e+00  7.4792283414419621e+07 -5.2766810264979824e+06 0.0000000000000000e+00  8.7888693265218902e+06 2.7704052255033404e+08 0.0000000000000000e+00  4.2281006428530894e+07 7.3784355198961139e+07 0.0000000000000000e+00  9.3914172141647741e+07 -2.6447343798938442e+07 0.0000000000000000e+00  -2.4969992605519004e+07 1.2446812016614820e+08 0.0000000000000000e+00  5.1498130638848245e+07 1.0101562879468690e+08 0.0000000000000000e+00  -2.8569633241238940e+08 -3.0787095133255046e+07 0.0000000000000000e+00  -1.7296502744950098e+08 3.1101035095852876e+08 0.0000000000000000e+00  4.7409381755101822e+07 -2.3267138231980368e+06 0.0000000000000000e+00  2.7243830889933121e+08 2.0657904173876319e+07 0.0000000000000000e+00  -4.7091521751815557e+07 1.5847303783525023e+08 0.0000000000000000e+00  1.8162094432877201e+08 1.8478874330154440e+08 0.0000000000000000e+00  2.8959076210783011e+08 1.9693454806634724e+08 0.0000000000000000e+00  -6.2021300133279257e+07 1.7553979805174464e+08 0.0000000000000000e+00  2.0344093639946377e+08 -2.8184511914486479e+05 0.0000000000000000e+00  -1.1908391402518490e+08 -5.7989277581510276e+07 0.0000000000000000e+00  -3.7616049094401979e+08 1.1542777035917056e+08 0.0000000000000000e+00  3.9737848575286317e+08 3.2674255757046515e+08 0.0000000000000000e+00  2.0968026092207235e+08 -5.3302132498397446e+08 0.0000000000000000e+00  5.8919468108210146e+08 2.6189008654914469e+08 0.0000000000000000e+00  3.5070489195568174e+08 -8.8772616820740148e+07 0.0000000000000000e+00  -1.4329159136234790e+08 2.8638606711487526e+08 0.0000000000000000e+00  -2.8540600800387609e+08 3.9625504137401521e+08 0.0000000000000000e+00  -1.1112523171891536e+08 4.5725433844722021e+08 0.0000000000000000e+00  -1.1020407287247846e+08 2.1454311358199754e+08 0.0000000000000000e+00  -3.0585638665824449e+08 -7.9441537918844312e+07 0.0000000000000000e+00  3.3991205763354443e+07 -5.3310239580099493e+07 0.0000000000000000e+00  -6.8058166523069426e+07 -1.2171677929773030e+08 0.0000000000000000e+00  -2.0490784848043925e+08 -3.1913398634369320e+08 0.0000000000000000e+00  8.5451432291391879e+07 -2.4859360693767080e+08 0.0000000000000000e+00  3.4349816891192752e+08 -1.0612048969032431e+07 0.0000000000000000e+00  1.2526823999176303e+08 5.7592468580567725e+07 0.0000000000000000e+00  1.3023551833180371e+08 1.0205917212719464e+08 0.0000000000000000e+00  9.4022308218937621e+07 1.3742827338104364e+08 0.0000000000000000e+00  2.1231715911541373e+08 -3.7541947990772888e+07 0.0000000000000000e+00  8.4844797001717702e+07 -2.3907778683684921e+08 0.0000000000000000e+00  3.7546965552864477e+07 -5.3991334787155718e+07 0.0000000000000000e+00  7.0955484727488384e+07 1.5062728930431066e+07 0.0000000000000000e+00  -2.1393959313396275e+07 -1.8165451847417194e+08 0.0000000000000000e+00  5.9879784242463022e+07 -1.5306437724216801e+08 0.0000000000000000e+00  -3.1464676095603235e+07 -2.8161886605306193e+06 0.0000000000000000e+00  1.5867024634894574e+08 3.7102020557502955e+07 0.0000000000000000e+00  -5.1267311260267776e+06 -2.4379354549840115e+07 0.0000000000000000e+00  6.5571852077643462e+07 4.5204137002742864e+07 0.0000000000000000e+00  7.0917705912015989e+07 2.1656412112251143e+06 0.0000000000000000e+00  3.3084361414230581e+07 6.6125969106004633e+07 0.0000000000000000e+00  6.7773740202997640e+07 -1.6779301603667411e+08 0.0000000000000000e+00  -2.6271292639498927e+07 2.8448719673614949e+08 0.0000000000000000e+00  -3.3996893500954553e+07 2.2060054752468249e+08 0.0000000000000000e+00  1.0922301581348110e+07 4.4010027757528692e+08 0.0000000000000000e+00  -1.4994074663280958e+08 -1.8062348671356693e+08 0.0000000000000000e+00  3.0144437684259683e+07 -9.3253596258231208e+07 0.0000000000000000e+00  -5.3594587860424615e+07 2.0053428348213341e+07 0.0000000000000000e+00  -8.2332058770512730e+07 -1.3573901117629960e+08 0.0000000000000000e+00  4.6354778193331674e+07 -1.5578355330975366e+08 0.0000000000000000e+00  -9.9296330960715692e+06 -1.0120558186188337e+08 0.0000000000000000e+00  -6.6507341036877580e+07 8.5346197448274046e+07 0.0000000000000000e+00  6.6827615565127514e+07 1.9420665062082455e+08 0.0000000000000000e+00  1.6175840620992821e+08 -1.5464133966410495e+07 0.0000000000000000e+00  1.0002233542065968e+08 9.7646060098115474e+07 0.0000000000000000e+00  1.5445825487362459e+08 -8.2770788710121244e+07 0.0000000000000000e+00  2.2417746300864574e+08 9.7583551391262516e+07 0.0000000000000000e+00  2.3557048068263146e+08 2.2647143001989886e+07 0.0000000000000000e+00  3.0415765780144340e+08 5.5013427441222742e+07 0.0000000000000000e+00  1.9448727701789224e+08 -7.3655234374893755e+07 0.0000000000000000e+00  2.6530730715213901e+08 -1.6099623789339948e+08 0.0000000000000000e+00  2.9425836142712516e+08 -3.8543243759371018e+08 0.0000000000000000e+00  -3.0650699059347928e+07 1.2085420566494574e+08 0.0000000000000000e+00  -2.1280303605851874e+08 -1.6687984922225344e+08 0.0000000000000000e+00  -5.1492284597611421e+08 2.8938922019516465e-07 0.0000000000000000e+00  -1.1839585394636789e+08 3.1971349109217953e-07 0.0000000000000000e+00  -1.9503564318121412e+08 -1.9535449399344474e+08 0.0000000000000000e+00  -1.0040178208555397e+08 -8.0696595597464358e+06 0.0000000000000000e+00  -7.2479208885182545e+07 -4.4869624805445068e+07 0.0000000000000000e+00  -2.8494107013823199e+08 2.7614945581570756e+07 0.0000000000000000e+00  -8.1486127534166381e+07 2.1188140637023628e+08 0.0000000000000000e+00  1.8864418415807104e+08 1.8658545518878758e+08 0.0000000000000000e+00  2.2789745257812312e+08 8.5611181893432170e+07 0.0000000000000000e+00  1.1170793236009757e+08 -2.0402194001071849e+08 0.0000000000000000e+00  -6.2697126169915963e+06 5.8568930650364928e+07 0.0000000000000000e+00  1.0782580141217346e+08 -8.2045493025543451e+07 0.0000000000000000e+00  4.0322568770179465e+07 1.0408999837269570e+08 0.0000000000000000e+00  -9.9870739863732651e+07 1.4853714570096660e+08 0.0000000000000000e+00  1.7708126736126381e+08 2.0970441068291140e+08 0.0000000000000000e+00  -3.8837993769498445e+07 -6.4617237685772315e+07 0.0000000000000000e+00  1.6442755077125841e+08 9.4632240759234831e+07 0.0000000000000000e+00  -8.2253955247337848e+07 2.3196809363359889e+08 0.0000000000000000e+00  -1.0789967967353182e+07 -1.6174583873037437e+06 0.0000000000000000e+00  2.8812602751221988e+07 5.6018608105200768e+07 0.0000000000000000e+00  -2.0962777716511336e+08 2.2507520716512701e+08 0.0000000000000000e+00  -1.6933814674927679e+08 -1.6466497534888491e+08 0.0000000000000000e+00  1.3772201290401179e+07 2.7651804440029792e+07 0.0000000000000000e+00  -8.9900164602799669e+07 2.5568357841126774e+07 0.0000000000000000e+00  -1.0656764279718505e+08 3.4499425494784141e+08 0.0000000000000000e+00  2.1421268187108475e+08 -3.0975429340672135e+08 0.0000000000000000e+00  3.6690090423833273e+07 1.3736224978729668e+08 0.0000000000000000e+00  2.1792727236411160e+08 1.5518947861707500e+08 0.0000000000000000e+00  2.8976670591007864e+08 -2.9739811516195938e+07 0.0000000000000000e+00  -4.4376657372056943e+08 9.4272576031818703e+07 0.0000000000000000e+00  -9.6337041429729834e+07 -3.0007802955073512e+08 0.0000000000000000e+00  1.0975585620704591e+08 -1.6181306301044568e+08 0.0000000000000000e+00  5.6526963384514423e+06 -7.6109667010796703e+06 0.0000000000000000e+00  -6.8264366362639904e+07 1.4044776328814188e+08 0.0000000000000000e+00  7.8598642875050738e+07 -5.5819925460608220e+08 0.0000000000000000e+00  1.4590244034474424e+08 1.8890264609737983e+08 0.0000000000000000e+00  -2.5446985188087368e+08 -2.5921003800882459e+08 0.0000000000000000e+00  -1.6744979638816568e+08 3.2605867436839032e+08 0.0000000000000000e+00  -2.1084769486021376e+08 -6.3126844837921552e+07