<?xml version="1.0"?>
<VTKFile type="UnstructuredGrid"  version="0.1"  >
<UnstructuredGrid>
<Piece  NumberOfPoints="1369" NumberOfCells="2560">
<Points>
<DataArray  type="Float64"  NumberOfComponents="3"  format="ascii">0 0 0  0.75 0 0  1.5 0 0  2.25 0 0  3 0 0  3.75 0 0  4.5 0 0  5.25 0 0  6 0 0  6.75 0 0  7.5 0 0  8.25 0 0  9 0 0  9.75 0 0  10.5 0 0  11.25 0 0  12 0 0  12.75 0 0  13.5 0 0  14.25 0 0  15 0 0  15.75 0 0  16.5 0 0  17.25 0 0  18 0 0  18.75 0 0  19.5 0 0  20.25 0 0  21 0 0  21.75 0 0  22.5 0 0  23.25 0 0  24 0 0  24.75 0 0  25.5 0 0  26.25 0 0  27 0 0  27.75 0 0  28.5 0 0  29.25 0 0  30 0 0  30.75 0 0  31.5 0 0  32.25 0 0  33 0 0  33.75 0 0  34.5 0 0  35.25 0 0  36 0 0  36.75 0 0  37.5 0 0  38.25 0 0  39 0 0  39.75 0 0  40.5 0 0  41.25 0 0  42 0 0  42.75 0 0  43.5 0 0  44.25 0 0  45 0 0  45.75 0 0  46.5 0 0  47.25 0 0  48 0 0  48.75 0 0  49.5 0 0  50.25 0 0  51 0 0  51.75 0 0  52.5 0 0  53.25 0 0  54 0 0  54.75 0 0  55.5 0 0  56.25 0 0  57 0 0  57.75 0 0  58.5 0 0  59.25 0 0  60 0 0  0 0.5 0  0.75 0.5 0  1.5 0.5 0  2.25 0.5 0  3 0.5 0  3.75 0.5 0  4.5 0.5 0  5.25 0.5 0  6 0.5 0  6.75 0.5 0  7.5 0.5 0  8.25 0.5 0  9 0.5 0  9.75 0.5 0  10.5 0.5 0  11.25 0.5 0  12 0.5 0  12.75 0.5 0  13.5 0.5 0  14.25 0.5 0  15 0.5 0  15.75 0.5 0  16.5 0.5 0  17.25 0.5 0  18 0.5 0  18.75 0.5 0  19.5 0.5 0  20.25 0.5 0  21 0.5 0  21.75 0.5 0  22.5 0.5 0  23.25 0.5 0  24 0.5 0  24.75 0.5 0  25.5 0.5 0  26.25 0.5 0  27 0.5 0  27.75 0.5 0  28.5 0.5 0  29.25 0.5 0  30 0.5 0  30.75 0.5 0  31.5 0.5 0  32.25 0.5 0  33 0.5 0  33.75 0.5 0  34.5 0.5 0  35.25 0.5 0  36 0.5 0  36.75 0.5 0  37.5 0.5 0  38.25 0.5 0  39 0.5 0  39.75 0.5 0  40.5 0.5 0  41.25 0.5 0  42 0.5 0  42.75 0.5 0  43.5 0.5 0  44.25 0.5 0  45 0.5 0  45.75 0.5 0  46.5 0.5 0  47.25 0.5 0  48 0.5 0  48.75 0.5 0  49.5 0.5 0  50.25 0.5 0  51 0.5 0  51.75 0.5 0  52.5 0.5 0  53.25 0.5 0  54 0.5 0  54.75 0.5 0  55.5 0.5 0  56.25 0.5 0  57 0.5 0  57.75 0.5 0  58.5 0.5 0  59.25 0.5 0  60 0.5 0  0 1 0  0.75 1 0  1.5 1 0  2.25 1 0  3 1 0  3.75 1 0  4.5 1 0  5.25 1 0  6 1 0  6.75 1 0  7.5 1 0  8.25 1 0  9 1 0  9.75 1 0  10.5 1 0  11.25 1 0  12 1 0  12.75 1 0  13.5 1 0  14.25 1 0  15 1 0  15.75 1 0  16.5 1 0  17.25 1 0  18 1 0  18.75 1 0  19.5 1 0  20.25 1 0  21 1 0  21.75 1 0  22.5 1 0  23.25 1 0  24 1 0  24.75 1 0  25.5 1 0  26.25 1 0  27 1 0  27.75 1 0  28.5 1 0  29.25 1 0  30 1 0  30.75 1 0  31.5 1 0  32.25 1 0  33 1 0  33.75 1 0  34.5 1 0  35.25 1 0  36 1 0  36.75 1 0  37.5 1 0  38.25 1 0  39 1 0  39.75 1 0  40.5 1 0  41.25 1 0  42 1 0  42.75 1 0  43.5 1 0  44.25 1 0  45 1 0  45.75 1 0  46.5 1 0  47.25 1 0  48 1 0  48.75 1 0  49.5 1 0  50.25 1 0  51 1 0  51.75 1 0  52.5 1 0  53.25 1 0  54 1 0  54.75 1 0  55.5 1 0  56.25 1 0  57 1 0  57.75 1 0  58.5 1 0  59.25 1 0  60 1 0  0 1.5 0  0.75 1.5 0  1.5 1.5 0  2.25 1.5 0  3 1.5 0  3.75 1.5 0  4.5 1.5 0  5.25 1.5 0  6 1.5 0  6.75 1.5 0  7.5 1.5 0  8.25 1.5 0  9 1.5 0  9.75 1.5 0  10.5 1.5 0  11.25 1.5 0  12 1.5 0  12.75 1.5 0  13.5 1.5 0  14.25 1.5 0  15 1.5 0  15.75 1.5 0  16.5 1.5 0  17.25 1.5 0  18 1.5 0  18.75 1.5 0  19.5 1.5 0  20.25 1.5 0  21 1.5 0  21.75 1.5 0  22.5 1.5 0  23.25 1.5 0  24 1.5 0  24.75 1.5 0  25.5 1.5 0  26.25 1.5 0  27 1.5 0  27.75 1.5 0  28.5 1.5 0  29.25 1.5 0  30 1.5 0  30.75 1.5 0  31.5 1.5 0  32.25 1.5 0  33 1.5 0  33.75 1.5 0  34.5 1.5 0  35.25 1.5 0  36 1.5 0  36.75 1.5 0  37.5 1.5 0  38.25 1.5 0  39 1.5 0  39.75 1.5 0  40.5 1.5 0  41.25 1.5 0  42 1.5 0  42.75 1.5 0  43.5 1.5 0  44.25 1.5 0  45 1.5 0  45.75 1.5 0  46.5 1.5 0  47.25 1.5 0  48 1.5 0  48.75 1.5 0  49.5 1.5 0  50.25 1.5 0  51 1.5 0  51.75 1.5 0  52.5 1.5 0  53.25 1.5 0  54 1.5 0  54.75 1.5 0  55.5 1.5 0  56.25 1.5 0  57 1.5 0  57.75 1.5 0  58.5 1.5 0  59.25 1.5 0  60 1.5 0  0 2 0  0.75 2 0  1.5 2 0  2.25 2 0  3 2 0  3.75 2 0  4.5 2 0  5.25 2 0  6 2 0  6.75 2 0  7.5 2 0  8.25 2 0  9 2 0  9.75 2 0  10.5 2 0  11.25 2 0  12 2 0  12.75 2 0  13.5 2 0  14.25 2 0  15 2 0  15.75 2 0  16.5 2 0  17.25 2 0  18 2 0  18.75 2 0  19.5 2 0  20.25 2 0  21 2 0  21.75 2 0  22.5 2 0  23.25 2 0  24 2 0  24.75 2 0  25.5 2 0  26.25 2 0  27 2 0  27.75 2 0  28.5 2 0  29.25 2 0  30 2 0  30.75 2 0  31.5 2 0  32.25 2 0  33 2 0  33.75 2 0  34.5 2 0  35.25 2 0  36 2 0  36.75 2 0  37.5 2 0  38.25 2 0  39 2 0  39.75 2 0  40.5 2 0  41.25 2 0  42 2 0  42.75 2 0  43.5 2 0  44.25 2 0  45 2 0  45.75 2 0  46.5 2 0  47.25 2 0  48 2 0  48.75 2 0  49.5 2 0  50.25 2 0  51 2 0  51.75 2 0  52.5 2 0  53.25 2 0  54 2 0  54.75 2 0  55.5 2 0  56.25 2 0  57 2 0  57.75 2 0  58.5 2 0  59.25 2 0  60 2 0  0 2.5 0  0.75 2.5 0  1.5 2.5 0  2.25 2.5 0  3 2.5 0  3.75 2.5 0  4.5 2.5 0  5.25 2.5 0  6 2.5 0  6.75 2.5 0  7.5 2.5 0  8.25 2.5 0  9 2.5 0  9.75 2.5 0  10.5 2.5 0  11.25 2.5 0  12 2.5 0  12.75 2.5 0  13.5 2.5 0  14.25 2.5 0  15 2.5 0  15.75 2.5 0  16.5 2.5 0  17.25 2.5 0  18 2.5 0  18.75 2.5 0  19.5 2.5 0  20.25 2.5 0  21 2.5 0  21.75 2.5 0  22.5 2.5 0  23.25 2.5 0  24 2.5 0  24.75 2.5 0  25.5 2.5 0  26.25 2.5 0  27 2.5 0  27.75 2.5 0  28.5 2.5 0  29.25 2.5 0  30 2.5 0  30.75 2.5 0  31.5 2.5 0  32.25 2.5 0  33 2.5 0  33.75 2.5 0  34.5 2.5 0  35.25 2.5 0  36 2.5 0  36.75 2.5 0  37.5 2.5 0  38.25 2.5 0  39 2.5 0  39.75 2.5 0  40.5 2.5 0  41.25 2.5 0  42 2.5 0  42.75 2.5 0  43.5 2.5 0  44.25 2.5 0  45 2.5 0  45.75 2.5 0  46.5 2.5 0  47.25 2.5 0  48 2.5 0  48.75 2.5 0  49.5 2.5 0  50.25 2.5 0  51 2.5 0  51.75 2.5 0  52.5 2.5 0  53.25 2.5 0  54 2.5 0  54.75 2.5 0  55.5 2.5 0  56.25 2.5 0  57 2.5 0  57.75 2.5 0  58.5 2.5 0  59.25 2.5 0  60 2.5 0  0 3 0  0.75 3 0  1.5 3 0  2.25 3 0  3 3 0  3.75 3 0  4.5 3 0  5.25 3 0  6 3 0  6.75 3 0  7.5 3 0  8.25 3 0  9 3 0  9.75 3 0  10.5 3 0  11.25 3 0  12 3 0  12.75 3 0  13.5 3 0  14.25 3 0  15 3 0  15.75 3 0  16.5 3 0  17.25 3 0  18 3 0  18.75 3 0  19.5 3 0  20.25 3 0  21 3 0  21.75 3 0  22.5 3 0  23.25 3 0  24 3 0  24.75 3 0  25.5 3 0  26.25 3 0  27 3 0  27.75 3 0  28.5 3 0  29.25 3 0  30 3 0  30.75 3 0  31.5 3 0  32.25 3 0  33 3 0  33.75 3 0  34.5 3 0  35.25 3 0  36 3 0  36.75 3 0  37.5 3 0  38.25 3 0  39 3 0  39.75 3 0  40.5 3 0  41.25 3 0  42 3 0  42.75 3 0  43.5 3 0  44.25 3 0  45 3 0  45.75 3 0  46.5 3 0  47.25 3 0  48 3 0  48.75 3 0  49.5 3 0  50.25 3 0  51 3 0  51.75 3 0  52.5 3 0  53.25 3 0  54 3 0  54.75 3 0  55.5 3 0  56.25 3 0  57 3 0  57.75 3 0  58.5 3 0  59.25 3 0  60 3 0  0 3.5 0  0.75 3.5 0  1.5 3.5 0  2.25 3.5 0  3 3.5 0  3.75 3.5 0  4.5 3.5 0  5.25 3.5 0  6 3.5 0  6.75 3.5 0  7.5 3.5 0  8.25 3.5 0  9 3.5 0  9.75 3.5 0  10.5 3.5 0  11.25 3.5 0  12 3.5 0  12.75 3.5 0  13.5 3.5 0  14.25 3.5 0  15 3.5 0  15.75 3.5 0  16.5 3.5 0  17.25 3.5 0  18 3.5 0  18.75 3.5 0  19.5 3.5 0  20.25 3.5 0  21 3.5 0  21.75 3.5 0  22.5 3.5 0  23.25 3.5 0  24 3.5 0  24.75 3.5 0  25.5 3.5 0  26.25 3.5 0  27 3.5 0  27.75 3.5 0  28.5 3.5 0  29.25 3.5 0  30 3.5 0  30.75 3.5 0  31.5 3.5 0  32.25 3.5 0  33 3.5 0  33.75 3.5 0  34.5 3.5 0  35.25 3.5 0  36 3.5 0  36.75 3.5 0  37.5 3.5 0  38.25 3.5 0  39 3.5 0  39.75 3.5 0  40.5 3.5 0  41.25 3.5 0  42 3.5 0  42.75 3.5 0  43.5 3.5 0  44.25 3.5 0  45 3.5 0  45.75 3.5 0  46.5 3.5 0  47.25 3.5 0  48 3.5 0  48.75 3.5 0  49.5 3.5 0  50.25 3.5 0  51 3.5 0  51.75 3.5 0  52.5 3.5 0  53.25 3.5 0  54 3.5 0  54.75 3.5 0  55.5 3.5 0  56.25 3.5 0  57 3.5 0  57.75 3.5 0  58.5 3.5 0  59.25 3.5 0  60 3.5 0  0 4 0  0.75 4 0  1.5 4 0  2.25 4 0  3 4 0  3.75 4 0  4.5 4 0  5.25 4 0  6 4 0  6.75 4 0  7.5 4 0  8.25 4 0  9 4 0  9.75 4 0  10.5 4 0  11.25 4 0  12 4 0  12.75 4 0  13.5 4 0  14.25 4 0  15 4 0  15.75 4 0  16.5 4 0  17.25 4 0  18 4 0  18.75 4 0  19.5 4 0  20.25 4 0  21 4 0  21.75 4 0  22.5 4 0  23.25 4 0  24 4 0  24.75 4 0  25.5 4 0  26.25 4 0  27 4 0  27.75 4 0  28.5 4 0  29.25 4 0  30 4 0  30.75 4 0  31.5 4 0  32.25 4 0  33 4 0  33.75 4 0  34.5 4 0  35.25 4 0  36 4 0  36.75 4 0  37.5 4 0  38.25 4 0  39 4 0  39.75 4 0  40.5 4 0  41.25 4 0  42 4 0  42.75 4 0  43.5 4 0  44.25 4 0  45 4 0  45.75 4 0  46.5 4 0  47.25 4 0  48 4 0  48.75 4 0  49.5 4 0  50.25 4 0  51 4 0  51.75 4 0  52.5 4 0  53.25 4 0  54 4 0  54.75 4 0  55.5 4 0  56.25 4 0  57 4 0  57.75 4 0  58.5 4 0  59.25 4 0  60 4 0  0.375 0.25 0  1.125 0.25 0  1.875 0.25 0  2.625 0.25 0  3.375 0.25 0  4.125 0.25 0  4.875 0.25 0  5.625 0.25 0  6.375 0.25 0  7.125 0.25 0  7.875 0.25 0  8.625 0.25 0  9.375 0.25 0  10.125 0.25 0  10.875 0.25 0  11.625 0.25 0  12.375 0.25 0  13.125 0.25 0  13.875 0.25 0  14.625 0.25 0  15.375 0.25 0  16.125 0.25 0  16.875 0.25 0  17.625 0.25 0  18.375 0.25 0  19.125 0.25 0  19.875 0.25 0  20.625 0.25 0  21.375 0.25 0  22.125 0.25 0  22.875 0.25 0  23.625 0.25 0  24.375 0.25 0  25.125 0.25 0  25.875 0.25 0  26.625 0.25 0  27.375 0.25 0  28.125 0.25 0  28.875 0.25 0  29.625 0.25 0  30.375 0.25 0  31.125 0.25 0  31.875 0.25 0  32.625 0.25 0  33.375 0.25 0  34.125 0.25 0  34.875 0.25 0  35.625 0.25 0  36.375 0.25 0  37.125 0.25 0  37.875 0.25 0  38.625 0.25 0  39.375 0.25 0  40.125 0.25 0  40.875 0.25 0  41.625 0.25 0  42.375 0.25 0  43.125 0.25 0  43.875 0.25 0  44.625 0.25 0  45.375 0.25 0  46.125 0.25 0  46.875 0.25 0  47.625 0.25 0  48.375 0.25 0  49.125 0.25 0  49.875 0.25 0  50.625 0.25 0  51.375 0.25 0  52.125 0.25 0  52.875 0.25 0  53.625 0.25 0  54.375 0.25 0  55.125 0.25 0  55.875 0.25 0  56.625 0.25 0  57.375 0.25 0  58.125 0.25 0  58.875 0.25 0  59.625 0.25 0  0.375 0.75 0  1.125 0.75 0  1.875 0.75 0  2.625 0.75 0  3.375 0.75 0  4.125 0.75 0  4.875 0.75 0  5.625 0.75 0  6.375 0.75 0  7.125 0.75 0  7.875 0.75 0  8.625 0.75 0  9.375 0.75 0  10.125 0.75 0  10.875 0.75 0  11.625 0.75 0  12.375 0.75 0  13.125 0.75 0  13.875 0.75 0  14.625 0.75 0  15.375 0.75 0  16.125 0.75 0  16.875 0.75 0  17.625 0.75 0  18.375 0.75 0  19.125 0.75 0  19.875 0.75 0  20.625 0.75 0  21.375 0.75 0  22.125 0.75 0  22.875 0.75 0  23.625 0.75 0  24.375 0.75 0  25.125 0.75 0  25.875 0.75 0  26.625 0.75 0  27.375 0.75 0  28.125 0.75 0  28.875 0.75 0  29.625 0.75 0  30.375 0.75 0  31.125 0.75 0  31.875 0.75 0  32.625 0.75 0  33.375 0.75 0  34.125 0.75 0  34.875 0.75 0  35.625 0.75 0  36.375 0.75 0  37.125 0.75 0  37.875 0.75 0  38.625 0.75 0  39.375 0.75 0  40.125 0.75 0  40
[...]
<PointData  Vectors="f_8-0"> 
<DataArray  type="Float64"  Name="f_8-0"  NumberOfComponents="3" format="ascii">0.0000000000000000e+00 -4.6570471597308459e-11 0.0000000000000000e+00  0.0000000000000000e+00 0.0000000000000000e+00 0.0000000000000000e+00  2.5636819277865326e-09 -3.1528755724249580e-09 0.0000000000000000e+00  5.9200857610406471e-08 -6.9456208462962265e-08 0.0000000000000000e+00  -1.5543425774699950e-09 8.4641983976485041e-10 0.0000000000000000e+00  0.0000000000000000e+00 0.0000000000000000e+00 0.0000000000000000e+00  8.9899980362952557e-10 0.0000000000000000e+00 0.0000000000000000e+00  -2.1252031033575976e-08 1.2829579507788933e-08 0.0000000000000000e+00  -2.2208425971286989e-09 1.6638257364514556e-08 0.0000000000000000e+00  0.0000000000000000e+00 0.0000000000000000e+00 0.0000000000000000e+00  1.1184338895533855e-09 1.3242084085938615e-09 0.0000000000000000e+00  -6.4222888593586873e-09 -2.3346871616619815e-08 0.0000000000000000e+00  0.0000000000000000e+00 0.0000000000000000e+00 0.0000000000000000e+00  0.0000000000000000e+00 0.0000000000000000e+00 0.0000000000000000e+00  0.0000000000000000e+00 -1.5778542049460491e-09 0.0000000000000000e+00  -7.3823465364701649e-09 0.0000000000000000e+00 0.0000000000000000e+00  -1.1495428567888891e-09 0.0000000000000000e+00 0.0000000000000000e+00  0.0000000000000000e+00 -6.1237332674913219e-10 0.0000000000000000e+00  5.0502543785536154e-08 0.0000000000000000e+00 0.0000000000000000e+00  0.0000000000000000e+00 0.0000000000000000e+00 0.0000000000000000e+00  -3.0198144129699743e-07 -3.5358101307735825e-08 0.0000000000000000e+00  -2.0739121548180644e-07 -3.6812127336872702e-08 0.0000000000000000e+00  0.0000000000000000e+00 0.0000000000000000e+00 0.0000000000000000e+00  1.6048420690971251e-09 1.6307451454594354e-08 0.0000000000000000e+00  -5.6195082148775435e-09 1.8850421572834640e-08 0.0000000000000000e+00  5.1534544293339214e-08 2.1387300053481054e-07 0.0000000000000000e+00  -8.9085563410657386e-08 3.7287379618200545e-07 0.0000000000000000e+00  -3.1447308211349989e-08 1.7782572621188993e-08 0.0000000000000000e+00  0.0000000000000000e+00 2.1841942769463533e-09 0.0000000000000000e+00  9.5829344974090713e-09 1.1477425923903061e-08 0.0000000000000000e+00  0.0000000000000000e+00 0.0000000000000000e+00 0.0000000000000000e+00  0.0000000000000000e+00 0.0000000000000000e+00 0.0000000000000000e+00  2.6404841450220441e-08 -6.2407018689337816e-09 0.0000000000000000e+00  1.1091156903654081e-08 6.9596853366574805e-11 0.0000000000000000e+00  0.0000000000000000e+00 3.9714258358440133e-10 0.0000000000000000e+00  2.9247336111045995e-09 1.0681293214852530e-09 0.0000000000000000e+00  -1.1008430325290766e-08 1.4942321987089822e-09 0.0000000000000000e+00  -1.5735554532491246e-08 -6.5375454611448352e-10 0.0000000000000000e+00  -1.6987707353906495e-09 6.8816676660760136e-09 0.0000000000000000e+00  2.3386724502551998e-09 -5.4729444599134338e-09 0.0000000000000000e+00  0.0000000000000000e+00 0.0000000000000000e+00 0.0000000000000000e+00  0.0000000000000000e+00 0.0000000000000000e+00 0.0000000000000000e+00  0.0000000000000000e+00 0.0000000000000000e+00 0.0000000000000000e+00  0.0000000000000000e+00 0.0000000000000000e+00 0.0000000000000000e+00  0.0000000000000000e+00 0.0000000000000000e+00 0.0000000000000000e+00  0.0000000000000000e+00 0.0000000000000000e+00 0.0000000000000000e+00  0.0000000000000000e+00 0.0000000000000000e+00 0.0000000000000000e+00  0.0000000000000000e+00 0.0000000000000000e+00 0.0000000000000000e+00  0.0000000000000000e+00 0.0000000000000000e+00 0.0000000000000000e+00  0.0000000000000000e+00 0.0000000000000000e+00 0.0000000000000000e+00  0.0000000000000000e+00 0.0000000000000000e+00 0.0000000000000000e+00  0.0000000000000000e+00 0.0000000000000000e+00 0.0000000000000000e+00  0.0000000000000000e+00 0.0000000000000000e+00 0.0000000000000000e+00  0.0000000000000000e+00 0.0000000000000000e+00 0.0000000000000000e+00  0.0000000000000000e+00 0.0000000000000000e+00 0.0000000000000000e+00  0.0000000000000000e+00 0.0000000000000000e+00 0.0000000000000000e+00  0.0000000000000000e+00 0.0000000000000000e+00 0.0000000000000000e+00  0.0000000000000000e+00 0.0000000000000000e+00 0.0000000000000000e+00  0.0000000000000000e+00 0.0000000000000000e+00 0.0000000000000000e+00  0.0000000000000000e+00 0.0000000000000000e+00 0.0000000000000000e+00  0.0000000000000000e+00 0.0000000000000000e+00 0.0000000000000000e+00  0.0000000000000000e+00 0.0000000000000000e+00 0.0000000000000000e+00  0.0000000000000000e+00 0.0000000000000000e+00 0.0000000000000000e+00  0.0000000000000000e+00 0.0000000000000000e+00 0.0000000000000000e+00  0.0000000000000000e+00 0.0000000000000000e+00 0.0000000000000000e+00  0.0000000000000000e+00 0.0000000000000000e+00 0.0000000000000000e+00  0.0000000000000000e+00 0.0000000000000000e+00 0.0000000000000000e+00  0.0000000000000000e+00 0.0000000000000000e+00 0.0000000000000000e+00  0.0000000000000000e+00 0.0000000000000000e+00 0.0000000000000000e+00  0.0000000000000000e+00 0.0000000000000000e+00 0.0000000000000000e+00  0.0000000000000000e+00 0.0000000000000000e+00 0.0000000000000000e+00  0.0000000000000000e+00 0.0000000000000000e+00 0.0000000000000000e+00  0.0000000000000000e+00 0.0000000000000000e+00 0.0000000000000000e+00  0.0000000000000000e+00 0.0000000000000000e+00 0.0000000000000000e+00  0.0000000000000000e+00 0.0000000000000000e+00 0.0000000000000000e+00  0.0000000000000000e+00 0.0000000000000000e+00 0.0000000000000000e+00  0.0000000000000000e+00 0.0000000000000000e+00 0.0000000000000000e+00  0.0000000000000000e+00 0.0000000000000000e+00 0.0000000000000000e+00  0.0000000000000000e+00 0.0000000000000000e+00 0.0000000000000000e+00  0.0000000000000000e+00 0.0000000000000000e+00 0.0000000000000000e+00  0.0000000000000000e+00 0.0000000000000000e+00 0.0000000000000000e+00  2.5500845529252107e+05 0.0000000000000000e+00 0.0000000000000000e+00  -8.2132763405847145e+04 1.2956096320519158e+05 0.0000000000000000e+00  3.2830657148392918e+05 -1.3951307116425005e+05 0.0000000000000000e+00  -9.8760844499452694e+04 1.4251326906259422e+05 0.0000000000000000e+00  4.1508083171403373e+05 -3.1109837363263941e+05 0.0000000000000000e+00  4.2886080836442037e+05 -1.1237191942068865e+05 0.0000000000000000e+00  9.9895334990826232e+04 -9.6286263390506021e+04 0.0000000000000000e+00  2.0764769999439362e+05 1.0062832920931659e+05 0.0000000000000000e+00  2.5215344840041714e+05 1.3055078255184282e+04 0.0000000000000000e+00  -2.0525961424454179e+05 1.4445501169201554e+05 0.0000000000000000e+00  -3.7825313323628472e+05 8.8736108745315723e+04 0.0000000000000000e+00  7.5774017153351524e+04 2.8172006343723135e+05 0.0000000000000000e+00  -4.5972785797967826e+05 -5.5324657431462267e+05 0.0000000000000000e+00  -8.6064850779770568e+04 7.9786012822863748e+04 0.0000000000000000e+00  -2.3071576068132432e+05 -1.1320552885436793e+06 0.0000000000000000e+00  -1.5385607932533274e+05 3.7118647409556863e+04 0.0000000000000000e+00  -1.8660940774838225e+05 -6.6149681198260761e+04 0.0000000000000000e+00  -3.5583688070729998e+05 1.9480758864691367e+05 0.0000000000000000e+00  6.6205171257653774e+05 -1.3365319632882972e+06 0.0000000000000000e+00  -3.6098648778194776e+06 7.4712033670387999e+05 0.0000000000000000e+00  2.4542421795067978e+06 2.5660201356167011e+06 0.0000000000000000e+00  -1.8770576366998116e+06 -2.8051155482817562e+06 0.0000000000000000e+00  -2.9092177537247492e+06 -5.2982545996023854e+05 0.0000000000000000e+00  -5.9660883280347486e+05 1.9584586621801867e+06 0.0000000000000000e+00  2.5057354546480910e+06 -2.8203167033258075e+05 0.0000000000000000e+00  -7.3813880216956648e+04 1.2357797064330713e+06 0.0000000000000000e+00  4.5014104789492092e+05 -4.3000671325952531e+05 0.0000000000000000e+00  -1.3709699995230557e+06 2.3356129879999431e+05 0.0000000000000000e+00  -2.4195586052059568e+05 -3.9346831439756090e+05 0.0000000000000000e+00  -1.1199429146173347e+06 4.0420692957340005e+04 0.0000000000000000e+00  7.4050155967704559e+04 -1.7443175875175983e+05 0.0000000000000000e+00  -3.6177100210883695e+05 1.8634193932542790e+05 0.0000000000000000e+00  8.3713659289373260e+04 -1.0639742847192493e+05 0.0000000000000000e+00  -1.7470265754550928e+05 5.3462580638303421e+04 0.0000000000000000e+00  -7.0169374726790469e+04 -3.4884271848057702e+04 0.0000000000000000e+00  -3.7038844891013068e+04 -3.4957708403769881e+04 0.0000000000000000e+00  -1.5106686390683119e+05 1.5907638964320318e+04 0.0000000000000000e+00  -8.6094476954237034e+04 -4.3195111651685627e+04 0.0000000000000000e+00  -1.2010381142447550e+04 3.1430652627598738e+04 0.0000000000000000e+00  -6.5682187815426587e+04 -2.3972587812648249e+04 0.0000000000000000e+00  2.6885094455350416e+04 3.1876431820709658e+04 0.0000000000000000e+00  -6.9611206206842995e+04 -4.0685881584322575e+04 0.0000000000000000e+00  2.3473159780233931e+04 1.3479341489530110e+04 0.0000000000000000e+00  7.9116572833925748e+03 -1.0279536086442751e+04 0.0000000000000000e+00  2.6655487129138677e+04 7.0822758419860565e+03 0.0000000000000000e+00  7.5331471530434146e+03 -1.3657482184657865e+04 0.0000000000000000e+00  -5.7713096606463041e+04 -3.4268890202783086e+03 0.0000000000000000e+00  -5.7119147356611713e+04 -2.1611186056231993e+04 0.0000000000000000e+00  -1.5832168259370819e+05 -1.7570195140564163e+04 0.0000000000000000e+00  -1.0187590774142083e+05 -3.1560168311799967e+04 0.0000000000000000e+00  -2.0176739713531939e+05 -2.0321006424397718e+04 0.0000000000000000e+00  -8.2598997834481561e+04 -3.5262970551248829e+04 0.0000000000000000e+00  -1.8081187348401203e+05 -7.9619130040451209e+03 0.0000000000000000e+00  -3.3647037938808600e+04 -2.8423241241304066e+04 0.0000000000000000e+00  -1.3067156888944945e+05 5.1714361019715343e+03 0.0000000000000000e+00  -6.3499048583004223e+03 -1.6831880409525340e+04 0.0000000000000000e+00  -8.2631481340997954e+04 4.6254278749125133e+03 0.0000000000000000e+00  -9.4128854921186230e+03 -7.2444770919970588e+03 0.0000000000000000e+00  -4.4536369532801065e+04 -1.3440753912943719e+03 0.0000000000000000e+00  -1.5506264465751814e+04 -2.9858023419740070e+03 0.0000000000000000e+00  -2.1008885270699815e+04 -2.3896470185646895e+03 0.0000000000000000e+00  -1.2902345632808434e+04 -1.8499252064449813e+03 0.0000000000000000e+00  -1.0720814407954404e+04 -1.5491603879144625e+03 0.0000000000000000e+00  -7.8449873262601932e+03 -1.1796624474523924e+03 0.0000000000000000e+00  -5.9073185263954847e+03 -9.1376959600270641e+02 0.0000000000000000e+00  -4.3922370610824537e+03 -6.9382704949905076e+02 0.0000000000000000e+00  -3.2637126063674027e+03 -5.2424227180037713e+02 0.0000000000000000e+00  -2.4204237070240792e+03 -3.9364032368910108e+02 0.0000000000000000e+00  -1.7935101670285146e+03 -2.9434369361408613e+02 0.0000000000000000e+00  -1.3283923488214880e+03 -2.1935159081717146e+02 0.0000000000000000e+00  -9.8392611430523027e+02 -1.6301218920092614e+02 0.0000000000000000e+00  -7.2920580892893588e+02 -1.2082887581671552e+02 0.0000000000000000e+00  -5.4118823578265813e+02 -8.9301388682064697e+01 0.0000000000000000e+00  -4.0277071237815142e+02 -6.5738432996145647e+01 0.0000000000000000e+00  -3.0131668725729259e+02 -4.8086885519666957e+01 0.0000000000000000e+00  -2.2754145822079093e+02 -3.4785404035372295e+01 0.0000000000000000e+00  -1.7468183721632906e+02 -2.4644413727208914e+01 0.0000000000000000e+00  -1.3788751170691867e+02 -1.6748141603270803e+01 0.0000000000000000e+00  -1.1376157900927164e+02 -1.0380670325096787e+01 0.0000000000000000e+00  -1.0004279758292492e+02 -4.8498229294122339e+00 0.0000000000000000e+00  -9.3082430549549329e+01 0.0000000000000000e+00 0.0000000000000000e+00  -4.4593197633779427e+05 0.0000000000000000e+00 0.0000000000000000e+00  2.0841319307559639e+04 3.4290417236459046e+05 0.0000000000000000e+00  3.1842382096101013e+04 -1.9823998043537364e+05 0.0000000000000000e+00  -4.3585490134262349e+04 -2.5565425926540655e+05 0.0000000000000000e+00  6.0550733041077305e+05 -4.7213927907477546e+05 0.0000000000000000e+00  8.5120323140262946e+04 9.6926294309699122e+04 0.0000000000000000e+00  -6.3013639079613138e+04 -1.2782785198634371e+05 0.0000000000000000e+00  1.7339169501318972e+05 1.7308717688539627e+05 0.0000000000000000e+00  1.6627769576191303e+05 -6.1483381791774606e+04 0.0000000000000000e+00  1.5667656505589289e+05 -3.6862220224112453e+05 0.0000000000000000e+00  2.2136989623500561e+05 -1.5578552967544066e+05 0.0000000000000000e+00  1.9216895906390584e+05 -7.0651536231926701e+04 0.0000000000000000e+00  -6.8514058180093809e+04 -1.7630506063021484e+05 0.0000000000000000e+00  1.9232173237450246e+05 -1.5207287822541615e+05 0.0000000000000000e+00  5.5109918159728916e+05 6.9624827135972722e+04 0.0000000000000000e+00  -7.8271838723338937e+04 -3.4736816054729646e+05 0.0000000000000000e+00  -1.3032490796749727e+05 -4.3588300748736336e+05 0.0000000000000000e+00  2.2595800345010500e+05 1.3143781025876345e+06 0.0000000000000000e+00  -2.0943571803729068e+06 1.0698294744345003e+06 0.0000000000000000e+00  -1.8561463456397522e+06 3.5407529808380053e+05 0.0000000000000000e+00  -1.1425292054518121e+06 -2.4980762858155370e+06 0.0000000000000000e+00  -1.8726164368606368e+06 1.0754032516917961e+06 0.0000000000000000e+00  -1.1101896682983504e+06 -2.3798998382729283e+06 0.0000000000000000e+00  6.8464853652171895e+05 3.9399945055503305e+06 0.0000000000000000e+00  2.0138568613944780e+06 1.1504265943757701e+06 0.0000000000000000e+00  1.3594929908879828e+06 5.6473944758948244e+04 0.0000000000000000e+00  6.2477236741274782e+05 7.5346017239716067e+05 0.0000000000000000e+00  2.3449378690770050e+05 1.8937028432500520e+05 0.0000000000000000e+00  -2.3543436102966105e+04 -1.4894026778725992e+05 0.0000000000000000e+00  -3.4920111314652127e+05 6.3398295872238641e+03 0.0000000000000000e+00  -2.1295233353152647e+05 -3.2336949966552103e+05 0.0000000000000000e+00  -2.3652727295315205e+05 -2.9775349490167928e+03 0.0000000000000000e+00  -1.5597479763782670e+05 -8.5340346629540873e+04 0.0000000000000000e+00  -8.8472224810478176e+04 1.3829673481580669e+04 0.0000000000000000e+00  -1.4502999835338697e+05 5.8599680057023907e+04 0.0000000000000000e+00  -1.3816681795439735e+05 -9.9662503095581906e+03 0.0000000000000000e+00  -2.4264490829537192e+05 1.7936216880209147e+04 0.0000000000000000e+00  9.8644472134797797e+03 3.2802305858145126e+04 0.0000000000000000e+00  -2.1358859267602151e+05 -4.3747190540420830e+04 0.0000000000000000e+00  -2.3493289951345861e+04 -2.2790977140262708e+04 0.0000000000000000e+00  -9.9076167926310081e+04 1.8910663386951663e+04 0.0000000000000000e+00  9.0916546414432902e+04 -3.6699095411075657e+04 0.0000000000000000e+00  -1.1024788412262290e+05 -2.8489055865474998e+03 0.0000000000000000e+00  1.6434412391965758e+05 -1.0203305567559415e+04 0.0000000000000000e+00  -4.7070117320459110e+04 3.0111960563573753e+04 0.0000000000000000e+00  6.4848381134472242e+04 -5.9449326613855890e+04 0.0000000000000000e+00  -3.5817925453810458e+04 3.8990113228308954e+04 0.0000000000000000e+00  2.7922596622016634e+04 -6.0379510816154972e+04 0.0000000000000000e+00  -6.8684200347110789e+04 3.7041959078317115e+04 0.0000000000000000e+00  -5.1134360764614117e+04 -8.1309504218884715e+04 0.0000000000000000e+00  -1.1822355854773002e+05 2.1635917452560483e+04 0.0000000000000000e+00  -8.5862403107350488e+04 -9.1282610402388163e+04 0.0000000000000000e+00  -1.3357562868829191e+05 7.9087839738824423e+03 0.0000000000000000e+00  -7.4937842231246657e+04 -7.2340378280055418e+04 0.0000000000000000e+00  -1.0059928748903143e+05 7.0988281703664352e+03 0.0000000000000000e+00  -5.2929873794404441e+04 -4.1047179778639780e+04 0.0000000000000000e+00  -5.5762854560087391e+04 5.0187769877386081e+03 0.0000000000000000e+00  -3.8450411940577920e+04 -1.9417087216118915e+04 0.0000000000000000e+00  -2.8771180248534729e+04 -1.8888043196528924e+03 0.0000000000000000e+00  -2.5587171974232373e+04 -9.2804087217468896e+03 0.0000000000000000e+00  -1.6887096667136058e+04 -4.3872076647374543e+03 0.0000000000000000e+00  -1.4339638061760377e+04 -4.7417801144567866e+03 0.0000000000000000e+00  -1.0222577532696969e+04 -3.3480838081005572e+03 0.0000000000000000e+00  -7.8199854176302406e+03 -2.6711386206228649e+03 0.0000000000000000e+00  -5.7925167859816056e+03 -2.0215799587327770e+03 0.0000000000000000e+00  -4.3114328090587396e+03 -1.5335180426464776e+03 0.0000000000000000e+00  -3.1974047108020604e+03 -1.1538027045791048e+03 0.0000000000000000e+00  -2.3694305087409393e+03 -8.6441292475590217e+02 0.0000000000000000e+00  -1.7546618309807886e+03 -6.4522448985408118e+02 0.0000000000000000e+00  -1.2991137401968858e+03 -4.8023690685461031e+02 0.0000000000000000e+00  -9.6198322825874868e+02 -3.5656509999233697e+02 0.0000000000000000e+00  -7.1281311083147796e+02 -2.6411966382753036e+02 0.0000000000000000e+00  -5.2895464562936399e+02 -1.9510879838809387e+02 0.0000000000000000e+00  -3.9363051199652313e+02 -1.4357648942015174e+02 0.0000000000000000e+00  -2.9445978581149694e+02 -1.0499720373386793e+02 0.0000000000000000e+00  -2.2235302690532083e+02 -7.5939294416714972e+01 0.0000000000000000e+00  -1.7069319394127260e+02 -5.3793402349483259e+01 0.0000000000000000e+00  -1.3473453104657841e+02 -3.6557546662235524e+01 0.0000000000000000e+00  -1.1117159554888889e+02 -2.2662935841927723e+01 0.0000000000000000e+00  -9.7831092215060394e+01 -1.0903046727397703e+01 0.0000000000000000e+00  -9.3239077025543551e+01 0.0000000000000000e+00 0.0000000000000000e+00  -2.0806664931251638e+05 -5.6653247417611748e-11 0.0000000000000000e+00  -2.7456116447232862e+05 7.7044162509607297e+04 0.0000000000000000e+00  8.7361032386439634e+04 -8.9987976951575765e+04 0.0000000000000000e+00  -4.8407617235775042e+05 -3.1909706703383377e+05 0.0000000000000000e+00  3.8739199731031223e+05 -1.6511706111804664e+05 0.0000000000000000e+00  -5.9559383345786133e+04 -2.4065520412246088e+05 0.0000000000000000e+00  4.2502955764581647e+05 -7.5843794540665724e+04 0.0000000000000000e+00  -4.4385408077986620e+04 1.4341534549870834e+04 0.0000000000000000e+00  9.4628755069865045e+04 -1.4112451952712002e+05 0.0000000000000000e+00  3.8907513893074181e+05 -1.2510610391771715e+05 0.0000000000000000e+00  -4.0191856399645412e+05 -4.9206452238807411e+04 0.0000000000000000e+00  -1.6018297833799286e+05 3.3372838623231713e+05 0.0000000000000000e+00  3.3107619834871759e+05 -3.7485617685411143e+05 0.0000000000000000e+00  7.0258074308275059e+05 -1.9644423157997604e+05 0.0000000000000000e+00  1.8540604110617755e+05 6.5841285874846930e+04 0.0000000000000000e+00  6.5189401887267653e+05 1.1013116489986223e+05 0.0000000000000000e+00  6.0038765976546740e+05 8.0187822171505180e+05 0.0000000000000000e+00  4.4765593887573498e+05 4.4289377476882015e+05 0.0000000000000000e+00  -4.9101885849782720e+05 -3.2318753652699746e+05 0.0000000000000000e+00  5.4745236307955533e+05 -3.5442683940802695e+05 0.0000000000000000e+00  1.2389336094967234e+05 -1.1549354718776757e+06 0.0000000000000000e+00  5.2302264074530703e+05 -2.3901670197374024e+06 0.0000000000000000e+00  -7.3961892291097017e+05 2.6109089383853489e+05 0.0000000000000000e+00  -3.1523366230916805e+06 -1.2132282273235491e+06 0.0000000000000000e+00  -3.0913603822012609e+06 1.9570388749156373e+06 0.0000000000000000e+00  -3.2548272799621627e+05 1.5686564306971288e+05 0.0000000000000000e+00  1.2425352765623434e+06 4.3502611768801446e+05 0.0000000000000000e+00  4.5729729825731606e+05 7.0041041920939111e+05 0.0000000000000000e+00  2.4814716318494265e+05 2.5101838320509248e+05 0.0000000000000000e+00  -6.0926376949352307e+04 -2.4553702833689642e+05 0.0000000000000000e+00  -3.9691293773502002e+04 -1.2458203020610579e+05 0.0000000000000000e+00  -1.6160861334334753e+05 -2.2239965624336823e+05 0.0000000000000000e+00  -5.2355058462980051e+04 -1.9751561994677671e+04 0.0000000000000000e+00  -5.5609326542430339e+04 -1.5115058531562356e+04 0.0000000000000000e+00  -9.5443547182171445e+04 -1.1689732734225276e+04 0.0000000000000000e+00  1.3890010978587181e+05 1.0999693368528067e+05 0.0000000000000000e+00  -2.2263676741899294e+05 -1.8323046094578138e+04 0.0000000000000000e