<?xml version="1.0"?>
<VTKFile type="UnstructuredGrid"  version="0.1"  >
<UnstructuredGrid>
<Piece  NumberOfPoints="1369" NumberOfCells="2560">
<Points>
<DataArray  type="Float64"  NumberOfComponents="3"  format="ascii">0 0 0  0.75 0 0  1.5 0 0  2.25 0 0  3 0 0  3.75 0 0  4.5 0 0  5.25 0 0  6 0 0  6.75 0 0  7.5 0 0  8.25 0 0  9 0 0  9.75 0 0  10.5 0 0  11.25 0 0  12 0 0  12.75 0 0  13.5 0 0  14.25 0 0  15 0 0  15.75 0 0  16.5 0 0  17.25 0 0  18 0 0  18.75 0 0  19.5 0 0  20.25 0 0  21 0 0  21.75 0 0  22.5 0 0  23.25 0 0  24 0 0  24.75 0 0  25.5 0 0  26.25 0 0  27 0 0  27.75 0 0  28.5 0 0  29.25 0 0  30 0 0  30.75 0 0  31.5 0 0  32.25 0 0  33 0 0  33.75 0 0  34.5 0 0  35.25 0 0  36 0 0  36.75 0 0  37.5 0 0  38.25 0 0  39 0 0  39.75 0 0  40.5 0 0  41.25 0 0  42 0 0  42.75 0 0  43.5 0 0  44.25 0 0  45 0 0  45.75 0 0  46.5 0 0  47.25 0 0  48 0 0  48.75 0 0  49.5 0 0  50.25 0 0  51 0 0  51.75 0 0  52.5 0 0  53.25 0 0  54 0 0  54.75 0 0  55.5 0 0  56.25 0 0  57 0 0  57.75 0 0  58.5 0 0  59.25 0 0  60 0 0  0 0.5 0  0.75 0.5 0  1.5 0.5 0  2.25 0.5 0  3 0.5 0  3.75 0.5 0  4.5 0.5 0  5.25 0.5 0  6 0.5 0  6.75 0.5 0  7.5 0.5 0  8.25 0.5 0  9 0.5 0  9.75 0.5 0  10.5 0.5 0  11.25 0.5 0  12 0.5 0  12.75 0.5 0  13.5 0.5 0  14.25 0.5 0  15 0.5 0  15.75 0.5 0  16.5 0.5 0  17.25 0.5 0  18 0.5 0  18.75 0.5 0  19.5 0.5 0  20.25 0.5 0  21 0.5 0  21.75 0.5 0  22.5 0.5 0  23.25 0.5 0  24 0.5 0  24.75 0.5 0  25.5 0.5 0  26.25 0.5 0  27 0.5 0  27.75 0.5 0  28.5 0.5 0  29.25 0.5 0  30 0.5 0  30.75 0.5 0  31.5 0.5 0  32.25 0.5 0  33 0.5 0  33.75 0.5 0  34.5 0.5 0  35.25 0.5 0  36 0.5 0  36.75 0.5 0  37.5 0.5 0  38.25 0.5 0  39 0.5 0  39.75 0.5 0  40.5 0.5 0  41.25 0.5 0  42 0.5 0  42.75 0.5 0  43.5 0.5 0  44.25 0.5 0  45 0.5 0  45.75 0.5 0  46.5 0.5 0  47.25 0.5 0  48 0.5 0  48.75 0.5 0  49.5 0.5 0  50.25 0.5 0  51 0.5 0  51.75 0.5 0  52.5 0.5 0  53.25 0.5 0  54 0.5 0  54.75 0.5 0  55.5 0.5 0  56.25 0.5 0  57 0.5 0  57.75 0.5 0  58.5 0.5 0  59.25 0.5 0  60 0.5 0  0 1 0  0.75 1 0  1.5 1 0  2.25 1 0  3 1 0  3.75 1 0  4.5 1 0  5.25 1 0  6 1 0  6.75 1 0  7.5 1 0  8.25 1 0  9 1 0  9.75 1 0  10.5 1 0  11.25 1 0  12 1 0  12.75 1 0  13.5 1 0  14.25 1 0  15 1 0  15.75 1 0  16.5 1 0  17.25 1 0  18 1 0  18.75 1 0  19.5 1 0  20.25 1 0  21 1 0  21.75 1 0  22.5 1 0  23.25 1 0  24 1 0  24.75 1 0  25.5 1 0  26.25 1 0  27 1 0  27.75 1 0  28.5 1 0  29.25 1 0  30 1 0  30.75 1 0  31.5 1 0  32.25 1 0  33 1 0  33.75 1 0  34.5 1 0  35.25 1 0  36 1 0  36.75 1 0  37.5 1 0  38.25 1 0  39 1 0  39.75 1 0  40.5 1 0  41.25 1 0  42 1 0  42.75 1 0  43.5 1 0  44.25 1 0  45 1 0  45.75 1 0  46.5 1 0  47.25 1 0  48 1 0  48.75 1 0  49.5 1 0  50.25 1 0  51 1 0  51.75 1 0  52.5 1 0  53.25 1 0  54 1 0  54.75 1 0  55.5 1 0  56.25 1 0  57 1 0  57.75 1 0  58.5 1 0  59.25 1 0  60 1 0  0 1.5 0  0.75 1.5 0  1.5 1.5 0  2.25 1.5 0  3 1.5 0  3.75 1.5 0  4.5 1.5 0  5.25 1.5 0  6 1.5 0  6.75 1.5 0  7.5 1.5 0  8.25 1.5 0  9 1.5 0  9.75 1.5 0  10.5 1.5 0  11.25 1.5 0  12 1.5 0  12.75 1.5 0  13.5 1.5 0  14.25 1.5 0  15 1.5 0  15.75 1.5 0  16.5 1.5 0  17.25 1.5 0  18 1.5 0  18.75 1.5 0  19.5 1.5 0  20.25 1.5 0  21 1.5 0  21.75 1.5 0  22.5 1.5 0  23.25 1.5 0  24 1.5 0  24.75 1.5 0  25.5 1.5 0  26.25 1.5 0  27 1.5 0  27.75 1.5 0  28.5 1.5 0  29.25 1.5 0  30 1.5 0  30.75 1.5 0  31.5 1.5 0  32.25 1.5 0  33 1.5 0  33.75 1.5 0  34.5 1.5 0  35.25 1.5 0  36 1.5 0  36.75 1.5 0  37.5 1.5 0  38.25 1.5 0  39 1.5 0  39.75 1.5 0  40.5 1.5 0  41.25 1.5 0  42 1.5 0  42.75 1.5 0  43.5 1.5 0  44.25 1.5 0  45 1.5 0  45.75 1.5 0  46.5 1.5 0  47.25 1.5 0  48 1.5 0  48.75 1.5 0  49.5 1.5 0  50.25 1.5 0  51 1.5 0  51.75 1.5 0  52.5 1.5 0  53.25 1.5 0  54 1.5 0  54.75 1.5 0  55.5 1.5 0  56.25 1.5 0  57 1.5 0  57.75 1.5 0  58.5 1.5 0  59.25 1.5 0  60 1.5 0  0 2 0  0.75 2 0  1.5 2 0  2.25 2 0  3 2 0  3.75 2 0  4.5 2 0  5.25 2 0  6 2 0  6.75 2 0  7.5 2 0  8.25 2 0  9 2 0  9.75 2 0  10.5 2 0  11.25 2 0  12 2 0  12.75 2 0  13.5 2 0  14.25 2 0  15 2 0  15.75 2 0  16.5 2 0  17.25 2 0  18 2 0  18.75 2 0  19.5 2 0  20.25 2 0  21 2 0  21.75 2 0  22.5 2 0  23.25 2 0  24 2 0  24.75 2 0  25.5 2 0  26.25 2 0  27 2 0  27.75 2 0  28.5 2 0  29.25 2 0  30 2 0  30.75 2 0  31.5 2 0  32.25 2 0  33 2 0  33.75 2 0  34.5 2 0  35.25 2 0  36 2 0  36.75 2 0  37.5 2 0  38.25 2 0  39 2 0  39.75 2 0  40.5 2 0  41.25 2 0  42 2 0  42.75 2 0  43.5 2 0  44.25 2 0  45 2 0  45.75 2 0  46.5 2 0  47.25 2 0  48 2 0  48.75 2 0  49.5 2 0  50.25 2 0  51 2 0  51.75 2 0  52.5 2 0  53.25 2 0  54 2 0  54.75 2 0  55.5 2 0  56.25 2 0  57 2 0  57.75 2 0  58.5 2 0  59.25 2 0  60 2 0  0 2.5 0  0.75 2.5 0  1.5 2.5 0  2.25 2.5 0  3 2.5 0  3.75 2.5 0  4.5 2.5 0  5.25 2.5 0  6 2.5 0  6.75 2.5 0  7.5 2.5 0  8.25 2.5 0  9 2.5 0  9.75 2.5 0  10.5 2.5 0  11.25 2.5 0  12 2.5 0  12.75 2.5 0  13.5 2.5 0  14.25 2.5 0  15 2.5 0  15.75 2.5 0  16.5 2.5 0  17.25 2.5 0  18 2.5 0  18.75 2.5 0  19.5 2.5 0  20.25 2.5 0  21 2.5 0  21.75 2.5 0  22.5 2.5 0  23.25 2.5 0  24 2.5 0  24.75 2.5 0  25.5 2.5 0  26.25 2.5 0  27 2.5 0  27.75 2.5 0  28.5 2.5 0  29.25 2.5 0  30 2.5 0  30.75 2.5 0  31.5 2.5 0  32.25 2.5 0  33 2.5 0  33.75 2.5 0  34.5 2.5 0  35.25 2.5 0  36 2.5 0  36.75 2.5 0  37.5 2.5 0  38.25 2.5 0  39 2.5 0  39.75 2.5 0  40.5 2.5 0  41.25 2.5 0  42 2.5 0  42.75 2.5 0  43.5 2.5 0  44.25 2.5 0  45 2.5 0  45.75 2.5 0  46.5 2.5 0  47.25 2.5 0  48 2.5 0  48.75 2.5 0  49.5 2.5 0  50.25 2.5 0  51 2.5 0  51.75 2.5 0  52.5 2.5 0  53.25 2.5 0  54 2.5 0  54.75 2.5 0  55.5 2.5 0  56.25 2.5 0  57 2.5 0  57.75 2.5 0  58.5 2.5 0  59.25 2.5 0  60 2.5 0  0 3 0  0.75 3 0  1.5 3 0  2.25 3 0  3 3 0  3.75 3 0  4.5 3 0  5.25 3 0  6 3 0  6.75 3 0  7.5 3 0  8.25 3 0  9 3 0  9.75 3 0  10.5 3 0  11.25 3 0  12 3 0  12.75 3 0  13.5 3 0  14.25 3 0  15 3 0  15.75 3 0  16.5 3 0  17.25 3 0  18 3 0  18.75 3 0  19.5 3 0  20.25 3 0  21 3 0  21.75 3 0  22.5 3 0  23.25 3 0  24 3 0  24.75 3 0  25.5 3 0  26.25 3 0  27 3 0  27.75 3 0  28.5 3 0  29.25 3 0  30 3 0  30.75 3 0  31.5 3 0  32.25 3 0  33 3 0  33.75 3 0  34.5 3 0  35.25 3 0  36 3 0  36.75 3 0  37.5 3 0  38.25 3 0  39 3 0  39.75 3 0  40.5 3 0  41.25 3 0  42 3 0  42.75 3 0  43.5 3 0  44.25 3 0  45 3 0  45.75 3 0  46.5 3 0  47.25 3 0  48 3 0  48.75 3 0  49.5 3 0  50.25 3 0  51 3 0  51.75 3 0  52.5 3 0  53.25 3 0  54 3 0  54.75 3 0  55.5 3 0  56.25 3 0  57 3 0  57.75 3 0  58.5 3 0  59.25 3 0  60 3 0  0 3.5 0  0.75 3.5 0  1.5 3.5 0  2.25 3.5 0  3 3.5 0  3.75 3.5 0  4.5 3.5 0  5.25 3.5 0  6 3.5 0  6.75 3.5 0  7.5 3.5 0  8.25 3.5 0  9 3.5 0  9.75 3.5 0  10.5 3.5 0  11.25 3.5 0  12 3.5 0  12.75 3.5 0  13.5 3.5 0  14.25 3.5 0  15 3.5 0  15.75 3.5 0  16.5 3.5 0  17.25 3.5 0  18 3.5 0  18.75 3.5 0  19.5 3.5 0  20.25 3.5 0  21 3.5 0  21.75 3.5 0  22.5 3.5 0  23.25 3.5 0  24 3.5 0  24.75 3.5 0  25.5 3.5 0  26.25 3.5 0  27 3.5 0  27.75 3.5 0  28.5 3.5 0  29.25 3.5 0  30 3.5 0  30.75 3.5 0  31.5 3.5 0  32.25 3.5 0  33 3.5 0  33.75 3.5 0  34.5 3.5 0  35.25 3.5 0  36 3.5 0  36.75 3.5 0  37.5 3.5 0  38.25 3.5 0  39 3.5 0  39.75 3.5 0  40.5 3.5 0  41.25 3.5 0  42 3.5 0  42.75 3.5 0  43.5 3.5 0  44.25 3.5 0  45 3.5 0  45.75 3.5 0  46.5 3.5 0  47.25 3.5 0  48 3.5 0  48.75 3.5 0  49.5 3.5 0  50.25 3.5 0  51 3.5 0  51.75 3.5 0  52.5 3.5 0  53.25 3.5 0  54 3.5 0  54.75 3.5 0  55.5 3.5 0  56.25 3.5 0  57 3.5 0  57.75 3.5 0  58.5 3.5 0  59.25 3.5 0  60 3.5 0  0 4 0  0.75 4 0  1.5 4 0  2.25 4 0  3 4 0  3.75 4 0  4.5 4 0  5.25 4 0  6 4 0  6.75 4 0  7.5 4 0  8.25 4 0  9 4 0  9.75 4 0  10.5 4 0  11.25 4 0  12 4 0  12.75 4 0  13.5 4 0  14.25 4 0  15 4 0  15.75 4 0  16.5 4 0  17.25 4 0  18 4 0  18.75 4 0  19.5 4 0  20.25 4 0  21 4 0  21.75 4 0  22.5 4 0  23.25 4 0  24 4 0  24.75 4 0  25.5 4 0  26.25 4 0  27 4 0  27.75 4 0  28.5 4 0  29.25 4 0  30 4 0  30.75 4 0  31.5 4 0  32.25 4 0  33 4 0  33.75 4 0  34.5 4 0  35.25 4 0  36 4 0  36.75 4 0  37.5 4 0  38.25 4 0  39 4 0  39.75 4 0  40.5 4 0  41.25 4 0  42 4 0  42.75 4 0  43.5 4 0  44.25 4 0  45 4 0  45.75 4 0  46.5 4 0  47.25 4 0  48 4 0  48.75 4 0  49.5 4 0  50.25 4 0  51 4 0  51.75 4 0  52.5 4 0  53.25 4 0  54 4 0  54.75 4 0  55.5 4 0  56.25 4 0  57 4 0  57.75 4 0  58.5 4 0  59.25 4 0  60 4 0  0.375 0.25 0  1.125 0.25 0  1.875 0.25 0  2.625 0.25 0  3.375 0.25 0  4.125 0.25 0  4.875 0.25 0  5.625 0.25 0  6.375 0.25 0  7.125 0.25 0  7.875 0.25 0  8.625 0.25 0  9.375 0.25 0  10.125 0.25 0  10.875 0.25 0  11.625 0.25 0  12.375 0.25 0  13.125 0.25 0  13.875 0.25 0  14.625 0.25 0  15.375 0.25 0  16.125 0.25 0  16.875 0.25 0  17.625 0.25 0  18.375 0.25 0  19.125 0.25 0  19.875 0.25 0  20.625 0.25 0  21.375 0.25 0  22.125 0.25 0  22.875 0.25 0  23.625 0.25 0  24.375 0.25 0  25.125 0.25 0  25.875 0.25 0  26.625 0.25 0  27.375 0.25 0  28.125 0.25 0  28.875 0.25 0  29.625 0.25 0  30.375 0.25 0  31.125 0.25 0  31.875 0.25 0  32.625 0.25 0  33.375 0.25 0  34.125 0.25 0  34.875 0.25 0  35.625 0.25 0  36.375 0.25 0  37.125 0.25 0  37.875 0.25 0  38.625 0.25 0  39.375 0.25 0  40.125 0.25 0  40.875 0.25 0  41.625 0.25 0  42.375 0.25 0  43.125 0.25 0  43.875 0.25 0  44.625 0.25 0  45.375 0.25 0  46.125 0.25 0  46.875 0.25 0  47.625 0.25 0  48.375 0.25 0  49.125 0.25 0  49.875 0.25 0  50.625 0.25 0  51.375 0.25 0  52.125 0.25 0  52.875 0.25 0  53.625 0.25 0  54.375 0.25 0  55.125 0.25 0  55.875 0.25 0  56.625 0.25 0  57.375 0.25 0  58.125 0.25 0  58.875 0.25 0  59.625 0.25 0  0.375 0.75 0  1.125 0.75 0  1.875 0.75 0  2.625 0.75 0  3.375 0.75 0  4.125 0.75 0  4.875 0.75 0  5.625 0.75 0  6.375 0.75 0  7.125 0.75 0  7.875 0.75 0  8.625 0.75 0  9.375 0.75 0  10.125 0.75 0  10.875 0.75 0  11.625 0.75 0  12.375 0.75 0  13.125 0.75 0  13.875 0.75 0  14.625 0.75 0  15.375 0.75 0  16.125 0.75 0  16.875 0.75 0  17.625 0.75 0  18.375 0.75 0  19.125 0.75 0  19.875 0.75 0  20.625 0.75 0  21.375 0.75 0  22.125 0.75 0  22.875 0.75 0  23.625 0.75 0  24.375 0.75 0  25.125 0.75 0  25.875 0.75 0  26.625 0.75 0  27.375 0.75 0  28.125 0.75 0  28.875 0.75 0  29.625 0.75 0  30.375 0.75 0  31.125 0.75 0  31.875 0.75 0  32.625 0.75 0  33.375 0.75 0  34.125 0.75 0  34.875 0.75 0  35.625 0.75 0  36.375 0.75 0  37.125 0.75 0  37.875 0.75 0  38.625 0.75 0  39.375 0.75 0  40.125 0.75 0  40
[...]
<PointData  Vectors="f_8-0"> 
<DataArray  type="Float64"  Name="f_8-0"  NumberOfComponents="3" format="ascii">-6.1469298902773997e-09 4.1244934362710819e-08 0.0000000000000000e+00  0.0000000000000000e+00 0.0000000000000000e+00 0.0000000000000000e+00  0.0000000000000000e+00 -1.0982751329216143e-08 0.0000000000000000e+00  0.0000000000000000e+00 0.0000000000000000e+00 0.0000000000000000e+00  3.6889980250142586e-06 -7.6798362840017250e-06 0.0000000000000000e+00  -2.1131660993034607e-05 1.5617336962397448e-05 0.0000000000000000e+00  0.0000000000000000e+00 0.0000000000000000e+00 0.0000000000000000e+00  1.0198483386282104e-06 -5.6657419246813251e-08 0.0000000000000000e+00  -3.0466010173882674e-07 -6.4993479166214547e-07 0.0000000000000000e+00  1.3126105878836470e-05 -6.8483230244219626e-07 0.0000000000000000e+00  1.2135518916115239e-06 2.4058448272316258e-06 0.0000000000000000e+00  6.2794581357838816e-06 5.8854568657264040e-06 0.0000000000000000e+00  1.0108548489091258e-05 -1.6278156802532466e-06 0.0000000000000000e+00  -4.7038268115047721e-05 3.3530890150124115e-05 0.0000000000000000e+00  0.0000000000000000e+00 0.0000000000000000e+00 0.0000000000000000e+00  0.0000000000000000e+00 8.8588201221790646e-07 0.0000000000000000e+00  0.0000000000000000e+00 0.0000000000000000e+00 0.0000000000000000e+00  3.5215191135366055e-08 -1.0088422589559247e-08 0.0000000000000000e+00  -2.9921614857340056e-06 1.2107811580082681e-08 0.0000000000000000e+00  -6.1567885238406108e-07 5.7945385354586534e-08 0.0000000000000000e+00  1.5447995676154206e-07 -5.9918185368079579e-07 0.0000000000000000e+00  4.1608053198952431e-05 -3.2684826024742570e-06 0.0000000000000000e+00  -7.2282327420577813e-06 -1.6340407172021576e-05 0.0000000000000000e+00  -4.5145543843268256e-06 9.9220169000087858e-07 0.0000000000000000e+00  0.0000000000000000e+00 0.0000000000000000e+00 0.0000000000000000e+00  -9.8144479404084692e-06 -1.0812241911600948e-05 0.0000000000000000e+00  1.0371936335595287e-06 2.2635410768897792e-06 0.0000000000000000e+00  0.0000000000000000e+00 0.0000000000000000e+00 0.0000000000000000e+00  1.7181449192447683e-05 7.3053212841408678e-07 0.0000000000000000e+00  9.2926078422143343e-05 -1.3050299746543483e-04 0.0000000000000000e+00  0.0000000000000000e+00 0.0000000000000000e+00 0.0000000000000000e+00  0.0000000000000000e+00 -1.5611376114739343e-06 0.0000000000000000e+00  0.0000000000000000e+00 1.2441704090120373e-07 0.0000000000000000e+00  -3.0820729135157533e-06 -1.4362947290613229e-05 0.0000000000000000e+00  0.0000000000000000e+00 -7.3965463972031637e-07 0.0000000000000000e+00  0.0000000000000000e+00 0.0000000000000000e+00 0.0000000000000000e+00  0.0000000000000000e+00 1.9969022798272663e-07 0.0000000000000000e+00  0.0000000000000000e+00 0.0000000000000000e+00 0.0000000000000000e+00  0.0000000000000000e+00 0.0000000000000000e+00 0.0000000000000000e+00  -1.2718981440490602e-06 1.5764734720375898e-06 0.0000000000000000e+00  0.0000000000000000e+00 0.0000000000000000e+00 0.0000000000000000e+00  0.0000000000000000e+00 0.0000000000000000e+00 0.0000000000000000e+00  7.2686940114915360e-05 2.0817979824785029e-05 0.0000000000000000e+00  0.0000000000000000e+00 -5.0336057748312452e-08 0.0000000000000000e+00  0.0000000000000000e+00 0.0000000000000000e+00 0.0000000000000000e+00  0.0000000000000000e+00 0.0000000000000000e+00 0.0000000000000000e+00  0.0000000000000000e+00 0.0000000000000000e+00 0.0000000000000000e+00  -1.9378600749740755e-06 1.1384786742881071e-05 0.0000000000000000e+00  0.0000000000000000e+00 0.0000000000000000e+00 0.0000000000000000e+00  0.0000000000000000e+00 0.0000000000000000e+00 0.0000000000000000e+00  0.0000000000000000e+00 0.0000000000000000e+00 0.0000000000000000e+00  9.1259756235860627e-06 2.4430218562507254e-06 0.0000000000000000e+00  1.6654605291086344e-05 1.1803931751794103e-06 0.0000000000000000e+00  0.0000000000000000e+00 0.0000000000000000e+00 0.0000000000000000e+00  0.0000000000000000e+00 0.0000000000000000e+00 0.0000000000000000e+00  0.0000000000000000e+00 0.0000000000000000e+00 0.0000000000000000e+00  0.0000000000000000e+00 0.0000000000000000e+00 0.0000000000000000e+00  -2.1229828926770055e-05 -1.1864404384608449e-05 0.0000000000000000e+00  -1.5101283277418616e-07 2.0506745389460713e-06 0.0000000000000000e+00  0.0000000000000000e+00 0.0000000000000000e+00 0.0000000000000000e+00  0.0000000000000000e+00 0.0000000000000000e+00 0.0000000000000000e+00  5.4743125843468813e-06 -6.7748557602742309e-06 0.0000000000000000e+00  0.0000000000000000e+00 0.0000000000000000e+00 0.0000000000000000e+00  -6.0558325687291108e-06 -8.9624280136331434e-06 0.0000000000000000e+00  9.9169716217363668e-06 1.1948362795334161e-05 0.0000000000000000e+00  -2.8442373291457642e-06 0.0000000000000000e+00 0.0000000000000000e+00  0.0000000000000000e+00 0.0000000000000000e+00 0.0000000000000000e+00  0.0000000000000000e+00 0.0000000000000000e+00 0.0000000000000000e+00  -4.2021065926182241e-06 2.2612014627250454e-07 0.0000000000000000e+00  0.0000000000000000e+00 0.0000000000000000e+00 0.0000000000000000e+00  4.5019805065247198e-07 2.1705798755849781e-07 0.0000000000000000e+00  0.0000000000000000e+00 0.0000000000000000e+00 0.0000000000000000e+00  0.0000000000000000e+00 0.0000000000000000e+00 0.0000000000000000e+00  2.5461397199890976e-06 -3.9799118585338384e-05 0.0000000000000000e+00  0.0000000000000000e+00 0.0000000000000000e+00 0.0000000000000000e+00  0.0000000000000000e+00 0.0000000000000000e+00 0.0000000000000000e+00  -7.5050761162031042e-07 6.5594351386734567e-07 0.0000000000000000e+00  0.0000000000000000e+00 0.0000000000000000e+00 0.0000000000000000e+00  0.0000000000000000e+00 -2.8950789726910771e-07 0.0000000000000000e+00  0.0000000000000000e+00 -6.2673501111988430e-07 0.0000000000000000e+00  -1.5827711345251331e-06 -7.1406684226575698e-07 0.0000000000000000e+00  3.1392750691133060e+07 0.0000000000000000e+00 0.0000000000000000e+00  -1.5381144644402260e+07 2.5174694057594088e+08 0.0000000000000000e+00  -6.6196436671466991e+07 -1.5706965426016832e+07 0.0000000000000000e+00  -2.0819237726670902e+07 -3.0911764370292169e+08 0.0000000000000000e+00  2.4148143749488649e+08 -2.9104941368300945e+08 0.0000000000000000e+00  2.8200647102960986e+08 2.1398809080552384e+08 0.0000000000000000e+00  1.6827291742827129e+08 2.5098665908496186e+08 0.0000000000000000e+00  -5.3167262794034570e+07 6.2744296202648446e+07 0.0000000000000000e+00  -3.4144319893863037e+07 -8.7304710111546397e+07 0.0000000000000000e+00  5.4091366943740025e+07 1.0875159926094700e+08 0.0000000000000000e+00  -3.0828373979227471e+08 3.7139048663456805e+07 0.0000000000000000e+00  1.1154459384683266e+08 -2.3361748661025226e+08 0.0000000000000000e+00  8.1817953852211967e+07 2.7610195880195320e+08 0.0000000000000000e+00  6.8037080961467564e+07 -8.9088741522345841e+07 0.0000000000000000e+00  2.0108800104499945e+08 1.4181243438721147e+08 0.0000000000000000e+00  -1.6313795136152029e+08 -4.5042992077765726e+07 0.0000000000000000e+00  7.1294335089831889e+07 -1.0503407914024749e+08 0.0000000000000000e+00  -1.0358713796415639e+08 1.3206628279164799e+08 0.0000000000000000e+00  1.6340568803244309e+07 1.6128322990899514e+06 0.0000000000000000e+00  2.9612039542684817e+08 2.6874691214720443e+07 0.0000000000000000e+00  -2.2607711190482774e+08 -3.2769322477949411e+08 0.0000000000000000e+00  -2.7614164814752460e+08 2.9733614984851301e+08 0.0000000000000000e+00  -2.7661269065233231e+08 -2.4592015880293608e+07 0.0000000000000000e+00  9.2873106899170697e+07 4.9006584531077787e+07 0.0000000000000000e+00  1.0264286862742195e+08 2.7773328467977919e+07 0.0000000000000000e+00  -3.8978831146493733e+08 -1.3786127909748635e+08 0.0000000000000000e+00  -1.4085633424522272e+08 -3.0740889795171559e+08 0.0000000000000000e+00  1.4229922556827653e+07 8.1490447321251273e+07 0.0000000000000000e+00  3.4190008633845121e+08 -9.1894473471439764e+07 0.0000000000000000e+00  4.2431825354973726e+07 -4.2711496631951213e+07 0.0000000000000000e+00  1.8756893295325947e+08 -2.2151235935293799e+06 0.0000000000000000e+00  -3.0008087145018923e+08 -1.1369145620316277e+08 0.0000000000000000e+00  2.5994251794364072e+07 -2.8817027975266796e+08 0.0000000000000000e+00  2.5385947453888807e+08 -6.4450263893608916e+08 0.0000000000000000e+00  -2.6666118248493049e+08 2.7153665876141167e+08 0.0000000000000000e+00  -2.2454741066233110e+08 9.9203354528772891e+07 0.0000000000000000e+00  -5.7773413859738481e+08 -3.9464124078784293e+08 0.0000000000000000e+00  1.8423646283742455e+08 3.7564618399111623e+08 0.0000000000000000e+00  4.3926496369214904e+08 9.1075377800641477e+07 0.0000000000000000e+00  -2.2786363136965197e+08 1.0064887731610945e+08 0.0000000000000000e+00  1.4936203217322573e+08 7.3485677650682342e+08 0.0000000000000000e+00  4.6511950837685990e+08 -2.4311576542338139e+08 0.0000000000000000e+00  4.3091025697271293e+06 2.2444858568999097e+06 0.0000000000000000e+00  1.5798173681509402e+08 -7.9602119317205727e+07 0.0000000000000000e+00  4.3606892394605882e+07 3.3355644917582321e+08 0.0000000000000000e+00  -2.7286964072806668e+08 1.6672661050016585e+08 0.0000000000000000e+00  -7.6666164691700757e+07 1.9058794743415976e+08 0.0000000000000000e+00  2.8598261312108319e+07 1.5431191648722187e+08 0.0000000000000000e+00  -2.3851031513697776e+08 -3.2596505804687897e+06 0.0000000000000000e+00  3.8084413787477113e+07 -1.4394892527203995e+08 0.0000000000000000e+00  -1.2776477467395765e+08 1.5155307521920389e+08 0.0000000000000000e+00  -7.8191608811276272e+07 9.0584412199673019e+06 0.0000000000000000e+00  4.0070644613759093e+07 -3.1955408515764987e+08 0.0000000000000000e+00  2.6401338948621023e+07 1.0019374302822030e+08 0.0000000000000000e+00  1.1054844736003729e+07 9.1215453430091605e+07 0.0000000000000000e+00  -5.7214425454709314e+07 -5.8711459445880214e+06 0.0000000000000000e+00  5.2214051694562741e+07 1.7224827534564441e+08 0.0000000000000000e+00  5.8473972756864595e+08 -2.7363045338352185e+08 0.0000000000000000e+00  -1.6163472913117561e+07 -2.2740288023518637e+07 0.0000000000000000e+00  1.6615906514042151e+08 -2.3482686679822275e+08 0.0000000000000000e+00  5.1770271522541511e+08 3.7216564010232449e+07 0.0000000000000000e+00  1.7293905733800086e+08 4.5792146480048999e+07 0.0000000000000000e+00  2.8162723562403297e+08 2.3797779791125554e+08 0.0000000000000000e+00  1.5293958400610587e+07 -8.5249765401456207e+07 0.0000000000000000e+00  -1.3603200083307564e+08 1.0691379542927496e+08 0.0000000000000000e+00  -1.8279544517540097e+08 -8.3158323261356249e+07 0.0000000000000000e+00  6.2062605490954826e+06 -8.1121303334428117e+07 0.0000000000000000e+00  2.3282022784210585e+07 2.5745412786655718e+08 0.0000000000000000e+00  -1.1597278524351047e+08 7.0349483195689842e+07 0.0000000000000000e+00  -2.8255393317497742e+08 -2.4765126371652082e+07 0.0000000000000000e+00  -3.8255050392199320e+08 -2.0320642067467988e+08 0.0000000000000000e+00  5.7896365908232450e+07 1.8613398269433424e+08 0.0000000000000000e+00  3.1339187948056662e+08 6.1124433234045118e+07 0.0000000000000000e+00  3.6508414026228180e+06 5.8084527576030695e+08 0.0000000000000000e+00  -2.5303319844948249e+06 -3.0776613979027200e+08 0.0000000000000000e+00  2.7137425219244283e+08 6.1912141619457090e+08 0.0000000000000000e+00  3.0315536461074328e+08 -1.4062837234553254e+08 0.0000000000000000e+00  1.7486123404071954e+08 9.1498555134708896e+07 0.0000000000000000e+00  4.9986855930092901e+08 5.0378078014050238e+07 0.0000000000000000e+00  4.4969874898215759e+08 -1.9517052802220139e+08 0.0000000000000000e+00  2.2408981450760561e+08 0.0000000000000000e+00 0.0000000000000000e+00  2.5045214392640674e+08 0.0000000000000000e+00 0.0000000000000000e+00  1.4891400774191582e+08 3.0025151296505374e+08 0.0000000000000000e+00  1.8025249719980463e+08 1.7220690759489313e+08 0.0000000000000000e+00  1.5034306526492059e+08 9.3215716631115139e+07 0.0000000000000000e+00  -1.8378761041819969e+08 -1.0148482090529044e+08 0.0000000000000000e+00  -4.6738125520664491e+07 -3.4704211243868685e+08 0.0000000000000000e+00  -2.1450559012814590e+08 3.6243979687536651e+08 0.0000000000000000e+00  -2.0645813033674425e+08 -4.0163228124247134e+08 0.0000000000000000e+00  -7.4231599909900233e+07 2.4315695200157106e+07 0.0000000000000000e+00  -1.6230667034543696e+08 -1.1076159863923071e+08 0.0000000000000000e+00  2.0888745782314289e+07 6.0424768418560617e+07 0.0000000000000000e+00  -1.5409047724198276e+08 -2.4797723999325845e+08 0.0000000000000000e+00  8.2124922038435504e+07 -4.5080392286681908e+08 0.0000000000000000e+00  7.6659177590883985e+07 -8.0581439843528241e+07 0.0000000000000000e+00  -7.2392218085474417e+07 -1.9594077590412530e+08 0.0000000000000000e+00  -4.2213071767520569e+07 -1.9895443357531095e+08 0.0000000000000000e+00  -8.1755721700149953e+07 -9.0944021700374514e+07 0.0000000000000000e+00  1.3424850999777728e+08 2.0876505705918652e+08 0.0000000000000000e+00  1.5699485369646320e+08 -3.7191167504547703e+08 0.0000000000000000e+00  1.7143773783764832e+07 -8.8205716297823504e+07 0.0000000000000000e+00  -3.4717340165999681e+08 8.9055575181701437e+07 0.0000000000000000e+00  4.6101350878744461e+07 -2.5743291762142628e+08 0.0000000000000000e+00  -2.6386539489829054e+08 -1.1573223148934534e+08 0.0000000000000000e+00  -3.3423692640078503e+08 -1.8921353985753682e+08 0.0000000000000000e+00  -3.0746922327950463e+07 -2.3370349687086603e+08 0.0000000000000000e+00  -1.0834832548513201e+08 2.1518725647973877e+08 0.0000000000000000e+00  1.0767459869965166e+08 2.8724150508278809e+07 0.0000000000000000e+00  3.9300542206502926e+08 -1.7223678569066367e+08 0.0000000000000000e+00  -4.4867494294230545e+08 -4.4554487765440291e+08 0.0000000000000000e+00  -3.3068870657954770e+08 6.2637521945493031e+08 0.0000000000000000e+00  -5.3404383970303142e+08 -5.8318227587436545e+08 0.0000000000000000e+00  -3.7582267515106690e+08 3.1868735195637159e+07 0.0000000000000000e+00  3.2746483677807504e+08 -1.5146015138749239e+08 0.0000000000000000e+00  2.5804490550186235e+08 -3.6984282599966133e+08 0.0000000000000000e+00  7.9891935467299491e+07 -5.2946848653224111e+08 0.0000000000000000e+00  6.8394956142674461e+07 -1.4162236854475611e+08 0.0000000000000000e+00  3.9427262447946024e+08 -7.2031158201162726e+07 0.0000000000000000e+00  1.2417799128341913e+07 8.7834608405233130e+07 0.0000000000000000e+00  3.7221814972158962e+08 3.1362421742168400e+07 0.0000000000000000e+00  1.8390229324033305e+08 8.0832397520369381e+07 0.0000000000000000e+00  -1.0640167250515439e+08 3.7375938234685838e+08 0.0000000000000000e+00  -4.8345954759731221e+08 7.4334464025082707e+07 0.0000000000000000e+00  1.3026023018596345e+08 1.4883481588560298e+08 0.0000000000000000e+00  -7.5533132034759134e+07 -1.4193705375904365e+07 0.0000000000000000e+00  1.6015167965577367e+08 -1.1894980209401672e+08 0.0000000000000000e+00  -1.7074629572551161e+08 4.5319243885449708e+07 0.0000000000000000e+00  -1.4047209164443037e+08 3.1912583421408093e+08 0.0000000000000000e+00  -1.7600730109483749e+07 9.8086008845088363e+07 0.0000000000000000e+00  9.0967344537624922e+06 -2.9602734126954103e+08 0.0000000000000000e+00  -4.1976628787092157e+07 1.9704097277802905e+08 0.0000000000000000e+00  -5.9497087134747803e+07 1.9656709049455321e+08 0.0000000000000000e+00  4.3723568176547438e+07 -1.5401941522297293e+08 0.0000000000000000e+00  -5.2151060821308963e+07 -3.6695953229430951e+06 0.0000000000000000e+00  3.7254965830035105e+07 -8.1687978735617593e+07 0.0000000000000000e+00  1.2145030726916423e+08 -1.0748339246435660e+08 0.0000000000000000e+00  -2.8327608854865696e+07 1.0754631764633787e+08 0.0000000000000000e+00  6.4829810207364611e+07 -3.4014718223837733e+07 0.0000000000000000e+00  7.0425349180755727e+06 2.5295979225063413e+08 0.0000000000000000e+00  6.0600700528656654e+07 -2.1942025681123671e+08 0.0000000000000000e+00  1.3483511696418592e+08 -2.2966091209891146e+08 0.0000000000000000e+00  2.9817055924175873e+07 -2.7629572021072704e+08 0.0000000000000000e+00  2.4173241102804339e+08 2.1403267770436734e+07 0.0000000000000000e+00  -5.0220371188574256e+06 8.8851745891876504e+07 0.0000000000000000e+00  -6.8278373671271861e+07 5.4710037399362482e+07 0.0000000000000000e+00  1.1611817870673335e+08 1.7683775098911551e+08 0.0000000000000000e+00  -6.2499898243888412e+06 5.2597384998876673e+08 0.0000000000000000e+00  1.0069847550578339e+08 3.1692192166136330e+08 0.0000000000000000e+00  1.1824714462960263e+08 -2.6996119163059074e+07 0.0000000000000000e+00  2.3497310868876740e+07 -2.9711665862717777e+08 0.0000000000000000e+00  -1.0604126698941487e+08 -7.0094177817044750e+07 0.0000000000000000e+00  -4.6084257670655511e+07 -2.2917126701915294e+08 0.0000000000000000e+00  -1.1428176585215935e+08 -1.3324279456716411e+08 0.0000000000000000e+00  -8.1668754441485986e+07 -2.4979278360568550e+08 0.0000000000000000e+00  -1.4277911280575606e+08 -7.9642367987759694e+07 0.0000000000000000e+00  -2.1836132754591322e+08 -1.7892160358829960e+07 0.0000000000000000e+00  -2.7994912130068815e+08 7.2897483951581553e+07 0.0000000000000000e+00  -4.4087406223572433e+07 9.5454868607174888e+07 0.0000000000000000e+00  -2.4567771979855937e+08 2.2010365431149676e+08 0.0000000000000000e+00  2.0785363796181533e+07 -3.3506402154242897e+08 0.0000000000000000e+00  2.8590005622582054e+08 1.8052771644648999e+08 0.0000000000000000e+00  5.9055810760277998e+08 -1.1618269408728618e-07 0.0000000000000000e+00  3.2595671615055069e+07 -2.8962572502498629e-07 0.0000000000000000e+00  1.2074977248220098e+08 2.5967797132481372e+08 0.0000000000000000e+00  2.5069708950725797e+08 -9.3345476198429048e+07 0.0000000000000000e+00  -8.2020998819492638e+07 -6.1162207720860235e+07 0.0000000000000000e+00  3.0546663977222610e+07 -5.8747012263269678e+07 0.0000000000000000e+00  1.7004991590956387e+08 -3.9281328956569064e+08 0.0000000000000000e+00  -1.7166312870918587e+08 -1.7624409870647523e+08 0.0000000000000000e+00  -1.2040696407322673e+08 -7.4817152945680901e+07 0.0000000000000000e+00  -1.1216651738674632e+08 1.8515409342540863e+08 0.0000000000000000e+00  2.9342164719423745e+07 -1.6542614268378189e+08 0.0000000000000000e+00  -1.9748866635169506e+07 6.4095666696480833e+07 0.0000000000000000e+00  -1.2933346422197230e+08 1.3774209923621428e+08 0.0000000000000000e+00  2.5457594748865718e+08 8.7779965874596402e+07 0.0000000000000000e+00  -5.2642022653908890e+08 -2.0598835087964150e+08 0.0000000000000000e+00  3.8209160317491569e+07 4.6178107543442778e+07 0.0000000000000000e+00  -2.1737428896791455e+08 -1.0429206454572363e+08 0.0000000000000000e+00  1.2656777270312953e+08 -1.6706690688046631e+08 0.0000000000000000e+00  -3.2397846914566495e+07 -6.4656452793130443e+07 0.0000000000000000e+00  -2.5249696076896927e+08 -4.4943125164489460e+08 0.0000000000000000e+00  4.6341475009603985e+07 -2.3878722550133288e+08 0.0000000000000000e+00  1.9229672867884409e+07 1.8289671410902825e+08 0.0000000000000000e+00  -3.8488974216170259e+07 -3.2920399417106111e+07 0.0000000000000000e+00  2.1344916686425307e+08 -7.4854741290987864e+07 0.0000000000000000e+00  7.3351286193592504e+07 -4.4787582021664619e+08 0.0000000000000000e+00  -2.6394845738879743e+08 4.4040522166297585e+08 0.0000000000000000e+00  -2.3342287721586678e+07 -3.7019999762301213e+08 0.0000000000000000e+00  -1.2177231506993397e+08 -3.7624915367978007e+08 0.0000000000000000e+00  -3.0380448319217145e+08 -1.1124621284317806e+08 0.0000000000000000e+00  5.3279240548649222e+08 -6.7726308954288140e+07 0.0000000000000000e+00  2.1516940986068860e+08 2.5438864813421434e+08 0.0000000000000000e+00  -8.4862737184816271e+07 1.0423166801160645e+08 0.0000000000000000e+00  3.3012865940812908e+07 1.3349670350954700e+08 0.0000000000000000e+00  5.8598545468396373e+07 -1.4660734412587477e+07 0.0000000000000000e+00  6.3766610272866659e+07 7.8215310412236905e+08 0.0000000000000000e+00  -8.1969429494720295e+07 -2.4527295697716883e+08 0.0000000000000000e+00  3.4031590249360758e+08 1.8698697658123717e+08 0.0000000000000000e+00  2.2586224543810266e+08 -4.9226809205100292e+08 0.0000000000000000e+00  7.0003644765229821e+07 -5.7029746366997503e+07 0.00000