<?xml version="1.0"?>
<VTKFile type="UnstructuredGrid"  version="0.1"  >
<UnstructuredGrid>
<Piece  NumberOfPoints="1369" NumberOfCells="2560">
<Points>
<DataArray  type="Float64"  NumberOfComponents="3"  format="ascii">0 0 0  0.75 0 0  1.5 0 0  2.25 0 0  3 0 0  3.75 0 0  4.5 0 0  5.25 0 0  6 0 0  6.75 0 0  7.5 0 0  8.25 0 0  9 0 0  9.75 0 0  10.5 0 0  11.25 0 0  12 0 0  12.75 0 0  13.5 0 0  14.25 0 0  15 0 0  15.75 0 0  16.5 0 0  17.25 0 0  18 0 0  18.75 0 0  19.5 0 0  20.25 0 0  21 0 0  21.75 0 0  22.5 0 0  23.25 0 0  24 0 0  24.75 0 0  25.5 0 0  26.25 0 0  27 0 0  27.75 0 0  28.5 0 0  29.25 0 0  30 0 0  30.75 0 0  31.5 0 0  32.25 0 0  33 0 0  33.75 0 0  34.5 0 0  35.25 0 0  36 0 0  36.75 0 0  37.5 0 0  38.25 0 0  39 0 0  39.75 0 0  40.5 0 0  41.25 0 0  42 0 0  42.75 0 0  43.5 0 0  44.25 0 0  45 0 0  45.75 0 0  46.5 0 0  47.25 0 0  48 0 0  48.75 0 0  49.5 0 0  50.25 0 0  51 0 0  51.75 0 0  52.5 0 0  53.25 0 0  54 0 0  54.75 0 0  55.5 0 0  56.25 0 0  57 0 0  57.75 0 0  58.5 0 0  59.25 0 0  60 0 0  0 0.5 0  0.75 0.5 0  1.5 0.5 0  2.25 0.5 0  3 0.5 0  3.75 0.5 0  4.5 0.5 0  5.25 0.5 0  6 0.5 0  6.75 0.5 0  7.5 0.5 0  8.25 0.5 0  9 0.5 0  9.75 0.5 0  10.5 0.5 0  11.25 0.5 0  12 0.5 0  12.75 0.5 0  13.5 0.5 0  14.25 0.5 0  15 0.5 0  15.75 0.5 0  16.5 0.5 0  17.25 0.5 0  18 0.5 0  18.75 0.5 0  19.5 0.5 0  20.25 0.5 0  21 0.5 0  21.75 0.5 0  22.5 0.5 0  23.25 0.5 0  24 0.5 0  24.75 0.5 0  25.5 0.5 0  26.25 0.5 0  27 0.5 0  27.75 0.5 0  28.5 0.5 0  29.25 0.5 0  30 0.5 0  30.75 0.5 0  31.5 0.5 0  32.25 0.5 0  33 0.5 0  33.75 0.5 0  34.5 0.5 0  35.25 0.5 0  36 0.5 0  36.75 0.5 0  37.5 0.5 0  38.25 0.5 0  39 0.5 0  39.75 0.5 0  40.5 0.5 0  41.25 0.5 0  42 0.5 0  42.75 0.5 0  43.5 0.5 0  44.25 0.5 0  45 0.5 0  45.75 0.5 0  46.5 0.5 0  47.25 0.5 0  48 0.5 0  48.75 0.5 0  49.5 0.5 0  50.25 0.5 0  51 0.5 0  51.75 0.5 0  52.5 0.5 0  53.25 0.5 0  54 0.5 0  54.75 0.5 0  55.5 0.5 0  56.25 0.5 0  57 0.5 0  57.75 0.5 0  58.5 0.5 0  59.25 0.5 0  60 0.5 0  0 1 0  0.75 1 0  1.5 1 0  2.25 1 0  3 1 0  3.75 1 0  4.5 1 0  5.25 1 0  6 1 0  6.75 1 0  7.5 1 0  8.25 1 0  9 1 0  9.75 1 0  10.5 1 0  11.25 1 0  12 1 0  12.75 1 0  13.5 1 0  14.25 1 0  15 1 0  15.75 1 0  16.5 1 0  17.25 1 0  18 1 0  18.75 1 0  19.5 1 0  20.25 1 0  21 1 0  21.75 1 0  22.5 1 0  23.25 1 0  24 1 0  24.75 1 0  25.5 1 0  26.25 1 0  27 1 0  27.75 1 0  28.5 1 0  29.25 1 0  30 1 0  30.75 1 0  31.5 1 0  32.25 1 0  33 1 0  33.75 1 0  34.5 1 0  35.25 1 0  36 1 0  36.75 1 0  37.5 1 0  38.25 1 0  39 1 0  39.75 1 0  40.5 1 0  41.25 1 0  42 1 0  42.75 1 0  43.5 1 0  44.25 1 0  45 1 0  45.75 1 0  46.5 1 0  47.25 1 0  48 1 0  48.75 1 0  49.5 1 0  50.25 1 0  51 1 0  51.75 1 0  52.5 1 0  53.25 1 0  54 1 0  54.75 1 0  55.5 1 0  56.25 1 0  57 1 0  57.75 1 0  58.5 1 0  59.25 1 0  60 1 0  0 1.5 0  0.75 1.5 0  1.5 1.5 0  2.25 1.5 0  3 1.5 0  3.75 1.5 0  4.5 1.5 0  5.25 1.5 0  6 1.5 0  6.75 1.5 0  7.5 1.5 0  8.25 1.5 0  9 1.5 0  9.75 1.5 0  10.5 1.5 0  11.25 1.5 0  12 1.5 0  12.75 1.5 0  13.5 1.5 0  14.25 1.5 0  15 1.5 0  15.75 1.5 0  16.5 1.5 0  17.25 1.5 0  18 1.5 0  18.75 1.5 0  19.5 1.5 0  20.25 1.5 0  21 1.5 0  21.75 1.5 0  22.5 1.5 0  23.25 1.5 0  24 1.5 0  24.75 1.5 0  25.5 1.5 0  26.25 1.5 0  27 1.5 0  27.75 1.5 0  28.5 1.5 0  29.25 1.5 0  30 1.5 0  30.75 1.5 0  31.5 1.5 0  32.25 1.5 0  33 1.5 0  33.75 1.5 0  34.5 1.5 0  35.25 1.5 0  36 1.5 0  36.75 1.5 0  37.5 1.5 0  38.25 1.5 0  39 1.5 0  39.75 1.5 0  40.5 1.5 0  41.25 1.5 0  42 1.5 0  42.75 1.5 0  43.5 1.5 0  44.25 1.5 0  45 1.5 0  45.75 1.5 0  46.5 1.5 0  47.25 1.5 0  48 1.5 0  48.75 1.5 0  49.5 1.5 0  50.25 1.5 0  51 1.5 0  51.75 1.5 0  52.5 1.5 0  53.25 1.5 0  54 1.5 0  54.75 1.5 0  55.5 1.5 0  56.25 1.5 0  57 1.5 0  57.75 1.5 0  58.5 1.5 0  59.25 1.5 0  60 1.5 0  0 2 0  0.75 2 0  1.5 2 0  2.25 2 0  3 2 0  3.75 2 0  4.5 2 0  5.25 2 0  6 2 0  6.75 2 0  7.5 2 0  8.25 2 0  9 2 0  9.75 2 0  10.5 2 0  11.25 2 0  12 2 0  12.75 2 0  13.5 2 0  14.25 2 0  15 2 0  15.75 2 0  16.5 2 0  17.25 2 0  18 2 0  18.75 2 0  19.5 2 0  20.25 2 0  21 2 0  21.75 2 0  22.5 2 0  23.25 2 0  24 2 0  24.75 2 0  25.5 2 0  26.25 2 0  27 2 0  27.75 2 0  28.5 2 0  29.25 2 0  30 2 0  30.75 2 0  31.5 2 0  32.25 2 0  33 2 0  33.75 2 0  34.5 2 0  35.25 2 0  36 2 0  36.75 2 0  37.5 2 0  38.25 2 0  39 2 0  39.75 2 0  40.5 2 0  41.25 2 0  42 2 0  42.75 2 0  43.5 2 0  44.25 2 0  45 2 0  45.75 2 0  46.5 2 0  47.25 2 0  48 2 0  48.75 2 0  49.5 2 0  50.25 2 0  51 2 0  51.75 2 0  52.5 2 0  53.25 2 0  54 2 0  54.75 2 0  55.5 2 0  56.25 2 0  57 2 0  57.75 2 0  58.5 2 0  59.25 2 0  60 2 0  0 2.5 0  0.75 2.5 0  1.5 2.5 0  2.25 2.5 0  3 2.5 0  3.75 2.5 0  4.5 2.5 0  5.25 2.5 0  6 2.5 0  6.75 2.5 0  7.5 2.5 0  8.25 2.5 0  9 2.5 0  9.75 2.5 0  10.5 2.5 0  11.25 2.5 0  12 2.5 0  12.75 2.5 0  13.5 2.5 0  14.25 2.5 0  15 2.5 0  15.75 2.5 0  16.5 2.5 0  17.25 2.5 0  18 2.5 0  18.75 2.5 0  19.5 2.5 0  20.25 2.5 0  21 2.5 0  21.75 2.5 0  22.5 2.5 0  23.25 2.5 0  24 2.5 0  24.75 2.5 0  25.5 2.5 0  26.25 2.5 0  27 2.5 0  27.75 2.5 0  28.5 2.5 0  29.25 2.5 0  30 2.5 0  30.75 2.5 0  31.5 2.5 0  32.25 2.5 0  33 2.5 0  33.75 2.5 0  34.5 2.5 0  35.25 2.5 0  36 2.5 0  36.75 2.5 0  37.5 2.5 0  38.25 2.5 0  39 2.5 0  39.75 2.5 0  40.5 2.5 0  41.25 2.5 0  42 2.5 0  42.75 2.5 0  43.5 2.5 0  44.25 2.5 0  45 2.5 0  45.75 2.5 0  46.5 2.5 0  47.25 2.5 0  48 2.5 0  48.75 2.5 0  49.5 2.5 0  50.25 2.5 0  51 2.5 0  51.75 2.5 0  52.5 2.5 0  53.25 2.5 0  54 2.5 0  54.75 2.5 0  55.5 2.5 0  56.25 2.5 0  57 2.5 0  57.75 2.5 0  58.5 2.5 0  59.25 2.5 0  60 2.5 0  0 3 0  0.75 3 0  1.5 3 0  2.25 3 0  3 3 0  3.75 3 0  4.5 3 0  5.25 3 0  6 3 0  6.75 3 0  7.5 3 0  8.25 3 0  9 3 0  9.75 3 0  10.5 3 0  11.25 3 0  12 3 0  12.75 3 0  13.5 3 0  14.25 3 0  15 3 0  15.75 3 0  16.5 3 0  17.25 3 0  18 3 0  18.75 3 0  19.5 3 0  20.25 3 0  21 3 0  21.75 3 0  22.5 3 0  23.25 3 0  24 3 0  24.75 3 0  25.5 3 0  26.25 3 0  27 3 0  27.75 3 0  28.5 3 0  29.25 3 0  30 3 0  30.75 3 0  31.5 3 0  32.25 3 0  33 3 0  33.75 3 0  34.5 3 0  35.25 3 0  36 3 0  36.75 3 0  37.5 3 0  38.25 3 0  39 3 0  39.75 3 0  40.5 3 0  41.25 3 0  42 3 0  42.75 3 0  43.5 3 0  44.25 3 0  45 3 0  45.75 3 0  46.5 3 0  47.25 3 0  48 3 0  48.75 3 0  49.5 3 0  50.25 3 0  51 3 0  51.75 3 0  52.5 3 0  53.25 3 0  54 3 0  54.75 3 0  55.5 3 0  56.25 3 0  57 3 0  57.75 3 0  58.5 3 0  59.25 3 0  60 3 0  0 3.5 0  0.75 3.5 0  1.5 3.5 0  2.25 3.5 0  3 3.5 0  3.75 3.5 0  4.5 3.5 0  5.25 3.5 0  6 3.5 0  6.75 3.5 0  7.5 3.5 0  8.25 3.5 0  9 3.5 0  9.75 3.5 0  10.5 3.5 0  11.25 3.5 0  12 3.5 0  12.75 3.5 0  13.5 3.5 0  14.25 3.5 0  15 3.5 0  15.75 3.5 0  16.5 3.5 0  17.25 3.5 0  18 3.5 0  18.75 3.5 0  19.5 3.5 0  20.25 3.5 0  21 3.5 0  21.75 3.5 0  22.5 3.5 0  23.25 3.5 0  24 3.5 0  24.75 3.5 0  25.5 3.5 0  26.25 3.5 0  27 3.5 0  27.75 3.5 0  28.5 3.5 0  29.25 3.5 0  30 3.5 0  30.75 3.5 0  31.5 3.5 0  32.25 3.5 0  33 3.5 0  33.75 3.5 0  34.5 3.5 0  35.25 3.5 0  36 3.5 0  36.75 3.5 0  37.5 3.5 0  38.25 3.5 0  39 3.5 0  39.75 3.5 0  40.5 3.5 0  41.25 3.5 0  42 3.5 0  42.75 3.5 0  43.5 3.5 0  44.25 3.5 0  45 3.5 0  45.75 3.5 0  46.5 3.5 0  47.25 3.5 0  48 3.5 0  48.75 3.5 0  49.5 3.5 0  50.25 3.5 0  51 3.5 0  51.75 3.5 0  52.5 3.5 0  53.25 3.5 0  54 3.5 0  54.75 3.5 0  55.5 3.5 0  56.25 3.5 0  57 3.5 0  57.75 3.5 0  58.5 3.5 0  59.25 3.5 0  60 3.5 0  0 4 0  0.75 4 0  1.5 4 0  2.25 4 0  3 4 0  3.75 4 0  4.5 4 0  5.25 4 0  6 4 0  6.75 4 0  7.5 4 0  8.25 4 0  9 4 0  9.75 4 0  10.5 4 0  11.25 4 0  12 4 0  12.75 4 0  13.5 4 0  14.25 4 0  15 4 0  15.75 4 0  16.5 4 0  17.25 4 0  18 4 0  18.75 4 0  19.5 4 0  20.25 4 0  21 4 0  21.75 4 0  22.5 4 0  23.25 4 0  24 4 0  24.75 4 0  25.5 4 0  26.25 4 0  27 4 0  27.75 4 0  28.5 4 0  29.25 4 0  30 4 0  30.75 4 0  31.5 4 0  32.25 4 0  33 4 0  33.75 4 0  34.5 4 0  35.25 4 0  36 4 0  36.75 4 0  37.5 4 0  38.25 4 0  39 4 0  39.75 4 0  40.5 4 0  41.25 4 0  42 4 0  42.75 4 0  43.5 4 0  44.25 4 0  45 4 0  45.75 4 0  46.5 4 0  47.25 4 0  48 4 0  48.75 4 0  49.5 4 0  50.25 4 0  51 4 0  51.75 4 0  52.5 4 0  53.25 4 0  54 4 0  54.75 4 0  55.5 4 0  56.25 4 0  57 4 0  57.75 4 0  58.5 4 0  59.25 4 0  60 4 0  0.375 0.25 0  1.125 0.25 0  1.875 0.25 0  2.625 0.25 0  3.375 0.25 0  4.125 0.25 0  4.875 0.25 0  5.625 0.25 0  6.375 0.25 0  7.125 0.25 0  7.875 0.25 0  8.625 0.25 0  9.375 0.25 0  10.125 0.25 0  10.875 0.25 0  11.625 0.25 0  12.375 0.25 0  13.125 0.25 0  13.875 0.25 0  14.625 0.25 0  15.375 0.25 0  16.125 0.25 0  16.875 0.25 0  17.625 0.25 0  18.375 0.25 0  19.125 0.25 0  19.875 0.25 0  20.625 0.25 0  21.375 0.25 0  22.125 0.25 0  22.875 0.25 0  23.625 0.25 0  24.375 0.25 0  25.125 0.25 0  25.875 0.25 0  26.625 0.25 0  27.375 0.25 0  28.125 0.25 0  28.875 0.25 0  29.625 0.25 0  30.375 0.25 0  31.125 0.25 0  31.875 0.25 0  32.625 0.25 0  33.375 0.25 0  34.125 0.25 0  34.875 0.25 0  35.625 0.25 0  36.375 0.25 0  37.125 0.25 0  37.875 0.25 0  38.625 0.25 0  39.375 0.25 0  40.125 0.25 0  40.875 0.25 0  41.625 0.25 0  42.375 0.25 0  43.125 0.25 0  43.875 0.25 0  44.625 0.25 0  45.375 0.25 0  46.125 0.25 0  46.875 0.25 0  47.625 0.25 0  48.375 0.25 0  49.125 0.25 0  49.875 0.25 0  50.625 0.25 0  51.375 0.25 0  52.125 0.25 0  52.875 0.25 0  53.625 0.25 0  54.375 0.25 0  55.125 0.25 0  55.875 0.25 0  56.625 0.25 0  57.375 0.25 0  58.125 0.25 0  58.875 0.25 0  59.625 0.25 0  0.375 0.75 0  1.125 0.75 0  1.875 0.75 0  2.625 0.75 0  3.375 0.75 0  4.125 0.75 0  4.875 0.75 0  5.625 0.75 0  6.375 0.75 0  7.125 0.75 0  7.875 0.75 0  8.625 0.75 0  9.375 0.75 0  10.125 0.75 0  10.875 0.75 0  11.625 0.75 0  12.375 0.75 0  13.125 0.75 0  13.875 0.75 0  14.625 0.75 0  15.375 0.75 0  16.125 0.75 0  16.875 0.75 0  17.625 0.75 0  18.375 0.75 0  19.125 0.75 0  19.875 0.75 0  20.625 0.75 0  21.375 0.75 0  22.125 0.75 0  22.875 0.75 0  23.625 0.75 0  24.375 0.75 0  25.125 0.75 0  25.875 0.75 0  26.625 0.75 0  27.375 0.75 0  28.125 0.75 0  28.875 0.75 0  29.625 0.75 0  30.375 0.75 0  31.125 0.75 0  31.875 0.75 0  32.625 0.75 0  33.375 0.75 0  34.125 0.75 0  34.875 0.75 0  35.625 0.75 0  36.375 0.75 0  37.125 0.75 0  37.875 0.75 0  38.625 0.75 0  39.375 0.75 0  40.125 0.75 0  40
[...]
<PointData  Vectors="f_8-0"> 
<DataArray  type="Float64"  Name="f_8-0"  NumberOfComponents="3" format="ascii">3.7096810928562545e-07 -5.4496585694140911e-08 0.0000000000000000e+00  0.0000000000000000e+00 0.0000000000000000e+00 0.0000000000000000e+00  9.5827831997788741e-04 -1.0298352117923625e-03 0.0000000000000000e+00  2.8908816059300962e-06 5.5435478638450484e-06 0.0000000000000000e+00  -2.8558953680094908e-06 -3.5339183029662747e-06 0.0000000000000000e+00  2.2278828541865377e-04 -3.6822747995014229e-05 0.0000000000000000e+00  1.1456585426394829e-05 -3.2469079472242201e-06 0.0000000000000000e+00  -4.8267955876078130e-05 -9.8865944464866215e-05 0.0000000000000000e+00  1.4442362395474886e-05 0.0000000000000000e+00 0.0000000000000000e+00  0.0000000000000000e+00 0.0000000000000000e+00 0.0000000000000000e+00  2.2107832127085642e-04 1.4603166511944936e-05 0.0000000000000000e+00  3.6243463644076648e-05 1.4317143080663178e-04 0.0000000000000000e+00  1.1549908397304451e-04 3.3038784948053494e-05 0.0000000000000000e+00  -1.5361538760459253e-06 0.0000000000000000e+00 0.0000000000000000e+00  0.0000000000000000e+00 -8.7091695015173290e-07 0.0000000000000000e+00  -1.0989949955950253e-04 -8.3341398911538934e-05 0.0000000000000000e+00  1.5917417633311990e-05 6.0608480260612203e-05 0.0000000000000000e+00  0.0000000000000000e+00 -8.6939290111821241e-07 0.0000000000000000e+00  -1.2866335320437666e-04 -2.7215723319280440e-04 0.0000000000000000e+00  0.0000000000000000e+00 -9.4517046709329971e-07 0.0000000000000000e+00  0.0000000000000000e+00 0.0000000000000000e+00 0.0000000000000000e+00  8.8364745384319178e-05 -2.5682433047517657e-05 0.0000000000000000e+00  -1.0010971002614744e-04 7.4206021929769660e-05 0.0000000000000000e+00  3.2431485107534456e-04 4.3792163935041129e-07 0.0000000000000000e+00  -7.9282608971171206e-07 -2.3820741395376444e-07 0.0000000000000000e+00  3.9314916488276018e-08 3.3224928917445819e-06 0.0000000000000000e+00  0.0000000000000000e+00 0.0000000000000000e+00 0.0000000000000000e+00  -3.1398258497901540e-04 1.5532643139894807e-04 0.0000000000000000e+00  -7.8884752891821735e-05 3.7175131649138311e-06 0.0000000000000000e+00  -1.6455496923174661e-05 -2.3496431927275115e-05 0.0000000000000000e+00  0.0000000000000000e+00 -7.6079471925371463e-07 0.0000000000000000e+00  -8.3991906811808076e-07 2.9397009361037093e-07 0.0000000000000000e+00  0.0000000000000000e+00 -6.2281952168992787e-08 0.0000000000000000e+00  -1.6824045042576689e-06 1.3362676656030791e-07 0.0000000000000000e+00  -1.0484920918893801e-05 -4.2909904510400006e-06 0.0000000000000000e+00  0.0000000000000000e+00 -4.2262621485285963e-07 0.0000000000000000e+00  0.0000000000000000e+00 0.0000000000000000e+00 0.0000000000000000e+00  -9.6984638098494333e-06 8.0383214514098002e-06 0.0000000000000000e+00  -1.3357958858585164e-05 -8.4424785081137417e-07 0.0000000000000000e+00  0.0000000000000000e+00 -4.5470785494630891e-06 0.0000000000000000e+00  4.2186070177953140e-06 3.5693166396130490e-07 0.0000000000000000e+00  4.5841248661097482e-07 4.0207837295728712e-08 0.0000000000000000e+00  -2.6214104455777431e-06 -8.2613479874277810e-05 0.0000000000000000e+00  0.0000000000000000e+00 6.8184006252092392e-07 0.0000000000000000e+00  0.0000000000000000e+00 0.0000000000000000e+00 0.0000000000000000e+00  -1.0632477712389981e-05 -1.3519000530745240e-05 0.0000000000000000e+00  2.1640864536740296e-05 7.0484987287381367e-06 0.0000000000000000e+00  -7.0281291203903520e-07 -4.1970328198917614e-05 0.0000000000000000e+00  -1.3819296321147882e-05 -6.3680031767129956e-05 0.0000000000000000e+00  8.4283189988647832e-04 -1.1235852703297481e-04 0.0000000000000000e+00  -5.1569514118297129e-05 2.9339524139333994e-05 0.0000000000000000e+00  7.6633728345397858e-06 -2.3586862696955564e-06 0.0000000000000000e+00  -2.8253574973391685e-06 0.0000000000000000e+00 0.0000000000000000e+00  2.3635147174006258e-05 -1.9500053551882377e-05 0.0000000000000000e+00  0.0000000000000000e+00 0.0000000000000000e+00 0.0000000000000000e+00  1.4916117819301509e-04 1.4468109760509175e-04 0.0000000000000000e+00  -3.2664866605865228e-07 1.8147105961637445e-08 0.0000000000000000e+00  2.5190913447752487e-06 -2.6828806721269652e-05 0.0000000000000000e+00  -1.4750264617835867e-05 -7.4461840315326822e-06 0.0000000000000000e+00  5.2172374569724475e-05 6.9929630422533350e-05 0.0000000000000000e+00  0.0000000000000000e+00 0.0000000000000000e+00 0.0000000000000000e+00  0.0000000000000000e+00 0.0000000000000000e+00 0.0000000000000000e+00  0.0000000000000000e+00 0.0000000000000000e+00 0.0000000000000000e+00  0.0000000000000000e+00 8.8292210423778542e-07 0.0000000000000000e+00  1.7948567405988306e-06 0.0000000000000000e+00 0.0000000000000000e+00  0.0000000000000000e+00 0.0000000000000000e+00 0.0000000000000000e+00  0.0000000000000000e+00 0.0000000000000000e+00 0.0000000000000000e+00  0.0000000000000000e+00 0.0000000000000000e+00 0.0000000000000000e+00  0.0000000000000000e+00 0.0000000000000000e+00 0.0000000000000000e+00  -2.4922481473466519e-04 5.2404929205648476e-05 0.0000000000000000e+00  0.0000000000000000e+00 0.0000000000000000e+00 0.0000000000000000e+00  6.1170785507346450e-05 0.0000000000000000e+00 0.0000000000000000e+00  -5.1683785638594091e-05 4.9089951977853417e-05 0.0000000000000000e+00  1.0034333540020236e-03 -3.3767139249290195e-04 0.0000000000000000e+00  -2.4316639007758579e-07 7.0221566587141457e-06 0.0000000000000000e+00  -3.8525460744244738e-04 5.2668772303800946e-05 0.0000000000000000e+00  0.0000000000000000e+00 0.0000000000000000e+00 0.0000000000000000e+00  0.0000000000000000e+00 0.0000000000000000e+00 0.0000000000000000e+00  1.9717884733182269e-05 -2.5263508680455277e-05 0.0000000000000000e+00  1.9460683038928919e-06 -4.8545882851519253e-06 0.0000000000000000e+00  -3.0373105496455230e-07 -9.4914295416238120e-07 0.0000000000000000e+00  -2.7219400998218650e+08 -1.3899782574340213e-07 0.0000000000000000e+00  -4.7910167817674533e+07 -1.1526613827087669e+08 0.0000000000000000e+00  9.6462049145352229e+07 5.6988677022235012e+08 0.0000000000000000e+00  -6.8438048706891561e+08 -2.0527205964128599e+08 0.0000000000000000e+00  -1.4752657988442439e+06 2.8588648551699233e+08 0.0000000000000000e+00  -3.6988608202128440e+08 -1.8956543119344428e+08 0.0000000000000000e+00  -1.6980293957326577e+09 -9.0913122203252959e+08 0.0000000000000000e+00  -1.0711106878831503e+08 -6.4523753041160572e+08 0.0000000000000000e+00  -9.3196897797639036e+08 -1.6884063300885780e+09 0.0000000000000000e+00  -5.8462494810650796e+07 1.1003744849244285e+09 0.0000000000000000e+00  -2.0947761732855253e+07 -1.8618408723492742e+09 0.0000000000000000e+00  -1.4558706867357862e+08 -1.0112944612917622e+09 0.0000000000000000e+00  6.9986923643067157e+08 4.3515520337837559e+08 0.0000000000000000e+00  1.4898975884349518e+09 -5.8455083140444040e+08 0.0000000000000000e+00  3.8519876408582807e+09 -5.6710796767567778e+08 0.0000000000000000e+00  2.2616882878153086e+09 -8.8056704201772320e+08 0.0000000000000000e+00  9.8034886558341175e+07 3.2794976104885274e+08 0.0000000000000000e+00  -9.0380971167485273e+08 5.6613728900618184e+08 0.0000000000000000e+00  -2.5856528832433719e+07 4.3328488852731597e+08 0.0000000000000000e+00  -9.5176206455907714e+08 4.4768343865433151e+08 0.0000000000000000e+00  -6.7653475402341771e+08 -6.6556366235783279e+08 0.0000000000000000e+00  1.4366183554973099e+08 -5.3295791462611699e+08 0.0000000000000000e+00  5.7619482881900676e+07 -1.6901102576762435e+08 0.0000000000000000e+00  6.1614521812883697e+07 -4.2015363821638215e+08 0.0000000000000000e+00  -1.9177314081070191e+08 6.6994792097374499e+07 0.0000000000000000e+00  -4.5366870350111490e+08 6.7811134627326012e+07 0.0000000000000000e+00  8.1683504535484755e+08 5.4419230661226690e+08 0.0000000000000000e+00  1.8617639593488169e+08 -9.4707203014206064e+08 0.0000000000000000e+00  -7.4864914072292900e+08 2.9465851540852249e+08 0.0000000000000000e+00  1.2362194644718339e+08 -2.2532445014264058e+07 0.0000000000000000e+00  -2.7607723443653941e+08 -6.0501614490627170e+08 0.0000000000000000e+00  -7.9586969641760141e+07 -7.7276884362202060e+08 0.0000000000000000e+00  3.8332334132946116e+08 -1.5384585705178589e+08 0.0000000000000000e+00  6.1759512834674656e+08 7.4902756372369564e+08 0.0000000000000000e+00  2.6090061071017516e+08 -7.4627436801262474e+08 0.0000000000000000e+00  3.1743693230196899e+08 1.7124556182262847e+08 0.0000000000000000e+00  6.7110991366412008e+08 5.1757128220390952e+08 0.0000000000000000e+00  -2.8804651343016690e+08 3.7167884723854089e+08 0.0000000000000000e+00  -1.4762877448436596e+09 6.9646922400350511e+08 0.0000000000000000e+00  2.8402672726899296e+08 1.8475091080750528e+08 0.0000000000000000e+00  3.4619847255985779e+08 -6.3766217961961675e+08 0.0000000000000000e+00  -1.0542488354190366e+09 1.2241905716829646e+08 0.0000000000000000e+00  -2.0289930102740476e+08 2.6688952328508618e+08 0.0000000000000000e+00  -1.4724397599384251e+08 -2.2920185325781241e+07 0.0000000000000000e+00  3.5640060969949991e+07 -1.3371298777405555e+09 0.0000000000000000e+00  -6.2049675580947362e+07 4.2036013299554211e+08 0.0000000000000000e+00  -3.1827463737179583e+08 5.6779545800160468e+08 0.0000000000000000e+00  1.1752342955976021e+09 -1.1432690724968362e+09 0.0000000000000000e+00  3.0278966429392123e+08 -2.9042814867132741e+08 0.0000000000000000e+00  7.4921985915862098e+07 2.3350414412798643e+08 0.0000000000000000e+00  -1.6436573151183289e+08 4.7388477187863284e+08 0.0000000000000000e+00  -4.1200679257549906e+08 -7.9010947643071783e+08 0.0000000000000000e+00  -3.1473151333372581e+08 -8.1155290064091849e+08 0.0000000000000000e+00  -1.0099034766278578e+09 8.5630475318007135e+08 0.0000000000000000e+00  -1.6925678561214142e+09 -1.1979407811613050e+09 0.0000000000000000e+00  -1.4319054867195740e+09 -4.9646821331810558e+08 0.0000000000000000e+00  1.1793495060612352e+09 3.9528064462314713e+08 0.0000000000000000e+00  -6.4164020662231517e+08 -5.5030159343329537e+08 0.0000000000000000e+00  -6.3166082069474983e+08 3.6245168902466804e+08 0.0000000000000000e+00  5.4145569797752595e+08 3.7824789829518580e+08 0.0000000000000000e+00  -5.2552619045628375e+08 5.4614125655580744e+07 0.0000000000000000e+00  -1.1513754811750751e+09 6.4145357794440937e+08 0.0000000000000000e+00  -4.2484293936815417e+08 4.7729654121820145e+09 0.0000000000000000e+00  -4.0802091184328204e+08 1.5722431641283202e+09 0.0000000000000000e+00  9.9945677220367062e+08 -1.9143491133645103e+09 0.0000000000000000e+00  -2.1201141396763482e+09 -7.7847824582121193e+07 0.0000000000000000e+00  -2.3341583596464796e+09 -2.0739633377318802e+09 0.0000000000000000e+00  -1.2003556488909569e+09 1.9993096546281276e+09 0.0000000000000000e+00  -4.2951850171482855e+08 -3.5006558877158499e+08 0.0000000000000000e+00  -5.6190478748076689e+08 -1.8716199984090576e+09 0.0000000000000000e+00  2.7393210398783785e+08 -1.9935610111982112e+09 0.0000000000000000e+00  -1.6447654322968690e+09 -1.3785103670396585e+09 0.0000000000000000e+00  -2.6933775387524414e+09 9.5143003951647794e+08 0.0000000000000000e+00  8.5819853132766116e+08 -9.6672032449894047e+08 0.0000000000000000e+00  8.9828654005016363e+08 8.1744387494378459e+08 0.0000000000000000e+00  2.2024022428960985e+08 -1.9924663073543744e+09 0.0000000000000000e+00  -3.9603105160014504e+08 1.7861762490786371e+08 0.0000000000000000e+00  4.3157460468212700e+08 1.9664967451152578e+08 0.0000000000000000e+00  -3.1494897619025412e+09 -1.2155244492663879e+09 0.0000000000000000e+00  3.0524217075288975e+08 3.5324052500924671e+08 0.0000000000000000e+00  5.5846196478339088e+08 -3.7318723788926866e-07 0.0000000000000000e+00  -1.3661022607861397e+09 0.0000000000000000e+00 0.0000000000000000e+00  -8.5665673924083436e+08 -2.2689645050571514e+06 0.0000000000000000e+00  1.1959466425657648e+08 -7.8670333357408240e+07 0.0000000000000000e+00  -1.1463574660535460e+09 -3.2070527705681527e+08 0.0000000000000000e+00  -6.9066398557400382e+08 1.2199492326365122e+08 0.0000000000000000e+00  -5.3620903717935884e+08 9.7090619828952610e+08 0.0000000000000000e+00  -4.9118245987354785e+08 -1.0671958540953547e+09 0.0000000000000000e+00  -6.2603241812174547e+08 -1.1648385392151537e+09 0.0000000000000000e+00  -4.1538293547539163e+08 -8.1542203676369143e+08 0.0000000000000000e+00  -1.0483008153370105e+09 1.2716400598902436e+08 0.0000000000000000e+00  -5.1172027959292215e+08 6.2643675156257617e+08 0.0000000000000000e+00  -3.0801734199184847e+08 6.1816334806644726e+08 0.0000000000000000e+00  -3.4184190452858263e+08 1.9983570411080322e+09 0.0000000000000000e+00  -6.0824406214848721e+08 2.5117705172072001e+09 0.0000000000000000e+00  1.3233494419503434e+09 4.4329872686462283e+08 0.0000000000000000e+00  8.4806600756772554e+08 9.6106380594611359e+08 0.0000000000000000e+00  -2.7092661328510177e+08 4.2920709050008440e+08 0.0000000000000000e+00  -3.7254994529489213e+08 -2.9540746845228535e+08 0.0000000000000000e+00  1.1411155961759129e+09 4.8704248543551868e+08 0.0000000000000000e+00  -2.5550605922774929e+08 -2.2446104153873497e+08 0.0000000000000000e+00  -6.8772219811042631e+08 -1.7115571579078131e+09 0.0000000000000000e+00  -1.3391128298169289e+09 -6.9114830291363156e+08 0.0000000000000000e+00  5.3876653117750514e+08 1.1697909072120738e+09 0.0000000000000000e+00  2.6903488712964958e+08 1.8686986406768602e+08 0.0000000000000000e+00  7.5441238047646272e+08 -2.7911891931815380e+08 0.0000000000000000e+00  1.0465715445569532e+09 -1.0096880124348892e+09 0.0000000000000000e+00  -7.5101285837265146e+08 2.8425280850616032e+08 0.0000000000000000e+00  -7.6779161208402646e+08 7.8474359450015104e+08 0.0000000000000000e+00  3.5105621817404038e+08 6.9339410278800106e+08 0.0000000000000000e+00  6.5505968819606543e+08 -5.0028106666221327e+08 0.0000000000000000e+00  1.1715532486644995e+09 4.4390938806669796e+08 0.0000000000000000e+00  1.4610330778111908e+08 2.2109086142894596e+08 0.0000000000000000e+00  -3.0129972925100453e+07 1.7199299369249749e+08 0.0000000000000000e+00  2.8322039968187183e+08 -7.6569277526768530e+06 0.0000000000000000e+00  4.7196511174362618e+08 1.8122197686689189e+08 0.0000000000000000e+00  2.3631671522599107e+08 1.0193143860096644e+09 0.0000000000000000e+00  -4.4349815635570055e+08 8.7279100078771365e+08 0.0000000000000000e+00  -4.0791802222216982e+08 -6.0893517508294374e+07 0.0000000000000000e+00  -5.1615328190498257e+08 -1.0213469509585613e+09 0.0000000000000000e+00  -6.6750326555683899e+08 -7.5297509806683445e+08 0.0000000000000000e+00  3.9736863707349467e+08 -4.3206203419194239e+08 0.0000000000000000e+00  -8.2848021558904305e+07 -9.5960936111559284e+08 0.0000000000000000e+00  -4.4373707916331720e+08 -6.8648087029111072e+07 0.0000000000000000e+00  -5.0382867288532257e+07 -6.4848293483167565e+08 0.0000000000000000e+00  -5.8732819546406734e+08 1.4791229007946017e+08 0.0000000000000000e+00  9.2409552564467883e+08 1.2240513179809728e+09 0.0000000000000000e+00  1.0315236827749097e+09 9.4769589323167276e+08 0.0000000000000000e+00  -8.0660396108427951e+06 7.0108162118766046e+08 0.0000000000000000e+00  -1.4097235473757738e+08 3.8639699196476579e+08 0.0000000000000000e+00  -9.9991205464783454e+08 -5.1737346948007017e+08 0.0000000000000000e+00  -5.7506459832374442e+08 3.8864530245207357e+08 0.0000000000000000e+00  -4.9717451343889165e+08 -1.3121922964445786e+08 0.0000000000000000e+00  -1.4717516763358300e+09 5.4705430355978203e+08 0.0000000000000000e+00  -3.3546931073620898e+08 -1.4164707048232484e+08 0.0000000000000000e+00  -9.0836021745131814e+08 -8.0577122083921969e+07 0.0000000000000000e+00  -1.0905277046491816e+09 -3.8005078927606475e+08 0.0000000000000000e+00  -3.7640795554385170e+07 -1.5760305656467738e+09 0.0000000000000000e+00  -5.8499023911579013e+08 -3.8477007053312260e+08 0.0000000000000000e+00  -3.8268782473882669e+08 -5.3281531909007823e+08 0.0000000000000000e+00  -1.4835570525036669e+09 5.0236775075161320e+08 0.0000000000000000e+00  -5.7515197597078526e+08 -6.0336182237381804e+08 0.0000000000000000e+00  -1.4266928433479624e+09 -1.2875179150480807e+08 0.0000000000000000e+00  2.8104687608676898e+08 1.2927300436547599e+09 0.0000000000000000e+00  -9.6917830660387278e+08 8.9147142316255689e+08 0.0000000000000000e+00  4.0787185017924935e+08 -1.2464412600938199e+09 0.0000000000000000e+00  7.1567581812727797e+08 1.1525213826587081e+09 0.0000000000000000e+00  -2.6687070442979670e+09 1.0775488263650072e+09 0.0000000000000000e+00  -1.1815031933367314e+09 2.4532797015926251e+08 0.0000000000000000e+00  1.6383353789071587e+08 -7.2783452543955278e+08 0.0000000000000000e+00  -1.0086428023489158e+09 -2.6355947955731469e+08 0.0000000000000000e+00  -9.1690020070835638e+08 -1.2786530181998353e+09 0.0000000000000000e+00  -2.2594155549666286e+09 -8.6621500088370192e+08 0.0000000000000000e+00  -1.3066434179497118e+08 -1.0093416527324535e+09 0.0000000000000000e+00  4.4454741639054805e+08 -1.2308184573472576e+09 0.0000000000000000e+00  1.0730663861978062e+09 -3.0949772293376598e+09 0.0000000000000000e+00  -1.2725742412685020e+09 1.8109430260700203e+07 0.0000000000000000e+00  2.4978114172576089e+09 3.0206409171571851e+08 0.0000000000000000e+00  -1.5678423527061489e+09 -5.7872818938729250e+08 0.0000000000000000e+00  1.4887476325432734e+09 -1.9423628384964342e+09 0.0000000000000000e+00  1.9609677595253572e+09 4.1308242811768064e+09 0.0000000000000000e+00  -1.6525061166354876e+09 -1.0641920481920449e-06 0.0000000000000000e+00  -1.2078100830708184e+09 0.0000000000000000e+00 0.0000000000000000e+00  -1.4188267037329049e+09 -4.9169626684848410e+08 0.0000000000000000e+00  -5.9346635936707802e+07 -2.8392657275222957e+08 0.0000000000000000e+00  -3.1165885986425322e+08 1.3308447887904637e+08 0.0000000000000000e+00  -5.4622392755244505e+08 4.1982545971434690e+07 0.0000000000000000e+00  -1.4445266607080748e+09 9.7565847194825721e+08 0.0000000000000000e+00  -1.0147020766246823e+09 6.6047091071050799e+08 0.0000000000000000e+00  -4.4913585850138915e+08 -1.0977772658573456e+09 0.0000000000000000e+00  -6.4094135825829065e+08 2.8539361128234327e+08 0.0000000000000000e+00  -2.3972692060436356e+08 7.0997378269446051e+08 0.0000000000000000e+00  -6.1591922920937514e+08 -1.4953165456709704e+08 0.0000000000000000e+00  1.7693457100679483e+09 -2.4796718793459010e+09 0.0000000000000000e+00  1.0644698767862651e+08 6.3704268799781919e+08 0.0000000000000000e+00  1.9470457002217123e+08 -5.7128376255089626e+07 0.0000000000000000e+00  -4.4141380958259058e+08 -1.0750925265806189e+09 0.0000000000000000e+00  7.6960623458222008e+08 1.5033900356150732e+09 0.0000000000000000e+00  1.0507909586736901e+09 6.3961746997253072e+08 0.0000000000000000e+00  5.9766517061443853e+08 3.0035826437092477e+08 0.0000000000000000e+00  -1.1627372320712963e+07 1.7533485064063531e+08 0.0000000000000000e+00  -4.7153540045519149e+08 -6.4087628874739833e+07 0.0000000000000000e+00  -3.6435568935589492e+08 9.1788538277144456e+08 0.0000000000000000e+00  5.6586488465736878e+08 -6.2570037965609424e+07 0.0000000000000000e+00  -2.9078309083380711e+08 -1.0731621669444650e+08 0.0000000000000000e+00  5.1239238218010771e+08 -4.9139178714821315e+08 0.0000000000000000e+00  -9.3368193307300448e+07 -7.1579520838154066e+08 0.0000000000000000e+00  -1.1332575874937568e+09 7.8465230725490463e+08 0.0000000000000000e+00  -7.1977780337211549e+08 -1.5891889106570363e+08 0.0000000000000000e+00  -1.5248531405254358e+08 3.5662371285094666e+08 0.0000000000000000e+00  -2.4139997700942125e+07 8.2519669833549500e+08 0.0000000000000000e+00  -7.1117654229542241e+07 -2.6293899893814263e+08 0.0000000000000000e+00  6.7692363206409538e+08 2.2051950994918627e+08 0.0000000000000000e+00  3.0565981816284633e+08 2.6667811224968305e+08 0.0000000000000000e+00  3.1273541142863077e+08 -2.6705613934628966e+08 0.0000000000000000e+00  1.8531669771699646e+08 -1.1783443692829349e+09 0.0000000000000000e+00  3.0319889772468257e+08 -5.9514189317322779e+08 0.0000000000000000e+00  -2.8654383149484617e+08 7.0205932837074482e+08 0.0000000000000000e+00  -4.9697625901024640e+08 1.3874287647892911e+09 0.0000000000000000e+00  -