<?xml version="1.0"?>
<VTKFile type="UnstructuredGrid"  version="0.1"  >
<UnstructuredGrid>
<Piece  NumberOfPoints="1369" NumberOfCells="2560">
<Points>
<DataArray  type="Float64"  NumberOfComponents="3"  format="ascii">0 0 0  0.75 0 0  1.5 0 0  2.25 0 0  3 0 0  3.75 0 0  4.5 0 0  5.25 0 0  6 0 0  6.75 0 0  7.5 0 0  8.25 0 0  9 0 0  9.75 0 0  10.5 0 0  11.25 0 0  12 0 0  12.75 0 0  13.5 0 0  14.25 0 0  15 0 0  15.75 0 0  16.5 0 0  17.25 0 0  18 0 0  18.75 0 0  19.5 0 0  20.25 0 0  21 0 0  21.75 0 0  22.5 0 0  23.25 0 0  24 0 0  24.75 0 0  25.5 0 0  26.25 0 0  27 0 0  27.75 0 0  28.5 0 0  29.25 0 0  30 0 0  30.75 0 0  31.5 0 0  32.25 0 0  33 0 0  33.75 0 0  34.5 0 0  35.25 0 0  36 0 0  36.75 0 0  37.5 0 0  38.25 0 0  39 0 0  39.75 0 0  40.5 0 0  41.25 0 0  42 0 0  42.75 0 0  43.5 0 0  44.25 0 0  45 0 0  45.75 0 0  46.5 0 0  47.25 0 0  48 0 0  48.75 0 0  49.5 0 0  50.25 0 0  51 0 0  51.75 0 0  52.5 0 0  53.25 0 0  54 0 0  54.75 0 0  55.5 0 0  56.25 0 0  57 0 0  57.75 0 0  58.5 0 0  59.25 0 0  60 0 0  0 0.5 0  0.75 0.5 0  1.5 0.5 0  2.25 0.5 0  3 0.5 0  3.75 0.5 0  4.5 0.5 0  5.25 0.5 0  6 0.5 0  6.75 0.5 0  7.5 0.5 0  8.25 0.5 0  9 0.5 0  9.75 0.5 0  10.5 0.5 0  11.25 0.5 0  12 0.5 0  12.75 0.5 0  13.5 0.5 0  14.25 0.5 0  15 0.5 0  15.75 0.5 0  16.5 0.5 0  17.25 0.5 0  18 0.5 0  18.75 0.5 0  19.5 0.5 0  20.25 0.5 0  21 0.5 0  21.75 0.5 0  22.5 0.5 0  23.25 0.5 0  24 0.5 0  24.75 0.5 0  25.5 0.5 0  26.25 0.5 0  27 0.5 0  27.75 0.5 0  28.5 0.5 0  29.25 0.5 0  30 0.5 0  30.75 0.5 0  31.5 0.5 0  32.25 0.5 0  33 0.5 0  33.75 0.5 0  34.5 0.5 0  35.25 0.5 0  36 0.5 0  36.75 0.5 0  37.5 0.5 0  38.25 0.5 0  39 0.5 0  39.75 0.5 0  40.5 0.5 0  41.25 0.5 0  42 0.5 0  42.75 0.5 0  43.5 0.5 0  44.25 0.5 0  45 0.5 0  45.75 0.5 0  46.5 0.5 0  47.25 0.5 0  48 0.5 0  48.75 0.5 0  49.5 0.5 0  50.25 0.5 0  51 0.5 0  51.75 0.5 0  52.5 0.5 0  53.25 0.5 0  54 0.5 0  54.75 0.5 0  55.5 0.5 0  56.25 0.5 0  57 0.5 0  57.75 0.5 0  58.5 0.5 0  59.25 0.5 0  60 0.5 0  0 1 0  0.75 1 0  1.5 1 0  2.25 1 0  3 1 0  3.75 1 0  4.5 1 0  5.25 1 0  6 1 0  6.75 1 0  7.5 1 0  8.25 1 0  9 1 0  9.75 1 0  10.5 1 0  11.25 1 0  12 1 0  12.75 1 0  13.5 1 0  14.25 1 0  15 1 0  15.75 1 0  16.5 1 0  17.25 1 0  18 1 0  18.75 1 0  19.5 1 0  20.25 1 0  21 1 0  21.75 1 0  22.5 1 0  23.25 1 0  24 1 0  24.75 1 0  25.5 1 0  26.25 1 0  27 1 0  27.75 1 0  28.5 1 0  29.25 1 0  30 1 0  30.75 1 0  31.5 1 0  32.25 1 0  33 1 0  33.75 1 0  34.5 1 0  35.25 1 0  36 1 0  36.75 1 0  37.5 1 0  38.25 1 0  39 1 0  39.75 1 0  40.5 1 0  41.25 1 0  42 1 0  42.75 1 0  43.5 1 0  44.25 1 0  45 1 0  45.75 1 0  46.5 1 0  47.25 1 0  48 1 0  48.75 1 0  49.5 1 0  50.25 1 0  51 1 0  51.75 1 0  52.5 1 0  53.25 1 0  54 1 0  54.75 1 0  55.5 1 0  56.25 1 0  57 1 0  57.75 1 0  58.5 1 0  59.25 1 0  60 1 0  0 1.5 0  0.75 1.5 0  1.5 1.5 0  2.25 1.5 0  3 1.5 0  3.75 1.5 0  4.5 1.5 0  5.25 1.5 0  6 1.5 0  6.75 1.5 0  7.5 1.5 0  8.25 1.5 0  9 1.5 0  9.75 1.5 0  10.5 1.5 0  11.25 1.5 0  12 1.5 0  12.75 1.5 0  13.5 1.5 0  14.25 1.5 0  15 1.5 0  15.75 1.5 0  16.5 1.5 0  17.25 1.5 0  18 1.5 0  18.75 1.5 0  19.5 1.5 0  20.25 1.5 0  21 1.5 0  21.75 1.5 0  22.5 1.5 0  23.25 1.5 0  24 1.5 0  24.75 1.5 0  25.5 1.5 0  26.25 1.5 0  27 1.5 0  27.75 1.5 0  28.5 1.5 0  29.25 1.5 0  30 1.5 0  30.75 1.5 0  31.5 1.5 0  32.25 1.5 0  33 1.5 0  33.75 1.5 0  34.5 1.5 0  35.25 1.5 0  36 1.5 0  36.75 1.5 0  37.5 1.5 0  38.25 1.5 0  39 1.5 0  39.75 1.5 0  40.5 1.5 0  41.25 1.5 0  42 1.5 0  42.75 1.5 0  43.5 1.5 0  44.25 1.5 0  45 1.5 0  45.75 1.5 0  46.5 1.5 0  47.25 1.5 0  48 1.5 0  48.75 1.5 0  49.5 1.5 0  50.25 1.5 0  51 1.5 0  51.75 1.5 0  52.5 1.5 0  53.25 1.5 0  54 1.5 0  54.75 1.5 0  55.5 1.5 0  56.25 1.5 0  57 1.5 0  57.75 1.5 0  58.5 1.5 0  59.25 1.5 0  60 1.5 0  0 2 0  0.75 2 0  1.5 2 0  2.25 2 0  3 2 0  3.75 2 0  4.5 2 0  5.25 2 0  6 2 0  6.75 2 0  7.5 2 0  8.25 2 0  9 2 0  9.75 2 0  10.5 2 0  11.25 2 0  12 2 0  12.75 2 0  13.5 2 0  14.25 2 0  15 2 0  15.75 2 0  16.5 2 0  17.25 2 0  18 2 0  18.75 2 0  19.5 2 0  20.25 2 0  21 2 0  21.75 2 0  22.5 2 0  23.25 2 0  24 2 0  24.75 2 0  25.5 2 0  26.25 2 0  27 2 0  27.75 2 0  28.5 2 0  29.25 2 0  30 2 0  30.75 2 0  31.5 2 0  32.25 2 0  33 2 0  33.75 2 0  34.5 2 0  35.25 2 0  36 2 0  36.75 2 0  37.5 2 0  38.25 2 0  39 2 0  39.75 2 0  40.5 2 0  41.25 2 0  42 2 0  42.75 2 0  43.5 2 0  44.25 2 0  45 2 0  45.75 2 0  46.5 2 0  47.25 2 0  48 2 0  48.75 2 0  49.5 2 0  50.25 2 0  51 2 0  51.75 2 0  52.5 2 0  53.25 2 0  54 2 0  54.75 2 0  55.5 2 0  56.25 2 0  57 2 0  57.75 2 0  58.5 2 0  59.25 2 0  60 2 0  0 2.5 0  0.75 2.5 0  1.5 2.5 0  2.25 2.5 0  3 2.5 0  3.75 2.5 0  4.5 2.5 0  5.25 2.5 0  6 2.5 0  6.75 2.5 0  7.5 2.5 0  8.25 2.5 0  9 2.5 0  9.75 2.5 0  10.5 2.5 0  11.25 2.5 0  12 2.5 0  12.75 2.5 0  13.5 2.5 0  14.25 2.5 0  15 2.5 0  15.75 2.5 0  16.5 2.5 0  17.25 2.5 0  18 2.5 0  18.75 2.5 0  19.5 2.5 0  20.25 2.5 0  21 2.5 0  21.75 2.5 0  22.5 2.5 0  23.25 2.5 0  24 2.5 0  24.75 2.5 0  25.5 2.5 0  26.25 2.5 0  27 2.5 0  27.75 2.5 0  28.5 2.5 0  29.25 2.5 0  30 2.5 0  30.75 2.5 0  31.5 2.5 0  32.25 2.5 0  33 2.5 0  33.75 2.5 0  34.5 2.5 0  35.25 2.5 0  36 2.5 0  36.75 2.5 0  37.5 2.5 0  38.25 2.5 0  39 2.5 0  39.75 2.5 0  40.5 2.5 0  41.25 2.5 0  42 2.5 0  42.75 2.5 0  43.5 2.5 0  44.25 2.5 0  45 2.5 0  45.75 2.5 0  46.5 2.5 0  47.25 2.5 0  48 2.5 0  48.75 2.5 0  49.5 2.5 0  50.25 2.5 0  51 2.5 0  51.75 2.5 0  52.5 2.5 0  53.25 2.5 0  54 2.5 0  54.75 2.5 0  55.5 2.5 0  56.25 2.5 0  57 2.5 0  57.75 2.5 0  58.5 2.5 0  59.25 2.5 0  60 2.5 0  0 3 0  0.75 3 0  1.5 3 0  2.25 3 0  3 3 0  3.75 3 0  4.5 3 0  5.25 3 0  6 3 0  6.75 3 0  7.5 3 0  8.25 3 0  9 3 0  9.75 3 0  10.5 3 0  11.25 3 0  12 3 0  12.75 3 0  13.5 3 0  14.25 3 0  15 3 0  15.75 3 0  16.5 3 0  17.25 3 0  18 3 0  18.75 3 0  19.5 3 0  20.25 3 0  21 3 0  21.75 3 0  22.5 3 0  23.25 3 0  24 3 0  24.75 3 0  25.5 3 0  26.25 3 0  27 3 0  27.75 3 0  28.5 3 0  29.25 3 0  30 3 0  30.75 3 0  31.5 3 0  32.25 3 0  33 3 0  33.75 3 0  34.5 3 0  35.25 3 0  36 3 0  36.75 3 0  37.5 3 0  38.25 3 0  39 3 0  39.75 3 0  40.5 3 0  41.25 3 0  42 3 0  42.75 3 0  43.5 3 0  44.25 3 0  45 3 0  45.75 3 0  46.5 3 0  47.25 3 0  48 3 0  48.75 3 0  49.5 3 0  50.25 3 0  51 3 0  51.75 3 0  52.5 3 0  53.25 3 0  54 3 0  54.75 3 0  55.5 3 0  56.25 3 0  57 3 0  57.75 3 0  58.5 3 0  59.25 3 0  60 3 0  0 3.5 0  0.75 3.5 0  1.5 3.5 0  2.25 3.5 0  3 3.5 0  3.75 3.5 0  4.5 3.5 0  5.25 3.5 0  6 3.5 0  6.75 3.5 0  7.5 3.5 0  8.25 3.5 0  9 3.5 0  9.75 3.5 0  10.5 3.5 0  11.25 3.5 0  12 3.5 0  12.75 3.5 0  13.5 3.5 0  14.25 3.5 0  15 3.5 0  15.75 3.5 0  16.5 3.5 0  17.25 3.5 0  18 3.5 0  18.75 3.5 0  19.5 3.5 0  20.25 3.5 0  21 3.5 0  21.75 3.5 0  22.5 3.5 0  23.25 3.5 0  24 3.5 0  24.75 3.5 0  25.5 3.5 0  26.25 3.5 0  27 3.5 0  27.75 3.5 0  28.5 3.5 0  29.25 3.5 0  30 3.5 0  30.75 3.5 0  31.5 3.5 0  32.25 3.5 0  33 3.5 0  33.75 3.5 0  34.5 3.5 0  35.25 3.5 0  36 3.5 0  36.75 3.5 0  37.5 3.5 0  38.25 3.5 0  39 3.5 0  39.75 3.5 0  40.5 3.5 0  41.25 3.5 0  42 3.5 0  42.75 3.5 0  43.5 3.5 0  44.25 3.5 0  45 3.5 0  45.75 3.5 0  46.5 3.5 0  47.25 3.5 0  48 3.5 0  48.75 3.5 0  49.5 3.5 0  50.25 3.5 0  51 3.5 0  51.75 3.5 0  52.5 3.5 0  53.25 3.5 0  54 3.5 0  54.75 3.5 0  55.5 3.5 0  56.25 3.5 0  57 3.5 0  57.75 3.5 0  58.5 3.5 0  59.25 3.5 0  60 3.5 0  0 4 0  0.75 4 0  1.5 4 0  2.25 4 0  3 4 0  3.75 4 0  4.5 4 0  5.25 4 0  6 4 0  6.75 4 0  7.5 4 0  8.25 4 0  9 4 0  9.75 4 0  10.5 4 0  11.25 4 0  12 4 0  12.75 4 0  13.5 4 0  14.25 4 0  15 4 0  15.75 4 0  16.5 4 0  17.25 4 0  18 4 0  18.75 4 0  19.5 4 0  20.25 4 0  21 4 0  21.75 4 0  22.5 4 0  23.25 4 0  24 4 0  24.75 4 0  25.5 4 0  26.25 4 0  27 4 0  27.75 4 0  28.5 4 0  29.25 4 0  30 4 0  30.75 4 0  31.5 4 0  32.25 4 0  33 4 0  33.75 4 0  34.5 4 0  35.25 4 0  36 4 0  36.75 4 0  37.5 4 0  38.25 4 0  39 4 0  39.75 4 0  40.5 4 0  41.25 4 0  42 4 0  42.75 4 0  43.5 4 0  44.25 4 0  45 4 0  45.75 4 0  46.5 4 0  47.25 4 0  48 4 0  48.75 4 0  49.5 4 0  50.25 4 0  51 4 0  51.75 4 0  52.5 4 0  53.25 4 0  54 4 0  54.75 4 0  55.5 4 0  56.25 4 0  57 4 0  57.75 4 0  58.5 4 0  59.25 4 0  60 4 0  0.375 0.25 0  1.125 0.25 0  1.875 0.25 0  2.625 0.25 0  3.375 0.25 0  4.125 0.25 0  4.875 0.25 0  5.625 0.25 0  6.375 0.25 0  7.125 0.25 0  7.875 0.25 0  8.625 0.25 0  9.375 0.25 0  10.125 0.25 0  10.875 0.25 0  11.625 0.25 0  12.375 0.25 0  13.125 0.25 0  13.875 0.25 0  14.625 0.25 0  15.375 0.25 0  16.125 0.25 0  16.875 0.25 0  17.625 0.25 0  18.375 0.25 0  19.125 0.25 0  19.875 0.25 0  20.625 0.25 0  21.375 0.25 0  22.125 0.25 0  22.875 0.25 0  23.625 0.25 0  24.375 0.25 0  25.125 0.25 0  25.875 0.25 0  26.625 0.25 0  27.375 0.25 0  28.125 0.25 0  28.875 0.25 0  29.625 0.25 0  30.375 0.25 0  31.125 0.25 0  31.875 0.25 0  32.625 0.25 0  33.375 0.25 0  34.125 0.25 0  34.875 0.25 0  35.625 0.25 0  36.375 0.25 0  37.125 0.25 0  37.875 0.25 0  38.625 0.25 0  39.375 0.25 0  40.125 0.25 0  40.875 0.25 0  41.625 0.25 0  42.375 0.25 0  43.125 0.25 0  43.875 0.25 0  44.625 0.25 0  45.375 0.25 0  46.125 0.25 0  46.875 0.25 0  47.625 0.25 0  48.375 0.25 0  49.125 0.25 0  49.875 0.25 0  50.625 0.25 0  51.375 0.25 0  52.125 0.25 0  52.875 0.25 0  53.625 0.25 0  54.375 0.25 0  55.125 0.25 0  55.875 0.25 0  56.625 0.25 0  57.375 0.25 0  58.125 0.25 0  58.875 0.25 0  59.625 0.25 0  0.375 0.75 0  1.125 0.75 0  1.875 0.75 0  2.625 0.75 0  3.375 0.75 0  4.125 0.75 0  4.875 0.75 0  5.625 0.75 0  6.375 0.75 0  7.125 0.75 0  7.875 0.75 0  8.625 0.75 0  9.375 0.75 0  10.125 0.75 0  10.875 0.75 0  11.625 0.75 0  12.375 0.75 0  13.125 0.75 0  13.875 0.75 0  14.625 0.75 0  15.375 0.75 0  16.125 0.75 0  16.875 0.75 0  17.625 0.75 0  18.375 0.75 0  19.125 0.75 0  19.875 0.75 0  20.625 0.75 0  21.375 0.75 0  22.125 0.75 0  22.875 0.75 0  23.625 0.75 0  24.375 0.75 0  25.125 0.75 0  25.875 0.75 0  26.625 0.75 0  27.375 0.75 0  28.125 0.75 0  28.875 0.75 0  29.625 0.75 0  30.375 0.75 0  31.125 0.75 0  31.875 0.75 0  32.625 0.75 0  33.375 0.75 0  34.125 0.75 0  34.875 0.75 0  35.625 0.75 0  36.375 0.75 0  37.125 0.75 0  37.875 0.75 0  38.625 0.75 0  39.375 0.75 0  40.125 0.75 0  40
[...]
<PointData  Vectors="f_8-0"> 
<DataArray  type="Float64"  Name="f_8-0"  NumberOfComponents="3" format="ascii">4.5591817762557538e-08 6.0656580143301137e-08 0.0000000000000000e+00  0.0000000000000000e+00 -4.6777149516858770e-08 0.0000000000000000e+00  -3.1888632930246222e-06 1.4307720234873776e-05 0.0000000000000000e+00  0.0000000000000000e+00 0.0000000000000000e+00 0.0000000000000000e+00  9.9898191181219831e-08 1.4512904740580395e-06 0.0000000000000000e+00  5.4172333449394623e-06 -3.2770876523041031e-06 0.0000000000000000e+00  -8.9876214000949395e-06 1.2866838721959443e-07 0.0000000000000000e+00  -3.3648092034412021e-06 3.1312529471775484e-06 0.0000000000000000e+00  6.3044420829597268e-07 7.7333158235145448e-07 0.0000000000000000e+00  1.0613944122919445e-05 3.1096616583515961e-07 0.0000000000000000e+00  -4.2712919950096587e-06 -3.2416486286713920e-07 0.0000000000000000e+00  -1.4845457860393016e-05 -1.9818497946231963e-05 0.0000000000000000e+00  6.1075905239498793e-07 7.4435630411602161e-07 0.0000000000000000e+00  4.8834820080349171e-06 9.8455975034644173e-07 0.0000000000000000e+00  4.0827248550458947e-06 1.5979404717234370e-05 0.0000000000000000e+00  0.0000000000000000e+00 0.0000000000000000e+00 0.0000000000000000e+00  0.0000000000000000e+00 0.0000000000000000e+00 0.0000000000000000e+00  -3.2374243497885864e-08 -2.2661594818701886e-07 0.0000000000000000e+00  -1.1725694407805772e-06 -1.1467123870059350e-07 0.0000000000000000e+00  -1.9422397157735385e-04 -1.2581608658473969e-05 0.0000000000000000e+00  3.0827488114352509e-07 -3.5375073772366321e-07 0.0000000000000000e+00  0.0000000000000000e+00 0.0000000000000000e+00 0.0000000000000000e+00  0.0000000000000000e+00 -7.2338083904500419e-08 0.0000000000000000e+00  0.0000000000000000e+00 0.0000000000000000e+00 0.0000000000000000e+00  -8.9324943551049177e-07 -6.7227964191404779e-06 0.0000000000000000e+00  0.0000000000000000e+00 0.0000000000000000e+00 0.0000000000000000e+00  2.4626683923927161e-06 2.8972211178524614e-07 0.0000000000000000e+00  7.7535915254135270e-07 -3.8944725502220627e-06 0.0000000000000000e+00  0.0000000000000000e+00 0.0000000000000000e+00 0.0000000000000000e+00  0.0000000000000000e+00 0.0000000000000000e+00 0.0000000000000000e+00  0.0000000000000000e+00 0.0000000000000000e+00 0.0000000000000000e+00  -8.9781246218410379e-05 7.2582155019493651e-05 0.0000000000000000e+00  0.0000000000000000e+00 0.0000000000000000e+00 0.0000000000000000e+00  2.1920171660350919e-06 -4.6392311679804179e-07 0.0000000000000000e+00  -5.1288922345851545e-08 0.0000000000000000e+00 0.0000000000000000e+00  -1.0365885372038137e-05 4.9301224905932387e-06 0.0000000000000000e+00  0.0000000000000000e+00 0.0000000000000000e+00 0.0000000000000000e+00  0.0000000000000000e+00 0.0000000000000000e+00 0.0000000000000000e+00  -9.7093498786730560e-06 -3.5026446930521916e-06 0.0000000000000000e+00  4.3800862188912392e-06 5.1155565354212940e-06 0.0000000000000000e+00  -5.8672843011591027e-06 -9.0039025922107795e-07 0.0000000000000000e+00  -1.6495224093963904e-07 -8.7973290195744702e-07 0.0000000000000000e+00  -1.7828748705797687e-05 -3.3901504758006855e-05 0.0000000000000000e+00  0.0000000000000000e+00 0.0000000000000000e+00 0.0000000000000000e+00  0.0000000000000000e+00 0.0000000000000000e+00 0.0000000000000000e+00  0.0000000000000000e+00 6.9620445877141220e-08 0.0000000000000000e+00  1.4131099432255353e-06 3.4925045547776019e-07 0.0000000000000000e+00  0.0000000000000000e+00 -1.9661341815299731e-08 0.0000000000000000e+00  0.0000000000000000e+00 -2.8490902440821220e-08 0.0000000000000000e+00  1.4477157456882308e-06 1.3784360567804872e-06 0.0000000000000000e+00  -1.6778442093561364e-07 0.0000000000000000e+00 0.0000000000000000e+00  0.0000000000000000e+00 0.0000000000000000e+00 0.0000000000000000e+00  0.0000000000000000e+00 0.0000000000000000e+00 0.0000000000000000e+00  0.0000000000000000e+00 0.0000000000000000e+00 0.0000000000000000e+00  5.9874384844253703e-07 3.1281427891963914e-07 0.0000000000000000e+00  0.0000000000000000e+00 8.2095151493003777e-07 0.0000000000000000e+00  0.0000000000000000e+00 2.1066081594433116e-06 0.0000000000000000e+00  0.0000000000000000e+00 0.0000000000000000e+00 0.0000000000000000e+00  -1.1726007417511100e-05 -9.3590620150443114e-05 0.0000000000000000e+00  4.3410830989595087e-05 1.1123151885577456e-05 0.0000000000000000e+00  6.2599010960800655e-06 -3.1959058394521494e-05 0.0000000000000000e+00  0.0000000000000000e+00 0.0000000000000000e+00 0.0000000000000000e+00  -1.7219437593957065e-06 -4.5696935203406189e-06 0.0000000000000000e+00  -4.2234924105355744e-06 -4.4603691444367990e-07 0.0000000000000000e+00  0.0000000000000000e+00 -2.1981190751638711e-08 0.0000000000000000e+00  0.0000000000000000e+00 8.8679422575297411e-08 0.0000000000000000e+00  0.0000000000000000e+00 0.0000000000000000e+00 0.0000000000000000e+00  -2.5445349573532040e-07 1.8000467265531693e-06 0.0000000000000000e+00  0.0000000000000000e+00 4.4127057923112307e-07 0.0000000000000000e+00  0.0000000000000000e+00 0.0000000000000000e+00 0.0000000000000000e+00  0.0000000000000000e+00 8.8297079453121946e-07 0.0000000000000000e+00  0.0000000000000000e+00 0.0000000000000000e+00 0.0000000000000000e+00  1.4707494647687955e-07 0.0000000000000000e+00 0.0000000000000000e+00  7.8630972802379650e-06 -1.7991263246674511e-05 0.0000000000000000e+00  0.0000000000000000e+00 0.0000000000000000e+00 0.0000000000000000e+00  0.0000000000000000e+00 0.0000000000000000e+00 0.0000000000000000e+00  0.0000000000000000e+00 0.0000000000000000e+00 0.0000000000000000e+00  0.0000000000000000e+00 0.0000000000000000e+00 0.0000000000000000e+00  0.0000000000000000e+00 0.0000000000000000e+00 0.0000000000000000e+00  0.0000000000000000e+00 0.0000000000000000e+00 0.0000000000000000e+00  -2.0325179606460926e-07 1.3837209123645510e-07 0.0000000000000000e+00  -1.4289817413863066e+08 1.1708575089304575e-07 0.0000000000000000e+00  -1.7365574662236226e+08 1.6855531563559347e+08 0.0000000000000000e+00  -6.0995480744673319e+07 -4.0840845100608036e+07 0.0000000000000000e+00  1.4566889612433720e+07 3.8148488983694434e+07 0.0000000000000000e+00  6.4237564076299421e+07 2.2643704210031414e+06 0.0000000000000000e+00  2.5106918708141226e+07 -9.0576991735676602e+07 0.0000000000000000e+00  7.5377945836719841e+07 2.5356303506058758e+08 0.0000000000000000e+00  3.6564499101272166e+07 2.8148654949904227e+08 0.0000000000000000e+00  -1.4677591382108310e+08 -9.4558696594904020e+07 0.0000000000000000e+00  -7.0079732062112307e+05 -2.0989748510877284e+08 0.0000000000000000e+00  -5.4174848142100476e+07 1.7264187722740507e+08 0.0000000000000000e+00  -2.9760355967278998e+07 -2.6059305283147877e+08 0.0000000000000000e+00  -3.8027727485167384e+07 3.4073506324445254e+08 0.0000000000000000e+00  -8.9875132236325759e+06 1.0962658818113300e+08 0.0000000000000000e+00  1.3474432748591122e+08 1.3561346365604073e+08 0.0000000000000000e+00  -2.0751752819469985e+08 8.2584227160434484e+07 0.0000000000000000e+00  1.1199753465610640e+08 -1.6195966457294253e+08 0.0000000000000000e+00  5.9286567775812447e+07 1.6254457477419576e+08 0.0000000000000000e+00  8.5038749144349664e+07 3.2759561137910400e+07 0.0000000000000000e+00  1.3293008858057250e+08 9.4428038029460028e+07 0.0000000000000000e+00  -1.5682274831019032e+08 -2.5461031263821575e+08 0.0000000000000000e+00  -2.4248829626873904e+08 2.4307468586594564e+08 0.0000000000000000e+00  -2.8036179764767200e+08 -2.5437880232349843e+07 0.0000000000000000e+00  1.9731750231507993e+08 -5.8150268191296928e+07 0.0000000000000000e+00  1.7457968385067608e+07 3.6875519356639639e+07 0.0000000000000000e+00  -1.2759374364970639e+08 8.7363509590791777e+07 0.0000000000000000e+00  5.3546496219205543e+07 -2.3006239353895128e+08 0.0000000000000000e+00  -5.2949495163351418e+06 -1.4982162527108780e+08 0.0000000000000000e+00  2.1084482157506675e+08 8.4775196660693288e+07 0.0000000000000000e+00  -1.4723153714640471e+08 8.0694870282978624e+07 0.0000000000000000e+00  6.3940879437115386e+07 2.1635624478521401e+08 0.0000000000000000e+00  -8.1875488454754248e+07 6.2824876632425383e+07 0.0000000000000000e+00  4.1240184659631684e+07 -1.0157669314763434e+07 0.0000000000000000e+00  1.2697697527519396e+08 -6.3603218819201052e+08 0.0000000000000000e+00  -3.4627364450132585e+08 2.5786286125640416e+08 0.0000000000000000e+00  -1.9909214358027029e+08 2.3130273411555266e+08 0.0000000000000000e+00  -5.7688824706426644e+08 -3.2601057877196378e+08 0.0000000000000000e+00  1.9071637355210921e+08 2.9449275663181901e+08 0.0000000000000000e+00  3.3264766453932256e+08 6.4798276258300811e+07 0.0000000000000000e+00  3.5957533378283960e+08 2.3477647450214025e+08 0.0000000000000000e+00  -6.7409893000696301e+07 2.8353876189255857e+08 0.0000000000000000e+00  2.2930856508194885e+08 -3.1630846939893848e+08 0.0000000000000000e+00  6.9205989940214502e+06 -2.2940845985831641e+07 0.0000000000000000e+00  5.7896140034211606e+07 -1.5696382438802516e+08 0.0000000000000000e+00  4.9694703998298191e+07 6.3648714013575494e+07 0.0000000000000000e+00  -2.2713620419200218e+08 -1.8169681667422727e+08 0.0000000000000000e+00  -1.2066335404848007e+07 1.7453886116619769e+08 0.0000000000000000e+00  -3.7627845017331593e+07 6.4448884366035305e+07 0.0000000000000000e+00  -7.8757398691766992e+07 8.6227563284239680e+07 0.0000000000000000e+00  8.5914715308438554e+07 -1.6140766112899205e+08 0.0000000000000000e+00  -1.4932690995143417e+08 2.7305672307608348e+08 0.0000000000000000e+00  -1.1457336971176265e+08 -1.0237416987218113e+08 0.0000000000000000e+00  6.0151914291694663e+07 -3.3063941331652975e+08 0.0000000000000000e+00  -1.4115843001388453e+07 1.8294155025574806e+08 0.0000000000000000e+00  -1.5459017306633186e+08 8.6443975141174540e+07 0.0000000000000000e+00  -6.0542164939994879e+07 -4.3081954597119763e+07 0.0000000000000000e+00  6.2407207397641957e+07 3.7515093436141409e+07 0.0000000000000000e+00  3.4318014556080729e+08 -2.2458383327884412e+08 0.0000000000000000e+00  -6.2700628767239936e+07 8.2140408794303700e+07 0.0000000000000000e+00  5.2943543055001937e+07 -2.3630915949728444e+08 0.0000000000000000e+00  5.1580155978968078e+08 2.4963060868389063e+07 0.0000000000000000e+00  8.3036811101372734e+07 6.4605416639377661e+07 0.0000000000000000e+00  1.0178369384675558e+08 1.8025453010034442e+07 0.0000000000000000e+00  3.2399413051912114e+07 -3.9325558437502332e+07 0.0000000000000000e+00  7.9280841898581563e+06 -4.2928319351711139e+07 0.0000000000000000e+00  -1.2570514774855085e+08 -7.6619349287657753e+07 0.0000000000000000e+00  -9.9822349261991754e+06 2.2861604450272581e+08 0.0000000000000000e+00  3.9877236293092974e+07 -4.7408613772313083e+06 0.0000000000000000e+00  1.2336899589249471e+07 2.0482337412709056e+06 0.0000000000000000e+00  -2.1877109051665241e+08 9.0342081996273115e+07 0.0000000000000000e+00  -3.8337529126860440e+08 -5.4548293117347114e+07 0.0000000000000000e+00  7.4944963986908942e+07 1.8694533772810826e+08 0.0000000000000000e+00  2.7871752183407432e+08 6.3235154934880789e+06 0.0000000000000000e+00  -1.5355624614433900e+08 3.8899771111371225e+08 0.0000000000000000e+00  -7.5987052995859087e+07 -2.7120026809089369e+08 0.0000000000000000e+00  1.6996874410623246e+08 6.1553223727807796e+08 0.0000000000000000e+00  2.2139126523273939e+08 -9.4665335936571732e+07 0.0000000000000000e+00  1.9732774173807299e+08 5.4060524186849870e+07 0.0000000000000000e+00  3.9603146125801152e+08 -8.7332946392147318e+07 0.0000000000000000e+00  2.6697446952909359e+08 -1.4795794950813439e+08 0.0000000000000000e+00  2.9673199804990453e+08 0.0000000000000000e+00 0.0000000000000000e+00  1.7828866788116053e+08 0.0000000000000000e+00 0.0000000000000000e+00  9.1409800125365317e+07 9.1589153899377733e+07 0.0000000000000000e+00  1.2867972800410658e+08 9.9919389451522797e+07 0.0000000000000000e+00  2.2665495248565906e+08 2.6681414004224047e+08 0.0000000000000000e+00  -8.8266149912213460e+07 7.5746683124972641e+07 0.0000000000000000e+00  -4.2413417747283727e+07 -8.5939309344703779e+06 0.0000000000000000e+00  -1.4003322552455953e+08 -4.0232081867049240e+07 0.0000000000000000e+00  -2.2660231979592073e+08 -1.2001386063012075e+08 0.0000000000000000e+00  -8.0145516958086327e+07 -4.6449422749262348e+07 0.0000000000000000e+00  -9.2679807854099602e+07 -1.7957127055181429e+08 0.0000000000000000e+00  1.2228244994937124e+07 2.1466137051520547e+08 0.0000000000000000e+00  -5.5962331352556825e+07 -4.6371198505737811e+07 0.0000000000000000e+00  -2.2993414786493398e+07 -2.8808988168368834e+08 0.0000000000000000e+00  -2.8128842361789782e+07 -5.1249727205450557e+07 0.0000000000000000e+00  -9.0268078038146168e+07 1.5018184688063128e+07 0.0000000000000000e+00  3.3487504873415800e+06 -1.3441380101906177e+08 0.0000000000000000e+00  -7.7892763230888993e+07 -1.0305952471160500e+08 0.0000000000000000e+00  3.1242747284666079e+08 -9.0953735964459255e+06 0.0000000000000000e+00  1.7465068792860872e+08 -3.3026667141284049e+08 0.0000000000000000e+00  -3.0947938519471187e+07 -2.5872850082765024e+07 0.0000000000000000e+00  -2.8083365802773762e+08 5.5163591057816362e+06 0.0000000000000000e+00  5.8972675703751005e+07 -1.2771006396190554e+08 0.0000000000000000e+00  -1.5953545684457624e+08 -1.6189887538626724e+08 0.0000000000000000e+00  -2.9306048627844065e+08 -2.2549040293544939e+08 0.0000000000000000e+00  4.8651861163980231e+07 -1.7539132320618430e+08 0.0000000000000000e+00  -2.2476657160682687e+08 -3.3353371029934334e+06 0.0000000000000000e+00  1.4402266460394943e+08 6.0769596433388561e+07 0.0000000000000000e+00  3.8518175221184927e+08 -9.0115073116741896e+07 0.0000000000000000e+00  -3.8332316664043409e+08 -3.0427108717544323e+08 0.0000000000000000e+00  -2.0030252357126886e+08 4.8131928622473139e+08 0.0000000000000000e+00  -6.1241433944253564e+08 -1.9998562568896204e+08 0.0000000000000000e+00  -3.4474326903209996e+08 1.0412783921896639e+08 0.0000000000000000e+00  1.0021864415884984e+08 -2.8692983484484279e+08 0.0000000000000000e+00  3.0594697662758005e+08 -3.5458612159317899e+08 0.0000000000000000e+00  1.7915559248643047e+08 -3.6657006454729712e+08 0.0000000000000000e+00  1.1530309176616882e+08 -1.9513817198841175e+08 0.0000000000000000e+00  2.6745451758317286e+08 1.2663188390416273e+08 0.0000000000000000e+00  -6.4580841662888877e+07 6.5785711075690918e+07 0.0000000000000000e+00  9.1435193118891463e+07 1.7068420437629902e+08 0.0000000000000000e+00  2.7621757821947849e+08 3.0833546093537015e+08 0.0000000000000000e+00  -4.8145717254550278e+07 2.4109346187076926e+08 0.0000000000000000e+00  -3.0350158037575734e+08 -2.7344193320507061e+07 0.0000000000000000e+00  -8.5968421884423316e+07 -5.0064354074376151e+06 0.0000000000000000e+00  -1.0281069923986661e+08 -7.1581725061598495e+07 0.0000000000000000e+00  -7.5264287147592798e+07 -9.3285471682878181e+07 0.0000000000000000e+00  -2.2251218724967334e+08 4.2521603859065488e+07 0.0000000000000000e+00  -5.0759263931380533e+07 2.6834813634421873e+08 0.0000000000000000e+00  -7.1870548527800813e+06 6.2669077720448971e+07 0.0000000000000000e+00  2.6668714583998878e+07 -8.1200859455950782e+07 0.0000000000000000e+00  5.2913401114810370e+07 1.3362501526736383e+08 0.0000000000000000e+00  -9.0620462722777575e+07 1.4486518689538890e+08 0.0000000000000000e+00  4.2673324289300717e+07 -1.8534017664210945e+07 0.0000000000000000e+00  -1.3553792357455167e+08 -7.1499532837045982e+07 0.0000000000000000e+00  -4.9673150028779097e+07 -5.7171780145438917e+07 0.0000000000000000e+00  -6.2400729920194052e+07 -5.7744137985751338e+07 0.0000000000000000e+00  -7.1253375769009531e+07 -9.3123239923575446e+06 0.0000000000000000e+00  -1.8755947386307627e+07 -2.3213850881286707e+07 0.0000000000000000e+00  1.4866736992695114e+07 1.7124528889716876e+08 0.0000000000000000e+00  6.6998600728933342e+07 -3.1037817851311535e+08 0.0000000000000000e+00  4.5043982066037707e+07 -2.0515667355271611e+08 0.0000000000000000e+00  -3.6109332212882102e+07 -4.3834305354334360e+08 0.0000000000000000e+00  1.8721659699266803e+08 1.8133019793170109e+08 0.0000000000000000e+00  -1.1932641438218173e+07 6.5101142899807468e+07 0.0000000000000000e+00  4.9397657695632458e+07 -3.8198252835796773e+07 0.0000000000000000e+00  5.1833091264622428e+07 1.0572225839125831e+08 0.0000000000000000e+00  -4.7190947082644261e+07 1.3372572171336818e+08 0.0000000000000000e+00  4.4016688049368329e+07 2.9800238714298870e+07 0.0000000000000000e+00  1.0531021602449372e+08 -1.0732109914438273e+08 0.0000000000000000e+00  -7.3126871957703337e+07 -1.8238305980633026e+08 0.0000000000000000e+00  -1.6795644665865439e+08 5.6780528693226658e+07 0.0000000000000000e+00  -1.3528096013686317e+08 -7.4761736514369562e+07 0.0000000000000000e+00  -1.9288350038868254e+08 6.7395029773066536e+07 0.0000000000000000e+00  -2.3096275835051915e+08 -1.0703353262689367e+08 0.0000000000000000e+00  -2.8356346810102397e+08 -4.1334990269922458e+07 0.0000000000000000e+00  -2.7919768820885408e+08 -5.7918293586803265e+07 0.0000000000000000e+00  -1.7261023968105119e+08 8.1404342239432096e+07 0.0000000000000000e+00  -2.5457981273032755e+08 1.5704516104521728e+08 0.0000000000000000e+00  -2.9669665231040019e+08 3.9215789117188179e+08 0.0000000000000000e+00  6.4237023709813789e+07 -1.3707719993853256e+08 0.0000000000000000e+00  2.0145865311055309e+08 1.5262177946660081e+08 0.0000000000000000e+00  5.0240713650939822e+08 -1.0947561408520884e-08 0.0000000000000000e+00  1.1668324660673435e+08 0.0000000000000000e+00 0.0000000000000000e+00  1.8738283221831265e+08 1.7812930556984946e+08 0.0000000000000000e+00  1.0469572990712968e+08 2.6991137900559255e+06 0.0000000000000000e+00  5.4361962222590894e+07 5.5862316712313272e+07 0.0000000000000000e+00  2.3736889067813057e+08 -3.8458480351682223e+07 0.0000000000000000e+00  6.8767427433204815e+07 -2.4578208099697256e+08 0.0000000000000000e+00  -1.6409120003749034e+08 -2.1883494420129654e+08 0.0000000000000000e+00  -2.5369708421487308e+08 -9.5325956763655916e+07 0.0000000000000000e+00  -9.1855160075853392e+07 1.8650491149007004e+08 0.0000000000000000e+00  -1.9831062906232995e+06 5.5530895007342972e+07 0.0000000000000000e+00  -7.8860802385701418e+07 5.5029859046809360e+07 0.0000000000000000e+00  -8.3109547975559011e+07 -1.1192075197203203e+08 0.0000000000000000e+00  9.7038148735792741e+07 -1.5607130532322168e+08 0.0000000000000000e+00  -1.5945165346207437e+08 -2.3219877693861157e+08 0.0000000000000000e+00  6.0698013525936164e+07 3.3165609124233637e+07 0.0000000000000000e+00  -1.7721044672718349e+08 -6.3396938823480152e+07 0.0000000000000000e+00  9.8069394139494121e+07 -2.4510721943474665e+08 0.0000000000000000e+00  1.0056517532152493e+07 3.7458053481066604e+06 0.0000000000000000e+00  -1.4835733890724832e+07 -5.3056438137465782e+07 0.0000000000000000e+00  2.2932258857882023e+08 -1.3691496374260774e+08 0.0000000000000000e+00  2.0680630130160692e+08 1.7557121588369185e+08 0.0000000000000000e+00  8.2996243358119400e+06 -1.0759918551246433e+06 0.0000000000000000e+00  1.4686122770665899e+08 -1.6142314276133528e+07 0.0000000000000000e+00  1.1546974818868816e+08 -3.4996940880557746e+08 0.0000000000000000e+00  -2.0499795798988244e+08 3.0485432523112881e+08 0.0000000000000000e+00  -5.3456454342629433e+07 -1.3423311599721259e+08 0.0000000000000000e+00  -2.0543134681655321e+08 -1.4534488888801241e+08 0.0000000000000000e+00  -2.7828548621088892e+08 3.6950792080432408e+07 0.0000000000000000e+00  4.3395288889697969e+08 -8.9167698672794655e+07 0.0000000000000000e+00  7.5853816345467806e+07 2.8149625049872339e+08 0.0000000000000000e+00  -1.1466759117369758e+08 1.7116768971486828e+08 0.0000000000000000e+00  -7.6979541312801242e+07 -1.7639472562113073e+07 0.0000000000000000e+00  6.0294700174320437e+07 -1.3418239468912128e+08 0.0000000000000000e+00  -1.6079280900886807e+08 6.1552846622739625e+08 0.0000000000000000e+00  -1.7197939353029522e+08 -1.5783399483967462e+08 0.0000000000000000e+00  2.5169035740498856e+08 2.3776828096313658e+08 0.0000000000000000e+00  1.2377907916035441e+08 -3.1239242237940216e+08 0.0000000000000000e+00  2.2271600188814250e+08 1.972057764748164