<?xml version="1.0"?>
<VTKFile type="UnstructuredGrid"  version="0.1"  >
<UnstructuredGrid>
<Piece  NumberOfPoints="1369" NumberOfCells="2560">
<Points>
<DataArray  type="Float64"  NumberOfComponents="3"  format="ascii">0 0 0  0.75 0 0  1.5 0 0  2.25 0 0  3 0 0  3.75 0 0  4.5 0 0  5.25 0 0  6 0 0  6.75 0 0  7.5 0 0  8.25 0 0  9 0 0  9.75 0 0  10.5 0 0  11.25 0 0  12 0 0  12.75 0 0  13.5 0 0  14.25 0 0  15 0 0  15.75 0 0  16.5 0 0  17.25 0 0  18 0 0  18.75 0 0  19.5 0 0  20.25 0 0  21 0 0  21.75 0 0  22.5 0 0  23.25 0 0  24 0 0  24.75 0 0  25.5 0 0  26.25 0 0  27 0 0  27.75 0 0  28.5 0 0  29.25 0 0  30 0 0  30.75 0 0  31.5 0 0  32.25 0 0  33 0 0  33.75 0 0  34.5 0 0  35.25 0 0  36 0 0  36.75 0 0  37.5 0 0  38.25 0 0  39 0 0  39.75 0 0  40.5 0 0  41.25 0 0  42 0 0  42.75 0 0  43.5 0 0  44.25 0 0  45 0 0  45.75 0 0  46.5 0 0  47.25 0 0  48 0 0  48.75 0 0  49.5 0 0  50.25 0 0  51 0 0  51.75 0 0  52.5 0 0  53.25 0 0  54 0 0  54.75 0 0  55.5 0 0  56.25 0 0  57 0 0  57.75 0 0  58.5 0 0  59.25 0 0  60 0 0  0 0.5 0  0.75 0.5 0  1.5 0.5 0  2.25 0.5 0  3 0.5 0  3.75 0.5 0  4.5 0.5 0  5.25 0.5 0  6 0.5 0  6.75 0.5 0  7.5 0.5 0  8.25 0.5 0  9 0.5 0  9.75 0.5 0  10.5 0.5 0  11.25 0.5 0  12 0.5 0  12.75 0.5 0  13.5 0.5 0  14.25 0.5 0  15 0.5 0  15.75 0.5 0  16.5 0.5 0  17.25 0.5 0  18 0.5 0  18.75 0.5 0  19.5 0.5 0  20.25 0.5 0  21 0.5 0  21.75 0.5 0  22.5 0.5 0  23.25 0.5 0  24 0.5 0  24.75 0.5 0  25.5 0.5 0  26.25 0.5 0  27 0.5 0  27.75 0.5 0  28.5 0.5 0  29.25 0.5 0  30 0.5 0  30.75 0.5 0  31.5 0.5 0  32.25 0.5 0  33 0.5 0  33.75 0.5 0  34.5 0.5 0  35.25 0.5 0  36 0.5 0  36.75 0.5 0  37.5 0.5 0  38.25 0.5 0  39 0.5 0  39.75 0.5 0  40.5 0.5 0  41.25 0.5 0  42 0.5 0  42.75 0.5 0  43.5 0.5 0  44.25 0.5 0  45 0.5 0  45.75 0.5 0  46.5 0.5 0  47.25 0.5 0  48 0.5 0  48.75 0.5 0  49.5 0.5 0  50.25 0.5 0  51 0.5 0  51.75 0.5 0  52.5 0.5 0  53.25 0.5 0  54 0.5 0  54.75 0.5 0  55.5 0.5 0  56.25 0.5 0  57 0.5 0  57.75 0.5 0  58.5 0.5 0  59.25 0.5 0  60 0.5 0  0 1 0  0.75 1 0  1.5 1 0  2.25 1 0  3 1 0  3.75 1 0  4.5 1 0  5.25 1 0  6 1 0  6.75 1 0  7.5 1 0  8.25 1 0  9 1 0  9.75 1 0  10.5 1 0  11.25 1 0  12 1 0  12.75 1 0  13.5 1 0  14.25 1 0  15 1 0  15.75 1 0  16.5 1 0  17.25 1 0  18 1 0  18.75 1 0  19.5 1 0  20.25 1 0  21 1 0  21.75 1 0  22.5 1 0  23.25 1 0  24 1 0  24.75 1 0  25.5 1 0  26.25 1 0  27 1 0  27.75 1 0  28.5 1 0  29.25 1 0  30 1 0  30.75 1 0  31.5 1 0  32.25 1 0  33 1 0  33.75 1 0  34.5 1 0  35.25 1 0  36 1 0  36.75 1 0  37.5 1 0  38.25 1 0  39 1 0  39.75 1 0  40.5 1 0  41.25 1 0  42 1 0  42.75 1 0  43.5 1 0  44.25 1 0  45 1 0  45.75 1 0  46.5 1 0  47.25 1 0  48 1 0  48.75 1 0  49.5 1 0  50.25 1 0  51 1 0  51.75 1 0  52.5 1 0  53.25 1 0  54 1 0  54.75 1 0  55.5 1 0  56.25 1 0  57 1 0  57.75 1 0  58.5 1 0  59.25 1 0  60 1 0  0 1.5 0  0.75 1.5 0  1.5 1.5 0  2.25 1.5 0  3 1.5 0  3.75 1.5 0  4.5 1.5 0  5.25 1.5 0  6 1.5 0  6.75 1.5 0  7.5 1.5 0  8.25 1.5 0  9 1.5 0  9.75 1.5 0  10.5 1.5 0  11.25 1.5 0  12 1.5 0  12.75 1.5 0  13.5 1.5 0  14.25 1.5 0  15 1.5 0  15.75 1.5 0  16.5 1.5 0  17.25 1.5 0  18 1.5 0  18.75 1.5 0  19.5 1.5 0  20.25 1.5 0  21 1.5 0  21.75 1.5 0  22.5 1.5 0  23.25 1.5 0  24 1.5 0  24.75 1.5 0  25.5 1.5 0  26.25 1.5 0  27 1.5 0  27.75 1.5 0  28.5 1.5 0  29.25 1.5 0  30 1.5 0  30.75 1.5 0  31.5 1.5 0  32.25 1.5 0  33 1.5 0  33.75 1.5 0  34.5 1.5 0  35.25 1.5 0  36 1.5 0  36.75 1.5 0  37.5 1.5 0  38.25 1.5 0  39 1.5 0  39.75 1.5 0  40.5 1.5 0  41.25 1.5 0  42 1.5 0  42.75 1.5 0  43.5 1.5 0  44.25 1.5 0  45 1.5 0  45.75 1.5 0  46.5 1.5 0  47.25 1.5 0  48 1.5 0  48.75 1.5 0  49.5 1.5 0  50.25 1.5 0  51 1.5 0  51.75 1.5 0  52.5 1.5 0  53.25 1.5 0  54 1.5 0  54.75 1.5 0  55.5 1.5 0  56.25 1.5 0  57 1.5 0  57.75 1.5 0  58.5 1.5 0  59.25 1.5 0  60 1.5 0  0 2 0  0.75 2 0  1.5 2 0  2.25 2 0  3 2 0  3.75 2 0  4.5 2 0  5.25 2 0  6 2 0  6.75 2 0  7.5 2 0  8.25 2 0  9 2 0  9.75 2 0  10.5 2 0  11.25 2 0  12 2 0  12.75 2 0  13.5 2 0  14.25 2 0  15 2 0  15.75 2 0  16.5 2 0  17.25 2 0  18 2 0  18.75 2 0  19.5 2 0  20.25 2 0  21 2 0  21.75 2 0  22.5 2 0  23.25 2 0  24 2 0  24.75 2 0  25.5 2 0  26.25 2 0  27 2 0  27.75 2 0  28.5 2 0  29.25 2 0  30 2 0  30.75 2 0  31.5 2 0  32.25 2 0  33 2 0  33.75 2 0  34.5 2 0  35.25 2 0  36 2 0  36.75 2 0  37.5 2 0  38.25 2 0  39 2 0  39.75 2 0  40.5 2 0  41.25 2 0  42 2 0  42.75 2 0  43.5 2 0  44.25 2 0  45 2 0  45.75 2 0  46.5 2 0  47.25 2 0  48 2 0  48.75 2 0  49.5 2 0  50.25 2 0  51 2 0  51.75 2 0  52.5 2 0  53.25 2 0  54 2 0  54.75 2 0  55.5 2 0  56.25 2 0  57 2 0  57.75 2 0  58.5 2 0  59.25 2 0  60 2 0  0 2.5 0  0.75 2.5 0  1.5 2.5 0  2.25 2.5 0  3 2.5 0  3.75 2.5 0  4.5 2.5 0  5.25 2.5 0  6 2.5 0  6.75 2.5 0  7.5 2.5 0  8.25 2.5 0  9 2.5 0  9.75 2.5 0  10.5 2.5 0  11.25 2.5 0  12 2.5 0  12.75 2.5 0  13.5 2.5 0  14.25 2.5 0  15 2.5 0  15.75 2.5 0  16.5 2.5 0  17.25 2.5 0  18 2.5 0  18.75 2.5 0  19.5 2.5 0  20.25 2.5 0  21 2.5 0  21.75 2.5 0  22.5 2.5 0  23.25 2.5 0  24 2.5 0  24.75 2.5 0  25.5 2.5 0  26.25 2.5 0  27 2.5 0  27.75 2.5 0  28.5 2.5 0  29.25 2.5 0  30 2.5 0  30.75 2.5 0  31.5 2.5 0  32.25 2.5 0  33 2.5 0  33.75 2.5 0  34.5 2.5 0  35.25 2.5 0  36 2.5 0  36.75 2.5 0  37.5 2.5 0  38.25 2.5 0  39 2.5 0  39.75 2.5 0  40.5 2.5 0  41.25 2.5 0  42 2.5 0  42.75 2.5 0  43.5 2.5 0  44.25 2.5 0  45 2.5 0  45.75 2.5 0  46.5 2.5 0  47.25 2.5 0  48 2.5 0  48.75 2.5 0  49.5 2.5 0  50.25 2.5 0  51 2.5 0  51.75 2.5 0  52.5 2.5 0  53.25 2.5 0  54 2.5 0  54.75 2.5 0  55.5 2.5 0  56.25 2.5 0  57 2.5 0  57.75 2.5 0  58.5 2.5 0  59.25 2.5 0  60 2.5 0  0 3 0  0.75 3 0  1.5 3 0  2.25 3 0  3 3 0  3.75 3 0  4.5 3 0  5.25 3 0  6 3 0  6.75 3 0  7.5 3 0  8.25 3 0  9 3 0  9.75 3 0  10.5 3 0  11.25 3 0  12 3 0  12.75 3 0  13.5 3 0  14.25 3 0  15 3 0  15.75 3 0  16.5 3 0  17.25 3 0  18 3 0  18.75 3 0  19.5 3 0  20.25 3 0  21 3 0  21.75 3 0  22.5 3 0  23.25 3 0  24 3 0  24.75 3 0  25.5 3 0  26.25 3 0  27 3 0  27.75 3 0  28.5 3 0  29.25 3 0  30 3 0  30.75 3 0  31.5 3 0  32.25 3 0  33 3 0  33.75 3 0  34.5 3 0  35.25 3 0  36 3 0  36.75 3 0  37.5 3 0  38.25 3 0  39 3 0  39.75 3 0  40.5 3 0  41.25 3 0  42 3 0  42.75 3 0  43.5 3 0  44.25 3 0  45 3 0  45.75 3 0  46.5 3 0  47.25 3 0  48 3 0  48.75 3 0  49.5 3 0  50.25 3 0  51 3 0  51.75 3 0  52.5 3 0  53.25 3 0  54 3 0  54.75 3 0  55.5 3 0  56.25 3 0  57 3 0  57.75 3 0  58.5 3 0  59.25 3 0  60 3 0  0 3.5 0  0.75 3.5 0  1.5 3.5 0  2.25 3.5 0  3 3.5 0  3.75 3.5 0  4.5 3.5 0  5.25 3.5 0  6 3.5 0  6.75 3.5 0  7.5 3.5 0  8.25 3.5 0  9 3.5 0  9.75 3.5 0  10.5 3.5 0  11.25 3.5 0  12 3.5 0  12.75 3.5 0  13.5 3.5 0  14.25 3.5 0  15 3.5 0  15.75 3.5 0  16.5 3.5 0  17.25 3.5 0  18 3.5 0  18.75 3.5 0  19.5 3.5 0  20.25 3.5 0  21 3.5 0  21.75 3.5 0  22.5 3.5 0  23.25 3.5 0  24 3.5 0  24.75 3.5 0  25.5 3.5 0  26.25 3.5 0  27 3.5 0  27.75 3.5 0  28.5 3.5 0  29.25 3.5 0  30 3.5 0  30.75 3.5 0  31.5 3.5 0  32.25 3.5 0  33 3.5 0  33.75 3.5 0  34.5 3.5 0  35.25 3.5 0  36 3.5 0  36.75 3.5 0  37.5 3.5 0  38.25 3.5 0  39 3.5 0  39.75 3.5 0  40.5 3.5 0  41.25 3.5 0  42 3.5 0  42.75 3.5 0  43.5 3.5 0  44.25 3.5 0  45 3.5 0  45.75 3.5 0  46.5 3.5 0  47.25 3.5 0  48 3.5 0  48.75 3.5 0  49.5 3.5 0  50.25 3.5 0  51 3.5 0  51.75 3.5 0  52.5 3.5 0  53.25 3.5 0  54 3.5 0  54.75 3.5 0  55.5 3.5 0  56.25 3.5 0  57 3.5 0  57.75 3.5 0  58.5 3.5 0  59.25 3.5 0  60 3.5 0  0 4 0  0.75 4 0  1.5 4 0  2.25 4 0  3 4 0  3.75 4 0  4.5 4 0  5.25 4 0  6 4 0  6.75 4 0  7.5 4 0  8.25 4 0  9 4 0  9.75 4 0  10.5 4 0  11.25 4 0  12 4 0  12.75 4 0  13.5 4 0  14.25 4 0  15 4 0  15.75 4 0  16.5 4 0  17.25 4 0  18 4 0  18.75 4 0  19.5 4 0  20.25 4 0  21 4 0  21.75 4 0  22.5 4 0  23.25 4 0  24 4 0  24.75 4 0  25.5 4 0  26.25 4 0  27 4 0  27.75 4 0  28.5 4 0  29.25 4 0  30 4 0  30.75 4 0  31.5 4 0  32.25 4 0  33 4 0  33.75 4 0  34.5 4 0  35.25 4 0  36 4 0  36.75 4 0  37.5 4 0  38.25 4 0  39 4 0  39.75 4 0  40.5 4 0  41.25 4 0  42 4 0  42.75 4 0  43.5 4 0  44.25 4 0  45 4 0  45.75 4 0  46.5 4 0  47.25 4 0  48 4 0  48.75 4 0  49.5 4 0  50.25 4 0  51 4 0  51.75 4 0  52.5 4 0  53.25 4 0  54 4 0  54.75 4 0  55.5 4 0  56.25 4 0  57 4 0  57.75 4 0  58.5 4 0  59.25 4 0  60 4 0  0.375 0.25 0  1.125 0.25 0  1.875 0.25 0  2.625 0.25 0  3.375 0.25 0  4.125 0.25 0  4.875 0.25 0  5.625 0.25 0  6.375 0.25 0  7.125 0.25 0  7.875 0.25 0  8.625 0.25 0  9.375 0.25 0  10.125 0.25 0  10.875 0.25 0  11.625 0.25 0  12.375 0.25 0  13.125 0.25 0  13.875 0.25 0  14.625 0.25 0  15.375 0.25 0  16.125 0.25 0  16.875 0.25 0  17.625 0.25 0  18.375 0.25 0  19.125 0.25 0  19.875 0.25 0  20.625 0.25 0  21.375 0.25 0  22.125 0.25 0  22.875 0.25 0  23.625 0.25 0  24.375 0.25 0  25.125 0.25 0  25.875 0.25 0  26.625 0.25 0  27.375 0.25 0  28.125 0.25 0  28.875 0.25 0  29.625 0.25 0  30.375 0.25 0  31.125 0.25 0  31.875 0.25 0  32.625 0.25 0  33.375 0.25 0  34.125 0.25 0  34.875 0.25 0  35.625 0.25 0  36.375 0.25 0  37.125 0.25 0  37.875 0.25 0  38.625 0.25 0  39.375 0.25 0  40.125 0.25 0  40.875 0.25 0  41.625 0.25 0  42.375 0.25 0  43.125 0.25 0  43.875 0.25 0  44.625 0.25 0  45.375 0.25 0  46.125 0.25 0  46.875 0.25 0  47.625 0.25 0  48.375 0.25 0  49.125 0.25 0  49.875 0.25 0  50.625 0.25 0  51.375 0.25 0  52.125 0.25 0  52.875 0.25 0  53.625 0.25 0  54.375 0.25 0  55.125 0.25 0  55.875 0.25 0  56.625 0.25 0  57.375 0.25 0  58.125 0.25 0  58.875 0.25 0  59.625 0.25 0  0.375 0.75 0  1.125 0.75 0  1.875 0.75 0  2.625 0.75 0  3.375 0.75 0  4.125 0.75 0  4.875 0.75 0  5.625 0.75 0  6.375 0.75 0  7.125 0.75 0  7.875 0.75 0  8.625 0.75 0  9.375 0.75 0  10.125 0.75 0  10.875 0.75 0  11.625 0.75 0  12.375 0.75 0  13.125 0.75 0  13.875 0.75 0  14.625 0.75 0  15.375 0.75 0  16.125 0.75 0  16.875 0.75 0  17.625 0.75 0  18.375 0.75 0  19.125 0.75 0  19.875 0.75 0  20.625 0.75 0  21.375 0.75 0  22.125 0.75 0  22.875 0.75 0  23.625 0.75 0  24.375 0.75 0  25.125 0.75 0  25.875 0.75 0  26.625 0.75 0  27.375 0.75 0  28.125 0.75 0  28.875 0.75 0  29.625 0.75 0  30.375 0.75 0  31.125 0.75 0  31.875 0.75 0  32.625 0.75 0  33.375 0.75 0  34.125 0.75 0  34.875 0.75 0  35.625 0.75 0  36.375 0.75 0  37.125 0.75 0  37.875 0.75 0  38.625 0.75 0  39.375 0.75 0  40.125 0.75 0  40
[...]
<PointData  Vectors="f_8-0"> 
<DataArray  type="Float64"  Name="f_8-0"  NumberOfComponents="3" format="ascii">-7.3044949948082449e-09 1.0253161764808393e-08 0.0000000000000000e+00  0.0000000000000000e+00 3.3542076748300450e-07 0.0000000000000000e+00  0.0000000000000000e+00 0.0000000000000000e+00 0.0000000000000000e+00  0.0000000000000000e+00 0.0000000000000000e+00 0.0000000000000000e+00  0.0000000000000000e+00 3.7107513874685706e-06 0.0000000000000000e+00  7.1312942212188021e-06 -3.4736636499703998e-05 0.0000000000000000e+00  3.4346460071243527e-06 -2.1876236093671054e-07 0.0000000000000000e+00  2.7026111747071677e-06 -2.3207165539641541e-08 0.0000000000000000e+00  2.7395947367352444e-07 4.9061461184945988e-06 0.0000000000000000e+00  -3.4195435439306790e-07 9.4833569909425486e-07 0.0000000000000000e+00  -6.9127276011162319e-06 -6.4003537621309093e-06 0.0000000000000000e+00  0.0000000000000000e+00 0.0000000000000000e+00 0.0000000000000000e+00  0.0000000000000000e+00 0.0000000000000000e+00 0.0000000000000000e+00  -1.1796886200163815e-06 7.6033751588322378e-07 0.0000000000000000e+00  -7.2853704735801001e-08 2.6504692992545749e-06 0.0000000000000000e+00  0.0000000000000000e+00 0.0000000000000000e+00 0.0000000000000000e+00  0.0000000000000000e+00 0.0000000000000000e+00 0.0000000000000000e+00  0.0000000000000000e+00 0.0000000000000000e+00 0.0000000000000000e+00  0.0000000000000000e+00 0.0000000000000000e+00 0.0000000000000000e+00  2.7410795971589930e-07 7.1262624384560006e-07 0.0000000000000000e+00  -1.1144979362333036e-06 -6.1520951229450717e-06 0.0000000000000000e+00  0.0000000000000000e+00 1.1348527215138680e-07 0.0000000000000000e+00  -1.5313573453768496e-07 -1.3414479991709516e-05 0.0000000000000000e+00  9.5671666007973604e-07 -2.5758826580459122e-07 0.0000000000000000e+00  0.0000000000000000e+00 -5.1387947726706361e-07 0.0000000000000000e+00  0.0000000000000000e+00 0.0000000000000000e+00 0.0000000000000000e+00  0.0000000000000000e+00 0.0000000000000000e+00 0.0000000000000000e+00  0.0000000000000000e+00 0.0000000000000000e+00 0.0000000000000000e+00  -3.0892089830666677e-05 -9.3451131008510396e-06 0.0000000000000000e+00  0.0000000000000000e+00 1.7596119965128311e-08 0.0000000000000000e+00  -6.2525289898549229e-06 -3.0297972540483011e-08 0.0000000000000000e+00  -1.0024669512421741e-06 -1.3190176462907966e-06 0.0000000000000000e+00  0.0000000000000000e+00 -1.5643119256436377e-08 0.0000000000000000e+00  0.0000000000000000e+00 3.2377591352691993e-07 0.0000000000000000e+00  0.0000000000000000e+00 8.4394275555945358e-07 0.0000000000000000e+00  -5.7950930339163192e-07 -1.1710844782908537e-06 0.0000000000000000e+00  0.0000000000000000e+00 0.0000000000000000e+00 0.0000000000000000e+00  0.0000000000000000e+00 0.0000000000000000e+00 0.0000000000000000e+00  1.9222360112137574e-07 7.9239246336216048e-08 0.0000000000000000e+00  -2.3767906334866392e-07 1.4685617462035405e-06 0.0000000000000000e+00  -8.0791459381681497e-07 6.7906372414557860e-07 0.0000000000000000e+00  -2.1331386031105495e-07 9.4159144807773919e-08 0.0000000000000000e+00  0.0000000000000000e+00 0.0000000000000000e+00 0.0000000000000000e+00  0.0000000000000000e+00 0.0000000000000000e+00 0.0000000000000000e+00  0.0000000000000000e+00 0.0000000000000000e+00 0.0000000000000000e+00  1.5525566833338077e-05 1.9386864908792177e-05 0.0000000000000000e+00  -7.1226553735931060e-07 9.3769064991265142e-07 0.0000000000000000e+00  -4.0970028880246335e-07 -1.7359934845283791e-07 0.0000000000000000e+00  0.0000000000000000e+00 0.0000000000000000e+00 0.0000000000000000e+00  0.0000000000000000e+00 0.0000000000000000e+00 0.0000000000000000e+00  0.0000000000000000e+00 0.0000000000000000e+00 0.0000000000000000e+00  -6.8754107927635702e-06 1.5939069149340487e-05 0.0000000000000000e+00  9.5602896644759738e-08 -1.1472152276763840e-06 0.0000000000000000e+00  0.0000000000000000e+00 7.8864951858323294e-08 0.0000000000000000e+00  0.0000000000000000e+00 -3.1654827336368878e-07 0.0000000000000000e+00  8.1850433800125535e-07 2.0258011873868172e-05 0.0000000000000000e+00  -5.1431156160405846e-06 0.0000000000000000e+00 0.0000000000000000e+00  0.0000000000000000e+00 5.3399664860130139e-07 0.0000000000000000e+00  -2.1611604708871143e-06 -5.0876649231505062e-06 0.0000000000000000e+00  0.0000000000000000e+00 0.0000000000000000e+00 0.0000000000000000e+00  0.0000000000000000e+00 0.0000000000000000e+00 0.0000000000000000e+00  0.0000000000000000e+00 0.0000000000000000e+00 0.0000000000000000e+00  0.0000000000000000e+00 2.2131112133064455e-09 0.0000000000000000e+00  3.8837642534999144e-06 -1.1910013019819685e-05 0.0000000000000000e+00  0.0000000000000000e+00 -2.9222272821949244e-07 0.0000000000000000e+00  0.0000000000000000e+00 0.0000000000000000e+00 0.0000000000000000e+00  4.4510295213601898e-06 2.7426678364712453e-06 0.0000000000000000e+00  0.0000000000000000e+00 0.0000000000000000e+00 0.0000000000000000e+00  -2.0034722334234486e-06 7.5696496670531481e-06 0.0000000000000000e+00  0.0000000000000000e+00 0.0000000000000000e+00 0.0000000000000000e+00  0.0000000000000000e+00 0.0000000000000000e+00 0.0000000000000000e+00  0.0000000000000000e+00 2.9526994500637609e-09 0.0000000000000000e+00  0.0000000000000000e+00 8.9927310397691996e-08 0.0000000000000000e+00  9.6035019779933006e-06 1.8503272981598677e-06 0.0000000000000000e+00  0.0000000000000000e+00 0.0000000000000000e+00 0.0000000000000000e+00  0.0000000000000000e+00 0.0000000000000000e+00 0.0000000000000000e+00  0.0000000000000000e+00 -6.4221032893883809e-08 0.0000000000000000e+00  0.0000000000000000e+00 0.0000000000000000e+00 0.0000000000000000e+00  0.0000000000000000e+00 0.0000000000000000e+00 0.0000000000000000e+00  1.7751309327469514e-07 0.0000000000000000e+00 0.0000000000000000e+00  7.7949908048246897e-07 2.2680426691074736e-07 0.0000000000000000e+00  -1.1926541500713587e+08 -6.0345077594492460e-08 0.0000000000000000e+00  -1.8229218724572840e+08 2.6553643101075351e+08 0.0000000000000000e+00  -9.9170816527490821e+06 -2.0700868014588052e+08 0.0000000000000000e+00  6.7983699848385351e+06 -6.2330823786919881e+06 0.0000000000000000e+00  6.3659328565340139e+07 2.3347385833435882e+07 0.0000000000000000e+00  5.8315241673470952e+07 -9.7949632069360241e+07 0.0000000000000000e+00  5.1623237784273893e+07 3.0776687962222970e+08 0.0000000000000000e+00  -1.3404746835529600e+08 2.2840476846690026e+08 0.0000000000000000e+00  -1.5260218438620394e+08 -6.2554112871260166e+07 0.0000000000000000e+00  -5.6782266782137975e+07 -1.8899827296736306e+08 0.0000000000000000e+00  -5.2086888013790347e+07 2.5427256750934139e+08 0.0000000000000000e+00  3.7348576329827011e+07 -3.3182798786475682e+08 0.0000000000000000e+00  8.0041953625573963e+07 3.3581421881989944e+08 0.0000000000000000e+00  3.2754762079659291e+07 -2.6679739718718499e+07 0.0000000000000000e+00  1.2006511438196608e+08 1.7951329200638789e+08 0.0000000000000000e+00  -1.5540830595828766e+08 8.3996754692122787e+07 0.0000000000000000e+00  1.0008140323471324e+08 -1.6620336410876223e+08 0.0000000000000000e+00  -8.7241415451792106e+06 5.2925795024544172e+07 0.0000000000000000e+00  6.9898367276856869e+07 4.4873328269581854e+07 0.0000000000000000e+00  1.2796900442882857e+08 6.3259003168392077e+07 0.0000000000000000e+00  -1.8089216848717931e+08 -2.9371137102615118e+08 0.0000000000000000e+00  -2.1890925242069766e+08 3.2487921690400469e+08 0.0000000000000000e+00  -2.3442464596209645e+08 3.5929521392695783e+06 0.0000000000000000e+00  2.7193810675236624e+08 9.4048357971209258e+07 0.0000000000000000e+00  8.5945872619877815e+07 7.6565069301842481e+07 0.0000000000000000e+00  -1.2487735837514102e+08 3.9715147557444051e+07 0.0000000000000000e+00  3.9632065294757970e+07 -3.5674374702016646e+08 0.0000000000000000e+00  3.9317695113237165e+07 -1.4802203658021757e+08 0.0000000000000000e+00  1.3744347339456400e+08 2.8307587678653572e+07 0.0000000000000000e+00  -5.8132517575777136e+07 4.8073828635898329e+07 0.0000000000000000e+00  2.8316161881297227e+07 5.8390428837081380e+07 0.0000000000000000e+00  -1.7896904072695702e+08 8.5843977448945627e+07 0.0000000000000000e+00  1.7666175249737760e+08 -1.1832251621658221e+08 0.0000000000000000e+00  1.7908845552938259e+08 -6.3939057785342515e+08 0.0000000000000000e+00  -2.8406832263845086e+08 2.7176036259375340e+08 0.0000000000000000e+00  -2.1078410952898711e+08 1.2461791441178933e+08 0.0000000000000000e+00  -5.6918043108126378e+08 -3.6959743921826118e+08 0.0000000000000000e+00  1.5708060781012645e+08 3.8077259060026526e+08 0.0000000000000000e+00  4.4883200825511408e+08 1.0860178288027853e+08 0.0000000000000000e+00  -1.4215804230053830e+08 3.3436153877706602e+07 0.0000000000000000e+00  2.1116907792012504e+08 6.2280830571977651e+08 0.0000000000000000e+00  3.9904089156312507e+08 -1.4253920573757732e+08 0.0000000000000000e+00  5.5776561266199172e+07 -2.3403214532162845e+07 0.0000000000000000e+00  1.4131703456099069e+08 -1.2606847261850995e+08 0.0000000000000000e+00  1.2841768943744530e+08 1.8839611305068243e+08 0.0000000000000000e+00  -1.5281189180863824e+08 -8.9215895503691450e+07 0.0000000000000000e+00  3.8099606089095891e+07 1.8458256330115175e+08 0.0000000000000000e+00  3.0744717933417704e+07 7.4397131197171047e+07 0.0000000000000000e+00  -2.0786626414208737e+08 5.2831377301764868e+07 0.0000000000000000e+00  1.2516151441044746e+07 -1.0963640685367768e+08 0.0000000000000000e+00  -1.5272480529631013e+08 2.8636874025770414e+08 0.0000000000000000e+00  -8.3491331878932893e+07 -7.0099915753388584e+07 0.0000000000000000e+00  4.4925035946894750e+07 -3.5505225328703225e+08 0.0000000000000000e+00  -3.5117357335948989e+07 8.3742533250494793e+07 0.0000000000000000e+00  -3.3233283924191259e+07 3.4551863503966339e+07 0.0000000000000000e+00  -1.3163527276784092e+07 -6.1719345478741378e+07 0.0000000000000000e+00  1.2091579865243728e+08 1.3605322972391137e+08 0.0000000000000000e+00  5.6919495545645440e+08 -2.5587805830095786e+08 0.0000000000000000e+00  2.6325337311200630e+07 2.8899202571434956e+07 0.0000000000000000e+00  2.3039807184380394e+08 -2.3669143493775719e+08 0.0000000000000000e+00  6.1174167582454777e+08 -3.1561413633043773e+07 0.0000000000000000e+00  8.9542815013543412e+07 1.7236599500255859e+08 0.0000000000000000e+00  2.4048211063225242e+08 3.0535996990102011e+08 0.0000000000000000e+00  -4.5622906514057659e+07 -1.0110421208831881e+08 0.0000000000000000e+00  -3.6697722381244145e+07 5.1599285460515887e+07 0.0000000000000000e+00  -8.9435406665027738e+07 -2.2274559455715436e+08 0.0000000000000000e+00  -3.6971290043708833e+05 1.1135635701294011e+08 0.0000000000000000e+00  5.2079123130139494e+06 2.0468822966893068e+08 0.0000000000000000e+00  -1.9971276408529732e+07 8.8661117961289480e+07 0.0000000000000000e+00  -1.8874682232086143e+08 3.1624463838287070e+07 0.0000000000000000e+00  -3.9821962441115868e+08 -1.7763304350793228e+08 0.0000000000000000e+00  1.4188412936841673e+08 1.8496199071467012e+08 0.0000000000000000e+00  2.6102133204895234e+08 3.8552361470676899e+07 0.0000000000000000e+00  -5.6723932375647031e+07 4.9706556466846800e+08 0.0000000000000000e+00  -3.5191564614421338e+07 -3.4969039548033190e+08 0.0000000000000000e+00  2.8098521542047381e+08 6.0874972045033348e+08 0.0000000000000000e+00  2.5543480186444202e+08 -1.3290722199884783e+08 0.0000000000000000e+00  1.5456563007124025e+08 1.1012907849708685e+08 0.0000000000000000e+00  4.8721097409998369e+08 4.1462060224128224e+07 0.0000000000000000e+00  4.2455927809188676e+08 -2.0245792981476563e+08 0.0000000000000000e+00  1.9650655591679206e+08 0.0000000000000000e+00 0.0000000000000000e+00  2.1301751736095223e+08 -6.9807819814076630e-09 0.0000000000000000e+00  1.1080351888751301e+08 1.1949938451918419e+08 0.0000000000000000e+00  1.5943870292482719e+08 1.3771905314062935e+08 0.0000000000000000e+00  1.9735776005018824e+08 2.1218088147866359e+08 0.0000000000000000e+00  -1.4084757550522110e+08 1.2805834350997847e+07 0.0000000000000000e+00  -7.9280637585492954e+07 3.0798268305623747e+07 0.0000000000000000e+00  -1.3463221504397243e+08 -2.5244518268324524e+07 0.0000000000000000e+00  -2.1892917907415381e+08 -1.9667748044827169e+08 0.0000000000000000e+00  -1.2605046479882899e+08 8.3959286428487499e+05 0.0000000000000000e+00  -1.5427031529210559e+08 -1.5917680273340338e+08 0.0000000000000000e+00  2.7913318925059572e+07 1.0965687062097894e+08 0.0000000000000000e+00  -5.4013788007662930e+07 -5.5979510255885169e+07 0.0000000000000000e+00  -2.5375406550064716e+07 -2.3807945194823149e+08 0.0000000000000000e+00  -5.4908842331687413e+07 -4.2779866197423227e+07 0.0000000000000000e+00  -1.5857280728352669e+08 -3.2869408473354876e+07 0.0000000000000000e+00  -4.7794927218767293e+07 -1.6169975502868566e+08 0.0000000000000000e+00  -9.2973843337834209e+07 -1.6049312617369100e+08 0.0000000000000000e+00  2.6351817014719442e+08 2.6965957757838525e+07 0.0000000000000000e+00  1.6911309884531257e+08 -3.3032123116700000e+08 0.0000000000000000e+00  -5.5055917891134597e+07 -4.5890332599274047e+07 0.0000000000000000e+00  -2.6453501462361556e+08 -2.4195681233413960e+06 0.0000000000000000e+00  6.1256470329310395e+07 -1.8617035102096847e+08 0.0000000000000000e+00  -1.7574856630268958e+08 -1.1715218672826824e+08 0.0000000000000000e+00  -3.8680728210182381e+08 -2.6248712710866806e+08 0.0000000000000000e+00  2.0864605651297178e+07 -2.0414161125308082e+08 0.0000000000000000e+00  -1.2580316635404453e+08 6.1218121298422992e+07 0.0000000000000000e+00  1.3234046877286343e+08 1.0249327883332233e+08 0.0000000000000000e+00  3.6642845291384685e+08 -1.8313544924099979e+08 0.0000000000000000e+00  -4.6658844437286633e+08 -4.6114878814626670e+08 0.0000000000000000e+00  -3.3588805910582995e+08 6.3610838660822439e+08 0.0000000000000000e+00  -4.5295088616401714e+08 -4.6978460249014151e+08 0.0000000000000000e+00  -4.6161463094172293e+08 5.0897978745583035e+07 0.0000000000000000e+00  2.6836422028810871e+08 -1.7846128623618895e+08 0.0000000000000000e+00  2.6121822622469604e+08 -3.0400218164133972e+08 0.0000000000000000e+00  8.7375944279448450e+07 -4.8325235900430864e+08 0.0000000000000000e+00  1.1001136850697961e+08 -1.5733970100459942e+08 0.0000000000000000e+00  3.9421887229233456e+08 2.6646171483968023e+07 0.0000000000000000e+00  1.3732110800511001e+07 6.9635615600401968e+07 0.0000000000000000e+00  2.9379788284746587e+08 -3.5257032180391796e+07 0.0000000000000000e+00  3.5514813892058337e+08 1.8397843518198991e+08 0.0000000000000000e+00  -3.7180941216991492e+07 3.6460715177174616e+08 0.0000000000000000e+00  -3.8686747147107285e+08 8.8030733544808611e+07 0.0000000000000000e+00  1.9297316612018269e+07 1.3593935185560608e+08 0.0000000000000000e+00  -9.2726496271835625e+07 -1.4439775496505517e+08 0.0000000000000000e+00  1.8700384660702774e+08 -1.8929211635845149e+08 0.0000000000000000e+00  -1.7020597987504637e+08 5.9932576847435556e+07 0.0000000000000000e+00  -1.0484754659733859e+08 2.7124235523760325e+08 0.0000000000000000e+00  7.3543679426555326e+06 1.3728598546036142e+08 0.0000000000000000e+00  -3.9391712466337204e+07 -2.6212077072511595e+08 0.0000000000000000e+00  -7.8590771036107332e+07 2.1858406025703314e+08 0.0000000000000000e+00  -6.3827591518779941e+07 1.6421531722727618e+08 0.0000000000000000e+00  3.8147749982542492e+07 -3.4460003812709570e+07 0.0000000000000000e+00  -8.1358676408619493e+07 6.5795714957702726e+07 0.0000000000000000e+00  -1.4385506447717715e+07 -7.4646972647199854e+07 0.0000000000000000e+00  8.9670129236093864e+07 -9.9420409939883381e+07 0.0000000000000000e+00  -3.4773485852545522e+07 6.5113899604919277e+07 0.0000000000000000e+00  1.0917567142464334e+07 -6.1759453121171333e+07 0.0000000000000000e+00  -4.7384170498654835e+07 2.0996063016845569e+08 0.0000000000000000e+00  9.6480891518673316e+07 -1.7021525742407036e+08 0.0000000000000000e+00  7.7944345299602807e+07 -2.5783817980935812e+08 0.0000000000000000e+00  1.6703384129323915e+07 -3.7122419926694077e+08 0.0000000000000000e+00  1.8005013865135211e+08 6.1798306289804958e+07 0.0000000000000000e+00  -3.5521394274271190e+07 3.9980682390077055e+07 0.0000000000000000e+00  -3.1482929273906656e+07 4.3581051421002664e+07 0.0000000000000000e+00  6.5143111797222540e+07 1.1930565416539133e+08 0.0000000000000000e+00  -5.8635061067895666e+07 3.9505183931359166e+08 0.0000000000000000e+00  2.6868543358604982e+07 4.4787548271489210e+07 0.0000000000000000e+00  9.6456776240735441e+07 5.8877991002191238e+07 0.0000000000000000e+00  -4.9702117192582245e+05 -2.4274418642064103e+08 0.0000000000000000e+00  -1.1570451123864894e+08 -5.9335451490725145e+07 0.0000000000000000e+00  -9.2634305399418212e+06 -1.8736529152742293e+08 0.0000000000000000e+00  -6.0930883963752791e+07 -1.3696928148244366e+08 0.0000000000000000e+00  -5.7660903575658731e+07 -1.7174572044026145e+08 0.0000000000000000e+00  -1.4738733724597445e+08 -1.4046199226470411e+07 0.0000000000000000e+00  -2.6602074152996385e+08 -3.2118133603349412e+06 0.0000000000000000e+00  -3.2283019439908159e+08 5.3287489433691375e+07 0.0000000000000000e+00  -1.6602775472654358e+08 1.7417574777745804e+08 0.0000000000000000e+00  -2.5335616562470970e+08 2.9184909147038841e+08 0.0000000000000000e+00  2.6139760594431564e+07 -2.8712097671032399e+08 0.0000000000000000e+00  2.9477881070569026e+08 2.7143676359214735e+08 0.0000000000000000e+00  5.6544994260105705e+08 0.0000000000000000e+00 0.0000000000000000e+00  1.2399642399016552e+07 0.0000000000000000e+00 0.0000000000000000e+00  1.2564323194383517e+08 2.3944831774942434e+08 0.0000000000000000e+00  1.0296655322606081e+08 6.6948776810380757e+07 0.0000000000000000e+00  3.6307659836015716e+07 4.4283830536786862e+07 0.0000000000000000e+00  3.4008433949139494e+08 1.5047936546769045e+07 0.0000000000000000e+00  1.1150294813688742e+08 -2.5661139369215772e+08 0.0000000000000000e+00  -1.9212524630939400e+08 -2.0419662812039873e+08 0.0000000000000000e+00  -2.1671080686705792e+08 -5.9874398918918192e+07 0.0000000000000000e+00  -9.9231823581685707e+07 1.9066485188465199e+08 0.0000000000000000e+00  7.4041978476593923e+06 -2.0988139586292380e+08 0.0000000000000000e+00  -1.8379686537928826e+08 2.1438470661377200e+08 0.0000000000000000e+00  -1.4985091691330226e+07 -1.2219348756342221e+07 0.0000000000000000e+00  9.2833026796199575e+07 -1.2208800871719831e+08 0.0000000000000000e+00  -2.3805001698023343e+08 -1.9146935279854488e+08 0.0000000000000000e+00  1.6857541816909797e+07 8.0016733337814316e+07 0.0000000000000000e+00  -2.0189025813669994e+08 -9.8682938167917714e+07 0.0000000000000000e+00  9.7873078450899348e+07 -2.2726704586466870e+08 0.0000000000000000e+00  -3.0297356030299991e+07 -8.3451782544340432e+07 0.0000000000000000e+00  6.1633449761631396e+06 -4.3282780830343194e+07 0.0000000000000000e+00  2.3019908063650492e+08 -1.5377417406958994e+08 0.0000000000000000e+00  1.7486889641220015e+08 1.5602797198406649e+08 0.0000000000000000e+00  -2.5726875102548372e+07 -1.6700308082813274e+07 0.0000000000000000e+00  1.9485449911571631e+08 -4.1648167987789266e+07 0.0000000000000000e+00  1.6013928203721738e+08 -2.8262846413400161e+08 0.0000000000000000e+00  -2.3583605612658805e+08 3.3453408784107012e+08 0.0000000000000000e+00  -1.9571113173035022e+07 -1.6077126128805074e+08 0.0000000000000000e+00  -1.8195694239073756e+08 -1.6660688281591409e+08 0.0000000000000000e+00  -3.7474006386825925e+08 -1.0663523435265820e+08 0.0000000000000000e+00  4.5426297507826293e+08 -1.2334383018261974e+08 0.0000000000000000e+00  1.6098892277784461e+08 2.7874511908669269e+08 0.0000000000000000e+00  -8.0750452798537463e+07 1.0369470810095070e+08 0.0000000000000000e+00  -4.8220611815071389e+07 1.0986884374020667e+08 0.0000000000000000e+00  3.5976252024966404e+07 -1.0745781048645854e+08 0.0000000000000000e+00  -2.2754163609665722e+07 7.2586486704918575e+08 0.0000000000000000e+00  -9.9858037528891027e+07 -1.9151783297359195e+08 0.0000000000000000e+00  3.5420013440064806e+08 2.1408020279908723e+08 0.0000000000000000e+00  2.3132520636464283e+08 -4.2875853303920400e+08 0.0000000000000000e+00  8.2642386000606984e+07 -3.0516380439489661e+06 0.000000