<?xml version="1.0"?>
<VTKFile type="UnstructuredGrid"  version="0.1"  >
<UnstructuredGrid>
<Piece  NumberOfPoints="1369" NumberOfCells="2560">
<Points>
<DataArray  type="Float64"  NumberOfComponents="3"  format="ascii">0 0 0  0.75 0 0  1.5 0 0  2.25 0 0  3 0 0  3.75 0 0  4.5 0 0  5.25 0 0  6 0 0  6.75 0 0  7.5 0 0  8.25 0 0  9 0 0  9.75 0 0  10.5 0 0  11.25 0 0  12 0 0  12.75 0 0  13.5 0 0  14.25 0 0  15 0 0  15.75 0 0  16.5 0 0  17.25 0 0  18 0 0  18.75 0 0  19.5 0 0  20.25 0 0  21 0 0  21.75 0 0  22.5 0 0  23.25 0 0  24 0 0  24.75 0 0  25.5 0 0  26.25 0 0  27 0 0  27.75 0 0  28.5 0 0  29.25 0 0  30 0 0  30.75 0 0  31.5 0 0  32.25 0 0  33 0 0  33.75 0 0  34.5 0 0  35.25 0 0  36 0 0  36.75 0 0  37.5 0 0  38.25 0 0  39 0 0  39.75 0 0  40.5 0 0  41.25 0 0  42 0 0  42.75 0 0  43.5 0 0  44.25 0 0  45 0 0  45.75 0 0  46.5 0 0  47.25 0 0  48 0 0  48.75 0 0  49.5 0 0  50.25 0 0  51 0 0  51.75 0 0  52.5 0 0  53.25 0 0  54 0 0  54.75 0 0  55.5 0 0  56.25 0 0  57 0 0  57.75 0 0  58.5 0 0  59.25 0 0  60 0 0  0 0.5 0  0.75 0.5 0  1.5 0.5 0  2.25 0.5 0  3 0.5 0  3.75 0.5 0  4.5 0.5 0  5.25 0.5 0  6 0.5 0  6.75 0.5 0  7.5 0.5 0  8.25 0.5 0  9 0.5 0  9.75 0.5 0  10.5 0.5 0  11.25 0.5 0  12 0.5 0  12.75 0.5 0  13.5 0.5 0  14.25 0.5 0  15 0.5 0  15.75 0.5 0  16.5 0.5 0  17.25 0.5 0  18 0.5 0  18.75 0.5 0  19.5 0.5 0  20.25 0.5 0  21 0.5 0  21.75 0.5 0  22.5 0.5 0  23.25 0.5 0  24 0.5 0  24.75 0.5 0  25.5 0.5 0  26.25 0.5 0  27 0.5 0  27.75 0.5 0  28.5 0.5 0  29.25 0.5 0  30 0.5 0  30.75 0.5 0  31.5 0.5 0  32.25 0.5 0  33 0.5 0  33.75 0.5 0  34.5 0.5 0  35.25 0.5 0  36 0.5 0  36.75 0.5 0  37.5 0.5 0  38.25 0.5 0  39 0.5 0  39.75 0.5 0  40.5 0.5 0  41.25 0.5 0  42 0.5 0  42.75 0.5 0  43.5 0.5 0  44.25 0.5 0  45 0.5 0  45.75 0.5 0  46.5 0.5 0  47.25 0.5 0  48 0.5 0  48.75 0.5 0  49.5 0.5 0  50.25 0.5 0  51 0.5 0  51.75 0.5 0  52.5 0.5 0  53.25 0.5 0  54 0.5 0  54.75 0.5 0  55.5 0.5 0  56.25 0.5 0  57 0.5 0  57.75 0.5 0  58.5 0.5 0  59.25 0.5 0  60 0.5 0  0 1 0  0.75 1 0  1.5 1 0  2.25 1 0  3 1 0  3.75 1 0  4.5 1 0  5.25 1 0  6 1 0  6.75 1 0  7.5 1 0  8.25 1 0  9 1 0  9.75 1 0  10.5 1 0  11.25 1 0  12 1 0  12.75 1 0  13.5 1 0  14.25 1 0  15 1 0  15.75 1 0  16.5 1 0  17.25 1 0  18 1 0  18.75 1 0  19.5 1 0  20.25 1 0  21 1 0  21.75 1 0  22.5 1 0  23.25 1 0  24 1 0  24.75 1 0  25.5 1 0  26.25 1 0  27 1 0  27.75 1 0  28.5 1 0  29.25 1 0  30 1 0  30.75 1 0  31.5 1 0  32.25 1 0  33 1 0  33.75 1 0  34.5 1 0  35.25 1 0  36 1 0  36.75 1 0  37.5 1 0  38.25 1 0  39 1 0  39.75 1 0  40.5 1 0  41.25 1 0  42 1 0  42.75 1 0  43.5 1 0  44.25 1 0  45 1 0  45.75 1 0  46.5 1 0  47.25 1 0  48 1 0  48.75 1 0  49.5 1 0  50.25 1 0  51 1 0  51.75 1 0  52.5 1 0  53.25 1 0  54 1 0  54.75 1 0  55.5 1 0  56.25 1 0  57 1 0  57.75 1 0  58.5 1 0  59.25 1 0  60 1 0  0 1.5 0  0.75 1.5 0  1.5 1.5 0  2.25 1.5 0  3 1.5 0  3.75 1.5 0  4.5 1.5 0  5.25 1.5 0  6 1.5 0  6.75 1.5 0  7.5 1.5 0  8.25 1.5 0  9 1.5 0  9.75 1.5 0  10.5 1.5 0  11.25 1.5 0  12 1.5 0  12.75 1.5 0  13.5 1.5 0  14.25 1.5 0  15 1.5 0  15.75 1.5 0  16.5 1.5 0  17.25 1.5 0  18 1.5 0  18.75 1.5 0  19.5 1.5 0  20.25 1.5 0  21 1.5 0  21.75 1.5 0  22.5 1.5 0  23.25 1.5 0  24 1.5 0  24.75 1.5 0  25.5 1.5 0  26.25 1.5 0  27 1.5 0  27.75 1.5 0  28.5 1.5 0  29.25 1.5 0  30 1.5 0  30.75 1.5 0  31.5 1.5 0  32.25 1.5 0  33 1.5 0  33.75 1.5 0  34.5 1.5 0  35.25 1.5 0  36 1.5 0  36.75 1.5 0  37.5 1.5 0  38.25 1.5 0  39 1.5 0  39.75 1.5 0  40.5 1.5 0  41.25 1.5 0  42 1.5 0  42.75 1.5 0  43.5 1.5 0  44.25 1.5 0  45 1.5 0  45.75 1.5 0  46.5 1.5 0  47.25 1.5 0  48 1.5 0  48.75 1.5 0  49.5 1.5 0  50.25 1.5 0  51 1.5 0  51.75 1.5 0  52.5 1.5 0  53.25 1.5 0  54 1.5 0  54.75 1.5 0  55.5 1.5 0  56.25 1.5 0  57 1.5 0  57.75 1.5 0  58.5 1.5 0  59.25 1.5 0  60 1.5 0  0 2 0  0.75 2 0  1.5 2 0  2.25 2 0  3 2 0  3.75 2 0  4.5 2 0  5.25 2 0  6 2 0  6.75 2 0  7.5 2 0  8.25 2 0  9 2 0  9.75 2 0  10.5 2 0  11.25 2 0  12 2 0  12.75 2 0  13.5 2 0  14.25 2 0  15 2 0  15.75 2 0  16.5 2 0  17.25 2 0  18 2 0  18.75 2 0  19.5 2 0  20.25 2 0  21 2 0  21.75 2 0  22.5 2 0  23.25 2 0  24 2 0  24.75 2 0  25.5 2 0  26.25 2 0  27 2 0  27.75 2 0  28.5 2 0  29.25 2 0  30 2 0  30.75 2 0  31.5 2 0  32.25 2 0  33 2 0  33.75 2 0  34.5 2 0  35.25 2 0  36 2 0  36.75 2 0  37.5 2 0  38.25 2 0  39 2 0  39.75 2 0  40.5 2 0  41.25 2 0  42 2 0  42.75 2 0  43.5 2 0  44.25 2 0  45 2 0  45.75 2 0  46.5 2 0  47.25 2 0  48 2 0  48.75 2 0  49.5 2 0  50.25 2 0  51 2 0  51.75 2 0  52.5 2 0  53.25 2 0  54 2 0  54.75 2 0  55.5 2 0  56.25 2 0  57 2 0  57.75 2 0  58.5 2 0  59.25 2 0  60 2 0  0 2.5 0  0.75 2.5 0  1.5 2.5 0  2.25 2.5 0  3 2.5 0  3.75 2.5 0  4.5 2.5 0  5.25 2.5 0  6 2.5 0  6.75 2.5 0  7.5 2.5 0  8.25 2.5 0  9 2.5 0  9.75 2.5 0  10.5 2.5 0  11.25 2.5 0  12 2.5 0  12.75 2.5 0  13.5 2.5 0  14.25 2.5 0  15 2.5 0  15.75 2.5 0  16.5 2.5 0  17.25 2.5 0  18 2.5 0  18.75 2.5 0  19.5 2.5 0  20.25 2.5 0  21 2.5 0  21.75 2.5 0  22.5 2.5 0  23.25 2.5 0  24 2.5 0  24.75 2.5 0  25.5 2.5 0  26.25 2.5 0  27 2.5 0  27.75 2.5 0  28.5 2.5 0  29.25 2.5 0  30 2.5 0  30.75 2.5 0  31.5 2.5 0  32.25 2.5 0  33 2.5 0  33.75 2.5 0  34.5 2.5 0  35.25 2.5 0  36 2.5 0  36.75 2.5 0  37.5 2.5 0  38.25 2.5 0  39 2.5 0  39.75 2.5 0  40.5 2.5 0  41.25 2.5 0  42 2.5 0  42.75 2.5 0  43.5 2.5 0  44.25 2.5 0  45 2.5 0  45.75 2.5 0  46.5 2.5 0  47.25 2.5 0  48 2.5 0  48.75 2.5 0  49.5 2.5 0  50.25 2.5 0  51 2.5 0  51.75 2.5 0  52.5 2.5 0  53.25 2.5 0  54 2.5 0  54.75 2.5 0  55.5 2.5 0  56.25 2.5 0  57 2.5 0  57.75 2.5 0  58.5 2.5 0  59.25 2.5 0  60 2.5 0  0 3 0  0.75 3 0  1.5 3 0  2.25 3 0  3 3 0  3.75 3 0  4.5 3 0  5.25 3 0  6 3 0  6.75 3 0  7.5 3 0  8.25 3 0  9 3 0  9.75 3 0  10.5 3 0  11.25 3 0  12 3 0  12.75 3 0  13.5 3 0  14.25 3 0  15 3 0  15.75 3 0  16.5 3 0  17.25 3 0  18 3 0  18.75 3 0  19.5 3 0  20.25 3 0  21 3 0  21.75 3 0  22.5 3 0  23.25 3 0  24 3 0  24.75 3 0  25.5 3 0  26.25 3 0  27 3 0  27.75 3 0  28.5 3 0  29.25 3 0  30 3 0  30.75 3 0  31.5 3 0  32.25 3 0  33 3 0  33.75 3 0  34.5 3 0  35.25 3 0  36 3 0  36.75 3 0  37.5 3 0  38.25 3 0  39 3 0  39.75 3 0  40.5 3 0  41.25 3 0  42 3 0  42.75 3 0  43.5 3 0  44.25 3 0  45 3 0  45.75 3 0  46.5 3 0  47.25 3 0  48 3 0  48.75 3 0  49.5 3 0  50.25 3 0  51 3 0  51.75 3 0  52.5 3 0  53.25 3 0  54 3 0  54.75 3 0  55.5 3 0  56.25 3 0  57 3 0  57.75 3 0  58.5 3 0  59.25 3 0  60 3 0  0 3.5 0  0.75 3.5 0  1.5 3.5 0  2.25 3.5 0  3 3.5 0  3.75 3.5 0  4.5 3.5 0  5.25 3.5 0  6 3.5 0  6.75 3.5 0  7.5 3.5 0  8.25 3.5 0  9 3.5 0  9.75 3.5 0  10.5 3.5 0  11.25 3.5 0  12 3.5 0  12.75 3.5 0  13.5 3.5 0  14.25 3.5 0  15 3.5 0  15.75 3.5 0  16.5 3.5 0  17.25 3.5 0  18 3.5 0  18.75 3.5 0  19.5 3.5 0  20.25 3.5 0  21 3.5 0  21.75 3.5 0  22.5 3.5 0  23.25 3.5 0  24 3.5 0  24.75 3.5 0  25.5 3.5 0  26.25 3.5 0  27 3.5 0  27.75 3.5 0  28.5 3.5 0  29.25 3.5 0  30 3.5 0  30.75 3.5 0  31.5 3.5 0  32.25 3.5 0  33 3.5 0  33.75 3.5 0  34.5 3.5 0  35.25 3.5 0  36 3.5 0  36.75 3.5 0  37.5 3.5 0  38.25 3.5 0  39 3.5 0  39.75 3.5 0  40.5 3.5 0  41.25 3.5 0  42 3.5 0  42.75 3.5 0  43.5 3.5 0  44.25 3.5 0  45 3.5 0  45.75 3.5 0  46.5 3.5 0  47.25 3.5 0  48 3.5 0  48.75 3.5 0  49.5 3.5 0  50.25 3.5 0  51 3.5 0  51.75 3.5 0  52.5 3.5 0  53.25 3.5 0  54 3.5 0  54.75 3.5 0  55.5 3.5 0  56.25 3.5 0  57 3.5 0  57.75 3.5 0  58.5 3.5 0  59.25 3.5 0  60 3.5 0  0 4 0  0.75 4 0  1.5 4 0  2.25 4 0  3 4 0  3.75 4 0  4.5 4 0  5.25 4 0  6 4 0  6.75 4 0  7.5 4 0  8.25 4 0  9 4 0  9.75 4 0  10.5 4 0  11.25 4 0  12 4 0  12.75 4 0  13.5 4 0  14.25 4 0  15 4 0  15.75 4 0  16.5 4 0  17.25 4 0  18 4 0  18.75 4 0  19.5 4 0  20.25 4 0  21 4 0  21.75 4 0  22.5 4 0  23.25 4 0  24 4 0  24.75 4 0  25.5 4 0  26.25 4 0  27 4 0  27.75 4 0  28.5 4 0  29.25 4 0  30 4 0  30.75 4 0  31.5 4 0  32.25 4 0  33 4 0  33.75 4 0  34.5 4 0  35.25 4 0  36 4 0  36.75 4 0  37.5 4 0  38.25 4 0  39 4 0  39.75 4 0  40.5 4 0  41.25 4 0  42 4 0  42.75 4 0  43.5 4 0  44.25 4 0  45 4 0  45.75 4 0  46.5 4 0  47.25 4 0  48 4 0  48.75 4 0  49.5 4 0  50.25 4 0  51 4 0  51.75 4 0  52.5 4 0  53.25 4 0  54 4 0  54.75 4 0  55.5 4 0  56.25 4 0  57 4 0  57.75 4 0  58.5 4 0  59.25 4 0  60 4 0  0.375 0.25 0  1.125 0.25 0  1.875 0.25 0  2.625 0.25 0  3.375 0.25 0  4.125 0.25 0  4.875 0.25 0  5.625 0.25 0  6.375 0.25 0  7.125 0.25 0  7.875 0.25 0  8.625 0.25 0  9.375 0.25 0  10.125 0.25 0  10.875 0.25 0  11.625 0.25 0  12.375 0.25 0  13.125 0.25 0  13.875 0.25 0  14.625 0.25 0  15.375 0.25 0  16.125 0.25 0  16.875 0.25 0  17.625 0.25 0  18.375 0.25 0  19.125 0.25 0  19.875 0.25 0  20.625 0.25 0  21.375 0.25 0  22.125 0.25 0  22.875 0.25 0  23.625 0.25 0  24.375 0.25 0  25.125 0.25 0  25.875 0.25 0  26.625 0.25 0  27.375 0.25 0  28.125 0.25 0  28.875 0.25 0  29.625 0.25 0  30.375 0.25 0  31.125 0.25 0  31.875 0.25 0  32.625 0.25 0  33.375 0.25 0  34.125 0.25 0  34.875 0.25 0  35.625 0.25 0  36.375 0.25 0  37.125 0.25 0  37.875 0.25 0  38.625 0.25 0  39.375 0.25 0  40.125 0.25 0  40.875 0.25 0  41.625 0.25 0  42.375 0.25 0  43.125 0.25 0  43.875 0.25 0  44.625 0.25 0  45.375 0.25 0  46.125 0.25 0  46.875 0.25 0  47.625 0.25 0  48.375 0.25 0  49.125 0.25 0  49.875 0.25 0  50.625 0.25 0  51.375 0.25 0  52.125 0.25 0  52.875 0.25 0  53.625 0.25 0  54.375 0.25 0  55.125 0.25 0  55.875 0.25 0  56.625 0.25 0  57.375 0.25 0  58.125 0.25 0  58.875 0.25 0  59.625 0.25 0  0.375 0.75 0  1.125 0.75 0  1.875 0.75 0  2.625 0.75 0  3.375 0.75 0  4.125 0.75 0  4.875 0.75 0  5.625 0.75 0  6.375 0.75 0  7.125 0.75 0  7.875 0.75 0  8.625 0.75 0  9.375 0.75 0  10.125 0.75 0  10.875 0.75 0  11.625 0.75 0  12.375 0.75 0  13.125 0.75 0  13.875 0.75 0  14.625 0.75 0  15.375 0.75 0  16.125 0.75 0  16.875 0.75 0  17.625 0.75 0  18.375 0.75 0  19.125 0.75 0  19.875 0.75 0  20.625 0.75 0  21.375 0.75 0  22.125 0.75 0  22.875 0.75 0  23.625 0.75 0  24.375 0.75 0  25.125 0.75 0  25.875 0.75 0  26.625 0.75 0  27.375 0.75 0  28.125 0.75 0  28.875 0.75 0  29.625 0.75 0  30.375 0.75 0  31.125 0.75 0  31.875 0.75 0  32.625 0.75 0  33.375 0.75 0  34.125 0.75 0  34.875 0.75 0  35.625 0.75 0  36.375 0.75 0  37.125 0.75 0  37.875 0.75 0  38.625 0.75 0  39.375 0.75 0  40.125 0.75 0  40
[...]
<PointData  Vectors="f_8-0"> 
<DataArray  type="Float64"  Name="f_8-0"  NumberOfComponents="3" format="ascii">4.9624692132719995e-09 0.0000000000000000e+00 0.0000000000000000e+00  0.0000000000000000e+00 0.0000000000000000e+00 0.0000000000000000e+00  0.0000000000000000e+00 0.0000000000000000e+00 0.0000000000000000e+00  0.0000000000000000e+00 -2.2813970176046049e-08 0.0000000000000000e+00  0.0000000000000000e+00 0.0000000000000000e+00 0.0000000000000000e+00  0.0000000000000000e+00 1.3834257348968909e-07 0.0000000000000000e+00  -8.2806163402943049e-07 2.9767197760503379e-06 0.0000000000000000e+00  -4.3778128318136997e-08 -2.5648210793997226e-07 0.0000000000000000e+00  -4.4048305868153760e-07 2.7721534477576157e-07 0.0000000000000000e+00  0.0000000000000000e+00 0.0000000000000000e+00 0.0000000000000000e+00  0.0000000000000000e+00 0.0000000000000000e+00 0.0000000000000000e+00  0.0000000000000000e+00 0.0000000000000000e+00 0.0000000000000000e+00  0.0000000000000000e+00 0.0000000000000000e+00 0.0000000000000000e+00  1.8726236193343585e-06 3.3934367759553051e-08 0.0000000000000000e+00  -2.3473453652295850e-06 -3.8582383884744567e-06 0.0000000000000000e+00  -3.5899055962697949e-06 1.8432396433015466e-06 0.0000000000000000e+00  1.1770723681262279e-08 -7.0610724700800995e-08 0.0000000000000000e+00  4.5914565035770834e-07 2.6556541758454275e-06 0.0000000000000000e+00  1.0902714310016778e-07 -7.4405495677320320e-07 0.0000000000000000e+00  9.3105548742918997e-07 0.0000000000000000e+00 0.0000000000000000e+00  0.0000000000000000e+00 0.0000000000000000e+00 0.0000000000000000e+00  -3.3545732850088018e-08 -2.2869805207093962e-07 0.0000000000000000e+00  0.0000000000000000e+00 0.0000000000000000e+00 0.0000000000000000e+00  1.9363780492310300e-06 1.0284887464176852e-07 0.0000000000000000e+00  8.7928196038850054e-07 -2.2983376529064592e-07 0.0000000000000000e+00  0.0000000000000000e+00 0.0000000000000000e+00 0.0000000000000000e+00  0.0000000000000000e+00 0.0000000000000000e+00 0.0000000000000000e+00  8.5150105022641605e-07 0.0000000000000000e+00 0.0000000000000000e+00  -2.7800437957216922e-06 -5.6090293894723204e-07 0.0000000000000000e+00  0.0000000000000000e+00 0.0000000000000000e+00 0.0000000000000000e+00  -7.9931626360253724e-06 -2.7755041695633028e-05 0.0000000000000000e+00  -4.2552451755478211e-07 -1.7306866728858689e-06 0.0000000000000000e+00  -4.8078793731419585e-07 9.4815149852692100e-07 0.0000000000000000e+00  1.0487046099109696e-05 6.5328473106755895e-06 0.0000000000000000e+00  4.8840438213657596e-06 5.8407725062832703e-07 0.0000000000000000e+00  0.0000000000000000e+00 1.7007327119315894e-09 0.0000000000000000e+00  -2.1198509640320414e-06 -3.1556093959864768e-06 0.0000000000000000e+00  1.1586723040605414e-07 3.7473584250722825e-07 0.0000000000000000e+00  8.3446825313314886e-08 -3.9982334102689566e-07 0.0000000000000000e+00  -3.2844638461006152e-07 7.6975306553748300e-09 0.0000000000000000e+00  0.0000000000000000e+00 0.0000000000000000e+00 0.0000000000000000e+00  0.0000000000000000e+00 0.0000000000000000e+00 0.0000000000000000e+00  -5.2071172050722546e-07 -4.5772563326587441e-08 0.0000000000000000e+00  0.0000000000000000e+00 0.0000000000000000e+00 0.0000000000000000e+00  0.0000000000000000e+00 -2.1716452901202039e-07 0.0000000000000000e+00  3.0020377802233017e-06 1.3715237861822112e-06 0.0000000000000000e+00  0.0000000000000000e+00 0.0000000000000000e+00 0.0000000000000000e+00  0.0000000000000000e+00 0.0000000000000000e+00 0.0000000000000000e+00  0.0000000000000000e+00 0.0000000000000000e+00 0.0000000000000000e+00  0.0000000000000000e+00 -2.2916103702353547e-08 0.0000000000000000e+00  6.7200761974878383e-08 -7.8477589315063991e-08 0.0000000000000000e+00  4.4176619617860256e-08 4.9079870167065131e-09 0.0000000000000000e+00  5.3889561079476699e-07 7.4840964826087374e-08 0.0000000000000000e+00  4.6656888291606646e-08 -1.1128033158751689e-07 0.0000000000000000e+00  -4.7512385347956950e-07 -1.8612067334095787e-07 0.0000000000000000e+00  -1.6197208188712931e-07 3.6710424550722730e-07 0.0000000000000000e+00  1.1731661566264616e-06 -7.8661935764254531e-08 0.0000000000000000e+00  0.0000000000000000e+00 0.0000000000000000e+00 0.0000000000000000e+00  -3.3032426858243229e-06 2.7207798954093022e-07 0.0000000000000000e+00  1.3748627802311857e-07 7.4524181299267680e-07 0.0000000000000000e+00  2.6375365333934123e-07 -9.6764435817183803e-07 0.0000000000000000e+00  0.0000000000000000e+00 -4.9230150966542837e-08 0.0000000000000000e+00  1.3264027289432281e-07 3.3551251181971610e-07 0.0000000000000000e+00  0.0000000000000000e+00 0.0000000000000000e+00 0.0000000000000000e+00  0.0000000000000000e+00 -2.4942113492951558e-08 0.0000000000000000e+00  0.0000000000000000e+00 0.0000000000000000e+00 0.0000000000000000e+00  -1.0035082443813366e-07 -1.7408884105874938e-07 0.0000000000000000e+00  -5.3408544208881852e-07 9.0082643015549817e-07 0.0000000000000000e+00  -5.2649370153195223e-07 -1.4329697590976536e-06 0.0000000000000000e+00  6.2373308397539941e-06 3.1307711338343261e-06 0.0000000000000000e+00  7.3727643016145122e-06 1.4583106197431053e-06 0.0000000000000000e+00  -3.1756005603910236e-07 2.0889248824799016e-08 0.0000000000000000e+00  0.0000000000000000e+00 0.0000000000000000e+00 0.0000000000000000e+00  -2.0488364149407808e-06 1.0007042673444381e-07 0.0000000000000000e+00  8.4376138709498763e-08 -1.0740278127823966e-09 0.0000000000000000e+00  0.0000000000000000e+00 5.2760281772663664e-08 0.0000000000000000e+00  3.5317218148581741e-06 -1.6815516559384474e-07 0.0000000000000000e+00  1.0509367254694543e-08 0.0000000000000000e+00 0.0000000000000000e+00  0.0000000000000000e+00 2.4374951664708562e-08 0.0000000000000000e+00  0.0000000000000000e+00 -7.5565552847184966e-09 0.0000000000000000e+00  9.7298874491704369e-09 5.4125697927572963e-09 0.0000000000000000e+00  3.8426472465181970e+06 -2.8994524088708893e-08 0.0000000000000000e+00  -1.0254818546236049e+08 5.3266933824050450e+05 0.0000000000000000e+00  1.5436948175441986e+07 -3.6598862472866513e+07 0.0000000000000000e+00  -2.0493240638132755e+07 4.6360824370125286e+07 0.0000000000000000e+00  -4.3604897243709840e+07 1.7562157920342758e+07 0.0000000000000000e+00  -3.1517642126441155e+07 -6.0675918455830097e+07 0.0000000000000000e+00  -6.0846529575807258e+07 -1.5429444530101791e+07 0.0000000000000000e+00  -5.5371591649281912e+07 1.7860266649004500e+07 0.0000000000000000e+00  -2.9395663036914364e+07 8.9292538684018441e+06 0.0000000000000000e+00  2.1231509649275593e+07 -1.1963018410310096e+08 0.0000000000000000e+00  -3.3925080920086831e+07 1.1161141686602521e+08 0.0000000000000000e+00  -8.9712182280972362e+07 1.6714771853325488e+06 0.0000000000000000e+00  -1.1070786824354710e+07 -7.0189990709330458e+06 0.0000000000000000e+00  -1.1110478831913725e+07 6.0321537359570570e+07 0.0000000000000000e+00  8.4525592001588214e+06 1.1788757205177546e+07 0.0000000000000000e+00  2.8178182806223840e+07 -6.6403209691252438e+06 0.0000000000000000e+00  2.3332537090344738e+07 -4.4263890232847735e+07 0.0000000000000000e+00  -2.3089676570961168e+06 -1.2867615844103191e+07 0.0000000000000000e+00  1.7674813520129479e+07 -2.9853997348008852e+07 0.0000000000000000e+00  -5.2902050587304719e+06 3.8763555650893815e+07 0.0000000000000000e+00  -5.4497129372253090e+07 -4.0732302824597850e+07 0.0000000000000000e+00  -1.5250964895413790e+07 5.2226470281698957e+07 0.0000000000000000e+00  -8.0750536831487015e+07 -7.8753449742491603e+07 0.0000000000000000e+00  1.1468860467677251e+07 -7.6832636179225892e+06 0.0000000000000000e+00  -1.8487147990574293e+07 1.4320807793488126e+07 0.0000000000000000e+00  2.5380405408506956e+07 -6.3113394273303851e+07 0.0000000000000000e+00  2.3056077555932499e+07 4.9262833278171979e+07 0.0000000000000000e+00  7.2872228106360257e+07 3.6326421884466268e+07 0.0000000000000000e+00  -6.0197174971223846e+06 7.6800857877835870e+07 0.0000000000000000e+00  -2.0448335947828069e+07 5.5562409032354690e+07 0.0000000000000000e+00  1.9858431753342647e+07 1.2790274920969689e+07 0.0000000000000000e+00  2.7595717000925325e+07 -1.2218527146881077e+07 0.0000000000000000e+00  -3.1941125022181600e+07 2.3086348534559380e+07 0.0000000000000000e+00  -6.3218535501292050e+06 -2.3454139220250700e+07 0.0000000000000000e+00  1.0825787654769628e+06 1.7752265657924157e+07 0.0000000000000000e+00  -2.2111950411180425e+07 -8.7640288578771800e+06 0.0000000000000000e+00  -1.1666508042752208e+08 -5.1696305244226409e+06 0.0000000000000000e+00  2.1053732733332952e+06 -3.3426740718586095e+07 0.0000000000000000e+00  6.9037095232011182e+06 3.7577711927064620e+07 0.0000000000000000e+00  -3.7396385829613738e+07 1.2129385794657957e+07 0.0000000000000000e+00  -2.5808111860043794e+07 8.8068219708789103e+06 0.0000000000000000e+00  5.6999240467678398e+07 -3.7764977728393070e+07 0.0000000000000000e+00  -4.1206017801372573e+07 3.0765046186897833e+07 0.0000000000000000e+00  -4.6772165430299953e+07 8.6394428539346177e+06 0.0000000000000000e+00  -4.5541617702251546e+07 3.1734952717205785e+07 0.0000000000000000e+00  -5.9538055584000349e+07 1.2095101066982895e+07 0.0000000000000000e+00  2.1723315931274559e+07 1.4278530400153125e+07 0.0000000000000000e+00  1.1503112540329708e+07 5.7988466311596155e+07 0.0000000000000000e+00  -9.9994232072454896e+06 -1.5063894539122706e+07 0.0000000000000000e+00  1.1634678479876027e+07 -1.0846901964482918e+07 0.0000000000000000e+00  -1.4774824064261137e+07 1.3065622718253020e+07 0.0000000000000000e+00  -5.0023324084338874e+07 3.6837267874863073e+06 0.0000000000000000e+00  -6.2286561493316693e+06 8.3223684542138567e+06 0.0000000000000000e+00  -2.7026752597526859e+07 3.9103816216350541e+07 0.0000000000000000e+00  -3.6940268001082288e+06 4.0361528387690373e+07 0.0000000000000000e+00  2.4178730372028098e+07 2.7637261839583270e+07 0.0000000000000000e+00  2.6909056578451309e+07 1.9913278189485148e+07 0.0000000000000000e+00  -4.1545674299851675e+06 -4.4633035398628758e+06 0.0000000000000000e+00  -9.1030691185171325e+06 1.2685853252089906e+07 0.0000000000000000e+00  -2.1959097959254514e+07 -1.0142344683187352e+07 0.0000000000000000e+00  9.5056692674732283e+06 6.8692670124602560e+06 0.0000000000000000e+00  5.7531998104224941e+06 9.8875871042654105e+06 0.0000000000000000e+00  -2.0367623989576346e+06 -2.6143830290632259e+07 0.0000000000000000e+00  -5.2677224332304418e+07 1.4042420014730105e+07 0.0000000000000000e+00  -1.4325463999454873e+07 -1.8207985900560789e+07 0.0000000000000000e+00  -3.2003210317268118e+07 2.5943282302391734e+07 0.0000000000000000e+00  -4.8032014266478745e+06 9.1003429905849397e+06 0.0000000000000000e+00  -7.5669295494033005e+06 2.4908505250865765e+07 0.0000000000000000e+00  1.5589177997013655e+07 3.8256789734124141e+06 0.0000000000000000e+00  1.2685339154343870e+07 -3.0054675986245058e+07 0.0000000000000000e+00  3.4639733059998538e+05 -8.4776341324122939e+06 0.0000000000000000e+00  2.1583354858292692e+05 1.3394091705378886e+07 0.0000000000000000e+00  1.1023220300230096e+08 1.2633641638794238e+07 0.0000000000000000e+00  1.9316301531527244e+07 6.2221349444851326e+06 0.0000000000000000e+00  -3.9981156614204742e+07 7.1745477482153149e+06 0.0000000000000000e+00  -7.4456694700940116e+05 -5.9571674594938710e+07 0.0000000000000000e+00  4.9535807095662832e+07 4.0464339292555912e+06 0.0000000000000000e+00  3.9944135373560205e+07 1.5648082345382331e+07 0.0000000000000000e+00  5.7259540521089779e+05 5.0685337571269386e+06 0.0000000000000000e+00  -3.0713868568561267e+07 -5.8841367597787082e+06 0.0000000000000000e+00  4.1582843797824390e+07 0.0000000000000000e+00 0.0000000000000000e+00  2.3378057926522162e+07 0.0000000000000000e+00 0.0000000000000000e+00  -2.1276379533591069e+07 -1.8275158086746082e+07 0.0000000000000000e+00  3.2104019685192209e+07 -3.7019731562333159e+07 0.0000000000000000e+00  -3.3801090660477616e+07 3.0071458978229929e+06 0.0000000000000000e+00  -5.7035592062432893e+07 4.6584033424935147e+07 0.0000000000000000e+00  -4.3160542773519374e+07 3.4528664435947634e+07 0.0000000000000000e+00  -5.8334291467769235e+07 -4.3915933367922038e+07 0.0000000000000000e+00  -1.1915654616140706e+07 -2.7071802017461155e+07 0.0000000000000000e+00  8.1117642243089946e+06 7.9705105429713670e+06 0.0000000000000000e+00  1.1273662698742479e+07 6.1273641051238932e+07 0.0000000000000000e+00  2.6292767470143445e+07 8.1984325269973531e+07 0.0000000000000000e+00  -7.3537959011529218e+06 2.4802110403788634e+07 0.0000000000000000e+00  -4.6421213541992091e+07 -3.8416413326806471e+07 0.0000000000000000e+00  -3.3549465592954238e+05 -6.9116087011178639e+06 0.0000000000000000e+00  1.9749396954995081e+07 1.9174622887605324e+07 0.0000000000000000e+00  3.3105766639784530e+07 6.4466013356204733e+07 0.0000000000000000e+00  3.1511682126769520e+07 2.7585812457446079e+05 0.0000000000000000e+00  2.7521113622005824e+07 -3.5805326382722422e+07 0.0000000000000000e+00  2.2757221020046171e+07 -8.4509777764754653e+07 0.0000000000000000e+00  2.6836965146713168e+06 -1.7973968717386309e+07 0.0000000000000000e+00  -3.2723021617106684e+07 -2.2127004743240811e+07 0.0000000000000000e+00  -1.1350170991280360e+07 -1.5630537761950759e+07 0.0000000000000000e+00  -1.1970756696986433e+07 3.4694860352867939e+07 0.0000000000000000e+00  4.5595101075617366e+07 3.3436783274151340e+07 0.0000000000000000e+00  7.3733463032021329e+07 -5.2090416405304804e+07 0.0000000000000000e+00  -1.2591241130110011e+07 2.2654597410852239e+07 0.0000000000000000e+00  3.2818544861740299e+07 9.9023325945674151e+07 0.0000000000000000e+00  3.8103863951645695e+07 -4.6993595010617547e+07 0.0000000000000000e+00  -1.1790708608807248e+08 1.6089979407933880e+07 0.0000000000000000e+00  6.1878419912543140e+07 3.0949028757025346e+07 0.0000000000000000e+00  -3.9295924831904650e+07 -8.1258317833805427e+07 0.0000000000000000e+00  -9.5005259408672210e+06 -6.1897976835500188e+07 0.0000000000000000e+00  4.9136733377577597e+06 -3.3170879742076203e+07 0.0000000000000000e+00  1.2384846284116004e+06 4.0842578098099239e+07 0.0000000000000000e+00  1.0806122599791173e+07 9.4495689068829287e+06 0.0000000000000000e+00  -4.3227438194472633e+07 -1.7478281465356167e+07 0.0000000000000000e+00  1.9260767538780030e+07 -2.2715994847018156e+07 0.0000000000000000e+00  3.6724843360029990e+06 9.5091645698300097e+06 0.0000000000000000e+00  -3.1544624418652311e+07 4.9452826047051042e+07 0.0000000000000000e+00  -4.1554115632180654e+07 2.9194466154291209e+07 0.0000000000000000e+00  1.3600402780722748e+07 -5.9621278378616935e+06 0.0000000000000000e+00  -4.7291586664331190e+07 -5.1656808266189909e+06 0.0000000000000000e+00  1.8616495093752120e+07 6.1804799083023285e+06 0.0000000000000000e+00  -2.7335342221579362e+07 5.1657172944274023e+07 0.0000000000000000e+00  1.5517887540874528e+07 1.6793242898329424e+06 0.0000000000000000e+00  4.8677872459313184e+07 -6.4408831012210041e+07 0.0000000000000000e+00  2.7522840345592245e+07 3.5153323044517644e+07 0.0000000000000000e+00  3.1691738570016384e+07 -2.2425312867136545e+07 0.0000000000000000e+00  2.9957612566308454e+07 2.3251840943385936e+07 0.0000000000000000e+00  1.4332761803187933e+07 3.9652965030466825e+07 0.0000000000000000e+00  -1.8992393052902371e+07 4.1597797864778750e+07 0.0000000000000000e+00  2.2721046442495856e+07 6.9526281777352467e+06 0.0000000000000000e+00  1.9718491897960436e+07 7.7466190266366135e+06 0.0000000000000000e+00  1.8867693659067143e+07 4.4522336916673712e+07 0.0000000000000000e+00  -1.2757409691874499e+07 5.6943241752793621e+06 0.0000000000000000e+00  1.3140513594246238e+07 2.7907661470683098e+07 0.0000000000000000e+00  -2.7074660939802688e+07 -2.7905183972837433e+05 0.0000000000000000e+00  -3.9015512461569466e+07 -4.2970557329369700e+06 0.0000000000000000e+00  -1.2595264154160118e+07 -7.5828099699804392e+06 0.0000000000000000e+00  -1.0178003548882294e+07 -2.2202096442782566e+07 0.0000000000000000e+00  -1.1772618049830209e+07 -1.4827506526960138e+07 0.0000000000000000e+00  8.1773058287036167e+06 1.0257851478203893e+07 0.0000000000000000e+00  -1.4374580201503159e+07 -1.6439770419155213e+06 0.0000000000000000e+00  6.4365027512297314e+06 2.1164437184738372e+07 0.0000000000000000e+00  3.9198003447590105e+07 3.9079055348887496e+07 0.0000000000000000e+00  1.5740345599334408e+07 -2.5723597072192855e+07 0.0000000000000000e+00  -4.9764361453683905e+07 4.1683047442187920e+07 0.0000000000000000e+00  -1.9698778184628002e+07 3.4332283783506945e+07 0.0000000000000000e+00  -1.7274066931974582e+07 1.6965260702325292e+06 0.0000000000000000e+00  -1.4356889300962899e+07 3.5138352097805791e+07 0.0000000000000000e+00  2.8023303307292216e+07 4.6075612243156731e+07 0.0000000000000000e+00  3.2634788878419437e+07 -6.8116595942661660e+06 0.0000000000000000e+00  8.8914340946017043e+05 3.9083574682200611e+07 0.0000000000000000e+00  -1.0965316225653669e+07 -4.8892761926563717e+07 0.0000000000000000e+00  -1.8276268111067675e+07 -3.5281213905418366e+07 0.0000000000000000e+00  -1.8017631738088209e+07 -2.9729546577005330e+06 0.0000000000000000e+00  -2.8885117001973111e+07 -2.3852587719536602e+07 0.0000000000000000e+00  -2.8089185981564108e+07 2.4909178251571577e+07 0.0000000000000000e+00  4.1759881650456235e+07 3.3224952065671589e+07 0.0000000000000000e+00  9.3470615781642236e+06 1.7754721299901631e+07 0.0000000000000000e+00  8.9099992359129302e+06 0.0000000000000000e+00 0.0000000000000000e+00  5.6713890595189258e+07 0.0000000000000000e+00 0.0000000000000000e+00  -6.0099896438104389e+06 -5.7463573880354114e+07 0.0000000000000000e+00  -1.8437851261354841e+07 -2.8577067854259551e+07 0.0000000000000000e+00  -4.5007726287322111e+07 4.2764800974556759e+07 0.0000000000000000e+00  -1.1169023113761608e+07 2.4909037730817620e+07 0.0000000000000000e+00  -4.1162441890303098e+07 -6.0103631047452807e+07 0.0000000000000000e+00  -1.7863183719085753e+07 1.5615856200692574e+07 0.0000000000000000e+00  -4.6830742219330363e+07 -3.4457737376356177e+07 0.0000000000000000e+00  3.9437523401685972e+06 4.5033063678998724e+07 0.0000000000000000e+00  -4.2032219249598160e+07 5.0764730398360000e+05 0.0000000000000000e+00  -2.9927318742468681e+07 -1.0735424004871899e+07 0.0000000000000000e+00  -6.3691506323141987e+06 -4.2969281244386166e+07 0.0000000000000000e+00  5.1835822348340563e+06 -2.8937976573060766e+07 0.0000000000000000e+00  -1.5187490997200988e+07 -4.9042765011635385e+07 0.0000000000000000e+00  9.8786182990679462e+06 4.5201691588244746e+06 0.0000000000000000e+00  2.8366012652647201e+07 -2.6383923470287692e+07 0.0000000000000000e+00  7.8625507269402966e+06 1.3405994964674374e+07 0.0000000000000000e+00  -2.9427533860045340e+07 3.6765065011809780e+06 0.0000000000000000e+00  3.0856702081739627e+07 -1.3252497177033242e+07 0.0000000000000000e+00  5.5893738965119449e+06 -4.2161559284330226e+07 0.0000000000000000e+00  3.8977423625323032e+06 -1.0464454164917337e+07 0.0000000000000000e+00  -7.5143340542565184e+06 -1.2013210688327337e+07 0.0000000000000000e+00  2.0258584103797417e+07 -9.0231186418272033e+07 0.0000000000000000e+00  -2.7193683341088627e+07 -1.7886585591022868e+07 0.0000000000000000e+00  1.4641941363087872e+07 -1.4504131809400821e+07 0.0000000000000000e+00  1.2694685363493906e+07 -8.0131037307057470e+07 0.0000000000000000e+00  -1.8296220132185105e+07 -2.9720905554879103e+07 0.0000000000000000e+00  -1.1259498565472122e+08 3.7003796821918427e+06 0.0000000000000000e+00  -8.5842572737507224e+07 1.0792556936055796e+08 0.0000000000000000e+00  -4.9844275005785391e+07 4.6001362155485908e+06 0.0000000000000000e+00  1.8524566655475322e+07 -4.6731920418826438e+07 0.0000000000000000e+00  6.1834970360485144e+07 -2.6927178014969282e+07 0.0000000000000000e+00  6.0201410944294706e+07 6.6921641363357985e+05 0.0000000000000000e+00  -3.0511438590270400e+07 5.1955894406542666e+07 0.0000000000000000e+00  4.1617962661114551e+07 5.2909011407651953e+07 0.0000000000000000e+00  2.2765487000930723e+07 -1.0950476307592452e+07 0.0000000000000000e+00  4.7144433686679527e+07 -1.7689888076694664e+07 0.0000000000000000e+00  -3.9378312632875539e+07 -5.7166471381510347e+07 0.00