<?xml version="1.0"?>
<VTKFile type="UnstructuredGrid"  version="0.1"  >
<UnstructuredGrid>
<Piece  NumberOfPoints="1369" NumberOfCells="2560">
<Points>
<DataArray  type="Float64"  NumberOfComponents="3"  format="ascii">0 0 0  0.75 0 0  1.5 0 0  2.25 0 0  3 0 0  3.75 0 0  4.5 0 0  5.25 0 0  6 0 0  6.75 0 0  7.5 0 0  8.25 0 0  9 0 0  9.75 0 0  10.5 0 0  11.25 0 0  12 0 0  12.75 0 0  13.5 0 0  14.25 0 0  15 0 0  15.75 0 0  16.5 0 0  17.25 0 0  18 0 0  18.75 0 0  19.5 0 0  20.25 0 0  21 0 0  21.75 0 0  22.5 0 0  23.25 0 0  24 0 0  24.75 0 0  25.5 0 0  26.25 0 0  27 0 0  27.75 0 0  28.5 0 0  29.25 0 0  30 0 0  30.75 0 0  31.5 0 0  32.25 0 0  33 0 0  33.75 0 0  34.5 0 0  35.25 0 0  36 0 0  36.75 0 0  37.5 0 0  38.25 0 0  39 0 0  39.75 0 0  40.5 0 0  41.25 0 0  42 0 0  42.75 0 0  43.5 0 0  44.25 0 0  45 0 0  45.75 0 0  46.5 0 0  47.25 0 0  48 0 0  48.75 0 0  49.5 0 0  50.25 0 0  51 0 0  51.75 0 0  52.5 0 0  53.25 0 0  54 0 0  54.75 0 0  55.5 0 0  56.25 0 0  57 0 0  57.75 0 0  58.5 0 0  59.25 0 0  60 0 0  0 0.5 0  0.75 0.5 0  1.5 0.5 0  2.25 0.5 0  3 0.5 0  3.75 0.5 0  4.5 0.5 0  5.25 0.5 0  6 0.5 0  6.75 0.5 0  7.5 0.5 0  8.25 0.5 0  9 0.5 0  9.75 0.5 0  10.5 0.5 0  11.25 0.5 0  12 0.5 0  12.75 0.5 0  13.5 0.5 0  14.25 0.5 0  15 0.5 0  15.75 0.5 0  16.5 0.5 0  17.25 0.5 0  18 0.5 0  18.75 0.5 0  19.5 0.5 0  20.25 0.5 0  21 0.5 0  21.75 0.5 0  22.5 0.5 0  23.25 0.5 0  24 0.5 0  24.75 0.5 0  25.5 0.5 0  26.25 0.5 0  27 0.5 0  27.75 0.5 0  28.5 0.5 0  29.25 0.5 0  30 0.5 0  30.75 0.5 0  31.5 0.5 0  32.25 0.5 0  33 0.5 0  33.75 0.5 0  34.5 0.5 0  35.25 0.5 0  36 0.5 0  36.75 0.5 0  37.5 0.5 0  38.25 0.5 0  39 0.5 0  39.75 0.5 0  40.5 0.5 0  41.25 0.5 0  42 0.5 0  42.75 0.5 0  43.5 0.5 0  44.25 0.5 0  45 0.5 0  45.75 0.5 0  46.5 0.5 0  47.25 0.5 0  48 0.5 0  48.75 0.5 0  49.5 0.5 0  50.25 0.5 0  51 0.5 0  51.75 0.5 0  52.5 0.5 0  53.25 0.5 0  54 0.5 0  54.75 0.5 0  55.5 0.5 0  56.25 0.5 0  57 0.5 0  57.75 0.5 0  58.5 0.5 0  59.25 0.5 0  60 0.5 0  0 1 0  0.75 1 0  1.5 1 0  2.25 1 0  3 1 0  3.75 1 0  4.5 1 0  5.25 1 0  6 1 0  6.75 1 0  7.5 1 0  8.25 1 0  9 1 0  9.75 1 0  10.5 1 0  11.25 1 0  12 1 0  12.75 1 0  13.5 1 0  14.25 1 0  15 1 0  15.75 1 0  16.5 1 0  17.25 1 0  18 1 0  18.75 1 0  19.5 1 0  20.25 1 0  21 1 0  21.75 1 0  22.5 1 0  23.25 1 0  24 1 0  24.75 1 0  25.5 1 0  26.25 1 0  27 1 0  27.75 1 0  28.5 1 0  29.25 1 0  30 1 0  30.75 1 0  31.5 1 0  32.25 1 0  33 1 0  33.75 1 0  34.5 1 0  35.25 1 0  36 1 0  36.75 1 0  37.5 1 0  38.25 1 0  39 1 0  39.75 1 0  40.5 1 0  41.25 1 0  42 1 0  42.75 1 0  43.5 1 0  44.25 1 0  45 1 0  45.75 1 0  46.5 1 0  47.25 1 0  48 1 0  48.75 1 0  49.5 1 0  50.25 1 0  51 1 0  51.75 1 0  52.5 1 0  53.25 1 0  54 1 0  54.75 1 0  55.5 1 0  56.25 1 0  57 1 0  57.75 1 0  58.5 1 0  59.25 1 0  60 1 0  0 1.5 0  0.75 1.5 0  1.5 1.5 0  2.25 1.5 0  3 1.5 0  3.75 1.5 0  4.5 1.5 0  5.25 1.5 0  6 1.5 0  6.75 1.5 0  7.5 1.5 0  8.25 1.5 0  9 1.5 0  9.75 1.5 0  10.5 1.5 0  11.25 1.5 0  12 1.5 0  12.75 1.5 0  13.5 1.5 0  14.25 1.5 0  15 1.5 0  15.75 1.5 0  16.5 1.5 0  17.25 1.5 0  18 1.5 0  18.75 1.5 0  19.5 1.5 0  20.25 1.5 0  21 1.5 0  21.75 1.5 0  22.5 1.5 0  23.25 1.5 0  24 1.5 0  24.75 1.5 0  25.5 1.5 0  26.25 1.5 0  27 1.5 0  27.75 1.5 0  28.5 1.5 0  29.25 1.5 0  30 1.5 0  30.75 1.5 0  31.5 1.5 0  32.25 1.5 0  33 1.5 0  33.75 1.5 0  34.5 1.5 0  35.25 1.5 0  36 1.5 0  36.75 1.5 0  37.5 1.5 0  38.25 1.5 0  39 1.5 0  39.75 1.5 0  40.5 1.5 0  41.25 1.5 0  42 1.5 0  42.75 1.5 0  43.5 1.5 0  44.25 1.5 0  45 1.5 0  45.75 1.5 0  46.5 1.5 0  47.25 1.5 0  48 1.5 0  48.75 1.5 0  49.5 1.5 0  50.25 1.5 0  51 1.5 0  51.75 1.5 0  52.5 1.5 0  53.25 1.5 0  54 1.5 0  54.75 1.5 0  55.5 1.5 0  56.25 1.5 0  57 1.5 0  57.75 1.5 0  58.5 1.5 0  59.25 1.5 0  60 1.5 0  0 2 0  0.75 2 0  1.5 2 0  2.25 2 0  3 2 0  3.75 2 0  4.5 2 0  5.25 2 0  6 2 0  6.75 2 0  7.5 2 0  8.25 2 0  9 2 0  9.75 2 0  10.5 2 0  11.25 2 0  12 2 0  12.75 2 0  13.5 2 0  14.25 2 0  15 2 0  15.75 2 0  16.5 2 0  17.25 2 0  18 2 0  18.75 2 0  19.5 2 0  20.25 2 0  21 2 0  21.75 2 0  22.5 2 0  23.25 2 0  24 2 0  24.75 2 0  25.5 2 0  26.25 2 0  27 2 0  27.75 2 0  28.5 2 0  29.25 2 0  30 2 0  30.75 2 0  31.5 2 0  32.25 2 0  33 2 0  33.75 2 0  34.5 2 0  35.25 2 0  36 2 0  36.75 2 0  37.5 2 0  38.25 2 0  39 2 0  39.75 2 0  40.5 2 0  41.25 2 0  42 2 0  42.75 2 0  43.5 2 0  44.25 2 0  45 2 0  45.75 2 0  46.5 2 0  47.25 2 0  48 2 0  48.75 2 0  49.5 2 0  50.25 2 0  51 2 0  51.75 2 0  52.5 2 0  53.25 2 0  54 2 0  54.75 2 0  55.5 2 0  56.25 2 0  57 2 0  57.75 2 0  58.5 2 0  59.25 2 0  60 2 0  0 2.5 0  0.75 2.5 0  1.5 2.5 0  2.25 2.5 0  3 2.5 0  3.75 2.5 0  4.5 2.5 0  5.25 2.5 0  6 2.5 0  6.75 2.5 0  7.5 2.5 0  8.25 2.5 0  9 2.5 0  9.75 2.5 0  10.5 2.5 0  11.25 2.5 0  12 2.5 0  12.75 2.5 0  13.5 2.5 0  14.25 2.5 0  15 2.5 0  15.75 2.5 0  16.5 2.5 0  17.25 2.5 0  18 2.5 0  18.75 2.5 0  19.5 2.5 0  20.25 2.5 0  21 2.5 0  21.75 2.5 0  22.5 2.5 0  23.25 2.5 0  24 2.5 0  24.75 2.5 0  25.5 2.5 0  26.25 2.5 0  27 2.5 0  27.75 2.5 0  28.5 2.5 0  29.25 2.5 0  30 2.5 0  30.75 2.5 0  31.5 2.5 0  32.25 2.5 0  33 2.5 0  33.75 2.5 0  34.5 2.5 0  35.25 2.5 0  36 2.5 0  36.75 2.5 0  37.5 2.5 0  38.25 2.5 0  39 2.5 0  39.75 2.5 0  40.5 2.5 0  41.25 2.5 0  42 2.5 0  42.75 2.5 0  43.5 2.5 0  44.25 2.5 0  45 2.5 0  45.75 2.5 0  46.5 2.5 0  47.25 2.5 0  48 2.5 0  48.75 2.5 0  49.5 2.5 0  50.25 2.5 0  51 2.5 0  51.75 2.5 0  52.5 2.5 0  53.25 2.5 0  54 2.5 0  54.75 2.5 0  55.5 2.5 0  56.25 2.5 0  57 2.5 0  57.75 2.5 0  58.5 2.5 0  59.25 2.5 0  60 2.5 0  0 3 0  0.75 3 0  1.5 3 0  2.25 3 0  3 3 0  3.75 3 0  4.5 3 0  5.25 3 0  6 3 0  6.75 3 0  7.5 3 0  8.25 3 0  9 3 0  9.75 3 0  10.5 3 0  11.25 3 0  12 3 0  12.75 3 0  13.5 3 0  14.25 3 0  15 3 0  15.75 3 0  16.5 3 0  17.25 3 0  18 3 0  18.75 3 0  19.5 3 0  20.25 3 0  21 3 0  21.75 3 0  22.5 3 0  23.25 3 0  24 3 0  24.75 3 0  25.5 3 0  26.25 3 0  27 3 0  27.75 3 0  28.5 3 0  29.25 3 0  30 3 0  30.75 3 0  31.5 3 0  32.25 3 0  33 3 0  33.75 3 0  34.5 3 0  35.25 3 0  36 3 0  36.75 3 0  37.5 3 0  38.25 3 0  39 3 0  39.75 3 0  40.5 3 0  41.25 3 0  42 3 0  42.75 3 0  43.5 3 0  44.25 3 0  45 3 0  45.75 3 0  46.5 3 0  47.25 3 0  48 3 0  48.75 3 0  49.5 3 0  50.25 3 0  51 3 0  51.75 3 0  52.5 3 0  53.25 3 0  54 3 0  54.75 3 0  55.5 3 0  56.25 3 0  57 3 0  57.75 3 0  58.5 3 0  59.25 3 0  60 3 0  0 3.5 0  0.75 3.5 0  1.5 3.5 0  2.25 3.5 0  3 3.5 0  3.75 3.5 0  4.5 3.5 0  5.25 3.5 0  6 3.5 0  6.75 3.5 0  7.5 3.5 0  8.25 3.5 0  9 3.5 0  9.75 3.5 0  10.5 3.5 0  11.25 3.5 0  12 3.5 0  12.75 3.5 0  13.5 3.5 0  14.25 3.5 0  15 3.5 0  15.75 3.5 0  16.5 3.5 0  17.25 3.5 0  18 3.5 0  18.75 3.5 0  19.5 3.5 0  20.25 3.5 0  21 3.5 0  21.75 3.5 0  22.5 3.5 0  23.25 3.5 0  24 3.5 0  24.75 3.5 0  25.5 3.5 0  26.25 3.5 0  27 3.5 0  27.75 3.5 0  28.5 3.5 0  29.25 3.5 0  30 3.5 0  30.75 3.5 0  31.5 3.5 0  32.25 3.5 0  33 3.5 0  33.75 3.5 0  34.5 3.5 0  35.25 3.5 0  36 3.5 0  36.75 3.5 0  37.5 3.5 0  38.25 3.5 0  39 3.5 0  39.75 3.5 0  40.5 3.5 0  41.25 3.5 0  42 3.5 0  42.75 3.5 0  43.5 3.5 0  44.25 3.5 0  45 3.5 0  45.75 3.5 0  46.5 3.5 0  47.25 3.5 0  48 3.5 0  48.75 3.5 0  49.5 3.5 0  50.25 3.5 0  51 3.5 0  51.75 3.5 0  52.5 3.5 0  53.25 3.5 0  54 3.5 0  54.75 3.5 0  55.5 3.5 0  56.25 3.5 0  57 3.5 0  57.75 3.5 0  58.5 3.5 0  59.25 3.5 0  60 3.5 0  0 4 0  0.75 4 0  1.5 4 0  2.25 4 0  3 4 0  3.75 4 0  4.5 4 0  5.25 4 0  6 4 0  6.75 4 0  7.5 4 0  8.25 4 0  9 4 0  9.75 4 0  10.5 4 0  11.25 4 0  12 4 0  12.75 4 0  13.5 4 0  14.25 4 0  15 4 0  15.75 4 0  16.5 4 0  17.25 4 0  18 4 0  18.75 4 0  19.5 4 0  20.25 4 0  21 4 0  21.75 4 0  22.5 4 0  23.25 4 0  24 4 0  24.75 4 0  25.5 4 0  26.25 4 0  27 4 0  27.75 4 0  28.5 4 0  29.25 4 0  30 4 0  30.75 4 0  31.5 4 0  32.25 4 0  33 4 0  33.75 4 0  34.5 4 0  35.25 4 0  36 4 0  36.75 4 0  37.5 4 0  38.25 4 0  39 4 0  39.75 4 0  40.5 4 0  41.25 4 0  42 4 0  42.75 4 0  43.5 4 0  44.25 4 0  45 4 0  45.75 4 0  46.5 4 0  47.25 4 0  48 4 0  48.75 4 0  49.5 4 0  50.25 4 0  51 4 0  51.75 4 0  52.5 4 0  53.25 4 0  54 4 0  54.75 4 0  55.5 4 0  56.25 4 0  57 4 0  57.75 4 0  58.5 4 0  59.25 4 0  60 4 0  0.375 0.25 0  1.125 0.25 0  1.875 0.25 0  2.625 0.25 0  3.375 0.25 0  4.125 0.25 0  4.875 0.25 0  5.625 0.25 0  6.375 0.25 0  7.125 0.25 0  7.875 0.25 0  8.625 0.25 0  9.375 0.25 0  10.125 0.25 0  10.875 0.25 0  11.625 0.25 0  12.375 0.25 0  13.125 0.25 0  13.875 0.25 0  14.625 0.25 0  15.375 0.25 0  16.125 0.25 0  16.875 0.25 0  17.625 0.25 0  18.375 0.25 0  19.125 0.25 0  19.875 0.25 0  20.625 0.25 0  21.375 0.25 0  22.125 0.25 0  22.875 0.25 0  23.625 0.25 0  24.375 0.25 0  25.125 0.25 0  25.875 0.25 0  26.625 0.25 0  27.375 0.25 0  28.125 0.25 0  28.875 0.25 0  29.625 0.25 0  30.375 0.25 0  31.125 0.25 0  31.875 0.25 0  32.625 0.25 0  33.375 0.25 0  34.125 0.25 0  34.875 0.25 0  35.625 0.25 0  36.375 0.25 0  37.125 0.25 0  37.875 0.25 0  38.625 0.25 0  39.375 0.25 0  40.125 0.25 0  40.875 0.25 0  41.625 0.25 0  42.375 0.25 0  43.125 0.25 0  43.875 0.25 0  44.625 0.25 0  45.375 0.25 0  46.125 0.25 0  46.875 0.25 0  47.625 0.25 0  48.375 0.25 0  49.125 0.25 0  49.875 0.25 0  50.625 0.25 0  51.375 0.25 0  52.125 0.25 0  52.875 0.25 0  53.625 0.25 0  54.375 0.25 0  55.125 0.25 0  55.875 0.25 0  56.625 0.25 0  57.375 0.25 0  58.125 0.25 0  58.875 0.25 0  59.625 0.25 0  0.375 0.75 0  1.125 0.75 0  1.875 0.75 0  2.625 0.75 0  3.375 0.75 0  4.125 0.75 0  4.875 0.75 0  5.625 0.75 0  6.375 0.75 0  7.125 0.75 0  7.875 0.75 0  8.625 0.75 0  9.375 0.75 0  10.125 0.75 0  10.875 0.75 0  11.625 0.75 0  12.375 0.75 0  13.125 0.75 0  13.875 0.75 0  14.625 0.75 0  15.375 0.75 0  16.125 0.75 0  16.875 0.75 0  17.625 0.75 0  18.375 0.75 0  19.125 0.75 0  19.875 0.75 0  20.625 0.75 0  21.375 0.75 0  22.125 0.75 0  22.875 0.75 0  23.625 0.75 0  24.375 0.75 0  25.125 0.75 0  25.875 0.75 0  26.625 0.75 0  27.375 0.75 0  28.125 0.75 0  28.875 0.75 0  29.625 0.75 0  30.375 0.75 0  31.125 0.75 0  31.875 0.75 0  32.625 0.75 0  33.375 0.75 0  34.125 0.75 0  34.875 0.75 0  35.625 0.75 0  36.375 0.75 0  37.125 0.75 0  37.875 0.75 0  38.625 0.75 0  39.375 0.75 0  40.125 0.75 0  40
[...]
<PointData  Vectors="f_8-0"> 
<DataArray  type="Float64"  Name="f_8-0"  NumberOfComponents="3" format="ascii">4.8831844963240349e-09 -2.7412932875482629e-09 0.0000000000000000e+00  3.4336505353264431e-08 0.0000000000000000e+00 0.0000000000000000e+00  0.0000000000000000e+00 0.0000000000000000e+00 0.0000000000000000e+00  0.0000000000000000e+00 0.0000000000000000e+00 0.0000000000000000e+00  -2.2381951845000542e-07 -1.2850432014967883e-06 0.0000000000000000e+00  0.0000000000000000e+00 0.0000000000000000e+00 0.0000000000000000e+00  0.0000000000000000e+00 6.3483562599700775e-07 0.0000000000000000e+00  -6.5265796724396736e-08 0.0000000000000000e+00 0.0000000000000000e+00  2.6651362390755539e-07 -1.4030771724371141e-07 0.0000000000000000e+00  0.0000000000000000e+00 0.0000000000000000e+00 0.0000000000000000e+00  0.0000000000000000e+00 0.0000000000000000e+00 0.0000000000000000e+00  0.0000000000000000e+00 -1.8403788211863961e-07 0.0000000000000000e+00  0.0000000000000000e+00 0.0000000000000000e+00 0.0000000000000000e+00  1.8062612664944547e-06 -1.2097391362725124e-06 0.0000000000000000e+00  -4.2964117461747108e-06 1.1768534275623120e-06 0.0000000000000000e+00  0.0000000000000000e+00 0.0000000000000000e+00 0.0000000000000000e+00  0.0000000000000000e+00 0.0000000000000000e+00 0.0000000000000000e+00  1.5231724935200032e-06 -5.6108458943099060e-07 0.0000000000000000e+00  4.5829836639067237e-07 1.1023119018631260e-06 0.0000000000000000e+00  -2.7146257874999245e-08 4.9764450529088906e-08 0.0000000000000000e+00  0.0000000000000000e+00 7.3746566587821234e-10 0.0000000000000000e+00  2.2400815135207962e-07 -5.4765668389634229e-07 0.0000000000000000e+00  0.0000000000000000e+00 0.0000000000000000e+00 0.0000000000000000e+00  -1.4248649641174448e-07 1.8825681383997922e-06 0.0000000000000000e+00  4.8274577496610850e-07 1.7338931930600667e-06 0.0000000000000000e+00  5.8078004590056478e-06 7.1835997033236314e-06 0.0000000000000000e+00  -4.8506147121706559e-08 0.0000000000000000e+00 0.0000000000000000e+00  2.2543584658202064e-07 -9.1992561210704974e-07 0.0000000000000000e+00  5.3549413162392992e-06 3.5911084832532439e-07 0.0000000000000000e+00  0.0000000000000000e+00 0.0000000000000000e+00 0.0000000000000000e+00  3.0572946614405037e-06 -1.9332755978311397e-06 0.0000000000000000e+00  1.9663886951097002e-07 2.7506179023152533e-06 0.0000000000000000e+00  0.0000000000000000e+00 0.0000000000000000e+00 0.0000000000000000e+00  -8.6941036861768795e-06 8.7804852662961665e-06 0.0000000000000000e+00  3.0157397410683752e-07 9.4508822351131558e-08 0.0000000000000000e+00  -7.0725891196750106e-07 6.5205183707244425e-07 0.0000000000000000e+00  2.7946783076562556e-06 -5.1140271418881401e-07 0.0000000000000000e+00  -1.5534793934867043e-07 -1.2427024134603895e-06 0.0000000000000000e+00  -8.4423208138760039e-08 6.7533895901067486e-08 0.0000000000000000e+00  3.0709664837716330e-06 1.5340273217688590e-06 0.0000000000000000e+00  0.0000000000000000e+00 0.0000000000000000e+00 0.0000000000000000e+00  1.0225025766731030e-06 4.0778215348790205e-09 0.0000000000000000e+00  6.6908252249055887e-06 7.0516114065863641e-07 0.0000000000000000e+00  3.2717973347873325e-08 1.2087410490352504e-08 0.0000000000000000e+00  0.0000000000000000e+00 0.0000000000000000e+00 0.0000000000000000e+00  -9.4431328551057729e-07 5.2068516832599485e-07 0.0000000000000000e+00  0.0000000000000000e+00 0.0000000000000000e+00 0.0000000000000000e+00  0.0000000000000000e+00 0.0000000000000000e+00 0.0000000000000000e+00  1.9256282295375190e-08 0.0000000000000000e+00 0.0000000000000000e+00  6.2827684821454451e-07 -1.2898671929158757e-07 0.0000000000000000e+00  1.3611203431601788e-06 -1.4065989776050138e-06 0.0000000000000000e+00  -7.1004017283234491e-08 1.4199151626997439e-08 0.0000000000000000e+00  0.0000000000000000e+00 0.0000000000000000e+00 0.0000000000000000e+00  -6.1869752671800275e-07 3.1093538650479553e-07 0.0000000000000000e+00  -5.2636286998601606e-08 -4.2772503454235347e-08 0.0000000000000000e+00  0.0000000000000000e+00 0.0000000000000000e+00 0.0000000000000000e+00  -5.7173605262341856e-08 -2.5231769066332434e-08 0.0000000000000000e+00  0.0000000000000000e+00 0.0000000000000000e+00 0.0000000000000000e+00  -1.5094419905326033e-06 -6.6031806267989832e-08 0.0000000000000000e+00  1.0160684837358099e-06 -9.7623188826267881e-07 0.0000000000000000e+00  3.9768112322024038e-08 2.0199622995929538e-08 0.0000000000000000e+00  0.0000000000000000e+00 3.1600686164385820e-08 0.0000000000000000e+00  0.0000000000000000e+00 0.0000000000000000e+00 0.0000000000000000e+00  0.0000000000000000e+00 0.0000000000000000e+00 0.0000000000000000e+00  0.0000000000000000e+00 0.0000000000000000e+00 0.0000000000000000e+00  1.1432943226484661e-06 1.4705827944483351e-07 0.0000000000000000e+00  -5.1920356135734560e-08 -1.9591892068926308e-07 0.0000000000000000e+00  0.0000000000000000e+00 0.0000000000000000e+00 0.0000000000000000e+00  0.0000000000000000e+00 0.0000000000000000e+00 0.0000000000000000e+00  0.0000000000000000e+00 0.0000000000000000e+00 0.0000000000000000e+00  -2.6182548385512850e-08 -2.0142746179961582e-06 0.0000000000000000e+00  1.4818965934196320e-07 4.5591141719152886e-08 0.0000000000000000e+00  2.1774447993292494e-06 2.7046429690673132e-07 0.0000000000000000e+00  -4.8756894375997415e-07 5.0667603487154052e-07 0.0000000000000000e+00  0.0000000000000000e+00 0.0000000000000000e+00 0.0000000000000000e+00  -1.0717055474625541e-06 -3.0521115515306693e-07 0.0000000000000000e+00  -9.1710465264834140e-08 3.1989447510088599e-07 0.0000000000000000e+00  0.0000000000000000e+00 -5.8506338133495814e-09 0.0000000000000000e+00  -8.1679842041900189e-08 0.0000000000000000e+00 0.0000000000000000e+00  -9.1161775863580554e-08 -1.3116666762184520e-09 0.0000000000000000e+00  -1.0382128287951134e-07 -1.4023620930745554e-08 0.0000000000000000e+00  1.1205712365003226e+07 -5.3158324167703593e-08 0.0000000000000000e+00  9.7118368221648276e+07 -1.1723129621928430e+06 0.0000000000000000e+00  -1.5597631760632206e+07 3.2956127448036209e+07 0.0000000000000000e+00  3.0592747147998501e+07 -3.7420932385419607e+07 0.0000000000000000e+00  4.1670155385869265e+07 -1.9406725806876451e+07 0.0000000000000000e+00  1.8223378201982941e+07 6.2646973421415977e+07 0.0000000000000000e+00  3.4940664051272802e+07 -8.9425526415871959e+06 0.0000000000000000e+00  2.7422088799226608e+07 -3.4755028684717834e+07 0.0000000000000000e+00  3.8423154720512331e+07 -2.0914988813681901e+07 0.0000000000000000e+00  -4.0135309845217769e+06 1.0044112424154632e+08 0.0000000000000000e+00  4.2836734663747422e+07 -1.0850302927119468e+08 0.0000000000000000e+00  9.9549833285721511e+07 -1.4475770510839958e+07 0.0000000000000000e+00  -1.5452532145717335e+06 2.6823443122951031e+07 0.0000000000000000e+00  7.6554092466963939e+06 -4.3013460379270695e+07 0.0000000000000000e+00  -9.7456405472339189e+05 1.8165233288758278e+06 0.0000000000000000e+00  -7.5532390460944278e+06 -1.6473875634635508e+07 0.0000000000000000e+00  -1.4630833110183142e+07 3.1472770141355380e+07 0.0000000000000000e+00  -6.5617599800768355e+06 2.0906768272615580e+06 0.0000000000000000e+00  -1.2839219362395139e+07 3.3236579278241865e+07 0.0000000000000000e+00  -4.9789537416018583e+06 -2.3015839927093424e+07 0.0000000000000000e+00  4.1091000018422529e+07 4.6510372477284171e+07 0.0000000000000000e+00  2.8765727160992133e+06 -4.9870457250352263e+07 0.0000000000000000e+00  8.3111245010275424e+07 7.7360640422352642e+07 0.0000000000000000e+00  -1.7215545238184206e+07 -1.7310565367129166e+05 0.0000000000000000e+00  1.0389696413170921e+07 -1.6791314813063722e+07 0.0000000000000000e+00  -3.3358674076538827e+07 7.8762881089989126e+07 0.0000000000000000e+00  -1.9341864732127443e+07 -6.8923221329801798e+07 0.0000000000000000e+00  -6.1219718111192390e+07 -4.0240380733304866e+07 0.0000000000000000e+00  6.0076161196654355e+06 -6.9217031535694450e+07 0.0000000000000000e+00  2.2704402397887696e+07 -3.7503842197213501e+07 0.0000000000000000e+00  -1.4228366233663853e+07 -3.9827674375556204e+06 0.0000000000000000e+00  -3.0203699227710739e+07 -4.9944048515506657e+06 0.0000000000000000e+00  2.3730051461791459e+07 -2.1342036644694567e+07 0.0000000000000000e+00  5.7023784340793071e+06 1.7877310156484090e+07 0.0000000000000000e+00  -1.3656771330548506e+05 -1.8972602787500069e+07 0.0000000000000000e+00  1.4771108901810981e+07 1.0030233595870052e+07 0.0000000000000000e+00  1.1409593993828809e+08 1.0869102951284079e+07 0.0000000000000000e+00  -5.6082593781602830e+06 2.9716427656033840e+07 0.0000000000000000e+00  -8.3779099134999849e+06 -3.4395499418856815e+07 0.0000000000000000e+00  3.1261507988228105e+07 -1.3189520046215557e+07 0.0000000000000000e+00  2.4692353636304028e+07 -9.1409600644634888e+06 0.0000000000000000e+00  -5.5610574066259727e+07 3.5199875701518975e+07 0.0000000000000000e+00  3.6923694584045626e+07 -2.8036149816175397e+07 0.0000000000000000e+00  4.6225067073608115e+07 -6.6680927964174319e+06 0.0000000000000000e+00  4.4482560026868097e+07 -3.0527918202882200e+07 0.0000000000000000e+00  6.1191734391449824e+07 -1.0558859837789785e+07 0.0000000000000000e+00  -2.3181046085975058e+07 -1.4611663510799875e+07 0.0000000000000000e+00  -1.3529724429249423e+07 -6.0768280903690226e+07 0.0000000000000000e+00  8.1292458894752339e+06 1.4920321430018079e+07 0.0000000000000000e+00  -1.3014054693443203e+07 1.1521806411606062e+07 0.0000000000000000e+00  1.3343119925591649e+07 -1.5079363996333711e+07 0.0000000000000000e+00  5.1751503889932431e+07 -5.0211187392331334e+06 0.0000000000000000e+00  6.5314209730741791e+06 -6.0519334030081201e+06 0.0000000000000000e+00  2.6658915696807113e+07 -3.8378802194609612e+07 0.0000000000000000e+00  2.2066703495112439e+06 -4.1395813051832817e+07 0.0000000000000000e+00  -2.7048460306902368e+07 -3.4382493752022006e+07 0.0000000000000000e+00  -1.7319868074391730e+07 -4.6378923255519308e+06 0.0000000000000000e+00  -8.2852259160233084e+06 3.1200466167464168e+06 0.0000000000000000e+00  9.6986913611689713e+06 -8.4057804329950977e+06 0.0000000000000000e+00  2.1840731281013727e+07 5.6845527289523305e+06 0.0000000000000000e+00  -3.8770391089301161e+06 -1.3828041120991526e+07 0.0000000000000000e+00  -2.8877836110019814e+06 -1.4009373220781924e+07 0.0000000000000000e+00  5.5874449477002323e+06 2.6228397146241151e+07 0.0000000000000000e+00  5.2025838166942172e+07 -7.1229573883326147e+06 0.0000000000000000e+00  2.9177118720049895e+07 7.2795586839139359e+06 0.0000000000000000e+00  1.5828111481374858e+07 -3.4439166625732034e+07 0.0000000000000000e+00  1.0898000402875986e+07 -1.6314588317519596e+07 0.0000000000000000e+00  8.2245548059461918e+06 -2.5805589125048634e+07 0.0000000000000000e+00  -8.7304576250039600e+06 -2.0071304065367743e+07 0.0000000000000000e+00  -3.7816698025760795e+06 -7.0023511086941455e+06 0.0000000000000000e+00  -1.0653364510239566e+07 -1.2035197188224060e+07 0.0000000000000000e+00  -2.4738174565538876e+07 -3.0968780733803276e+07 0.0000000000000000e+00  -1.2657102843507586e+07 -1.5575366527139146e+07 0.0000000000000000e+00  -7.3992959468903206e+06 1.5526279260846840e+07 0.0000000000000000e+00  1.5378956295551041e+07 5.7082465576071367e+06 0.0000000000000000e+00  8.7820782692505829e+06 8.1481791730745416e+06 0.0000000000000000e+00  -5.4229152890063617e+06 -1.2106489448592446e+06 0.0000000000000000e+00  -2.0961809285656992e+07 3.5402475325618736e+06 0.0000000000000000e+00  -5.8678672511888400e+05 -2.3424807897042162e+06 0.0000000000000000e+00  -1.1807728380946806e+07 -2.5489916320656491e+06 0.0000000000000000e+00  -4.9803917743774746e+06 0.0000000000000000e+00 0.0000000000000000e+00  -1.1792945551357338e+07 0.0000000000000000e+00 0.0000000000000000e+00  2.4382146193122674e+07 2.0340410081689510e+07 0.0000000000000000e+00  -2.2594170352650415e+07 2.9376147871190492e+07 0.0000000000000000e+00  2.4404277885553900e+07 -2.2652452878010418e+07 0.0000000000000000e+00  6.1708993278370678e+07 -4.0226536329684891e+07 0.0000000000000000e+00  3.3539987520174269e+07 -3.5384724652483657e+07 0.0000000000000000e+00  5.6066098116542898e+07 5.0426312244722910e+07 0.0000000000000000e+00  1.6516573634389106e+07 1.6909586278141908e+07 0.0000000000000000e+00  7.3673668370433524e+06 1.1421182141515370e+06 0.0000000000000000e+00  -5.6266127430963386e+06 -6.0481360294364803e+07 0.0000000000000000e+00  -2.5465942624874692e+07 -8.9049822524820119e+07 0.0000000000000000e+00  8.6016642803535722e+06 -4.9426003116349749e+07 0.0000000000000000e+00  5.5568290085695609e+07 1.2722456379454833e+07 0.0000000000000000e+00  8.1473990068714703e+06 1.5884336059510790e+07 0.0000000000000000e+00  -1.2645478364877122e+07 -2.8977575323049434e+07 0.0000000000000000e+00  -4.3983572033778094e+07 -6.9600857328548640e+07 0.0000000000000000e+00  -3.1818899846591681e+07 -3.6872642659203627e+05 0.0000000000000000e+00  -2.7417449273087084e+07 3.4313642064141616e+07 0.0000000000000000e+00  -2.8217619193701141e+07 8.5744118308334127e+07 0.0000000000000000e+00  -9.0519625055294782e+06 2.4276724776515123e+07 0.0000000000000000e+00  8.1909446756385742e+06 1.2393625779318085e+07 0.0000000000000000e+00  1.5489009775429254e+07 2.2790590677711196e+07 0.0000000000000000e+00  2.7910821697749640e+06 -3.6347077370425217e+07 0.0000000000000000e+00  -4.7290731306221440e+07 -2.4894328129331741e+07 0.0000000000000000e+00  -7.8381281838332117e+07 3.9902997844158769e+07 0.0000000000000000e+00  1.1154370866250670e+07 -9.8062906032618936e+06 0.0000000000000000e+00  -2.7835773658103496e+07 -8.4363768445878208e+07 0.0000000000000000e+00  -3.9715536587507196e+07 3.9658393486321338e+07 0.0000000000000000e+00  1.1744590895779525e+08 4.7896089956673258e+05 0.0000000000000000e+00  -5.1153795463415012e+07 -4.4821927483030923e+07 0.0000000000000000e+00  2.9037499511381634e+07 7.3893242050780877e+07 0.0000000000000000e+00  6.1624486035931502e+06 5.6421419977765895e+07 0.0000000000000000e+00  -4.7436052119119577e+06 2.7561862142659076e+07 0.0000000000000000e+00  -2.5284178641536189e+06 -4.4386695036579907e+07 0.0000000000000000e+00  -1.0890302256441526e+07 -1.2945871624053253e+07 0.0000000000000000e+00  3.8425900122692764e+07 1.2553547935354946e+07 0.0000000000000000e+00  -1.8788726511354443e+07 2.1079236758263368e+07 0.0000000000000000e+00  -5.8098906598452954e+06 -9.8011210192315169e+06 0.0000000000000000e+00  2.9725919508411698e+07 -4.6578230091422766e+07 0.0000000000000000e+00  4.1080790654769287e+07 -3.5208938970025226e+07 0.0000000000000000e+00  -1.8467470498760525e+07 2.8985947998925946e+06 0.0000000000000000e+00  4.6840878631487586e+07 8.0150109894723946e+05 0.0000000000000000e+00  -2.0517239557482142e+07 -5.6949186798444949e+06 0.0000000000000000e+00  2.7963258666825086e+07 -5.0537842144036315e+07 0.0000000000000000e+00  -1.6401121973375093e+07 -2.7695828385037002e+06 0.0000000000000000e+00  -5.0344877976767339e+07 6.3321629312354743e+07 0.0000000000000000e+00  -2.9963971501505714e+07 -3.4212455885735996e+07 0.0000000000000000e+00  -3.1371596189635452e+07 1.9441267715709962e+07 0.0000000000000000e+00  -3.0311107527416896e+07 -2.2305117440926623e+07 0.0000000000000000e+00  -1.6195778443399139e+07 -4.1257811572616264e+07 0.0000000000000000e+00  1.8378658674449474e+07 -4.3471013558511287e+07 0.0000000000000000e+00  -2.6179829640926734e+07 -8.8513618787033372e+06 0.0000000000000000e+00  -1.8708200730251268e+07 -7.9158504213833669e+06 0.0000000000000000e+00  -2.3645036965270206e+07 -4.1516394810764953e+07 0.0000000000000000e+00  8.8561858679509200e+06 -1.8152827921791609e+07 0.0000000000000000e+00  -1.9702865402443543e+07 -3.6078027867736787e+07 0.0000000000000000e+00  1.6820253215665352e+07 5.5140174599240497e+06 0.0000000000000000e+00  3.5169490838838421e+07 8.7786700071395785e+06 0.0000000000000000e+00  1.1505275461151011e+07 -4.6190788500795653e+06 0.0000000000000000e+00  9.9398161667495817e+06 1.7630748311769787e+07 0.0000000000000000e+00  1.6181450681789123e+07 1.0699531171868339e+07 0.0000000000000000e+00  -6.0651403240270456e+06 -1.4349935437418861e+07 0.0000000000000000e+00  2.0875433996980492e+07 4.3946654966939213e+06 0.0000000000000000e+00  -5.1379421386326775e+06 -4.8827714970362391e+06 0.0000000000000000e+00  -2.3296173739479240e+07 -4.1966605208386429e+07 0.0000000000000000e+00  -3.0049231176817515e+06 2.3965112150063023e+07 0.0000000000000000e+00  4.8788311525322102e+07 -4.0635100252170883e+07 0.0000000000000000e+00  2.3383601522172157e+07 -1.6507504599351084e+07 0.0000000000000000e+00  1.5530757520237671e+07 5.5719855456759827e+06 0.0000000000000000e+00  3.1417110482076652e+07 -1.5637053664917311e+07 0.0000000000000000e+00  -2.9726857796251081e+07 -2.9165193639392689e+07 0.0000000000000000e+00  1.0005593921814859e+06 -3.1440308649025927e+06 0.0000000000000000e+00  5.9254624694236638e+06 -2.3475642648987144e+07 0.0000000000000000e+00  3.8617316787871453e+06 4.0998833609932490e+07 0.0000000000000000e+00  -6.1852115537172346e+05 -6.2199229641916873e+06 0.0000000000000000e+00  1.0591173055569805e+07 -4.5685106151313959e+06 0.0000000000000000e+00  -1.4191160103308242e+06 4.1798537784066990e+07 0.0000000000000000e+00  -3.6076847268776037e+06 5.5673682542820312e+06 0.0000000000000000e+00  7.4082279435309377e+06 2.5646036610930534e+06 0.0000000000000000e+00  6.3023083095534761e+06 1.0772369493703911e+07 0.0000000000000000e+00  6.3359050125093414e+06 -3.6615463498887778e-09 0.0000000000000000e+00  -2.5638436582681287e+07 0.0000000000000000e+00 0.0000000000000000e+00  1.6107965106709723e+06 4.9403930759624965e+07 0.0000000000000000e+00  8.9215507875683624e+06 1.3886222893670266e+07 0.0000000000000000e+00  5.0126936763360985e+07 -3.4529392848186158e+07 0.0000000000000000e+00  2.7058276757100277e+07 -2.5732698807169311e+07 0.0000000000000000e+00  3.6923256654302828e+07 5.4462010256413527e+07 0.0000000000000000e+00  1.6197050155323206e+07 -9.8132582568308655e+06 0.0000000000000000e+00  4.7496638129993483e+07 3.8591570587995753e+07 0.0000000000000000e+00  1.9313732736072333e+06 -4.8580552495358929e+07 0.0000000000000000e+00  4.5782852014835484e+07 -7.0904903178466158e+06 0.0000000000000000e+00  3.8420189873132460e+07 -8.1467143246679660e+06 0.0000000000000000e+00  1.3001705851397017e+07 3.7059468543348394e+07 0.0000000000000000e+00  -1.3472646220888443e+07 2.7185043557015859e+07 0.0000000000000000e+00  2.8470396217067990e+07 5.2934147992185310e+07 0.0000000000000000e+00  -1.0787259650539164e+07 -1.5518066821085952e+07 0.0000000000000000e+00  -3.2065059622316875e+07 -3.9405479935840606e+06 0.0000000000000000e+00  -7.6334888159440458e+06 -1.8379759536035422e+07 0.0000000000000000e+00  2.7657738633883167e+07 5.1300790980962068e+06 0.0000000000000000e+00  -1.8954496057314549e+07 2.2827382275229286e+07 0.0000000000000000e+00  -8.7394606613986548e+06 4.5182748512826152e+07 0.0000000000000000e+00  -1.1556899631871866e+07 -6.5243133478163792e+04 0.0000000000000000e+00  7.9830124324937509e+06 1.2957583897858072e+07 0.0000000000000000e+00  -1.9884712764192257e+07 9.4016263711384341e+07 0.0000000000000000e+00  1.6286597093029916e+07 4.6703303500414239e+06 0.0000000000000000e+00  -2.5834752193265609e+07 7.4144901571503098e+04 0.0000000000000000e+00  -6.3776971407899754e+06 8.6885440842287421e+07 0.0000000000000000e+00  6.4967673016511649e+06 1.5243795921286428e+07 0.0000000000000000e+00  8.7141306527051985e+07 -6.1655031951251719e+06 0.0000000000000000e+00  9.7277731065126762e+07 -1.0468203736978850e+08 0.0000000000000000e+00  3.0303706064284112e+07 7.7676285835922631e+06 0.0000000000000000e+00  -3.0078091920561288e+07 4.0463257480380617e+07 0.0000000000000000e+00  -6.6683021040832773e+07 2.8212998861727398e+07 0.0000000000000000e+00  -5.6233080150221899e+07 1.5766121875400860e+06 0.0000000000000000e+00  2.9629205462309141e+07 -5.3795335654818401e+07 0.0000000000000000e+00  -4.1121668028820679e+07 -5.5402493453773707e+07 0.0000000000000000e+00  -2.4134276617744576e+07 6.8789145606870661e+06 0.0000000000000000e+00  -5.1474734815993369e+07 1.8330109754201736e+07 0.0000000000000000e+00  3.3613869760049060e+07 5.60947917071