<?xml version="1.0"?>
<VTKFile type="UnstructuredGrid"  version="0.1"  >
<UnstructuredGrid>
<Piece  NumberOfPoints="289" NumberOfCells="512">
<Points>
<DataArray  type="Float64"  NumberOfComponents="3"  format="ascii">0 0 0  0.0625 0 0  0.125 0 0  0.1875 0 0  0.25 0 0  0.3125 0 0  0.375 0 0  0.4375 0 0  0.5 0 0  0.5625 0 0  0.625 0 0  0.6875 0 0  0.75 0 0  0.8125 0 0  0.875 0 0  0.9375 0 0  1 0 0  0 0.0625 0  0.06249234735795055 0.06246098708309136 0  0.1249852376423671 0.06242128225393821 0  0.1874792694089679 0.06238023715785763 0  0.2499753140066754 0.06233734722896049 0  0.3124746997853124 0.06229234447026959 0  0.3749794686625075 0.06224531369540182 0  0.4374927530642372 0.06219683334730287 0  0.5000193571312859 0.06214813189347618 0  0.562566704878027 0.06210123202651982 0  0.6251465024031559 0.062059022636227 0  0.6877779216775824 0.06202514683345486 0  0.750494332910563 0.06200351668721646 0  0.8133589948170273 0.06199715564729164 0  0.8765047082163179 0.06200594034266394 0  0.9402391266844252 0.06202305489128138 0  1.005320951247394 0.06203791272479763 0  0 0.125 0  0.0624841637509384 0.124922621161333 0  0.1249693045923786 0.1248437835810163 0  0.1874565096686439 0.1247621084340735 0  0.2499473933189733 0.1246764875124248 0  0.3124444552719277 0.1245862635698969 0  0.3749515800244518 0.1244914637223562 0  0.4374747653186414 0.1243930939340848 0  0.5000232233564978 0.1242934860865033 0  0.5626111087659096 0.1241966564296031 0  0.6252603519859472 0.124108575793035 0  0.6880055358920012 0.1240371588363253 0  0.7509026497873371 0.1239916583719153 0  0.8140450370172708 0.1239810821575739 0  0.8775910094736337 0.1240116064783293 0  0.9418022669843279 0.1240850912147409 0  1.007060919827323 0.1242071129400551 0  0 0.1875 0  0.06247512014709163 0.1873856942562055 0  0.1249514198870093 0.1872690287230758 0  0.1874302306722372 0.1871477447275656 0  0.2499136056137974 0.1870199440917593 0  0.3124048125234473 0.1868843427187172 0  0.3749090206303756 0.1867406157584775 0  0.4374342900023482 0.1865898594739831 0  0.49999302316969 0.1864351796369081 0  0.5626041197473544 0.1862823799486276 0  0.6252961987220025 0.1861406488838679 0  0.6881124087700389 0.1860230006417553 0  0.7511174033992849 0.1859459630222065 0  0.8144064469516727 0.1859274872109544 0  0.8781135724537772 0.1859807821534661 0  0.9424065246336012 0.1860976470209434 0  1.007440166738867 0.186199616413142 0  0 0.25 0  0.06246511506648669 0.2498511294498022 0  0.1249312866332118 0.2496988236419638 0  0.1873997429891396 0.2495397454576517 0  0.249872534692073 0.249370947591737 0  0.3123531031968957 0.2491901708404628 0  0.3748470771825947 0.2489962794084375 0  0.4373634134562396 0.2487898873663022 0  0.4999160336593964 0.2485742280174831 0  0.5625261408481522 0.2483562966871264 0  0.625225401454644 0.2481482339485969 0  0.6880600620759805 0.2479687673240644 0  0.7510956150190286 0.2478442167761254 0  0.8144203389516799 0.2478079536182758 0  0.8781431231286559 0.2478960722490785 0  0.9423762434313959 0.2481354221804805 0  1.007191494506761 0.2485209575680878 0  0 0.3125 0  0.06245434333469391 0.3123200177132818 0  0.1249092459119867 0.3121353405059312 0  0.1873654305067134 0.3119413353070449 0  0.249824425464877 0.3117337023107317 0  0.312289137993616 0.3115087701921954 0  0.3747646747615501 0.3112639720232216 0  0.4372595343715402 0.3109985939322139 0  0.4997873240617965 0.3107149126365129 0  0.5623691620338148 0.3104198565287962 0  0.6250368700704894 0.3101273150280043 0  0.6878368397657157 0.3098611307446584 0  0.7508338951297191 0.3096585353092294 0  0.8141133632701718 0.3095731572788377 0  0.8777779828457084 0.3096755385770859 0  0.9419357573047821 0.3100474344497448 0  1.006680884398072 0.3107652492869794 0  0 0.375 0  0.06244332120682823 0.374793624068253 0  0.1248863384544338 0.3745811414658778 0  0.1873288711475727 0.3743564307345396 0  0.2497713974452945 0.3741135397297772 0  0.312215553908628 0.3738469089196952 0  0.3746648891037994 0.3735518018726415 0  0.4371260123717614 0.3732250724220291 0  0.4996103237212752 0.3728664596255583 0  0.5621365459083969 0.3724806852368511 0  0.6247342617927703 0.3720807231984085 0  0.6874485007992511 0.3716926701831265 0  0.7503449823170167 0.3713625406223127 0  0.8135148162412071 0.3711647586099737 0  0.8770765871334655 0.3712106927270443 0  0.9411743896476648 0.3716530544786341 0  1.005976480415172 0.3726793336484744 0  0 0.4375 0  0.06243286284689707 0.4372733523535599 0  0.1248642632216858 0.4370391171325967 0  0.187292788655357 0.4367895732990651 0  0.249717407327117 0.436516888662319 0  0.3121378098492882 0.4362131861694369 0  0.3745549908924775 0.4358708072325029 0  0.4369722348701803 0.4354829228144443 0  0.4993967580443557 0.4350447441323904 0  0.5618423785177243 0.4345557488865992 0  0.6243337165012312 0.4340235882958286 0  0.6869125024879719 0.4334706726855505 0  0.7496464395020744 0.4329447425261832 0  0.8126405118961729 0.432534626980289 0  0.8760496628987564 0.4323909767049375 0  0.9400915865362555 0.4327479714331164 0  1.005063303600729 0.4339370839994592 0  0 0.5 0  0.06242400798927147 0.4997606606717595 0  0.1248452315204473 0.4995123200245276 0  0.1872608320142414 0.4992456896567674 0  0.249667956955914 0.498950986199836 0  0.3120638375597154 0.4986177533639937 0  0.3744460736981793 0.4982348170430159 0  0.4368132823564961 0.4977905101013266 0  0.499166433038493 0.4972734287526894 0  0.5615114451366865 0.4966742145759842 0  0.6238640195157137 0.4959892760120375 0  0.6862582202755834 0.4952280847756546 0  0.7487608559363764 0.494426785174265 0  0.8114937085110161 0.4936720666976813 0  0.8746641975671262 0.4931390766942736 0  0.9386022082480948 0.4931418921666922 0  1.003803114289219 0.4941820959703451 0  0 0.5625 0  0.06241790492689499 0.5622569260407021 0  0.1248317230576043 0.5620036858940626 0  0.1872371874345696 0.5617296558367729 0  0.2496295441437067 0.5614232728671548 0  0.3120033300004258 0.5610715464404322 0  0.3743522259837067 0.5606595798511893 0  0.436669134241212 0.5601701735209408 0  0.4989468196780925 0.5595836941480247 0  0.561179848917378 0.5588786338699503 0  0.6233693094478039 0.558033798114554 0  0.6855331041851016 0.5570341499745226 0  0.7477265585512408 0.5558845548141367 0  0.8100799380345968 0.554639681567664 0  0.8728584778068488 0.5534633025734279 0  0.9365421867825597 0.5527281924845748 0  1.001909673723951 0.553143434277954 0  0 0.625 0  0.0624156577643687 0.6247632669667362 0  0.1248261594889197 0.6245156576037696 0  0.1872260389424421 0.624245679295819 0  0.2496088587543765 0.6239404681882639 0  0.3119666268873544 0.6235849736648292 0  0.3742891100626757 0.6231609848900249 0  0.4365630926965846 0.6226459579186135 0  0.4987718098561962 0.6220116469157571 0  0.5608952317243333 0.621222682478106 0  0.6229129224765254 0.6202356358292513 0  0.6848134587701755 0.6190001979115257 0  0.7466187950804942 0.617467063087714 0  0.8084388647811216 0.615614861321511 0  0.870576606446492 0.6135260897474534 0  0.9336899308325596 0.6115617797792627 0  0.9989906692251975 0.6106347929028692 0  0 0.6875 0  0.06241815317527585 0.6872803451317927 0  0.1248305248937056 0.6870497544615293 0  0.1872309164229917 0.6867965633270313 0  0.2496117567959677 0.686507408513748 0  0.3119631834188266 0.6861661405260121 0  0.3742717959434176 0.6857524055490097 0  0.4365189536121717 0.6852397191133047 0  0.4986785476455131 0.6845927896577978 0  0.5607144737369066 0.6837637787241528 0  0.6225789987527092 0.6826871715948921 0  0.6842159861545364 0.6812732705702821 0  0.7455801346238677 0.6794022099239468 0  0.8066999905732073 0.6769286126918251 0  0.8678411186313069 0.6737401428938018 0  0.9298114336903494 0.6700266363034438 0  0.9943441171186456 0.6668866419383491 0  0 0.75 0  0.06242588972977581 0.7498081790025256 0  0.1248459820243841 0.7496061577889153 0  0.1872540086405418 0.7493829731623465 0  0.249642114985213 0.7491258308627475 0  0.3119997220407468 0.7488188781594702 0  0.3743118567132941 0.7484415232195617 0  0.4365566050317145 0.7479660137034964 0  0.4987011793207434 0.7473538196759124 0  0.5606959388503102 0.7465500679125219 0  0.6224658662493353 0.7454747294389185 0  0.6839006293309808 0.7440082613262035 0  0.7448513515011211 0.7419677741487747 0  0.8051670302701756 0.7390688931925715 0  0.8648839047129755 0.734882286502832 0  0.9248948432286066 0.7289374380628914 0  0.9872352481139105 0.7225200041953274 0  0 0.8125 0  0.06243884031128553 0.8123460086957438 0  0.1248725537996444 0.8121834009545565 0  0.1872955662892353 0.8120028622081392 0  0.2497007703120543 0.8117933699642671 0  0.3120783736272494 0.811541016275198 0  0.3744141205567423 0.8112273503933625 0  0.4366863862356846 0.8108269206601384 0  0.4988612450333744 0.8103034906979216 0  0.5608838752034031 0.8096040243832628 0  0.6226633765266025 0.8086487641490732 0  0.6840462507810035 0.8073139760789835 0  0.7447731567066423 0.8053994615904538 0  0.8044246017796962 0.8025607821027401 0  0.8624359650513599 0.7981543119577917 0  0.9186945085931535 0.7908758443486117 0  0.9793391209565329 0.7779215354234739 0  0 0.875 0  0.06245638121950324 0.874892249013513 0  0.1249089508369933 0.8747782492393856 0  0.1873535542326372 0.8746512188680985 0  0.2497848415241956 0.8745030560703186 0  0.3121953463991654 0.8743234143206206 0  0.3745740193985793 0.8740983832410809 0  0.4369037311415688 0.8738085120713526 0  0.4991567860836824 0.8734257593555907 0  0.5612864474544179 0.872908702316841 0  0.6232101314563954 0.8721949268320695 0  0.6847745718693307 0.8711887144807685 0  0.7456811915130872 0.8697397093685529 0  0.8053248219466033 0.867597372442579 0  0.8624580353511077 0.8642739670759545 0  0.9145765445515258 0.8585297139948926 0  0.9571406965154027 0.846518416703284 0  0 0.9375 0  0.06247731546737576 0.9374445546235208 0  0.1249526142277462 0.9373858268941923 0  0.1874236997104528 0.9373202466823272 0  0.2498877364536186 0.9372435262470981 0  0.3123407550358876 0.937150153767759 0  0.3747768564307218 0.9370326671571494 0  0.4371868370087628 0.93
[...]
<PointData  Vectors="f_54"> 
<DataArray  type="Float64"  Name="f_54"  NumberOfComponents="3" format="ascii">0.0000000000000000e+00 0.0000000000000000e+00 0.0000000000000000e+00  0.0000000000000000e+00 0.0000000000000000e+00 0.0000000000000000e+00  0.0000000000000000e+00 0.0000000000000000e+00 0.0000000000000000e+00  0.0000000000000000e+00 0.0000000000000000e+00 0.0000000000000000e+00  0.0000000000000000e+00 0.0000000000000000e+00 0.0000000000000000e+00  0.0000000000000000e+00 0.0000000000000000e+00 0.0000000000000000e+00  0.0000000000000000e+00 0.0000000000000000e+00 0.0000000000000000e+00  0.0000000000000000e+00 0.0000000000000000e+00 0.0000000000000000e+00  0.0000000000000000e+00 0.0000000000000000e+00 0.0000000000000000e+00  0.0000000000000000e+00 0.0000000000000000e+00 0.0000000000000000e+00  0.0000000000000000e+00 0.0000000000000000e+00 0.0000000000000000e+00  0.0000000000000000e+00 0.0000000000000000e+00 0.0000000000000000e+00  0.0000000000000000e+00 0.0000000000000000e+00 0.0000000000000000e+00  0.0000000000000000e+00 0.0000000000000000e+00 0.0000000000000000e+00  0.0000000000000000e+00 0.0000000000000000e+00 0.0000000000000000e+00  0.0000000000000000e+00 0.0000000000000000e+00 0.0000000000000000e+00  0.0000000000000000e+00 0.0000000000000000e+00 0.0000000000000000e+00  0.0000000000000000e+00 0.0000000000000000e+00 0.0000000000000000e+00  1.7419616506822563e-06 1.6933737071988332e-07 0.0000000000000000e+00  3.5034790588712751e-06 3.4049437374970583e-07 0.0000000000000000e+00  5.3014662072817078e-06 5.1504692140762486e-07 0.0000000000000000e+00  7.1427632550382866e-06 6.9363931009472972e-07 0.0000000000000000e+00  9.0175172342416501e-06 8.7543262361414472e-07 0.0000000000000000e+00  1.0890440386463196e-05 1.0574728315620981e-06 0.0000000000000000e+00  1.2688952003073746e-05 1.2340202938253525e-06 0.0000000000000000e+00  1.4286710834523030e-05 1.3959749366727714e-06 0.0000000000000000e+00  1.5479755732979491e-05 1.5307007494208404e-06 0.0000000000000000e+00  1.5948966109616851e-05 1.6228754296355035e-06 0.0000000000000000e+00  1.5192636529521779e-05 1.6576945586504313e-06 0.0000000000000000e+00  1.2383557859223195e-05 1.6296719578120232e-06 0.0000000000000000e+00  6.0122813651167255e-06 1.5666457688028089e-06 0.0000000000000000e+00  -7.1368598705463614e-06 1.6027696076550935e-06 0.0000000000000000e+00  -3.5301629570077067e-05 2.2345913192867864e-06 0.0000000000000000e+00  -1.0392472265191551e-04 5.3610690367004057e-06 0.0000000000000000e+00  0.0000000000000000e+00 0.0000000000000000e+00 0.0000000000000000e+00  3.4617439658965390e-06 3.3660000243322627e-07 0.0000000000000000e+00  6.9673744010025294e-06 6.7729045991572358e-07 0.0000000000000000e+00  1.0556004961795681e-05 1.0257026018514659e-06 0.0000000000000000e+00  1.4247947302637260e-05 1.3836784200966046e-06 0.0000000000000000e+00  1.8032259335030992e-05 1.7501759208850680e-06 0.0000000000000000e+00  2.1850229456759561e-05 2.1199631456008387e-06 0.0000000000000000e+00  2.5573050200976691e-05 2.4821389298979256e-06 0.0000000000000000e+00  2.8971365808351042e-05 2.8186678892560950e-06 0.0000000000000000e+00  3.1673054699273438e-05 3.1033781618587996e-06 0.0000000000000000e+00  3.3102360191161500e-05 3.3022898459501495e-06 0.0000000000000000e+00  3.2385557123886049e-05 3.3767501718573504e-06 0.0000000000000000e+00  2.8189931693557175e-05 3.2915506110645723e-06 0.0000000000000000e+00  1.8424842798210082e-05 3.0301050027044495e-06 0.0000000000000000e+00  -3.1950886411804245e-07 2.6121842170783078e-06 0.0000000000000000e+00  -3.3632726895338598e-05 2.0620797112519299e-06 0.0000000000000000e+00  -8.9041002767228805e-05 9.7606658814865067e-07 0.0000000000000000e+00  0.0000000000000000e+00 0.0000000000000000e+00 0.0000000000000000e+00  5.1329262551957803e-06 4.9931348258799505e-07 0.0000000000000000e+00  1.0342942355367869e-05 1.0058464691736052e-06 0.0000000000000000e+00  1.5701184672349964e-05 1.5262065791507201e-06 0.0000000000000000e+00  2.1253829102275043e-05 2.0645237663307747e-06 0.0000000000000000e+00  2.7005265556190166e-05 2.6208532951162411e-06 0.0000000000000000e+00  3.2895500734559945e-05 3.1891562175541745e-06 0.0000000000000000e+00  3.8769528048777516e-05 3.7548185917353718e-06 0.0000000000000000e+00  4.4336143301801696e-05 4.2918337384404227e-06 0.0000000000000000e+00  4.9113322336082571e-05 4.7600741700752484e-06 0.0000000000000000e+00  5.2356672851565851e-05 5.1035650700936745e-06 0.0000000000000000e+00  5.2966606302811187e-05 5.2512951005387846e-06 0.0000000000000000e+00  4.9370274451735355e-05 5.1225213459788765e-06 0.0000000000000000e+00  3.9385288827383576e-05 4.6376281562393338e-06 0.0000000000000000e+00  2.0132972449693697e-05 3.7307606400357396e-06 0.0000000000000000e+00  -1.1689010505452344e-05 2.3493649873774854e-06 0.0000000000000000e+00  -5.8130041528432983e-05 4.4060902765392520e-07 0.0000000000000000e+00  0.0000000000000000e+00 0.0000000000000000e+00 0.0000000000000000e+00  6.7204667446009419e-06 6.5416891075447745e-07 0.0000000000000000e+00  1.3562936726912339e-05 1.3198591489725468e-06 0.0000000000000000e+00  2.0643581738757452e-05 2.0079366533628543e-06 0.0000000000000000e+00  2.8051117384106012e-05 2.7264030928062340e-06 0.0000000000000000e+00  3.5827618914620320e-05 3.4784108168937509e-06 0.0000000000000000e+00  4.3942017148315381e-05 4.2595645433378277e-06 0.0000000000000000e+00  5.2253486223866633e-05 5.0543058269110566e-06 0.0000000000000000e+00  6.0461958789172977e-05 5.8312962476584860e-06 0.0000000000000000e+00  6.8043596264562531e-05 6.5380099050341894e-06 0.0000000000000000e+00  7.4170874304516998e-05 7.0953365324626126e-06 0.0000000000000000e+00  7.7621450695480537e-05 7.3939884067838302e-06 0.0000000000000000e+00  7.6690675728472918e-05 7.2958240268875679e-06 0.0000000000000000e+00  6.9148595708378455e-05 6.6442571493176208e-06 0.0000000000000000e+00  5.2345325495047258e-05 5.2871751602719184e-06 0.0000000000000000e+00  2.3705014196880444e-05 3.1107188666907136e-06 0.0000000000000000e+00  -1.7960814864790448e-05 6.7862514063049534e-08 0.0000000000000000e+00  0.0000000000000000e+00 0.0000000000000000e+00 0.0000000000000000e+00  8.1780635514326730e-06 7.9672733416969212e-07 0.0000000000000000e+00  1.6535787118807521e-05 1.6106077700152924e-06 0.0000000000000000e+00  2.5248682607011937e-05 2.4582593861625919e-06 0.0000000000000000e+00  3.4466927681975859e-05 3.3535155336947992e-06 0.0000000000000000e+00  4.4296358162455068e-05 4.3052843804065171e-06 0.0000000000000000e+00  5.4770718622852054e-05 5.3143669607598715e-06 0.0000000000000000e+00  6.5811580611795022e-05 6.3687750723390649e-06 0.0000000000000000e+00  7.7172228598655182e-05 7.4370754610102086e-06 0.0000000000000000e+00  8.8362589362160588e-05 8.4594469964102346e-06 0.0000000000000000e+00  9.8555032351815150e-05 9.3367243615356091e-06 0.0000000000000000e+00  1.0647747155376022e-04 9.9191507701325045e-06 0.0000000000000000e+00  1.1031366741418456e-04 9.9994693014229202e-06 0.0000000000000000e+00  1.0765529992400828e-04 9.3197955677762216e-06 0.0000000000000000e+00  9.5590441232960946e-05 7.6078893923624430e-06 0.0000000000000000e+00  7.1062215923115046e-05 4.6633635177032235e-06 0.0000000000000000e+00  3.1632354755716337e-05 5.1460717731638989e-07 0.0000000000000000e+00  0.0000000000000000e+00 0.0000000000000000e+00 0.0000000000000000e+00  9.4473496113485971e-06 9.2128492861514819e-07 0.0000000000000000e+00  1.9143515729301312e-05 1.8666086195396587e-06 0.0000000000000000e+00  2.9336573308825671e-05 2.8598099779412694e-06 0.0000000000000000e+00  4.0256774826866298e-05 3.9226542631779179e-06 0.0000000000000000e+00  5.2100811242487160e-05 5.0729208961858913e-06 0.0000000000000000e+00  6.5006225714904226e-05 6.3211792396005289e-06 0.0000000000000000e+00  7.9011238117042000e-05 7.6654843993498877e-06 0.0000000000000000e+00  9.3994357000998284e-05 9.0829480064928755e-06 0.0000000000000000e+00  1.0958797681420047e-04 1.0516911310755202e-05 0.0000000000000000e+00  1.2506197477929668e-04 1.1858597794214728e-05 0.0000000000000000e+00  1.3917935157436041e-04 1.2923456815567446e-05 0.0000000000000000e+00  1.5003916607885041e-04 1.3426552709268673e-05 0.0000000000000000e+00  1.5494414232128777e-04 1.2970737395548637e-05 0.0000000000000000e+00  1.5035549789044797e-04 1.1077505870955608e-05 0.0000000000000000e+00  1.3199905387136312e-04 7.3088571053122902e-06 0.0000000000000000e+00  9.5102431565947880e-05 1.5327933917451235e-06 0.0000000000000000e+00  0.0000000000000000e+00 0.0000000000000000e+00 0.0000000000000000e+00  1.0459358381577271e-05 1.0209715616539252e-06 0.0000000000000000e+00  2.1244303534981975e-05 2.0737407357289415e-06 0.0000000000000000e+00  3.2684845771424759e-05 3.1904812149167573e-06 0.0000000000000000e+00  4.5106502422088645e-05 4.4027438666843314e-06 0.0000000000000000e+00  5.8821478757520307e-05 5.7403027268128559e-06 0.0000000000000000e+00  7.4109721428086451e-05 7.2286251303278238e-06 0.0000000000000000e+00  9.1183824682650197e-05 8.8839366963127465e-06 0.0000000000000000e+00  1.1012944517735352e-04 1.0704203888928215e-05 0.0000000000000000e+00  1.3081045982943129e-04 1.2653416475826476e-05 0.0000000000000000e+00  1.5272687826549687e-04 1.4635478888883833e-05 0.0000000000000000e+00  1.7481637006683072e-04 1.6453665598838428e-05 0.0000000000000000e+00  1.9520207570053620e-04 1.7754591167203118e-05 0.0000000000000000e+00  2.1091466611929588e-04 1.7967935813628252e-05 0.0000000000000000e+00  2.1764748862489257e-04 1.6283298610217316e-05 0.0000000000000000e+00  2.0959066894641061e-04 1.1753580686391916e-05 0.0000000000000000e+00  1.7921889510956419e-04 3.6498965113692159e-06 0.0000000000000000e+00  0.0000000000000000e+00 0.0000000000000000e+00 0.0000000000000000e+00  1.1138562898990248e-05 1.0881479168380520e-06 0.0000000000000000e+00  2.2680401168395913e-05 2.2160004824426343e-06 0.0000000000000000e+00  3.5039969210485131e-05 3.4244297634329764e-06 0.0000000000000000e+00  4.8646146402372899e-05 4.7558474697794486e-06 0.0000000000000000e+00  6.3944352331957239e-05 6.2544111120300649e-06 0.0000000000000000e+00  8.1389870691270171e-05 7.9651656350896512e-06 0.0000000000000000e+00  1.0142551987154474e-04 9.9310590174000625e-06 0.0000000000000000e+00  1.2443256898830700e-04 1.2185785118164225e-05 0.0000000000000000e+00  1.5063787967011723e-04 1.4738592499345356e-05 0.0000000000000000e+00  1.7995336357658483e-04 1.7544089738839488e-05 0.0000000000000000e+00  2.1171919454591689e-04 2.0445546510765575e-05 0.0000000000000000e+00  2.4432840252457062e-04 2.3076242703870260e-05 0.0000000000000000e+00  2.7474341416565206e-04 2.4709251359987983e-05 0.0000000000000000e+00  2.9798454363179084e-04 2.4085805069426157e-05 0.0000000000000000e+00  3.0671077415919603e-04 1.9353689833519371e-05 0.0000000000000000e+00  2.9075211524443018e-04 8.3527849987783156e-06 0.0000000000000000e+00  0.0000000000000000e+00 0.0000000000000000e+00 0.0000000000000000e+00  1.1409575965698121e-05 1.1151324024657368e-06 0.0000000000000000e+00  2.3291713105972060e-05 2.2769817282291751e-06 0.0000000000000000e+00  3.6138006276770084e-05 3.5343407120232232e-06 0.0000000000000000e+00  5.0477673285692726e-05 4.9401766581809978e-06 0.0000000000000000e+00  6.6894418205522770e-05 6.5537061141794486e-06 0.0000000000000000e+00  8.6038327904654959e-05 8.4421912306368163e-06 0.0000000000000000e+00  1.0862641251731301e-04 1.0681796481329595e-05 0.0000000000000000e+00  1.3541934104239705e-04 1.3355844266969007e-05 0.0000000000000000e+00  1.6715179226381725e-04 1.6546532646191324e-05 0.0000000000000000e+00  2.0437841940141137e-04 2.0311146457649135e-05 0.0000000000000000e+00  2.4717790869969238e-04 2.4623294052212048e-05 0.0000000000000000e+00  2.9464416282629937e-04 2.9240410836329676e-05 0.0000000000000000e+00  3.4412053148209434e-04 3.3433937734314837e-05 0.0000000000000000e+00  3.9027363946039214e-04 3.5528288993217536e-05 0.0000000000000000e+00  4.2438133400545241e-04 3.2365465908103560e-05 0.0000000000000000e+00  4.3426691296095032e-04 1.9163668333974940e-05 0.0000000000000000e+00  0.0000000000000000e+00 0.0000000000000000e+00 0.0000000000000000e+00  1.1206253459388894e-05 1.0952232010922026e-06 0.0000000000000000e+00  2.2934728672764317e-05 2.2420413406240146e-06 0.0000000000000000e+00  3.5734696244903813e-05 3.4949781852068869e-06 0.0000000000000000e+00  5.0217747054354417e-05 4.9153646420786409e-06 0.0000000000000000e+00  6.7091980933855599e-05 6.5754591886513588e-06 0.0000000000000000e+00  8.7198090923484576e-05 8.5634555472224936e-06 0.0000000000000000e+00  1.1154376486028645e-04 1.0989618034469909e-05 0.0000000000000000e+00  1.4132612343333955e-04 1.3993395642580397e-05 0.0000000000000000e+00  1.7791850226734748e-04 1.7749928478696700e-05 0.0000000000000000e+00  2.2277276609357455e-04 2.2469766184758096e-05 0.0000000000000000e+00  2.7714557946716410e-04 2.8372117109851227e-05 0.0000000000000000e+00  3.4149674481143274e-04 3.5575216837940626e-05 0.0000000000000000e+00  4.1436624285505225e-04 4.3758830378385448e-05 0.0000000000000000e+00  4.9068992773674473e-04 5.1301682839405579e-05 0.0000000000000000e+00  5.6025450532621657e-04 5.3676234142652572e-05 0.0000000000000000e+00  6.0722490908960726e-04 4.1894313989993832e-05 0.0000000000000000e+00  0.0000000000000000e+00 0.0000000000000000e+00 0.0000000000000000e+00  1.0482441123876748e-05 1.0238899579330033e-06 0.0000000000000000e+00  2.1505435650121099e-05 2.1009032607130142e-06 0.0000000000000000e+00  3.3643324402374093e-05 3.2876774332158088e-06 0.0000000000000000e+00  4.7554584188499786e-05 4.6496541716217260e-06 0.0000000000000000e+00  6.4033230942683707e-05 6.2668748720606395e-06 0.0000000000000000e+00  8.4071645549300107e-05 8.2418336553588457e-06 0.0000000000000000e+00  1.0893708729117370e-04 1.0710760982404777e-05 0.0000000000000000e+00  1.4025948617139722e-04 1.3860527503041056e-05 0.0000000000000000e+00  1.8011548484729659e-04 1.7954495687700817e-05 0.0000000000000000e+00  2.3106341854766104e-04 2.3371200616114646e-05 0.0000000000000000e+00  2.9601740775263020e-04 3.0654812051640857e-05 0.0000000000000000e+00  3.7771567022501257e-04 4.0545679898368595e-05 0.0000000000000000e+00  4.7731217776469817e-04 5.3828008249020316e-05 0.0000000000000000e+00  5.9144881350739465e-04 7.0350007565373650e-05 0.0000000000000000e+00  7.0872059600533431e-04 8.5335411220608667e-05 0.0000000000000000e+00  8.1169540896520889e-04 8.6137012590680267e-05 0.0000000000000000e+00  0.0000000000000000e+00 0.0000000000000000e+00 0.0000000000000000e+00  9.2229847827490208e-06 8.9991880283691384e-07 0.0000000000000000e+00  1.8963465844636633e-05 1.8502296448908348e-06 0.0000000000000000e+00  2.9776382610555676e-05 2.9049741125463314e-06 0.0000000000000000e+00  4.2314198835091914e-05 4.1277643876424264e-06 0.0000000000000000e+00  5.7391205553871016e-05 5.5982963027584932e-06 0.0000000000000000e+00  7.6069509638992838e-05 7.4215350714566844e-06 0.0000000000000000e+00  9.9777352205038182e-05 9.7416448291474421e-06 0.0000000000000000e+00  1.3047157209255798e-04 1.2764607718922186e-05 0.0000000000000000e+00  1.7085202152080856e-04 1.6797608024378623e-05 0.0000000000000000e+00  2.2461470287038805e-04 2.2322226227857005e-05 0.0000000000000000e+00  2.9666196887342548e-04 3.0136362078044136e-05 0.0000000000000000e+00  3.9299955604931255e-04 4.1626574338189655e-05 0.0000000000000000e+00  5.1957422314423169e-04 5.9225484376118543e-05 0.0000000000000000e+00  6.7815496836876900e-04 8.6751977941815063e-05 0.0000000000000000e+00  8.5505463940562703e-04 1.2623969844533899e-04 0.0000000000000000e+00  1.0291506980463589e-03 1.3938675487308456e-04 0.0000000000000000e+00  0.0000000000000000e+00 0.0000000000000000e+00 0.0000000000000000e+00  7.4530150764148874e-06 7.2624460650004066e-07 0.0000000000000000e+00  1.5353233846607968e-05 1.4955430290317801e-06 0.0000000000000000e+00  2.4184102340086937e-05 2.3542094518467830e-06 0.0000000000000000e+00  3.4526081249855674e-05 3.3573584282971474e-06 0.0000000000000000e+00  4.7124503589304044e-05 4.5748594302415980e-06 0.0000000000000000e+00  6.2986421740870792e-05 6.0996340678934275e-06 0.0000000000000000e+00  8.3525335615561232e-05 8.0599510644527106e-06 0.0000000000000000e+00  1.1078260896727191e-04 1.0638889595427932e-05 0.0000000000000000e+00  1.4776762444113558e-04 1.4108169480094559e-05 0.0000000000000000e+00  1.9896951127550228e-04 1.8895193317959013e-05 0.0000000000000000e+00  2.7107567814153264e-04 2.5736595824328964e-05 0.0000000000000000e+00  3.7379788172559199e-04 3.6069968586222041e-05 0.0000000000000000e+00  5.2019038258023032e-04 5.3072857526016039e-05 0.0000000000000000e+00  7.2417172771830501e-04 8.4361918645334323e-05 0.0000000000000000e+00  9.8685394769975959e-04 1.4901681155525035e-04 0.0000000000000000e+00  1.2008084577878649e-03 3.1081753624339839e-04 0.0000000000000000e+00  0.0000000000000000e+00 0.0000000000000000e+00 0.0000000000000000e+00  5.2431544440305020e-06 5.1023574887697691e-07 0.0000000000000000e+00  1.0816757129800720e-05 1.0519312728741920e-06 0.0000000000000000e+00  1.7080360824464890e-05 1.6589605780193044e-06 0.0000000000000000e+00  2.4472721802804022e-05 2.3718244568079878e-06 0.0000000000000000e+00  3.3569744300880162e-05 3.2419629174352268e-06 0.0000000000000000e+00  4.5171252590544372e-05 4.3373560714179648e-06 0.0000000000000000e+00  6.0438681505718232e-05 5.7496781719867518e-06 0.0000000000000000e+00  8.1122457587427165e-05 7.6026118619184518e-06 0.0000000000000000e+00  1.0994843850087180e-04 1.0059189502796488e-05 0.0000000000000000e+00  1.5128658220340686e-04 1.3323144766931567e-05 0.0000000000000000e+00  2.1230896595389895e-04 1.7631611014999343e-05 0.0000000000000000e+00  3.0492940264384926e-04 2.3285626052269743e-05 0.0000000000000000e+00  4.4870359655664480e-04 3.1039520490224284e-05 0.0000000000000000e+00  6.7377158423880901e-04 4.4191305983861727e-05 0.0000000000000000e+00  1.0186804892048946e-03 7.6109115780729065e-05 0.0000000000000000e+00  1.5085925006366214e-03 1.6694878985828919e-04 0.0000000000000000e+00  0.0000000000000000e+00 0.0000000000000000e+00 0.0000000000000000e+00  2.7084747334891917e-06 2.6331896840028084e-07 0.0000000000000000e+00  5.5929317978272855e-06 5.4325460781378715e-07 0.0000000000000000e+00  8.8456981419015545e-06 8.5769754008272741e-07 0.0000000000000000e+00  1.2703973187546261e-05 1.2280613947483450e-06 0.0000000000000000e+00  1.7483656583875040e-05 1.6814570502241086e-06 0.0000000000000000e+00  2.3631642047978159e-05 2.2531992427084633e-06 0.0000000000000000e+00  3.1812168290361159e-05 2.9889564112689013e-06 0.0000000000000000e+00  4.3056809652937931e-05 3.9435649799831782e-06 0.0000000000000000e+00  5.9036505442980535e-05 5.1659518327416798e-06 0.0000000000000000e+00  8.2573117401520143e-05 6.6348480444605655e-06 0.0000000000000000e+00  1.1862137479692952e-04 8.0299169073383723e-06 0.0000000000000000e+00  1.7611016896162946e-04 7.9740459553370735e-06 0.0000000000000000e+00  2.7086148080194899e-04 1.7128025317391494e-06 0.0000000000000000e+00  4.2684892626215521e-04 -2.4703824691021267e-05 0.0000000000000000e+00  6.5875808043736235e-04 -1.0028898258726058e-04 0.0000000000000000e+00  9.0723339491328005e-04 -2.3644971101690558e-04 0.0000000000000000e+00  0.0000000000000000e+00 0.0000000000000000e+00 0.0000000000000000e+00  0.0000000000000000e+00 0.0000000000000000e+00 0.0000000000000000e+00  0.0000000000000000e+00 0.0000000000000000e+00 0.0000000000000000e+00  0.0000000000000000e+00 0.0000000000000000e+00 0.0000000000000000e+00  0.0000000000000000e+00 0.0000000000000000e+00 0.0000000000000000e+00  0.0000000000000000e+00 0.0000000000000000e+00 0.0000000000000000e+00  0.0000000000000000e+00 0.0000000000000000e+00 0.0000000000000000e+00  0.0000000000000000e+00 0.0000000000000000e+00 0.0000000000000000e+00  0.0000000000000000e+00 0.0000000000000000e+00 0.0000000000000000e+00  0.0000000000000000e+00 0.0000000000000000e+00 0.0000000000000000e+00  0.0000000000000000e+00 0.0000000000000000e+00 0.0000000000000000e+00  0.0000000000000000e+00 0.0000000000000000e+00 0.0000000000000000e+00  