<?xml version="1.0"?>
<VTKFile type="UnstructuredGrid"  version="0.1"  >
<UnstructuredGrid>
<Piece  NumberOfPoints="289" NumberOfCells="512">
<Points>
<DataArray  type="Float64"  NumberOfComponents="3"  format="ascii">0 0 0  0.0625 0 0  0.125 0 0  0.1875 0 0  0.25 0 0  0.3125 0 0  0.375 0 0  0.4375 0 0  0.5 0 0  0.5625 0 0  0.625 0 0  0.6875 0 0  0.75 0 0  0.8125 0 0  0.875 0 0  0.9375 0 0  1 0 0  0 0.0625 0  0.06257754943949458 0.06247233231091042 0  0.1251575986890057 0.06244412912020971 0  0.1877427199313893 0.06241488507913594 0  0.2503355713280369 0.06238418537970204 0  0.3129389411475234 0.06235176575149381 0  0.3755557970126013 0.06231758919785201 0  0.438189355683948 0.06228194105055043 0  0.5008432123132353 0.06224553741030257 0  0.5635216230215603 0.06220962926844181 0  0.6262301676717077 0.0621760612034545 0  0.6889773588704092 0.06214720258536992 0  0.7517786778271044 0.06212559801787253 0  0.8146671027672133 0.06211305068648706 0  0.877721685516874 0.06210855857348917 0  0.9411471064048241 0.06210387422165847 0  1.005490625065953 0.06207751898263955 0  0 0.125 0  0.06265260846680519 0.1249451718054754 0  0.1253102033032508 0.1248892258561795 0  0.1879779228451042 0.1248310994021857 0  0.2506610976949842 0.124769898718107 0  0.3133653508233893 0.1247050149092047 0  0.3760967078994607 0.1246362768631412 0  0.4388617429126165 0.1245641483763833 0  0.5016678185426739 0.1244899663418444 0  0.5645235538803068 0.1244161957092361 0  0.6274398053015239 0.1243466371449894 0  0.6904317577648965 0.1242864564504073 0  0.7535233067769326 0.1242418121331465 0  0.8167557470369379 0.1242187992933452 0  0.8802027188886132 0.124221727058478 0  0.9439859687157485 0.1242527324716357 0  1.008249855149645 0.1243221472322189 0  0 0.1875 0  0.06272269193637335 0.1874191133942391 0  0.1254527908707221 0.1873364436543815 0  0.1881979396710305 0.1872502765152832 0  0.2509660981567451 0.1871591195191261 0  0.3137657064514913 0.1870618629077296 0  0.3766058570323654 0.1869580031337578 0  0.4394964969868178 0.1868479479815973 0  0.502448707777997 0.1867334139941929 0  0.5654751558629443 0.18661790530073 0  0.6285908787530771 0.1865072155040176 0  0.6918146453615486 0.1864097990202431 0  0.7551710683576377 0.1863366723572845 0  0.8186929292629781 0.186300118749626 0  0.8824203164312109 0.1863094842241971 0  0.9463854114243064 0.1863591040100363 0  1.010560621799502 0.1863910951819534 0  0 0.25 0  0.06278539477350012 0.2498948333485861 0  0.125580489156887 0.2497871118359828 0  0.1883953040793154 0.2496743461357783 0  0.2512403202783812 0.2495542803026077 0  0.3141267126275928 0.2494250773887085 0  0.3770665870940862 0.2492855963371333 0  0.440073229901941 0.249135798176332 0  0.5031613863155858 0.2489773207689277 0  0.5663475908610277 0.2488142524404772 0  0.6296505491094057 0.2486541014210731 0  0.693091453655251 0.2485088721645055 0  0.7566937226499313 0.2483959674849584 0  0.8204805943485193 0.2483382372225153 0  0.8844667717460377 0.2483617384429991 0  0.948637267757575 0.2484887100825003 0  1.012907841796037 0.2487241697524198 0  0 0.3125 0  0.06283844319457471 0.3123731107621289 0  0.1256886790559955 0.3122427859061853 0  0.1885629059981805 0.312105628803696 0  0.2514739442357577 0.311958430712606 0  0.3144355529483475 0.3117983483717884 0  0.3774627474301681 0.3116231986226797 0  0.4405721163263467 0.3114319314054896 0  0.5037821335910112 0.3112253610892233 0  0.5671134380627721 0.3110072549070145 0  0.6305889858476577 0.3107858852704721 0  0.6942338012312949 0.3105761231246633 0  0.7580736416479822 0.3104020248782082 0  0.8221311192270648 0.31029954161742 0  0.8864168367928117 0.3103183245427398 0  0.9509133327061599 0.3105206337097503 0  1.015555698978494 0.3109746917832707 0  0 0.375 0  0.06287975545540812 0.374854828430397 0  0.1257731157017108 0.3747052564287588 0  0.1886941715372489 0.3745468685071717 0  0.2516578155741088 0.3743753219760277 0  0.3146801572822145 0.3741864710253327 0  0.3777789464751435 0.3739766207940395 0  0.4409740073733689 0.3737429937448614 0  0.504287680373569 0.3734845316274705 0  0.5677452511298894 0.3732032151293374 0  0.63137529522408 0.3729061592731961 0  0.6952097391191804 0.3726088197815312 0  0.7592831727531952 0.3723396675763669 0  0.8236305246501218 0.3721465154656998 0  0.8882818747864817 0.3721040610660084 0  0.9532539862374682 0.3723209053599897 0  1.018542445006923 0.3729425742469916 0  0 0.4375 0  0.06290751608228851 0.4373409464157423 0  0.1258300773446381 0.4371765012648734 0  0.1887832866292695 0.4370011759131439 0  0.251783739903495 0.4368093660609093 0  0.3148495519885577 0.4365953681149985 0  0.3780009127369944 0.4363535142864572 0  0.4412606918402365 0.4360785176278638 0  0.5046551218567027 0.4357661799900854 0  0.5682146090241537 0.4354147179714587 0  0.6319747495192587 0.43502712357176 0  0.6959776549342269 0.4346152122854581 0  0.7602736872490898 0.4342062976715941 0  0.8249236349035048 0.4338536126237725 0  0.8900012733558589 0.4336512294772398 0  0.9555965920838007 0.4337525929977776 0  1.021822401307884 0.4343889736253425 0  0 0.5 0  0.06292026566691672 0.499832443690816 0  0.1258565475733618 0.4996585695749102 0  0.1888254770328137 0.4994718582298835 0  0.2518448671730144 0.4992654234020287 0  0.3149343528378249 0.4990318673526976 0  0.3781160920559627 0.498763210518915 0  0.4414155718179401 0.4984509732180024 0  0.5048625996300055 0.4980865583029326 0  0.5684926462672832 0.4976622153638248 0  0.6323488724498468 0.497173107099016 0  0.6964854732228398 0.4966214221644061 0  0.7609734427423762 0.4960241711978692 0  0.8259104343317876 0.4954272297905249 0  0.8914367849927602 0.4949287505466075 0  0.957759668791469 0.4947132032314504 0  1.025188424215985 0.4950896681520353 0  0 0.5625 0  0.06291700421661155 0.5623302276425093 0  0.1258504278006104 0.5621533947769723 0  0.1888173424979503 0.5619621246896892 0  0.2518361679210352 0.5617483888588879 0  0.3149274146450197 0.5615031633019978 0  0.3781145199769652 0.561216080364015 0  0.441424840285347 0.5608751113657751 0  0.5048909276380681 0.5604663742582364 0  0.5685523711705973 0.5599742850071804 0  0.6324588259968056 0.5593825355493883 0  0.6966755618355173 0.5586769398304696 0  0.7612941783240134 0.557852346850195 0  0.8264531691657163 0.5569280391751225 0  0.8923752194926516 0.5559793488133873 0  0.9594287390699177 0.5551943206787302 0  1.028219516399592 0.5549522224900856 0  0 0.625 0  0.06289730056033638 0.6248350177763035 0  0.1258107651546226 0.6246625477784608 0  0.1887572224714456 0.6244746803236833 0  0.2517549692097381 0.6242625815511363 0  0.3148245900893473 0.6240159442991616 0  0.3779898932908122 0.62372233164309 0  0.4412790301507968 0.6233663802472522 0  0.5047259353419293 0.6229288501515053 0  0.5683724071101283 0.6223855703657939 0  0.632271621810032 0.6217065080167449 0  0.6964950321938963 0.6208556779664629 0  0.761147182267078 0.6197939449282639 0  0.8263980151575873 0.6184903580853452 0  0.8925497504891383 0.6169564154073709 0  0.9601606043135857 0.6153311301961761 0  1.030243405060735 0.6140279513223565 0  0 0.6875 0  0.06286139479746021 0.6873472176659812 0  0.1257379692394868 0.6871869592324138 0  0.1886455512333678 0.6870112522998992 0  0.2516014869261844 0.6868109976239523 0  0.3146254989048918 0.6865752518871648 0  0.377740672775044 0.6862902994077686 0  0.4409746256642964 0.6859384013131453 0  0.5043609441735469 0.6854960721994292 0  0.5679411031469089 0.6849316882114727 0  0.6317674935593127 0.6842022006565709 0  0.6959094869818466 0.6832488232840607 0  0.7604682132046242 0.6819922342560399 0  0.8256155524209997 0.6803309986425531 0  0.8916943201080207 0.6781605504364516 0  0.9594410161474742 0.6754832708635063 0  1.03039652373219 0.6727467893354735 0  0 0.75 0  0.06281027673636731 0.7498667961114878 0  0.1256339828723793 0.7497266560325662 0  0.1884851476217647 0.7495721251426684 0  0.2513792746618062 0.7493945441184336 0  0.3143341897332718 0.7491832471104996 0  0.3773710264158954 0.7489244740991398 0  0.4405153812621868 0.7485998222240644 0  0.5037986418103839 0.7481839682344059 0  0.5672594537587109 0.7476412388852629 0  0.6309453380367376 0.746920339186104 0  0.6949150600493511 0.7459460738979997 0  0.7592453867373177 0.7446060654111637 0  0.8240582523658266 0.7427294052503637 0  0.889629040282449 0.7400564521339446 0  0.9567704585578627 0.7362390012368039 0  1.02749369099477 0.7313886220134408 0  0 0.8125 0  0.0627457218859664 0.8123932021764839 0  0.1255023689700067 0.8122805670332565 0  0.1882813810499133 0.812155782636382 0  0.251095510273513 0.8120114169829339 0  0.3139595962105847 0.8118381497261105 0  0.3768914913677255 0.8116236985803754 0  0.4399131634651772 0.811351240368404 0  0.5030519277212322 0.8109970082566836 0  0.5663415578119024 0.8105265417335683 0  0.6298225267175183 0.8098886977479818 0  0.6935396097029806 0.8090058104961948 0  0.7575337569423924 0.8077567640899951 0  0.821827587270431 0.8059455427905331 0  0.886436855419527 0.8032365291140583 0  0.951665932922295 0.799013712563075 0  1.020761619627059 0.7921347068020735 0  0 0.875 0  0.06267026845003625 0.8749253371686051 0  0.1253482787490958 0.8748464507859438 0  0.1880421594830696 0.8747587540926641 0  0.250761050124676 0.8746567944787593 0  0.3135157208410426 0.8745336475885467 0  0.3763193456775268 0.8743800542044441 0  0.4391884758309874 0.874183124965047 0  0.5021442031205783 0.8739243300633405 0  0.5652132847659727 0.8735763091473457 0  0.6284282866751364 0.8730977355164886 0  0.6918236456781169 0.8724249595273199 0  0.7554183878427417 0.8714580967391488 0  0.8191599355165368 0.8700356095789018 0  0.8827669034759092 0.867873831944673 0  0.9453629660455573 0.8643617502993667 0  1.004949643160344 0.8577142107525885 0  0 0.9375 0  0.06258712408978634 0.9374615988297911 0  0.1251782750772773 0.9374209814527865 0  0.1877776929453508 0.9373757349881027 0  0.2503901820135968 0.9373229749422867 0  0.3130214716886642 0.9372590112027005 0  0.3756786902940553 0.9371788665007948 0  0.4383710081295962 0.93707554389320
[...]
<PointData  Vectors="f_54"> 
<DataArray  type="Float64"  Name="f_54"  NumberOfComponents="3" format="ascii">0.0000000000000000e+00 0.0000000000000000e+00 0.0000000000000000e+00  0.0000000000000000e+00 0.0000000000000000e+00 0.0000000000000000e+00  0.0000000000000000e+00 0.0000000000000000e+00 0.0000000000000000e+00  0.0000000000000000e+00 0.0000000000000000e+00 0.0000000000000000e+00  0.0000000000000000e+00 0.0000000000000000e+00 0.0000000000000000e+00  0.0000000000000000e+00 0.0000000000000000e+00 0.0000000000000000e+00  0.0000000000000000e+00 0.0000000000000000e+00 0.0000000000000000e+00  0.0000000000000000e+00 0.0000000000000000e+00 0.0000000000000000e+00  0.0000000000000000e+00 0.0000000000000000e+00 0.0000000000000000e+00  0.0000000000000000e+00 0.0000000000000000e+00 0.0000000000000000e+00  0.0000000000000000e+00 0.0000000000000000e+00 0.0000000000000000e+00  0.0000000000000000e+00 0.0000000000000000e+00 0.0000000000000000e+00  0.0000000000000000e+00 0.0000000000000000e+00 0.0000000000000000e+00  0.0000000000000000e+00 0.0000000000000000e+00 0.0000000000000000e+00  0.0000000000000000e+00 0.0000000000000000e+00 0.0000000000000000e+00  0.0000000000000000e+00 0.0000000000000000e+00 0.0000000000000000e+00  0.0000000000000000e+00 0.0000000000000000e+00 0.0000000000000000e+00  0.0000000000000000e+00 0.0000000000000000e+00 0.0000000000000000e+00  4.2684023823690608e-06 -2.2812135019698760e-08 0.0000000000000000e+00  8.6750530337343805e-06 -5.0208316491347114e-08 0.0000000000000000e+00  1.3364073918058248e-05 -8.7330985556167327e-08 0.0000000000000000e+00  1.8483835873091726e-05 -1.4042874241855658e-07 0.0000000000000000e+00  2.4188693648960396e-05 -2.1745607112944763e-07 0.0000000000000000e+00  3.0640052593789083e-05 -3.2869321538139927e-07 0.0000000000000000e+00  3.8006742459396767e-05 -4.8733815856214380e-07 0.0000000000000000e+00  4.6465228727214337e-05 -7.0998218563296786e-07 0.0000000000000000e+00  5.6201838368056238e-05 -1.0168855215619160e-06 0.0000000000000000e+00  6.7423919466475784e-05 -1.4322049256160265e-06 0.0000000000000000e+00  8.0400755562921679e-05 -1.9854285548114009e-06 0.0000000000000000e+00  9.5597661593407798e-05 -2.7194598663193393e-06 0.0000000000000000e+00  1.1410520308102530e-04 -3.7261099005330579e-06 0.0000000000000000e+00  1.3904686068897372e-04 -5.2873128734788537e-06 0.0000000000000000e+00  1.8045923013472974e-04 -8.4306444522722094e-06 0.0000000000000000e+00  2.7383490204997848e-04 -1.7242386441422609e-05 0.0000000000000000e+00  0.0000000000000000e+00 0.0000000000000000e+00 0.0000000000000000e+00  8.4056322380774433e-06 -4.1090516948231254e-08 0.0000000000000000e+00  1.7087200908151163e-05 -9.0852811311547852e-08 0.0000000000000000e+00  2.6332362757877934e-05 -1.5905557579111465e-07 0.0000000000000000e+00  3.6438081749026018e-05 -2.5767474401124935e-07 0.0000000000000000e+00  4.7714477533716154e-05 -4.0212322955154340e-07 0.0000000000000000e+00  6.0487194807310296e-05 -6.1256424078056421e-07 0.0000000000000000e+00  7.5097867868044983e-05 -9.1521704420663912e-07 0.0000000000000000e+00  9.1902681398016152e-05 -1.3434312261229933e-06 0.0000000000000000e+00  1.1127038355356992e-04 -1.9381259792003398e-06 0.0000000000000000e+00  1.3358470125758470e-04 -2.7470144597525165e-06 0.0000000000000000e+00  1.5926468505839524e-04 -3.8219892681234369e-06 0.0000000000000000e+00  1.8883461019031454e-04 -5.2141613816660427e-06 0.0000000000000000e+00  2.2310307598750087e-04 -6.9644934007976168e-06 0.0000000000000000e+00  2.6349650645123192e-04 -9.0702852178786894e-06 0.0000000000000000e+00  3.1213617274748821e-04 -1.1287222870488663e-05 0.0000000000000000e+00  3.6791878080791481e-04 -1.1914606239042577e-05 0.0000000000000000e+00  0.0000000000000000e+00 0.0000000000000000e+00 0.0000000000000000e+00  1.2270659021440176e-05 -5.0753821814969307e-08 0.0000000000000000e+00  2.4951992076846982e-05 -1.1324322236973033e-07 0.0000000000000000e+00  3.8472039669804205e-05 -2.0077818237206724e-07 0.0000000000000000e+00  5.3274547661742628e-05 -3.2991492660323261e-07 0.0000000000000000e+00  6.9825639831383205e-05 -5.2234438672902689e-07 0.0000000000000000e+00  8.8618153206412398e-05 -8.0701968875776840e-07 0.0000000000000000e+00  1.1017245851587410e-04 -1.2224395237697112e-06 0.0000000000000000e+00  1.3503228558817568e-04 -1.8187718001128767e-06 0.0000000000000000e+00  1.6375375501108760e-04 -2.6590737303605949e-06 0.0000000000000000e+00  1.9688525959783780e-04 -3.8181027808781066e-06 0.0000000000000000e+00  2.3493361560130441e-04 -5.3758587629533396e-06 0.0000000000000000e+00  2.7830185480770016e-04 -7.4004623270315350e-06 0.0000000000000000e+00  3.2714371349893551e-04 -9.9098507885316898e-06 0.0000000000000000e+00  3.8093819118247734e-04 -1.2792008562286650e-05 0.0000000000000000e+00  4.3716292412484918e-04 -1.5659035167573328e-05 0.0000000000000000e+00  4.8753051653242292e-04 -1.7747606144432544e-05 0.0000000000000000e+00  0.0000000000000000e+00 0.0000000000000000e+00 0.0000000000000000e+00  1.5726319257770921e-05 -4.8770472750511701e-08 0.0000000000000000e+00  3.1992030770313138e-05 -1.1082848828805954e-07 0.0000000000000000e+00  4.9359196459196147e-05 -2.0139438006220759e-07 0.0000000000000000e+00  6.8413808540231536e-05 -3.3980336016454274e-07 0.0000000000000000e+00  8.9776429994128576e-05 -5.5204039935757536e-07 0.0000000000000000e+00  1.1410994469366038e-04 -8.7380081466272217e-07 0.0000000000000000e+00  1.4212251243758049e-04 -1.3541183221727624e-06 0.0000000000000000e+00  1.7456271845844629e-04 -2.0593486388937438e-06 0.0000000000000000e+00  2.1220197427571257e-04 -3.0767398451701767e-06 0.0000000000000000e+00  2.5579546096040094e-04 -4.5156751506893490e-06 0.0000000000000000e+00  3.0600468026910989e-04 -6.5024306071677671e-06 0.0000000000000000e+00  3.6324544662482821e-04 -9.1600932131194050e-06 0.0000000000000000e+00  4.2738048627802050e-04 -1.2557896041252718e-05 0.0000000000000000e+00  4.9708263046692447e-04 -1.6602688837589228e-05 0.0000000000000000e+00  5.6855556999935977e-04 -2.0831517250274897e-05 0.0000000000000000e+00  6.3333433107196958e-04 -2.4049119839572425e-05 0.0000000000000000e+00  0.0000000000000000e+00 0.0000000000000000e+00 0.0000000000000000e+00  1.8642772059574460e-05 -3.3643124600841139e-08 0.0000000000000000e+00  3.7943659823037468e-05 -8.0220778915323102e-08 0.0000000000000000e+00  5.8588267775285278e-05 -1.5476318936828875e-07 0.0000000000000000e+00  8.1296452634411020e-05 -2.7694161896551627e-07 0.0000000000000000e+00  1.0683843464073017e-04 -4.7413038051417862e-07 0.0000000000000000e+00  1.3604818735980518e-04 -7.8540315785444295e-07 0.0000000000000000e+00  1.6983190604149479e-04 -1.2667870047626398e-06 0.0000000000000000e+00  2.0916777537602029e-04 -1.9979770898257771e-06 0.0000000000000000e+00  2.5509054416681320e-04 -3.0903045786366742e-06 0.0000000000000000e+00  3.0864960897434451e-04 -4.6946847123316377e-06 0.0000000000000000e+00  3.7082055162965071e-04 -7.0058586600996438e-06 0.0000000000000000e+00  4.4233413700865628e-04 -1.0254287885527583e-05 0.0000000000000000e+00  5.2335986726523515e-04 -1.4667848829191913e-05 0.0000000000000000e+00  6.1294656206055398e-04 -2.0370478307547394e-05 0.0000000000000000e+00  7.0811979732481717e-04 -2.7165503334303099e-05 0.0000000000000000e+00  8.0270555796085376e-04 -3.4138270692250486e-05 0.0000000000000000e+00  0.0000000000000000e+00 0.0000000000000000e+00 0.0000000000000000e+00  2.0901744763062967e-05 -5.7890298009298413e-09 0.0000000000000000e+00  4.2565338755878210e-05 -2.2037068127931783e-08 0.0000000000000000e+00  6.5784277613543799e-05 -6.1181432155257290e-08 0.0000000000000000e+00  9.1398575858571502e-05 -1.4026418307287892e-07 0.0000000000000000e+00  1.2031792922132870e-04 -2.8422248627510747e-07 0.0000000000000000e+00  1.5354333384769424e-04 -5.3055298466963722e-07 0.0000000000000000e+00  1.9218533571855614e-04 -9.3608300552533809e-07 0.0000000000000000e+00  2.3747548120429094e-04 -1.5867805895390213e-06 0.0000000000000000e+00  2.9076490668924001e-04 -2.6116426220439931e-06 0.0000000000000000e+00  3.5349978827827020e-04 -4.2014062157180361e-06 0.0000000000000000e+00  4.2715692050695065e-04 -6.6314017840657656e-06 0.0000000000000000e+00  5.1311379914017314e-04 -1.0283776031346332e-05 0.0000000000000000e+00  6.1241853895873603e-04 -1.5654789761885327e-05 0.0000000000000000e+00  7.2542646928273381e-04 -2.3313960415680766e-05 0.0000000000000000e+00  8.5131352762895813e-04 -3.3749958006969942e-05 0.0000000000000000e+00  9.8761979599686664e-04 -4.6993559757893868e-05 0.0000000000000000e+00  0.0000000000000000e+00 0.0000000000000000e+00 0.0000000000000000e+00  2.2401625150459547e-05 3.2262843923660579e-08 0.0000000000000000e+00  4.5647918640803121e-05 5.8610048422015944e-08 0.0000000000000000e+00  7.0618459207508845e-05 7.1613938403877838e-08 0.0000000000000000e+00  9.8252834508728607e-05 6.0051652874986870e-08 0.0000000000000000e+00  1.2958209247382669e-04 5.9039267164193400e-09 0.0000000000000000e+00  1.6576089875000848e-04 -1.2031425219521787e-07 0.0000000000000000e+00  2.0809965729949644e-04 -3.6703711693917531e-07 0.0000000000000000e+00  2.5809462487620216e-04 -8.1374500495407666e-07 0.0000000000000000e+00  3.1745209304598934e-04 -1.5904452355438215e-06 0.0000000000000000e+00  3.8809986358413236e-04 -2.9085833177336118e-06 0.0000000000000000e+00  4.7217580020146680e-04 -5.1086648560147649e-06 0.0000000000000000e+00  5.7198102969875132e-04 -8.7297928888290008e-06 0.0000000000000000e+00  6.8989030669491683e-04 -1.4601669634437642e-05 0.0000000000000000e+00  8.2823916596908769e-04 -2.3944099010368392e-05 0.0000000000000000e+00  9.8928796762557032e-04 -3.8425586937799367e-05 0.0000000000000000e+00  1.1755503718045184e-03 -6.0086059621720620e-05 0.0000000000000000e+00  0.0000000000000000e+00 0.0000000000000000e+00 0.0000000000000000e+00  2.3063257937585413e-05 7.5949759458261819e-08 0.0000000000000000e+00  4.7026594132971635e-05 1.5218298203912281e-07 0.0000000000000000e+00  7.2827094294816448e-05 2.2830242111690033e-07 0.0000000000000000e+00  1.0147524746868363e-04 3.0180570579681534e-07 0.0000000000000000e+00  1.3409513243952271e-04 3.6606831963712890e-07 0.0000000000000000e+00  1.7196845329046876e-04 4.0672977610012302e-07 0.0000000000000000e+00  2.1658338012510271e-04 3.9513034665694653e-07 0.0000000000000000e+00  2.6968861911983420e-04 2.7637109286377177e-07 0.0000000000000000e+00  3.3335223442116925e-04 -5.2357531137648748e-08 0.0000000000000000e+00  4.1002354501680597e-04 -7.8089164671984480e-07 0.0000000000000000e+00  5.0259573457051801e-04 -2.2559247063242861e-06 0.0000000000000000e+00  6.1446972395965153e-04 -5.1031326714449946e-06 0.0000000000000000e+00  7.4963550878664423e-04 -1.0433171077228174e-05 0.0000000000000000e+00  9.1283900447303645e-04 -2.0169703529129420e-05 0.0000000000000000e+00  1.1100427702199264e-03 -3.7535682064416223e-05 0.0000000000000000e+00  1.3497238773703358e-03 -6.7767539432068326e-05 0.0000000000000000e+00  0.0000000000000000e+00 0.0000000000000000e+00 0.0000000000000000e+00  2.2836054928275842e-05 1.1910603217875027e-07 0.0000000000000000e+00  4.6593765513662868e-05 2.4554772540361197e-07 0.0000000000000000e+00  7.2232451040432511e-05 3.8710439067089028e-07 0.0000000000000000e+00  1.0079632491948216e-04 5.5192018866762812e-07 0.0000000000000000e+00  1.3346268931656657e-04 7.4819161993574808e-07 0.0000000000000000e+00  1.7159762480784154e-04 9.8286274439896851e-07 0.0000000000000000e+00  2.1682226216255911e-04 1.2582019674627442e-06 0.0000000000000000e+00  2.7109316331839866e-04 1.5639361722930993e-06 0.0000000000000000e+00  3.3680082969036020e-04 1.8601697307185621e-06 0.0000000000000000e+00  4.1689105723398959e-04 2.0413236711528465e-06 0.0000000000000000e+00  5.1501569867195662e-04 1.8612489436076628e-06 0.0000000000000000e+00  6.3572594513849347e-04 7.7987962278680120e-07 0.0000000000000000e+00  7.8474425913240985e-04 -2.3445295047349019e-06 0.0000000000000000e+00  9.6942618980953290e-04 -9.8514342255450634e-06 0.0000000000000000e+00  1.1997499602999903e-03 -2.6370531515277429e-05 0.0000000000000000e+00  1.4907987284657235e-03 -6.0755047678552123e-05 0.0000000000000000e+00  0.0000000000000000e+00 0.0000000000000000e+00 0.0000000000000000e+00  2.1703785043665805e-05 1.5477157220351387e-07 0.0000000000000000e+00  4.4311493212474981e-05 3.2365183083994327e-07 0.0000000000000000e+00  6.8763704674393007e-05 5.2243373515435444e-07 0.0000000000000000e+00  9.6093423250082839e-05 7.7015197284473379e-07 0.0000000000000000e+00  1.2748014700660447e-04 1.0909717939981151e-06 0.0000000000000000e+00  1.6431500779350805e-04 1.5162171790379879e-06 0.0000000000000000e+00  2.0828236200628420e-04 2.0861807831416060e-06 0.0000000000000000e+00  2.6146488634556193e-04 2.8505759694356856e-06 0.0000000000000000e+00  3.2648154585662590e-04 3.8645822086904725e-06 0.0000000000000000e+00  4.0667101500123994e-04 5.1727829694517263e-06 0.0000000000000000e+00  5.0633813245125868e-04 6.7619028102464614e-06 0.0000000000000000e+00  6.3109117311640377e-04 8.4352963046048888e-06 0.0000000000000000e+00  7.8832555342062973e-04 9.4948195670951867e-06 0.0000000000000000e+00  9.8799730200602913e-04 7.9661538152121876e-06 0.0000000000000000e+00  1.2441130589796378e-03 -1.1570693578643425e-06 0.0000000000000000e+00  1.5781986558695321e-03 -2.9492486735299135e-05 0.0000000000000000e+00  0.0000000000000000e+00 0.0000000000000000e+00 0.0000000000000000e+00  1.9689233847645841e-05 1.7631162460452488e-07 0.0000000000000000e+00  4.0221809337805230e-05 3.7194069704110177e-07 0.0000000000000000e+00  6.2474936943029982e-05 6.0898490098031102e-07 0.0000000000000000e+00  8.7419860352477301e-05 9.1545105204257237e-07 0.0000000000000000e+00  1.1617824971597485e-04 1.3293534972135039e-06 0.0000000000000000e+00  1.5009244974719920e-04 1.9043486604085441e-06 0.0000000000000000e+00  1.9081703537455631e-04 2.7177084414434762e-06 0.0000000000000000e+00  2.4044220498317057e-04 3.8816124853485393e-06 0.0000000000000000e+00  3.0166415207184496e-04 5.5586668630327399e-06 0.0000000000000000e+00  3.7802433812018774e-04 7.9813490601340860e-06 0.0000000000000000e+00  4.7424975551901106e-04 1.1469655751238932e-05 0.0000000000000000e+00  5.9674344083251042e-04 1.6420885663018634e-05 0.0000000000000000e+00  7.5431238314709579e-04 2.3173049347400606e-05 0.0000000000000000e+00  9.5933106133318333e-04 3.1396517368371135e-05 0.0000000000000000e+00  1.2299162688813037e-03 3.7980202774294269e-05 0.0000000000000000e+00  1.5948577681047184e-03 3.2271024458344810e-05 0.0000000000000000e+00  0.0000000000000000e+00 0.0000000000000000e+00 0.0000000000000000e+00  1.6856865882744638e-05 1.7867150825857249e-07 0.0000000000000000e+00  3.4452982746608072e-05 3.7914142683563573e-07 0.0000000000000000e+00  5.3556926302076533e-05 6.2665799947032391e-07 0.0000000000000000e+00  7.5025554028299347e-05 9.5412569511642598e-07 0.0000000000000000e+00  9.9858013404365053e-05 1.4077822097658313e-06 0.0000000000000000e+00  1.2926483971320533e-04 2.0555983211113527e-06 0.0000000000000000e+00  1.6476090803873954e-04 3.0003154311230608e-06 0.0000000000000000e+00  2.0829537402945099e-04 4.4003187674775199e-06 0.0000000000000000e+00  2.6243879721318705e-04 6.5038878783670905e-06 0.0000000000000000e+00  3.3065893436925938e-04 9.7066816787146387e-06 0.0000000000000000e+00  4.1773477633624985e-04 1.4650050638310806e-05 0.0000000000000000e+00  5.3038846778085704e-04 2.2389262869845451e-05 0.0000000000000000e+00  6.7827194057039060e-04 3.4660346778130798e-05 0.0000000000000000e+00  8.7558707956177529e-04 5.4125669727650610e-05 0.0000000000000000e+00  1.1441407514531767e-03 8.3166836773938181e-05 0.0000000000000000e+00  1.5238164849256325e-03 1.1091593853722048e-04 0.0000000000000000e+00  0.0000000000000000e+00 0.0000000000000000e+00 0.0000000000000000e+00  1.3312723051717513e-05 1.5950058512734563e-07 0.0000000000000000e+00  2.7220000362126701e-05 3.3981652144806011e-07 0.0000000000000000e+00  4.2339609337295928e-05 5.6524378423793390e-07 0.0000000000000000e+00  5.9363990958177021e-05 8.6799167798417603e-07 0.0000000000000000e+00  7.9106605811012762e-05 1.2942506488741043e-06 0.0000000000000000e+00  1.0256244775393961e-04 1.9134715687210272e-06 0.0000000000000000e+00  1.3099143887395406e-04 2.8332994943969934e-06 0.0000000000000000e+00  1.6603841568950642e-04 4.2244795645982593e-06 0.0000000000000000e+00  2.0991203909761179e-04 6.3637745694844202e-06 0.0000000000000000e+00  2.6566001440514415e-04 9.7108035528120619e-06 0.0000000000000000e+00  3.3760478626553779e-04 1.5052885001808839e-05 0.0000000000000000e+00  4.3205342650723454e-04 2.3798443098376741e-05 0.0000000000000000e+00  5.5849456342281164e-04 3.8629754231931080e-05 0.0000000000000000e+00  7.3170129391606387e-04 6.5108502756367273e-05 0.0000000000000000e+00  9.7518053060768623e-04 1.1589081758126653e-04 0.0000000000000000e+00  1.3132482235304061e-03 2.2026800388158670e-04 0.0000000000000000e+00  0.0000000000000000e+00 0.0000000000000000e+00 0.0000000000000000e+00  9.2010592658849163e-06 1.1985426308519959e-07 0.0000000000000000e+00  1.8818066729165367e-05 2.5600693307160236e-07 0.0000000000000000e+00  2.9282911736515541e-05 4.2756658069729292e-07 0.0000000000000000e+00  4.1081392899140531e-05 6.6011987362944429e-07 0.0000000000000000e+00  5.4786989096697673e-05 9.9077653921496577e-07 0.0000000000000000e+00  7.1105514723597964e-05 1.4759846530111078e-06 0.0000000000000000e+00  9.0937621362059584e-05 2.2042342439489253e-06 0.0000000000000000e+00  1.1547042176393070e-04 3.3173365401695997e-06 0.0000000000000000e+00  1.4631726297808487e-04 5.0468881084994889e-06 0.0000000000000000e+00  1.8573881771680726e-04 7.7781314098205022e-06 0.0000000000000000e+00  2.3700517036008545e-04 1.2165047433238492e-05 0.0000000000000000e+00  3.0501256377507574e-04 1.9349525237187464e-05 0.0000000000000000e+00  3.9741213904194417e-04 3.1435998260261996e-05 0.0000000000000000e+00  5.2711870060158036e-04 5.2823620774974440e-05 0.0000000000000000e+00  7.2059855466137361e-04 9.5388523946612918e-05 0.0000000000000000e+00  1.0557134580443919e-03 2.0206026379867296e-04 0.0000000000000000e+00  0.0000000000000000e+00 0.0000000000000000e+00 0.0000000000000000e+00  4.6976236782096553e-06 6.4249488352498722e-08 0.0000000000000000e+00  9.6088103492796610e-06 1.3742388229521898e-07 0.0000000000000000e+00  1.4955125891029777e-05 2.3000713403582702e-07 0.0000000000000000e+00  2.0986164697446807e-05 3.5610191998514944e-07 0.0000000000000000e+00  2.7997151641356186e-05 5.3625936262219305e-07 0.0000000000000000e+00  3.6352327235840273e-05 8.0186766607430504e-07 0.0000000000000000e+00  4.6517855032074171e-05 1.2022522226646888e-06 0.0000000000000000e+00  5.9110339290836978e-05 1.8163717501923054e-06 0.0000000000000000e+00  7.4971174716809337e-05 2.7720202203550791e-06 0.0000000000000000e+00  9.5283811427854977e-05 4.2760811619317822e-06 0.0000000000000000e+00  1.2175962394901141e-04 6.6554641734017515e-06 0.0000000000000000e+00  1.5691118124970410e-04 1.0379526585248686e-05 0.0000000000000000e+00  2.0429404525909250e-04 1.5888210744046523e-05 0.0000000000000000e+00  2.6771157471172804e-04 2.2405202602486684e-05 0.0000000000000000e+00  3.4445021683858392e-04 2.2907501831440538e-05 0.0000000000000000e+00  4.0371541539176088e-04 -4.8634893800007133e-06 0.0000000000000000e+00  0.0000000000000000e+00 0.0000000000000000e+00 0.0000000000000000e+00  0.0000000000000000e+00 0.0000000000000000e+00 0.0000000000000000e+00  0.0000000000000000e+00 0.0000000000000000e+00 0.0000000000000000e+00  0.0000000000000000e+00 0.0000000000000000e+00 0.0000000000000000e+00  0.0000000000000000e+00 0.0000000000000000e+00 0.0000000000000000e+00  0.0000000000000000e+00 0.0000000000000000e+00 0.0000000000000000e+00  0.0000000000000000e+00 0.0000000000000000e+00 0.0000000000000000e+00  0.0000000000000000e+00 0.0000000000000000e+00 0.0000000000000000e+00  0.0000000000000000e+00 0.0000000000000000e+00 0.0000000000000000e+00  0.0000000000000000e+00 0.0000000000000000e+00 0.0000000000000000e+00  0.0000000000000000e+00 0.00000