<?xml version="1.0"?>
<VTKFile type="UnstructuredGrid"  version="0.1"  >
<UnstructuredGrid>
<Piece  NumberOfPoints="289" NumberOfCells="512">
<Points>
<DataArray  type="Float64"  NumberOfComponents="3"  format="ascii">0 0 0  0.0625 0 0  0.125 0 0  0.1875 0 0  0.25 0 0  0.3125 0 0  0.375 0 0  0.4375 0 0  0.5 0 0  0.5625 0 0  0.625 0 0  0.6875 0 0  0.75 0 0  0.8125 0 0  0.875 0 0  0.9375 0 0  1 0 0  0 0.0625 0  0.06253992780198844 0.06249019951009176 0  0.1250815766965643 0.06248021353233089 0  0.187626761183531 0.06246986995088624 0  0.2501774809996549 0.06245902837680103 0  0.3127360315644214 0.06244760047617035 0  0.3753051400933263 0.0624355748810007 0  0.4378881476732001 0.06242304626299664 0  0.5004892789164782 0.06241024529732656 0  0.5631140941206183 0.06239756082004984 0  0.6257703575537835 0.06238553527671535 0  0.6884699341158461 0.06237479420165572 0  0.7512334198311513 0.06236582279596 0  0.8141025681330499 0.06235836129602772 0  0.8771765595005391 0.062349674584966 0  0.9407267059466269 0.06232883021389038 0  1.005594081154578 0.06225514859374422 0  0 0.125 0  0.06257813636712035 0.1249805778934153 0  0.1251596362763504 0.1249607690353041 0  0.1877480465227279 0.124940211620887 0  0.2503472784618039 0.1249186037391084 0  0.3129618244774801 0.1248957430928926 0  0.3755970214232981 0.1248715774110873 0  0.438259392416306 0.124846266179996 0  0.5009571240178483 0.1248202497464753 0  0.5637007936835147 0.1247943131493644 0  0.6265045930596644 0.124769616919045 0  0.6893885820588815 0.1247476439600942 0  0.7523831083031672 0.1247299869890836 0  0.8155375456666226 0.124717926458142 0  0.8789360178006126 0.1247121019400995 0  0.942715072579858 0.1247146260950413 0  1.007018683794542 0.1247460877718528 0  0 0.1875 0  0.06261299005219063 0.1874713380478952 0  0.1252308209301662 0.1874420592330297 0  0.1878585961536548 0.1874115793711824 0  0.2505019440228999 0.1873793944949712 0  0.3131673270590158 0.1873451372288519 0  0.3758624122362785 0.1873086522884402 0  0.4385965327321834 0.187270095232517 0  0.501381284395545 0.1872300540527329 0  0.5642313207034414 0.1871896834893799 0  0.6271654381292079 0.1871508233354588 0  0.6902080553992821 0.1871160388294361 0  0.7533910573029082 0.1870884641358923 0  0.816755197988962 0.1870712219088039 0  0.8803472277143752 0.1870659005924919 0  0.9441995214145683 0.1870683570157342 0  1.008258274928457 0.1870540047156639 0  0 0.25 0  0.06264302294882663 0.2499627115011464 0  0.1252921212432762 0.2499245382060992 0  0.1879536962740778 0.2498846294859328 0  0.250634804935652 0.2498422221129447 0  0.3133435450462292 0.2497967074486065 0  0.3760895120025894 0.249747728177183 0  0.4388843532809366 0.2496953150497526 0  0.5017424434089577 0.2496400720718812 0  0.5646816821104071 0.2495834116350255 0  0.6277243544268636 0.2495278242962355 0  0.6908978128910868 0.24947713294799 0  0.7542342770621524 0.2494366147009186 0  0.8177679227315583 0.249412756314541 0  0.8815250313559209 0.24941222524999 0  0.9454990668781063 0.2494395027607149 0  1.00960093534972 0.2494937057278097 0  0 0.3125 0  0.06266701200687662 0.3124549671425293 0  0.1253410276722096 0.3124087414020821 0  0.1880294192699679 0.3123601567554381 0  0.2507403070781452 0.312308122673869 0  0.3134830016777819 0.3122516918526883 0  0.3762685307192279 0.312190168064879 0  0.4391102796422581 0.3121232731970227 0  0.5020247658851584 0.3120513959069111 0  0.5650325306028955 0.3119759451665591 0  0.6281590363825453 0.3118998250308065 0  0.6914352359837038 0.3118280222602564 0  0.7548970092220674 0.3117682388461855 0  0.8185818101676103 0.3117313844065478 0  0.8825196552537745 0.3117315596896203 0  0.9467149455718141 0.3117849853889238 0  1.011119021974739 0.3119074122165277 0  0 0.375 0  0.06268403572826425 0.3749484132961415 0  0.1253756524171748 0.3748952924773144 0  0.1880828172468439 0.3748391120248106 0  0.2508142906376359 0.3747783854856632 0  0.3135801019144422 0.3747117183666869 0  0.3763921274453724 0.3746379084901761 0  0.4392648157550366 0.3745561218355314 0  0.5022161050010834 0.3744661832599169 0  0.5652685612385585 0.3743690353894755 0  0.6284507035717797 0.3742674317866729 0  0.6917983238663498 0.3741669318505639 0  0.7553552801477165 0.3740772307823474 0  0.8191726912215889 0.3740137419020083 0  0.8833048275894951 0.3739990796995998 0  0.9478000261082178 0.3740636009393721 0  1.01268742616098 0.3742434341789639 0  0 0.4375 0  0.06269351535151907 0.4374433904919149 0  0.1253948160325992 0.4373848911127139 0  0.1881120626827939 0.4373225904534974 0  0.2508541975990739 0.4372545522716603 0  0.3136314216552206 0.4371788338169306 0  0.3764557909302507 0.437093551208883 0  0.4393420014523206 0.4369970259226237 0  0.5023084576699679 0.4368880668023034 0  0.5653787533054502 0.4367664729307371 0  0.6285837212032541 0.4366338857293681 0  0.6919642018934828 0.4364951690933627 0  0.7555745774848499 0.436360529919506 0  0.8194868272322203 0.4362485366737035 0  0.8837943368474055 0.4361898909596992 0  0.9486141875204511 0.4362309981372824 0  1.014087169720966 0.436434888842138 0  0 0.5 0  0.06269523544651537 0.4999402527339752 0  0.1253980924589956 0.4998782765131529 0  0.1881165268658345 0.4998117801474193 0  0.2508592007243207 0.499738358158393 0  0.3136359178026454 0.4996554532978882 0  0.3764581829323817 0.4995603535373039 0  0.4393399750870532 0.4994502563409259 0  0.5022988848680453 0.4993224600702679 0  0.5653578704419173 0.4991747894397143 0  0.6285480516208892 0.4990064408858487 0  0.6919132017927418 0.4988195577174348 0  0.7555168798163654 0.4986220144794737 0  0.8194533107540062 0.4984320447623987 0  0.8838627814442447 0.4982852411824487 0  0.9489509348215959 0.4982434431832869 0  1.015009410607284 0.498402001410002 0  0 0.5625 0  0.06268934068530846 0.5624393363797316 0  0.1253858046981284 0.5623761637995631 0  0.1880967808946765 0.5623078641006846 0  0.2508302262928208 0.5622315986659772 0  0.3135950108653587 0.5621441975454714 0  0.3764013630334908 0.5620420559448162 0  0.4392615081869338 0.5619210583094308 0  0.502190679123388 0.5617765766984485 0  0.5652088475828375 0.5616036431333199 0  0.6283438497495052 0.5613975001033336 0  0.6916371606318655 0.561154934640769 0  0.7551545202619144 0.5608771703404309 0  0.819004875330403 0.5605756945722623 0  0.8833719887830073 0.5602831007077451 0  0.9485615214911622 0.5600707962848259 0  1.015059737189796 0.560070979316275 0  0 0.625 0  0.06267630645994043 0.6249409180461872 0  0.125358964303331 0.6248791553267342 0  0.1880545024954669 0.6248118760614496 0  0.2507698326805611 0.6247359175674564 0  0.313512459137901 0.624647598836813 0  0.3762907306802245 0.6245424969036413 0  0.4391141949666814 0.6244151859892424 0  0.5019941996375246 0.6242589484767671 0  0.5649450776008953 0.6240655036223617 0  0.627986684593511 0.6238248914944473 0  0.6911499838693481 0.6235258715528608 0  0.7544892552301378 0.6231577234261721 0  0.8181079537140675 0.6227155504183525 0  0.8822102687505892 0.6222136981915816 0  0.9471934850506706 0.6217155394989913 0  1.013785718374123 0.6213856601780241 0  0 0.6875 0  0.06265688397491122 0.6874451660289352 0  0.1253191539708219 0.6873876357676977 0  0.1879922811474097 0.6873245228673449 0  0.250681917696736 0.6872525296307694 0  0.3133939499451999 0.6871676847577936 0  0.3761345055009823 0.6870650048801404 0  0.4389099047359916 0.6869380411836882 0  0.5017265826441505 0.6867782620622176 0  0.564591129955249 0.6865742158405956 0  0.6275109673509106 0.6863104329502344 0  0.6904971720050485 0.6859661280866407 0  0.7535735956377571 0.6855141620316886 0  0.8168028223869427 0.6849221246066022 0  0.8803535263082899 0.6841620514314366 0  0.9446562381048306 0.6832490638040687 0  1.010693753915922 0.6823522826707337 0  0 0.75 0  0.06263202551526821 0.7499520928951942 0  0.1252683643307329 0.7499016672329946 0  0.1879133361876035 0.7498459999054136 0  0.2505712660670442 0.7497819174267443 0  0.3132463959259603 0.7497054925481151 0  0.3759426590031859 0.7496116293284126 0  0.438663216255334 0.7494934665192261 0  0.5014095998749902 0.7493414904259008 0  0.5641802507919007 0.7491421833086903 0  0.6269682582303199 0.7488759242613776 0  0.689758541018571 0.7485136828384874 0  0.7525267227679745 0.7480118125526244 0  0.8152494151784672 0.7473043006852944 0  0.8779605071516452 0.7462946122746854 0  0.9409611540553637 0.7448699577362285 0  1.00538850539752 0.7430889076887319 0  0 0.8125 0  0.06260280149161386 0.8124615191495701 0  0.1252088106863396 0.8124209063594691 0  0.1878211928964714 0.8123758383327612 0  0.2504430082465551 0.8123235655237863 0  0.3130770386334022 0.8122606142822285 0  0.3757254205104112 0.8121823645222143 0  0.4383889123464651 0.8120824171928449 0  0.5010654777859559 0.8119516095455112 0  0.5637475831716355 0.8117764322847548 0  0.6264170857260756 0.8115364013647595 0  0.6890357113766264 0.8111995155170846 0  0.751528098869734 0.8107139546524733 0  0.8137556568147477 0.8099916943258637 0  0.8754974971355555 0.8088731860360083 0  0.9365693181538279 0.8070475135272458 0  0.9979624657334082 0.8039139687717439 0  0 0.875 0  0.06257032507270245 0.87497305801866 0  0.1251427667242418 0.8749445663862158 0  0.1877193875204342 0.8749128268127013 0  0.2503021197303094 0.8748758074194863 0  0.3128925893484323 0.8748309041416309 0  0.3754917554246094 0.8747745950584001 0  0.4380991869674694 0.87470191102915 0  0.5007116194326436 0.8746055937153648 0  0.5633200403429113 0.8744747169539546 0  0.6259036710093687 0.8742923701964961 0  0.6884171613780694 0.8740316504698455 0  0.7507624287554605 0.8736483975780882 0  0.8127248191998618 0.8730666933124241 0  0.8738260036464669 0.8721437420780475 0  0.9329941350143243 0.8705572690218761 0  0.9879534856067501 0.8673270408025634 0  0 0.9375 0  0.06253569989990586 0.9374861286977103 0  0.1250724526253091 0.9374714416726235 0  0.1876112769168789 0.9374550419764591 0  0.2501531099153785 0.9374358496065148 0  0.3126987025809005 0.9374124689051245 0  0.3752484073072328 0.9373829943200144 0  0.4378017499979005 0.9373447099
[...]
<PointData  Vectors="f_54"> 
<DataArray  type="Float64"  Name="f_54"  NumberOfComponents="3" format="ascii">0.0000000000000000e+00 0.0000000000000000e+00 0.0000000000000000e+00  0.0000000000000000e+00 0.0000000000000000e+00 0.0000000000000000e+00  0.0000000000000000e+00 0.0000000000000000e+00 0.0000000000000000e+00  0.0000000000000000e+00 0.0000000000000000e+00 0.0000000000000000e+00  0.0000000000000000e+00 0.0000000000000000e+00 0.0000000000000000e+00  0.0000000000000000e+00 0.0000000000000000e+00 0.0000000000000000e+00  0.0000000000000000e+00 0.0000000000000000e+00 0.0000000000000000e+00  0.0000000000000000e+00 0.0000000000000000e+00 0.0000000000000000e+00  0.0000000000000000e+00 0.0000000000000000e+00 0.0000000000000000e+00  0.0000000000000000e+00 0.0000000000000000e+00 0.0000000000000000e+00  0.0000000000000000e+00 0.0000000000000000e+00 0.0000000000000000e+00  0.0000000000000000e+00 0.0000000000000000e+00 0.0000000000000000e+00  0.0000000000000000e+00 0.0000000000000000e+00 0.0000000000000000e+00  0.0000000000000000e+00 0.0000000000000000e+00 0.0000000000000000e+00  0.0000000000000000e+00 0.0000000000000000e+00 0.0000000000000000e+00  0.0000000000000000e+00 0.0000000000000000e+00 0.0000000000000000e+00  0.0000000000000000e+00 0.0000000000000000e+00 0.0000000000000000e+00  0.0000000000000000e+00 0.0000000000000000e+00 0.0000000000000000e+00  -4.3440966475727127e-06 -1.1518549481716825e-07 0.0000000000000000e+00  -8.8039869399326757e-06 -2.2992594440732607e-07 0.0000000000000000e+00  -1.3494827257228287e-05 -3.4325243212036496e-07 0.0000000000000000e+00  -1.8527066990417395e-05 -4.5302905480948708e-07 0.0000000000000000e+00  -2.4002297235445419e-05 -5.5526598959662923e-07 0.0000000000000000e+00  -3.0006732529839091e-05 -6.4333950398848765e-07 0.0000000000000000e+00  -3.6601357393251323e-05 -7.0715444224262390e-07 0.0000000000000000e+00  -4.3807688656235115e-05 -7.3236544380399878e-07 0.0000000000000000e+00  -5.1588155855461784e-05 -6.9988974552565862e-07 0.0000000000000000e+00  -5.9820586700461054e-05 -5.8605469328976983e-07 0.0000000000000000e+00  -6.8268200106987218e-05 -3.6361267040866503e-07 0.0000000000000000e+00  -7.6553487521778573e-05 -2.6786285573931123e-09 0.0000000000000000e+00  -8.4170400990515805e-05 5.3483919519681174e-07 0.0000000000000000e+00  -9.0671129538035192e-05 1.3364377088757448e-06 0.0000000000000000e+00  -9.6592250356283393e-05 2.7411380009698062e-06 0.0000000000000000e+00  -1.0780438232578473e-04 6.3008855540615497e-06 0.0000000000000000e+00  0.0000000000000000e+00 0.0000000000000000e+00 0.0000000000000000e+00  -8.5766404058189293e-06 -2.3092314461710750e-07 0.0000000000000000e+00  -1.7387640918979840e-05 -4.6152092513862693e-07 0.0000000000000000e+00  -2.6666739071607125e-05 -6.9046071454782756e-07 0.0000000000000000e+00  -3.6639890704336201e-05 -9.1414700040042814e-07 0.0000000000000000e+00  -4.7517880325756003e-05 -1.1253495548346606e-06 0.0000000000000000e+00  -5.9484273483421776e-05 -1.3115916482825923e-06 0.0000000000000000e+00  -7.2676710685970380e-05 -1.4533326737111728e-06 0.0000000000000000e+00  -8.7159238174490123e-05 -1.5221388351868042e-06 0.0000000000000000e+00  -1.0288310621922405e-04 -1.4793141005426200e-06 0.0000000000000000e+00  -1.1963330438942839e-04 -1.2759099533501780e-06 0.0000000000000000e+00  -1.3695797031560103e-04 -8.5569552259603779e-07 0.0000000000000000e+00  -1.5407675674905451e-04 -1.6369040623401651e-07 0.0000000000000000e+00  -1.6975662601402549e-04 8.3473756180034991e-07 0.0000000000000000e+00  -1.8209926723381341e-04 2.1087586893451604e-06 0.0000000000000000e+00  -1.8794590540996075e-04 3.4183870529205819e-06 0.0000000000000000e+00  -1.8032449405013296e-04 3.6791037408785558e-06 0.0000000000000000e+00  0.0000000000000000e+00 0.0000000000000000e+00 0.0000000000000000e+00  -1.2577673898704469e-05 -3.4704698037277680e-07 0.0000000000000000e+00  -2.5512318683502295e-05 -6.9497301724745884e-07 0.0000000000000000e+00  -3.9161494582269413e-05 -1.0432621972520292e-06 0.0000000000000000e+00  -5.3874973184192981e-05 -1.3882197308241498e-06 0.0000000000000000e+00  -6.9985886149157473e-05 -1.7209536751120310e-06 0.0000000000000000e+00  -8.7795170943125116e-05 -2.0248785960555465e-06 0.0000000000000000e+00  -1.0754626191014760e-04 -2.2726941098244142e-06 0.0000000000000000e+00  -1.2938633187203891e-04 -2.4229854482225415e-06 0.0000000000000000e+00  -1.5330964395238788e-04 -2.4169892080428249e-06 0.0000000000000000e+00  -1.7907762212527589e-04 -2.1768201687699698e-06 0.0000000000000000e+00  -2.0610850535448359e-04 -1.6078196593407492e-06 0.0000000000000000e+00  -2.3332478116940350e-04 -6.1011219767212560e-07 0.0000000000000000e+00  -2.5893251088058157e-04 8.9118971339138078e-07 0.0000000000000000e+00  -2.8006651170461622e-04 2.8800725248989752e-06 0.0000000000000000e+00  -2.9214143461457251e-04 5.1229131363755116e-06 0.0000000000000000e+00  -2.8766248381056366e-04 7.0009952783149832e-06 0.0000000000000000e+00  0.0000000000000000e+00 0.0000000000000000e+00 0.0000000000000000e+00  -1.6223456714542233e-05 -4.6230569777593615e-07 0.0000000000000000e+00  -3.2930322707359456e-05 -9.2820169472603373e-07 0.0000000000000000e+00  -5.0607460145177100e-05 -1.3996621570265623e-06 0.0000000000000000e+00  -6.9738245722662407e-05 -1.8748988507716982e-06 0.0000000000000000e+00  -9.0794846661557769e-05 -2.3458181170747414e-06 0.0000000000000000e+00  -1.1422223608888358e-04 -2.7946655346509747e-06 0.0000000000000000e+00  -1.4040991642232608e-04 -3.1896157960436570e-06 0.0000000000000000e+00  -1.6964625891604764e-04 -3.4791985412533588e-06 0.0000000000000000e+00  -2.0204912609496104e-04 -3.5858119699055978e-06 0.0000000000000000e+00  -2.3746505348917060e-04 -3.3994002221302141e-06 0.0000000000000000e+00  -2.7532760127380583e-04 -2.7740654806376849e-06 0.0000000000000000e+00  -3.1446300652805952e-04 -1.5335917964112996e-06 0.0000000000000000e+00  -3.5282712464931398e-04 5.0261814611726433e-07 0.0000000000000000e+00  -3.8715405376854416e-04 3.4535518530068677e-06 0.0000000000000000e+00  -4.1251740338625175e-04 7.2430860285467791e-06 0.0000000000000000e+00  -4.2195977555102045e-04 1.1375328718709735e-05 0.0000000000000000e+00  0.0000000000000000e+00 0.0000000000000000e+00 0.0000000000000000e+00  -1.9386874154821032e-05 -5.7394851501809319e-07 0.0000000000000000e+00  -3.9385131064829701e-05 -1.1559554091846597e-06 0.0000000000000000e+00  -6.0614420151665784e-05 -1.7524905225164295e-06 0.0000000000000000e+00  -8.3700409479163794e-05 -2.3662017591618850e-06 0.0000000000000000e+00  -1.0927145653626050e-04 -2.9931088155128641e-06 0.0000000000000000e+00  -1.3794625393384754e-04 -3.6186056898183848e-06 0.0000000000000000e+00  -1.7030762006318013e-04 -4.2117243858727579e-06 0.0000000000000000e+00  -2.0685601510267817e-04 -4.7170527554129412e-06 0.0000000000000000e+00  -2.4793448204190916e-04 -5.0437880812326937e-06 0.0000000000000000e+00  -2.9361482085083461e-04 -5.0519081537784725e-06 0.0000000000000000e+00  -3.4353351696171945e-04 -4.5368898004101469e-06 0.0000000000000000e+00  -3.9666655671613142e-04 -3.2177768672297877e-06 0.0000000000000000e+00  -4.5103774771241558e-04 -7.4017973849533492e-07 0.0000000000000000e+00  -5.0337328678817935e-04 3.2825268842716249e-06 0.0000000000000000e+00  -5.4876635525541212e-04 9.1504937060513375e-06 0.0000000000000000e+00  -5.8053975577552846e-04 1.6827988282187820e-05 0.0000000000000000e+00  0.0000000000000000e+00 0.0000000000000000e+00 0.0000000000000000e+00  -2.1939896338087484e-05 -6.7748546422947782e-07 0.0000000000000000e+00  -4.4615911281547319e-05 -1.3692451879886855e-06 0.0000000000000000e+00  -6.8779261331766462e-05 -2.0883178899919217e-06 0.0000000000000000e+00  -9.5202229984131227e-05 -2.8445797311303403e-06 0.0000000000000000e+00  -1.2468293648265727e-04 -3.6421167909965910e-06 0.0000000000000000e+00  -1.5804147801641913e-04 -4.4751021462651989e-06 0.0000000000000000e+00  -1.9610215952621258e-04 -5.3212814366098199e-06 0.0000000000000000e+00  -2.3965425080226099e-04 -6.1317923849601464e-06 0.0000000000000000e+00  -2.8938082350774718e-04 -6.8155859505815598e-06 0.0000000000000000e+00  -3.4574210320913629e-04 -7.2163512884464359e-06 0.0000000000000000e+00  -4.0879755029498847e-04 -7.0800969872093878e-06 0.0000000000000000e+00  -4.7795214143696822e-04 -6.0136948023474835e-06 0.0000000000000000e+00  -5.5162209135976045e-04 -3.4413971934241531e-06 0.0000000000000000e+00  -6.2684166264817174e-04 1.4181435096805069e-06 0.0000000000000000e+00  -6.9888451803572314e-04 9.5036448741368465e-06 0.0000000000000000e+00  -7.6104547608584502e-04 2.1704555418289514e-05 0.0000000000000000e+00  0.0000000000000000e+00 0.0000000000000000e+00 0.0000000000000000e+00  -2.3758454338138267e-05 -7.6670696903352353e-07 0.0000000000000000e+00  -4.8367147116566006e-05 -1.5553016310899384e-06 0.0000000000000000e+00  -7.4700017211823045e-05 -2.3871564800740496e-06 0.0000000000000000e+00  -1.0367223487225871e-04 -3.2819897913538531e-06 0.0000000000000000e+00  -1.3625682014925709e-04 -4.2560294177313984e-06 0.0000000000000000e+00  -1.7349461152982331e-04 -5.3186233544883984e-06 0.0000000000000000e+00  -2.1649245672439741e-04 -6.4661468728916246e-06 0.0000000000000000e+00  -2.6640144122275238e-04 -7.6713101027592449e-06 0.0000000000000000e+00  -3.2436263610929650e-04 -8.8647698739389493e-06 0.0000000000000000e+00  -3.9140235090519477e-04 -9.9041619766239949e-06 0.0000000000000000e+00  -4.6825331496272779e-04 -1.0523399222639390e-05 0.0000000000000000e+00  -5.5507590385196791e-04 -1.0253325206516745e-05 0.0000000000000000e+00  -6.5106174171980632e-04 -8.3069871856473244e-06 0.0000000000000000e+00  -7.5393217221055497e-04 -3.4371935892102228e-06 0.0000000000000000e+00  -8.5940331331440243e-04 6.1853389058011101e-06 0.0000000000000000e+00  -9.6075018133380931e-04 2.2948549093571147e-05 0.0000000000000000e+00  0.0000000000000000e+00 0.0000000000000000e+00 0.0000000000000000e+00  -2.4729820264875229e-05 -8.3404166949282604e-07 0.0000000000000000e+00  -5.0403657303644407e-05 -1.6982439049007068e-06 0.0000000000000000e+00  -7.7998965426109899e-05 -2.6233123943264226e-06 0.0000000000000000e+00  -1.0855828683402651e-04 -3.6406333699495211e-06 0.0000000000000000e+00  -1.4322094524809375e-04 -4.7819193965288700e-06 0.0000000000000000e+00  -1.8325202192098761e-04 -6.0776598958741356e-06 0.0000000000000000e+00  -2.3006465665508150e-04 -7.5532525005992735e-06 0.0000000000000000e+00  -2.8522804146149277e-04 -9.2207001736657469e-06 0.0000000000000000e+00  -3.5044752996840677e-04 -1.1061902339690882e-05 0.0000000000000000e+00  -4.2749435217994758e-04 -1.2996171920676570e-05 0.0000000000000000e+00  -5.1805056434381879e-04 -1.4818688073435613e-05 0.0000000000000000e+00  -6.2342293914717116e-04 -1.6087279194812503e-05 0.0000000000000000e+00  -7.4407735244459271e-04 -1.5923578389210387e-05 0.0000000000000000e+00  -8.7897501704621811e-04 -1.2691118898098850e-05 0.0000000000000000e+00  -1.0247828062499883e-03 -3.5473029949657120e-06 0.0000000000000000e+00  -1.1751616643473500e-03 1.6014574512787027e-05 0.0000000000000000e+00  0.0000000000000000e+00 0.0000000000000000e+00 0.0000000000000000e+00  -2.4762203274919793e-05 -8.7129557216829714e-07 0.0000000000000000e+00  -5.0530527891343098e-05 -1.7805835481127346e-06 0.0000000000000000e+00  -7.8354328801002391e-05 -2.7676787399719490e-06 0.0000000000000000e+00  -1.0937301734288162e-04 -3.8759873184165553e-06 0.0000000000000000e+00  -1.4486474372338640e-04 -5.1542190896529470e-06 0.0000000000000000e+00  -1.8629840386463794e-04 -6.6577540422208384e-06 0.0000000000000000e+00  -2.3538764678943008e-04 -8.4490028445945312e-06 0.0000000000000000e+00  -2.9414193724618831e-04 -1.0595216756647193e-05 0.0000000000000000e+00  -3.6490281119773069e-04 -1.3160273947300042e-05 0.0000000000000000e+00  -4.5034103643307291e-04 -1.6182767971899139e-05 0.0000000000000000e+00  -5.5336984686402222e-04 -1.9623673638848423e-05 0.0000000000000000e+00  -6.7689992583849789e-04 -2.3248028192935906e-05 0.0000000000000000e+00  -8.2333177704525156e-04 -2.6369017642342541e-05 0.0000000000000000e+00  -9.9368736633691679e-04 -2.7326951806787908e-05 0.0000000000000000e+00  -1.1864203272060269e-03 -2.2536609185735177e-05 0.0000000000000000e+00  -1.3963361246908271e-03 -5.0616029777385738e-06 0.0000000000000000e+00  0.0000000000000000e+00 0.0000000000000000e+00 0.0000000000000000e+00  -2.3795813499950947e-05 -8.7074431807719786e-07 0.0000000000000000e+00  -4.8616519150542058e-05 -1.7855350484088759e-06 0.0000000000000000e+00  -7.5538605047169207e-05 -2.7915158722254123e-06 0.0000000000000000e+00  -1.0575097216808556e-04 -3.9424128026853871e-06 0.0000000000000000e+00  -1.4062026028924639e-04 -5.3025515996647448e-06 0.0000000000000000e+00  -1.8176729977297302e-04 -6.9517553434634248e-06 0.0000000000000000e+00  -2.3115774117779710e-04 -8.9913642955592279e-06 0.0000000000000000e+00  -2.9120770294567121e-04 -1.1551348544217541e-05 0.0000000000000000e+00  -3.6489940909852618e-04 -1.4797564673078659e-05 0.0000000000000000e+00  -4.5588825930919938e-04 -1.8935415077118812e-05 0.0000000000000000e+00  -5.6855454453617080e-04 -2.4198075435960600e-05 0.0000000000000000e+00  -7.0789984413815522e-04 -3.0784746053341428e-05 0.0000000000000000e+00  -8.7910273600712839e-04 -3.8653395576778918e-05 0.0000000000000000e+00  -1.0864592030401315e-03 -4.6923159170202393e-05 0.0000000000000000e+00  -1.3315141387846856e-03 -5.2357526459736123e-05 0.0000000000000000e+00  -1.6108550877809501e-03 -4.6222216274159415e-05 0.0000000000000000e+00  0.0000000000000000e+00 0.0000000000000000e+00 0.0000000000000000e+00  -2.1814140764115121e-05 -8.2645221982293078e-07 0.0000000000000000e+00  -4.4618406781129701e-05 -1.6998823661598830e-06 0.0000000000000000e+00  -6.9459680889089211e-05 -2.6713601196605733e-06 0.0000000000000000e+00  -9.7512461518830840e-05 -3.8009464061925415e-06 0.0000000000000000e+00  -1.3015730505187804e-04 -5.1637062315139682e-06 0.0000000000000000e+00  -1.6907880104665823e-04 -6.8578624528471030e-06 0.0000000000000000e+00  -2.1639198421135380e-04 -9.0164103171024586e-06 0.0000000000000000e+00  -2.7480718946039709e-04 -1.1824221381199126e-05 0.0000000000000000e+00  -3.4784216457051656e-04 -1.5543790765052082e-05 0.0000000000000000e+00  -4.4008191269376029e-04 -2.0554260139154613e-05 0.0000000000000000e+00  -5.5745993615631301e-04 -2.7408834920177082e-05 0.0000000000000000e+00  -7.0746505757337901e-04 -3.6907920235963058e-05 0.0000000000000000e+00  -8.9902059284014779e-04 -5.0137844761969176e-05 0.0000000000000000e+00  -1.1414854146377970e-03 -6.8217489892701141e-05 0.0000000000000000e+00  -1.4419511186909721e-03 -9.0743810188226588e-05 0.0000000000000000e+00  -1.8012841854158968e-03 -1.1049455807858548e-04 0.0000000000000000e+00  0.0000000000000000e+00 0.0000000000000000e+00 0.0000000000000000e+00  -1.8853729361964258e-05 -7.3559277872186885e-07 0.0000000000000000e+00  -3.8602637429953155e-05 -1.5169124196497673e-06 0.0000000000000000e+00  -6.0198884018447158e-05 -2.3942289891482887e-06 0.0000000000000000e+00  -8.4725690495449839e-05 -3.4279813063123131e-06 0.0000000000000000e+00  -1.1348165695331288e-04 -4.6958846097681138e-06 0.0000000000000000e+00  -1.4809153990050962e-04 -6.3030093044025477e-06 0.0000000000000000e+00  -1.9065849212613294e-04 -8.3969126228609889e-06 0.0000000000000000e+00  -2.4397887325459293e-04 -1.1191417832627467e-05 0.0000000000000000e+00  -3.1184847661056838e-04 -1.5005706477043624e-05 0.0000000000000000e+00  -3.9949568083670541e-04 -2.0331915882064253e-05 0.0000000000000000e+00  -5.1417233606809059e-04 -2.7958634217677056e-05 0.0000000000000000e+00  -6.6588506616366522e-04 -3.9207508253604065e-05 0.0000000000000000e+00  -8.6806678233211491e-04 -5.6391592381356793e-05 0.0000000000000000e+00  -1.1374248479605847e-03 -8.3613355761607362e-05 0.0000000000000000e+00  -1.4907095072318850e-03 -1.2730015941286873e-04 0.0000000000000000e+00  -1.9360848690616911e-03 -1.8793950269415351e-04 0.0000000000000000e+00  0.0000000000000000e+00 0.0000000000000000e+00 0.0000000000000000e+00  -1.5010439831633457e-05 -5.9948466045809054e-07 0.0000000000000000e+00  -3.0759910933767458e-05 -1.2387668043456299e-06 0.0000000000000000e+00  -4.8038457718247469e-05 -1.9619334461576923e-06 0.0000000000000000e+00  -6.7755393355610811e-05 -2.8227714326850426e-06 0.0000000000000000e+00  -9.1018891277340412e-05 -3.8916747932252497e-06 0.0000000000000000e+00  -1.1924479919092038e-04 -5.2655776134674868e-06 0.0000000000000000e+00  -1.5431369721460018e-04 -7.0830104834948915e-06 0.0000000000000000e+00  -1.9880631567121732e-04 -9.5478555331488364e-06 0.0000000000000000e+00  -2.5636590067832195e-04 -1.2968429300612114e-05 0.0000000000000000e+00  -3.3226564065329966e-04 -1.7825633732146265e-05 0.0000000000000000e+00  -4.3430212764765337e-04 -2.4902756434690232e-05 0.0000000000000000e+00  -5.7418142144708621e-04 -3.5564842635092006e-05 0.0000000000000000e+00  -7.6954195188729576e-04 -5.2448381166231807e-05 0.0000000000000000e+00  -1.0463413817779030e-03 -8.1382088955224589e-05 0.0000000000000000e+00  -1.4388848830025882e-03 -1.3734733064443215e-04 0.0000000000000000e+00  -1.9664153603693121e-03 -2.6765151463008273e-04 0.0000000000000000e+00  0.0000000000000000e+00 0.0000000000000000e+00 0.0000000000000000e+00  -1.0440244393949592e-05 -4.2407116999871592e-07 0.0000000000000000e+00  -2.1408248250066888e-05 -8.7757774426303446e-07 0.0000000000000000e+00  -3.3470359724550586e-05 -1.3932818310525327e-06 0.0000000000000000e+00  -4.7284166562683164e-05 -2.0115059058445629e-06 0.0000000000000000e+00  -6.3661071147876991e-05 -2.7855300663484048e-06 0.0000000000000000e+00  -8.3654401206651800e-05 -3.7893069095836191e-06 0.0000000000000000e+00  -1.0869129900161221e-04 -5.1289008166443978e-06 0.0000000000000000e+00  -1.4077950549830229e-04 -6.9596271881749023e-06 0.0000000000000000e+00  -1.8284428649211260e-04 -9.5114261249310590e-06 0.0000000000000000e+00  -2.3929664480528513e-04 -1.3125067201177791e-05 0.0000000000000000e+00  -3.1702263082768639e-04 -1.8300732942191752e-05 0.0000000000000000e+00  -4.2715784012861739e-04 -2.5761923817754292e-05 0.0000000000000000e+00  -5.8836555515592035e-04 -3.6577750735351955e-05 0.0000000000000000e+00  -8.3312063576075070e-04 -5.2671945439952195e-05 0.0000000000000000e+00  -1.2204905388714380e-03 -7.9423731086807048e-05 0.0000000000000000e+00  -1.8649804515060333e-03 -1.3684289521416731e-04 0.0000000000000000e+00  0.0000000000000000e+00 0.0000000000000000e+00 0.0000000000000000e+00  -5.3531574895320444e-06 -2.1967234665521870e-07 0.0000000000000000e+00  -1.0981171418437716e-05 -4.5498357657925964e-07 0.0000000000000000e+00  -1.7179683776761875e-05 -7.2338178620504839e-07 0.0000000000000000e+00  -2.4293812989598605e-05 -1.0464343576190950e-06 0.0000000000000000e+00  -3.2752669070286758e-05 -1.4527543181969728e-06 0.0000000000000000e+00  -4.3118855008827650e-05 -1.9821226511968739e-06 0.0000000000000000e+00  -5.6164268003024327e-05 -2.6913727549415544e-06 0.0000000000000000e+00  -7.2992310137892739e-05 -3.6624049530755066e-06 0.0000000000000000e+00  -9.5243904244339260e-05 -5.0112187052247153e-06 0.0000000000000000e+00  -1.2545899940791450e-04 -6.8904737933347657e-06 0.0000000000000000e+00  -1.6773170922534391e-04 -9.4539051595748762e-06 0.0000000000000000e+00  -2.2890969332097050e-04 -1.2663015174778979e-05 0.0000000000000000e+00  -3.2066910421353465e-04 -1.5506765820032701e-05 0.0000000000000000e+00  -4.6210939850022700e-04 -1.3201388075718692e-05 0.0000000000000000e+00  -6.7701513724686675e-04 1.1363878202214962e-05 0.0000000000000000e+00  -9.5766212795673187e-04 1.0217117897450825e-04 0.0000000000000000e+00  0.0000000000000000e+00 0.0000000000000000e+00 0.0000000000000000e+00  0.0000000000000000e+00 0.0000000000000000e+00 0.0000000000000000e+00  0.0000000000000000e+00 0.0000000000000000e+00 0.0000000000000000e+00  0.0000000000000000e+00 0.0000000000000000e+00 0.0000000000000000e+00  0.0000000000000000e+00 0.0000000000000000e+00 0.0000000000000000e+00  0.0000000000000000e+00 0.0000000000000000e+00 0.0