<?xml version="1.0"?>
<VTKFile type="UnstructuredGrid"  version="0.1"  >
<UnstructuredGrid>
<Piece  NumberOfPoints="289" NumberOfCells="512">
<Points>
<DataArray  type="Float64"  NumberOfComponents="3"  format="ascii">0 0 0  0.0625 0 0  0.125 0 0  0.1875 0 0  0.25 0 0  0.3125 0 0  0.375 0 0  0.4375 0 0  0.5 0 0  0.5625 0 0  0.625 0 0  0.6875 0 0  0.75 0 0  0.8125 0 0  0.875 0 0  0.9375 0 0  1 0 0  0 0.0625 0  0.06258603375691142 0.06249139236597753 0  0.1251748065740331 0.06248258833515512 0  0.1877691067490389 0.06247339936158673 0  0.2503717785738298 0.06246365668098709 0  0.312985735059789 0.06245322544584187 0  0.3756139515888105 0.06244202383099424 0  0.4382594376224281 0.06243004813418525 0  0.5009251941659287 0.06241740363217856 0  0.563614195641976 0.06240433815581319 0  0.626329521582528 0.06239126941549795 0  0.6890750091532329 0.06237878403447041 0  0.7518575212260968 0.0623675531783292 0  0.8146941750690251 0.06235800684629897 0  0.8776352860218188 0.0623492243724093 0  0.9408396438307136 0.06233490749277722 0  1.004836080974119 0.06228780969974775 0  0 0.125 0  0.06266941249179536 0.1249829766557106 0  0.1253442930303207 0.1249655506416603 0  0.1880302163792791 0.1249473332888841 0  0.2507328905513971 0.1249279718963105 0  0.3134581942305665 0.1249071764077341 0  0.3762121757303147 0.1248847565874248 0  0.4390010022128574 0.1248606725597131 0  0.5018308575245017 0.1248350998827526 0  0.5647078162067205 0.1248085064271447 0  0.6276377957006063 0.1247817307058713 0  0.6906268593620352 0.1247560389569738 0  0.7536824863220242 0.1247331268574227 0  0.8168169209620796 0.1247150649435838 0  0.88005339810873 0.1247044984003542 0  0.9434285001431169 0.1247071337613355 0  1.006936197303764 0.1247467686897438 0  0 0.1875 0  0.06274739908963614 0.1874749602629623 0  0.1255029446976841 0.187449294435496 0  0.1882749595632279 0.1874223932163662 0  0.2510720102904381 0.1873936922303839 0  0.3139029886162278 0.1873627077422132 0  0.3767771353355425 0.1873290890166668 0  0.4397039806306204 0.1872926932217178 0  0.5026931710626932 0.1872536877912937 0  0.5657541528946879 0.1872126817911377 0  0.6288956826452693 0.1871708796529024 0  0.6921251179958625 0.1871302333319837 0  0.7554473035735284 0.1870935332491877 0  0.8188622319814498 0.1870642947921811 0  0.882358400223253 0.1870460310371149 0  0.9458923838147414 0.1870393589571669 0  1.00933364758096 0.1870298312404069 0  0 0.25 0  0.06281731400403813 0.249967567476662 0  0.1256453459860409 0.2499342646323744 0  0.1884950744200919 0.2498992357090608 0  0.2513778758434195 0.2498616678539846 0  0.3143056778568086 0.2498208299468244 0  0.3772910425621753 0.2497761342132715 0  0.4403471390468623 0.2497272306490269 0  0.5034875436766113 0.2496741454465923 0  0.5667257732457489 0.2496174742769371 0  0.6300743914727256 0.2495586369489619 0  0.6935433894654335 0.2495001867022708 0  0.7571372171740037 0.2494461352874076 0  0.8208491095953497 0.2494021848553655 0  0.8846498998615873 0.2493756227495303 0  0.9484666044347726 0.2493744946191168 0  1.012147340433358 0.2494064444555344 0  0 0.3125 0  0.06287658982720283 0.3124610430086406 0  0.1257662849346627 0.312420952371734 0  0.1886825507488062 0.3123786003313047 0  0.251639453842029 0.3123328856045092 0  0.3146519218649803 0.3122827666652907 0  0.3777359366307966 0.31222732253122 0  0.4409086121559551 0.3121658555554016 0  0.5041880786721601 0.3120980553183684 0  0.5675930402154246 0.3120242479578094 0  0.6311417779751261 0.3119457597459897 0  0.6948501983251687 0.3118654240643751 0  0.7587282183165367 0.3117882504245599 0  0.8227733015736977 0.3117222426023893 0  0.8869594538886491 0.311679295442958 0  0.9512203535504132 0.311676056440633 0  1.015429179376339 0.3117347448424093 0  0 0.375 0  0.06292284610576709 0.3749556501676451 0  0.1258609008084622 0.3749098928927331 0  0.188829844966249 0.3748613106495421 0  0.2518462089675841 0.3748084792739574 0  0.3149277764143654 0.3747499845666938 0  0.378093944848328 0.3746844676736471 0  0.4413660029701155 0.3746107171486851 0  0.5047672520370533 0.3745278341433519 0  0.5683228446823743 0.374435509433844 0  0.6320591216094252 0.3743344674854059 0  0.6960020728824962 0.3742271526704524 0  0.760174316173474 0.3741187517985283 0  0.8245896975775727 0.3740186534561826 0  0.8892444855649558 0.3739424130691272 0  0.9541047554571397 0.3739141751631925 0  1.019091997827909 0.3739691907833985 0  0 0.4375 0  0.06295398724978961 0.4374516621772191 0  0.1259248820536074 0.4374016490711678 0  0.1889301814606698 0.4373482522547991 0  0.2519885102773826 0.4372897068548535 0  0.3151201979375753 0.4372241790478454 0  0.378347858797458 0.4371497780250158 0  0.4416969593125277 0.4370646108445786 0  0.5051963340088714 0.4369669103228269 0  0.5688785756350517 0.4368552848882278 0  0.6327801637567242 0.4367291683081947 0  0.6969410966542937 0.4365895896089232 0  0.7614036407806141 0.4364404395528764 0  0.8262096196752042 0.4362904683789343 0  0.8913955192838598 0.4361562691031736 0  0.9569848459675684 0.4360663882876707 0  1.02297803272266 0.4360663453822429 0  0 0.5 0  0.06296832194608579 0.4999493457625749 0  0.1259547126418761 0.4998967783826577 0  0.1889779409803017 0.4998403231083704 0  0.25205818383905 0.4997778855677131 0  0.3152177881769959 0.4997071986633942 0  0.3784821006918859 0.4996257825741108 0  0.4418803862041309 0.4995309321827632 0  0.5054468546396761 0.4994197588638736 0  0.5692218156846133 0.4992893356838089 0  0.6332529811114004 0.4991370329954732 0  0.6975969374023702 0.4989611942490284 0  0.7623208074707856 0.4987623993127561 0  0.8275040778830148 0.4985456929088063 0  0.8932404143857211 0.4983242647273953 0  0.9596389605880224 0.498124947037319 0  1.02682440746182 0.4979950175455057 0  0 0.5625 0  0.06296469669197448 0.5624489372360845 0  0.1259479522246386 0.5623957833052192 0  0.1889691148494457 0.5623383549364911 0  0.2520491854235457 0.5622742799895026 0  0.3152117510824993 0.5622008962652297 0  0.3784840581387062 0.5621151450546609 0  0.4418982897820752 0.5620134641148191 0  0.5054931390927556 0.5618916944666724 0  0.5693158155831801 0.5617450347799454 0  0.6334247158348701 0.5615681149625867 0  0.6978931625541871 0.5613553329083052 0  0.7628149158358489 0.5611017314761574 0  0.8283125858911782 0.5608049173819999 0  0.8945504354153649 0.560468818649322 0  0.9617527759857546 0.5601101256266182 0  1.030227774202253 0.5597667530133912 0  0 0.625 0  0.06294263001783147 0.6249506128524445 0  0.125903522109576 0.624899048482518 0  0.188901780007937 0.6248430099266541 0  0.2519583271477457 0.6247799470085398 0  0.3150969684656931 0.6247069068958254 0  0.3783456570889187 0.6246203562765658 0  0.4417380725684483 0.624515965311879 0  0.5053156667988651 0.6243883458373755 0  0.569130429105553 0.6242307446240729 0  0.6332488147932233 0.6240347154925745 0  0.6977576807378701 0.6237898515438899 0  0.762773883400015 0.62348379609066 0  0.82846071897628 0.623103064458092 0  0.8950567451111886 0.622635846755591 0  0.9629246130439728 0.6220787849695979 0  1.032625724578625 0.6214480922892081 0  0 0.6875 0  0.06290242909683884 0.6874544569594317 0  0.1258219580896083 0.6874067718894706 0  0.1887765299789365 0.6873546639540392 0  0.2517859579953717 0.6872955528705205 0  0.3148730438225124 0.6872263708885654 0  0.378064947008728 0.6871433231291122 0  0.4413949399934637 0.6870415697133988 0  0.5049047462380274 0.686914794504628 0  0.5686477791939516 0.6867546148378076 0  0.6326938518039268 0.686549777696171 0  0.6971365014344162 0.6862850933301416 0  0.7621054531869575 0.6859401233428969 0  0.8277900287603832 0.6854879271541222 0  0.894486520736355 0.6848952070287743 0  0.9626948878149484 0.6841283794758466 0  1.033297123337642 0.6831753663863175 0  0 0.75 0  0.06284526815747841 0.7499604330333621 0  0.1257055857380313 0.7499189008932998 0  0.1885967865217228 0.7498732944955265 0  0.2515364796283973 0.749821189960969 0  0.314545131274348 0.7497596421571975 0  0.3776474148861577 0.7496849094077962 0  0.4408739726998607 0.7495920684824993 0  0.504263792624327 0.7494744590172752 0  0.5678675097998177 0.7493228647553243 0  0.6317521539072788 0.7491242889983954 0  0.6960083755530521 0.7488601044899365 0  0.7607626437034135 0.7485032506684739 0  0.826201433002721 0.7480140849241823 0  0.8926285620533825 0.7473350410222114 0  0.9606168911260762 0.7463889472794117 0  1.031380300752717 0.7451148653806774 0  0 0.8125 0  0.06277320945151858 0.8124683635436768 0  0.1255585762110833 0.81243508630757 0  0.1883689199160532 0.8123983961149924 0  0.2512185825845212 0.8123562305261743 0  0.3141243707396926 0.8123060403630391 0  0.3771067491217548 0.8122445193705339 0  0.4401914191022244 0.8121672124461978 0  0.5034114622643279 0.8120679275756315 0  0.5668102913489623 0.8119378301158338 0  0.6304457266308707 0.8117640177668091 0  0.6943956354966592 0.811527230756742 0  0.7587660049771064 0.8111980775493327 0  0.8237047301529445 0.8107305971150871 0  0.8894378814076422 0.8100508876331663 0  0.9564168311166749 0.8090380068502463 0  1.026037201897555 0.8075183389876708 0  0 0.875 0  0.06268915282688217 0.8749779242532766 0  0.1253868515695 0.8749546671301416 0  0.1881021235571093 0.8749289466344636 0  0.2508451149981388 0.8748992569875369 0  0.3136277927877873 0.8748637137272596 0  0.3764648459646427 0.8748198358398355 0  0.4393748938975696 0.8747642221331631 0  0.5023821425416855 0.8746920521100089 0  0.5655186559214163 0.8745962942286608 0  0.6288273662927094 0.8744664203794268 0  0.6923656326415484 0.8742862711300082 0  0.7562079791527178 0.8740304048388977 0  0.8204430934599888 0.8736574886795555 0  0.8851521910400955 0.8730967355980598 0  0.9503586035104331 0.8722130539030835 0  1.016202126847697 0.8706858012147599 0  0 0.9375 0  0.062596708689655 0.9374886567650519 0  0.125197826964377 0.9374766949312857 0  0.1878080183870395 0.9374634412555343 0  0.2504325409523269 0.9374481004655865 0  0.3130776242861104 0.9374296695856984 0  0.3757509604707941 0.9374068157165301 0  0.4384623723039222 0.9373776914760418 0 
[...]
<PointData  Vectors="f_54"> 
<DataArray  type="Float64"  Name="f_54"  NumberOfComponents="3" format="ascii">0.0000000000000000e+00 0.0000000000000000e+00 0.0000000000000000e+00  0.0000000000000000e+00 0.0000000000000000e+00 0.0000000000000000e+00  0.0000000000000000e+00 0.0000000000000000e+00 0.0000000000000000e+00  0.0000000000000000e+00 0.0000000000000000e+00 0.0000000000000000e+00  0.0000000000000000e+00 0.0000000000000000e+00 0.0000000000000000e+00  0.0000000000000000e+00 0.0000000000000000e+00 0.0000000000000000e+00  0.0000000000000000e+00 0.0000000000000000e+00 0.0000000000000000e+00  0.0000000000000000e+00 0.0000000000000000e+00 0.0000000000000000e+00  0.0000000000000000e+00 0.0000000000000000e+00 0.0000000000000000e+00  0.0000000000000000e+00 0.0000000000000000e+00 0.0000000000000000e+00  0.0000000000000000e+00 0.0000000000000000e+00 0.0000000000000000e+00  0.0000000000000000e+00 0.0000000000000000e+00 0.0000000000000000e+00  0.0000000000000000e+00 0.0000000000000000e+00 0.0000000000000000e+00  0.0000000000000000e+00 0.0000000000000000e+00 0.0000000000000000e+00  0.0000000000000000e+00 0.0000000000000000e+00 0.0000000000000000e+00  0.0000000000000000e+00 0.0000000000000000e+00 0.0000000000000000e+00  0.0000000000000000e+00 0.0000000000000000e+00 0.0000000000000000e+00  0.0000000000000000e+00 0.0000000000000000e+00 0.0000000000000000e+00  -4.6801893755705158e-07 -5.9688522585381809e-08 0.0000000000000000e+00  -9.2558774392154420e-07 -1.2049013765967099e-07 0.0000000000000000e+00  -1.3582317694672326e-06 -1.8349734165043362e-07 0.0000000000000000e+00  -1.7425477862103735e-06 -2.4973826932613705e-07 0.0000000000000000e+00  -2.0401303769740284e-06 -3.2018157945705475e-07 0.0000000000000000e+00  -2.1892883588107150e-06 -3.9580823117001797e-07 0.0000000000000000e+00  -2.0932094969317200e-06 -4.7781827271151096e-07 0.0000000000000000e+00  -1.6023015156059333e-06 -5.6809776446355217e-07 0.0000000000000000e+00  -4.8628966146453011e-07 -6.7017969809626932e-07 0.0000000000000000e+00  1.6137197158463671e-06 -7.9117309408673804e-07 0.0000000000000000e+00  5.2774715081574383e-06 -9.4577973085201706e-07 0.0000000000000000e+00  1.1508228973071307e-05 -1.1655767164288586e-06 0.0000000000000000e+00  2.2242167287274888e-05 -1.5241240787944657e-06 0.0000000000000000e+00  4.1796435944020274e-05 -2.2170289115351038e-06 0.0000000000000000e+00  8.1478535833863494e-05 -3.8548850323959532e-06 0.0000000000000000e+00  1.7628653948680571e-04 -8.6879351100646633e-06 0.0000000000000000e+00  0.0000000000000000e+00 0.0000000000000000e+00 0.0000000000000000e+00  -9.4760185846767961e-07 -1.1841264937072238e-07 0.0000000000000000e+00  -1.8784062120086774e-06 -2.3910488969575071e-07 0.0000000000000000e+00  -2.7681061343990862e-06 -3.6430278398673947e-07 0.0000000000000000e+00  -3.5756674739844708e-06 -4.9607412092436286e-07 0.0000000000000000e+00  -4.2319277180775324e-06 -6.3630303384143357e-07 0.0000000000000000e+00  -4.6240958041771594e-06 -7.8676830220187498e-07 0.0000000000000000e+00  -4.5738830955650435e-06 -9.4943923234088870e-07 0.0000000000000000e+00  -3.8058000641294400e-06 -1.1271935946879405e-06 0.0000000000000000e+00  -1.8997574180136687e-06 -1.3253048258072739e-06 0.0000000000000000e+00  1.7829510683727570e-06 -1.5542576329206665e-06 0.0000000000000000e+00  8.2221467233320638e-06 -1.8347173276622915e-06 0.0000000000000000e+00  1.8954511325521666e-05 -2.2055378542695706e-06 0.0000000000000000e+00  3.6468433015619506e-05 -2.7338049795393926e-06 0.0000000000000000e+00  6.4895681381158644e-05 -3.5121611997186270e-06 0.0000000000000000e+00  1.1086021545026175e-04 -4.5496428095072145e-06 0.0000000000000000e+00  1.8199234453061765e-04 -5.0340882963643213e-06 0.0000000000000000e+00  0.0000000000000000e+00 0.0000000000000000e+00 0.0000000000000000e+00  -1.4448760275818971e-06 -1.7498655378280784e-07 0.0000000000000000e+00  -2.8743510509960642e-06 -3.5352262103080625e-07 0.0000000000000000e+00  -4.2631184977233716e-06 -5.3905316792024349e-07 0.0000000000000000e+00  -5.5636417222837331e-06 -7.3472702579631920e-07 0.0000000000000000e+00  -6.6909131822828340e-06 -9.4328232118391019e-07 0.0000000000000000e+00  -7.5017503872423899e-06 -1.1670185413034777e-06 0.0000000000000000e+00  -7.7659317523479362e-06 -1.4079808910506214e-06 0.0000000000000000e+00  -7.1256277560402708e-06 -1.6685927577424287e-06 0.0000000000000000e+00  -5.0384113667409716e-06 -1.9531346328673078e-06 0.0000000000000000e+00  -6.9773540950516761e-07 -2.2706661229415930e-06 0.0000000000000000e+00  7.0758896637176112e-06 -2.6401172653722750e-06 0.0000000000000000e+00  1.9975033489745361e-05 -3.0979985978304185e-06 0.0000000000000000e+00  4.0350481817897596e-05 -3.7077268822392588e-06 0.0000000000000000e+00  7.1221940927083537e-05 -4.5665146762614932e-06 0.0000000000000000e+00  1.1564644535303112e-04 -5.8113862739594440e-06 0.0000000000000000e+00  1.7402965614889555e-04 -7.7375928676682386e-06 0.0000000000000000e+00  0.0000000000000000e+00 0.0000000000000000e+00 0.0000000000000000e+00  -1.9582077382515159e-06 -2.2812299519017760e-07 0.0000000000000000e+00  -3.9127194904784779e-06 -4.6123418697043252e-07 0.0000000000000000e+00  -5.8490487990770901e-06 -7.0415579410847360e-07 0.0000000000000000e+00  -7.7281717749965057e-06 -9.6124771707887421e-07 0.0000000000000000e+00  -9.4694286946503151e-06 -1.2361442706963057e-06 0.0000000000000000e+00  -1.0927080542183949e-05 -1.5314929007104687e-06 0.0000000000000000e+00  -1.1857617381423871e-05 -1.8487898919877737e-06 0.0000000000000000e+00  -1.1874471949535579e-05 -2.1885302210708943e-06 0.0000000000000000e+00  -1.0386816762518001e-05 -2.5510905214674112e-06 0.0000000000000000e+00  -6.5207163251761531e-06 -2.9390564345858716e-06 0.0000000000000000e+00  9.7319400387854068e-07 -3.3620351888638609e-06 0.0000000000000000e+00  1.3804553227853931e-05 -3.8451351180900908e-06 0.0000000000000000e+00  3.4157485152760039e-05 -4.4416746612038195e-06 0.0000000000000000e+00  6.4477155546834080e-05 -5.2482001086798549e-06 0.0000000000000000e+00  1.0670707841613706e-04 -6.4130000250713581e-06 0.0000000000000000e+00  1.6054597576501669e-04 -8.1012764575289216e-06 0.0000000000000000e+00  0.0000000000000000e+00 0.0000000000000000e+00 0.0000000000000000e+00  -2.4757073883136542e-06 -2.7637111127110305e-07 0.0000000000000000e+00  -4.9707848488066422e-06 -5.5940923851873414e-07 0.0000000000000000e+00  -7.4947058032540883e-06 -8.5556752372072810e-07 0.0000000000000000e+00  -1.0033896801234124e-05 -1.1706950352684827e-06 0.0000000000000000e+00  -1.2535081517800664e-05 -1.5095947121112756e-06 0.0000000000000000e+00  -1.4881795899819790e-05 -1.8754289109077861e-06 0.0000000000000000e+00  -1.6860883402521081e-05 -2.2689811851429568e-06 0.0000000000000000e+00  -1.8115321486127343e-05 -2.6878931643347194e-06 0.0000000000000000e+00  -1.8079930859302899e-05 -3.1262290192992607e-06 0.0000000000000000e+00  -1.5898637492247084e-05 -3.5751686071710010e-06 0.0000000000000000e+00  -1.0328575785033173e-05 -4.0264073760619484e-06 0.0000000000000000e+00  3.4789603780895697e-07 -4.4810160829577932e-06 0.0000000000000000e+00  1.8350702922060028e-05 -4.9679077930909308e-06 0.0000000000000000e+00  4.6266601674342734e-05 -5.5767372061196535e-06 0.0000000000000000e+00  8.6605381410296956e-05 -6.5072463022888592e-06 0.0000000000000000e+00  1.4098184851271941e-04 -8.1252215624768302e-06 0.0000000000000000e+00  0.0000000000000000e+00 0.0000000000000000e+00 0.0000000000000000e+00  -2.9742595480425090e-06 -3.1804886749751712e-07 0.0000000000000000e+00  -6.0015649162087407e-06 -6.4473569569002389e-07 0.0000000000000000e+00  -9.1278351192211646e-06 -9.8848866078365380e-07 0.0000000000000000e+00  -1.2381525600816519e-05 -1.3571023573030280e-06 0.0000000000000000e+00  -1.5759949421370047e-05 -1.7571505967800028e-06 0.0000000000000000e+00  -1.9208764958852128e-05 -2.1930412521272973e-06 0.0000000000000000e+00  -2.2591010147476214e-05 -2.6655683764062044e-06 0.0000000000000000e+00  -2.5641033534132760e-05 -3.1698550048570057e-06 0.0000000000000000e+00  -2.7897833451823836e-05 -3.6927559538942561e-06 0.0000000000000000e+00  -2.8612535817715439e-05 -4.2102929181187245e-06 0.0000000000000000e+00  -2.6627767800843213e-05 -4.6868869651157996e-06 0.0000000000000000e+00  -2.0235335769833306e-05 -5.0806442032876131e-06 0.0000000000000000e+00  -7.0356384236552090e-06 -5.3635376138612474e-06 0.0000000000000000e+00  1.6155165225049151e-05 -5.5724831801865429e-06 0.0000000000000000e+00  5.3299059417076340e-05 -5.9156868169745034e-06 0.0000000000000000e+00  1.0905597168362475e-04 -6.9630596458287636e-06 0.0000000000000000e+00  0.0000000000000000e+00 0.0000000000000000e+00 0.0000000000000000e+00  -3.4203477324055056e-06 -3.5119511391738552e-07 0.0000000000000000e+00  -6.9353434744205276e-06 -7.1328431135577847e-07 0.0000000000000000e+00  -1.0637050527976949e-05 -1.0970528353154666e-06 0.0000000000000000e+00  -1.4609659020386136e-05 -1.5128423086612069e-06 0.0000000000000000e+00  -1.8921463519855853e-05 -1.9699473654025140e-06 0.0000000000000000e+00  -2.3610795066747329e-05 -2.4754507992076067e-06 0.0000000000000000e+00  -2.8661975330193995e-05 -3.0321446466079169e-06 0.0000000000000000e+00  -3.3965384808424062e-05 -3.6350572092464275e-06 0.0000000000000000e+00  -3.9252980410045808e-05 -4.2660318097465079e-06 0.0000000000000000e+00  -4.3997174132987583e-05 -4.8860019819355062e-06 0.0000000000000000e+00  -4.7257575012018562e-05 -5.4256402073363170e-06 0.0000000000000000e+00  -4.7458424707153525e-05 -5.7781790099985464e-06 0.0000000000000000e+00  -4.2082445951876150e-05 -5.8058514751197662e-06 0.0000000000000000e+00  -2.7275862450156453e-05 -5.3873658117531631e-06 0.0000000000000000e+00  2.6340108802971474e-06 -4.5616879789909482e-06 0.0000000000000000e+00  5.5739333803672816e-05 -3.8610473411436641e-06 0.0000000000000000e+00  0.0000000000000000e+00 0.0000000000000000e+00 0.0000000000000000e+00  -3.7727781499555035e-06 -3.7357971320143482e-07 0.0000000000000000e+00  -7.6851936963699397e-06 -7.6048371803373084e-07 0.0000000000000000e+00  -1.1880254072958019e-05 -1.1741610689436611e-06 0.0000000000000000e+00  -1.6506065986715486e-05 -1.6281195543058864e-06 0.0000000000000000e+00  -2.1716053617895372e-05 -2.1355430430504193e-06 0.0000000000000000e+00  -2.7665152822307645e-05 -2.7082401746459685e-06 0.0000000000000000e+00  -3.4498352308690109e-05 -3.3543724277037239e-06 0.0000000000000000e+00  -4.2325091469175603e-05 -4.0740343647331240e-06 0.0000000000000000e+00  -5.1168158395945173e-05 -4.8512002760762253e-06 0.0000000000000000e+00  -6.0867835423571472e-05 -5.6398676963800007e-06 0.0000000000000000e+00  -7.0910113783364428e-05 -6.3418314011232610e-06 0.0000000000000000e+00  -8.0131907391541525e-05 -6.7748594543079801e-06 0.0000000000000000e+00  -8.6239887986926692e-05 -6.6371289254518152e-06 0.0000000000000000e+00  -8.5073243401043356e-05 -5.4958334387057787e-06 0.0000000000000000e+00  -6.9559374656788560e-05 -2.8814248712139522e-06 0.0000000000000000e+00  -2.8344706863955510e-05 1.3278749748702206e-06 0.0000000000000000e+00  0.0000000000000000e+00 0.0000000000000000e+00 0.0000000000000000e+00  -3.9872066518361285e-06 -3.8281535136227023e-07 0.0000000000000000e+00  -8.1563782160640494e-06 -7.8130909011243979e-07 0.0000000000000000e+00  -1.2699546120151363e-05 -1.2116563038515061e-06 0.0000000000000000e+00  -1.7828845550011111e-05 -1.6909339696015135e-06 0.0000000000000000e+00  -2.3786979575319743e-05 -2.2372735373487016e-06 0.0000000000000000e+00  -3.0857239118741544e-05 -2.8694502020762137e-06 0.0000000000000000e+00  -3.9370927050636592e-05 -3.6052866485425418e-06 0.0000000000000000e+00  -4.9706967847743872e-05 -4.4576431882450126e-06 0.0000000000000000e+00  -6.2272372843695536e-05 -5.4256290935199382e-06 0.0000000000000000e+00  -7.7440536736138286e-05 -6.4766259713476268e-06 0.0000000000000000e+00  -9.5403148152145548e-05 -7.5113242362948875e-06 0.0000000000000000e+00  -1.1585621491164546e-04 -8.2993016036901780e-06 0.0000000000000000e+00  -1.3739039164029716e-04 -8.3695306786611276e-06 0.0000000000000000e+00  -1.5640629631247940e-04 -6.8509636878704858e-06 0.0000000000000000e+00  -1.6538263185804378e-04 -2.3197837508609437e-06 0.0000000000000000e+00  -1.5047441115105835e-04 7.1062810093313433e-06 0.0000000000000000e+00  0.0000000000000000e+00 0.0000000000000000e+00 0.0000000000000000e+00  -4.0221133288906078e-06 -3.7660439666034666e-07 0.0000000000000000e+00  -8.2589802291857435e-06 -7.7077253636517284e-07 0.0000000000000000e+00  -1.2941869151780677e-05 -1.2010309104373878e-06 0.0000000000000000e+00  -1.8337028395242491e-05 -1.6879034807367894e-06 0.0000000000000000e+00  -2.4767116533578081e-05 -2.2549000880644894e-06 0.0000000000000000e+00  -3.2637218169977451e-05 -2.9293405833378141e-06 0.0000000000000000e+00  -4.2466279126821452e-05 -3.7425890217014393e-06 0.0000000000000000e+00  -5.4922864261190487e-05 -4.7286396543246703e-06 0.0000000000000000e+00  -7.0859050051622318e-05 -5.9185807477244132e-06 0.0000000000000000e+00  -9.1324091550735453e-05 -7.3253336824271612e-06 0.0000000000000000e+00  -1.1751239345907173e-04 -8.9062753161358399e-06 0.0000000000000000e+00  -1.5054407952254763e-04 -1.0477141755703763e-05 0.0000000000000000e+00  -1.9087095832602115e-04 -1.1523256907988821e-05 0.0000000000000000e+00  -2.3693798946767389e-04 -1.0812316867728270e-05 0.0000000000000000e+00  -2.8259427672496786e-04 -5.6973606858862077e-06 0.0000000000000000e+00  -3.1297718553627388e-04 8.7828929185370140e-06 0.0000000000000000e+00  0.0000000000000000e+00 0.0000000000000000e+00 0.0000000000000000e+00  -3.8455503019281771e-06 -3.5312343229114257e-07 0.0000000000000000e+00  -7.9224283920293406e-06 -7.2474022663464138e-07 0.0000000000000000e+00  -1.2483463152465882e-05 -1.1347657493538127e-06 0.0000000000000000e+00  -1.7828404053682225e-05 -1.6062304167145136e-06 0.0000000000000000e+00  -2.4335008074126826e-05 -2.1672467679463057e-06 0.0000000000000000e+00  -3.2500380402849842e-05 -2.8534710053650962e-06 0.0000000000000000e+00  -4.2997651622939413e-05 -3.7111516667510221e-06 0.0000000000000000e+00  -5.6753978506712313e-05 -4.8005754122154509e-06 0.0000000000000000e+00  -7.5055305050619333e-05 -6.1988210458369124e-06 0.0000000000000000e+00  -9.9677498249495794e-05 -7.9981240185422860e-06 0.0000000000000000e+00  -1.3302218860213185e-04 -1.0288859153541037e-05 0.0000000000000000e+00  -1.7817337629043463e-04 -1.3096046123613226e-05 0.0000000000000000e+00  -2.3862914796385343e-04 -1.6183479518392184e-05 0.0000000000000000e+00  -3.1709267776324049e-04 -1.8495389317111638e-05 0.0000000000000000e+00  -4.1206237793794872e-04 -1.6676471203667872e-05 0.0000000000000000e+00  -5.1073091376834250e-04 -1.7465012703479227e-06 0.0000000000000000e+00  0.0000000000000000e+00 0.0000000000000000e+00 0.0000000000000000e+00  -3.4416607144229807e-06 -3.1149850367056668e-07 0.0000000000000000e+00  -7.1098116395644395e-06 -6.4098860090895310e-07 0.0000000000000000e+00  -1.1254757714101277e-05 -1.0081965250498624e-06 0.0000000000000000e+00  -1.6179789495559591e-05 -1.4367652950172131e-06 0.0000000000000000e+00  -2.2278142963479843e-05 -1.9570439927683694e-06 0.0000000000000000e+00  -3.0084973759193446e-05 -2.6100900909710623e-06 0.0000000000000000e+00  -4.0353837527156912e-05 -3.4536803728658782e-06 0.0000000000000000e+00  -5.4172121836499801e-05 -4.5715376915621798e-06 0.0000000000000000e+00  -7.3137241257733614e-05 -6.0875139301423169e-06 0.0000000000000000e+00  -9.9624661308019339e-05 -8.1868073531443361e-06 0.0000000000000000e+00  -1.3718442297896229e-04 -1.1144898545265508e-05 0.0000000000000000e+00  -1.9108057879101692e-04 -1.5355372131239748e-05 0.0000000000000000e+00  -2.6885044053706137e-04 -2.1304065093227532e-05 0.0000000000000000e+00  -3.8022267133759304e-04 -2.9249464532564115e-05 0.0000000000000000e+00  -5.3401406891360613e-04 -3.7568080966229405e-05 0.0000000000000000e+00  -7.2699350439629133e-04 -3.5748419802417462e-05 0.0000000000000000e+00  0.0000000000000000e+00 0.0000000000000000e+00 0.0000000000000000e+00  -2.8157353253710755e-06 -2.5226856456292486e-07 0.0000000000000000e+00  -5.8292740668668781e-06 -5.2027587218795423e-07 0.0000000000000000e+00  -9.2610036096522363e-06 -8.2152728150133790e-07 0.0000000000000000e+00  -1.3382237137916650e-05 -1.1775927210655200e-06 0.0000000000000000e+00  -1.8552046385101073e-05 -1.6172127009964835e-06 0.0000000000000000e+00  -2.5271075165971953e-05 -2.1810778715795921e-06 0.0000000000000000e+00  -3.4264552536386710e-05 -2.9296303770509158e-06 0.0000000000000000e+00  -4.6615249500729071e-05 -3.9563314732060262e-06 0.0000000000000000e+00  -6.3982763519247933e-05 -5.4109901108691628e-06 0.0000000000000000e+00  -8.8974125156219297e-05 -7.5420606819535255e-06 0.0000000000000000e+00  -1.2578172858248674e-04 -1.0775696476081129e-05 0.0000000000000000e+00  -1.8128703111557447e-04 -1.5867935842533190e-05 0.0000000000000000e+00  -2.6691643057843295e-04 -2.4204025337536117e-05 0.0000000000000000e+00  -4.0137010850113772e-04 -3.8372364745710880e-05 0.0000000000000000e+00  -6.1225997967015628e-04 -6.2933112038849798e-05 0.0000000000000000e+00  -9.1746215256992194e-04 -1.0041407754531391e-04 0.0000000000000000e+00  0.0000000000000000e+00 0.0000000000000000e+00 0.0000000000000000e+00  -1.9965712890784619e-06 -1.7769692410797872e-07 0.0000000000000000e+00  -4.1396627694260689e-06 -3.6710243864370359e-07 0.0000000000000000e+00  -6.5934119963513138e-06 -5.8137236324705460e-07 0.0000000000000000e+00  -9.5620369948610109e-06 -8.3703054899907203e-07 0.0000000000000000e+00  -1.3319522512900059e-05 -1.1566508274702288e-06 0.0000000000000000e+00  -1.8254085039497930e-05 -1.5731430698130475e-06 0.0000000000000000e+00  -2.4938899009395787e-05 -2.1370456286753207e-06 0.0000000000000000e+00  -3.4249824035095398e-05 -2.9295135718386468e-06 0.0000000000000000e+00  -4.7569543337646710e-05 -4.0863945535858669e-06 0.0000000000000000e+00  -6.7156572438780736e-05 -5.8446922525443792e-06 0.0000000000000000e+00  -9.6842631570679115e-05 -8.6363850523900904e-06 0.0000000000000000e+00  -1.4341419978779714e-04 -1.3288890340798817e-05 0.0000000000000000e+00  -2.1948139161800272e-04 -2.1489210117138272e-05 0.0000000000000000e+00  -3.4969187126817735e-04 -3.7005615940654677e-05 0.0000000000000000e+00  -5.8477535478687213e-04 -6.9673076893469628e-05 0.0000000000000000e+00  -1.0390888448199580e-03 -1.5389875304897856e-04 0.0000000000000000e+00  0.0000000000000000e+00 0.0000000000000000e+00 0.0000000000000000e+00  -1.0352333642283058e-06 -9.1796799376821212e-08 0.0000000000000000e+00  -2.1482662253589772e-06 -1.8983365849896996e-07 0.0000000000000000e+00  -3.4264966089101451e-06 -3.0116199970204386e-07 0.0000000000000000e+00  -4.9792641263110106e-06 -4.3473251956524585e-07 0.0000000000000000e+00  -6.9542945368038708e-06 -6.0293786179411975e-07 0.0000000000000000e+00  -9.5626377463213720e-06 -8.2412011696729171e-07 0.0000000000000000e+00  -1.3118947347928247e-05 -1.1269099228067118e-06 0.0000000000000000e+00  -1.8109849532580400e-05 -1.5580794878445784e-06 0.0000000000000000e+00  -2.5315589322611578e-05 -2.1972946464564838e-06 0.0000000000000000e+00  -3.6037782859844395e-05 -3.1857560260126568e-06 0.0000000000000000e+00  -5.2551437862898126e-05 -4.7833223536167938e-06 0.0000000000000000e+00  -7.9064259522186700e-05 -7.4837659639435055e-06 0.0000000000000000e+00  -1.2390610818511255e-04 -1.2239553800628930e-05 0.0000000000000000e+00  -2.0484891277412605e-04 -2.0817069205602350e-05 0.0000000000000000e+00  -3.6187090748769781e-04 -3.5721097658172008e-05 0.0000000000000000e+00  -6.7593893872500393e-04 -5.5161652537505058e-05 0.0000000000000000e+00  0.0000000000000000e+00 0.0000000000000000e+00 0.0000000000000000e+00  0.0000000000000000e+00 0.0000000000000000e+00 0.0000000000000000e+00  0.0000000000000000e+00 0.0000000000000000e+00 0.0000000000000000e+00  0.0000000000000000e+00 0.0000000000000000e+00 0.0000000000000000e+00  0.0000000000000000e+00 0.0000000000000000e+00 0.0000000000000000e+00  0.0000000000000000e+00 0.0000000000000000e+00 0.0000000000000