<?xml version="1.0"?>
<VTKFile type="UnstructuredGrid"  version="0.1"  >
<UnstructuredGrid>
<Piece  NumberOfPoints="289" NumberOfCells="512">
<Points>
<DataArray  type="Float64"  NumberOfComponents="3"  format="ascii">0 0 0  0.0625 0 0  0.125 0 0  0.1875 0 0  0.25 0 0  0.3125 0 0  0.375 0 0  0.4375 0 0  0.5 0 0  0.5625 0 0  0.625 0 0  0.6875 0 0  0.75 0 0  0.8125 0 0  0.875 0 0  0.9375 0 0  1 0 0  0 0.0625 0  0.06253979253075874 0.06247971352025028 0  0.1250807742112637 0.0624590573170609 0  0.1876241464647425 0.06243768935284654 0  0.250171122020086 0.06241534055477747 0  0.3127229266605918 0.06239186238994705 0  0.3752807985946777 0.06236728670958097 0  0.4378459910553446 0.06234189864555222 0  0.5004197943284507 0.06231631830779519 0  0.5630036169337415 0.06229157773132917 0  0.6255992190371555 0.06226916397651049 0  0.6882093167266972 0.06225097650345275 0  0.7508390807111546 0.06223912135474009 0  0.8134997848908405 0.06223546110200594 0  0.8762173715913142 0.06224096244008366 0  0.9390496510333376 0.06225568485553807 0  1.002095270650441 0.06228694502181346 0  0 0.125 0  0.06257837206267371 0.1249597824479657 0  0.1251591306705668 0.1249187890032326 0  0.1877446947281947 0.1248762949656426 0  0.2503375223620515 0.1248317126472721 0  0.3129401252189526 0.124784683545057 0  0.3755550805511517 0.1247351978833651 0  0.4381850518091719 0.1246837458833052 0  0.5008328462959954 0.1246314968046072 0  0.5635015751212421 0.1245804851933341 0  0.6261950541731758 0.1245337537292328 0  0.6889187256876476 0.1244953533489428 0  0.7516816218715835 0.124470035076214 0  0.8145001801039351 0.1244624164922988 0  0.8774045107205962 0.124475515098132 0  0.9404451152450908 0.1245092603211994 0  1.003694914306226 0.1245608811237191 0  0 0.1875 0  0.06261455696420309 0.1874406198254163 0  0.1252326909342857 0.1873799914300211 0  0.1878580397421436 0.1873169325426106 0  0.2504943255320934 0.1872504427918574 0  0.3131453903834787 0.1871798327704687 0  0.3758152279880329 0.1871048997255015 0  0.4385080215248648 0.1870261627579458 0  0.5012282139245503 0.1869451626767552 0  0.5639806654403114 0.186864812988661 0  0.6267709987821011 0.1867897490676819 0  0.689606285438993 0.1867265450239946 0  0.7524962266849998 0.186683518279482 0  0.8154547057301899 0.1866695350189808 0  0.8785004756826335 0.1866904818539817 0  0.9416532388194174 0.1867398098331035 0  1.004920716298013 0.1867719991800788 0  0 0.25 0  0.06264717910434899 0.2499227039890598 0  0.1252990951869621 0.2498436014052431 0  0.1879605828219742 0.2497609525780199 0  0.2506366237114023 0.249673213591607 0  0.3133324123315327 0.2495791873399069 0  0.3760534137452976 0.2494782435302663 0  0.4388054182337584 0.24937063479551 0  0.5015946056298877 0.2492579348313973 0  0.5644276423267617 0.2491436138093687 0  0.6273118367405924 0.2490337342884839 0  0.6902553433210384 0.2489376747909534 0  0.7532672487812131 0.248868626260815 0  0.816356931048831 0.2488432860606006 0  0.8795311735513991 0.2488795994662738 0  0.9427865283927618 0.2489906584622671 0  1.0060957920393 0.2491735891066961 0  0 0.3125 0  0.06267509769310506 0.3124065974881626 0  0.1253560294842363 0.3123107396861903 0  0.1880487715341918 0.3122100203315333 0  0.2507595285602536 0.3121021992304661 0  0.3134948401971518 0.3119853508317084 0  0.3762616769003376 0.3118581027485437 0  0.4390675246085682 0.3117200096711226 0  0.5019204585480079 0.31157211984299 0  0.5648292024372487 0.3114178008621364 0  0.6278031460168267 0.311263889027784 0  0.6908522191454096 0.3111221894303987 0  0.7539863374307807 0.3110112376649682 0  0.817213788647441 0.3109579621204446 0  0.8805375427128708 0.3109983694008414 0  0.943948865221264 0.3111756398676173 0  1.007421191268014 0.3115334788065532 0  0 0.375 0  0.06269722248752632 0.3748929504245881 0  0.1254012716762317 0.3747827232934829 0  0.1881191669880871 0.3746661495686303 0  0.2508582563163491 0.3745401426339984 0  0.3136263757937789 0.3744018096253394 0  0.3764320019683542 0.3742486647957041 0  0.4392843954337048 0.3740790077548122 0  0.5021937355621455 0.3738925587016925 0  0.5651712424824187 0.3736914832410996 0  0.6282292639636395 0.3734819884580358 0  0.6913812479418291 0.3732767148250951 0  0.7546413902660372 0.3730981403993883 0  0.8180235265290542 0.3729830498367286 0  0.8815386592097426 0.3729876115362937 0  0.9451909425425982 0.3731915333310573 0  1.008974213746747 0.3736981226160271 0  0 0.4375 0  0.06271254971790777 0.4373824827862433 0  0.1254327631594801 0.4372610344757861 0  0.1881685507624403 0.4371316684612992 0  0.2509282667535505 0.4369903388314306 0  0.3137209345010881 0.4368329720217775 0  0.3765564746819403 0.4366555944427921 0  0.439445942651251 0.4364546278138562 0  0.5024017904179768 0.4362274704417047 0  0.5654381853520684 0.4359735580587489 0  0.6285714428072847 0.4356962144130199 0  0.6918206558931537 0.4354057673870021 0  0.7552086075657156 0.4351246001041831 0  0.8187629792678887 0.4348949158185001 0  0.8825176834378801 0.4347897039117769 0  0.9465139501710627 0.434926135682224 0  1.010801249430791 0.4354781134006673 0  0 0.5 0  0.06272021288908179 0.4998759417585943 0  0.1254487115417099 0.499747236422018 0  0.188194081465153 0.4996090976600959 0  0.2509654753562269 0.4994564869030373 0  0.3137729118022834 0.4992840222732203 0  0.3766275931583208 0.4990859515174625 0  0.4395422614408061 0.4988562525163268 0  0.5025316353520872 0.4985889805749573 0  0.5656130262236202 0.498279082828599 0  0.6288073413752727 0.4979240808459197 0  0.6921408819679711 0.4975273352961692 0  0.7556486413231377 0.4971041099702839 0  0.8193801261928123 0.4966923305564934 0  0.8834087412794621 0.4963704191918487 0  0.9478449104113239 0.4962835885141256 0  1.012851500517641 0.4966751452801866 0  0 0.5625 0  0.06271954799522006 0.5623740332160524 0  0.1254477240133784 0.5622428321645292 0  0.1881935025427854 0.562100929589581 0  0.2509665451845207 0.5619423831155941 0  0.3137775726996103 0.5617605290791282 0  0.3766387741699084 0.561547740313756 0  0.4395642830091586 0.5612952202831478 0  0.5025707879236148 0.5609929138500059 0  0.5656784437866356 0.5606297141251239 0  0.628912471519576 0.5601943496447753 0  0.6923063085209799 0.5596777575082863 0  0.7559080525081761 0.5590785983439851 0  0.8197932889490837 0.5584151749155656 0  0.8840886950456107 0.55774950175895 0  0.9490102204011663 0.5572309290858337 0  1.014914384067984 0.557160913861159 0  0 0.625 0  0.06271016893781263 0.6248773316602215 0  0.1254289634202192 0.6247490739346826 0  0.1881653900803242 0.624609315897354 0  0.2509292442430694 0.6244514543876248 0  0.3137315461987635 0.6242677842085359 0  0.3765850300414263 0.6240490113932214 0  0.4395047166309572 0.6237836688308623 0  0.5025086407248442 0.6234574318975359 0  0.5656189162808749 0.6230523854939101 0  0.6288636331679175 0.6225464380383616 0  0.692280852682988 0.6219134545536458 0  0.7559277350750802 0.6211256625888635 0  0.8199013487168869 0.6201624136698298 0  0.8843831201757815 0.6190354140779855 0  0.9497226851439319 0.6178508431039788 0  1.016569855819896 0.6169260208720843 0  0 0.6875 0  0.06269204477959466 0.6873861790820991 0  0.1253923103926404 0.6872667441957969 0  0.1881094153298943 0.687135695051983 0  0.2508528326739197 0.6869861730384444 0  0.3136333727122302 0.6868099138678101 0  0.3764637309834192 0.6865965392528574 0  0.4393591242119443 0.6863326033523678 0  0.5023380512303678 0.6860002818171635 0  0.5654232862728663 0.6855755593439185 0  0.6286434742572415 0.6850257553998281 0  0.6920365538546845 0.6843063088844386 0  0.7556587676915412 0.6833572459316629 0  0.8196097845049656 0.6821019715353046 0  0.8840997805611027 0.6804600026951049 0  0.949606265878678 0.6784181402137263 0  1.017170128446121 0.6762575482355466 0  0 0.75 0  0.06266556688322117 0.7499005890824141 0  0.1253385074826199 0.7497959434164609 0  0.1880265852753204 0.7496804187810305 0  0.2507384287766634 0.749547442503134 0  0.3134840333805848 0.7493888923833716 0  0.3762753431454371 0.7491942518013399 0  0.4391269243013358 0.7489494030270805 0  0.5020567161118988 0.7486348471609997 0  0.5650868050061896 0.7482230154848935 0  0.628244169514974 0.7476741249182117 0  0.6915616887995961 0.7469296567131357 0  0.7550816597141772 0.7459018947343335 0  0.8188722837436964 0.7444571662387562 0  0.8830974902613041 0.7423922037573985 0  0.9482702830703593 0.7394319597341641 0  1.01579861768906 0.7355744927169185 0  0 0.8125 0  0.06263159195440407 0.8124201760784739 0  0.1252692568731325 0.8123359286642922 0  0.1879194179708326 0.8122424554635603 0  0.2505892965193902 0.8121340835235701 0  0.3132873924791489 0.8120036678284654 0  0.376024063091095 0.8118417470065122 0  0.4388122149030893 0.8116352951419751 0  0.5016680720474248 0.8113658111576877 0  0.5646118365477821 0.8110063160384883 0  0.627667695761024 0.810516516088685 0  0.6908618722050164 0.8098347736079928 0  0.754216305661416 0.8088641424206575 0  0.8177366485216814 0.8074461684793457 0  0.8814146835319745 0.8053063107633813 0  0.94542012595681 0.8019295079495634 0  1.011850950915805 0.7962922685230498 0  0 0.875 0  0.06259144730186252 0.8749441286737728 0  0.1251872429350881 0.8748850466315046 0  0.1877920076058908 0.8748192511037227 0  0.2504109951896035 0.8747425620649983 0  0.3130504921058092 0.8746496444160793 0  0.3757183245152708 0.8745333236040921 0  0.438424509276331 0.8743835523674357 0  0.5011820492876579 0.8741857962693084 0  0.5640077303118507 0.8739184508254846 0  0.6269222984093425 0.8735486383346276 0  0.6899479278685355 0.8730252668872037 0  0.7530965766859508 0.8722672700614711 0  0.8163307425773202 0.8711419898198944 0  0.8794469562684701 0.8694155368237317 0  0.9417684655877592 0.8665921829462196 0  1.001535644766193 0.8612373442961992 0  0 0.9375 0  0.06254688775671521 0.9374712403301393 0  0.1250960554444491 0.93744079216837 0  0.1876499364449776 0.937406808074829 0  0.2502113256713112 0.9373670701219161 0  0.3127836187289607 0.9373187252029899 0  0.3753711335487861 0.9372579013068684 0  0.4379795585481706 0.9371791205
[...]
<PointData  Vectors="f_54"> 
<DataArray  type="Float64"  Name="f_54"  NumberOfComponents="3" format="ascii">0.0000000000000000e+00 0.0000000000000000e+00 0.0000000000000000e+00  0.0000000000000000e+00 0.0000000000000000e+00 0.0000000000000000e+00  0.0000000000000000e+00 0.0000000000000000e+00 0.0000000000000000e+00  0.0000000000000000e+00 0.0000000000000000e+00 0.0000000000000000e+00  0.0000000000000000e+00 0.0000000000000000e+00 0.0000000000000000e+00  0.0000000000000000e+00 0.0000000000000000e+00 0.0000000000000000e+00  0.0000000000000000e+00 0.0000000000000000e+00 0.0000000000000000e+00  0.0000000000000000e+00 0.0000000000000000e+00 0.0000000000000000e+00  0.0000000000000000e+00 0.0000000000000000e+00 0.0000000000000000e+00  0.0000000000000000e+00 0.0000000000000000e+00 0.0000000000000000e+00  0.0000000000000000e+00 0.0000000000000000e+00 0.0000000000000000e+00  0.0000000000000000e+00 0.0000000000000000e+00 0.0000000000000000e+00  0.0000000000000000e+00 0.0000000000000000e+00 0.0000000000000000e+00  0.0000000000000000e+00 0.0000000000000000e+00 0.0000000000000000e+00  0.0000000000000000e+00 0.0000000000000000e+00 0.0000000000000000e+00  0.0000000000000000e+00 0.0000000000000000e+00 0.0000000000000000e+00  0.0000000000000000e+00 0.0000000000000000e+00 0.0000000000000000e+00  0.0000000000000000e+00 0.0000000000000000e+00 0.0000000000000000e+00  4.7670248924178891e-06 -7.0386011265348849e-09 0.0000000000000000e+00  9.6766661571854053e-06 -1.6697352032768462e-08 0.0000000000000000e+00  1.4874869077442983e-05 -3.1898960004435045e-08 0.0000000000000000e+00  2.0507805125112114e-05 -5.6165616940077966e-08 0.0000000000000000e+00  2.6720758595146520e-05 -9.3908839194923122e-08 0.0000000000000000e+00  3.3655294609363051e-05 -1.5067611476294310e-07 0.0000000000000000e+00  4.1444124757171626e-05 -2.3328757767115653e-07 0.0000000000000000e+00  5.0203356768376967e-05 -3.4975139479219290e-07 0.0000000000000000e+00  6.0022827713938848e-05 -5.0881471091380636e-07 0.0000000000000000e+00  7.0958368916762313e-05 -7.1907039277346113e-07 0.0000000000000000e+00  8.3039319160504058e-05 -9.8797019823351153e-07 0.0000000000000000e+00  9.6333886735912021e-05 -1.3228034964051287e-06 0.0000000000000000e+00  1.1121072420529738e-04 -1.7419779422537228e-06 0.0000000000000000e+00  1.2926958227538063e-04 -2.3287428154820598e-06 0.0000000000000000e+00  1.5666339678323393e-04 -3.4558267937447551e-06 0.0000000000000000e+00  2.1649512461983556e-04 -6.7247008100622344e-06 0.0000000000000000e+00  0.0000000000000000e+00 0.0000000000000000e+00 0.0000000000000000e+00  9.3945622325722140e-06 -1.1466204677359118e-08 0.0000000000000000e+00  1.9074917026569051e-05 -2.7886877323016045e-08 0.0000000000000000e+00  2.9333787809584087e-05 -5.4821233401456423e-08 0.0000000000000000e+00  4.0465588519977888e-05 -9.9046046024232773e-08 0.0000000000000000e+00  5.2764855853387684e-05 -1.6917174213251282e-07 0.0000000000000000e+00  6.6521203584851067e-05 -2.7620763624198271e-07 0.0000000000000000e+00  8.2009369899805861e-05 -4.3395150612506706e-07 0.0000000000000000e+00  9.9472972115484070e-05 -6.5896573411222209e-07 0.0000000000000000e+00  1.1910122916670738e-04 -9.6975368878328540e-07 0.0000000000000000e+00  1.4100006952103407e-04 -1.3846017402414366e-06 0.0000000000000000e+00  1.6516456169439974e-04 -1.9174938886033887e-06 0.0000000000000000e+00  1.9147143050560878e-04 -2.5715861635829928e-06 0.0000000000000000e+00  2.1972822777777964e-04 -3.3290346517714253e-06 0.0000000000000000e+00  2.4980118147372533e-04 -4.1270556264987538e-06 0.0000000000000000e+00  2.8151209280671651e-04 -4.7485546654613661e-06 0.0000000000000000e+00  3.1165644110972345e-04 -4.1968176396258188e-06 0.0000000000000000e+00  0.0000000000000000e+00 0.0000000000000000e+00 0.0000000000000000e+00  1.3736700756403973e-05 -1.0954328054302498e-08 0.0000000000000000e+00  2.7902133986076552e-05 -2.8610137407181781e-08 0.0000000000000000e+00  4.2936036745529556e-05 -6.0562766084844573e-08 0.0000000000000000e+00  5.9283640620120741e-05 -1.1625157351444064e-07 0.0000000000000000e+00  7.7394999058386839e-05 -2.0795843770808438e-07 0.0000000000000000e+00  9.7719210248656773e-05 -3.5182291002178702e-07 0.0000000000000000e+00  1.2069105385117341e-04 -5.6872955653365121e-07 0.0000000000000000e+00  1.4670694484777278e-04 -8.8473600052106059e-07 0.0000000000000000e+00  1.7608643450955482e-04 -1.3304043237656095e-06 0.0000000000000000e+00  2.0901467748467181e-04 -1.9379375606753656e-06 0.0000000000000000e+00  2.4545950300933200e-04 -2.7343983303994693e-06 0.0000000000000000e+00  2.8505010952329740e-04 -3.7285783778122356e-06 0.0000000000000000e+00  3.2687865305060877e-04 -4.8887180661633456e-06 0.0000000000000000e+00  3.6909607273155371e-04 -6.1107299573617008e-06 0.0000000000000000e+00  4.0790715252499588e-04 -7.1985421114377582e-06 0.0000000000000000e+00  4.3502047916184393e-04 -8.0297291259582476e-06 0.0000000000000000e+00  0.0000000000000000e+00 0.0000000000000000e+00 0.0000000000000000e+00  1.7648460131657495e-05 -3.7721155331808690e-09 0.0000000000000000e+00  3.5866416831941568e-05 -1.5108500013106077e-08 0.0000000000000000e+00  5.5239070271925314e-05 -4.2713508075058696e-08 0.0000000000000000e+00  7.6364215828808346e-05 -9.7716914655973357e-08 0.0000000000000000e+00  9.9854526682190383e-05 -1.9509946067597315e-07 0.0000000000000000e+00  1.2633360447489081e-04 -3.5531122216507821e-07 0.0000000000000000e+00  1.5642235324673769e-04 -6.0599936668824987e-07 0.0000000000000000e+00  1.9071087392711126e-04 -9.8353674669782352e-07 0.0000000000000000e+00  2.2970907924933713e-04 -1.5336096565580671e-06 0.0000000000000000e+00  2.7376605733249026e-04 -2.3093412723465693e-06 0.0000000000000000e+00  3.2294242011631809e-04 -3.3641129549556953e-06 0.0000000000000000e+00  3.7680777906058281e-04 -4.7342348619173702e-06 0.0000000000000000e+00  4.3410905103719749e-04 -6.4039845175441616e-06 0.0000000000000000e+00  4.9220255731710703e-04 -8.2430637259647776e-06 0.0000000000000000e+00  5.4607074512764780e-04 -9.9052883957079825e-06 0.0000000000000000e+00  5.8679352772152572e-04 -1.0663058489226887e-05 0.0000000000000000e+00  0.0000000000000000e+00 0.0000000000000000e+00 0.0000000000000000e+00  2.0988040615931692e-05 1.0917529139945901e-08 0.0000000000000000e+00  4.2680633636174425e-05 1.4555872177250408e-08 0.0000000000000000e+00  6.5803409210941506e-05 2.3429880268933906e-09 0.0000000000000000e+00  9.1105600561558928e-05 -3.7144812147960005e-08 0.0000000000000000e+00  1.1936791007613001e-04 -1.2001746350239429e-07 0.0000000000000000e+00  1.5140394433987565e-04 -2.6938837722256187e-07 0.0000000000000000e+00  1.8805123010920990e-04 -5.1826891040576040e-07 0.0000000000000000e+00  2.3014589331246487e-04 -9.1296271957174539e-07 0.0000000000000000e+00  2.7847220968747391e-04 -1.5164578642551304e-06 0.0000000000000000e+00  3.3367393711614287e-04 -2.4103788404926980e-06 0.0000000000000000e+00  3.9610776132315082e-04 -3.6921722915034391e-06 0.0000000000000000e+00  4.6560896893550063e-04 -5.4606963358141706e-06 0.0000000000000000e+00  5.4112446999622003e-04 -7.7774973926440537e-06 0.0000000000000000e+00  6.2015240681178837e-04 -1.0582465156527016e-05 0.0000000000000000e+00  6.9793661182791236e-04 -1.3532804762247295e-05 0.0000000000000000e+00  7.6648001433983622e-04 -1.5730625125036486e-05 0.0000000000000000e+00  0.0000000000000000e+00 0.0000000000000000e+00 0.0000000000000000e+00  2.3620594291682869e-05 3.2799072571149636e-08 0.0000000000000000e+00  4.8069691508129448e-05 5.9929557107730430e-08 0.0000000000000000e+00  7.4202805702937912e-05 7.4437414293005107e-08 0.0000000000000000e+00  1.0291400031767026e-04 6.6407344678332026e-08 0.0000000000000000e+00  1.3515219667269531e-04 2.0861047331682200e-08 0.0000000000000000e+00  1.7193213984016323e-04 -8.5181234489040867e-08 0.0000000000000000e+00  2.1433615693926202e-04 -2.8686677766761166e-07 0.0000000000000000e+00  2.6350060201395871e-04 -6.3731587180581748e-07 0.0000000000000000e+00  3.2057757038736029e-04 -1.2153201308039461e-06 0.0000000000000000e+00  3.8665779905582671e-04 -2.1345329385405856e-06 0.0000000000000000e+00  4.6263452280464725e-04 -3.5519250291542649e-06 0.0000000000000000e+00  5.4898093230905203e-04 -5.6689714440842446e-06 0.0000000000000000e+00  6.4540807932395256e-04 -8.7100564047898808e-06 0.0000000000000000e+00  7.5037209147837123e-04 -1.2846085978839979e-05 0.0000000000000000e+00  8.6042276003867621e-04 -1.8005553968022667e-05 0.0000000000000000e+00  9.6944186848618025e-04 -2.3483824677736831e-05 0.0000000000000000e+00  0.0000000000000000e+00 0.0000000000000000e+00 0.0000000000000000e+00  2.5423741575552041e-05 6.0235204280318760e-08 0.0000000000000000e+00  5.1781580624222392e-05 1.1775744351670814e-07 0.0000000000000000e+00  8.0040793725421054e-05 1.6880222187640266e-07 0.0000000000000000e+00  1.1122534736560673e-04 2.0702859235984874e-07 0.0000000000000000e+00  1.4644323997990854e-04 2.2146289788771954e-07 0.0000000000000000e+00  1.8691108195786687e-04 1.9330651673987475e-07 0.0000000000000000e+00  2.3397299390857590e-04 9.0868526564435498e-08 0.0000000000000000e+00  2.8910864169477300e-04 -1.3847033659668672e-07 0.0000000000000000e+00  3.5392180293009398e-04 -5.8078965399709633e-07 0.0000000000000000e+00  4.3009606385260260e-04 -1.3745055262285372e-06 0.0000000000000000e+00  5.1929836772141870e-04 -2.7370190414642314e-06 0.0000000000000000e+00  6.2300586245066540e-04 -4.9977396373718298e-06 0.0000000000000000e+00  7.4223144801846758e-04 -8.6271069907515911e-06 0.0000000000000000e+00  8.7713748289061600e-04 -1.4229111451614727e-05 0.0000000000000000e+00  1.0265650414668459e-03 -2.2419774054294186e-05 0.0000000000000000e+00  1.1875600902146119e-03 -3.3437504130628449e-05 0.0000000000000000e+00  0.0000000000000000e+00 0.0000000000000000e+00 0.0000000000000000e+00  2.6294770424822560e-05 9.0257900274915165e-08 0.0000000000000000e+00  5.3602155752624515e-05 1.8189079157101676e-07 0.0000000000000000e+00  8.2973809982414155e-05 2.7572046900863703e-07 0.0000000000000000e+00  1.1553778883187829e-04 3.7099809228501482e-07 0.0000000000000000e+00  1.5253865171212556e-04 4.6387251879934140e-07 0.0000000000000000e+00  1.9537886691213307e-04 5.4465148907213221e-07 0.0000000000000000e+00  2.4566045766085819e-04 5.9286588791185362e-07 0.0000000000000000e+00  3.0522391005669599e-04 5.6841441687883578e-07 0.0000000000000000e+00  3.7617818967226722e-04 3.9582376629542356e-07 0.0000000000000000e+00  4.6091089851860531e-04 -6.3319754018682564e-08 0.0000000000000000e+00  5.6206135159764747e-04 -1.0574986604989990e-06 0.0000000000000000e+00  6.8243392353044188e-04 -3.0225051403491740e-06 0.0000000000000000e+00  8.2483197964629881e-04 -6.6987071603510321e-06 0.0000000000000000e+00  9.9182221650818319e-04 -1.3284331880609388e-05 0.0000000000000000e+00  1.1855264808933335e-03 -2.4575385063426455e-05 0.0000000000000000e+00  1.4077103820545253e-03 -4.2957152695981289e-05 0.0000000000000000e+00  0.0000000000000000e+00 0.0000000000000000e+00 0.0000000000000000e+00  2.6159093415901145e-05 1.1879061304428057e-07 0.0000000000000000e+00  5.3372851586620546e-05 2.4368582360682210e-07 0.0000000000000000e+00  8.2739801005487276e-05 3.8097665567082749e-07 0.0000000000000000e+00  1.1545368656674300e-04 5.3699947551750580e-07 0.0000000000000000e+00  1.5285657393300186e-04 7.1768478993825004e-07 0.0000000000000000e+00  1.9649852060289006e-04 9.2722059398035937e-07 0.0000000000000000e+00  2.4820553147538566e-04 1.1648863483959789e-06 0.0000000000000000e+00  3.1015647390111075e-04 1.4181682101887714e-06 0.0000000000000000e+00  3.8496735745412126e-04 1.6483897104018023e-06 0.0000000000000000e+00  4.7577707853998266e-04 1.7614075338511274e-06 0.0000000000000000e+00  5.8632181492144391e-04 1.5488581867692284e-06 0.0000000000000000e+00  7.2097725064505227e-04 5.7261657952941786e-07 0.0000000000000000e+00  8.8474824168496434e-04 -2.0554420655647299e-06 0.0000000000000000e+00  1.0832277847152218e-03 -8.0701675535737401e-06 0.0000000000000000e+00  1.3227220887580082e-03 -2.0700804638938610e-05 0.0000000000000000e+00  1.6112372239615702e-03 -4.5597943559997527e-05 0.0000000000000000e+00  0.0000000000000000e+00 0.0000000000000000e+00 0.0000000000000000e+00  2.4979148817110835e-05 1.4114332960264013e-07 0.0000000000000000e+00  5.1009681993778609e-05 2.9301185336809458e-07 0.0000000000000000e+00  7.9189789164547611e-05 4.6739131707379326e-07 0.0000000000000000e+00  1.1072770451971679e-04 6.7812108884650966e-07 0.0000000000000000e+00  1.4700601576316566e-04 9.4217433867265548e-07 0.0000000000000000e+00  1.8965836667184617e-04 1.2806198259969947e-06 0.0000000000000000e+00  2.4066380844178100e-04 1.7190086735332432e-06 0.0000000000000000e+00  3.0246462314384491e-04 2.2859859111460328e-06 0.0000000000000000e+00  3.7811325628514129e-04 3.0071908729125341e-06 0.0000000000000000e+00  4.7145181546660858e-04 3.8874431442619204e-06 0.0000000000000000e+00  5.8732147070090211e-04 4.8646340393379538e-06 0.0000000000000000e+00  7.3178754062078882e-04 5.6962777722091615e-06 0.0000000000000000e+00  9.1235452748913135e-04 5.6884896023573471e-06 0.0000000000000000e+00  1.1381712929242934e-03 3.0710047599068300e-06 0.0000000000000000e+00  1.4204372311453629e-03 -6.3468781056379131e-06 0.0000000000000000e+00  1.7739950469894098e-03 -3.1757185521813496e-05 0.0000000000000000e+00  0.0000000000000000e+00 0.0000000000000000e+00 0.0000000000000000e+00  2.2762584952371199e-05 1.5275905269077035e-07 0.0000000000000000e+00  4.6521090228719811e-05 3.1985151503230609e-07 0.0000000000000000e+00  7.2318472101931558e-05 5.1749425179821561e-07 0.0000000000000000e+00  1.0131526939804211e-04 7.6592857442636318e-07 0.0000000000000000e+00  1.3486095618043937e-04 1.0921522099640582e-06 0.0000000000000000e+00  1.7458302222138190e-04 1.5335903687677469e-06 0.0000000000000000e+00  2.2250286001447816e-04 2.1431241886673395e-06 0.0000000000000000e+00  2.8119050753548159e-04 2.9958590574736020e-06 0.0000000000000000e+00  3.5397386441174622e-04 4.1975971453979560e-06 0.0000000000000000e+00  4.4522112606251919e-04 5.8932495391515096e-06 0.0000000000000000e+00  5.6071505189677197e-04 8.2674066562188651e-06 0.0000000000000000e+00  7.0812873976335597e-04 1.1509323506547393e-05 0.0000000000000000e+00  8.9758940001706511e-04 1.5649408238131375e-05 0.0000000000000000e+00  1.1423003616247774e-03 1.9968584628187840e-05 0.0000000000000000e+00  1.4593763471762197e-03 2.1134927489461353e-05 0.0000000000000000e+00  1.8723597712855193e-03 8.9512183783742347e-06 0.0000000000000000e+00  0.0000000000000000e+00 0.0000000000000000e+00 0.0000000000000000e+00  1.9568344203198160e-05 1.5010364820376704e-07 0.0000000000000000e+00  4.0021668884159542e-05 3.1627359492946114e-07 0.0000000000000000e+00  6.2288847855534381e-05 5.1700908696628345e-07 0.0000000000000000e+00  8.7413725550973697e-05 7.7622058787381995e-07 0.0000000000000000e+00  1.1662705202749897e-04 1.1272399017653040e-06 0.0000000000000000e+00  1.5143959956784937e-04 1.6187518530199426e-06 0.0000000000000000e+00  1.9376872164313710e-04 2.3239985034113381e-06 0.0000000000000000e+00  2.4611638927025785e-04 3.3555104075754844e-06 0.0000000000000000e+00  3.1182552090498923e-04 4.8892637853913277e-06 0.0000000000000000e+00  3.9545388739799676e-04 7.2051500114332202e-06 0.0000000000000000e+00  5.0332019679127991e-04 1.0755743660335890e-05 0.0000000000000000e+00  6.4428916746924391e-04 1.6281417631848936e-05 0.0000000000000000e+00  8.3085322557104600e-04 2.4978851932427805e-05 0.0000000000000000e+00  1.0805051053899668e-03 3.8572945383245967e-05 0.0000000000000000e+00  1.4173473251310521e-03 5.7980811039035251e-05 0.0000000000000000e+00  1.8769336033770828e-03 7.1652368094443094e-05 0.0000000000000000e+00  0.0000000000000000e+00 0.0000000000000000e+00 0.0000000000000000e+00  1.5509248217365766e-05 1.3150924036076755e-07 0.0000000000000000e+00  3.1738644681631111e-05 2.7835502972883303e-07 0.0000000000000000e+00  4.9445420466705593e-05 4.5839682469850180e-07 0.0000000000000000e+00  6.9487359955073188e-05 6.9522811593110399e-07 0.0000000000000000e+00  9.2887234672914558e-05 1.0226135214569601e-06 0.0000000000000000e+00  1.2091857827171730e-04 1.4913279357007506e-06 0.0000000000000000e+00  1.5522630825458056e-04 2.1802617690809880e-06 0.0000000000000000e+00  1.9800357367175797e-04 3.2151339825054192e-06 0.0000000000000000e+00  2.5225979689508552e-04 4.8011530383256681e-06 0.0000000000000000e+00  3.2223823580244303e-04 7.2824960778053549e-06 0.0000000000000000e+00  4.1408088365681975e-04 1.1257081377731293e-05 0.0000000000000000e+00  5.3690179736674577e-04 1.7816258241723497e-05 0.0000000000000000e+00  7.0451579436250520e-04 2.9096617242182497e-05 0.0000000000000000e+00  9.3810802311500253e-04 4.9681192812414270e-05 0.0000000000000000e+00  1.2694556478516962e-03 9.0420390014668583e-05 0.0000000000000000e+00  1.7313920338390507e-03 1.7877747247036426e-04 0.0000000000000000e+00  0.0000000000000000e+00 0.0000000000000000e+00 0.0000000000000000e+00  1.0749948468894061e-05 9.7742988418600837e-08 0.0000000000000000e+00  2.2008501290009479e-05 2.0751900404441524e-07 0.0000000000000000e+00  3.4311109146470586e-05 3.4343821461878223e-07 0.0000000000000000e+00  4.8267809618014642e-05 5.2438881976737861e-07 0.0000000000000000e+00  6.4611821761454926e-05 7.7781166753375629e-07 0.0000000000000000e+00  8.4265509097217718e-05 1.1456137109200468e-06 0.0000000000000000e+00  1.0843538249160324e-04 1.6938898699241383e-06 0.0000000000000000e+00  1.3875554450785459e-04 2.5293884273678426e-06 0.0000000000000000e+00  1.7751335607560923e-04 3.8280321721581993e-06 0.0000000000000000e+00  2.2801856466141035e-04 5.8854434973699706e-06 0.0000000000000000e+00  2.9523142482610444e-04 9.2093871802790058e-06 0.0000000000000000e+00  3.8687865532886122e-04 1.4700243717584293e-05 0.0000000000000000e+00  5.1555147933536832e-04 2.4057157490977403e-05 0.0000000000000000e+00  7.0307614554937167e-04 4.0953244205520239e-05 0.0000000000000000e+00  9.9182254202306776e-04 7.5539337527305865e-05 0.0000000000000000e+00  1.4857311498601494e-03 1.6471327307383124e-04 0.0000000000000000e+00  0.0000000000000000e+00 0.0000000000000000e+00 0.0000000000000000e+00  5.4996713625174034e-06 5.2108701010126816e-08 0.0000000000000000e+00  1.1262292397207431e-05 1.1082434683271107e-07 0.0000000000000000e+00  1.7564845857704242e-05 1.8392192630362639e-07 0.0000000000000000e+00  2.4723894788779695e-05 2.8187890647184567e-07 0.0000000000000000e+00  3.3121591159167804e-05 4.2002545279673825e-07 0.0000000000000000e+00  4.3241340501682969e-05 6.2192176181160652e-07 0.0000000000000000e+00  5.5719800243581076e-05 9.2488285770697636e-07 0.0000000000000000e+00  7.1426545973876288e-05 1.3891433645151489e-06 0.0000000000000000e+00  9.1591549887702671e-05 2.1128735152047307e-06 0.0000000000000000e+00  1.1801739841360191e-04 3.2552779032477097e-06 0.0000000000000000e+00  1.5344397601301841e-04 5.0648390496515689e-06 0.0000000000000000e+00  2.0217859935718355e-04 7.8788302859268238e-06 0.0000000000000000e+00  2.7109059076332095e-04 1.1913802403637649e-05 0.0000000000000000e+00  3.7041208821166343e-04 1.6041710515823641e-05 0.0000000000000000e+00  5.0928605133464212e-04 1.2641359901698479e-05 0.0000000000000000e+00  6.6543224886066621e-04 -2.4501844154747824e-05 0.0000000000000000e+00  0.0000000000000000e+00 0.0000000000000000e+00 0.0000000000000000e+00  0.0000000000000000e+00 0.0000000000000000e+00 0.0000000000000000e+00  0.0000000000000000e+00 0.0000000000000000e+00 0.0000000000000000e+00  0.0000000000000000e+00 0.0000000000000000e+00 0.0000000000000000e+00  0.0000000000000000e+00 0.0000000000000000e+00 0.0000000000000000e+00  0.0000000000000000e+00 0.0000000000000000e+00 0.0000000000000000e+00  0.0000000000000000e+00 0.0000000000000000e+00 0.0000000000000000e+00  0.0000000000000000e+00 0.0000000000000000e+00 0.0000000000000000e+00  0.0000000000000000e+00 0.0000000000000000e+00 0.0000000000000000e+00  0.0000000000000000e+00 0.0000000000000000e+00 0.0000000000000000e+00  0.0000000000000000e+00 0.0000000000000000