<?xml version="1.0"?>
<VTKFile type="UnstructuredGrid"  version="0.1"  >
<UnstructuredGrid>
<Piece  NumberOfPoints="289" NumberOfCells="512">
<Points>
<DataArray  type="Float64"  NumberOfComponents="3"  format="ascii">0 0 0  0.0625 0 0  0.125 0 0  0.1875 0 0  0.25 0 0  0.3125 0 0  0.375 0 0  0.4375 0 0  0.5 0 0  0.5625 0 0  0.625 0 0  0.6875 0 0  0.75 0 0  0.8125 0 0  0.875 0 0  0.9375 0 0  1 0 0  0 0.0625 0  0.06243352321223358 0.06249491901846412 0  0.1248654894673485 0.06248973448721747 0  0.1872943997314095 0.0624843502988439 0  0.2497189075366942 0.06247868739284528 0  0.3121379361115927 0.06247269566394667 0  0.3745508488250567 0.06246636982175612 0  0.4369576972830024 0.06245977007316892 0  0.4993595783932488 0.06245304763334263 0  0.5617591443136702 0.06244647338204832 0  0.6241613359549976 0.06244046531404917 0  0.6865744751165016 0.0624356077299126 0  0.7490120155194993 0.06243265787281358 0  0.8114956837039095 0.06243256713924593 0  0.874061832073124 0.06243670020872451 0  0.9367752421747955 0.06244815977306542 0  0.9997566821644872 0.06247911590968391 0  0 0.125 0  0.06236867567801743 0.1249899407763234 0  0.1247341774606674 0.1249796665252511 0  0.1870934335169926 0.1249689757786721 0  0.2494436460659262 0.1249576984668258 0  0.3117825071512061 0.12494571852054 0  0.374108517373135 0.1249330047515584 0  0.4364214543505925 0.1249196522611918 0  0.4987230495139484 0.1249059352199624 0  0.5610179502306242 0.1248923686558632 0  0.6233150772422327 0.1248797707083095 0  0.6856295549015734 0.1248693064449386 0  0.7479855380380649 0.1248624794639611 0  0.8104205687078567 0.1248610194837155 0  0.8729926953523912 0.1248665854155225 0  0.9357926904778703 0.124880025138834 0  0.9989673903052352 0.1248982380627839 0  0 0.1875 0  0.06230708855304711 0.1874851772512712 0  0.1246092725988138 0.1874700135788454 0  0.1869017663986168 0.1874541850614258 0  0.2491801177953669 0.1874374080110138 0  0.3114404855071526 0.1874194695917398 0  0.3736800614693275 0.1874002715492077 0  0.4358977041277234 0.1873798916430753 0  0.4980948625945997 0.1873586663050108 0  0.5602768876161908 0.187337294534989 0  0.6224548422744746 0.1873169546032906 0  0.6846479407046248 0.1872994073390012 0  0.7468867457285207 0.1872870243457397 0  0.8092171985285201 0.1872826071992942 0  0.8717052691271845 0.1872886980412276 0  0.9344410492473367 0.187305643829614 0  0.9975384033498644 0.1873265549329761 0  0 0.25 0  0.06225050605339336 0.2499807548145079 0  0.124494239657141 0.2499610246550201 0  0.1867245251124522 0.2499403409924281 0  0.2489349920930926 0.2499182759456339 0  0.3111198614088363 0.2498944763736597 0  0.3732744073106568 0.2498687160076838 0  0.4353956787836436 0.2498409736560933 0  0.4974835791555989 0.2498115462112273 0  0.5595424172515781 0.2497812039054797 0  0.6215830435963694 0.2497513889185854 0  0.6836256498599015 0.2497244410777096 0  0.7457031942165038 0.2497037954413759 0  0.8078651315547392 0.2496940197100229 0  0.8701805191793502 0.2497004302053894 0  0.9327384266375982 0.2497278909821975 0  0.9956417985862536 0.2497786743239753 0  0 0.3125 0  0.06220080641855083 0.3124768178775028 0  0.1243928537639381 0.3124529889617429 0  0.1865674112557776 0.3124278772119463 0  0.2487159192718718 0.3124008765692911 0  0.3108302179914492 0.3123714417889383 0  0.372902969978915 0.3123391411758662 0  0.434928374027967 0.3123037432757453 0  0.4969032922961468 0.3122653535815862 0  0.5588289345956149 0.3122246213988892 0  0.6207132472735863 0.3121830386356957 0  0.6825741083584309 0.3121433453278273 0  0.7444432799050299 0.3121100284794234 0  0.8063707285758579 0.3120898292548351 0  0.8684283090420156 0.3120920311316885 0  0.9307109301876839 0.3121280816742525 0  0.9933325667083786 0.3122098633534359 0  0 0.375 0  0.06215998086165333 0.3749735284099598 0  0.1243091667302394 0.3749462361113907 0  0.1864366731707705 0.3749173016960994 0  0.2485315387079113 0.3748859102718651 0  0.3105828223595226 0.3748512722462995 0  0.3725798928373675 0.3748126649563321 0  0.434513018456452 0.374769512445259 0  0.4963744064096742 0.3747215269546586 0  0.558159885488701 0.374668947775914 0  0.6198714642877767 0.3746129287838695 0  0.6815209964512554 0.3745561414902364 0  0.7431350858979492 0.3745036627416807 0  0.8047610746601475 0.3744641723259317 0  0.8664733732460901 0.3744513296436721 0  0.9283785135269563 0.3744848308513135 0  0.9906164030381065 0.3745899915132243 0  0 0.4375 0  0.06213006270238168 0.4374710601814406 0  0.1242473684429931 0.4374411252490988 0  0.1863389074471143 0.4374091824745376 0  0.2483912366347287 0.4373741895859551 0  0.3103903697494955 0.4373350716601169 0  0.3723218290740004 0.4372907368069357 0  0.4341709708048964 0.4372401263965796 0  0.4959237558736728 0.4371823274986085 0  0.5575682217903636 0.4371167957343674 0  0.6190970166813857 0.437043770427317 0  0.6805114647338076 0.4369650146170895 0  0.7418276853839207 0.4368850760449602 0  0.8030851610476042 0.4368133093334696 0  0.8643576261123697 0.4367668211693872 0  0.9257649976199924 0.4367740685467335 0  0.9874833372034267 0.4368777209588746 0  0 0.5 0  0.06211300406932846 0.4999695871093496 0  0.1242115363484435 0.4999380214494092 0  0.1862806751091828 0.4999041118450102 0  0.2483046251565842 0.4998665920245466 0  0.3102663317593596 0.4998240868101195 0  0.3721471893496218 0.4997750866969078 0  0.4339269419001996 0.4997179420996435 0  0.4955839499214121 0.4996509010764754 0  0.557096126724377 0.4995722393332411 0  0.6184430444907969 0.4994805799411289 0  0.6796099921945087 0.499375590832946 0  0.7405951067114698 0.4992594042060613 0  0.8014209536894942 0.4991393310681949 0  0.8621517096258052 0.4990326611829519 0  0.9229156264043741 0.498974173054637 0  0.9839290316587829 0.4990255077490634 0  0 0.5625 0  0.06211050435366737 0.5624692660414289 0  0.1242052795174469 0.5624372596614668 0  0.1862679369741085 0.5624026483543644 0  0.2482807369530035 0.5623639759116197 0  0.3102238796359637 0.5623195931082687 0  0.3720747822853145 0.5622675805950592 0  0.4338073948154424 0.5622056648931271 0  0.4953916887039967 0.5621311359523971 0  0.5567936111431911 0.5620407940600545 0  0.6179760833778163 0.561931001104607 0  0.6789021184970072 0.5617980217018819 0  0.739541918480613 0.5616390844697302 0  0.799886849870235 0.5614550914873011 0  0.8599740123157462 0.56125676565252 0  0.9199240651743988 0.5610770065198408 0  0.9799885647215688 0.5609916365060629 0  0 0.625 0  0.06212380313166579 0.6249702156104986 0  0.1242313013613066 0.6249390993629689 0  0.1863053398161136 0.6249052407898893 0  0.2483269661799795 0.624867063215227 0  0.3102743939871943 0.6248227211423034 0  0.3721218058543321 0.6247699713065163 0  0.4338379685062536 0.6247060037048385 0  0.4953846891497344 0.6246272152663542 0  0.5567152833565681 0.6245289080736879 0  0.6177735403463762 0.6244049084238795 0  0.6784943364286992 0.6242471711647277 0  0.7388083557004009 0.6240456659968703 0  0.7986557094945694 0.623789522601726 0  0.8580166645902563 0.6234721569734253 0  0.9169703267659027 0.6231067589992983 0  0.9757866771803493 0.6227629292673129 0  0 0.6875 0  0.06215346009673112 0.6874724942104171 0  0.1242909263141758 0.6874436763780007 0  0.1863954206287415 0.687412144681196 0  0.2484478397840751 0.6873763045502221 0  0.3104256462555883 0.6873342435142632 0  0.3723012376368696 0.6872835647881516 0  0.4340398545384279 0.6872211524156526 0  0.4955968807102688 0.6871428235133199 0  0.5569144357518173 0.6870427924799919 0  0.6179173628971684 0.6869128212019364 0  0.6785093189583991 0.6867408614551755 0  0.7385712453014384 0.6865089759541881 0  0.7979682193458313 0.6861906762267858 0  0.8565785446530871 0.6857497617198026 0  0.9143718641710188 0.6851500353865686 0  0.971567846263816 0.6844037441595907 0  0 0.75 0  0.06219915417332601 0.749976081187842 0  0.124383657941789 0.749950960954099 0  0.1865378370776083 0.7499233474190738 0  0.2486437729470191 0.7498917529442218 0  0.3106798494534695 0.7498543643074278 0  0.3726188418609884 0.7498088664686772 0  0.434425290091516 0.7497521876556329 0  0.4960517965856674 0.7496801091870842 0  0.5574337590545236 0.7495866324009086 0  0.6184819380475105 0.7494628838799239 0  0.6790723548286113 0.7492950954829253 0  0.739033940797473 0.7490606782492762 0  0.7981380426312912 0.7487204737141059 0  0.8561058659508446 0.7482044936556324 0  0.9126837943586554 0.7473940365560943 0  0.9679019483587846 0.7461589688176182 0  0 0.8125 0  0.06225954072872505 0.8124808654887946 0  0.1245068531541243 0.8124607318305532 0  0.1867287686327437 0.8124385202309122 0  0.2489100344161214 0.8124129791247212 0  0.311031911836331 0.8123825698467372 0  0.3730702565515467 0.8123453128746364 0  0.434992745973081 0.8122985699013504 0  0.4967547250837577 0.8122387208940168 0  0.5582928138107834 0.8121606598182444 0  0.6195148741615418 0.8120569429141369 0  0.6802840731793862 0.8119161686050475 0  0.7403936259581672 0.811719393751375 0  0.7995283364363195 0.8114309706707798 0  0.8572152428624152 0.8109726032418381 0  0.9128092010347998 0.810145576442225 0  0.9658034519676925 0.8083854263226866 0  0 0.875 0  0.06233220609551941 0.8749866449118758 0  0.1246556010888668 0.8749725736902345 0  0.186960648906965 0.8749570114248268 0  0.2492361944045212 0.8749390559137712 0  0.311468343725522 0.8749175950635052 0  0.3736388863727562 0.8748911997480302 0  0.4357229362329677 0.8748579826336379 0  0.4976852469422636 0.8748154170220446 0  0.5594742417871418 0.874760125447146 0  0.6210119986312401 0.8746876945048114 0  0.6821768215803784 0.8745926852179995 0  0.7427715943718887 0.8744692114880513 0  0.8024632209257028 0.8743125210413271 0  0.860659488705975 0.8741200351696036 0  0.9162488454144698 0.8738752226275446 0  0.9671031743812036 0.8733997086709366 0  0 0.9375 0  0.06241374920981256 0.9374931369780803 0  0.1248228772819071 0.9374859003280778 0  0.1872223667854319 0.9374778854200073 0  0.2496063112059732 0.9374686207014283 0  0.3119672893720005 0.9374575253592542 0  0.3742954682145575 0.937443857015647 0  0.4365772335
[...]
<PointData  Vectors="f_54"> 
<DataArray  type="Float64"  Name="f_54"  NumberOfComponents="3" format="ascii">0.0000000000000000e+00 0.0000000000000000e+00 0.0000000000000000e+00  0.0000000000000000e+00 0.0000000000000000e+00 0.0000000000000000e+00  0.0000000000000000e+00 0.0000000000000000e+00 0.0000000000000000e+00  0.0000000000000000e+00 0.0000000000000000e+00 0.0000000000000000e+00  0.0000000000000000e+00 0.0000000000000000e+00 0.0000000000000000e+00  0.0000000000000000e+00 0.0000000000000000e+00 0.0000000000000000e+00  0.0000000000000000e+00 0.0000000000000000e+00 0.0000000000000000e+00  0.0000000000000000e+00 0.0000000000000000e+00 0.0000000000000000e+00  0.0000000000000000e+00 0.0000000000000000e+00 0.0000000000000000e+00  0.0000000000000000e+00 0.0000000000000000e+00 0.0000000000000000e+00  0.0000000000000000e+00 0.0000000000000000e+00 0.0000000000000000e+00  0.0000000000000000e+00 0.0000000000000000e+00 0.0000000000000000e+00  0.0000000000000000e+00 0.0000000000000000e+00 0.0000000000000000e+00  0.0000000000000000e+00 0.0000000000000000e+00 0.0000000000000000e+00  0.0000000000000000e+00 0.0000000000000000e+00 0.0000000000000000e+00  0.0000000000000000e+00 0.0000000000000000e+00 0.0000000000000000e+00  0.0000000000000000e+00 0.0000000000000000e+00 0.0000000000000000e+00  0.0000000000000000e+00 0.0000000000000000e+00 0.0000000000000000e+00  -1.7402363655441106e-06 -8.9715394768178474e-08 0.0000000000000000e+00  -3.5518238286984537e-06 -1.8239591735570400e-07 0.0000000000000000e+00  -5.5095208999329721e-06 -2.8104518054442691e-07 0.0000000000000000e+00  -7.6946687235992152e-06 -3.8870623219682831e-07 0.0000000000000000e+00  -1.0198966709481733e-05 -5.0843837028682244e-07 0.0000000000000000e+00  -1.3128982993286636e-05 -6.4323137780806259e-07 0.0000000000000000e+00  -1.6612076901375268e-05 -7.9581842441732497e-07 0.0000000000000000e+00  -2.0805257064963986e-05 -9.6833424505183602e-07 0.0000000000000000e+00  -2.5910679007070518e-05 -1.1617517249435810e-06 0.0000000000000000e+00  -3.2207248822284363e-05 -1.3750272924391975e-06 0.0000000000000000e+00  -4.0123698598227446e-05 -1.6039017197167817e-06 0.0000000000000000e+00  -5.0425070767665456e-05 -1.8392686514804064e-06 0.0000000000000000e+00  -6.4731394843952294e-05 -2.0643109256019003e-06 0.0000000000000000e+00  -8.7089307836909412e-05 -2.2443489105108532e-06 0.0000000000000000e+00  -1.2917679487351060e-04 -2.2720223339807841e-06 0.0000000000000000e+00  -2.2914226111335511e-04 -1.6566859769651135e-06 0.0000000000000000e+00  0.0000000000000000e+00 0.0000000000000000e+00 0.0000000000000000e+00  -3.4050426361777305e-06 -1.7625655611387531e-07 0.0000000000000000e+00  -6.9490413245760394e-06 -3.5839232022293830e-07 0.0000000000000000e+00  -1.0777497408709391e-05 -5.5237634374177327e-07 0.0000000000000000e+00  -1.5048553006217474e-05 -7.6428917922858429e-07 0.0000000000000000e+00  -1.9940123578627158e-05 -1.0003034247914251e-06 0.0000000000000000e+00  -2.5658166803653335e-05 -1.2665527653785483e-06 0.0000000000000000e+00  -3.2446936970225136e-05 -1.5688167380854991e-06 0.0000000000000000e+00  -4.0602958823048880e-05 -1.9119157850146556e-06 0.0000000000000000e+00  -5.0496589778360168e-05 -2.2986748332323938e-06 0.0000000000000000e+00  -6.2610092941742368e-05 -2.7282973898166676e-06 0.0000000000000000e+00  -7.7612787931221708e-05 -3.1940802769484411e-06 0.0000000000000000e+00  -9.6519279561412907e-05 -3.6809009685428739e-06 0.0000000000000000e+00  -1.2102483488921130e-04 -4.1651066919237868e-06 0.0000000000000000e+00  -1.5415864283259808e-04 -4.6293361566102874e-06 0.0000000000000000e+00  -2.0113688329556419e-04 -5.1531251751842121e-06 0.0000000000000000e+00  -2.6764602089875459e-04 -6.3932670571266828e-06 0.0000000000000000e+00  0.0000000000000000e+00 0.0000000000000000e+00 0.0000000000000000e+00  -4.9265594213535927e-06 -2.5669706941015672e-07 0.0000000000000000e+00  -1.0052986173249280e-05 -5.2209463983763520e-07 0.0000000000000000e+00  -1.5588408269446639e-05 -8.0505749268266429e-07 0.0000000000000000e+00  -2.1759874277092450e-05 -1.1146928410902277e-06 0.0000000000000000e+00  -2.8822283040932159e-05 -1.4603829062921506e-06 0.0000000000000000e+00  -3.7069498791144408e-05 -1.8516822889006045e-06 0.0000000000000000e+00  -4.6847172441891164e-05 -2.2979839113900337e-06 0.0000000000000000e+00  -5.8568026350015024e-05 -2.8078021751148204e-06 0.0000000000000000e+00  -7.2730875791620326e-05 -3.3874402026420517e-06 0.0000000000000000e+00  -8.9945583900246127e-05 -4.0386951172154038e-06 0.0000000000000000e+00  -1.1096705648517150e-04 -4.7551094606672083e-06 0.0000000000000000e+00  -1.3673888638911458e-04 -5.5160626532140947e-06 0.0000000000000000e+00  -1.6842588317878695e-04 -6.2773341401667806e-06 0.0000000000000000e+00  -2.0731725263879638e-04 -6.9529150389444228e-06 0.0000000000000000e+00  -2.5413380324721768e-04 -7.3583995286676150e-06 0.0000000000000000e+00  -3.0632816885161002e-04 -6.9350138058269495e-06 0.0000000000000000e+00  0.0000000000000000e+00 0.0000000000000000e+00 0.0000000000000000e+00  -6.2436504894105123e-06 -3.2820454484659599e-07 0.0000000000000000e+00  -1.2738793041040933e-05 -6.6776989550969365e-07 0.0000000000000000e+00  -1.9748378646725209e-05 -1.0303218574742875e-06 0.0000000000000000e+00  -2.7557665631750802e-05 -1.4279289370916775e-06 0.0000000000000000e+00  -3.6486453181300553e-05 -1.8732464957343487e-06 0.0000000000000000e+00  -4.6902464150985929e-05 -2.3795377073670409e-06 0.0000000000000000e+00  -5.9235963346996011e-05 -2.9604729561025804e-06 0.0000000000000000e+00  -7.3995196292053872e-05 -3.6295388226657113e-06 0.0000000000000000e+00  -9.1781114817206138e-05 -4.3987661969598373e-06 0.0000000000000000e+00  -1.1329731386786832e-04 -5.2762805619939338e-06 0.0000000000000000e+00  -1.3934515269919129e-04 -6.2618336339967310e-06 0.0000000000000000e+00  -1.7077976578210458e-04 -7.3389177669046723e-06 0.0000000000000000e+00  -2.0836857290774905e-04 -8.4612070834706894e-06 0.0000000000000000e+00  -2.5241693842456564e-04 -9.5300841255200235e-06 0.0000000000000000e+00  -3.0187976491322126e-04 -1.0361965745581584e-05 0.0000000000000000e+00  -3.5253551476285979e-04 -1.0676872770858760e-05 0.0000000000000000e+00  0.0000000000000000e+00 0.0000000000000000e+00 0.0000000000000000e+00  -7.3045450279008916e-06 -3.8811022030807706e-07 0.0000000000000000e+00  -1.4900756561450701e-05 -7.8998163888407989e-07 0.0000000000000000e+00  -2.3093369929419644e-05 -1.2197617606282307e-06 0.0000000000000000e+00  -3.2212839399364045e-05 -1.6923001429777193e-06 0.0000000000000000e+00  -4.2629493458914580e-05 -2.2234593664544410e-06 0.0000000000000000e+00  -5.4769036059476833e-05 -2.8303546702632110e-06 0.0000000000000000e+00  -6.9129355565089451e-05 -3.5314523773907663e-06 0.0000000000000000e+00  -8.6297748803062718e-05 -4.3463921491981640e-06 0.0000000000000000e+00  -1.0696580749228043e-04 -5.2952704601680335e-06 0.0000000000000000e+00  -1.3193533515365327e-04 -6.3968746456487060e-06 0.0000000000000000e+00  -1.6210088567325084e-04 -7.6648886248923504e-06 0.0000000000000000e+00  -1.9837964812056489e-04 -9.1002620017040144e-06 0.0000000000000000e+00  -2.4153307810339183e-04 -1.0676655831791502e-05 0.0000000000000000e+00  -2.9178489025680828e-04 -1.2314565365459621e-05 0.0000000000000000e+00  -3.4810303856782542e-04 -1.3840777909645702e-05 0.0000000000000000e+00  -4.0706063610590373e-04 -1.4940539416222946e-05 0.0000000000000000e+00  0.0000000000000000e+00 0.0000000000000000e+00 0.0000000000000000e+00  -8.0690379314573459e-06 -4.3400898293317902e-07 0.0000000000000000e+00  -1.6456794885571247e-05 -8.8379509773547385e-07 0.0000000000000000e+00  -2.5495988298819317e-05 -1.3656492167464875e-06 0.0000000000000000e+00  -3.5547310711729915e-05 -1.8968509211996507e-06 0.0000000000000000e+00  -4.7015092658358155e-05 -2.4961784655470080e-06 0.0000000000000000e+00  -6.0364881368343936e-05 -3.1844309758302801e-06 0.0000000000000000e+00  -7.6143277447823579e-05 -3.9849524565143898e-06 0.0000000000000000e+00  -9.4999715751352626e-05 -4.9241170569933783e-06 0.0000000000000000e+00  -1.1770833234018051e-04 -6.0316571072872218e-06 0.0000000000000000e+00  -1.4518475304785920e-04 -7.3405216094074417e-06 0.0000000000000000e+00  -1.7848611028606427e-04 -8.8854941885568983e-06 0.0000000000000000e+00  -2.1877078289280085e-04 -1.0698778473041226e-05 0.0000000000000000e+00  -2.6717543487936253e-04 -1.2798658919735964e-05 0.0000000000000000e+00  -3.2454273510283682e-04 -1.5163467725810884e-05 0.0000000000000000e+00  -3.9091822707253073e-04 -1.7676888853202949e-05 0.0000000000000000e+00  -4.6477150771578901e-04 -2.0021719330013242e-05 0.0000000000000000e+00  0.0000000000000000e+00 0.0000000000000000e+00 0.0000000000000000e+00  -8.5101758457145187e-06 -4.6388451675949862e-07 0.0000000000000000e+00  -1.7351919562423989e-05 -9.4504195861818858e-07 0.0000000000000000e+00  -2.6870919241228775e-05 -1.4613722585646799e-06 0.0000000000000000e+00  -3.7441609772701573e-05 -2.0320305155406404e-06 0.0000000000000000e+00  -4.9483664265180222e-05 -2.6781288198303882e-06 0.0000000000000000e+00  -6.3481204135653054e-05 -3.4235425536731845e-06 0.0000000000000000e+00  -8.0005869875835118e-05 -4.2958866263471541e-06 0.0000000000000000e+00  -9.9744921555015837e-05 -5.3277585382617478e-06 0.0000000000000000e+00  -1.2353518211841464e-04 -6.5583797840012419e-06 0.0000000000000000e+00  -1.5240230285399914e-04 -8.0357657526583941e-06 0.0000000000000000e+00  -1.8760135015342711e-04 -9.8193830072295208e-06 0.0000000000000000e+00  -2.3064701929649282e-04 -1.1982530583397683e-05 0.0000000000000000e+00  -2.8330679790838936e-04 -1.4611462928007882e-05 0.0000000000000000e+00  -3.4750517598733952e-04 -1.7792547815338944e-05 0.0000000000000000e+00  -4.2505359667386716e-04 -2.1566246594236709e-05 0.0000000000000000e+00  -5.1709728596503778e-04 -2.5805014806471656e-05 0.0000000000000000e+00  0.0000000000000000e+00 0.0000000000000000e+00 0.0000000000000000e+00  -8.6153257233174414e-06 -4.7624484956879040e-07 0.0000000000000000e+00  -1.7560520398451709e-05 -9.7061250027136278e-07 0.0000000000000000e+00  -2.7178760213936279e-05 -1.5019313598236666e-06 0.0000000000000000e+00  -3.7840860330409707e-05 -2.0904808570918904e-06 0.0000000000000000e+00  -4.9961476586723141e-05 -2.7588327868599708e-06 0.0000000000000000e+00  -6.4018670766547526e-05 -3.5328645337811351e-06 0.0000000000000000e+00  -8.0578878211990732e-05 -4.4430715127740660e-06 0.0000000000000000e+00  -1.0033029470511308e-04 -5.5264026899143476e-06 0.0000000000000000e+00  -1.2412908829849837e-04 -6.8290208728230379e-06 0.0000000000000000e+00  -1.5306451940589607e-04 -8.4106951987064199e-06 0.0000000000000000e+00  -1.8855032717191998e-04 -1.0351987734493779e-05 0.0000000000000000e+00  -2.3244845597391431e-04 -1.2765834127917695e-05 0.0000000000000000e+00  -2.8722197993205580e-04 -1.5814670195574985e-05 0.0000000000000000e+00  -3.5608591764476743e-04 -1.9729985728492151e-05 0.0000000000000000e+00  -4.4306126319038769e-04 -2.4815526673858045e-05 0.0000000000000000e+00  -5.5273365254824409e-04 -3.1375531090601520e-05 0.0000000000000000e+00  0.0000000000000000e+00 0.0000000000000000e+00 0.0000000000000000e+00  -8.3864779352561184e-06 -4.7024705641598871e-07 0.0000000000000000e+00  -1.7087131247699901e-05 -9.5872695588181580e-07 0.0000000000000000e+00  -2.6427649027602657e-05 -1.4844081104595545e-06 0.0000000000000000e+00  -3.6758113255285259e-05 -2.0677986225016661e-06 0.0000000000000000e+00  -4.8467370157685369e-05 -2.7318406394655123e-06 0.0000000000000000e+00  -6.2000744084862115e-05 -3.5029888784082824e-06 0.0000000000000000e+00  -7.7883653004343360e-05 -4.4126118798983550e-06 0.0000000000000000e+00  -9.6755535086455048e-05 -5.4989767129744534e-06 0.0000000000000000e+00  -1.1942169236413931e-04 -6.8103420566035363e-06 0.0000000000000000e+00  -1.4693587249824675e-04 -8.4102518522599358e-06 0.0000000000000000e+00  -1.8073416892520073e-04 -1.0387304134917086e-05 0.0000000000000000e+00  -2.2285040186378118e-04 -1.2873974046538416e-05 0.0000000000000000e+00  -2.7624943822116655e-04 -1.6082940426712032e-05 0.0000000000000000e+00  -3.4530090097675896e-04 -2.0373491816611721e-05 0.0000000000000000e+00  -4.3633961385031915e-04 -2.6355163884305761e-05 0.0000000000000000e+00  -5.5805693920319506e-04 -3.4983702177358590e-05 0.0000000000000000e+00  0.0000000000000000e+00 0.0000000000000000e+00 0.0000000000000000e+00  -7.8396303736873793e-06 -4.4578914832488441e-07 0.0000000000000000e+00  -1.5965283956701513e-05 -9.0913525385933143e-07 0.0000000000000000e+00  -2.4671852981170727e-05 -1.4083096435516347e-06 0.0000000000000000e+00  -3.4273364479861415e-05 -1.9630955616306493e-06 0.0000000000000000e+00  -4.5113839191139261e-05 -2.5956428663810628e-06 0.0000000000000000e+00  -5.7580393343991934e-05 -3.3314569700707859e-06 0.0000000000000000e+00  -7.2120797003584312e-05 -4.2006016945108469e-06 0.0000000000000000e+00  -8.9269879552895742e-05 -5.2392628042485662e-06 0.0000000000000000e+00  -1.0969344466605054e-04 -6.4919995941818731e-06 0.0000000000000000e+00  -1.3426644146055780e-04 -8.0155081923655869e-06 0.0000000000000000e+00  -1.6421674494718617e-04 -9.8860705716023439e-06 0.0000000000000000e+00  -2.0139055220913898e-04 -1.2216422119337795e-05 0.0000000000000000e+00  -2.4873223533749834e-04 -1.5196658130911137e-05 0.0000000000000000e+00  -3.1111144526298646e-04 -1.9194008356338594e-05 0.0000000000000000e+00  -3.9661791586685673e-04 -2.4983382799435252e-05 0.0000000000000000e+00  -5.1819120923386221e-04 -3.4205191869716216e-05 0.0000000000000000e+00  0.0000000000000000e+00 0.0000000000000000e+00 0.0000000000000000e+00  -7.0031802637805800e-06 -4.0355349824493897e-07 0.0000000000000000e+00  -1.4254202977442166e-05 -8.2320863022841766e-07 0.0000000000000000e+00  -2.2006646560094874e-05 -1.2757178655863330e-06 0.0000000000000000e+00  -3.0526645276337767e-05 -1.7792210788612329e-06 0.0000000000000000e+00  -4.0098934986455800e-05 -2.3539954665672864e-06 0.0000000000000000e+00  -5.1032901293334557e-05 -3.0232577978337020e-06 0.0000000000000000e+00  -6.3669342427648482e-05 -3.8139952420664427e-06 0.0000000000000000e+00  -7.8390137633501154e-05 -4.7577379612716411e-06 0.0000000000000000e+00  -9.5636583895230171e-05 -5.8910779146622759e-06 0.0000000000000000e+00  -1.1595033407125265e-04 -7.2556211714922933e-06 0.0000000000000000e+00  -1.4006874556942413e-04 -8.8972280494900921e-06 0.0000000000000000e+00  -1.6914400038193703e-04 -1.0866119757093498e-05 0.0000000000000000e+00  -2.0523087823330448e-04 -1.3227301702055610e-05 0.0000000000000000e+00  -2.5233047309958863e-04 -1.6119710965216149e-05 0.0000000000000000e+00  -3.1850152174217410e-04 -1.9996897052075311e-05 0.0000000000000000e+00  -4.1961784019844728e-04 -2.6440730668036472e-05 0.0000000000000000e+00  0.0000000000000000e+00 0.0000000000000000e+00 0.0000000000000000e+00  -5.9154302308456954e-06 -3.4499771658510104e-07 0.0000000000000000e+00  -1.2033487718023309e-05 -7.0391465182144995e-07 0.0000000000000000e+00  -1.8559482727469979e-05 -1.0912289948101264e-06 0.0000000000000000e+00  -2.5704621082431378e-05 -1.5226190593977307e-06 0.0000000000000000e+00  -3.3686932219297628e-05 -2.0155889898999318e-06 0.0000000000000000e+00  -4.2729321967405303e-05 -2.5900906781514786e-06 0.0000000000000000e+00  -5.3052996322454883e-05 -3.2690459864024115e-06 0.0000000000000000e+00  -6.4864056295166534e-05 -4.0784968995813974e-06 0.0000000000000000e+00  -7.8331359517747772e-05 -5.0466876717270729e-06 0.0000000000000000e+00  -9.3556833610199014e-05 -6.2003958025430444e-06 0.0000000000000000e+00  -1.1055086045452080e-04 -7.5546511160341447e-06 0.0000000000000000e+00  -1.2925932104674765e-04 -9.0876827049713530e-06 0.0000000000000000e+00  -1.4978063554885643e-04 -1.0686479746810934e-05 0.0000000000000000e+00  -1.7314880348363762e-04 -1.2047721133184883e-05 0.0000000000000000e+00  -2.0367128775615744e-04 -1.2575265322783056e-05 0.0000000000000000e+00  -2.5530965599831183e-04 -1.1735525617350395e-05 0.0000000000000000e+00  0.0000000000000000e+00 0.0000000000000000e+00 0.0000000000000000e+00  -4.6215571243864484e-06 -2.7230054994100861e-07 0.0000000000000000e+00  -9.3965012002040518e-06 -5.5569662959328282e-07 0.0000000000000000e+00  -1.4478560634486066e-05 -8.6173257236551392e-07 0.0000000000000000e+00  -2.0022103777071086e-05 -1.2029266059120690e-06 0.0000000000000000e+00  -2.6179064990310664e-05 -1.5932827599664808e-06 0.0000000000000000e+00  -3.3090572817704345e-05 -2.0488110083578103e-06 0.0000000000000000e+00  -4.0868989259585140e-05 -2.5879950557573283e-06 0.0000000000000000e+00  -4.9562994383968339e-05 -3.2320152212290917e-06 0.0000000000000000e+00  -5.9093280197475822e-05 -4.0041632497135259e-06 0.0000000000000000e+00  -6.9138805847000743e-05 -4.9268144314454702e-06 0.0000000000000000e+00  -7.8944497436683406e-05 -6.0111959720470522e-06 0.0000000000000000e+00  -8.7018754620658319e-05 -7.2261928739213409e-06 0.0000000000000000e+00  -9.0725054811367179e-05 -8.4074689923049858e-06 0.0000000000000000e+00  -8.5955843482897284e-05 -9.0021392844035870e-06 0.0000000000000000e+00  -6.7785443180098132e-05 -7.3660503360124581e-06 0.0000000000000000e+00  -3.5727856310255585e-05 1.3721571334159057e-06 0.0000000000000000e+00  0.0000000000000000e+00 0.0000000000000000e+00 0.0000000000000000e+00  -3.1706061710041596e-06 -1.8827584455993372e-07 0.0000000000000000e+00  -6.4437302709220052e-06 -3.8429241137423257e-07 0.0000000000000000e+00  -9.9210594363512116e-06 -5.9611151881942185e-07 0.0000000000000000e+00  -1.3702239385256550e-05 -8.3250176285294842e-07 0.0000000000000000e+00  -1.7880226222631846e-05 -1.1033332117181981e-06 0.0000000000000000e+00  -2.2530701513922581e-05 -1.4200360486869453e-06 0.0000000000000000e+00  -2.7690119072112173e-05 -1.7961849569695725e-06 0.0000000000000000e+00  -3.3312073967074506e-05 -2.2483630983512820e-06 0.0000000000000000e+00  -3.9182130568271031e-05 -2.7977023751591564e-06 0.0000000000000000e+00  -4.4752591633378378e-05 -3.4730812529916532e-06 0.0000000000000000e+00  -4.8822632022111832e-05 -4.3181853340233298e-06 0.0000000000000000e+00  -4.8921379924901511e-05 -5.4066012384334510e-06 0.0000000000000000e+00  -4.0133323910326312e-05 -6.8706224460332522e-06 0.0000000000000000e+00  -1.2958382307898819e-05 -8.9488896281875467e-06 0.0000000000000000e+00  4.9959653835766616e-05 -1.2085163467782674e-05 0.0000000000000000e+00  1.7507899007044415e-04 -1.7309512378275099e-05 0.0000000000000000e+00  0.0000000000000000e+00 0.0000000000000000e+00 0.0000000000000000e+00  -1.6131402406799645e-06 -9.6263834370407218e-08 0.0000000000000000e+00  -3.2776147074023748e-06 -1.9651622744972866e-07 0.0000000000000000e+00  -5.0439694343591066e-06 -3.0491707612411530e-07 0.0000000000000000e+00  -6.9608352592676485e-06 -4.2600838010859030e-07 0.0000000000000000e+00  -9.0716023631590202e-06 -5.6494415206039128e-07 0.0000000000000000e+00  -1.1407101710851800e-05 -7.2779741873116561e-07 0.0000000000000000e+00  -1.3970367117597347e-05 -9.2206270660917779e-07 0.0000000000000000e+00  -1.6705607556145838e-05 -1.1576998882314697e-06 0.0000000000000000e+00  -1.9435246714418517e-05 -1.4497643121760674e-06 0.0000000000000000e+00  -2.1731546926103980e-05 -1.8258237056011182e-06 0.0000000000000000e+00  -2.2653976094312055e-05 -2.3479924462002857e-06 0.0000000000000000e+00  -2.0218148587989571e-05 -3.1794211583472825e-06 0.0000000000000000e+00  -1.0376885639729080e-05 -4.7821169018736820e-06 0.0000000000000000e+00  1.4643580060493758e-05 -8.4730186125476976e-06 0.0000000000000000e+00  6.7784945818919495e-05 -1.7774841236891971e-05 0.0000000000000000e+00  1.6306988948543326e-04 -4.0518929942867761e-05 0.0000000000000000e+00  0.0000000000000000e+00 0.0000000000000000e+00 0.0000000000000000e+00  0.0000000000000000e+00 0.0000000000000000e+00 0.0000000000000000e+00  0.0000000000000000e+00 0.0000000000000000e+00 0.0000000000000000e+00  0.0000000000000000e+00 0.0000000000000000e+00 0.0000000000000000e+00  0.0000000000000000e+00 0.0000000000000000e+00 0.0000000000000000e+00  0.0000000000000000e+00 0.000