<?xml version="1.0"?>
<VTKFile type="UnstructuredGrid"  version="0.1"  >
<UnstructuredGrid>
<Piece  NumberOfPoints="289" NumberOfCells="512">
<Points>
<DataArray  type="Float64"  NumberOfComponents="3"  format="ascii">0 0 0  0.0625 0 0  0.125 0 0  0.1875 0 0  0.25 0 0  0.3125 0 0  0.375 0 0  0.4375 0 0  0.5 0 0  0.5625 0 0  0.625 0 0  0.6875 0 0  0.75 0 0  0.8125 0 0  0.875 0 0  0.9375 0 0  1 0 0  0 0.0625 0  0.06255477262654556 0.0624722700241234 0  0.1251113422725337 0.06244402207978166 0  0.1876715528900146 0.06241477090317737 0  0.2502373240732897 0.06238412711989891 0  0.3128106939949303 0.06235186012627183 0  0.37539387352996 0.06231797778134134 0  0.4379893285545197 0.06228282421306555 0  0.5005999289186822 0.06224719028981714 0  0.5632292510465861 0.06221241846244792 0  0.6258822348652142 0.06218046115319856 0  0.6885666776332401 0.06215381538433784 0  0.7512967847564042 0.06213520232912058 0  0.8141020032002256 0.06212679015205304 0  0.8770498265827762 0.06212869971181212 0  0.9403049883812096 0.06213682000217065 0  1.004268793103081 0.0621461659284965 0  0 0.125 0  0.06260773012101818 0.1249450296970091 0  0.1252190398304176 0.124888974225459 0  0.1878376094009845 0.1248308084325164 0  0.2504672853817791 0.1247696868416341 0  0.3131121756230676 0.1247050653743971 0  0.375776767114358 0.1246368605873399 0  0.4384660963920783 0.1245656529452758 0  0.5011860355549992 0.1244929298116966 0  0.5639438252690876 0.1244213417162327 0  0.6267491255268832 0.1243549047305082 0  0.6896161325493282 0.1242990146544211 0  0.7525678216856175 0.124260046960841 0  0.8156441049307895 0.1242442536016405 0  0.8789157163901562 0.1242558989496554 0  0.9425002571775261 0.1242960780263068 0  1.006554596266141 0.1243681655778732 0  0 0.1875 0  0.0626571092695397 0.1874188590395655 0  0.1253195210521312 0.1873359775572862 0  0.1879926964161165 0.18724969109059 0  0.2506823622596857 0.1871585726149125 0  0.3133946604330096 0.187061602530715 0  0.3761363244323773 0.1869584024110261 0  0.4389149143605695 0.1868495510253838 0  0.5017391689244826 0.1867369916759164 0  0.5646195818359601 0.1866245161602103 0  0.6275693849869322 0.1865182596350894 0  0.6906062061163006 0.186427039410357 0  0.7537546521820916 0.1863621746325398 0  0.8170495252265397 0.1863360183200881 0  0.880537113459797 0.1863574172512033 0  0.9442660024287661 0.1864190767820889 0  1.008251448599212 0.1864601574530812 0  0 0.25 0  0.06270121598814417 0.2498944245506897 0  0.1254093478901919 0.2497863395135199 0  0.1881315296019878 0.2496733096477446 0  0.2508752654071665 0.2495531528358663 0  0.3136486327767543 0.2494241379190948 0  0.3764605109800402 0.2492852763931494 0  0.4393208584753925 0.2491367461247017 0  0.502241075948385 0.2489804851577952 0  0.5652345059521092 0.2488209819395339 0  0.6283171156669538 0.2486662492982649 0  0.6915083271700267 0.2485288730888763 0  0.7548316453547221 0.2484268154844208 0  0.8183138617078654 0.2483832234297987 0  0.8819797491410856 0.2484236916140437 0  0.9458366617169115 0.2485683176784675 0  1.009844451872301 0.2488167310646032 0  0 0.3125 0  0.06273846226243075 0.3123725029797851 0  0.1254852914531472 0.3122416090597064 0  0.1882491312764333 0.3121039698278389 0  0.2510391040520767 0.3119564468728928 0  0.3138650685718812 0.3117963041308096 0  0.3767379013579684 0.311621521916095 0  0.4396698169694264 0.3114312955181644 0  0.502674746158383 0.3112267991391181 0  0.565768782567289 0.3110123125031833 0  0.6289706631128105 0.3107968098286006 0  0.6923021052515367 0.3105960688211038 0  0.7557874789453386 0.3104352079181991 0  0.8194516239056432 0.3103511914419254 0  0.8833137689353092 0.3103941172406006 0  0.9473757378623495 0.3106250482088675 0  1.011607981026416 0.311107437060788 0  0 0.375 0  0.06276740668597097 0.3748539839894044 0  0.1255444137221629 0.3747035895405757 0  0.1883409540159164 0.3745444319754767 0  0.2511675500597472 0.3743722210370991 0  0.314035630575822 0.3741829007571549 0  0.3769578735624035 0.3739729262352204 0  0.4399485923614065 0.3737397632571238 0  0.5030241858813719 0.3734827384861537 0  0.5662036710742638 0.373204426931783 0  0.6295092856491811 0.3729128370283935 0  0.6929670507633764 0.372624721882436 0  0.7566069541067305 0.3723703432844452 0  0.8204620199664231 0.3721997884506384 0  0.8845651796874854 0.3721902164642767 0  0.9489434855534667 0.3724519393651533 0  1.013613009465661 0.3731292862047413 0  0 0.4375 0  0.06278680184350234 0.4373398445721287 0  0.1255841625453039 0.4371742931185255 0  0.188403023129307 0.4369978589483965 0  0.2512550247395464 0.4368049568816172 0  0.3141528869786138 0.4365899338175856 0  0.3771108227644933 0.436347226522908 0  0.4401450176024589 0.4360717436334473 0  0.5032742214701553 0.4357596338049654 0  0.5665205348774252 0.4354097085403872 0  0.6299105170055759 0.4350259551814278 0  0.6934767902568929 0.4346218149497871 0  0.7572603229754454 0.4342271800815297 0  0.8213134739524515 0.4338992069871682 0  0.8857036585448871 0.4337375666704646 0  0.9505174866005484 0.4339028946698816 0  1.015866969934177 0.4346340682929241 0  0 0.5 0  0.06279565112133059 0.4998310901428943 0  0.1256024860866336 0.4996558241163359 0  0.1884321104833246 0.4994676462857728 0  0.2512969334891001 0.4992596423832183 0  0.3142106054901553 0.4990244038933036 0  0.3771885053023934 0.4987539749697813 0  0.4402483208940283 0.4984399665891984 0  0.5034108129970563 0.4980739993062851 0  0.5667009458952832 0.4976487773281629 0  0.630149752341013 0.4971603530231617 0  0.6937976160144101 0.4966125904203876 0  0.7577001209708836 0.496025563231361 0  0.8219381153162612 0.4954505795225189 0  0.8866337602565501 0.4949950632382147 0  0.951973533981452 0.4948585290080444 0  1.018238780095478 0.4953731749074209 0  0 0.5625 0  0.0627932749625404 0.5623286616824571 0  0.1255979675216313 0.5621501874341104 0  0.1884259428399149 0.5619571215193416 0  0.2512899568315953 0.5617413515735215 0  0.314204142718734 0.5614937650795195 0  0.3771845555699495 0.5612039064427631 0  0.4402498277285907 0.5608596760431372 0  0.5034220545877428 0.560447177725798 0  0.5667281893040914 0.5599509586819728 0  0.6302025793267292 0.5593551758513801 0  0.6938920021541402 0.5586468333982079 0  0.7578658724347014 0.5578234918054396 0  0.8222362401426209 0.5569102392927902 0  0.8871940046138042 0.5559942665270725 0  0.9530671135733099 0.5552866807035448 0  1.020401581597678 0.5552094290267684 0  0 0.625 0  0.06277938268681932 0.6248333151338135 0  0.1255699724924821 0.6246590328574968 0  0.1883834335105077 0.6244691238956238 0  0.2512323813926572 0.6242546148400679 0  0.3141309018528762 0.6240050276029054 0  0.3770951253242727 0.6237077107868834 0  0.4401439006441792 0.6233470321607502 0  0.5032996739141834 0.6229034252696727 0  0.5665898598611169 0.6223523566035032 0  0.6300494712988897 0.6216634839383228 0  0.693726940893916 0.6208008284984663 0  0.757697669257494 0.619726271264051 0  0.8220948333867377 0.6184126316571615 0  0.8871741064279228 0.6168821096527478 0  0.9534324712614147 0.6153005325293618 0  1.021792209666913 0.6141420422361814 0  0 0.6875 0  0.06275414182910365 0.6873454874325912 0  0.1255187932450658 0.6871833645538844 0  0.18830491222308 0.6870055091798026 0  0.2511244325484453 0.6868026383244206 0  0.3139907946600967 0.6865635678976234 0  0.3769195235741773 0.6862742531712807 0  0.4399288655869316 0.6859164944220193 0  0.5030405152955759 0.6854661529674461 0  0.5662805709104075 0.6848906777621049 0  0.6296812559952237 0.6841457210676144 0  0.6932852387881737 0.6831707495642133 0  0.7571581484633192 0.6818843531735186 0  0.8214247413408576 0.6801835475640639 0  0.8863654336071333 0.6779664276036202 0  0.9526323162550899 0.6752545285341676 0  1.021639022440756 0.6725566599550781 0  0 0.75 0  0.06271823368201014 0.7498651710523294 0  0.1254457669803219 0.7497232628894507 0  0.1881923193504289 0.7495666589032486 0  0.2509685613428219 0.7493864947585308 0  0.3137866374509108 0.7491718251675318 0  0.3766607321687826 0.7489084902691185 0  0.4396076555316527 0.7485774962474386 0  0.502647370792595 0.7481526254216276 0  0.5658033104817822 0.7475968233903181 0  0.6291023168484577 0.7468566212927994 0  0.6925745692436035 0.7458533370958651 0  0.7562568470963236 0.7444689145074112 0  0.8202149055856321 0.7425232384766893 0  0.8846456407401417 0.7397430692467474 0  0.9502529072689735 0.735771070879029 0  1.018863413875805 0.7307974491721145 0  0 0.8125 0  0.06267288222274468 0.8123918231432652 0  0.12535334315959 0.8122776767109221 0  0.188049328395884 0.8121510975292849 0  0.2507696429217227 0.8120044582928602 0  0.3135244388746888 0.8118281659240864 0  0.3763257593629555 0.8116095373502329 0  0.4391881050115853 0.8113311395811182 0  0.5021288818327885 0.8109682525054767 0  0.5651683244477916 0.8104848876959209 0  0.6283278895059298 0.8098273851248843 0  0.6916249278724856 0.8089137867518245 0  0.7550598649164103 0.8076152967229262 0  0.8185942550380587 0.8057211877566069 0  0.8821511406991388 0.8028650399666246 0  0.9458999634200216 0.798360193052817 0  1.013010953064235 0.7908987606349795 0  0 0.875 0  0.06261984424204518 0.8749243338893159 0  0.1252450751800733 0.8748443425353332 0  0.1878813616972292 0.8747553222066248 0  0.2505350504347219 0.8746516673848966 0  0.3132135710121603 0.8745262371822149 0  0.3759259186019699 0.8743694496220382 0  0.438683209407197 0.8741679175286958 0  0.5014992137266368 0.8739023236020471 0  0.5643904886282649 0.8735440350739547 0  0.6273748976589469 0.8730496280298133 0  0.6904649139553144 0.8723519206054013 0  0.7536454646210914 0.871344892084111 0  0.8168086663118582 0.8698556581279903 0  0.8795776709352355 0.8675763342200089 0  0.940888589444843 0.8638285939734416 0  0.9982649836698819 0.8565857128922291 0  0 0.9375 0  0.06256135136111107 0.9374610705697228 0  0.1251255153882882 0.937419869751688 0  0.1876954641135063 0.9373739210120478 0  0.2502745583702628 0.9373202561471412 0  0.3128667946326295 0.9372550657445268 0  0.3754771230683826 0.9371731937163313 0  0.4381118639181473 0.93706
[...]
<PointData  Vectors="f_54"> 
<DataArray  type="Float64"  Name="f_54"  NumberOfComponents="3" format="ascii">0.0000000000000000e+00 0.0000000000000000e+00 0.0000000000000000e+00  0.0000000000000000e+00 0.0000000000000000e+00 0.0000000000000000e+00  0.0000000000000000e+00 0.0000000000000000e+00 0.0000000000000000e+00  0.0000000000000000e+00 0.0000000000000000e+00 0.0000000000000000e+00  0.0000000000000000e+00 0.0000000000000000e+00 0.0000000000000000e+00  0.0000000000000000e+00 0.0000000000000000e+00 0.0000000000000000e+00  0.0000000000000000e+00 0.0000000000000000e+00 0.0000000000000000e+00  0.0000000000000000e+00 0.0000000000000000e+00 0.0000000000000000e+00  0.0000000000000000e+00 0.0000000000000000e+00 0.0000000000000000e+00  0.0000000000000000e+00 0.0000000000000000e+00 0.0000000000000000e+00  0.0000000000000000e+00 0.0000000000000000e+00 0.0000000000000000e+00  0.0000000000000000e+00 0.0000000000000000e+00 0.0000000000000000e+00  0.0000000000000000e+00 0.0000000000000000e+00 0.0000000000000000e+00  0.0000000000000000e+00 0.0000000000000000e+00 0.0000000000000000e+00  0.0000000000000000e+00 0.0000000000000000e+00 0.0000000000000000e+00  0.0000000000000000e+00 0.0000000000000000e+00 0.0000000000000000e+00  0.0000000000000000e+00 0.0000000000000000e+00 0.0000000000000000e+00  0.0000000000000000e+00 0.0000000000000000e+00 0.0000000000000000e+00  4.6916905308736599e-06 3.7160375119058362e-08 0.0000000000000000e+00  9.5235929695619225e-06 7.1616597799538294e-08 0.0000000000000000e+00  1.4640403098751564e-05 1.0019109832993075e-07 0.0000000000000000e+00  2.0187357495676106e-05 1.1866797897722320e-07 0.0000000000000000e+00  2.6309448602922945e-05 1.2123190495641352e-07 0.0000000000000000e+00  3.3149079916863109e-05 9.9891676986480810e-08 0.0000000000000000e+00  4.0841665000507288e-05 4.3944113568270327e-08 0.0000000000000000e+00  4.9508972337995250e-05 -6.0415492204323326e-08 0.0000000000000000e+00  5.9251071679708107e-05 -2.3020591664769388e-07 0.0000000000000000e+00  7.0140967989330675e-05 -4.8550463351446973e-07 0.0000000000000000e+00  8.2235732858909207e-05 -8.4979961358742124e-07 0.0000000000000000e+00  9.5648197559367536e-05 -1.3545844274514250e-06 0.0000000000000000e+00  1.1082285157071824e-04 -2.0627023382482442e-06 0.0000000000000000e+00  1.2950965056488889e-04 -3.1651203849776524e-06 0.0000000000000000e+00  1.5825497384348662e-04 -5.3655489262429142e-06 0.0000000000000000e+00  2.2176854093276980e-04 -1.1467120695251313e-05 0.0000000000000000e+00  0.0000000000000000e+00 0.0000000000000000e+00 0.0000000000000000e+00  9.2474256943616034e-06 7.7048777049274543e-08 0.0000000000000000e+00  1.8776060041089540e-05 1.4918035114639889e-07 0.0000000000000000e+00  2.8876231331238439e-05 2.1054913939336124e-07 0.0000000000000000e+00  3.9840572531729171e-05 2.5324713426362027e-07 0.0000000000000000e+00  5.1963091188541883e-05 2.6615537931648773e-07 0.0000000000000000e+00  6.5535067813240282e-05 2.3371959494242568e-07 0.0000000000000000e+00  8.0836525219869085e-05 1.3475069084567531e-07 0.0000000000000000e+00  9.8122108070335619e-05 -5.8509942097558258e-08 0.0000000000000000e+00  1.1760091740963238e-04 -3.8063237479895766e-07 0.0000000000000000e+00  1.3941205421905611e-04 -8.7193172758250865e-07 0.0000000000000000e+00  1.6360315645885161e-04 -1.5754297060739002e-06 0.0000000000000000e+00  1.9013088234097198e-04 -2.5314089742004692e-06 0.0000000000000000e+00  2.1891909943298716e-04 -3.7685955700118568e-06 0.0000000000000000e+00  2.4999047569678807e-04 -5.2800174815901266e-06 0.0000000000000000e+00  2.8332426175861451e-04 -6.8897416758657057e-06 0.0000000000000000e+00  3.1554456206383434e-04 -7.4191755100962038e-06 0.0000000000000000e+00  0.0000000000000000e+00 0.0000000000000000e+00 0.0000000000000000e+00  1.3522495943957302e-05 1.2182750857248994e-07 0.0000000000000000e+00  2.7467119359586633e-05 2.3750811718400278e-07 0.0000000000000000e+00  4.2269950761244749e-05 3.3956532202923284e-07 0.0000000000000000e+00  5.8373383705727021e-05 4.1750683924746698e-07 0.0000000000000000e+00  7.6226318481722099e-05 4.5606283521764446e-07 0.0000000000000000e+00  9.6279673798089742e-05 4.3319423259383074e-07 0.0000000000000000e+00  1.1897497853943037e-04 3.1796447850126972e-07 0.0000000000000000e+00  1.4472326700431043e-04 6.8600912718125814e-08 0.0000000000000000e+00  1.7387089548647532e-04 -3.6851840273595251e-07 0.0000000000000000e+00  2.0664806480729360e-04 -1.0575380506251237e-06 0.0000000000000000e+00  2.4309369591806428e-04 -2.0669696431460187e-06 0.0000000000000000e+00  2.8294228081460687e-04 -3.4545208444968195e-06 0.0000000000000000e+00  3.2542805445049528e-04 -5.2359316165752392e-06 0.0000000000000000e+00  3.6885846532221783e-04 -7.3268702380710253e-06 0.0000000000000000e+00  4.0950576980132978e-04 -9.4525695145762425e-06 0.0000000000000000e+00  4.3873516017462432e-04 -1.1143437466872115e-05 0.0000000000000000e+00  0.0000000000000000e+00 0.0000000000000000e+00 0.0000000000000000e+00  1.7373198614399349e-05 1.7266314951205185e-07 0.0000000000000000e+00  3.5307391933499977e-05 3.3938046743198491e-07 0.0000000000000000e+00  5.4382587184608230e-05 4.9258257083311655e-07 0.0000000000000000e+00  7.5192254686760418e-05 6.2091031343416716e-07 0.0000000000000000e+00  9.8346574161774572e-05 7.0685474093613901e-07 0.0000000000000000e+00  1.2446993601288560e-04 7.2388177662751804e-07 0.0000000000000000e+00  1.5418954958116231e-04 6.3301576617567509e-07 0.0000000000000000e+00  1.8811076006736548e-04 3.7911747932974255e-07 0.0000000000000000e+00  2.2677278817142727e-04 -1.1235706456136930e-07 0.0000000000000000e+00  2.7057544827397155e-04 -9.3625169807137465e-07 0.0000000000000000e+00  3.1966123172967961e-04 -2.2024089642198442e-06 0.0000000000000000e+00  3.7372351762614080e-04 -4.0168951923230236e-06 0.0000000000000000e+00  4.3168085639920669e-04 -6.4370259154005124e-06 0.0000000000000000e+00  4.9109459027885604e-04 -9.3800059233658627e-06 0.0000000000000000e+00  5.4711986069920439e-04 -1.2457631848095088e-05 0.0000000000000000e+00  5.9083740778583210e-04 -1.4699761755805777e-05 0.0000000000000000e+00  0.0000000000000000e+00 0.0000000000000000e+00 0.0000000000000000e+00  2.0659239443513729e-05 2.2928582766290227e-07 0.0000000000000000e+00  4.2012776612488019e-05 4.5460461691148503e-07 0.0000000000000000e+00  6.4779177704457700e-05 6.7025301886326199e-07 0.0000000000000000e+00  8.9701347380097290e-05 8.6631652909120385e-07 0.0000000000000000e+00  1.1755529260911894e-04 1.0258322368142174e-06 0.0000000000000000e+00  1.4915293632017333e-04 1.1210266411245271e-06 0.0000000000000000e+00  1.8533530994447510e-04 1.1083296592373286e-06 0.0000000000000000e+00  2.2695066988105635e-04 9.2201582560752119e-07 0.0000000000000000e+00  2.7480940856484888e-04 4.6678517945251268e-07 0.0000000000000000e+00  3.2960354345359038e-04 -3.8926757128635910e-07 0.0000000000000000e+00  3.9177204521370179e-04 -1.8173795255467252e-06 0.0000000000000000e+00  4.6128249902727613e-04 -4.0177722124514739e-06 0.0000000000000000e+00  5.3728256320276680e-04 -7.1788699506594639e-06 0.0000000000000000e+00  6.1755448064150791e-04 -1.1375575942126832e-05 0.0000000000000000e+00  6.9771092155751480e-04 -1.6360705240843489e-05 0.0000000000000000e+00  7.7019640939677756e-04 -2.1197494256232412e-05 0.0000000000000000e+00  0.0000000000000000e+00 0.0000000000000000e+00 0.0000000000000000e+00  2.3247571749847068e-05 2.8965639618502891e-07 0.0000000000000000e+00  4.7311862575881986e-05 5.7926686414268564e-07 0.0000000000000000e+00  7.3039180371661065e-05 8.6720282966242437e-07 0.0000000000000000e+00  1.0131481904279263e-04 1.1477784804178967e-06 0.0000000000000000e+00  1.3308003233532175e-04 1.4082365881031346e-06 0.0000000000000000e+00  1.6934405610186432e-04 1.6243605203813893e-06 0.0000000000000000e+00  2.1118759674953154e-04 1.7540037106815875e-06 0.0000000000000000e+00  2.5975213108944938e-04 1.7276769700092249e-06 0.0000000000000000e+00  3.1620634565054993e-04 1.4353417767080894e-06 0.0000000000000000e+00  3.8167687387552387e-04 7.0910654380758454e-07 0.0000000000000000e+00  4.5712514418018283e-04 -6.9652555897220460e-07 0.0000000000000000e+00  5.4314624928761203e-04 -3.1201283489585155e-06 0.0000000000000000e+00  6.3966174155283555e-04 -6.9866516283851593e-06 0.0000000000000000e+00  7.4548322587165571e-04 -1.2739558274048121e-05 0.0000000000000000e+00  8.5775362593213636e-04 -2.0639347998642706e-05 0.0000000000000000e+00  9.7134844709474255e-04 -3.0312855110633609e-05 0.0000000000000000e+00  0.0000000000000000e+00 0.0000000000000000e+00 0.0000000000000000e+00  2.5017872408507693e-05 3.4982167131669267e-07 0.0000000000000000e+00  5.0956879631054714e-05 7.0534462606948988e-07 0.0000000000000000e+00  7.8772865768716711e-05 1.0711800569823442e-06 0.0000000000000000e+00  1.0947839806569450e-04 1.4488274871005759e-06 0.0000000000000000e+00  1.4417041155900622e-04 1.8340070711890343e-06 0.0000000000000000e+00  1.8405531295483983e-04 2.2123049243598929e-06 0.0000000000000000e+00  2.3046879787306517e-04 2.5519875282391855e-06 0.0000000000000000e+00  2.8488551018572458e-04 2.7922261208948086e-06 0.0000000000000000e+00  3.4891055491433797e-04 2.8241239023853427e-06 0.0000000000000000e+00  4.2424076600529347e-04 2.4610079768114478e-06 0.0000000000000000e+00  5.1257926436192275e-04 1.3940984206768436e-06 0.0000000000000000e+00  6.1548481139314811e-04 -8.6814893723177157e-07 0.0000000000000000e+00  7.3414407842793098e-04 -5.0694378512144081e-06 0.0000000000000000e+00  8.6908189938302949e-04 -1.2251464234599869e-05 0.0000000000000000e+00  1.0198862410261916e-03 -2.3694177118543658e-05 0.0000000000000000e+00  1.1851260837827530e-03 -4.0593324906983448e-05 0.0000000000000000e+00  0.0000000000000000e+00 0.0000000000000000e+00 0.0000000000000000e+00  2.5869587360077021e-05 4.0405152917598429e-07 0.0000000000000000e+00  5.2738141948298434e-05 8.2089274546691579e-07 0.0000000000000000e+00  8.1643858320551533e-05 1.2630772963700617e-06 0.0000000000000000e+00  1.1370095792791139e-04 1.7418983511029146e-06 0.0000000000000000e+00  1.5013968062304022e-04 2.2657801526721803e-06 0.0000000000000000e+00  1.9234758636095262e-04 2.8370362008190386e-06 0.0000000000000000e+00  2.4191109879992287e-04 3.4456020581186784e-06 0.0000000000000000e+00  3.0065432333411477e-04 4.0572613329460943e-06 0.0000000000000000e+00  3.7066913723312960e-04 4.5919795972630527e-06 0.0000000000000000e+00  4.5432626872732079e-04 4.8847872432411230e-06 0.0000000000000000e+00  5.5425248895447910e-04 4.6168165567116685e-06 0.0000000000000000e+00  6.7325818731680826e-04 3.1981082737447209e-06 0.0000000000000000e+00  8.1421400617247774e-04 -4.1954434977935148e-07 0.0000000000000000e+00  9.7993031552503248e-04 -8.0108965355415112e-06 0.0000000000000000e+00  1.1732298197508156e-03 -2.2397001146079958e-05 0.0000000000000000e+00  1.3976603228733691e-03 -4.7740258730936253e-05 0.0000000000000000e+00  0.0000000000000000e+00 0.0000000000000000e+00 0.0000000000000000e+00  2.5730141090432759e-05 4.4533848653080786e-07 0.0000000000000000e+00  5.2501226377983075e-05 9.1100755952448485e-07 0.0000000000000000e+00  8.1396819937020872e-05 1.4182510008336079e-06 0.0000000000000000e+00  1.1359503085483456e-04 1.9897090481012729e-06 0.0000000000000000e+00  1.5042115461624459e-04 2.6496215253147465e-06 0.0000000000000000e+00  1.9340670508299082e-04 3.4230113454707170e-06 0.0000000000000000e+00  2.4435634532966026e-04 4.3326497681881971e-06 0.0000000000000000e+00  3.0542300472769646e-04 5.3913182171696724e-06 0.0000000000000000e+00  3.7918895515191370e-04 6.5842724293259455e-06 0.0000000000000000e+00  4.6874616878203384e-04 7.8315674064265686e-06 0.0000000000000000e+00  5.7776302688697129e-04 8.9095656243741684e-06 0.0000000000000000e+00  7.1052024522703439e-04 9.2915894063542046e-06 0.0000000000000000e+00  8.7191290943550138e-04 7.8354203762790294e-06 0.0000000000000000e+00  1.0674975150228969e-03 2.2053323148311227e-06 0.0000000000000000e+00  1.3039332107131819e-03 -1.2099757891545247e-05 0.0000000000000000e+00  1.5908421231702078e-03 -4.3237599128849274e-05 0.0000000000000000e+00  0.0000000000000000e+00 0.0000000000000000e+00 0.0000000000000000e+00  2.4563538996715158e-05 4.6628674560584892e-07 0.0000000000000000e+00  5.0165333730023974e-05 9.5966791646569784e-07 0.0000000000000000e+00  7.7887924868135427e-05 1.5094187247357037e-06 0.0000000000000000e+00  1.0892312387148951e-04 2.1492833933101603e-06 0.0000000000000000e+00  1.4463568516300961e-04 2.9200208870612981e-06 0.0000000000000000e+00  1.8663913356555637e-04 3.8721243755786867e-06 0.0000000000000000e+00  2.3688867095939141e-04 5.0683029715016122e-06 0.0000000000000000e+00  2.9779627861447765e-04 6.5844123331252505e-06 0.0000000000000000e+00  3.7237220918984344e-04 8.5053229694672008e-06 0.0000000000000000e+00  4.6439359087226877e-04 1.0906870795972526e-05 0.0000000000000000e+00  5.7859296489511808e-04 1.3802017475440560e-05 0.0000000000000000e+00  7.2084734169013619e-04 1.6997828786222634e-05 0.0000000000000000e+00  8.9834480593673535e-04 1.9736182563240074e-05 0.0000000000000000e+00  1.1197757135182557e-03 1.9838137480798795e-05 0.0000000000000000e+00  1.3959595240877138e-03 1.1854316508281049e-05 0.0000000000000000e+00  1.7423662954889601e-03 -1.6400975206715524e-05 0.0000000000000000e+00  0.0000000000000000e+00 0.0000000000000000e+00 0.0000000000000000e+00  2.2378260829336396e-05 4.6032216357412951e-07 0.0000000000000000e+00  4.5740534915660072e-05 9.5234261200624715e-07 0.0000000000000000e+00  7.1114449534542983e-05 1.5110557426219329e-06 0.0000000000000000e+00  9.9644558374530827e-05 2.1787529514423518e-06 0.0000000000000000e+00  1.3266311534569536e-04 3.0099264022571711e-06 0.0000000000000000e+00  1.7177847271756863e-04 4.0778564119767576e-06 0.0000000000000000e+00  2.1898992036273990e-04 5.4837229646917832e-06 0.0000000000000000e+00  2.7684033679266823e-04 7.3692107807898669e-06 0.0000000000000000e+00  3.4862056982020947e-04 9.9333339486924089e-06 0.0000000000000000e+00  4.3864023494129842e-04 1.3452430107776292e-05 0.0000000000000000e+00  5.5257447289289315e-04 1.8294976412576912e-05 0.0000000000000000e+00  6.9787800084906992e-04 2.4896371329607413e-05 0.0000000000000000e+00  8.8422319024062865e-04 3.3566564061531644e-05 0.0000000000000000e+00  1.1239186211035319e-03 4.3698151671484427e-05 0.0000000000000000e+00  1.4326853467431717e-03 5.1147973201007361e-05 0.0000000000000000e+00  1.8332975677468005e-03 4.3060634070210397e-05 0.0000000000000000e+00  0.0000000000000000e+00 0.0000000000000000e+00 0.0000000000000000e+00  1.9233121524622441e-05 4.2303642757835231e-07 0.0000000000000000e+00  3.9341055773367527e-05 8.7897503553495397e-07 0.0000000000000000e+00  6.1238723087724868e-05 1.4046771952579843e-06 0.0000000000000000e+00  8.5955621767456978e-05 2.0461083304412437e-06 0.0000000000000000e+00  1.1470743409087930e-04 2.8649168074463660e-06 0.0000000000000000e+00  1.4898901874789726e-04 3.9480017264096462e-06 0.0000000000000000e+00  1.9070109590195556e-04 5.4221452202421475e-06 0.0000000000000000e+00  2.4232854874422277e-04 7.4771662680176261e-06 0.0000000000000000e+00  3.0719637586654479e-04 1.0403589602159061e-05 0.0000000000000000e+00  3.8983956227311089e-04 1.4655503425908634e-05 0.0000000000000000e+00  4.9653184719766611e-04 2.0957495821008988e-05 0.0000000000000000e+00  6.3601255016271371e-04 3.0485195643857309e-05 0.0000000000000000e+00  8.2039618130078735e-04 4.5135986569001970e-05 0.0000000000000000e+00  1.0660844875465005e-03 6.7671370999922742e-05 0.0000000000000000e+00  1.3943648548237762e-03 9.9645967388417391e-05 0.0000000000000000e+00  1.8395305049754727e-03 1.2247583248263020e-04 0.0000000000000000e+00  0.0000000000000000e+00 0.0000000000000000e+00 0.0000000000000000e+00  1.5239742957381200e-05 3.5337854936286408e-07 0.0000000000000000e+00  3.1191582940560887e-05 7.3670173595767474e-07 0.0000000000000000e+00  4.8601150876526751e-05 1.1838523428703119e-06 0.0000000000000000e+00  6.8314507526202553e-05 1.7379700525243999e-06 0.0000000000000000e+00  9.1342545228682848e-05 2.4583982640175294e-06 0.0000000000000000e+00  1.1894726431037495e-04 3.4311622200364030e-06 0.0000000000000000e+00  1.5276389610948727e-04 4.7856417164455382e-06 0.0000000000000000e+00  1.9498108397793788e-04 6.7221491574401436e-06 0.0000000000000000e+00  2.4861537663084093e-04 9.5592584290919293e-06 0.0000000000000000e+00  3.1793967880956546e-04 1.3818737309845801e-05 0.0000000000000000e+00  4.0916206692422660e-04 2.0387574378848628e-05 0.0000000000000000e+00  5.3150040108390921e-04 3.0853979675894083e-05 0.0000000000000000e+00  6.9882807528597675e-04 4.8277656848181517e-05 0.0000000000000000e+00  9.3189540376599250e-04 7.9128259011198833e-05 0.0000000000000000e+00  1.2594027722377125e-03 1.3841257488656210e-04 0.0000000000000000e+00  1.6898412234431514e-03 2.6229158647050817e-04 0.0000000000000000e+00  0.0000000000000000e+00 0.0000000000000000e+00 0.0000000000000000e+00  1.0560509929696056e-05 2.5437444375216075e-07 0.0000000000000000e+00  2.1623965389467544e-05 5.3155808927766866e-07 0.0000000000000000e+00  3.3717407012225229e-05 8.5752023134441456e-07 0.0000000000000000e+00  4.7442483843160277e-05 1.2657535918562342e-06 0.0000000000000000e+00  6.3524186328340788e-05 1.8030211855984767e-06 0.0000000000000000e+00  8.2877602641426195e-05 2.5381445529466708e-06 0.0000000000000000e+00  1.0670507581378304e-04 3.5761145056808243e-06 0.0000000000000000e+00  1.3664465457133217e-04 5.0814374015941807e-06 0.0000000000000000e+00  1.7500671024926900e-04 7.3176105680141364e-06 0.0000000000000000e+00  2.2516618085294591e-04 1.0715280800974834e-05 0.0000000000000000e+00  2.9223769844177310e-04 1.5993754262187766e-05 0.0000000000000000e+00  3.8428129237727825e-04 2.4394027649310854e-05 0.0000000000000000e+00  5.1455192044627825e-04 3.8209600741031782e-05 0.0000000000000000e+00  7.0607432136200840e-04 6.2405216421433803e-05 0.0000000000000000e+00  1.0031624420285714e-03 1.1109224240156657e-04 0.0000000000000000e+00  1.5109121481453600e-03 2.3477221072929635e-04 0.0000000000000000e+00  0.0000000000000000e+00 0.0000000000000000e+00 0.0000000000000000e+00  5.4014156123801390e-06 1.3312514245854667e-07 0.0000000000000000e+00  1.1062779870892337e-05 2.7856787710092616e-07 0.0000000000000000e+00  1.7256562416985991e-05 4.5039609900876806e-07 0.0000000000000000e+00  2.4294832999486193e-05 6.6687172385604172e-07 0.0000000000000000e+00  3.2555380788295050e-05 9.5367102023658349e-07 0.0000000000000000e+00  4.2517926613844715e-05 1.3488125974257088e-06 0.0000000000000000e+00  5.4817623661998774e-05 1.9105062657396359e-06 0.0000000000000000e+00  7.0328348661735058e-05 2.7297960536840025e-06 0.0000000000000000e+00  9.0298567869931778e-05 3.9505017624271053e-06 0.0000000000000000e+00  1.1658266180336491e-04 5.7979406965916595e-06 0.0000000000000000e+00  1.5204841981959430e-04 8.6075136510764886e-06 0.0000000000000000e+00  2.0129783048418356e-04 1.2790783896296769e-05 0.0000000000000000e+00  2.7181412299746665e-04 1.8439678649030335e-05 0.0000000000000000e+00  3.7475196900758299e-04 2.3334964338850503e-05 0.0000000000000000e+00  5.1878814820900665e-04 1.5709130424864066e-05 0.0000000000000000e+00  6.7574240180580424e-04 -3.5396035365758666e-05 0.0000000000000000e+00  0.0000000000000000e+00 0.0000000000000000e+00 0.0000000000000000e+00  0.0000000000000000e+00 0.0000000000000000e+00 0.0000000000000000e+00  0.0000000000000000e+00 0.0000000000000000e+00 0.0000000000000000e+00  0.0000000000000000e+00 0.0000000000000000e+00 0.0000000000000000e+00  0.0000000000000000e+00 0.0000000000000000e+00 0.0000000000000000e+00  0.0000000000000000e+00 0.0000000000000000e+00 0.0000000000000000e+00  0.0000000000000000e+00 0.0000000000000000e+00 0.0000000000000000e+00  0.0000000000000000e+00 0.0000000000000000e+00 0.0000000000000000e+00  0.0000000000000000e+00 0.0000000000000000e+00 0.0000000000000000e+00  0.0000000000000000e+00 0.0000000000000000e+00 0.0000000000000000e+00  0.0000000000000000e+00 0.0000000000000000e+00 0.0000000000000000e+00  0.0000000000000000e+00