<?xml version="1.0"?>
<VTKFile type="UnstructuredGrid"  version="0.1"  >
<UnstructuredGrid>
<Piece  NumberOfPoints="289" NumberOfCells="512">
<Points>
<DataArray  type="Float64"  NumberOfComponents="3"  format="ascii">0 0 0  0.0625 0 0  0.125 0 0  0.1875 0 0  0.25 0 0  0.3125 0 0  0.375 0 0  0.4375 0 0  0.5 0 0  0.5625 0 0  0.625 0 0  0.6875 0 0  0.75 0 0  0.8125 0 0  0.875 0 0  0.9375 0 0  1 0 0  0 0.0625 0  0.0624505298262823 0.06248680023645718 0  0.1249001645157641 0.06247336939081537 0  0.1873480736751415 0.06245949765930611 0  0.249793624634262 0.06244502643675952 0  0.3122365222249859 0.0624298815635884 0  0.3746770034622828 0.06241411490077426 0  0.437116114247296 0.06239795468156383 0  0.499556107286528 0.06238186165429817 0  0.5620010267037949 0.06236658191467408 0  0.6244576078859222 0.06235317771927983 0  0.686936783388739 0.06234300526755874 0  0.7494565238156032 0.06233760042416225 0  0.812047964822177 0.06233845786876385 0  0.874770232027221 0.06234685241727121 0  0.9377489266653602 0.06236463457877075 0  1.001275305448126 0.06240194766925854 0  0 0.125 0  0.06240199705889118 0.1249738270182915 0  0.1248021215711158 0.1249471670384671 0  0.1871986199232283 0.12491957260997 0  0.2495901068459505 0.1248906925494044 0  0.3119758298849634 0.1248603363475027 0  0.3743560413604531 0.1248285570923482 0  0.4367325292313102 0.1247957556052908 0  0.4991093766675796 0.124762802630552 0  0.5614940547946816 0.1247311645335015 0  0.6238990242116295 0.1247029980598669 0  0.6863441728074701 0.1246811488362352 0  0.7488607328970146 0.1246689487488855 0  0.8114978949838354 0.1246696790401987 0  0.8743339991993668 0.124685620445985 0  0.937493301021149 0.1247169032532909 0  1.001161818321404 0.1247602928524004 0  0 0.1875 0  0.06235541644105489 0.1874613391585618 0  0.1247078217687939 0.1874218896958331 0  0.187054354364222 0.1873809145268218 0  0.249392631592529 0.1873378048105314 0  0.3117211038055884 0.1872921702709096 0  0.3740395612817149 0.1872439610673539 0  0.4363498642342197 0.1871936294756912 0  0.4986569829850455 0.1871423337840416 0  0.5609704576146984 0.187092173199964 0  0.6233064139331327 0.1870464147191486 0  0.6856902977698233 0.1870096201492181 0  0.7481604657924454 0.186987484465426 0  0.8107725082817561 0.1869860089780289 0  0.8736030766434421 0.1870092009785162 0  0.9367486749338033 0.187053238903375 0  1.000308107416427 0.187090994938913 0  0 0.25 0  0.06231196263044347 0.2499496408388119 0  0.1246195648433307 0.2498981315850889 0  0.1869185913672926 0.2498443757811729 0  0.2492053279346184 0.2497874160116086 0  0.3114769526959543 0.2497265400451972 0  0.3737321168827069 0.2496614337972783 0  0.4359718007915264 0.2495923989773297 0  0.4982005458792035 0.2495206514393709 0  0.5604281708611977 0.2494487069853468 0  0.6226720607951881 0.2493808360010445 0  0.684960031259599 0.2493235113074831 0  0.7473335212733234 0.2492856589743041 0  0.8098502648964974 0.2492783109755048 0  0.8725843120369162 0.2493129183785666 0  0.9356191034467469 0.2493972369871547 0  0.9990272443352627 0.2495284506761142 0  0 0.3125 0  0.06227301161038795 0.3124390953669777 0  0.1245400962438729 0.3123766157818927 0  0.186795424324916 0.3123110285361772 0  0.2490335784587955 0.3122409209987902 0  0.3112499162601888 0.31216510593219 0  0.3734411478991261 0.3120827882359332 0  0.4356062319784174 0.3119938236732973 0  0.4977477139154362 0.3118991070545349 0  0.5598736397240084 0.3118011312320113 0  0.6220001480627577 0.3117047506219708 0  0.6841547217515588 0.3116181459399767 0  0.7463797764154979 0.3115538872144665 0  0.8087356617816103 0.3115297790414012 0  0.871301214659395 0.3115687980130412 0  0.9341691463517484 0.311696943914968 0  0.9974343989315325 0.3119375163262955 0  0 0.375 0  0.06224013951975183 0.3749301283025629 0  0.124472615243306 0.3748582043281368 0  0.186689764951179 0.374782190408634 0  0.2488841254360535 0.3747001129877852 0  0.3110486894000423 0.3746101432573516 0  0.3731773865540952 0.3745107478792468 0  0.4352659124693665 0.3744009528661785 0  0.4973130686117653 0.3742807832126792 0  0.5593228152579027 0.3741519666377567 0  0.6213072507802158 0.3740190176314899 0  0.6832906641597365 0.3738908324804411 0  0.7453145746005224 0.3737828865020286 0  0.8074431697377012 0.3737199444709323 0  0.8697677817977711 0.373738727328625 0  0.9324084064658089 0.3738890625212035 0  0.9955109671064614 0.3742306902510021 0  0 0.4375 0  0.06221507048204219 0.4374232161689717 0  0.1244206763239465 0.4373438786293821 0  0.1866072112017931 0.4372594037417018 0  0.2487649293349651 0.4371671760798078 0  0.3108840115115833 0.4370645749859576 0  0.3729548381463326 0.4369490672023042 0  0.4349686090874047 0.4368184154367755 0  0.4969185217235135 0.4366710853081364 0  0.5588018164208394 0.4365069855342822 0  0.6206231116497466 0.4363287553051378 0  0.682399541443914 0.4361439182992051 0  0.7441681789579166 0.4359683254210294 0  0.8059959048199523 0.4358312971834767 0  0.867991050724955 0.4357824696549186 0  0.9303148881364228 0.4358990424423991 0  0.9931904626735149 0.4362895166038327 0  0 0.5 0  0.06219956947704445 0.4999188578981912 0  0.1243879739404575 0.4998346831105372 0  0.1865537241885083 0.499744354335667 0  0.248684745290587 0.4996445874302637 0  0.3107681674159171 0.4995318778690526 0  0.3727902651329455 0.4994024867109133 0  0.4347366833779113 0.4992525142514462 0  0.4965931957400659 0.4990781454305991 0  0.5583474169692907 0.4988762246302627 0  0.6199921624878102 0.498645449810413 0  0.6815315203827618 0.4983887029260768 0  0.7429911053181847 0.4981173863273695 0  0.8044341232989606 0.4978590654463379 0  0.8659841409568719 0.49766987525197 0  0.9278529445676116 0.4976519365400964 0  0.9903682731164997 0.4979714507475115 0  0 0.5625 0  0.06219528227368873 0.5624175283690229 0  0.1243780121007285 0.5623316294385942 0  0.1865351092369701 0.562238721513097 0  0.2486523962714733 0.56213490886605 0  0.3107140462448776 0.5620158176968411 0  0.3727020659034152 0.5618764327649972 0  0.4345959146056202 0.5617109556407257 0  0.4963724869916639 0.5615127390991345 0  0.558006933425077 0.5612744246349046 0  0.6194752440136015 0.5609885649648828 0  0.6807603000261935 0.56064933897542 0  0.7418642927917416 0.5602566250011206 0  0.8028318436654606 0.5598249167062168 0  0.8637887114042111 0.5594013665972029 0  0.9249975185483085 0.559098238558298 0  0.9869199815735168 0.5591398435871229 0  0 0.625 0  0.06220353255484744 0.6249196169822079 0  0.1243936765204117 0.6248355662700624 0  0.186556320104837 0.6247439639832377 0  0.2486757495742588 0.6246404661607257 0  0.3107337257314783 0.6245199932439417 0  0.372708427969604 0.6243763980087398 0  0.4345732748298647 0.6242020578950004 0  0.4962957374269424 0.6239873813589084 0  0.5578365160369072 0.6237202506448329 0  0.6191500152190533 0.6233855245213956 0  0.6801882407512195 0.6229650131173438 0  0.7409125658102658 0.6224391235233917 0  0.801321842252984 0.621793411332222 0  0.8615105972385276 0.621038042907503 0  0.9217722142600013 0.6202566248412609 0  0.9827446534053381 0.6197036588032536 0  0 0.6875 0  0.06222509666858986 0.6874253586696443 0  0.1244367493086167 0.6873470295572182 0  0.1866206421191941 0.6872610642053695 0  0.2487604567073566 0.6871629447823971 0  0.3108366171497644 0.6870472173960075 0  0.3728247017099976 0.6869070117049921 0  0.4346933862114026 0.6867333814528889 0  0.4964018067201633 0.6865143705686046 0  0.5578963655105111 0.6862336653291469 0  0.6191074582506361 0.6858686415677415 0  0.6799478698301531 0.6853876150620093 0  0.7403178185394518 0.6847464254332374 0  0.8001291998253179 0.6838862129493463 0  0.8593770948101249 0.6827412878545515 0  0.9183078466853011 0.6812899684422261 0  0.9777139903233578 0.6797227862035788 0  0 0.75 0  0.06225998771958193 0.7499347689077909 0  0.124507432250683 0.7498660984421385 0  0.186728858316335 0.7497902736486973 0  0.2489085988869311 0.7497029678048384 0  0.3110273368361754 0.7495988313652643 0  0.3730601311115457 0.7494709294281852 0  0.4349736271131937 0.7493099284901028 0  0.496722028712025 0.7491028698370966 0  0.558241274681472 0.7488312461588348 0  0.6194408369584261 0.7484678592504537 0  0.6801930899880697 0.7479714568670451 0  0.7403227572981659 0.7472772310170968 0  0.7996080458867191 0.7462799456562094 0  0.8578337980704327 0.7448075522460165 0  0.91501590709868 0.7426104438886747 0  0.9719874813634072 0.7396437150881106 0  0 0.8125 0  0.06230729001634524 0.8124475965966308 0  0.1246039684405521 0.8123922878746883 0  0.1868785525087119 0.8123309151419461 0  0.2491174786129922 0.8122597516058133 0  0.3113036550154736 0.8121741118146447 0  0.3734144074690472 0.8120678063438272 0  0.4354183974727686 0.811932338508127 0  0.4972708207361328 0.8117556725558657 0  0.5589057200652841 0.8115202706101623 0  0.6202234529975101 0.8111998090925367 0  0.6810701569745014 0.8107532861637018 0  0.7412048813039045 0.8101133367094304 0  0.8002521958143088 0.8091600711887974 0  0.8576608503726149 0.8076551799358471 0  0.9128218540876564 0.8050580013826978 0  0.9663400570625149 0.7999217622467066 0  0 0.875 0  0.06236508773330544 0.8749633076175993 0  0.1247224625703183 0.8749245075359945 0  0.1870637340498648 0.8748812981077086 0  0.2493788766797729 0.8748309404011926 0  0.3116550572982122 0.8747699547411696 0  0.373874916006598 0.8746936953951641 0  0.4360138830715701 0.8745957274299156 0  0.4980357860519909 0.8744668925868723 0  0.5598853505977923 0.8742938977879995 0  0.6214748656772473 0.8740571873043955 0  0.6826594491734002 0.873727739347127 0  0.7431890725304193 0.8732620237849463 0  0.8026111488499743 0.8725922202316959 0  0.8600652042150672 0.8715975155560061 0  0.9138537221619637 0.8699876627424616 0  0.9606892817466048 0.8667550173367305 0  0 0.9375 0  0.06243052337430263 0.9374811070042093 0  0.1248569853514637 0.9374611058310799 0  0.1872749539081258 0.9374387833194782 0  0.249679097494703 0.9374126890043685 0  0.3120625286974769 0.9373809701670694 0  0.3744158247966596 0.9373411417199493 0  0.4367254659490181 0.937289755
[...]
<PointData  Vectors="f_54"> 
<DataArray  type="Float64"  Name="f_54"  NumberOfComponents="3" format="ascii">0.0000000000000000e+00 0.0000000000000000e+00 0.0000000000000000e+00  0.0000000000000000e+00 0.0000000000000000e+00 0.0000000000000000e+00  0.0000000000000000e+00 0.0000000000000000e+00 0.0000000000000000e+00  0.0000000000000000e+00 0.0000000000000000e+00 0.0000000000000000e+00  0.0000000000000000e+00 0.0000000000000000e+00 0.0000000000000000e+00  0.0000000000000000e+00 0.0000000000000000e+00 0.0000000000000000e+00  0.0000000000000000e+00 0.0000000000000000e+00 0.0000000000000000e+00  0.0000000000000000e+00 0.0000000000000000e+00 0.0000000000000000e+00  0.0000000000000000e+00 0.0000000000000000e+00 0.0000000000000000e+00  0.0000000000000000e+00 0.0000000000000000e+00 0.0000000000000000e+00  0.0000000000000000e+00 0.0000000000000000e+00 0.0000000000000000e+00  0.0000000000000000e+00 0.0000000000000000e+00 0.0000000000000000e+00  0.0000000000000000e+00 0.0000000000000000e+00 0.0000000000000000e+00  0.0000000000000000e+00 0.0000000000000000e+00 0.0000000000000000e+00  0.0000000000000000e+00 0.0000000000000000e+00 0.0000000000000000e+00  0.0000000000000000e+00 0.0000000000000000e+00 0.0000000000000000e+00  0.0000000000000000e+00 0.0000000000000000e+00 0.0000000000000000e+00  0.0000000000000000e+00 0.0000000000000000e+00 0.0000000000000000e+00  -2.2376280745680228e-06 -1.0867442510711206e-07 0.0000000000000000e+00  -4.5570209641754527e-06 -2.2021106907199682e-07 0.0000000000000000e+00  -7.0433034572890281e-06 -3.3742215643611731e-07 0.0000000000000000e+00  -9.7867109054850830e-06 -4.6290541551648421e-07 0.0000000000000000e+00  -1.2885289797597496e-05 -5.9885185368536564e-07 0.0000000000000000e+00  -1.6447835795423868e-05 -7.4673733365290262e-07 0.0000000000000000e+00  -2.0597481815987691e-05 -9.0683945818669033e-07 0.0000000000000000e+00  -2.5477060098944434e-05 -1.0775033341972406e-06 0.0000000000000000e+00  -3.1259264043119759e-05 -1.2540499735395870e-06 0.0000000000000000e+00  -3.8169777818563830e-05 -1.4271466933504914e-06 0.0000000000000000e+00  -4.6545954570954632e-05 -1.5801987560631080e-06 0.0000000000000000e+00  -5.6996376591691182e-05 -1.6842879426515547e-06 0.0000000000000000e+00  -7.0862836877518429e-05 -1.6849026617812240e-06 0.0000000000000000e+00  -9.1655911720334092e-05 -1.4563975026599015e-06 0.0000000000000000e+00  -1.2989375282733390e-04 -6.1856961205692864e-07 0.0000000000000000e+00  -2.2099585872120323e-04 2.2760215397296738e-06 0.0000000000000000e+00  0.0000000000000000e+00 0.0000000000000000e+00 0.0000000000000000e+00  -4.3889345434236461e-06 -2.1426630380925727e-07 0.0000000000000000e+00  -8.9384551182911982e-06 -4.3433270614826213e-07 0.0000000000000000e+00  -1.3815692100663095e-05 -6.6592807181055455e-07 0.0000000000000000e+00  -1.9197846713073264e-05 -9.1442370817376088e-07 0.0000000000000000e+00  -2.5277423759897098e-05 -1.1844970730644422e-06 0.0000000000000000e+00  -3.2267706115911335e-05 -1.4795783514698341e-06 0.0000000000000000e+00  -4.0408873377236130e-05 -1.8009692129521511e-06 0.0000000000000000e+00  -4.9975870334259281e-05 -2.1464931588565922e-06 0.0000000000000000e+00  -6.1290930089352708e-05 -2.5085069577525345e-06 0.0000000000000000e+00  -7.4748041743875104e-05 -2.8710855642553115e-06 0.0000000000000000e+00  -9.0866891273474004e-05 -3.2062313591858859e-06 0.0000000000000000e+00  -1.1041620005660413e-04 -3.4692691468371579e-06 0.0000000000000000e+00  -1.3468796269020520e-04 -3.5954331622794295e-06 0.0000000000000000e+00  -1.6603809242402782e-04 -3.5103453923443396e-06 0.0000000000000000e+00  -2.0853362076895848e-04 -3.2281681742409180e-06 0.0000000000000000e+00  -2.6590911483132527e-04 -3.4592115689464991e-06 0.0000000000000000e+00  0.0000000000000000e+00 0.0000000000000000e+00 0.0000000000000000e+00  -6.3742739848979953e-06 -3.1379715325188845e-07 0.0000000000000000e+00  -1.2982588309850272e-05 -6.3646653208437369e-07 0.0000000000000000e+00  -2.0068430514186236e-05 -9.7684004198014078e-07 0.0000000000000000e+00  -2.7890162407435718e-05 -1.3433798352787149e-06 0.0000000000000000e+00  -3.6728622356869800e-05 -1.7437857530398652e-06 0.0000000000000000e+00  -4.6894752547040344e-05 -2.1843112726396998e-06 0.0000000000000000e+00  -5.8737232507854811e-05 -2.6686313750561567e-06 0.0000000000000000e+00  -7.2650183127880336e-05 -3.1960576413315437e-06 0.0000000000000000e+00  -8.9081288053594564e-05 -3.7588499295325331e-06 0.0000000000000000e+00  -1.0854121919505386e-04 -4.3383628837204303e-06 0.0000000000000000e+00  -1.3161547389445785e-04 -4.8998684963022133e-06 0.0000000000000000e+00  -1.5897593608543996e-04 -5.3862790938868671e-06 0.0000000000000000e+00  -1.9136572469873552e-04 -5.7118604657140390e-06 0.0000000000000000e+00  -2.2942985657628396e-04 -5.7574209747266122e-06 0.0000000000000000e+00  -2.7291456448041014e-04 -5.3560588754927159e-06 0.0000000000000000e+00  -3.1783624061030891e-04 -4.1358776210810938e-06 0.0000000000000000e+00  0.0000000000000000e+00 0.0000000000000000e+00 0.0000000000000000e+00  -8.1195501875569394e-06 -4.0416117945488473e-07 0.0000000000000000e+00  -1.6538855576977399e-05 -8.2039765663864186e-07 0.0000000000000000e+00  -2.5569670606574539e-05 -1.2608421107688022e-06 0.0000000000000000e+00  -3.5543325891743342e-05 -1.7374170649014111e-06 0.0000000000000000e+00  -4.6820693446917959e-05 -2.2615045109724242e-06 0.0000000000000000e+00  -5.9802003064331484e-05 -2.8432895357330111e-06 0.0000000000000000e+00  -7.4936020247279157e-05 -3.4905856712930470e-06 0.0000000000000000e+00  -9.2727486374793530e-05 -4.2068708838191180e-06 0.0000000000000000e+00  -1.1374049694458828e-04 -4.9881658139769715e-06 0.0000000000000000e+00  -1.3859286687054341e-04 -5.8182949739810227e-06 0.0000000000000000e+00  -1.6793051659442056e-04 -6.6620606471768514e-06 0.0000000000000000e+00  -2.0235652855646766e-04 -7.4561012967228419e-06 0.0000000000000000e+00  -2.4225505078061371e-04 -8.0980487521517968e-06 0.0000000000000000e+00  -2.8737259981073931e-04 -8.4367279716032611e-06 0.0000000000000000e+00  -3.3587549815177956e-04 -8.2720903096296185e-06 0.0000000000000000e+00  -3.8248382291907113e-04 -7.4037121814583515e-06 0.0000000000000000e+00  0.0000000000000000e+00 0.0000000000000000e+00 0.0000000000000000e+00  -9.5586932587630526e-06 -4.8213236530486769e-07 0.0000000000000000e+00  -1.9472783356533614e-05 -9.7959019384559872e-07 0.0000000000000000e+00  -3.0111803187812060e-05 -1.5079231609297793e-06 0.0000000000000000e+00  -4.1869467156206454e-05 -2.0828162363540507e-06 0.0000000000000000e+00  -5.5176146033753688e-05 -2.7199566930348611e-06 0.0000000000000000e+00  -7.0511367880456895e-05 -3.4345966424675749e-06 0.0000000000000000e+00  -8.8415713457484172e-05 -4.2406063046346103e-06 0.0000000000000000e+00  -1.0950052310246432e-04 -5.1486984603409844e-06 0.0000000000000000e+00  -1.3445192154772347e-04 -6.1633293168337735e-06 0.0000000000000000e+00  -1.6402185739055046e-04 -7.2775330891166096e-06 0.0000000000000000e+00  -1.9899136051786150e-04 -8.4646446037864069e-06 0.0000000000000000e+00  -2.4007693146540634e-04 -9.6656209030253766e-06 0.0000000000000000e+00  -2.8772554174384413e-04 -1.0770858238337769e-05 0.0000000000000000e+00  -3.4170531881645521e-04 -1.1596978856577065e-05 0.0000000000000000e+00  -4.0036580708768875e-04 -1.1864252493878887e-05 0.0000000000000000e+00  -4.5950311639725099e-04 -1.1192809572279764e-05 0.0000000000000000e+00  0.0000000000000000e+00 0.0000000000000000e+00 0.0000000000000000e+00  -1.0636063445680278e-05 -5.4445154221989750e-07 0.0000000000000000e+00  -2.1670814166845566e-05 -1.1073558512599752e-06 0.0000000000000000e+00  -3.3518698468181791e-05 -1.7076131064985355e-06 0.0000000000000000e+00  -4.6622676290508961e-05 -2.3647690168271595e-06 0.0000000000000000e+00  -6.1469328513595278e-05 -3.0992094279193089e-06 0.0000000000000000e+00  -7.8604658368860265e-05 -3.9321418784258014e-06 0.0000000000000000e+00  -9.8650321970137291e-05 -4.8851896164007320e-06 0.0000000000000000e+00  -1.2231922367321259e-04 -5.9792887012056673e-06 0.0000000000000000e+00  -1.5042776139784935e-04 -7.2323365573438163e-06 0.0000000000000000e+00  -1.8389873171366028e-04 -8.6546165358102256e-06 0.0000000000000000e+00  -2.2374272521821615e-04 -1.0240315951285405e-05 0.0000000000000000e+00  -2.7099501887819637e-04 -1.1952377096085252e-05 0.0000000000000000e+00  -3.2656828487462796e-04 -1.3696559125073312e-05 0.0000000000000000e+00  -3.9096199413894814e-04 -1.5279599634344074e-05 0.0000000000000000e+00  -4.6376426268347119e-04 -1.6347467615760696e-05 0.0000000000000000e+00  -5.4293557552115518e-04 -1.6304633354506104e-05 0.0000000000000000e+00  0.0000000000000000e+00 0.0000000000000000e+00 0.0000000000000000e+00  -1.1308748864856945e-05 -5.8799846712185413e-07 0.0000000000000000e+00  -2.3044997369429170e-05 -1.1972091356612193e-06 0.0000000000000000e+00  -3.5652967073107070e-05 -1.8495425082175901e-06 0.0000000000000000e+00  -4.9609036099202084e-05 -2.5681683474274445e-06 0.0000000000000000e+00  -6.5439314666637007e-05 -3.3781327184732951e-06 0.0000000000000000e+00  -8.3738968223529635e-05 -4.3069239245287063e-06 0.0000000000000000e+00  -1.0519383240716827e-04 -5.3849019831727803e-06 0.0000000000000000e+00  -1.3060464875612173e-04 -6.6453952375155571e-06 0.0000000000000000e+00  -1.6091362096215523e-04 -8.1240295223535717e-06 0.0000000000000000e+00  -1.9723144646499727e-04 -9.8563546753985834e-06 0.0000000000000000e+00  -2.4085958541134709e-04 -1.1871814262964403e-05 0.0000000000000000e+00  -2.9329579894355043e-04 -1.4180136412308552e-05 0.0000000000000000e+00  -3.5619926716704367e-04 -1.6742747844908501e-05 0.0000000000000000e+00  -4.3127536619709826e-04 -1.9416627844682885e-05 0.0000000000000000e+00  -5.2002843798676422e-04 -2.1852818134584802e-05 0.0000000000000000e+00  -6.2334846155300504e-04 -2.3332183441218798e-05 0.0000000000000000e+00  0.0000000000000000e+00 0.0000000000000000e+00 0.0000000000000000e+00  -1.1548650723729307e-05 -6.1003705939058907e-07 0.0000000000000000e+00  -2.3537353518740589e-05 -1.2433871182243156e-06 0.0000000000000000e+00  -3.6423021048663843e-05 -1.9242984168924158e-06 0.0000000000000000e+00  -5.0697084586563102e-05 -2.6788974543575298e-06 0.0000000000000000e+00  -6.6904867848425185e-05 -3.5362537586349191e-06 0.0000000000000000e+00  -8.5667811501260901e-05 -4.5296013654545700e-06 0.0000000000000000e+00  -1.0771007640263022e-04 -5.6977760879607565e-06 0.0000000000000000e+00  -1.3389167305910186e-04 -7.0869032945226313e-06 0.0000000000000000e+00  -1.6525114609476361e-04 -8.7522643592219709e-06 0.0000000000000000e+00  -2.0306189631757565e-04 -1.0759936162856108e-05 0.0000000000000000e+00  -2.4890695545644169e-04 -1.3186887294475190e-05 0.0000000000000000e+00  -3.0477593641596356e-04 -1.6115937606211906e-05 0.0000000000000000e+00  -3.7318151394218589e-04 -1.9616738891344312e-05 0.0000000000000000e+00  -4.5727577770604284e-04 -2.3693122025629945e-05 0.0000000000000000e+00  -5.6091867709008873e-04 -2.8159304192395149e-05 0.0000000000000000e+00  -6.8863763249432945e-04 -3.2393403358155422e-05 0.0000000000000000e+00  0.0000000000000000e+00 0.0000000000000000e+00 0.0000000000000000e+00  -1.1344159381952047e-05 -6.0850365950247436e-07 0.0000000000000000e+00  -2.3123490139924194e-05 -1.2414711909783061e-06 0.0000000000000000e+00  -3.5789223395662821e-05 -1.9244781539596449e-06 0.0000000000000000e+00  -4.9827598210888325e-05 -2.6854838758694620e-06 0.0000000000000000e+00  -6.5779798925052736e-05 -3.5562738499136970e-06 0.0000000000000000e+00  -8.4265440248957116e-05 -4.5742580394915683e-06 0.0000000000000000e+00  -1.0601189102713094e-04 -5.7848469820012642e-06 0.0000000000000000e+00  -1.3189315471148641e-04 -7.2447396713269419e-06 0.0000000000000000e+00  -1.6298451614854147e-04 -9.0266126179141879e-06 0.0000000000000000e+00  -2.0064331365294731e-04 -1.1225851939105330e-05 0.0000000000000000e+00  -2.4663257711371949e-04 -1.3969900656722177e-05 0.0000000000000000e+00  -3.0331262326741898e-04 -1.7429742782267936e-05 0.0000000000000000e+00  -3.7393244940875944e-04 -2.1828701039155937e-05 0.0000000000000000e+00  -4.6304585710254224e-04 -2.7429695900413593e-05 0.0000000000000000e+00  -5.7703577146688326e-04 -3.4443353732596480e-05 0.0000000000000000e+00  -7.2468622883144283e-04 -4.2713425797105124e-05 0.0000000000000000e+00  0.0000000000000000e+00 0.0000000000000000e+00 0.0000000000000000e+00  -1.0701166979229273e-05 -5.8229255767114530e-07 0.0000000000000000e+00  -2.1814885581706093e-05 -1.1890114604585108e-06 0.0000000000000000e+00  -3.3768037882829854e-05 -1.8457716721299490e-06 0.0000000000000000e+00  -4.7020767790430762e-05 -2.5808544660091602e-06 0.0000000000000000e+00  -6.2085347732320205e-05 -3.4268607878466284e-06 0.0000000000000000e+00  -7.9548476342526843e-05 -4.4228390482955878e-06 0.0000000000000000e+00  -1.0009942263797038e-04 -5.6172212454042576e-06 0.0000000000000000e+00  -1.2456826972311242e-04 -7.0721388329723335e-06 0.0000000000000000e+00  -1.5398208956709359e-04 -8.8701335247577430e-06 0.0000000000000000e+00  -1.8965371958639193e-04 -1.1125090142516138e-05 0.0000000000000000e+00  -2.3333050557947069e-04 -1.4000636582218460e-05 0.0000000000000000e+00  -2.8745275919206219e-04 -1.7741470527016697e-05 0.0000000000000000e+00  -3.5560705415043861e-04 -2.2725471698781665e-05 0.0000000000000000e+00  -4.4329931126274076e-04 -2.9542149858974621e-05 0.0000000000000000e+00  -5.5915315630446010e-04 -3.9072466042614081e-05 0.0000000000000000e+00  -7.1640965860361608e-04 -5.2389065382876870e-05 0.0000000000000000e+00  0.0000000000000000e+00 0.0000000000000000e+00 0.0000000000000000e+00  -9.6431817488162049e-06 -5.3148574256616494e-07 0.0000000000000000e+00  -1.9659275292531354e-05 -1.0860346549838552e-06 0.0000000000000000e+00  -3.0433053430636043e-05 -1.6878575202337743e-06 0.0000000000000000e+00  -4.2378628489433043e-05 -2.3638262108968869e-06 0.0000000000000000e+00  -5.5955595157603500e-05 -3.1451104073274506e-06 0.0000000000000000e+00  -7.1687511690901218e-05 -4.0692692806864140e-06 0.0000000000000000e+00  -9.0184343766740323e-05 -5.1831199605107193e-06 0.0000000000000000e+00  -1.1217195792694368e-04 -6.5469629785562054e-06 0.0000000000000000e+00  -1.3853505310085036e-04 -8.2412943799545166e-06 0.0000000000000000e+00  -1.7038732712385460e-04 -1.0378326625459130e-05 0.0000000000000000e+00  -2.0919915439967729e-04 -1.3123264054095776e-05 0.0000000000000000e+00  -2.5704931783706637e-04 -1.6736095696993041e-05 0.0000000000000000e+00  -3.1714574993922982e-04 -2.1657589381352611e-05 0.0000000000000000e+00  -3.9491969729761990e-04 -2.8691459274154630e-05 0.0000000000000000e+00  -5.0023101422043859e-04 -3.9391874994095343e-05 0.0000000000000000e+00  -6.5089656936331180e-04 -5.6884325970740370e-05 0.0000000000000000e+00  0.0000000000000000e+00 0.0000000000000000e+00 0.0000000000000000e+00  -8.2104228342994420e-06 -4.5747986194716290e-07 0.0000000000000000e+00  -1.6738820134541871e-05 -9.3532694899013185e-07 0.0000000000000000e+00  -2.5912171020755034e-05 -1.4549068402331719e-06 0.0000000000000000e+00  -3.6081234281278387e-05 -2.0399582705060708e-06 0.0000000000000000e+00  -4.7632784644051814e-05 -2.7179930597174966e-06 0.0000000000000000e+00  -6.1002372400043186e-05 -3.5219920238152835e-06 0.0000000000000000e+00  -7.6687597369396726e-05 -4.4925576674133850e-06 0.0000000000000000e+00  -9.5262000019623365e-05 -5.6807941578678638e-06 0.0000000000000000e+00  -1.1739063754518910e-04 -7.1524667051478457e-06 0.0000000000000000e+00  -1.4385221188222924e-04 -8.9947535947655330e-06 0.0000000000000000e+00  -1.7558488449999983e-04 -1.1329011796928138e-05 0.0000000000000000e+00  -2.1380931079018542e-04 -1.4338889128869066e-05 0.0000000000000000e+00  -2.6038707870635084e-04 -1.8339933902489970e-05 0.0000000000000000e+00  -3.1887619352557550e-04 -2.3965628569776783e-05 0.0000000000000000e+00  -3.9763793681095965e-04 -3.2682590235367244e-05 0.0000000000000000e+00  -5.1815342998824806e-04 -4.7990101257461589e-05 0.0000000000000000e+00  0.0000000000000000e+00 0.0000000000000000e+00 0.0000000000000000e+00  -6.4579591721096107e-06 -3.6298390908168905e-07 0.0000000000000000e+00  -1.3166164860081852e-05 -7.4242904317744205e-07 0.0000000000000000e+00  -2.0381048891947975e-05 -1.1555713558616563e-06 0.0000000000000000e+00  -2.8376494215457638e-05 -1.6215217521337687e-06 0.0000000000000000e+00  -3.7451848150367041e-05 -2.1622901847080492e-06 0.0000000000000000e+00  -4.7938624078490038e-05 -2.8038830130686089e-06 0.0000000000000000e+00  -6.0204004783556189e-05 -3.5773943034630488e-06 0.0000000000000000e+00  -7.4647391361200072e-05 -4.5198496659174175e-06 0.0000000000000000e+00  -9.1683068965804431e-05 -5.6742421750500046e-06 0.0000000000000000e+00  -1.1169743788251281e-04 -7.0876390922760807e-06 0.0000000000000000e+00  -1.3496513630148273e-04 -8.8054952221263625e-06 0.0000000000000000e+00  -1.6151536404228553e-04 -1.0860442203411359e-05 0.0000000000000000e+00  -1.9099998248847124e-04 -1.3260950313531594e-05 0.0000000000000000e+00  -2.2288917725651086e-04 -1.6029821032059632e-05 0.0000000000000000e+00  -2.5850414729046450e-04 -1.9582100228824087e-05 0.0000000000000000e+00  -3.1285774071709155e-04 -2.7251158158126207e-05 0.0000000000000000e+00  0.0000000000000000e+00 0.0000000000000000e+00 0.0000000000000000e+00  -4.4531480633574320e-06 -2.5189070606052419e-07 0.0000000000000000e+00  -9.0789640734623142e-06 -5.1535123333176014e-07 0.0000000000000000e+00  -1.4053854357267776e-05 -8.0247007458458245e-07 0.0000000000000000e+00  -1.9565430656131616e-05 -1.1266056329931025e-06 0.0000000000000000e+00  -2.5816902270543799e-05 -1.5030118532662633e-06 0.0000000000000000e+00  -3.3029219118037088e-05 -1.9493744275511491e-06 0.0000000000000000e+00  -4.1438007159778946e-05 -2.4860117164628257e-06 0.0000000000000000e+00  -5.1278981420648260e-05 -3.1351255691095020e-06 0.0000000000000000e+00  -6.2748581242372283e-05 -3.9176494468990115e-06 0.0000000000000000e+00  -7.5912452428549866e-05 -4.8443267807679324e-06 0.0000000000000000e+00  -9.0506672174419021e-05 -5.8931893917571229e-06 0.0000000000000000e+00  -1.0552643356949310e-04 -6.9549055699461725e-06 0.0000000000000000e+00  -1.1842463635949761e-04 -7.7018469459415475e-06 0.0000000000000000e+00  -1.2373032942528781e-04 -7.2856360337609413e-06 0.0000000000000000e+00  -1.1150268141651806e-04 -3.7663207751496745e-06 0.0000000000000000e+00  -7.0063920130162218e-05 6.1484388350723559e-06 0.0000000000000000e+00  0.0000000000000000e+00 0.0000000000000000e+00 0.0000000000000000e+00  -2.2727424249160259e-06 -1.2905218300772514e-07 0.0000000000000000e+00  -4.6337549379821160e-06 -2.6408290790489406e-07 0.0000000000000000e+00  -7.1730588530621397e-06 -4.1132989475710389e-07 0.0000000000000000e+00  -9.9861409643015962e-06 -5.7766897399830498e-07 0.0000000000000000e+00  -1.3175793512826041e-05 -7.7090050023306918e-07 0.0000000000000000e+00  -1.6852253972746127e-05 -9.9993181607536831e-07 0.0000000000000000e+00  -2.1129361905776225e-05 -1.2746480079636552e-06 0.0000000000000000e+00  -2.6111606993077425e-05 -1.6049662213808559e-06 0.0000000000000000e+00  -3.1860504568772787e-05 -1.9979095727107838e-06 0.0000000000000000e+00  -3.8314045524605027e-05 -2.4501557680912605e-06 0.0000000000000000e+00  -4.5099799480652582e-05 -2.9310100591372648e-06 0.0000000000000000e+00  -5.1111879273260984e-05 -3.3480706786935810e-06 0.0000000000000000e+00  -5.3603222395092069e-05 -3.4945266012268253e-06 0.0000000000000000e+00  -4.6522985124326284e-05 -3.0366868218272035e-06 0.0000000000000000e+00  -1.8943941940640295e-05 -1.8234247906384830e-06 0.0000000000000000e+00  3.9620403753191318e-05 -1.0204678623419950e-06 0.0000000000000000e+00  0.0000000000000000e+00 0.0000000000000000e+00 0.0000000000000000e+00  0.0000000000000000e+00 0.0000000000000000e+00 0.0000000000000000e+00  0.0000000000000000e+00 0.0000000000000000e+00 0.0000000000000000e+00  0.0000000000000000e+00 0.0000000000000000e+00 0.0000000000000000e+00  0.0000000000000000e+00 0.0000000000000000e+00 0.0000000000000000e+00  0.0000000000000000e+00 0.