<?xml version="1.0"?>
<VTKFile type="UnstructuredGrid"  version="0.1"  >
<UnstructuredGrid>
<Piece  NumberOfPoints="289" NumberOfCells="512">
<Points>
<DataArray  type="Float64"  NumberOfComponents="3"  format="ascii">0 0 0  0.0625 0 0  0.125 0 0  0.1875 0 0  0.25 0 0  0.3125 0 0  0.375 0 0  0.4375 0 0  0.5 0 0  0.5625 0 0  0.625 0 0  0.6875 0 0  0.75 0 0  0.8125 0 0  0.875 0 0  0.9375 0 0  1 0 0  0 0.0625 0  0.06251324268972439 0.06247139195921156 0  0.1250271446281956 0.06244227117062544 0  0.187542388551608 0.06241216101012512 0  0.2500597627522403 0.06238068940357298 0  0.3125802329672162 0.06234765658595721 0  0.3751050452404764 0.06231312009532458 0  0.4376358842634092 0.06227749797633666 0  0.5001751325851864 0.06224168399049755 0  0.5627263204641021 0.06220715546739516 0  0.6252949557548846 0.06217603253295843 0  0.6878901607205622 0.06215101533044574 0  0.7505281384356909 0.06213508912404969 0  0.8132400187202102 0.06213087929056003 0  0.8760903737949932 0.06213970992212181 0  0.9392197571241808 0.06216161706671042 0  1.002917897388105 0.06220770225375569 0  0 0.125 0  0.06252580222272459 0.1249432683948921 0  0.1250528892997705 0.1248854578693252 0  0.187582597036307 0.1248255561450102 0  0.2501164736968489 0.1247627475776837 0  0.3126564254265293 0.1246965446975443 0  0.3752049237152887 0.1246269584591937 0  0.4377653208948893 0.1245547131816538 0  0.5003423541556825 0.1244815002527294 0  0.5629429855195908 0.1244102410814017 0  0.6255778568116045 0.1243452875446042 0  0.6882638954377251 0.1242924206157282 0  0.7510290770744674 0.1242584183624307 0  0.8139210427230787 0.1242499024003969 0  0.8770215264340304 0.1242713499085953 0  0.9404654148113346 0.1243232100298058 0  1.004455478398173 0.1244027386244078 0  0 0.1875 0  0.06253710587290547 0.1874162091548005 0  0.1250760361195612 0.1873306768966455 0  0.1876186926625542 0.1872417471822618 0  0.2501672798102068 0.1871480256693723 0  0.3127245103745631 0.1870485644066914 0  0.3752938962371516 0.186943112941468 0  0.4378801798483639 0.1868324540271692 0  0.5004899964691876 0.1867188309229768 0  0.5631329112343525 0.1866064465461 0  0.6258230570159569 0.1865019588481413 0  0.6885816988073612 0.1864147884052535 0  0.7514410816062279 0.1863568485039248 0  0.8144495430712364 0.1863408905316778 0  0.8776761553612951 0.1863756333285237 0  0.9412086850890351 0.1864526793600594 0  1.005134119315604 0.1865093914780252 0  0 0.25 0  0.0625466688422396 0.2498908887138116 0  0.1250955711157271 0.2497792482357394 0  0.1876490393166012 0.2496626347497543 0  0.2502097666681164 0.2495388871355312 0  0.3127810515728316 0.2494063439065217 0  0.3753671380618356 0.249264159063469 0  0.4379737099430634 0.2491127557371708 0  0.5006086203143824 0.2489544545221978 0  0.5632829651310718 0.2487942976176392 0  0.6260126228396425 0.2486410429929854 0  0.6888203296415237 0.2485081922069433 0  0.7517381073007926 0.2484146813666175 0  0.8148091253740338 0.248384401631439 0  0.8780864819076758 0.2484428756794574 0  0.9416241679616221 0.2486082815972683 0  1.005455722849931 0.2488748380281571 0  0 0.3125 0  0.06255412194498179 0.3123681032634182 0  0.1251107264700609 0.3122327574038371 0  0.1876724086775992 0.3120905729863703 0  0.2502421422356467 0.3119384020150259 0  0.3128235357158582 0.3117735523879963 0  0.3754211883315687 0.311594132323478 0  0.438041202083454 0.3113995905384027 0  0.5006919254072852 0.3111915348636866 0  0.5633850145557939 0.3109749251095575 0  0.6261368772766787 0.3107597296377255 0  0.6889704511228922 0.3105630739970096 0  0.7519169622017939 0.3104117234287849 0  0.815016693058793 0.3103443086623384 0  0.8783169689257371 0.3104118873760937 0  0.941865655669835 0.3106742879704112 0  1.005702996883712 0.3111889793563894 0  0 0.375 0  0.06255922567032744 0.3748487755707655 0  0.12512101284139 0.3746930733809015 0  0.1876880390303856 0.3745284186119284 0  0.2502633341635388 0.3743504589831286 0  0.3128505212759365 0.3741551269101418 0  0.3754541545845985 0.3739389502194699 0  0.4380802155616459 0.3736996034471549 0  0.5007368519892552 0.3734368349394518 0  0.5634354677738667 0.3731539640047144 0  0.626192271185984 0.372860211416002 0  0.6890303193038483 0.3725741780971308 0  0.7519818810467367 0.3723287412418632 0  0.8150905241112759 0.3721773154968011 0  0.8784118845976117 0.3722005292326566 0  0.9420125151878352 0.3725106347336135 0  1.005969779032911 0.3732487335077652 0  0 0.4375 0  0.06256187090875999 0.437333929805288 0  0.1251262220813727 0.4371623046369272 0  0.1876956422713762 0.4369794833190668 0  0.2502730037685716 0.4367797442192045 0  0.3128616594732688 0.4365573337570507 0  0.3754657284199596 0.43630665585495 0  0.4380905383835202 0.4360227087486659 0  0.5007433391284197 0.4357019456282599 0  0.5634344672520298 0.4353438490985466 0  0.6261792310525001 0.434953683511008 0  0.6890008672695092 0.4345471291942869 0  0.7519349322010134 0.4341577565457041 0  0.8150353041340522 0.4338483453588776 0  0.8783815034464904 0.4337263347109402 0  0.942086641098324 0.4339613528801076 0  1.006306863237604 0.4347989415996727 0  0 0.5 0  0.06256206857141118 0.4998246305254628 0  0.1251264048409036 0.4996426788928846 0  0.187695366610872 0.4994473604351132 0  0.2502714902438141 0.4992315324053828 0  0.3128576163373455 0.4989875660589395 0  0.3754570814502184 0.4987073139354026 0  0.4380740487883978 0.4983822681820402 0  0.500714124221027 0.4980040913621903 0  0.5633855421887165 0.4975658581936163 0  0.6261014485654554 0.4970646289038509 0  0.6888841892970524 0.4965064622747276 0  0.75177300531215 0.4959157442311111 0  0.8148369001956014 0.4953516608549019 0  0.8781940621176996 0.4949350010067666 0  0.9420373379548371 0.4948859051998767 0  1.00666359337114 0.4955645822661183 0  0 0.5625 0  0.06255993118465845 0.5623218846322973 0  0.1251218291529538 0.5621363413056349 0  0.1876877239389026 0.5619356095593679 0  0.2502596968775793 0.5617112491794872 0  0.3128399112401734 0.5614537881644768 0  0.3754306648757565 0.5611523782636922 0  0.4380345236855205 0.5607945085805274 0  0.5006546879334968 0.5603659032209179 0  0.5632959517885551 0.5598508879250353 0  0.6259670535991786 0.5592338445910032 0  0.6886860577576239 0.5585030697664382 0  0.7514918377020163 0.5576597694535613 0  0.8144666062062673 0.5567375627139106 0  0.8777754608303195 0.5558416433555834 0  0.9417256697962921 0.5552177695596759 0  1.006837823708573 0.5553483855733289 0  0 0.625 0  0.06255564964949602 0.6248265124084569 0  0.1251129262328833 0.624645081370633 0  0.1876734900791085 0.6244473086063801 0  0.2502389256398602 0.6242238022980692 0  0.3128106663069355 0.6239635879894583 0  0.3753898734392306 0.6236534080295902 0  0.437977281983607 0.6232768808817937 0  0.5005731037720161 0.622813522235546 0  0.5631773028183841 0.622237720627778 0  0.6257911300726922 0.6215180086590422 0  0.6884221574755425 0.6206176345890492 0  0.7510979406713285 0.6194992039925195 0  0.8138986979570979 0.6181407606816838 0  0.8770259729666126 0.6165815022424376 0  0.9409239889947998 0.6150314547372 0  1.006451771852981 0.6140630737519158 0  0 0.6875 0  0.06254946832656445 0.6873390027567472 0  0.1251002302446214 0.6871700191123864 0  0.1876535878178712 0.6869845191817183 0  0.250210668674677 0.6867727397309529 0  0.3127722581606305 0.6865228959823041 0  0.3753385067362447 0.6862201582573317 0  0.4379084459485617 0.6858452693648663 0  0.5004792554121205 0.6853726370227468 0  0.5630453372702267 0.6847676899406507 0  0.6255977188954231 0.6839832749782101 0  0.6881257997673068 0.6829550575372521 0  0.750627709377182 0.6815969156803277 0  0.81314628927674 0.6798017711133721 0  0.8758697321242295 0.6774712750023018 0  0.9393536905140532 0.6746621800807304 0  1.00489087119074 0.671991328224688 0  0 0.75 0  0.06254166186007587 0.7498593762267595 0  0.1250843207168648 0.7497113012831568 0  0.1876289694765368 0.7495477503898885 0  0.2501763828650287 0.7493593649788938 0  0.3127268997799605 0.749134558841421 0  0.3752800203180064 0.7488582977728 0  0.4378336654884291 0.7485103490617576 0  0.500382842430954 0.7480626848508717 0  0.5629173181831498 0.7474755306225236 0  0.6254178471305785 0.7466912108937458 0  0.6878510892892007 0.7456243358996228 0  0.7501668009812443 0.7441458489880685 0  0.8123148474972189 0.7420575022917604 0  0.874348459162881 0.7390589407856963 0  0.9368189994879975 0.7347773373924291 0  1.001338035950965 0.7296082411190723 0  0 0.8125 0  0.06253251749947865 0.8123870844002787 0  0.1250657787867526 0.8122678713229479 0  0.1876005256424915 0.8121355346687205 0  0.2501373032767677 0.8119819992524742 0  0.312676256142509 0.8117970773521584 0  0.3752167300467317 0.8115672533506512 0  0.4377564860957668 0.8112738817227945 0  0.5002901301564069 0.8108904184044573 0  0.5628059421594686 0.8103780450249138 0  0.6252794495554365 0.8096785512507289 0  0.6876605818082187 0.8087023019637771 0  0.7498494435315276 0.8073066172404776 0  0.8116586530752198 0.8052531517637519 0  0.8727986825234959 0.8021141512676186 0  0.9331830555865309 0.7970520886786605 0  0.9960933992644944 0.7883365305279005 0  0 0.875 0  0.06252232624807022 0.8749209729250137 0  0.1250451683774128 0.8748373757826035 0  0.1875690506856235 0.8747442323920246 0  0.2500943719761148 0.8746355969871318 0  0.3126212708618018 0.8745038707239911 0  0.375149351852161 0.874338821996004 0  0.4376771141814814 0.8741261077019349 0  0.5002007251944193 0.8738449664450515 0  0.5627112914937148 0.8734645410007821 0  0.6251885530808595 0.8729379280393973 0  0.6875857776977873 0.872192413379413 0  0.7497925426906416 0.8711128695598891 0  0.8115418917394105 0.869509820682452 0  0.8721822099412624 0.8670370694646452 0  0.9301521190975279 0.8628957327539207 0  0.9819871720770795 0.8546238639421383 0  0 0.9375 0  0.06251138399859794 0.937459326645071 0  0.1250230471999253 0.9374162510724112 0  0.1875352824347326 0.9373681507473107 0  0.2500483374959862 0.9373118740169277 0  0.3125623658622325 0.9372433630038519 0  0.3750773225628692 0.9371571076269476 0  0.4375927379807337 0.937045313596
[...]
<PointData  Vectors="f_54"> 
<DataArray  type="Float64"  Name="f_54"  NumberOfComponents="3" format="ascii">0.0000000000000000e+00 0.0000000000000000e+00 0.0000000000000000e+00  0.0000000000000000e+00 0.0000000000000000e+00 0.0000000000000000e+00  0.0000000000000000e+00 0.0000000000000000e+00 0.0000000000000000e+00  0.0000000000000000e+00 0.0000000000000000e+00 0.0000000000000000e+00  0.0000000000000000e+00 0.0000000000000000e+00 0.0000000000000000e+00  0.0000000000000000e+00 0.0000000000000000e+00 0.0000000000000000e+00  0.0000000000000000e+00 0.0000000000000000e+00 0.0000000000000000e+00  0.0000000000000000e+00 0.0000000000000000e+00 0.0000000000000000e+00  0.0000000000000000e+00 0.0000000000000000e+00 0.0000000000000000e+00  0.0000000000000000e+00 0.0000000000000000e+00 0.0000000000000000e+00  0.0000000000000000e+00 0.0000000000000000e+00 0.0000000000000000e+00  0.0000000000000000e+00 0.0000000000000000e+00 0.0000000000000000e+00  0.0000000000000000e+00 0.0000000000000000e+00 0.0000000000000000e+00  0.0000000000000000e+00 0.0000000000000000e+00 0.0000000000000000e+00  0.0000000000000000e+00 0.0000000000000000e+00 0.0000000000000000e+00  0.0000000000000000e+00 0.0000000000000000e+00 0.0000000000000000e+00  0.0000000000000000e+00 0.0000000000000000e+00 0.0000000000000000e+00  0.0000000000000000e+00 0.0000000000000000e+00 0.0000000000000000e+00  4.3305809885923214e-06 1.3993416566672899e-07 0.0000000000000000e+00  8.7703400674908237e-06 2.8082643689068193e-07 0.0000000000000000e+00  1.3429463548875706e-05 4.2331933350949389e-07 0.0000000000000000e+00  1.8411916144656764e-05 5.6713964871215627e-07 0.0000000000000000e+00  2.3810482315660959e-05 7.1055852337237741e-07 0.0000000000000000e+00  2.9699251050670779e-05 8.4977067396066541e-07 0.0000000000000000e+00  3.6122511664859385e-05 9.7820949184061395e-07 0.0000000000000000e+00  4.3078931602221394e-05 1.0858585476352672e-06 0.0000000000000000e+00  5.0499869251386500e-05 1.1586641832706901e-06 0.0000000000000000e+00  5.8220897743409751e-05 1.1781394550726857e-06 0.0000000000000000e+00  6.5946603738118522e-05 1.1209808509258192e-06 0.0000000000000000e+00  7.3212465058663254e-05 9.5736865627495870e-07 0.0000000000000000e+00  7.9362133010796974e-05 6.4245580299828610e-07 0.0000000000000000e+00  8.3617409697244388e-05 8.0367851235225110e-08 0.0000000000000000e+00  8.5569000534557526e-05 -1.0192185337940651e-06 0.0000000000000000e+00  8.7546688732391084e-05 -3.7242494633787781e-06 0.0000000000000000e+00  0.0000000000000000e+00 0.0000000000000000e+00 0.0000000000000000e+00  8.5499127870317747e-06 2.7883972242076624e-07 0.0000000000000000e+00  1.7321333996341346e-05 5.6004085503192076e-07 0.0000000000000000e+00  2.6538220843402697e-05 8.4536301577406029e-07 0.0000000000000000e+00  3.6413767644680445e-05 1.1347989068298254e-06 0.0000000000000000e+00  4.7141437299136391e-05 1.4255055322310470e-06 0.0000000000000000e+00  5.8880982931594122e-05 1.7105416027471353e-06 0.0000000000000000e+00  7.1737370263806751e-05 1.9774294549497380e-06 0.0000000000000000e+00  8.5730232332091277e-05 2.2066596654585299e-06 0.0000000000000000e+00  1.0075124558295138e-04 2.3704014236949291e-06 0.0000000000000000e+00  1.1650663175184508e-04 2.4318436316400178e-06 0.0000000000000000e+00  1.3244170947234029e-04 2.3456698229525125e-06 0.0000000000000000e+00  1.4764315119170413e-04 2.0599796990264883e-06 0.0000000000000000e+00  1.6070817105968979e-04 1.5196068195646128e-06 0.0000000000000000e+00  1.6953832735264179e-04 6.7331675744277884e-07 0.0000000000000000e+00  1.7085851384276751e-04 -4.8546839404780417e-07 0.0000000000000000e+00  1.5843948824375859e-04 -1.6339012402929772e-06 0.0000000000000000e+00  0.0000000000000000e+00 0.0000000000000000e+00 0.0000000000000000e+00  1.2542094681975010e-05 4.1518674358925096e-07 0.0000000000000000e+00  2.5423267804059216e-05 8.3498856608050463e-07 0.0000000000000000e+00  3.8987286949919072e-05 1.2631981810880003e-06 0.0000000000000000e+00  5.3565840175996883e-05 1.7011389977510326e-06 0.0000000000000000e+00  6.9467410617356486e-05 2.1461051810967614e-06 0.0000000000000000e+00  8.6958941773103814e-05 2.5894335866432544e-06 0.0000000000000000e+00  1.0623714774359143e-04 3.0141849541741632e-06 0.0000000000000000e+00  1.2738577618560739e-04 3.3925622628328198e-06 0.0000000000000000e+00  1.5031456684816405e-04 3.6834660520589197e-06 0.0000000000000000e+00  1.7467502395390343e-04 3.8310251122181498e-06 0.0000000000000000e+00  1.9974701619100970e-04 3.7655606669203905e-06 0.0000000000000000e+00  2.2428708031529447e-04 3.4091718371767043e-06 0.0000000000000000e+00  2.4631964694428471e-04 2.6887225682678110e-06 0.0000000000000000e+00  2.6282545039648010e-04 1.5585671623721830e-06 0.0000000000000000e+00  2.6922004506037977e-04 2.7936097877981742e-08 0.0000000000000000e+00  2.5845328952527643e-04 -1.8720840821986611e-06 0.0000000000000000e+00  0.0000000000000000e+00 0.0000000000000000e+00 0.0000000000000000e+00  1.6186735718834170e-05 5.4660705756895750e-07 0.0000000000000000e+00  3.2835860651502580e-05 1.1012579185297037e-06 0.0000000000000000e+00  5.0417783880371118e-05 1.6710657731773554e-06 0.0000000000000000e+00  6.9394091391595877e-05 2.2602367629018725e-06 0.0000000000000000e+00  9.0206957104837195e-05 2.8681121767003275e-06 0.0000000000000000e+00  1.1325960818696629e-04 3.4865905666245259e-06 0.0000000000000000e+00  1.3888369347911679e-04 4.0967883308557092e-06 0.0000000000000000e+00  1.6728849445564659e-04 4.6649517933553872e-06 0.0000000000000000e+00  1.9848597180039819e-04 5.1379866110882994e-06 0.0000000000000000e+00  2.3218476315981382e-04 5.4396758049160353e-06 0.0000000000000000e+00  2.6764538452095187e-04 5.4699187212937573e-06 0.0000000000000000e+00  3.0348753834119559e-04 5.1113204378947107e-06 0.0000000000000000e+00  3.3743762733260671e-04 4.2501283841513680e-06 0.0000000000000000e+00  3.6600141282668508e-04 2.8210043991148781e-06 0.0000000000000000e+00  3.8405992660848478e-04 8.8501070259885490e-07 0.0000000000000000e+00  3.8449438802255515e-04 -1.2532036947478047e-06 0.0000000000000000e+00  0.0000000000000000e+00 0.0000000000000000e+00 0.0000000000000000e+00  1.9358839854472795e-05 6.6958196870431651e-07 0.0000000000000000e+00  3.9307379925585636e-05 1.3519979105553095e-06 0.0000000000000000e+00  6.0447936645522176e-05 2.0592118681674787e-06 0.0000000000000000e+00  8.3382839598430055e-05 2.8002576323037182e-06 0.0000000000000000e+00  1.0870778489344775e-04 3.5790743237207322e-06 0.0000000000000000e+00  1.3699525257450471e-04 4.3914104693450640e-06 0.0000000000000000e+00  1.6876295761213218e-04 5.2204346553508250e-06 0.0000000000000000e+00  2.0442087879010779e-04 6.0307489469549162e-06 0.0000000000000000e+00  2.4418887915706361e-04 6.7607805436553011e-06 0.0000000000000000e+00  2.8797564515061511e-04 7.3143043591308935e-06 0.0000000000000000e+00  3.3520917875447037e-04 7.5536102907802586e-06 0.0000000000000000e+00  3.8461012478104072e-04 7.3002903090015947e-06 0.0000000000000000e+00  4.3390294744305089e-04 6.3554981903791107e-06 0.0000000000000000e+00  4.7946947565754997e-04 4.5596256703370298e-06 0.0000000000000000e+00  5.1597510356117830e-04 1.9182889956145414e-06 0.0000000000000000e+00  5.3606548254173385e-04 -1.1831828271462881e-06 0.0000000000000000e+00  0.0000000000000000e+00 0.0000000000000000e+00 0.0000000000000000e+00  2.1930878126422727e-05 7.7927169015974576e-07 0.0000000000000000e+00  4.4578306252852477e-05 1.5775066202101531e-06 0.0000000000000000e+00  6.8677331354036650e-05 2.4130854534031926e-06 0.0000000000000000e+00  9.4977904026999387e-05 3.3020149705295974e-06 0.0000000000000000e+00  1.2424607221544898e-04 4.2558888215666119e-06 0.0000000000000000e+00  1.5725536820924803e-04 5.2786212474463951e-06 0.0000000000000000e+00  1.9476274718146759e-04 6.3612876476846730e-06 0.0000000000000000e+00  2.3746128575851785e-04 7.4742253273495752e-06 0.0000000000000000e+00  2.8589932645316712e-04 8.5554769409536145e-06 0.0000000000000000e+00  3.4035339665967147e-04 9.4950299344979835e-06 0.0000000000000000e+00  4.0064121485085605e-04 1.0115884136110641e-05 0.0000000000000000e+00  4.6586345684670327e-04 1.0157295072388078e-05 0.0000000000000000e+00  5.3407129585989897e-04 9.2750675563060169e-06 0.0000000000000000e+00  6.0187231724161171e-04 7.0910872380830883e-06 0.0000000000000000e+00  6.6400475477169376e-04 3.3485463253939301e-06 0.0000000000000000e+00  7.1290474950668023e-04 -1.7496234839109430e-06 0.0000000000000000e+00  0.0000000000000000e+00 0.0000000000000000e+00 0.0000000000000000e+00  2.3777465175239314e-05 8.6955470996820782e-07 0.0000000000000000e+00  4.8390480011153217e-05 1.7652376493825289e-06 0.0000000000000000e+00  7.4700071577206686e-05 2.7131480110216177e-06 0.0000000000000000e+00  1.0360282121030485e-04 3.7382785232766816e-06 0.0000000000000000e+00  1.3604393052592159e-04 4.8630892206457334e-06 0.0000000000000000e+00  1.7302218511839465e-04 6.1047151906029871e-06 0.0000000000000000e+00  2.1558109615455622e-04 7.4698457241903515e-06 0.0000000000000000e+00  2.6477744778560786e-04 8.9457666601920280e-06 0.0000000000000000e+00  3.2161443906952132e-04 1.0485304114673298e-05 0.0000000000000000e+00  3.8692207581205216e-04 1.1982611357865690e-05 0.0000000000000000e+00  4.6116412202127234e-04 1.3236624648296114e-05 0.0000000000000000e+00  5.4415259677331566e-04 1.3901711218736932e-05 0.0000000000000000e+00  6.3466377764026137e-04 1.3435502919686381e-05 0.0000000000000000e+00  7.2997847723142121e-04 1.1080801981496348e-05 0.0000000000000000e+00  8.2539981126901279e-04 5.9700705204784292e-06 0.0000000000000000e+00  9.1376876947136686e-04 -2.4871303059976812e-06 0.0000000000000000e+00  0.0000000000000000e+00 0.0000000000000000e+00 0.0000000000000000e+00  2.4782769961034201e-05 9.3334490883975056e-07 0.0000000000000000e+00  5.0502106680261134e-05 1.9003836139147369e-06 0.0000000000000000e+00  7.8127691747570066e-05 2.9355939427248812e-06 0.0000000000000000e+00  1.0868984983441613e-04 4.0743471861213586e-06 0.0000000000000000e+00  1.4330809962136804e-04 5.3526905306914090e-06 0.0000000000000000e+00  1.8321534546358745e-04 6.8059584697174163e-06 0.0000000000000000e+00  2.2977286515684449e-04 8.4651370153515176e-06 0.0000000000000000e+00  2.8446732946661718e-04 1.0348997888484563e-05 0.0000000000000000e+00  3.4887514121824544e-04 1.2448409413803901e-05 0.0000000000000000e+00  4.2457132414641159e-04 1.4696540734447105e-05 0.0000000000000000e+00  5.1295156722772073e-04 1.6914732001387725e-05 0.0000000000000000e+00  6.1493261964049766e-04 1.8719797022944271e-05 0.0000000000000000e+00  7.3051211144648214e-04 1.9380335071775926e-05 0.0000000000000000e+00  8.5822682463204084e-04 1.7634002010838132e-05 0.0000000000000000e+00  9.9465395147167995e-04 1.1552622282088657e-05 0.0000000000000000e+00  1.1341493090974983e-03 -1.3336005308703488e-06 0.0000000000000000e+00  0.0000000000000000e+00 0.0000000000000000e+00 0.0000000000000000e+00  2.4850402157914986e-05 9.6323088264424516e-07 0.0000000000000000e+00  5.0708227115556711e-05 1.9671591168107460e-06 0.0000000000000000e+00  7.8621553175687513e-05 3.0542584048444190e-06 0.0000000000000000e+00  1.0972605899967370e-04 4.2704568789810807e-06 0.0000000000000000e+00  1.4529145953650661e-04 5.6666905444065401e-06 0.0000000000000000e+00  1.8676965361993448e-04 7.2999477496015582e-06 0.0000000000000000e+00  2.3584209776533689e-04 9.2330058848567477e-06 0.0000000000000000e+00  2.9445965822096884e-04 1.1531058808668700e-05 0.0000000000000000e+00  3.6486057364005673e-04 1.4251301151227551e-05 0.0000000000000000e+00  4.4953964148159174e-04 1.7417067236925049e-05 0.0000000000000000e+00  5.5112391896291362e-04 2.0959094502169877e-05 0.0000000000000000e+00  6.7209232723639098e-04 2.4589718393590161e-05 0.0000000000000000e+00  8.1428129010231861e-04 2.7550549385945688e-05 0.0000000000000000e+00  9.7820933059959833e-04 2.8157429174317190e-05 0.0000000000000000e+00  1.1625450688776497e-03 2.3125487367168761e-05 0.0000000000000000e+00  1.3646040202846203e-03 6.8568541601765972e-06 0.0000000000000000e+00  0.0000000000000000e+00 0.0000000000000000e+00 0.0000000000000000e+00  2.3915032096466249e-05 9.5242667856506688e-07 0.0000000000000000e+00  4.8865261099240950e-05 1.9507946422349037e-06 0.0000000000000000e+00  7.5932894510544077e-05 3.0438282445191600e-06 0.0000000000000000e+00  1.0631268652057229e-04 4.2864178554772381e-06 0.0000000000000000e+00  1.4137643152710503e-04 5.7432482907350374e-06 0.0000000000000000e+00  1.8274737614439870e-04 7.4930157274261220e-06 0.0000000000000000e+00  2.3238635933252547e-04 9.6332072030635846e-06 0.0000000000000000e+00  2.9268819636023161e-04 1.2284862262427325e-05 0.0000000000000000e+00  3.6657917400253668e-04 1.5595172192255401e-05 0.0000000000000000e+00  4.5759061467504715e-04 1.9731495600046107e-05 0.0000000000000000e+00  5.6985394496569352e-04 2.4848952498830406e-05 0.0000000000000000e+00  7.0791668356120607e-04 3.0984336185307342e-05 0.0000000000000000e+00  8.7623368275270607e-04 3.7758708205377311e-05 0.0000000000000000e+00  1.0782424991903372e-03 4.3632828163915400e-05 0.0000000000000000e+00  1.3153872277144756e-03 4.4335688525237863e-05 0.0000000000000000e+00  1.5874441912435680e-03 3.0281623792546128e-05 0.0000000000000000e+00  0.0000000000000000e+00 0.0000000000000000e+00 0.0000000000000000e+00  2.1954459936256409e-05 8.9593781075153402e-07 0.0000000000000000e+00  4.4917057850208440e-05 1.8400630950173892e-06 0.0000000000000000e+00  6.9946743438231235e-05 2.8841403945407444e-06 0.0000000000000000e+00  9.8233021276754927e-05 4.0883560753278811e-06 0.0000000000000000e+00  1.3117536665769325e-04 5.5268338754398713e-06 0.0000000000000000e+00  1.7048184664211530e-04 7.2949848678015141e-06 0.0000000000000000e+00  2.1829495526263403e-04 9.5197570094276111e-06 0.0000000000000000e+00  2.7735250942856853e-04 1.2374304607011630e-05 0.0000000000000000e+00  3.5118755013430788e-04 1.6099086277167728e-05 0.0000000000000000e+00  4.4435745570341786e-04 2.1031119930178472e-05 0.0000000000000000e+00  5.6265637217149190e-04 2.7638439477812339e-05 0.0000000000000000e+00  7.1318505746349151e-04 3.6533414967728301e-05 0.0000000000000000e+00  9.0400755413144523e-04 4.8344890854560303e-05 0.0000000000000000e+00  1.1429855024995216e-03 6.2999741483871398e-05 0.0000000000000000e+00  1.4359753291667990e-03 7.7127325847814682e-05 0.0000000000000000e+00  1.7879495824602036e-03 8.0161320605719633e-05 0.0000000000000000e+00  0.0000000000000000e+00 0.0000000000000000e+00 0.0000000000000000e+00  1.9000333142350113e-05 7.9175041107923547e-07 0.0000000000000000e+00  3.8918688677792510e-05 1.6299301634324405e-06 0.0000000000000000e+00  6.0723695743872461e-05 2.5648984251897624e-06 0.0000000000000000e+00  8.5520385517852160e-05 3.6565923439720890e-06 0.0000000000000000e+00  1.1463731146644673e-04 4.9811456061369967e-06 0.0000000000000000e+00  1.4974104963348428e-04 6.6402447185637455e-06 0.0000000000000000e+00  1.9299309376547756e-04 8.7751792339828748e-06 0.0000000000000000e+00  2.4726949461015730e-04 1.1589034231318803e-05 0.0000000000000000e+00  3.1646894588556565e-04 1.5383544627628083e-05 0.0000000000000000e+00  4.0593503424637121e-04 2.0623568806017907e-05 0.0000000000000000e+00  5.2299653892863302e-04 2.8055108211342046e-05 0.0000000000000000e+00  6.7754165217606666e-04 3.8923955387737991e-05 0.0000000000000000e+00  8.8228248568097706e-04 5.5344559077056620e-05 0.0000000000000000e+00  1.1517289671727903e-03 8.0616040286181077e-05 0.0000000000000000e+00  1.4979317433670921e-03 1.1698792667752304e-04 0.0000000000000000e+00  1.9347942084068956e-03 1.3968857335693610e-04 0.0000000000000000e+00  0.0000000000000000e+00 0.0000000000000000e+00 0.0000000000000000e+00  1.5145361413064316e-05 6.4178177411482897e-07 0.0000000000000000e+00  3.1053290133291750e-05 1.3237352265144415e-06 0.0000000000000000e+00  4.8531581417366292e-05 2.0897243730605687e-06 0.0000000000000000e+00  6.8513897298428945e-05 2.9927997488749464e-06 0.0000000000000000e+00  9.2143413475208379e-05 4.1016906067459676e-06 0.0000000000000000e+00  1.2088778839099794e-04 5.5101602139597101e-06 0.0000000000000000e+00  1.5670570904452561e-04 7.3512840575538819e-06 0.0000000000000000e+00  2.0229685746368136e-04 9.8203333155644590e-06 0.0000000000000000e+00  2.6148570522163765e-04 1.3213592231590742e-05 0.0000000000000000e+00  3.3981664472319004e-04 1.7999653322862537e-05 0.0000000000000000e+00  4.4546805615873578e-04 2.4965487433963901e-05 0.0000000000000000e+00  5.9058898053528032e-04 3.5555797740957210e-05 0.0000000000000000e+00  7.9297229296170250e-04 5.2751721500173290e-05 0.0000000000000000e+00  1.0770405703272696e-03 8.3501018837076510e-05 0.0000000000000000e+00  1.4687799565740137e-03 1.4578058714302358e-04 0.0000000000000000e+00  1.9384170522994400e-03 2.9590543801286546e-04 0.0000000000000000e+00  0.0000000000000000e+00 0.0000000000000000e+00 0.0000000000000000e+00  1.0544881654005129e-05 4.5232916977175112e-07 0.0000000000000000e+00  2.1637049069587691e-05 9.3428117037545305e-07 0.0000000000000000e+00  3.3858062983353782e-05 1.4783340960292890e-06 0.0000000000000000e+00  4.7886835616009596e-05 2.1241522926540696e-06 0.0000000000000000e+00  6.4566300904415010e-05 2.9236702108476938e-06 0.0000000000000000e+00  8.4998160313807139e-05 3.9483481318992129e-06 0.0000000000000000e+00  1.1068595239726751e-04 5.2999010853628574e-06 0.0000000000000000e+00  1.4376129746260797e-04 7.1263120132293614e-06 0.0000000000000000e+00  1.8735562312717575e-04 9.6454798658670402e-06 0.0000000000000000e+00  2.4623166165849424e-04 1.3179432822712013e-05 0.0000000000000000e+00  3.2788701507625596e-04 1.8204924232146430e-05 0.0000000000000000e+00  4.4452135432518656e-04 2.5449675129879265e-05 0.0000000000000000e+00  6.1656427739681711e-04 3.6211633822758360e-05 0.0000000000000000e+00  8.7892927754570709e-04 5.3830450106518563e-05 0.0000000000000000e+00  1.2918583743752991e-03 9.0293674648255214e-05 0.0000000000000000e+00  1.9590618928712117e-03 1.8962401702214541e-04 0.0000000000000000e+00  0.0000000000000000e+00 0.0000000000000000e+00 0.0000000000000000e+00  5.4111640789711075e-06 2.3384214934073250e-07 0.0000000000000000e+00  1.1108402211663839e-05 4.8340781712969089e-07 0.0000000000000000e+00  1.7396312896739813e-05 7.6597136182213604e-07 0.0000000000000000e+00  2.4632714526238406e-05 1.1027314663447821e-06 0.0000000000000000e+00  3.3265787910775070e-05 1.5215615684898668e-06 0.0000000000000000e+00  4.3887969357914598e-05 2.0608400088861626e-06 0.0000000000000000e+00  5.7319458150210801e-05 2.7747574322910391e-06 0.0000000000000000e+00  7.4744572613224172e-05 3.7399687139283901e-06 0.0000000000000000e+00  9.7944911756190617e-05 5.0608568014574329e-06 0.0000000000000000e+00  1.2971513618825599e-04 6.8604090919954234e-06 0.0000000000000000e+00  1.7462939040556146e-04 9.2057312502379784e-06 0.0000000000000000e+00  2.4046230417814490e-04 1.1780485227261397e-05 0.0000000000000000e+00  3.4060858145802821e-04 1.2644786284398982e-05 0.0000000000000000e+00  4.9645861788719656e-04 4.0449157994459318e-06 0.0000000000000000e+00  7.2906024351407622e-04 -3.8066011157289005e-05 0.0000000000000000e+00  1.0039531751401135e-03 -1.5381523444100628e-04 0.0000000000000000e+00  0.0000000000000000e+00 0.0000000000000000e+00 0.0000000000000000e+00  0.0000000000000000e+00 0.0000000000000000e+00 0.0000000000000000e+00  0.0000000000000000e+00 0.0000000000000000e+00 0.0000000000000000e+00  0.0000000000000000e+00 0.0000000000000000e+00 0.0000000000000000e+00  0.0000000000000000e+00 0.0000000000000000e+00 0.0000000000000000e+00  0.0000000000000000e+00 0.0000000000000000e+00 0.0000000000000000e+00  0.0000000000000000e+00 0.0000000000000000e+00 0.0000000000000000e+00  0.0000000000000000e+00 0.0000000000000000e+00 0.0000000000000000e+00  0.0000000000000000e+00 0.0000000000000000e+00 0.0000000000000000e+00  0.0000000000000000e+00 0.0000000000000000e+00 0.0000000000000000e+00  0.0000000000000000e+00 0.0000000000000000e+00 0.0000000000000000e+00  0.0000000000000000e+00 0.0000000000000000e+00 0.0000000000000000e+00  