<?xml version="1.0"?>
<VTKFile type="UnstructuredGrid"  version="0.1"  >
<UnstructuredGrid>
<Piece  NumberOfPoints="289" NumberOfCells="512">
<Points>
<DataArray  type="Float64"  NumberOfComponents="3"  format="ascii">0 0 0  0.0625 0 0  0.125 0 0  0.1875 0 0  0.25 0 0  0.3125 0 0  0.375 0 0  0.4375 0 0  0.5 0 0  0.5625 0 0  0.625 0 0  0.6875 0 0  0.75 0 0  0.8125 0 0  0.875 0 0  0.9375 0 0  1 0 0  0 0.0625 0  0.06260023404487394 0.062476423067636 0  0.1252041420711788 0.06245235561560827 0  0.1878155671948175 0.06242732817899437 0  0.250438609914772 0.06240093529563298 0  0.3130777765905702 0.06237287787238556 0  0.3757381570201267 0.06234301688781324 0  0.4384256620892916 0.06231143829897957 0  0.5011473903694327 0.06227852266649538 0  0.563912285514315 0.06224499980363084 0  0.6267324840221932 0.06221194113836246 0  0.6896263937118298 0.06218058079742774 0  0.7526263768202877 0.06215169952656509 0  0.8157994892011436 0.06212383538351975 0  0.8793077390729546 0.06208795262491688 0  0.9435965698472808 0.06200987424449576 0  1.010043908271382 0.06176480298337963 0  0 0.125 0  0.0626968672202439 0.1249533140053297 0  0.1254009980564864 0.1249056133063855 0  0.1881199932462206 0.1248559214452935 0  0.2508619769538734 0.1248033811654342 0  0.3136358970821445 0.124747336378445 0  0.3764518785094118 0.1246874400199207 0  0.439321677001463 0.1246237910975904 0  0.5022593302878794 0.1245570949378425 0  0.5652822105904385 0.1244888215983651 0  0.6284129201827525 0.124421301628171 0  0.6916829821945396 0.1243576378642777 0  0.7551403021161486 0.1243012327202605 0  0.8188640117750348 0.1242547376957304 0  0.8829906809361464 0.1242189644361373 0  0.9477412006282612 0.1241970303717034 0  1.013334341805923 0.124233382205456 0  0 0.1875 0  0.06278629447083468 0.1874312059435292 0  0.1255832300633562 0.1873608137886614 0  0.1884019407153838 0.1872872728828569 0  0.2512543450083756 0.1872091882647738 0  0.3141535906736636 0.1871254349321959 0  0.3771145636444005 0.1870353170456651 0  0.4401545051396751 0.18693878430375 0  0.5032938087298747 0.1868367101951223 0  0.5665571185282876 0.1867312192079228 0  0.6299749208832964 0.1866260144857353 0  0.6935858703630443 0.1865265928459997 0  0.7574398727470452 0.1864401257006098 0  0.8216005245855412 0.1863745969859315 0  0.8861399281059156 0.1863363164538248 0  0.9511020530759432 0.1863228017454158 0  1.01637612816856 0.1862961785483211 0  0 0.25 0  0.06286514154893219 0.24991068976046 0  0.1257439630949299 0.2498191229450348 0  0.1886507717900587 0.2497230869140439 0  0.2516009063234614 0.2496205308373899 0  0.3146113152139772 0.2495096977561696 0  0.3777012053791013 0.2493893236545848 0  0.4408927914271059 0.249258930228559 0  0.5042121753309351 0.2491192376291268 0  0.5676903657711138 0.2489727155014687 0  0.6313643614167734 0.2488242664166946 0  0.6952779488842309 0.2486819804153071 0  0.7594810908117294 0.2485577880282534 0  0.8240248116028429 0.2484676298747671 0  0.8889442143564518 0.2484303925295034 0  0.9542156001831503 0.2484644105061474 0  1.019673058192168 0.2485816025783273 0  0 0.3125 0  0.0629303843984868 0.31239242876584 0  0.1258770284602411 0.3122818667615547 0  0.1888569250094147 0.3121653461483513 0  0.2518883235828385 0.3120400243317061 0  0.3149914334528532 0.31190330977847 0  0.3781892088001689 0.3117530753530892 0  0.4415082425317298 0.3115880036784828 0  0.5049797792294919 0.3114081210064298 0  0.5686408045428157 0.3112155869192072 0  0.6325350236835328 0.3110158088637225 0  0.6967131926647088 0.3108189254610669 0  0.7612315112481217 0.3106416162121254 0  0.8261453801987663 0.3105089898575938 0  0.8914938849261731 0.3104559145015412 0  0.9572699002015824 0.3105266133752462 0  1.023378995339616 0.3107709966178438 0  0 0.375 0  0.06297946112686875 0.3748771581700465 0  0.1259771916505828 0.3747505358056212 0  0.1890122659250969 0.3746163331226463 0  0.2521052086623675 0.3744707861559735 0  0.3152788116934679 0.3743102522372769 0  0.3785590583711978 0.3741313945822667 0  0.4419761981757859 0.3739315271417497 0  0.5055660082948297 0.3737092090638694 0  0.5693712462204678 0.3734652162998512 0  0.6334431977495781 0.3732040623923133 0  0.6978429841167377 0.3729362748727018 0  0.7626418077311222 0.3726816117109982 0  0.8279185524499341 0.3724732218624334 0  0.8937525073679056 0.3723622451265579 0  0.9602101554111246 0.372421354624946 0  1.027331930250218 0.3727443967238283 0  0 0.4375 0  0.06301037546886905 0.4373656640362935 0  0.1260403639584055 0.4372267473250617 0  0.1891104157789451 0.4370785855994896 0  0.2522425786582721 0.4369164042114879 0  0.3154614071611108 0.4367353217834018 0  0.3787950154938288 0.4365304468879645 0  0.4422763508321857 0.4362971376380254 0  0.5059447935452027 0.4360315386922389 0  0.5698482284187179 0.4357315805201894 0  0.6340457669314864 0.4353987294993842 0  0.6986113050198269 0.4350409118467246 0  0.7636380178492853 0.4346771569905152 0  0.8292436807120501 0.4343444666696719 0  0.8955765479015695 0.4341068538788337 0  0.9628224650689432 0.4340648490433976 0  1.031219034936103 0.4343608978562054 0  0 0.5 0  0.06302178929066381 0.4998587378317487 0  0.1260637938700436 0.4997121553531045 0  0.1891470555514501 0.4995547659663878 0  0.2522942954505076 0.499380776595183 0  0.3155308776956992 0.4991839674191679 0  0.378885948207625 0.4989576333104563 0  0.4423938648383906 0.4986946497816622 0  0.5060961132588166 0.4983877810807773 0  0.5700440454945713 0.4980304456691398 0  0.6343030256235698 0.4976183229073028 0  0.6989589642980497 0.4971524601457175 0  0.7641287785428285 0.4966449360727568 0  0.8299769090810865 0.4961285297546518 0  0.8967403778818123 0.4956716345089862 0  0.9647651071668206 0.495397155005057 0  1.034560006718162 0.4954964834300809 0  0 0.5625 0  0.06301309875923229 0.5623571058844933 0  0.1260462268805219 0.5622083055135941 0  0.1891201866376284 0.5620474343414158 0  0.2522574603587417 0.5618677964080464 0  0.3154831723790237 0.5616618882631258 0  0.3788262342764506 0.5614211253119733 0  0.4423208110494316 0.5611356041698896 0  0.5060083653722116 0.5607939848319373 0  0.569940784959299 0.5603836793793324 0  0.6341855964881158 0.5598917426251151 0  0.6988352186341218 0.5593072763065406 0  0.7640238513257225 0.5586269544551591 0  0.8299579876414512 0.5578666316751818 0  0.8969688564234767 0.5570835431144439 0  0.9655952050271913 0.5564123146058437 0  1.036703849816769 0.5561049338188562 0  0 0.625 0  0.06298448605810346 0.6248613380396039 0  0.125988015402276 0.6247164418295449 0  0.1890303140732623 0.6245587323970331 0  0.2521327020953228 0.6243808811427694 0  0.3153189893584946 0.6241743692331465 0  0.378616525439118 0.6239289682070098 0  0.4420575226656285 0.623632123449116 0  0.5056808957895925 0.6232682460892025 0  0.5695351555431489 0.62281798575736 0  0.6336835770152865 0.6222577307306324 0  0.698214399582801 0.621560023966562 0  0.7632620606276526 0.6206966947469394 0  0.8290515817052586 0.6196492235303128 0  0.8959871401263286 0.6184367601442483 0  0.9648109545988827 0.6171795835468611 0  1.036847816861416 0.616198034929933 0  0 0.6875 0  0.06293693781118496 0.6873717459370788 0  0.1258911585937902 0.6872372865477064 0  0.1888805139138033 0.6870900092706596 0  0.2519242853863554 0.6869223860593114 0  0.3150439588966871 0.6867253939568966 0  0.3782640884119431 0.6864877704474406 0  0.4416133033583566 0.6861950200917812 0  0.5051255808669499 0.6858280665035255 0  0.5688421120322472 0.6853614275035875 0  0.6328147043707401 0.6847608188828191 0  0.6971133961192888 0.6839802950119893 0  0.7618456342748401 0.6829598789458327 0  0.8272061433611619 0.6816278155443833 0  0.8936022892739848 0.6799231924065338 0  0.9619331889963977 0.6778927239051378 0  1.034074805997134 0.6759595860052752 0  0 0.75 0  0.06287222368677803 0.7498882872062904 0  0.1257592577445277 0.7497708278139524 0  0.1886763586366255 0.7496414473888111 0  0.2516399916759576 0.7494929886040195 0  0.3146684528415727 0.7493166574246989 0  0.3777825049804421 0.7491011371990464 0  0.4410059913299119 0.7488313287577576 0  0.5043663449002779 0.7484865012215638 0  0.5678948763498686 0.748037519309201 0  0.631626840475934 0.747442622665519 0  0.6956021612326392 0.7466409417592684 0  0.7598715907970811 0.7455425944770379 0  0.8245277580265296 0.7440145629889631 0  0.8898310707373575 0.7418680708801488 0  0.9566510343255391 0.738903462039271 0  1.027396364272379 0.7354235548288481 0  0 0.8125 0  0.06279283354142538 0.8124104955352378 0  0.1255973850297724 0.8123161594810295 0  0.1884257005504039 0.8122117663216243 0  0.2512907781223678 0.8120911722765362 0  0.3142070348338857 0.8119466830929774 0  0.3771907379943426 0.8117681672959887 0  0.4402602945735614 0.811541744747392 0  0.5034361395775745 0.8112477754065089 0  0.566739633945977 0.8108576875677533 0  0.6301897149612489 0.8103288448839043 0  0.6937948775939512 0.8095959824689686 0  0.7575369441287571 0.8085562760875102 0  0.8213472144628501 0.8070415535661017 0  0.8851152068691243 0.8047627127877214 0  0.9490161344632165 0.8012025289977528 0  1.016306583162911 0.7956346248084784 0  0 0.875 0  0.062701877033392 0.8749374560741177 0  0.1254118767814481 0.8748714175929593 0  0.1881383410708302 0.8747980870981303 0  0.2508902810819695 0.8747129543000024 0  0.3136777005784631 0.8746102938597166 0  0.3765118792937523 0.8744824449991437 0  0.4394055078125164 0.8743187197831257 0  0.5023723861282632 0.8741036856605704 0  0.5654259486357646 0.8738143879191446 0  0.6285747367546961 0.873415754663992 0  0.6918100206098198 0.8728528165821317 0  0.7550733904398732 0.8720370116619863 0  0.8181745157133435 0.8708196074948678 0  0.880594129740449 0.8689271832221104 0  0.9410769638741103 0.8657471374364023 0  0.9971185939771458 0.8594280634530548 0  0 0.9375 0  0.06260295343793761 0.9374678398272853 0  0.1252100701094381 0.9374338460317686 0  0.1878256266094815 0.9373960204375671 0  0.2504542551049589 0.9373519754950362 0  0.3131011202524579 0.9372986561961469 0  0.3757720834235807 0.9372319358492543 0  0.438473801480611 0.93714
[...]
<PointData  Vectors="f_54"> 
<DataArray  type="Float64"  Name="f_54"  NumberOfComponents="3" format="ascii">0.0000000000000000e+00 0.0000000000000000e+00 0.0000000000000000e+00  0.0000000000000000e+00 0.0000000000000000e+00 0.0000000000000000e+00  0.0000000000000000e+00 0.0000000000000000e+00 0.0000000000000000e+00  0.0000000000000000e+00 0.0000000000000000e+00 0.0000000000000000e+00  0.0000000000000000e+00 0.0000000000000000e+00 0.0000000000000000e+00  0.0000000000000000e+00 0.0000000000000000e+00 0.0000000000000000e+00  0.0000000000000000e+00 0.0000000000000000e+00 0.0000000000000000e+00  0.0000000000000000e+00 0.0000000000000000e+00 0.0000000000000000e+00  0.0000000000000000e+00 0.0000000000000000e+00 0.0000000000000000e+00  0.0000000000000000e+00 0.0000000000000000e+00 0.0000000000000000e+00  0.0000000000000000e+00 0.0000000000000000e+00 0.0000000000000000e+00  0.0000000000000000e+00 0.0000000000000000e+00 0.0000000000000000e+00  0.0000000000000000e+00 0.0000000000000000e+00 0.0000000000000000e+00  0.0000000000000000e+00 0.0000000000000000e+00 0.0000000000000000e+00  0.0000000000000000e+00 0.0000000000000000e+00 0.0000000000000000e+00  0.0000000000000000e+00 0.0000000000000000e+00 0.0000000000000000e+00  0.0000000000000000e+00 0.0000000000000000e+00 0.0000000000000000e+00  0.0000000000000000e+00 0.0000000000000000e+00 0.0000000000000000e+00  -2.5120604387156292e-06 -1.5731930810469890e-07 0.0000000000000000e+00  -5.0769801150162273e-06 -3.1462289479876288e-07 0.0000000000000000e+00  -7.7460775787928161e-06 -4.7140697660055197e-07 0.0000000000000000e+00  -1.0563110130578141e-05 -6.2592222270379909e-07 0.0000000000000000e+00  -1.3558701538034146e-05 -7.7449785546836381e-07 0.0000000000000000e+00  -1.6742270579605518e-05 -9.1085760793892310e-07 0.0000000000000000e+00  -2.0090137743065762e-05 -1.0255468269566778e-06 0.0000000000000000e+00  -2.3527811103848949e-05 -1.1057460078721100e-06 0.0000000000000000e+00  -2.6902996379219851e-05 -1.1360216176722890e-06 0.0000000000000000e+00  -2.9942424246137521e-05 -1.1010648275836209e-06 0.0000000000000000e+00  -3.2176674771745368e-05 -9.9247139488870720e-07 0.0000000000000000e+00  -3.2792325676911546e-05 -8.2403566471901351e-07 0.0000000000000000e+00  -3.0295991619309323e-05 -6.6725437647644400e-07 0.0000000000000000e+00  -2.1630756081919768e-05 -7.4428628000169460e-07 0.0000000000000000e+00  5.0297676270123208e-07 -1.7194761372611739e-06 0.0000000000000000e+00  5.7389894515248801e-05 -5.8604352077104939e-06 0.0000000000000000e+00  0.0000000000000000e+00 0.0000000000000000e+00 0.0000000000000000e+00  -4.9774792835571314e-06 -3.1503103123521699e-07 0.0000000000000000e+00  -1.0065016416370412e-05 -6.3065670272328706e-07 0.0000000000000000e+00  -1.5370158126130344e-05 -9.4651094938229760e-07 0.0000000000000000e+00  -2.0986845702055676e-05 -1.2597521721446302e-06 0.0000000000000000e+00  -2.6985166694482914e-05 -1.5636572615639446e-06 0.0000000000000000e+00  -3.3396308254558391e-05 -1.8461023151464815e-06 0.0000000000000000e+00  -4.0190272441287913e-05 -2.0880988631470222e-06 0.0000000000000000e+00  -4.7242895428288753e-05 -2.2628250571114127e-06 0.0000000000000000e+00  -5.4286787866868190e-05 -2.3360599054529522e-06 0.0000000000000000e+00  -6.0836868000009967e-05 -2.2696988086698971e-06 0.0000000000000000e+00  -6.6072605750659933e-05 -2.0312187307244903e-06 0.0000000000000000e+00  -6.8640340515881747e-05 -1.6135888799470751e-06 0.0000000000000000e+00  -6.6300044179598834e-05 -1.0713746872726834e-06 0.0000000000000000e+00  -5.5275345620196601e-05 -5.7370236484388771e-07 0.0000000000000000e+00  -2.9152885097534711e-05 -4.2703453974264342e-07 0.0000000000000000e+00  2.2027353605988675e-05 -7.1115878372534169e-07 0.0000000000000000e+00  0.0000000000000000e+00 0.0000000000000000e+00 0.0000000000000000e+00  -7.3371150180860853e-06 -4.7238087132665903e-07 0.0000000000000000e+00  -1.4848624777979390e-05 -9.4718515126340442e-07 0.0000000000000000e+00  -2.2706505010754368e-05 -1.4254628071730993e-06 0.0000000000000000e+00  -3.1066026526097186e-05 -1.9046645526622827e-06 0.0000000000000000e+00  -4.0052620388995339e-05 -2.3764599546913231e-06 0.0000000000000000e+00  -4.9742081910573531e-05 -2.8241744382293065e-06 0.0000000000000000e+00  -6.0130874773468081e-05 -3.2199360800191267e-06 0.0000000000000000e+00  -7.1092302015217674e-05 -3.5219385489563783e-06 0.0000000000000000e+00  -8.2312861240681697e-05 -3.6728019469064039e-06 0.0000000000000000e+00  -9.3200966874448942e-05 -3.6009806082491504e-06 0.0000000000000000e+00  -1.0275723920457796e-04 -3.2286339423457550e-06 0.0000000000000000e+00  -1.0939279255554416e-04 -2.4912614089080413e-06 0.0000000000000000e+00  -1.1068693096681661e-04 -1.3760367557854395e-06 0.0000000000000000e+00  -1.0312179198387738e-04 1.4644176432401576e-08 0.0000000000000000e+00  -8.2038315548290069e-05 1.3709128327152328e-06 0.0000000000000000e+00  -4.2755015740761247e-05 2.0202131249115471e-06 0.0000000000000000e+00  0.0000000000000000e+00 0.0000000000000000e+00 0.0000000000000000e+00  -9.5250161997407450e-06 -6.2739810829533163e-07 0.0000000000000000e+00  -1.9297293075366461e-05 -1.2607903061263350e-06 0.0000000000000000e+00  -2.9563207278204506e-05 -1.9045201712420216e-06 0.0000000000000000e+00  -4.0553457885451434e-05 -2.5584887367206137e-06 0.0000000000000000e+00  -5.2469549822377624e-05 -3.2152363000363692e-06 0.0000000000000000e+00  -6.5462294851483538e-05 -3.8561940142652959e-06 0.0000000000000000e+00  -7.9598493024280058e-05 -4.4469516396146888e-06 0.0000000000000000e+00  -9.4811038751171987e-05 -4.9316437430048691e-06 0.0000000000000000e+00  -1.1082683496033606e-04 -5.2271177842088068e-06 0.0000000000000000e+00  -1.2706664401826434e-04 -5.2186486877446364e-06 0.0000000000000000e+00  -1.4251275508610865e-04 -4.7609263757511997e-06 0.0000000000000000e+00  -1.5554777756037361e-04 -3.6912065819167433e-06 0.0000000000000000e+00  -1.6379059792820852e-04 -1.8660491456399631e-06 0.0000000000000000e+00  -1.6401674262380705e-04 7.6141879505919513e-07 0.0000000000000000e+00  -1.5239199015804858e-04 4.0021994960533430e-06 0.0000000000000000e+00  -1.2547082577941130e-04 7.2144412456542698e-06 0.0000000000000000e+00  0.0000000000000000e+00 0.0000000000000000e+00 0.0000000000000000e+00  -1.1467317198026431e-05 -7.7639569077547235e-07 0.0000000000000000e+00  -2.3262703942686204e-05 -1.5644662350432197e-06 0.0000000000000000e+00  -3.5716549745968151e-05 -2.3742001235802474e-06 0.0000000000000000e+00  -4.9149554099232683e-05 -3.2108407806655692e-06 0.0000000000000000e+00  -6.3861867280435013e-05 -4.0714505341817083e-06 0.0000000000000000e+00  -8.0113562188810502e-05 -4.9400654251911590e-06 0.0000000000000000e+00  -9.8092047894318051e-05 -5.7808668905682142e-06 0.0000000000000000e+00  -1.1786090604603942e-04 -6.5288354299836422e-06 0.0000000000000000e+00  -1.3928373637962132e-04 -7.0776628173026077e-06 0.0000000000000000e+00  -1.6191685251955507e-04 -7.2656467233285579e-06 0.0000000000000000e+00  -1.8486801790559067e-04 -6.8625479530507514e-06 0.0000000000000000e+00  -2.0662864170453092e-04 -5.5650703695164824e-06 0.0000000000000000e+00  -2.2491052715260343e-04 -3.0172540434389691e-06 0.0000000000000000e+00  -2.3656377358185566e-04 1.1140954820242410e-06 0.0000000000000000e+00  -2.3771764313420044e-04 6.9612874756316945e-06 0.0000000000000000e+00  -2.2430482146281044e-04 1.4115485640804129e-05 0.0000000000000000e+00  0.0000000000000000e+00 0.0000000000000000e+00 0.0000000000000000e+00  -1.3083097130695510e-05 -9.1363278614283152e-07 0.0000000000000000e+00  -2.6580056801340266e-05 -1.8468239102911101e-06 0.0000000000000000e+00  -4.0911976216985282e-05 -2.8177675760042335e-06 0.0000000000000000e+00  -5.6501590360628554e-05 -3.8404584742849891e-06 0.0000000000000000e+00  -7.3768474025577230e-05 -4.9212167006119563e-06 0.0000000000000000e+00  -9.3115744581034977e-05 -6.0532376017278430e-06 0.0000000000000000e+00  -1.1490337218206991e-04 -7.2080481750817855e-06 0.0000000000000000e+00  -1.3940141095316022e-04 -8.3223741869042681e-06 0.0000000000000000e+00  -1.6671456764557179e-04 -9.2785988234168631e-06 0.0000000000000000e+00  -1.9666842309000646e-04 -9.8771119129437801e-06 0.0000000000000000e+00  -2.2864934425641801e-04 -9.8003695788535379e-06 0.0000000000000000e+00  -2.6139841768114708e-04 -8.5734620856140241e-06 0.0000000000000000e+00  -2.9277972239710195e-04 -5.5380721347465413e-06 0.0000000000000000e+00  -3.1957685839769366e-04 1.1954629848585969e-07 0.0000000000000000e+00  -3.3740110927774829e-04 9.2098887603149222e-06 0.0000000000000000e+00  -3.4074627331720237e-04 2.2140328894641863e-05 0.0000000000000000e+00  0.0000000000000000e+00 0.0000000000000000e+00 0.0000000000000000e+00  -1.4287535515874921e-05 -1.0312543246419551e-06 0.0000000000000000e+00  -2.9074218675975947e-05 -2.0918371422410451e-06 0.0000000000000000e+00  -4.4872875540129262e-05 -3.2104844834603084e-06 0.0000000000000000e+00  -6.2214406947117942e-05 -4.4133929608735297e-06 0.0000000000000000e+00  -8.1652589114622560e-05 -5.7214724026794253e-06 0.0000000000000000e+00  -1.0376180742662743e-04 -7.1453068911274672e-06 0.0000000000000000e+00  -1.2912263420993274e-04 -8.6761888455335945e-06 0.0000000000000000e+00  -1.5828732431225970e-04 -1.0270630274581327e-05 0.0000000000000000e+00  -1.9171344917881688e-04 -1.1824353206472719e-05 0.0000000000000000e+00  -2.2964947906842790e-04 -1.3130018729135272e-05 0.0000000000000000e+00  -2.7195295817139683e-04 -1.3811626771317730e-05 0.0000000000000000e+00  -3.1782445529187893e-04 -1.3230124573449120e-05 0.0000000000000000e+00  -3.6545655014682865e-04 -1.0365546109778831e-05 0.0000000000000000e+00  -4.1163308892249784e-04 -3.7123496808509909e-06 0.0000000000000000e+00  -4.5135180945373474e-04 8.7131055359778647e-06 0.0000000000000000e+00  -4.7749149463046796e-04 2.9077877450654598e-05 0.0000000000000000e+00  0.0000000000000000e+00 0.0000000000000000e+00 0.0000000000000000e+00  -1.4997456188584497e-05 -1.1196313683552320e-06 0.0000000000000000e+00  -3.0570968550278839e-05 -2.2794185186401538e-06 0.0000000000000000e+00  -4.7317783005562468e-05 -3.5201619093855537e-06 0.0000000000000000e+00  -6.5873703270989686e-05 -4.8829944640612184e-06 0.0000000000000000e+00  -8.6930752566610886e-05 -6.4083398618794343e-06 0.0000000000000000e+00  -1.1125097380127228e-04 -8.1327965679503975e-06 0.0000000000000000e+00  -1.3967190984897398e-04 -1.0082084503082160e-05 0.0000000000000000e+00  -1.7309539706703741e-04 -1.2256664979193362e-05 0.0000000000000000e+00  -2.1244494370801755e-04 -1.4603946074610104e-05 0.0000000000000000e+00  -2.5856746794751371e-04 -1.6966433404727166e-05 0.0000000000000000e+00  -3.1204311060855695e-04 -1.8988182802048650e-05 0.0000000000000000e+00  -3.7285696611691344e-04 -1.9953291506206401e-05 0.0000000000000000e+00  -4.3989320647100621e-04 -1.8526392887876037e-05 0.0000000000000000e+00  -5.1026173671162858e-04 -1.2386969692148467e-05 0.0000000000000000e+00  -5.7856979579056660e-04 2.1653984188473112e-06 0.0000000000000000e+00  -6.3627646593139553e-04 3.0414234718038426e-05 0.0000000000000000e+00  0.0000000000000000e+00 0.0000000000000000e+00 0.0000000000000000e+00  -1.5139044175625850e-05 -1.1681957879958003e-06 0.0000000000000000e+00  -3.0913003509036961e-05 -2.3870683058642587e-06 0.0000000000000000e+00  -4.7985762267922057e-05 -3.7095341701673897e-06 0.0000000000000000e+00  -6.7082173092888309e-05 -5.1927187018170796e-06 0.0000000000000000e+00  -8.9020889459088439e-05 -6.8995903650941347e-06 0.0000000000000000e+00  -1.1474869155284348e-04 -8.8994909985624314e-06 0.0000000000000000e+00  -1.4537396740237852e-04 -1.1266065186695587e-05 0.0000000000000000e+00  -1.8219268137035266e-04 -1.4069370456155574e-05 0.0000000000000000e+00  -2.2669175604561715e-04 -1.7355411723360509e-05 0.0000000000000000e+00  -2.8049948586008684e-04 -2.1099142369316866e-05 0.0000000000000000e+00  -3.4522728597307609e-04 -2.5102658038200032e-05 0.0000000000000000e+00  -4.2211233398052042e-04 -2.8783473880048895e-05 0.0000000000000000e+00  -5.1134414659693029e-04 -3.0754600265584367e-05 0.0000000000000000e+00  -6.1100546958535007e-04 -2.8056788099426827e-05 0.0000000000000000e+00  -7.1580686047139524e-04 -1.4960165274458958e-05 0.0000000000000000e+00  -8.1620696381457772e-04 1.8442042867332758e-05 0.0000000000000000e+00  0.0000000000000000e+00 0.0000000000000000e+00 0.0000000000000000e+00  -1.4657136589611970e-05 -1.1667801533591158e-06 0.0000000000000000e+00  -2.9979592579318255e-05 -2.3926722425452231e-06 0.0000000000000000e+00  -4.6668549594091118e-05 -3.7407280125812387e-06 0.0000000000000000e+00  -6.5507233237818417e-05 -5.2824956212234980e-06 0.0000000000000000e+00  -8.7409331130066796e-05 -7.1029469764478860e-06 0.0000000000000000e+00  -1.1347628048035563e-04 -9.3060128018506122e-06 0.0000000000000000e+00  -1.4506521919231121e-04 -1.2020363543043558e-05 0.0000000000000000e+00  -1.8386623778429280e-04 -1.5403912776866066e-05 0.0000000000000000e+00  -2.3197944145271848e-04 -1.9642586845327713e-05 0.0000000000000000e+00  -2.9196357943447974e-04 -2.4931581070041817e-05 0.0000000000000000e+00  -3.6678848261047182e-04 -3.1409083950654815e-05 0.0000000000000000e+00  -4.5954901775205944e-04 -3.8967361759213827e-05 0.0000000000000000e+00  -5.7268508980995751e-04 -4.6758871225859917e-05 0.0000000000000000e+00  -7.0638516662479742e-04 -5.1994634081993370e-05 0.0000000000000000e+00  -8.5623072052745577e-04 -4.7391104373287500e-05 0.0000000000000000e+00  -1.0113847820534194e-03 -1.7147181075702870e-05 0.0000000000000000e+00  0.0000000000000000e+00 0.0000000000000000e+00 0.0000000000000000e+00  -1.3525043859864493e-05 -1.1073421688280177e-06 0.0000000000000000e+00  -2.7707797778364231e-05 -2.2782327449554992e-06 0.0000000000000000e+00  -4.3246418959304416e-05 -3.5815930159980872e-06 0.0000000000000000e+00  -6.0936672166254006e-05 -5.0986082527685567e-06 0.0000000000000000e+00  -8.1733431962835887e-05 -6.9308379975924431e-06 0.0000000000000000e+00  -1.0682941241014861e-04 -9.2110168041712700e-06 0.0000000000000000e+00  -1.3775895680717283e-04 -1.2117904894939991e-05 0.0000000000000000e+00  -1.7653515851618717e-04 -1.5896788931498629e-05 0.0000000000000000e+00  -2.2582541014653270e-04 -2.0886934268025756e-05 0.0000000000000000e+00  -2.8915634150671185e-04 -2.7554719330845561e-05 0.0000000000000000e+00  -3.7109609988827079e-04 -3.6520364967180287e-05 0.0000000000000000e+00  -4.7724981303149181e-04 -4.8526347771567440e-05 0.0000000000000000e+00  -6.1364584769301139e-04 -6.4154184224473942e-05 0.0000000000000000e+00  -7.8462542535316898e-04 -8.2610822883244709e-05 0.0000000000000000e+00  -9.8840620727192537e-04 -9.7523278763323874e-05 0.0000000000000000e+00  -1.2137357693085321e-03 -8.7394575332127246e-05 0.0000000000000000e+00  0.0000000000000000e+00 0.0000000000000000e+00 0.0000000000000000e+00  -1.1753419651916636e-05 -9.8579987398896286e-07 0.0000000000000000e+00  -2.4112153904190626e-05 -2.0339560861299714e-06 0.0000000000000000e+00  -3.7722796495150361e-05 -3.2129627544586516e-06 0.0000000000000000e+00  -5.3335216003383986e-05 -4.6057711682680093e-06 0.0000000000000000e+00  -7.1871038688003420e-05 -6.3200289945595851e-06 0.0000000000000000e+00  -9.4516549022567400e-05 -8.5027670551771906e-06 0.0000000000000000e+00  -1.2285449088852074e-04 -1.1362569684116816e-05 0.0000000000000000e+00  -1.5905556589008082e-04 -1.5204205926152270e-05 0.0000000000000000e+00  -2.0615804700895832e-04 -2.0484153129972199e-05 0.0000000000000000e+00  -2.6846822097123274e-04 -2.7901548308888035e-05 0.0000000000000000e+00  -3.5209760900197271e-04 -3.8549142183939237e-05 0.0000000000000000e+00  -4.6555730601667615e-04 -5.4159547874469514e-05 0.0000000000000000e+00  -6.1997889556913261e-04 -7.7452497643044668e-05 0.0000000000000000e+00  -8.2739407565891431e-04 -1.1222690290471477e-04 0.0000000000000000e+00  -1.0922504462437511e-03 -1.6016924654470381e-04 0.0000000000000000e+00  -1.4024889123482895e-03 -1.9540322471822691e-04 0.0000000000000000e+00  0.0000000000000000e+00 0.0000000000000000e+00 0.0000000000000000e+00  -9.3963973255006980e-06 -8.0358108802140667e-07 0.0000000000000000e+00  -1.9298892284326796e-05 -1.6618050486059928e-06 0.0000000000000000e+00  -3.0250877023948602e-05 -2.6352478307465116e-06 0.0000000000000000e+00  -4.2891393946453258e-05 -3.7987305963535784e-06 0.0000000000000000e+00  -5.8021131549427173e-05 -5.2518094925761751e-06 0.0000000000000000e+00  -7.6695970570002619e-05 -7.1344046266851805e-06 0.0000000000000000e+00  -1.0036716189995985e-04 -9.6514093241610065e-06 0.0000000000000000e+00  -1.3109957608447643e-04 -1.3113018216458640e-05 0.0000000000000000e+00  -1.7192069146011247e-04 -1.8003256144255956e-05 0.0000000000000000e+00  -2.2738752045382306e-04 -2.5101372975750398e-05 0.0000000000000000e+00  -3.0450703407271555e-04 -3.5709122881768169e-05 0.0000000000000000e+00  -4.1418075663609503e-04 -5.2109740803142569e-05 0.0000000000000000e+00  -5.7321533648555195e-04 -7.8584111305692384e-05 0.0000000000000000e+00  -8.0597175019860967e-04 -1.2384444127740106e-04 0.0000000000000000e+00  -1.1391389815856180e-03 -2.0675793508420713e-04 0.0000000000000000e+00  -1.5241478930988431e-03 -3.6152786201578395e-04 0.0000000000000000e+00  0.0000000000000000e+00 0.0000000000000000e+00 0.0000000000000000e+00  -6.5532234312324701e-06 -5.6845981742974954e-07 0.0000000000000000e+00  -1.3470633081435579e-05 -1.1775180183387366e-06 0.0000000000000000e+00  -2.1144689417548077e-05 -1.8724502658049625e-06 0.0000000000000000e+00  -3.0041587388243093e-05 -2.7098926381793417e-06 0.0000000000000000e+00  -4.0753592206159939e-05 -3.7663769228777476e-06 0.0000000000000000e+00  -5.4075566022734129e-05 -5.1512649814327170e-06 0.0000000000000000e+00  -7.1124186000807711e-05 -7.0274078278892223e-06 0.0000000000000000e+00  -9.3532944421330540e-05 -9.6452906827838719e-06 0.0000000000000000e+00  -1.2378473937991820e-04 -1.3400941532487618e-05 0.0000000000000000e+00  -1.6580132256320480e-04 -1.8936557149347382e-05 0.0000000000000000e+00  -2.2602436989656053e-04 -2.7321305919715986e-05 0.0000000000000000e+00  -3.1544927884382274e-04 -4.0399596900444081e-05 0.0000000000000000e+00  -4.5348086442869418e-04 -6.1578621387193449e-05 0.0000000000000000e+00  -6.7511913640665307e-04 -9.8177385167400434e-05 0.0000000000000000e+00  -1.0443646914365320e-03 -1.7052518535607721e-04 0.0000000000000000e+00  -1.6869247816060061e-03 -3.4882249726442841e-04 0.0000000000000000e+00  0.0000000000000000e+00 0.0000000000000000e+00 0.0000000000000000e+00  -3.3641056526586878e-06 -2.9435552779099142e-07 0.0000000000000000e+00  -6.9183963411733968e-06 -6.1030977869626310e-07 0.0000000000000000e+00  -1.0868218180999548e-05 -9.7202205148725805e-07 0.0000000000000000e+00  -1.5458856380069421e-05 -1.4099089404082875e-06 0.0000000000000000e+00  -2.1004335254824774e-05 -1.9653791887759116e-06 0.0000000000000000e+00  -2.7930275761986256e-05 -2.6980354787504013e-06 0.0000000000000000e+00  -3.6842165283372855e-05 -3.6971495856302153e-06 0.0000000000000000e+00  -4.8640279468069863e-05 -5.1003288280571299e-06 0.0000000000000000e+00  -6.4723270191821170e-05 -7.1237110979089782e-06 0.0000000000000000e+00  -8.7367694891680132e-05 -1.0108129207008940e-05 0.0000000000000000e+00  -1.2047182666029765e-04 -1.4575529908774287e-05 0.0000000000000000e+00  -1.7107253866112141e-04 -2.1227731306310920e-05 0.0000000000000000e+00  -2.5243202576845337e-04 -3.0524684991452308e-05 0.0000000000000000e+00  -3.8934445482072895e-04 -4.0282713727966632e-05 0.0000000000000000e+00  -6.1899194119798700e-04 -3.6606558488644425e-05 0.0000000000000000e+00  -9.4225660079886285e-04 1.8802413476759291e-05 0.0000000000000000e+00  0.0000000000000000e+00 0.0000000000000000e+00 0.0000000000000000e+00  0.0000000000000000e+00 0.0000000000000000e+00 0.0000000000000000e+00  0.0000000000000000e+00 0.0000000000000000e+00 0.0000000000000000e+00  0.0000000000000000e+00 0.0000000000000000e+00 0.0000000000000000e+00  0.0000000000000000e+00 0.0000000000000000e+00 0.0000000000000000e+00  0.0000000000000000e+00 0.0000000000000000e+