<?xml version="1.0"?>
<VTKFile type="UnstructuredGrid"  version="0.1"  >
<UnstructuredGrid>
<Piece  NumberOfPoints="289" NumberOfCells="512">
<Points>
<DataArray  type="Float64"  NumberOfComponents="3"  format="ascii">0 0 0  0.0625 0 0  0.125 0 0  0.1875 0 0  0.25 0 0  0.3125 0 0  0.375 0 0  0.4375 0 0  0.5 0 0  0.5625 0 0  0.625 0 0  0.6875 0 0  0.75 0 0  0.8125 0 0  0.875 0 0  0.9375 0 0  1 0 0  0 0.0625 0  0.06250655261908152 0.06247945486491752 0  0.1250133644482877 0.06245854642322558 0  0.1875206942408918 0.06243694066920119 0  0.250028832353785 0.06241438018423563 0  0.3125381241647124 0.06239073360087733 0  0.3750490068997741 0.06236605728282884 0  0.4375620715119586 0.06234066972400416 0  0.5000781711847411 0.06231523391576246 0  0.5625986176872086 0.06229083349045357 0  0.6251255470332836 0.06226901327572615 0  0.687662620955884 0.0622517343703225 0  0.7502164087624175 0.06224117688113261 0  0.8127991055027038 0.06223935074927399 0  0.8754332620054976 0.06224771371339267 0  0.93815450370483 0.06226826447697791 0  1.000965162884631 0.06231627307798777 0  0 0.125 0  0.06251282108168779 0.1249592587788053 0  0.125026157238938 0.1249177527361851 0  0.1875405275622501 0.124874771427619 0  0.2500565204525871 0.1248297486349958 0  0.3125748454164599 0.1247823584365033 0  0.375096413953018 0.1247326387184816 0  0.4376224733934958 0.1246811459694401 0  0.5001548362891147 0.1246291363211519 0  0.562696282936807 0.1245787504701298 0  0.6252512799365505 0.1245331494416872 0  0.6878272765572303 0.1244964994926138 0  0.7504370367843666 0.1244736394770794 0  0.8131026943562452 0.1244692109507091 0  0.8758621401287031 0.1244860996811808 0  0.938777461062455 0.1245234542010029 0  1.00195344278293 0.124574034249684 0  0 0.1875 0  0.06251858446583876 0.1874398203266442 0  0.1250379175499099 0.1873784046565268 0  0.1875587593761814 0.1873145875505158 0  0.2500819740412344 0.1872473960845647 0  0.3126086068032131 0.1871761849812966 0  0.3751400026190622 0.1871008189412803 0  0.4376779971785705 0.1870219144967658 0  0.5002252321025237 0.1869411450205482 0  0.5627856793111023 0.1868615923095664 0  0.625365509665903 0.1867880864669548 0  0.6879745028329681 0.1867273955021591 0  0.7506282251524552 0.1866879742844635 0  0.8133510420363066 0.1866786775313596 0  0.8761793246343523 0.1867051158025297 0  0.9391628787050968 0.1867602095631268 0  1.002364264573864 0.1867987717687672 0  0 0.25 0  0.06252364622462726 0.2499216169032699 0  0.1250482348058958 0.2498414355087649 0  0.1875747280775116 0.2497577301226519 0  0.2501042161295629 0.2496689842561822 0  0.3126380105999757 0.2495740499634527 0  0.3751777861716258 0.2494723777467724 0  0.4377258026984684 0.249364344002901 0  0.5002852578612028 0.2492517005762075 0  0.5628608416849914 0.2491381580339248 0  0.625459582321113 0.249030078127815 0  0.688092060744214 0.2489371680576379 0  0.7507739619485562 0.2488728973995226 0  0.8135275866290544 0.2488540269000394 0  0.87638223275248 0.2488980581235888 0  0.9393715871028431 0.2490166821865788 0  1.002527162346982 0.2492039757781494 0  0 0.3125 0  0.06252783985088334 0.3124052152137899 0  0.1250567635577501 0.3123079730977695 0  0.1875878827708269 0.3122058715292827 0  0.2501224449576693 0.3120966895215913 0  0.3126619323347242 0.3119785459620203 0  0.3752082096777196 0.3118501515223899 0  0.4377637535369055 0.3117111999949434 0  0.5003320094392203 0.3115629561579248 0  0.5629179367370704 0.3114091045495948 0  0.6255287995456498 0.3112569157618562 0  0.6881752155454297 0.311118739203419 0  0.7508723265046967 0.3110136953901917 0  0.8136406495489766 0.3109691369951942 0  0.8765058011987853 0.3110208882725622 0  0.9394965531219795 0.3112104976919778 0  1.002643594695105 0.3115772145254184 0  0 0.375 0  0.06253103045106898 0.3748912758418653 0  0.1250632287697498 0.3747793547917525 0  0.1875977966211723 0.3746610541588907 0  0.2501360622019425 0.3745332882495405 0  0.3126795723777533 0.3743931907142901 0  0.3752302312094994 0.3742383440346742 0  0.4377905184769154 0.3740671814372181 0  0.5003638390064821 0.3738796560093329 0  0.5629550727784025 0.3736783114041323 0  0.6255714058372561 0.3734699337290501 0  0.6882234966634746 0.3732679960200593 0  0.7509269278021879 0.3730960722196297 0  0.813703674744503 0.3729921789714004 0  0.8765830934694098 0.3730133963872972 0  0.9396022101805618 0.3732389033905701 0  1.002807142066597 0.3737677789356013 0  0 0.4375 0  0.06253311328149637 0.4373805361493486 0  0.1250674233153632 0.4372570980163282 0  0.1876041640841479 0.4371256596838411 0  0.2501446706827979 0.4369821469802765 0  0.3126904530658869 0.4368224790437584 0  0.3752433098095396 0.4366427124391409 0  0.4378055187002894 0.436439363909841 0  0.5003801694088249 0.436210036484503 0  0.5629717483614187 0.4359545516037744 0  0.6255871481419586 0.4356769082142536 0  0.688237341529404 0.4353885519371327 0  0.7509399930023503 0.4351136112214697 0  0.8137231952302475 0.4348968049598477 0  0.8766302219261388 0.4348142843840926 0  0.9397247785086592 0.4349861143151294 0  1.003096580318614 0.4355861079661901 0  0 0.5 0  0.06253401125925485 0.4998737671053912 0  0.125069201748883 0.4997428153814927 0  0.1876067885773303 0.4996022873616954 0  0.2501480523901131 0.4994470772588855 0  0.3126943819507034 0.4992717458808713 0  0.3752473456070643 0.4990705061921303 0  0.4378088276475778 0.4988373487370651 0  0.5003813120011077 0.4985664360885342 0  0.5629684828241883 0.4982530039802323 0  0.6255764702021098 0.4978951992305298 0  0.6882163293232962 0.4974976133177053 0  0.7509086962881585 0.4970777874312708 0  0.8136918704957525 0.49667762625326 0  0.8766343878322987 0.4963820188522594 0  0.9398517256838519 0.4963455866964009 0  1.003524377155635 0.4968228905799518 0  0 0.5625 0  0.06253367364361764 0.5623717028857047 0  0.125068474914918 0.5622380699897281 0  0.1876055679102555 0.5620935285929577 0  0.2501461377054912 0.5619320243109235 0  0.3126913976657915 0.5617467738456865 0  0.3752425999909675 0.5615300260764543 0  0.4378010784933342 0.5612728690007793 0  0.5003684075280773 0.5609651733940084 0  0.5629468897833084 0.5605958742844341 0  0.6255408663262927 0.5601540183085653 0  0.6881599036993985 0.559631469426163 0  0.7508259052256306 0.5590290935638921 0  0.8135875959479052 0.5583699676459455 0  0.8765468640675076 0.557725748959611 0  0.9398995918000556 0.5572638423093526 0  1.003984995527919 0.5573163904307771 0  0 0.625 0  0.06253207753988788 0.6248749473423377 0  0.1250652089766439 0.6247441776533804 0  0.1876004831271217 0.6246016432797644 0  0.2501389726645858 0.6244405854802781 0  0.3126817028262938 0.6242531141321976 0  0.3752295888872013 0.6240297100808663 0  0.4377833444163596 0.6237586313732388 0  0.5003434064208501 0.6234252269533003 0  0.5629100578038919 0.6230112249147072 0  0.6254842885230899 0.6224942305006874 0  0.6880708200113262 0.6218481043886174 0  0.7506866747305148 0.621046015753316 0  0.8133824287570222 0.6200708232534002 0  0.8762886663299622 0.6189441417232623 0  0.9397024314876751 0.617796707183126 0  1.004215839935589 0.6170002330379063 0  0 0.6875 0  0.06252923290056189 0.6873838680401426 0  0.1250594308464143 0.6872619775499769 0  0.1875915946411417 0.6871281699962412 0  0.2501266889286929 0.6869753982071495 0  0.312665582593281 0.6867951588762762 0  0.3752089206518203 0.6865767573761554 0  0.4377568856324585 0.6863063172277324 0  0.5003088063042549 0.6859654180484945 0  0.5628626324813112 0.6855292147411121 0  0.6254145719994978 0.6849638819022313 0  0.6879601258198337 0.6842233410610936 0  0.7505005266274272 0.6832458539394594 0  0.8130658437939208 0.6819537110140215 0  0.875781961491687 0.6802696317125638 0  0.9390294726302122 0.6782001050782955 0  1.003732571499668 0.6760887105499277 0  0 0.75 0  0.06252519063083428 0.7498984949216686 0  0.1250512405722906 0.7497916078772715 0  0.1875790494598112 0.7496735309608997 0  0.2501094856607576 0.7495374901364669 0  0.3126433213880241 0.7493750971102233 0  0.3751810760689861 0.7491754652074486 0  0.4377226820020502 0.7489239426025001 0  0.5002668177173089 0.7486002364049987 0  0.5628096555389093 0.7481755652853128 0  0.6253427022219777 0.7476082420712739 0  0.6878497147400823 0.7468366680255328 0  0.7503047336032208 0.7457680081522574 0  0.8126820725739914 0.7442600465287033 0  0.875020695755622 0.7420965607129507 0  0.9376779645673143 0.7389942179085022 0  1.001860597962485 0.735039369254504 0  0 0.8125 0  0.06252005241412091 0.8124184446125609 0  0.1250408299701992 0.8123323332421949 0  0.1875631042276986 0.8122367146825408 0  0.2500876422937415 0.8121257288091897 0  0.3126151644341497 0.8119919766440604 0  0.3751462173727226 0.8118256332266469 0  0.4376808623172382 0.8116131314087747 0  0.5002179565450809 0.8113351384526589 0  0.5627535461489644 0.8109633576072962 0  0.6252773385169074 0.8104553314718602 0  0.6877651711186108 0.8097456945367156 0  0.7501639102764982 0.8087306175562381 0  0.8123661294445481 0.8072376620640892 0  0.8741948418996737 0.8049604344206674 0  0.9355846254721084 0.8013025619751126 0  0.9984588064320097 0.795003670863107 0  0 0.875 0  0.06251397987473745 0.8749428907991986 0  0.1250285046954322 0.8748824705757502 0  0.1875441666554134 0.8748151230420657 0  0.2500615846397259 0.8747365235738295 0  0.312581399509589 0.8746411378654425 0  0.3751042226547049 0.8745215019491469 0  0.4376304669940473 0.874367132545779 0  0.5001598812971294 0.8741628209924165 0  0.5626903285992461 0.873885899329982 0  0.6252146102935746 0.8735017846660368 0  0.6877121551235503 0.8729566025705172 0  0.7501270361626652 0.8721645954546755 0  0.8123094244592214 0.8709844765920476 0  0.8738605988346502 0.8691628333243102 0  0.9337379060786842 0.866143795779136 0  0.9893893028164694 0.8602622716710563 0  0 0.9375 0  0.06250719961891356 0.9374705948923456 0  0.1250147030259383 0.9374394472499619 0  0.1875228477335492 0.9374046482493521 0  0.2500320064778125 0.9373639012330799 0  0.3125426061316947 0.9373142438613451 0  0.3750551404053115 0.9372516445996515 0  0.4375701564846546 0.9
[...]
<PointData  Vectors="f_54"> 
<DataArray  type="Float64"  Name="f_54"  NumberOfComponents="3" format="ascii">0.0000000000000000e+00 0.0000000000000000e+00 0.0000000000000000e+00  0.0000000000000000e+00 0.0000000000000000e+00 0.0000000000000000e+00  0.0000000000000000e+00 0.0000000000000000e+00 0.0000000000000000e+00  0.0000000000000000e+00 0.0000000000000000e+00 0.0000000000000000e+00  0.0000000000000000e+00 0.0000000000000000e+00 0.0000000000000000e+00  0.0000000000000000e+00 0.0000000000000000e+00 0.0000000000000000e+00  0.0000000000000000e+00 0.0000000000000000e+00 0.0000000000000000e+00  0.0000000000000000e+00 0.0000000000000000e+00 0.0000000000000000e+00  0.0000000000000000e+00 0.0000000000000000e+00 0.0000000000000000e+00  0.0000000000000000e+00 0.0000000000000000e+00 0.0000000000000000e+00  0.0000000000000000e+00 0.0000000000000000e+00 0.0000000000000000e+00  0.0000000000000000e+00 0.0000000000000000e+00 0.0000000000000000e+00  0.0000000000000000e+00 0.0000000000000000e+00 0.0000000000000000e+00  0.0000000000000000e+00 0.0000000000000000e+00 0.0000000000000000e+00  0.0000000000000000e+00 0.0000000000000000e+00 0.0000000000000000e+00  0.0000000000000000e+00 0.0000000000000000e+00 0.0000000000000000e+00  0.0000000000000000e+00 0.0000000000000000e+00 0.0000000000000000e+00  0.0000000000000000e+00 0.0000000000000000e+00 0.0000000000000000e+00  4.6032304293185424e-06 6.8773830566396317e-08 0.0000000000000000e+00  9.3281852394264890e-06 1.3785018853660792e-07 0.0000000000000000e+00  1.4297235968445733e-05 2.0734489715855036e-07 0.0000000000000000e+00  1.9627595221135943e-05 2.7689749861921701e-07 0.0000000000000000e+00  2.5426840521740794e-05 3.4540047064386566e-07 0.0000000000000000e+00  3.1785868921243980e-05 4.1070172897911933e-07 0.0000000000000000e+00  3.8768256004264769e-05 4.6929689896440082e-07 0.0000000000000000e+00  4.6394965278914963e-05 5.1604912169980169e-07 0.0000000000000000e+00  5.4623566722528893e-05 5.4398610466123499e-07 0.0000000000000000e+00  6.3322027149323223e-05 5.4417910339777940e-07 0.0000000000000000e+00  7.2240072844475894e-05 5.0545881528447619e-07 0.0000000000000000e+00  8.0990580295010065e-05 4.1279917163224117e-07 0.0000000000000000e+00  8.9085724034565286e-05 2.3995494548129277e-07 0.0000000000000000e+00  9.6190869123520832e-05 -8.0093231475745682e-08 0.0000000000000000e+00  1.0322057768118546e-04 -7.7180432851650565e-07 0.0000000000000000e+00  1.1676961891517494e-04 -2.6923333265595775e-06 0.0000000000000000e+00  0.0000000000000000e+00 0.0000000000000000e+00 0.0000000000000000e+00  9.0827283861976201e-06 1.3721375284877236e-07 0.0000000000000000e+00  1.8411365267353047e-05 2.7526415229955655e-07 0.0000000000000000e+00  2.8233618529629755e-05 4.1462740365722780e-07 0.0000000000000000e+00  3.8788537300970116e-05 5.5485242187307367e-07 0.0000000000000000e+00  5.0298502130875533e-05 6.9401918447063392e-07 0.0000000000000000e+00  6.2956171378193441e-05 8.2812631401651176e-07 0.0000000000000000e+00  7.6904261218374548e-05 9.5043632281003347e-07 0.0000000000000000e+00  9.2205804130662206e-05 1.0508628848080805e-06 0.0000000000000000e+00  1.0880249450703098e-04 1.1155552760319369e-06 0.0000000000000000e+00  1.2645916658269516e-04 1.1268908333396541e-06 0.0000000000000000e+00  1.4469376855254216e-04 1.0640516002730378e-06 0.0000000000000000e+00  1.6269461878905736e-04 9.0415029467075138e-07 0.0000000000000000e+00  1.7922763352300159e-04 6.2384948266377143e-07 0.0000000000000000e+00  1.9251381668843119e-04 2.0532032307681244e-07 0.0000000000000000e+00  1.9987870969836796e-04 -3.1856264993196345e-07 0.0000000000000000e+00  1.9588907233915865e-04 -5.5663365590135846e-07 0.0000000000000000e+00  0.0000000000000000e+00 0.0000000000000000e+00 0.0000000000000000e+00  1.3311633131898724e-05 2.0474105381877770e-07 0.0000000000000000e+00  2.6997348647306388e-05 4.1130040518144237e-07 0.0000000000000000e+00  4.1435139135740939e-05 6.2099255022843816e-07 0.0000000000000000e+00  5.6994047965365766e-05 8.3381536460833134e-07 0.0000000000000000e+00  7.4024494731686168e-05 1.0476445011814375e-06 0.0000000000000000e+00  9.2841349318965763e-05 1.2572764568562414e-06 0.0000000000000000e+00  1.1369649745878820e-04 1.4533405702228990e-06 0.0000000000000000e+00  1.3673702993105425e-04 1.6211955393892049e-06 0.0000000000000000e+00  1.6194459367102545e-04 1.7400850945442807e-06 0.0000000000000000e+00  1.8905091510798569e-04 1.7830590157100557e-06 0.0000000000000000e+00  2.1742375495187945e-04 1.7184348615609123e-06 0.0000000000000000e+00  2.4591499510894725e-04 1.5137286559372876e-06 0.0000000000000000e+00  2.7265253073935353e-04 1.1425269165990286e-06 0.0000000000000000e+00  2.9472359294317236e-04 5.9180255928741242e-07 0.0000000000000000e+00  3.0760281942076895e-04 -1.4844636613592341e-07 0.0000000000000000e+00  3.0401964843167011e-04 -1.2221023272251913e-06 0.0000000000000000e+00  0.0000000000000000e+00 0.0000000000000000e+00 0.0000000000000000e+00  1.7159686651780478e-05 2.7033325958125119e-07 0.0000000000000000e+00  3.4825581995159564e-05 5.4409498368426510e-07 0.0000000000000000e+00  5.3511237080121529e-05 8.2412189833838754e-07 0.0000000000000000e+00  7.3725509807834582e-05 1.1116630344193085e-06 0.0000000000000000e+00  9.5963964247616068e-05 1.4053401513504330e-06 0.0000000000000000e+00  1.2069134308431148e-04 1.6998244633356503e-06 0.0000000000000000e+00  1.4831079405340386e-04 1.9841974036934375e-06 0.0000000000000000e+00  1.7911442869621527e-04 2.2400780604329016e-06 0.0000000000000000e+00  2.1320853914132636e-04 2.4398383673520594e-06 0.0000000000000000e+00  2.5040546025875644e-04 2.5456709147579638e-06 0.0000000000000000e+00  2.9007251642480287e-04 2.5110092541591538e-06 0.0000000000000000e+00  3.3092601936893766e-04 2.2868340487355322e-06 0.0000000000000000e+00  3.7075314849595228e-04 1.8364372147918138e-06 0.0000000000000000e+00  4.0603553493938268e-04 1.1622566401714011e-06 0.0000000000000000e+00  4.3144736231762236e-04 3.4591657658817416e-07 0.0000000000000000e+00  4.3928372854585662e-04 -3.9507457607563854e-07 0.0000000000000000e+00  0.0000000000000000e+00 0.0000000000000000e+00 0.0000000000000000e+00  2.0493554844806949e-05 3.3234718015191136e-07 0.0000000000000000e+00  4.1627151601648430e-05 6.7047867038399148e-07 0.0000000000000000e+00  6.4053143323979859e-05 1.0195881856536119e-06 0.0000000000000000e+00  8.8428944879687230e-05 1.3832103453839004e-06 0.0000000000000000e+00  1.1541296412049776e-04 1.7620267063512948e-06 0.0000000000000000e+00  1.4565080458993883e-04 2.1522061082665668e-06 0.0000000000000000e+00  1.7974658169016676e-04 2.5431281455465571e-06 0.0000000000000000e+00  2.1821250300418639e-04 2.9144155386295617e-06 0.0000000000000000e+00  2.6138783442050299e-04 3.2324376137748947e-06 0.0000000000000000e+00  3.0931621576647410e-04 3.4470200858963592e-06 0.0000000000000000e+00  3.6156838757358086e-04 3.4903029481224034e-06 0.0000000000000000e+00  4.1699637608748482e-04 3.2819370831353328e-06 0.0000000000000000e+00  4.7340632242499783e-04 2.7484357514815065e-06 0.0000000000000000e+00  5.2714429567392231e-04 1.8691391702889842e-06 0.0000000000000000e+00  5.7261569107470859e-04 7.6448084786745992e-07 0.0000000000000000e+00  6.0183887120531096e-04 -1.6312289499768989e-07 0.0000000000000000e+00  0.0000000000000000e+00 0.0000000000000000e+00 0.0000000000000000e+00  2.3179310958925953e-05 3.8840724016492331e-07 0.0000000000000000e+00  4.7129307199869650e-05 7.8571496210017415e-07 0.0000000000000000e+00  7.2639496580658369e-05 1.2003615188385373e-06 0.0000000000000000e+00  1.0052005644347670e-04 1.6393536883533646e-06 0.0000000000000000e+00  1.3160619554243623e-04 2.1070786075858255e-06 0.0000000000000000e+00  1.6675325567027999e-04 2.6034552061546653e-06 0.0000000000000000e+00  2.0681697657121974e-04 3.1210890058414585e-06 0.0000000000000000e+00  2.5261097568602591e-04 3.6410393331629664e-06 0.0000000000000000e+00  3.0483045285020370e-04 4.1268660367925368e-06 0.0000000000000000e+00  3.6392769933182373e-04 4.5170310221249621e-06 0.0000000000000000e+00  4.2992197916077437e-04 4.7170113287320935e-06 0.0000000000000000e+00  5.0212545536571342e-04 4.5956484453485608e-06 0.0000000000000000e+00  5.7877089293744712e-04 3.9969313433382962e-06 0.0000000000000000e+00  6.5653932438356540e-04 2.7902738518383317e-06 0.0000000000000000e+00  7.3000752900049626e-04 9.9872398593449772e-07 0.0000000000000000e+00  7.9105335387806813e-04 -9.4318948604950463e-07 0.0000000000000000e+00  0.0000000000000000e+00 0.0000000000000000e+00 0.0000000000000000e+00  2.5087480570293926e-05 4.3539715390198314e-07 0.0000000000000000e+00  5.1065410407485862e-05 8.8343957062334907e-07 0.0000000000000000e+00  7.8850850982571349e-05 1.3565977666304583e-06 0.0000000000000000e+00  1.0940251201521599e-04 1.8665285567045500e-06 0.0000000000000000e+00  1.4373744655602253e-04 2.4231535982720864e-06 0.0000000000000000e+00  1.8294063334479757e-04 3.0329517333880662e-06 0.0000000000000000e+00  2.2816214895053541e-04 3.6959258511912760e-06 0.0000000000000000e+00  2.8059356789584617e-04 4.4004223711691002e-06 0.0000000000000000e+00  3.4141092243011330e-04 5.1146245179987806e-06 0.0000000000000000e+00  4.1166610901898919e-04 5.7732633098189615e-06 0.0000000000000000e+00  4.9210297841722236e-04 6.2584355178029305e-06 0.0000000000000000e+00  5.8287113340628016e-04 6.3758773505641888e-06 0.0000000000000000e+00  6.8311483170909197e-04 5.8360256965546530e-06 0.0000000000000000e+00  7.9043232515860640e-04 4.2689232025995774e-06 0.0000000000000000e+00  9.0022820840390816e-04 1.3410698200910628e-06 0.0000000000000000e+00  1.0049735323102145e-03 -2.8970536905077239e-06 0.0000000000000000e+00  0.0000000000000000e+00 0.0000000000000000e+00 0.0000000000000000e+00  2.6100735156014288e-05 4.6959726918717127e-07 0.0000000000000000e+00  5.3190595362293920e-05 9.5589880239257661e-07 0.0000000000000000e+00  8.2293798690007312e-05 1.4758872553152428e-06 0.0000000000000000e+00  1.1450102162030889e-04 2.0467776802601640e-06 0.0000000000000000e+00  1.5100170963356307e-04 2.6857073341344844e-06 0.0000000000000000e+00  1.9311343272297908e-04 3.4086976529263199e-06 0.0000000000000000e+00  2.4230432550340783e-04 4.2282361524902155e-06 0.0000000000000000e+00  3.0020112063901196e-04 5.1482944250159317e-06 0.0000000000000000e+00  3.6856970705531714e-04 6.1546709085353677e-06 0.0000000000000000e+00  4.4924702648790822e-04 7.1970407915888829e-06 0.0000000000000000e+00  5.4399287214212163e-04 8.1570042495316297e-06 0.0000000000000000e+00  6.5422094547153468e-04 8.7946758602655981e-06 0.0000000000000000e+00  7.8056969206102334e-04 8.6689462759519146e-06 0.0000000000000000e+00  9.2230330181258422e-04 7.0448999509580977e-06 0.0000000000000000e+00  1.0766081182376488e-03 2.8585502581275765e-06 0.0000000000000000e+00  1.2379221222228326e-03 -5.0755132907218513e-06 0.0000000000000000e+00  0.0000000000000000e+00 0.0000000000000000e+00 0.0000000000000000e+00  2.6123907704705555e-05 4.8700152942672365e-07 0.0000000000000000e+00  5.3302590159968535e-05 9.9457497160317123e-07 0.0000000000000000e+00  8.2634150635771904e-05 1.5441518194019415e-06 0.0000000000000000e+00  1.1530905450359111e-04 2.1587996131124277e-06 0.0000000000000000e+00  1.5265990587064553e-04 2.8638757332147201e-06 0.0000000000000000e+00  1.9621451473577045e-04 3.6872949881384161e-06 0.0000000000000000e+00  2.4775106449694028e-04 4.6588779607957282e-06 0.0000000000000000e+00  3.0935085409540021e-04 5.8076148916478388e-06 0.0000000000000000e+00  3.8343789391578073e-04 7.1543515859357212e-06 0.0000000000000000e+00  4.7278393539607099e-04 8.6946532399182382e-06 0.0000000000000000e+00  5.8044091993808816e-04 1.0361107678650025e-05 0.0000000000000000e+00  7.0954190742002947e-04 1.1944219621691887e-05 0.0000000000000000e+00  8.6289867851686397e-04 1.2935788126462750e-05 0.0000000000000000e+00  1.0423607187647081e-03 1.2247645597468248e-05 0.0000000000000000e+00  1.2480813407954327e-03 7.7927537463601346e-06 0.0000000000000000e+00  1.4782905763946370e-03 -3.9315898537438949e-06 0.0000000000000000e+00  0.0000000000000000e+00 0.0000000000000000e+00 0.0000000000000000e+00  2.5095508814268279e-05 4.8381990831079061e-07 0.0000000000000000e+00  5.1266109702531957e-05 9.9123263660297348e-07 0.0000000000000000e+00  7.9636953515788890e-05 1.5473066121943852e-06 0.0000000000000000e+00  1.1144866244873115e-04 2.1802907728864163e-06 0.0000000000000000e+00  1.4812405687080691e-04 2.9234568385436909e-06 0.0000000000000000e+00  1.9134608027147681e-04 3.8171835664216585e-06 0.0000000000000000e+00  2.4315013401513566e-04 4.9111887033142906e-06 0.0000000000000000e+00  3.0603214244284466e-04 6.2664255094607020e-06 0.0000000000000000e+00  3.8306866594689976e-04 7.9551146160167619e-06 0.0000000000000000e+00  4.7803412104954431e-04 1.0054609612291474e-05 0.0000000000000000e+00  5.9547780309886190e-04 1.2623554795863788e-05 0.0000000000000000e+00  7.4068506659976025e-04 1.5630414080399233e-05 0.0000000000000000e+00  9.1939750668137196e-04 1.8760644532080024e-05 0.0000000000000000e+00  1.1371566132690075e-03 2.0939130974587381e-05 0.0000000000000000e+00  1.3983551601974059e-03 1.9288545815825577e-05 0.0000000000000000e+00  1.7058655303342218e-03 7.2605333911353227e-06 0.0000000000000000e+00  0.0000000000000000e+00 0.0000000000000000e+00 0.0000000000000000e+00  2.2999397895406745e-05 4.5712310958827752e-07 0.0000000000000000e+00  4.7038083523630699e-05 9.3931164561349500e-07 0.0000000000000000e+00  7.3209162586289656e-05 1.4736188566954898e-06 0.0000000000000000e+00  1.0273685339444857e-04 2.0916162895335932e-06 0.0000000000000000e+00  1.3705641064537606e-04 2.8323673388089021e-06 0.0000000000000000e+00  1.7791362594143527e-04 3.7463972323310162e-06 0.0000000000000000e+00  2.2749284475733839e-04 4.9012327162889359e-06 0.0000000000000000e+00  2.8858372499527402e-04 6.3893172798406045e-06 0.0000000000000000e+00  3.6479637944700379e-04 8.3393259342383434e-06 0.0000000000000000e+00  4.6082808843553135e-04 1.0931597185432152e-05 0.0000000000000000e+00  5.8276371811869778e-04 1.4415341157496364e-05 0.0000000000000000e+00  7.3834010951616836e-04 1.9110886123302578e-05 0.0000000000000000e+00  9.3700125762017142e-04 2.5324071604718476e-05 0.0000000000000000e+00  1.1894331912538710e-03 3.2906134449083356e-05 0.0000000000000000e+00  1.5064085435198362e-03 3.9674535554443695e-05 0.0000000000000000e+00  1.8986575094200276e-03 3.8153255139175445e-05 0.0000000000000000e+00  0.0000000000000000e+00 0.0000000000000000e+00 0.0000000000000000e+00  1.9874806206256722e-05 4.0552627796074908e-07 0.0000000000000000e+00  4.0689911285142110e-05 8.3544986929372078e-07 0.0000000000000000e+00  6.3438791847224697e-05 1.3164167694632961e-06 0.0000000000000000e+00  8.9249534209501192e-05 1.8803340956251357e-06 0.0000000000000000e+00  1.1947050191883604e-04 2.5680535690372276e-06 0.0000000000000000e+00  1.5578237070798363e-04 3.4346297917769705e-06 0.0000000000000000e+00  2.0035132957383451e-04 4.5573032838433489e-06 0.0000000000000000e+00  2.5604425258308669e-04 6.0482617448389068e-06 0.0000000000000000e+00  3.2673436039317767e-04 8.0761150073013256e-06 0.0000000000000000e+00  4.1773299378977023e-04 1.0904026259958325e-05 0.0000000000000000e+00  5.3638080413086068e-04 1.4960719109430737e-05 0.0000000000000000e+00  6.9279391608725459e-04 2.0974887407068157e-05 0.0000000000000000e+00  9.0062257957143567e-04 3.0209891197368589e-05 0.0000000000000000e+00  1.1773137248493255e-03 4.4698924031887232e-05 0.0000000000000000e+00  1.5427493631335126e-03 6.6105718302929715e-05 0.0000000000000000e+00  2.0193158278757977e-03 8.1849875324344334e-05 0.0000000000000000e+00  0.0000000000000000e+00 0.0000000000000000e+00 0.0000000000000000e+00  1.5822653830796273e-05 3.2976001132111972e-07 0.0000000000000000e+00  3.2422240468785654e-05 6.8079240805178621e-07 0.0000000000000000e+00  5.0622808121457600e-05 1.0765240216728745e-06 0.0000000000000000e+00  7.1370873602640575e-05 1.5455051290802114e-06 0.0000000000000000e+00  9.5816093476993756e-05 2.1250930415694461e-06 0.0000000000000000e+00  1.2542090239646203e-04 2.8668292291992631e-06 0.0000000000000000e+00  1.6211768641222698e-04 3.8447649888206018e-06 0.0000000000000000e+00  2.0854273738225254e-04 5.1690143421920805e-06 0.0000000000000000e+00  2.6839397784831498e-04 7.0091256584573470e-06 0.0000000000000000e+00  3.4698774158493646e-04 9.6377265878597851e-06 0.0000000000000000e+00  4.5213064387345506e-04 1.3521404302329498e-05 0.0000000000000000e+00  5.9546411917907490e-04 1.9535665312197995e-05 0.0000000000000000e+00  7.9440943538775595e-04 2.9536383337724803e-05 0.0000000000000000e+00  1.0744317281136096e-03 4.8009683069628747e-05 0.0000000000000000e+00  1.4691058396758142e-03 8.7164173507343592e-05 0.0000000000000000e+00  1.9961594846513299e-03 1.8628984982368310e-04 0.0000000000000000e+00  0.0000000000000000e+00 0.0000000000000000e+00 0.0000000000000000e+00  1.1006211121734452e-05 2.3296791408901787e-07 0.0000000000000000e+00  2.2567816890842530e-05 4.8170747188563994e-07 0.0000000000000000e+00  3.5275642953924026e-05 7.6367799274561059e-07 0.0000000000000000e+00  4.9814233357451588e-05 1.1003855420918350e-06 0.0000000000000000e+00  6.7025180690036219e-05 1.5203019924772905e-06 0.0000000000000000e+00  8.7995658271774926e-05 2.0630926873693678e-06 0.0000000000000000e+00  1.1418981359042976e-04 2.7859741465835025e-06 0.0000000000000000e+00  1.4765292552661137e-04 3.7733909888272281e-06 0.0000000000000000e+00  1.9134113124540049e-04 5.1516449708847609e-06 0.0000000000000000e+00  2.4967317527212316e-04 7.1106170112340015e-06 0.0000000000000000e+00  3.2948550762668116e-04 9.9362880392982958e-06 0.0000000000000000e+00  4.4174072056622922e-04 1.4069213899688306e-05 0.0000000000000000e+00  6.0468743689968865e-04 2.0279839407101445e-05 0.0000000000000000e+00  8.4996144737909871e-04 3.0469503812403261e-05 0.0000000000000000e+00  1.2353051244059833e-03 5.1557061612004894e-05 0.0000000000000000e+00  1.8752471836032815e-03 1.1210009522629865e-04 0.0000000000000000e+00  0.0000000000000000e+00 0.0000000000000000e+00 0.0000000000000000e+00  5.6447570124505462e-06 1.2061701208295194e-07 0.0000000000000000e+00  1.1579130321653222e-05 2.4963282367849876e-07 0.0000000000000000e+00  1.8111784120280706e-05 3.9636986814835263e-07 0.0000000000000000e+00  2.5602271736704051e-05 5.7237249479539705e-07 0.0000000000000000e+00  3.4495966926133719e-05 7.9299688981007924e-07 0.0000000000000000e+00  4.5373739369612560e-05 1.0796614429471333e-06 0.0000000000000000e+00  5.9027234472122805e-05 1.4630321427834251e-06 0.0000000000000000e+00  7.6578837755065214e-05 1.9871596888617909e-06 0.0000000000000000e+00  9.9681420913377906e-05 2.7131831850883193e-06 0.0000000000000000e+00  1.3086452682131320e-04 3.7154845986572053e-06 0.0000000000000000e+00  1.7415447212914845e-04 5.0415410605654074e-06 0.0000000000000000e+00  2.3619709178851229e-04 6.5270134561989664e-06 0.0000000000000000e+00  3.2816580844076642e-04 7.0698861606612782e-06 0.0000000000000000e+00  4.6791900102810118e-04 2.0110297921691431e-06 0.0000000000000000e+00  6.7551213131664969e-04 -2.4802015827902310e-05 0.0000000000000000e+00  9.3182029169978909e-04 -1.1107916368313929e-04 0.0000000000000000e+00  0.0000000000000000e+00 0.0000000000000000e+00 0.0000000000000000e+00  0.0000000000000000e+00 0.0000000000000000e+00 0.0000000000000000e+00  0.0000000000000000e+00 0.0000000000000000e+00 0.0000000000000000e+00  0.0000000000000000e+00 0.0000000000000000e+00 0.0000000000000000e+00  0.0000000000000000e+00 0.0000000000000000e+00 0.0000000000000000e+00  0.0000000000000000e+00 0.0000000000000000e+00 0.0000000000000000e+00  0.0000000000000000e+00 0.0000000000000000e+00 0.0000000000000000e+00  0.0000000000000000e+00 0.0000000000000000e+00 0.0000000000000000e+00  0.0000000000000000e+00 0.0000000000000000e+00 0.0000000000000000e+00  0.0000000000000000e+00 0.0000000000000000e+00 0.0000000000000000e+00  0.0000000000000000e+00 0.0000000000000000e+00 0.0000000000000000e+00  0.0000000000000000e+00 0.0000000000000000e+00 0.0000000000000000e+0