<?xml version="1.0"?>
<VTKFile type="UnstructuredGrid"  version="0.1"  >
<UnstructuredGrid>
<Piece  NumberOfPoints="289" NumberOfCells="512">
<Points>
<DataArray  type="Float64"  NumberOfComponents="3"  format="ascii">0 0 0  0.0625 0 0  0.125 0 0  0.1875 0 0  0.25 0 0  0.3125 0 0  0.375 0 0  0.4375 0 0  0.5 0 0  0.5625 0 0  0.625 0 0  0.6875 0 0  0.75 0 0  0.8125 0 0  0.875 0 0  0.9375 0 0  1 0 0  0 0.0625 0  0.06253428643146393 0.06249963847682383 0  0.1250695202624471 0.06249926889307832 0  0.1876066402021696 0.06249888359067956 0  0.2501465627933245 0.06249847580160349 0  0.3126901610705703 0.06249804028429531 0  0.3752382312608535 0.06249757418922861 0  0.4377914448768625 0.06249707822100248 0  0.5003502864736771 0.06249655813701568 0  0.5629149843486734 0.06249602654460582 0  0.6254854581005517 0.0624955047144299 0  0.6880613487674172 0.0624950232237896 0  0.7506423138096039 0.06249461642080886 0  0.8132291347384483 0.06249428840115842 0  0.8758274584452314 0.06249384744387675 0  0.9384608169454937 0.06249212202274301 0  1.001219181372586 0.06248321294420266 0  0 0.125 0  0.06256764205583681 0.1249992847928679 0  0.1251371898429098 0.1249985530344691 0  0.1877105359249763 0.1249977889020088 0  0.2502895369314796 0.1249969781992522 0  0.3128759746504501 0.1249961095552471 0  0.3754714920092829 0.124995176092316 0  0.4380774967754537 0.1249941777185026 0  0.5006950293762554 0.1249931241771648 0  0.563324599754899 0.1249920389457522 0  0.6259660159818355 0.124990964084707 0  0.6886182613737847 0.1249899666096716 0  0.7512795348440112 0.1249891499994216 0  0.8139476358862535 0.1249886904992573 0  0.876620755967782 0.1249889991739101 0  0.9392971635828394 0.124991521654747 0  1.001962087222882 0.1250027794746404 0  0 0.1875 0  0.06259910830062902 0.1874989474428077 0  0.1252010964417164 0.1874978690823154 0  0.1878088350343974 0.1874967400167626 0  0.2504251620116558 0.1874955373971601 0  0.3130528345059889 0.1874942420297787 0  0.3756944412181595 0.1874928406952244 0  0.4383522610930974 0.1874913294464967 0  0.5010280557833783 0.1874897181314873 0  0.563722789042768 0.1874880363143639 0  0.6264362781338927 0.1874863406165245 0  0.6891668005949335 0.1874847232337441 0  0.7519106932356574 0.1874833207971414 0  0.8146619398197614 0.187482319595517 0  0.8774114940389177 0.1874819301722222 0  0.9401452762205913 0.1874821467271037 0  1.002838423557059 0.1874811107378542 0  0 0.25 0  0.06262771096515847 0.2499986356807556 0  0.1252592880594342 0.2499972353667353 0  0.1878986046785109 0.2499957639112099 0  0.2505495306626189 0.2499941881809079 0  0.313215888943264 0.2499924788098831 0  0.3759013584512323 0.2499906129102691 0  0.4386093000639542 0.2499885781375899 0  0.5013424800205323 0.2499863785252093 0  0.5641026656878299 0.2499840424297239 0  0.6268900744991585 0.2499816326373374 0  0.6897026702614323 0.2499792578831745 0  0.7525353191147957 0.2499770830137227 0  0.8153788259389783 0.2499753298660139 0  0.878218846360173 0.2499742483442284 0  0.9410346473198393 0.2499740175596249 0  1.003798118251596 0.2499746184113656 0  0 0.3125 0  0.06265246390148034 0.3124983596965894 0  0.1253097761845691 0.3124966723165429 0  0.1879768251426704 0.3124948912874039 0  0.2506585585989048 0.3124929714042438 0  0.3133599655617165 0.312490870380752 0  0.3760859929193941 0.3124885515555598 0  0.4388413640647769 0.3124859883156489 0  0.5016302578584927 0.3124831709131165 0  0.5644557988170664 0.3124801164074398 0  0.6273193072953203 0.3124768823230113 0  0.6902192696369841 0.3124735839938173 0  0.7531500256717812 0.3124704140176186 0  0.8161002550321355 0.312467659407353 0  0.8790515111242033 0.3124657097159257 0  0.9419773804269629 0.3124650608906109 0  1.004844491002872 0.3124663988154884 0  0 0.375 0  0.06267238531351663 0.3749981305651592 0  0.1253505647725568 0.3749962024218714 0  0.1880404234215185 0.3749941566901479 0  0.2507480084506949 0.3749919345029764 0  0.3134795619266202 0.3749894779006258 0  0.376241484506 0.3749867319700097 0  0.4390401882897323 0.3749836489523186 0  0.501881780070169 0.3749801953187717 0  0.564771496164363 0.3749763631413143 0  0.6277127918079199 0.37497218737405 0  0.690705984228164 0.3749677706866618 0  0.7537463852614334 0.3749633167773373 0  0.8168219844331861 0.3749591707803412 0  0.8799110298854811 0.3749558600315546 0  0.9429803823130192 0.3749541164793894 0  1.005986280448976 0.3749548246059304 0  0 0.4375 0  0.06268653027195788 0.437497959904703 0  0.1253797130646473 0.4374958495927834 0  0.1880863607889834 0.4374935976675526 0  0.2508135907167494 0.4374911306589079 0  0.313568938572241 0.437488372735599 0  0.376360411383753 0.4374852465504134 0  0.4391964334912606 0.4374816760295233 0  0.5020856128057992 0.4374775923819927 0  0.56503621667549 0.4374729452959458 0  0.6280551996650625 0.4374677222426188 0  0.6911465801733366 0.4374619799727718 0  0.7543089511778304 0.4374558933045375 0  0.8175320040555896 0.4374498259849432 0  0.8807922723006038 0.4374444235250117 0  0.9440490371425129 0.4374407108158799 0  1.007242575479465 0.4374401345184863 0  0 0.5 0  0.06269404163133922 0.4999978592031853 0  0.1253954377571223 0.4999956378130251 0  0.1881117856722644 0.4999932527751383 0  0.2508511630903768 0.4999906162482556 0  0.3136223516714958 0.4999876336105271 0  0.3764350256041782 0.4999842021905905 0  0.4392998641829667 0.4999802114520953 0  0.5022285121577101 0.4999755459589788 0  0.5652332544370037 0.4999700934678595 0  0.6283261846011176 0.4999637621802226 0  0.6915175271524514 0.4999565138734508 0  0.7548126408446041 0.4999484236265365 0  0.8182071620573672 0.4999397819197572 0  0.8816799415415413 0.4999312583233917 0  0.9451842769866 0.4999241371518451 0  1.008640011636383 0.499920584330184 0  0 0.5625 0  0.06269421899278849 0.5624978388117889 0  0.1253962550316383 0.5624955890664933 0  0.1881142560247427 0.5624931583303853 0  0.2508570411808794 0.5624904463178486 0  0.3136344556782764 0.5624873407926032 0  0.3764577368239539 0.562483713440766 0  0.4393398704235857 0.5624794161010711 0  0.5022958798701448 0.5624742783068817 0  0.5653429216413938 0.5624681081951389 0  0.6284999359557486 0.5624607009258907 0  0.6917863877097788 0.5624518626752381 0  0.755219300091436 0.5624414655720664 0  0.8188073488548395 0.5624295623964862 0  0.8825404416972872 0.562416613176496 0  0.9463735913146916 0.5624039068776239 0  1.010206460850461 0.5623942467878056 0  0 0.625 0  0.06268660159700556 0.6249979066660207 0  0.1253811551535864 0.6249957206411768 0  0.1880920231545284 0.6249933440241573 0  0.250828416984689 0.6249906681038825 0  0.3136008866489966 0.6249875670408891 0  0.3764218869924794 0.6249838904729779 0  0.4393064370603822 0.6249794547975024 0  0.502272866676722 0.6249740331696659 0  0.5653435874854004 0.6249673449726789 0  0.628545695647504 0.6249590471478258 0  0.6919109361606779 0.6249487333406776 0  0.7554740075107488 0.6249359546651142 0  0.8192671855974082 0.6249202941675666 0  0.8833076993219605 0.6249015740534518 0  0.947572673521072 0.6248804079314276 0  1.011957143833292 0.6248597158820001 0  0 0.6875 0  0.06267105634304862 0.6874980668722632 0  0.1253497921260347 0.6874960420850448 0  0.1880443515969356 0.687493827788051 0  0.2507638548578273 0.6874913130689527 0  0.3135189995949846 0.6874883657372312 0  0.3763228125099412 0.6874848218742841 0  0.4391916203468421 0.6874804720657388 0  0.5021463210332856 0.6874750429856145 0  0.5652140299302237 0.6874681728229396 0  0.6284301157739843 0.6874593791438929 0  0.691840428757858 0.6874480185370966 0  0.7555029321439358 0.6874332392967468 0  0.8194864880519116 0.6874139323241184 0  0.8838613065926053 0.6873886963976725 0  0.9486694097249514 0.6873558838636067 0  1.013855013968996 0.6873140226530904 0  0 0.75 0  0.06264785734758996 0.7499983183762173 0  0.1253026598657642 0.7499965522703225 0  0.1879718292031966 0.7499946106574091 0  0.2506637997309242 0.7499923885307903 0  0.3133886763448386 0.7499897576285424 0  0.3761591038146246 0.7499865539625108 0  0.4389914732760253 0.7499825602383027 0  0.5019076502572137 0.7499774803516432 0  0.5649374941630152 0.7499709017987454 0  0.6281225471422378 0.7499622399015596 0  0.6915213549168212 0.7499506548578645 0  0.7552167552346213 0.7499349268774957 0  0.8193245029222386 0.7499132563931623 0  0.8839989299119735 0.7498828865713877 0  0.9494202108306 0.7498392159935295 0  1.015721069655173 0.7497736086567699 0  0 0.8125 0  0.06261774003863513 0.8124986539849713 0  0.125241217689146 0.8124972371617264 0  0.187876603344408 0.8124956726605587 0  0.2505309961643106 0.8124938705312005 0  0.3132130518799419 0.8124917187154328 0  0.3759338480947428 0.8124890704036872 0  0.4387081483179048 0.812485725335042 0  0.5015563288497652 0.8124814011127527 0  0.5645074160174007 0.8124756881241945 0  0.6276040086394186 0.8124679777318775 0  0.6909104411533263 0.8124573478760785 0  0.7545265345355791 0.8124423839760367 0  0.8186107618710057 0.8124209049483287 0  0.8834177310562022 0.8123895019316685 0  0.9493489306706714 0.8123421818175913 0  1.016967908640987 0.8122630019553262 0  0 0.875 0  0.06258191254496698 0.8749990600179316 0  0.1251679258802802 0.8749980689127211 0  0.1877624712545163 0.8749969708735911 0  0.2503706940512766 0.8749956999012068 0  0.3129989503623851 0.8749941725695619 0  0.3756555117345214 0.8749922775795739 0  0.4383516315750029 0.8749898597279442 0  0.5011032411321146 0.8749866941619584 0  0.5639337662766254 0.8749824434792318 0  0.6268790073309209 0.8749765840579303 0  0.6899959759686751 0.874968277403153 0  0.7533797005391231 0.8749561501797877 0  0.8171970394227821 0.8749379719760761 0  0.8817595726776013 0.874910538931263 0  0.9476960246299915 0.8748721480596663 0  1.016422696474755 0.8748417981998563 0  0 0.9375 0  0.06254201163921604 0.9374995167919241 0  0.1250861608243862 0.9374990067763521 0  0.1876347640822922 0.9374984405880757 0  0.2501905263222205 0.9374977832779864 0  0.312756815401359 0.9374969902736207 0  0.3753380584342795 0.9374960014330184 0  0.4379403536995592 0.937494731674
[...]
<PointData  Vectors="f_54"> 
<DataArray  type="Float64"  Name="f_54"  NumberOfComponents="3" format="ascii">0.0000000000000000e+00 0.0000000000000000e+00 0.0000000000000000e+00  0.0000000000000000e+00 0.0000000000000000e+00 0.0000000000000000e+00  0.0000000000000000e+00 0.0000000000000000e+00 0.0000000000000000e+00  0.0000000000000000e+00 0.0000000000000000e+00 0.0000000000000000e+00  0.0000000000000000e+00 0.0000000000000000e+00 0.0000000000000000e+00  0.0000000000000000e+00 0.0000000000000000e+00 0.0000000000000000e+00  0.0000000000000000e+00 0.0000000000000000e+00 0.0000000000000000e+00  0.0000000000000000e+00 0.0000000000000000e+00 0.0000000000000000e+00  0.0000000000000000e+00 0.0000000000000000e+00 0.0000000000000000e+00  0.0000000000000000e+00 0.0000000000000000e+00 0.0000000000000000e+00  0.0000000000000000e+00 0.0000000000000000e+00 0.0000000000000000e+00  0.0000000000000000e+00 0.0000000000000000e+00 0.0000000000000000e+00  0.0000000000000000e+00 0.0000000000000000e+00 0.0000000000000000e+00  0.0000000000000000e+00 0.0000000000000000e+00 0.0000000000000000e+00  0.0000000000000000e+00 0.0000000000000000e+00 0.0000000000000000e+00  0.0000000000000000e+00 0.0000000000000000e+00 0.0000000000000000e+00  0.0000000000000000e+00 0.0000000000000000e+00 0.0000000000000000e+00  0.0000000000000000e+00 0.0000000000000000e+00 0.0000000000000000e+00  4.0516755042696527e-06 -7.8754765208110914e-08 0.0000000000000000e+00  8.2248209961467492e-06 -1.5982266000400967e-07 0.0000000000000000e+00  1.2641257967298483e-05 -2.4549100544884864e-07 0.0000000000000000e+00  1.7422902774209846e-05 -3.3797280922573441e-07 0.0000000000000000e+00  2.2690808233348597e-05 -4.3932047818709066e-07 0.0000000000000000e+00  2.8563037355077352e-05 -5.5127440246514912e-07 0.0000000000000000e+00  3.5151183931437656e-05 -6.7501619492621346e-07 0.0000000000000000e+00  4.2555876283253501e-05 -8.1079367828719348e-07 0.0000000000000000e+00  5.0863004240141486e-05 -9.5739227333660831e-07 0.0000000000000000e+00  6.0146102401614203e-05 -1.1114694217159724e-06 0.0000000000000000e+00  7.0490355292069553e-05 -1.2669320803074446e-06 0.0000000000000000e+00  8.2082833022991737e-05 -1.4151826438743267e-06 0.0000000000000000e+00  9.5505592421339525e-05 -1.5498005273406056e-06 0.0000000000000000e+00  1.1268461286162719e-04 -1.6915787969809471e-06 0.0000000000000000e+00  1.4012462048847380e-04 -2.0076679771159771e-06 0.0000000000000000e+00  2.0080872118402517e-04 -3.3799462896202087e-06 0.0000000000000000e+00  0.0000000000000000e+00 0.0000000000000000e+00 0.0000000000000000e+00  7.9863559202812773e-06 -1.5528335415323471e-07 0.0000000000000000e+00  1.6215945423173749e-05 -3.1523115225511049e-07 0.0000000000000000e+00  2.4933140093221549e-05 -4.8447535916630969e-07 0.0000000000000000e+00  3.4383380407135330e-05 -6.6754001303242257e-07 0.0000000000000000e+00  4.4811639191297807e-05 -8.6869371533474129e-07 0.0000000000000000e+00  5.6458354510572137e-05 -1.0916758059723524e-06 0.0000000000000000e+00  6.9552100729643581e-05 -1.3392328098314049e-06 0.0000000000000000e+00  8.4298775395068369e-05 -1.6123880429000037e-06 0.0000000000000000e+00  1.0086848918758188e-04 -1.9093578336163966e-06 0.0000000000000000e+00  1.1938470285065492e-04 -2.2240235980504938e-06 0.0000000000000000e+00  1.3992744296463354e-04 -2.5438282678928522e-06 0.0000000000000000e+00  1.6257662114687053e-04 -2.8465996410207691e-06 0.0000000000000000e+00  1.8754211856616927e-04 -3.0935510582249068e-06 0.0000000000000000e+00  2.1541689074498942e-04 -3.2035964053954065e-06 0.0000000000000000e+00  2.4727550390811270e-04 -2.9317406120534772e-06 0.0000000000000000e+00  2.8213799012531113e-04 -1.2561813482239024e-06 0.0000000000000000e+00  0.0000000000000000e+00 0.0000000000000000e+00 0.0000000000000000e+00  1.1682204831469543e-05 -2.2723305001840444e-07 0.0000000000000000e+00  2.3729024045962923e-05 -4.6152894397438701e-07 0.0000000000000000e+00  3.6507841087414263e-05 -7.0994715969625372e-07 0.0000000000000000e+00  5.0389834004366017e-05 -9.7948284206445446e-07 0.0000000000000000e+00  6.5748743213298814e-05 -1.2769083419123393e-06 0.0000000000000000e+00  8.2955596553368832e-05 -1.6084394657193771e-06 0.0000000000000000e+00  1.0236771195853450e-04 -1.9791295993051971e-06 0.0000000000000000e+00  1.2431026494732174e-04 -2.3918649537668496e-06 0.0000000000000000e+00  1.4904905733949809e-04 -2.8458064385895876e-06 0.0000000000000000e+00  1.7675411030537290e-04 -3.3341150537741016e-06 0.0000000000000000e+00  2.0745511559621600e-04 -3.8408437684443239e-06 0.0000000000000000e+00  2.4098896021775199e-04 -4.3370779218745389e-06 0.0000000000000000e+00  2.7692480200793782e-04 -4.7772302660791638e-06 0.0000000000000000e+00  3.1438444873594707e-04 -5.1007877932198733e-06 0.0000000000000000e+00  3.5145618778044971e-04 -5.2712364978959434e-06 0.0000000000000000e+00  3.8344348161368564e-04 -5.5434631593417653e-06 0.0000000000000000e+00  0.0000000000000000e+00 0.0000000000000000e+00 0.0000000000000000e+00  1.5017813170840080e-05 -2.9220502245646673e-07 0.0000000000000000e+00  3.0519705249342307e-05 -5.9389129575772986e-07 0.0000000000000000e+00  4.6995391199285408e-05 -9.1461348168799455e-07 0.0000000000000000e+00  6.4943739633619072e-05 -1.2640101497753856e-06 0.0000000000000000e+00  8.4873379047268262e-05 -1.6517070214390747e-06 0.0000000000000000e+00  1.0729790415635777e-04 -2.0870197280770458e-06 0.0000000000000000e+00  1.3272288393349196e-04 -2.5783303943733754e-06 0.0000000000000000e+00  1.6162104115814116e-04 -3.1319581853448784e-06 0.0000000000000000e+00  1.9439097200874174e-04 -3.7502803731385536e-06 0.0000000000000000e+00  2.3129353860444011e-04 -4.4288119044974055e-06 0.0000000000000000e+00  2.7235812843264890e-04 -5.1519889126795707e-06 0.0000000000000000e+00  3.1724663753337590e-04 -5.8877066890967477e-06 0.0000000000000000e+00  3.6505199172940376e-04 -6.5816592587596279e-06 0.0000000000000000e+00  4.1398388362696835e-04 -7.1549787564538916e-06 0.0000000000000000e+00  4.6086602686737593e-04 -7.5119560325326406e-06 0.0000000000000000e+00  5.0044826139622304e-04 -7.5477498547288655e-06 0.0000000000000000e+00  0.0000000000000000e+00 0.0000000000000000e+00 0.0000000000000000e+00  1.7873752894428835e-05 -3.4778190937797913e-07 0.0000000000000000e+00  3.6346341046556956e-05 -7.0740835075581354e-07 0.0000000000000000e+00  5.6026633861895462e-05 -1.0909255604374326e-06 0.0000000000000000e+00  7.7541366382307165e-05 -1.5107279106627177e-06 0.0000000000000000e+00  1.0153978831953700e-04 -1.9796105759108022e-06 0.0000000000000000e+00  1.2869217650982446e-04 -2.5106349278438658e-06 0.0000000000000000e+00  1.5967845817834960e-04 -3.1166666789455964e-06 0.0000000000000000e+00  1.9516151637304012e-04 -3.8093618395751808e-06 0.0000000000000000e+00  2.3573742179594899e-04 -4.5972506420490029e-06 0.0000000000000000e+00  2.8185178694490888e-04 -5.4824086250533873e-06 0.0000000000000000e+00  3.3366778710535355e-04 -6.4550503332914424e-06 0.0000000000000000e+00  3.9086792169897391e-04 -7.4853687115235714e-06 0.0000000000000000e+00  4.5237134636070696e-04 -8.5123452528838002e-06 0.0000000000000000e+00  5.1596192943103930e-04 -9.4303201619819305e-06 0.0000000000000000e+00  5.7788000573411285e-04 -1.0074888709096327e-05 0.0000000000000000e+00  6.3260790617975416e-04 -1.0204483279551895e-05 0.0000000000000000e+00  0.0000000000000000e+00 0.0000000000000000e+00 0.0000000000000000e+00  2.0135387717525267e-05 -3.9160334072734553e-07 0.0000000000000000e+00  4.0975305356928999e-05 -7.9723216496853375e-07 0.0000000000000000e+00  6.3240334155607018e-05 -1.2312860366329470e-06 0.0000000000000000e+00  8.7681289160089769e-05 -1.7088803484502159e-06 0.0000000000000000e+00  1.1509059489009861e-04 -2.2461370277361696e-06 0.0000000000000000e+00  1.4630791184686216e-04 -2.8603542215691494e-06 0.0000000000000000e+00  1.8221582399899729e-04 -3.5699321360814888e-06 0.0000000000000000e+00  2.2371896314974136e-04 -4.3938238019503036e-06 0.0000000000000000e+00  2.7169632250501882e-04 -5.3500878406064347e-06 0.0000000000000000e+00  3.2691147759626678e-04 -6.4528005567525483e-06 0.0000000000000000e+00  3.8985925055879853e-04 -7.7060997792270022e-06 0.0000000000000000e+00  4.6052182500542062e-04 -9.0935207247905397e-06 0.0000000000000000e+00  5.3800818205828888e-04 -1.0560334161747405e-05 0.0000000000000000e+00  6.2007225550345340e-04 -1.1987244951945369e-05 0.0000000000000000e+00  7.0257632316170725e-04 -1.3158020098435076e-05 0.0000000000000000e+00  7.7912924083127998e-04 -1.3737954755783217e-05 0.0000000000000000e+00  0.0000000000000000e+00 0.0000000000000000e+00 0.0000000000000000e+00  2.1697238935145435e-05 -4.2149325226025695e-07 0.0000000000000000e+00  4.4189633053146308e-05 -8.5883865573480952e-07 0.0000000000000000e+00  6.8295791345849400e-05 -1.3284581047199034e-06 0.0000000000000000e+00  9.4880197811777076e-05 -1.8479179688550153e-06 0.0000000000000000e+00  1.2487405514417988e-04 -2.4365247388057372e-06 0.0000000000000000e+00  1.5929231358391700e-04 -3.1159251983696039e-06 0.0000000000000000e+00  1.9924313421209070e-04 -3.9106553283471652e-06 0.0000000000000000e+00  2.4592312116136750e-04 -4.8484833208752831e-06 0.0000000000000000e+00  3.0058692176488717e-04 -5.9601768780469149e-06 0.0000000000000000e+00  3.6447245559218791e-04 -7.2778794702535793e-06 0.0000000000000000e+00  4.3865245638354672e-04 -8.8304160376766555e-06 0.0000000000000000e+00  5.2376966875531587e-04 -1.0632324677401996e-05 0.0000000000000000e+00  6.1960087230512764e-04 -1.2661134157971937e-05 0.0000000000000000e+00  7.2439597078662499e-04 -1.4815144963028987e-05 0.0000000000000000e+00  8.3397994479599480e-04 -1.6845166523983153e-05 0.0000000000000000e+00  9.4073645495616677e-04 -1.8267644933869638e-05 0.0000000000000000e+00  0.0000000000000000e+00 0.0000000000000000e+00 0.0000000000000000e+00  2.2468993349940331e-05 -4.3563155777584928e-07 0.0000000000000000e+00  4.5801270077259301e-05 -8.8839170973691129e-07 0.0000000000000000e+00  7.0891718323454073e-05 -1.3761645546628173e-06 0.0000000000000000e+00  9.8698738432302511e-05 -1.9183957453112828e-06 0.0000000000000000e+00  1.3027671940404225e-04 -2.5370094539481910e-06 0.0000000000000000e+00  1.6680837899707134e-04 -3.2575004377756064e-06 0.0000000000000000e+00  2.0963485419680998e-04 -4.1102689142273910e-06 0.0000000000000000e+00  2.6027864638955046e-04 -5.1322378651041827e-06 0.0000000000000000e+00  3.2044943802429803e-04 -6.3686673680213443e-06 0.0000000000000000e+00  3.9201375002692878e-04 -7.8746953127874672e-06 0.0000000000000000e+00  4.7689387973731185e-04 -9.7151214135954278e-06 0.0000000000000000e+00  5.7683626282196889e-04 -1.1958575060299301e-05 0.0000000000000000e+00  6.9295156844546694e-04 -1.4657240100816757e-05 0.0000000000000000e+00  8.2488060267027626e-04 -1.7794469974051774e-05 0.0000000000000000e+00  9.6939976445278484e-04 -2.1171143994134526e-05 0.0000000000000000e+00  1.1183070169973614e-03 -2.4199360402756267e-05 0.0000000000000000e+00  0.0000000000000000e+00 0.0000000000000000e+00 0.0000000000000000e+00  2.2382914649808234e-05 -4.3274941989414531e-07 0.0000000000000000e+00  4.5666540133879686e-05 -8.8316698441751562e-07 0.0000000000000000e+00  7.0791043342087915e-05 -1.3698124926513186e-06 0.0000000000000000e+00  9.8777509667662532e-05 -1.9131215885081977e-06 0.0000000000000000e+00  1.3077286916581571e-04 -2.5365840900904043e-06 0.0000000000000000e+00  1.6809989967748001e-04 -3.2682687260415914e-06 0.0000000000000000e+00  2.1231316288888657e-04 -4.1429182634289786e-06 0.0000000000000000e+00  2.6526008594071008e-04 -5.2049498584477773e-06 0.0000000000000000e+00  3.2914262665149094e-04 -6.5128266310768380e-06 0.0000000000000000e+00  4.0656674038580049e-04 -8.1453123182168385e-06 0.0000000000000000e+00  5.0054966831416289e-04 -1.0209699570989613e-05 0.0000000000000000e+00  6.1442042542787984e-04 -1.2850086537074216e-05 0.0000000000000000e+00  7.5148228407390290e-04 -1.6247290834489547e-05 0.0000000000000000e+00  9.1418656612143238e-04 -2.0584855564321397e-05 0.0000000000000000e+00  1.1023750507338011e-03 -2.5918031961813568e-05 0.0000000000000000e+00  1.3098954648892405e-03 -3.1821201710608841e-05 0.0000000000000000e+00  0.0000000000000000e+00 0.0000000000000000e+00 0.0000000000000000e+00  2.1402012892673734e-05 -4.1231499839907157e-07 0.0000000000000000e+00  4.3703545870197092e-05 -8.4196330651864265e-07 0.0000000000000000e+00  6.7849768507924325e-05 -1.3072213066418517e-06 0.0000000000000000e+00  9.4880953638786468e-05 -1.8283678987913227e-06 0.0000000000000000e+00  1.2598857964070078e-04 -2.4289811958086378e-06 0.0000000000000000e+00  1.6258248658616032e-04 -3.1376839857763848e-06 0.0000000000000000e+00  2.0637395731134414e-04 -3.9906855591839531e-06 0.0000000000000000e+00  2.5948027428643913e-04 -5.0357380574052030e-06 0.0000000000000000e+00  3.2455622223259955e-04 -6.3386263801138388e-06 0.0000000000000000e+00  4.0495528039059559e-04 -7.9941852674094681e-06 0.0000000000000000e+00  5.0491312068461384e-04 -1.0145167940048360e-05 0.0000000000000000e+00  6.2971702683836607e-04 -1.3013582277652954e-05 0.0000000000000000e+00  7.8575083091276577e-04 -1.6947402739505549e-05 0.0000000000000000e+00  9.8013140514126946e-04 -2.2469739940409239e-05 0.0000000000000000e+00  1.2192818708888541e-03 -3.0254252261483202e-05 0.0000000000000000e+00  1.5050844578359071e-03 -4.0757707133983702e-05 0.0000000000000000e+00  0.0000000000000000e+00 0.0000000000000000e+00 0.0000000000000000e+00  1.9527912959244812e-05 -3.7467000939312767e-07 0.0000000000000000e+00  3.9909283765430377e-05 -7.6541122052863533e-07 0.0000000000000000e+00  6.2046313380590638e-05 -1.1891875741746129e-06 0.0000000000000000e+00  8.6943998230617182e-05 -1.6648597966764212e-06 0.0000000000000000e+00  1.1577359303127753e-04 -2.2144033345234426e-06 0.0000000000000000e+00  1.4995253792428722e-04 -2.8645429149425443e-06 0.0000000000000000e+00  1.9124990936559083e-04 -3.6491530911519178e-06 0.0000000000000000e+00  2.4193024867486435e-04 -4.6131112074347206e-06 0.0000000000000000e+00  3.0495427851968417e-04 -5.8190336768551343e-06 0.0000000000000000e+00  3.8426286905262057e-04 -7.3599845494554238e-06 0.0000000000000000e+00  4.8517977819610182e-04 -9.3849079735583596e-06 0.0000000000000000e+00  6.1497336713840626e-04 -1.2151317135893245e-05 0.0000000000000000e+00  7.8359545576529507e-04 -1.6134676374668742e-05 0.0000000000000000e+00  1.0044963610800950e-03 -2.2245180550191264e-05 0.0000000000000000e+00  1.2950097186552596e-03 -3.2201971279146391e-05 0.0000000000000000e+00  1.6747013218505595e-03 -4.8961319483063866e-05 0.0000000000000000e+00  0.0000000000000000e+00 0.0000000000000000e+00 0.0000000000000000e+00  1.6807051989852934e-05 -3.2108189691840739e-07 0.0000000000000000e+00  3.4373503018937956e-05 -6.5609475827223300e-07 0.0000000000000000e+00  5.3506288713850508e-05 -1.0197207194116659e-06 0.0000000000000000e+00  7.5113529892806863e-05 -1.4282224743244002e-06 0.0000000000000000e+00  1.0026913120579094e-04 -1.9003981741844425e-06 0.0000000000000000e+00  1.3029709121430499e-04 -2.4587749062569855e-06 0.0000000000000000e+00  1.6688760231289113e-04 -3.1312198071574242e-06 0.0000000000000000e+00  2.1226361670700946e-04 -3.9533402726780968e-06 0.0000000000000000e+00  2.6942795533627670e-04 -4.9725604133466668e-06 0.0000000000000000e+00  3.4254104229022408e-04 -6.2561947683048514e-06 0.0000000000000000e+00  4.3751511252867955e-04 -7.9099214984255884e-06 0.0000000000000000e+00  5.6297512005767079e-04 -1.0124808748500193e-05 0.0000000000000000e+00  7.3184852511120181e-04 -1.3304725997995508e-05 0.0000000000000000e+00  9.6401208749401571e-04 -1.8418843393983428e-05 0.0000000000000000e+00  1.2905351933559951e-03 -2.7950438234738705e-05 0.0000000000000000e+00  1.7596255972622723e-03 -4.8188090408148422e-05 0.0000000000000000e+00  0.0000000000000000e+00 0.0000000000000000e+00 0.0000000000000000e+00  1.3333753564115614e-05 -2.5369430464267379e-07 0.0000000000000000e+00  2.7286073427496874e-05 -5.1844231067200655e-07 0.0000000000000000e+00  4.2516942041574065e-05 -8.0585204450796172e-07 0.0000000000000000e+00  5.9775088302949875e-05 -1.1286727854249441e-06 0.0000000000000000e+00  7.9955976979261478e-05 -1.5013940880095000e-06 0.0000000000000000e+00  1.0417930385519757e-04 -1.9408389167245768e-06 0.0000000000000000e+00  1.3389863892550880e-04 -2.4666540401373525e-06 0.0000000000000000e+00  1.7106356835773742e-04 -3.1014597545567850e-06 0.0000000000000000e+00  2.1836872236251123e-04 -3.8701633030686344e-06 0.0000000000000000e+00  2.7965060555379997e-04 -4.7975712998490453e-06 0.0000000000000000e+00  3.6054609432703755e-04 -5.9033704758267082e-06 0.0000000000000000e+00  4.6963955301609895e-04 -7.1963542547485092e-06 0.0000000000000000e+00  6.2058512247752952e-04 -8.6884314659815026e-06 0.0000000000000000e+00  8.3631797783159146e-04 -1.0546317081215578e-05 0.0000000000000000e+00  1.1579165237141889e-03 -1.3977896172093435e-05 0.0000000000000000e+00  1.6626416937968167e-03 -2.5656901056125759e-05 0.0000000000000000e+00  0.0000000000000000e+00 0.0000000000000000e+00 0.0000000000000000e+00  9.2489717426789266e-06 -1.7538586806135460e-07 0.0000000000000000e+00  1.8935097937551465e-05 -3.5840863113764360e-07 0.0000000000000000e+00  2.9526135872371674e-05 -5.5705253143319234e-07 0.0000000000000000e+00  4.1555698254201764e-05 -7.7999396579553522e-07 0.0000000000000000e+00  5.5666895905356540e-05 -1.0368816255913822e-06 0.0000000000000000e+00  7.2671455406685692e-05 -1.3384427306205592e-06 0.0000000000000000e+00  9.3634563840841413e-05 -1.6961214186110552e-06 0.0000000000000000e+00  1.2000212050145107e-04 -2.1205366671645560e-06 0.0000000000000000e+00  1.5379878842135432e-04 -2.6170450549125936e-06 0.0000000000000000e+00  1.9794733166181809e-04 -3.1742329496523162e-06 0.0000000000000000e+00  2.5680385194331640e-04 -3.7348962973531073e-06 0.0000000000000000e+00  3.3709999253312003e-04 -4.1222991142614743e-06 0.0000000000000000e+00  4.4972603848763865e-04 -3.8465221482782281e-06 0.0000000000000000e+00  6.1354268214588515e-04 -1.5654073722099237e-06 0.0000000000000000e+00  8.6548823444088140e-04 6.5548141172816001e-06 0.0000000000000000e+00  1.2986935780481118e-03 3.2463930869119807e-05 0.0000000000000000e+00  0.0000000000000000e+00 0.0000000000000000e+00 0.0000000000000000e+00  4.7340899367129485e-06 -8.9572771423728027e-08 0.0000000000000000e+00  9.6942873893543956e-06 -1.8303495867103158e-07 0.0000000000000000e+00  1.5122899244990740e-05 -2.8443754551429100e-07 0.0000000000000000e+00  2.1297163744289157e-05 -3.9814267703528783e-07 0.0000000000000000e+00  2.8552539855275779e-05 -5.2890950472374337e-07 0.0000000000000000e+00  3.7314414747082207e-05 -6.8181856413376893e-07 0.0000000000000000e+00  4.8143793095420110e-05 -8.6178431216493542e-07 0.0000000000000000e+00  6.1805924159076612e-05 -1.0720434814234082e-06 0.0000000000000000e+00  7.9376738824013843e-05 -1.3101047581259520e-06 0.0000000000000000e+00  1.0241220126591025e-04 -1.5573194383934501e-06 0.0000000000000000e+00  1.3322281271695990e-04 -1.7519766794562595e-06 0.0000000000000000e+00  1.7532082614899109e-04 -1.7180956484444860e-06 0.0000000000000000e+00  2.3412598381133699e-04 -9.6835073553170718e-07 0.0000000000000000e+00  3.1790112318876777e-04 1.8790835211974061e-06 0.0000000000000000e+00  4.3778434230713070e-04 1.1013743606776904e-05 0.0000000000000000e+00  5.9699340935197775e-04 4.0911346996966664e-05 0.0000000000000000e+00  0.0000000000000000e+00 0.0000000000000000e+00 0.0000000000000000e+00  0.0000000000000000e+00 0.0000000000000000e+00 0.0000000000000000e+00  0.0000000000000000e+00 0.0000000000000000e+00 0.0000000000000000e+00  0.0000000000000000e+00 0.0000000000000000e+00 0.0000000000000000e+00  0.0000000000000000e+00 0.0000000000000000e+00 0.0000000000000000e+00  0.0000000000000000e+00 0.0000000000000000e+00 0.0000000000000000e+00  0.0000000000000000e+00 0.0000000000000000e+00 0.0000000000000000e+00  0.0000000000000000e+00 0.0000000000000000e+00 0.0000000000000000e+00  0.0000000000000000e+00 0.0000000000000000e+00 0.000000000