<?xml version="1.0"?>
<VTKFile type="UnstructuredGrid"  version="0.1"  >
<UnstructuredGrid>
<Piece  NumberOfPoints="289" NumberOfCells="512">
<Points>
<DataArray  type="Float64"  NumberOfComponents="3"  format="ascii">0 0 0  0.0625 0 0  0.125 0 0  0.1875 0 0  0.25 0 0  0.3125 0 0  0.375 0 0  0.4375 0 0  0.5 0 0  0.5625 0 0  0.625 0 0  0.6875 0 0  0.75 0 0  0.8125 0 0  0.875 0 0  0.9375 0 0  1 0 0  0 0.0625 0  0.06257556746604094 0.06247938394643068 0  0.125153453762935 0.06245836696326892 0  0.187736025157278 0.06243657285204361 0  0.2503256818847461 0.06241369286085748 0  0.3129248652028788 0.06238953057255732 0  0.3755360533353028 0.06236405942889017 0  0.4381617498675203 0.06233749424681295 0  0.5008044822892778 0.06231037343137455 0  0.5634668631900713 0.06228363953786992 0  0.6261518533028178 0.06225868956982226 0  0.6888635895067076 0.06223733906325905 0  0.7516097472360681 0.06222160013116357 0  0.8144081168661101 0.06221310176023473 0  0.8773049762526255 0.06221184258346844 0  0.940426404981654 0.06221371118954331 0  1.00411387850846 0.06220828630349997 0  0 0.125 0  0.06264883397285664 0.1249591540102769 0  0.125302310894281 0.1249174722324005 0  0.1879651774898638 0.1248741641663899 0  0.2506422725323307 0.1248285650891304 0  0.3133385554746665 0.1247802225161787 0  0.376059114521044 0.1247290104564163 0  0.438809158012926 0.1246752768910748 0  0.5015940129068635 0.1246200226014935 0  0.5644191993128905 0.1245650942238968 0  0.6272907478926977 0.1245133458539402 0  0.6902161275807747 0.1244686757794276 0  0.7532065206707669 0.1244357792446771 0  0.8162816699928328 0.1244194174319123 0  0.8794782207968944 0.1244232125835004 0  0.9428567018537032 0.1244493534849475 0  1.006476246250892 0.1245056353785198 0  0 0.1875 0  0.06271747061105286 0.1874397520169361 0  0.1254418834923714 0.1873781725265172 0  0.1881803508179676 0.1873139872526353 0  0.2509401656254043 0.1872460867579225 0  0.3137288684092968 0.1871736462672166 0  0.3765542820054191 0.1870962919336973 0  0.4394245108820741 0.1870143276553964 0  0.5023479132442555 0.186929030462019 0  0.5653330789470293 0.1868430066260154 0  0.6283888858659241 0.1867605656989259 0  0.6915247446057486 0.1866879989755586 0  0.7547510747998512 0.186633509301707 0  0.8180795152362019 0.1866062451399949 0  0.8815203306104217 0.1866131451104914 0  0.9450692023991768 0.1866498888023387 0  1.008669115848871 0.1866733575569012 0  0 0.25 0  0.06277918540386544 0.2499216796506303 0  0.1255675424663304 0.2498414541103301 0  0.1883744888050696 0.2497574739692493 0  0.2512097483951421 0.2496680630444768 0  0.31408347686639 0.2495718562662625 0  0.3770063449708161 0.2494680047733188 0  0.4399895641532812 0.2493564760153027 0  0.5030448361982169 0.2492384773273637 0  0.566184202496651 0.2491170245433907 0  0.6294197419472415 0.2489976522362017 0  0.6927629719697594 0.2488891985864894 0  0.7562235211907885 0.2488044565989822 0  0.8198059097333598 0.2487601938080609 0  0.8835017778103379 0.2487755067895097 0  0.9472730664976706 0.2488667768203002 0  1.01102330750698 0.2490383713962928 0  0 0.3125 0  0.06283176107869355 0.312405514608544 0  0.1256747901496325 0.3123084705292947 0  0.1885406862675628 0.3122063454373315 0  0.2514415210810134 0.3120967563985947 0  0.3143900491403762 0.3119775915081182 0  0.3773998741696639 0.3118472272152174 0  0.440485546725762 0.3117048758083588 0  0.5036625554665528 0.3115511205819084 0  0.5669471468003744 0.3113887091676431 0  0.6303558457484665 0.3112236806195251 0  0.6939044107169802 0.3110668806864669 0  0.7576056604692656 0.3109358338405954 0  0.8214650901153183 0.310856722206507 0  0.8854725974333119 0.310865788775556 0  0.9495890579176426 0.3110088551696257 0  1.013731176940947 0.3113371867795584 0  0 0.375 0  0.06287311073696672 0.3748919114868458 0  0.1257593698049506 0.3747805495607777 0  0.188672348026759 0.3746626365529299 0  0.2516262948709733 0.3745349490945857 0  0.3146364631039994 0.3743944099899587 0  0.3777194018673873 0.3742382748441162 0  0.4408931959753491 0.374064472746903 0  0.5041776145043125 0.3738721891437181 0  0.5675941039518787 0.3736628202410318 0  0.6311655054216014 0.3734414816852702 0  0.69491526364975 0.3732193102265951 0  0.7588656919588479 0.3730168211966771 0  0.8230345626903953 0.3728684903847773 0  0.887429107081072 0.3728283529834758 0  0.9520371700340573 0.3729755602259245 0  1.016818250441125 0.3734174937779667 0  0 0.4375 0  0.06290135577163618 0.4373815824239385 0  0.1258174219244219 0.4372591581809248 0  0.1887634238107709 0.4371286542001956 0  0.2517555021248001 0.4369859127548975 0  0.3148111779939928 0.4368267038349014 0  0.3779498164880084 0.4366468237425796 0  0.4411930825070254 0.436442345214273 0  0.5045653788899023 0.4362101276027985 0  0.5680942524787528 0.4359487666423886 0  0.6318107481697566 0.4356602753781982 0  0.6957496768429234 0.4353529526989247 0  0.7599497256376374 0.4350461037948867 0  0.824453264640524 0.434777441632654 0  0.8893056335318749 0.4346138547757503 0  0.9545538763760892 0.4346652826499331 0  1.020246127233913 0.4350994793611254 0  0 0.5 0  0.0629149272718722 0.4998752540874917 0  0.1258456911566709 0.499745817001902 0  0.1888087289019442 0.4996068516073338 0  0.2518216413667613 0.4994532512058213 0  0.3149038133506235 0.4992795334401143 0  0.3780770771087035 0.4990797879525763 0  0.4413664402318879 0.4988477330151533 0  0.5048009153704838 0.4985769857093837 0  0.5684145302314657 0.4982617405164985 0  0.6322476858705486 0.4978982139581888 0  0.6963492034973996 0.497487498258356 0  0.7607796827495733 0.4970409352751756 0  0.825617157257214 0.4965897747507976 0  0.8909662967882055 0.4962014068851739 0  0.9569722727918425 0.4960036688508997 0  1.023840506227311 0.4962142467290683 0  0 0.5625 0  0.06291268714869752 0.5623736008041471 0  0.1258417772079162 0.5622419620728534 0  0.18880434289351 0.5620996107774928 0  0.2518188522028941 0.5619405946145553 0  0.3149059403464274 0.561758229700229 0  0.378089276858266 0.5615448447488428 0  0.441396579457369 0.5612915463579665 0  0.5048608648818924 0.5609880701996766 0  0.5685221213510881 0.5606228666965576 0  0.6324298043935647 0.5601837441039929 0  0.6966470194475027 0.5596597538824872 0  0.7612581361227456 0.5590457417512312 0  0.8263830013402674 0.558352400057723 0  0.8922025874566661 0.5576268610832085 0  0.9590016091967359 0.5569902457376781 0  1.027232187982732 0.5566924933642512 0  0 0.625 0  0.06289405904583877 0.6248771584414026 0  0.1258044098745337 0.6247487622801177 0  0.1887480565055462 0.6246089422296773 0  0.2517435789889825 0.6244511490928475 0  0.3148120308886609 0.6242677504155503 0  0.3779779819630765 0.6240495490907513 0  0.4412707814154484 0.6237851995650594 0  0.5047261673229979 0.6234605098432549 0  0.5683884762204156 0.6230576577132465 0  0.6323140317640144 0.6225544621244162 0  0.6965770815804282 0.6219241527501326 0  0.7612814416099131 0.621136886680474 0  0.8265846108979686 0.620166383220824 0  0.8927469157549204 0.6190101995893258 0  0.9602236018840898 0.6177409063940652 0  1.029816100022523 0.6166006097596015 0  0 0.6875 0  0.06285915303414223 0.6873862293313363 0  0.1257337153131198 0.6872669133911399 0  0.1886398142764546 0.6871361343945461 0  0.2515952467503361 0.686987144828522 0  0.3146204531684247 0.6868118401106553 0  0.3777396781256505 0.6866000777390765 0  0.4409824042697832 0.6863387621344204 0  0.5043851867680881 0.6860105863895898 0  0.5679941231152609 0.6855922874287227 0  0.6318685069741227 0.6850522425944836 0  0.6960871395790685 0.6843472736589143 0  0.7607613985187958 0.6834188842715071 0  0.8260660909897692 0.6821909037037768 0  0.8923149063716729 0.680577987879461 0  0.9601310441377577 0.6785431791656878 0  1.03077286470582 0.67629202495243 0  0 0.75 0  0.06280886363647979 0.7499007936757782 0  0.1256314309656859 0.749796441970128 0  0.1884820847109291 0.7496814085588188 0  0.2513768483328241 0.7495492689147991 0  0.3143343669899951 0.7493921197821004 0  0.3773771037425683 0.7491997801767907 0  0.4405328414611757 0.7489586568196267 0  0.5038365935769418 0.7486500805795565 0  0.5673330495689128 0.7482478099964741 0  0.6310797817649728 0.7477142094944018 0  0.69515193997674 0.7469942767877126 0  0.7596513527213183 0.7460061035338514 0  0.8247315635338495 0.7446255114369432 0  0.8906810419095726 0.7426633918335416 0  0.9581991832800303 0.7398555765903717 0  1.028998799116573 0.7361330131185397 0  0 0.8125 0  0.06274491929568474 0.8124204457163987 0  0.1255010229904941 0.8123365597904544 0  0.1882800831603645 0.8122436513026409 0  0.2510953335774874 0.8121362021317156 0  0.3139623674783553 0.8120072998354919 0  0.3769002627552888 0.8118478468468698 0  0.4399330302346566 0.8116453999634664 0  0.5030914738393902 0.8113824084202369 0  0.5664154839502153 0.811033471322498 0  0.6299565644820524 0.8105609734780231 0  0.693779884792762 0.8099079581855646 0  0.7579645027221481 0.8089860077335479 0  0.8226023789890927 0.8076531697394564 0  0.8878199610247367 0.8056695511217361 0  0.95400249294857 0.8025999278825833 0  1.023534611244956 0.7976129910062103 0  0 0.875 0  0.06266986395735209 0.8749443719106604 0  0.125347664281098 0.8748856080711318 0  0.188041777602361 0.8748202968677631 0  0.2507616974787757 0.8747443859523975 0  0.3135187412539998 0.8746527337735215 0  0.3763269658575788 0.8745384716921947 0  0.4392043936501165 0.8743920479395157 0  0.5021746546140704 0.8741997451881756 0  0.5652690811375058 0.8739413287189306 0  0.6285289501982861 0.8735862569546901 0  0.6920063619702936 0.8730875043005779 0  0.755758480600723 0.8723712903542787 0  0.8198191682585809 0.8713187216708229 0  0.8841059050739234 0.8697250490630245 0  0.9481820638768048 0.8671718483722513 0  1.010953047237952 0.862502613342394 0  0 0.9375 0  0.06258695839041337 0.9374713827169029 0  0.1251780438675758 0.9374411189158888 0  0.1877776232225159 0.9374074122588963 0  0.2503906782729607 0.9373681166426844 0  0.3130232068633556 0.9373204882618664 0  0.3756827608361389 0.937260828502107 0  0.4383792006186037 0.9371839410540065
[...]
<PointData  Vectors="f_54"> 
<DataArray  type="Float64"  Name="f_54"  NumberOfComponents="3" format="ascii">0.0000000000000000e+00 0.0000000000000000e+00 0.0000000000000000e+00  0.0000000000000000e+00 0.0000000000000000e+00 0.0000000000000000e+00  0.0000000000000000e+00 0.0000000000000000e+00 0.0000000000000000e+00  0.0000000000000000e+00 0.0000000000000000e+00 0.0000000000000000e+00  0.0000000000000000e+00 0.0000000000000000e+00 0.0000000000000000e+00  0.0000000000000000e+00 0.0000000000000000e+00 0.0000000000000000e+00  0.0000000000000000e+00 0.0000000000000000e+00 0.0000000000000000e+00  0.0000000000000000e+00 0.0000000000000000e+00 0.0000000000000000e+00  0.0000000000000000e+00 0.0000000000000000e+00 0.0000000000000000e+00  0.0000000000000000e+00 0.0000000000000000e+00 0.0000000000000000e+00  0.0000000000000000e+00 0.0000000000000000e+00 0.0000000000000000e+00  0.0000000000000000e+00 0.0000000000000000e+00 0.0000000000000000e+00  0.0000000000000000e+00 0.0000000000000000e+00 0.0000000000000000e+00  0.0000000000000000e+00 0.0000000000000000e+00 0.0000000000000000e+00  0.0000000000000000e+00 0.0000000000000000e+00 0.0000000000000000e+00  0.0000000000000000e+00 0.0000000000000000e+00 0.0000000000000000e+00  0.0000000000000000e+00 0.0000000000000000e+00 0.0000000000000000e+00  0.0000000000000000e+00 0.0000000000000000e+00 0.0000000000000000e+00  3.9017280642701040e-06 -7.8074218767836887e-08 0.0000000000000000e+00  7.9360981430133914e-06 -1.6131020379046764e-07 0.0000000000000000e+00  1.2241237158654762e-05 -2.5530732381907949e-07 0.0000000000000000e+00  1.6961134475420619e-05 -3.6644709231121588e-07 0.0000000000000000e+00  2.2248454567274654e-05 -5.0228893787028775e-07 0.0000000000000000e+00  2.8267113290963022e-05 -6.7193750424571215e-07 0.0000000000000000e+00  3.5194811998386494e-05 -8.8632071430233227e-07 0.0000000000000000e+00  4.3226390241918088e-05 -1.1582764002167705e-06 0.0000000000000000e+00  5.2580755166615040e-05 -1.5023314514135368e-06 0.0000000000000000e+00  6.3519501134121369e-05 -1.9342067596323843e-06 0.0000000000000000e+00  7.6400833757922580e-05 -2.4708732543360151e-06 0.0000000000000000e+00  9.1839439245514147e-05 -3.1351193341656766e-06 0.0000000000000000e+00  1.1119442850385282e-04 -3.9803650537115807e-06 0.0000000000000000e+00  1.3812913649165887e-04 -5.1966090372145585e-06 0.0000000000000000e+00  1.8392229409744718e-04 -7.5412801530817137e-06 0.0000000000000000e+00  2.8716387812028699e-04 -1.4151570014259820e-05 0.0000000000000000e+00  0.0000000000000000e+00 0.0000000000000000e+00 0.0000000000000000e+00  7.6779167706429406e-06 -1.5113618708272799e-07 0.0000000000000000e+00  1.5619616987452157e-05 -3.1225916302651769e-07 0.0000000000000000e+00  2.4099814660235027e-05 -4.9422636452353464e-07 0.0000000000000000e+00  3.3405471204855309e-05 -7.0948217886788985e-07 0.0000000000000000e+00  4.3841625497837312e-05 -9.7288923651062551e-07 0.0000000000000000e+00  5.5736555923150941e-05 -1.3025397699812834e-06 0.0000000000000000e+00  6.9446228913876108e-05 -1.7204314144116784e-06 0.0000000000000000e+00  8.5358554289836975e-05 -2.2527707392750546e-06 0.0000000000000000e+00  1.0389959365008387e-04 -2.9294980061029613e-06 0.0000000000000000e+00  1.2554803724649222e-04 -3.7824323830609659e-06 0.0000000000000000e+00  1.5087411468163778e-04 -4.8412775019589177e-06 0.0000000000000000e+00  1.8063996394571322e-04 -6.1264897286767003e-06 0.0000000000000000e+00  2.1603187144497477e-04 -7.6357664761462925e-06 0.0000000000000000e+00  2.5908737785368049e-04 -9.3032679695959898e-06 0.0000000000000000e+00  3.1291507487272719e-04 -1.0800718974056878e-05 0.0000000000000000e+00  3.7787293563588693e-04 -1.0428016439076695e-05 0.0000000000000000e+00  0.0000000000000000e+00 0.0000000000000000e+00 0.0000000000000000e+00  1.1195173981128294e-05 -2.1432914575591524e-07 0.0000000000000000e+00  2.2780707266970602e-05 -4.4274426789509399e-07 0.0000000000000000e+00  3.5163129728927648e-05 -7.0060736464858736e-07 0.0000000000000000e+00  4.8768411226475064e-05 -1.0056750622447403e-06 0.0000000000000000e+00  6.4051205483414735e-05 -1.3794202919008275e-06 0.0000000000000000e+00  8.1502868987747747e-05 -1.8484226677984079e-06 0.0000000000000000e+00  1.0165755751060296e-04 -2.4457016085537123e-06 0.0000000000000000e+00  1.2509549620975699e-04 -3.2116641169287957e-06 0.0000000000000000e+00  1.5244231985448871e-04 -4.1939764308646557e-06 0.0000000000000000e+00  1.8436297460719305e-04 -5.4450376496101348e-06 0.0000000000000000e+00  2.2154664157221854e-04 -7.0146429037132094e-06 0.0000000000000000e+00  2.6466922040520763e-04 -8.9334926858510341e-06 0.0000000000000000e+00  3.1427899170623620e-04 -1.1179747957823484e-05 0.0000000000000000e+00  3.7040553059256286e-04 -1.3616237768745234e-05 0.0000000000000000e+00  4.3125409003619139e-04 -1.5897246660478965e-05 0.0000000000000000e+00  4.8940839871808978e-04 -1.7519582220176872e-05 0.0000000000000000e+00  0.0000000000000000e+00 0.0000000000000000e+00 0.0000000000000000e+00  1.4325339686080251e-05 -2.6354650432367222e-07 0.0000000000000000e+00  2.9159571451946028e-05 -5.4417020228637932e-07 0.0000000000000000e+00  4.5032660563020554e-05 -8.6056258910686580e-07 0.0000000000000000e+00  6.2502298084770794e-05 -1.2345555768982202e-06 0.0000000000000000e+00  8.2167282477275350e-05 -1.6929695897795251e-06 0.0000000000000000e+00  1.0467934879777967e-04 -2.2697333870501326e-06 0.0000000000000000e+00  1.3075210071157443e-04 -3.0082351121502392e-06 0.0000000000000000e+00  1.6116464927657805e-04 -3.9636426281338859e-06 0.0000000000000000e+00  1.9675560063432505e-04 -5.2044697083449556e-06 0.0000000000000000e+00  2.3839904194044887e-04 -6.8117482375776001e-06 0.0000000000000000e+00  2.8694532958688891e-04 -8.8724222911977132e-06 0.0000000000000000e+00  3.4308892525815744e-04 -1.1460410356915429e-05 0.0000000000000000e+00  4.0707835648192905e-04 -1.4593406894402214e-05 0.0000000000000000e+00  4.7808586793442404e-04 -1.8145460991717957e-05 0.0000000000000000e+00  5.5290789835638543e-04 -2.1685247272024786e-05 0.0000000000000000e+00  6.2368525543022180e-04 -2.4185229539765724e-05 0.0000000000000000e+00  0.0000000000000000e+00 0.0000000000000000e+00 0.0000000000000000e+00  1.6949218280727199e-05 -2.9581560210854319e-07 0.0000000000000000e+00  3.4513804001092353e-05 -6.1025016695497498e-07 0.0000000000000000e+00  5.3334629606534437e-05 -9.6375002186323018e-07 0.0000000000000000e+00  7.4089793093559848e-05 -1.3804635866732758e-06 0.0000000000000000e+00  9.7513138542305516e-05 -1.8905773278477703e-06 0.0000000000000000e+00  1.2441154301986944e-04 -2.5332370209606334e-06 0.0000000000000000e+00  1.5567943161862470e-04 -3.3602257275583009e-06 0.0000000000000000e+00  1.9230748582069944e-04 -4.4404469268088123e-06 0.0000000000000000e+00  2.3537975540815635e-04 -5.8649085238768376e-06 0.0000000000000000e+00  2.8604823398719123e-04 -7.7510475135339135e-06 0.0000000000000000e+00  3.4546427409355034e-04 -1.0243356586850191e-05 0.0000000000000000e+00  4.1462844253070268e-04 -1.3503470132352198e-05 0.0000000000000000e+00  4.9409062598815062e-04 -1.7675780414722577e-05 0.0000000000000000e+00  5.8339421178533839e-04 -2.2802773678244960e-05 0.0000000000000000e+00  6.8015323158832270e-04 -2.8647242730577193e-05 0.0000000000000000e+00  7.7882107986841935e-04 -3.4361037930876192e-05 0.0000000000000000e+00  0.0000000000000000e+00 0.0000000000000000e+00 0.0000000000000000e+00  1.8960760039678893e-05 -3.0963444263633913e-07 0.0000000000000000e+00  3.8626718503849773e-05 -6.3773681442713794e-07 0.0000000000000000e+00  5.9732359449482715e-05 -1.0046204536289743e-06 0.0000000000000000e+00  8.3059867449202467e-05 -1.4345085062233223e-06 0.0000000000000000e+00  1.0946379656335887e-04 -1.9581827134652036e-06 0.0000000000000000e+00  1.3989572305259860e-04 -2.6165750448280460e-06 0.0000000000000000e+00  1.7542784716552062e-04 -3.4657906626719874e-06 0.0000000000000000e+00  2.1727312025569161e-04 -4.5841672012039096e-06 0.0000000000000000e+00  2.6679698151240003e-04 -6.0820121371001539e-06 0.0000000000000000e+00  3.2551143616904902e-04 -8.1143899053338401e-06 0.0000000000000000e+00  3.9503496601221922e-04 -1.0896219025048639e-05 0.0000000000000000e+00  4.7699086358816804e-04 -1.4715852340887830e-05 0.0000000000000000e+00  5.7280374100008192e-04 -1.9936108967552402e-05 0.0000000000000000e+00  6.8334982873110022e-04 -2.6956992940141883e-05 0.0000000000000000e+00  8.0845344335011258e-04 -3.6088047000680228e-05 0.0000000000000000e+00  9.4635844436384152e-04 -4.7238234069323119e-05 0.0000000000000000e+00  0.0000000000000000e+00 0.0000000000000000e+00 0.0000000000000000e+00  2.0271692540119001e-05 -3.0520435464422544e-07 0.0000000000000000e+00  4.1316742753595501e-05 -6.2696230694276466e-07 0.0000000000000000e+00  6.3940676044453194e-05 -9.8343350811816108e-07 0.0000000000000000e+00  8.9007451334869526e-05 -1.3963654566538113e-06 0.0000000000000000e+00  1.1747089641635344e-04 -1.8937061650541125e-06 0.0000000000000000e+00  1.5040822086175175e-04 -2.5134284289048727e-06 0.0000000000000000e+00  1.8905576561227837e-04 -3.3093832674162765e-06 0.0000000000000000e+00  2.3484635905163549e-04 -4.3604571428106670e-06 0.0000000000000000e+00  2.8944621894568033e-04 -5.7849904291756640e-06 0.0000000000000000e+00  3.5478693537390306e-04 -7.7633241359899535e-06 0.0000000000000000e+00  4.3308450460187312e-04 -1.0572265207390767e-05 0.0000000000000000e+00  5.2683340381986426e-04 -1.4635371278339663e-05 0.0000000000000000e+00  6.3876320721795567e-04 -2.0590005836326307e-05 0.0000000000000000e+00  7.7176033343210996e-04 -2.9361318165626616e-05 0.0000000000000000e+00  9.2881644250448667e-04 -4.2207281253530337e-05 0.0000000000000000e+00  1.1132167242687812e-03 -6.0652788735338856e-05 0.0000000000000000e+00  0.0000000000000000e+00 0.0000000000000000e+00 0.0000000000000000e+00  2.0816439397870379e-05 -2.8448605379080987e-07 0.0000000000000000e+00  4.2447605504903096e-05 -5.8202268282188963e-07 0.0000000000000000e+00  6.5742085380813878e-05 -9.0674349693461558e-07 0.0000000000000000e+00  9.1616714053322071e-05 -1.2754078340027134e-06 0.0000000000000000e+00  1.2109460724703883e-04 -1.7094772801656640e-06 0.0000000000000000e+00  1.5534794720077277e-04 -2.2384168578622614e-06 0.0000000000000000e+00  1.9574736268752963e-04 -2.9052221133887358e-06 0.0000000000000000e+00  2.4391990389836148e-04 -3.7759457862748499e-06 0.0000000000000000e+00  3.0181777024063593e-04 -4.9563847699016537e-06 0.0000000000000000e+00  3.7180016773367416e-04 -6.6215217434721292e-06 0.0000000000000000e+00  4.5673135105273461e-04 -9.0674204981103339e-06 0.0000000000000000e+00  5.6010056627579026e-04 -1.2801700339227300e-05 0.0000000000000000e+00  6.8617920191424539e-04 -1.8697412436721840e-05 0.0000000000000000e+00  8.4026160499287798e-04 -2.8243801927130211e-05 0.0000000000000000e+00  1.0291281087307590e-03 -4.3932129322865776e-05 0.0000000000000000e+00  1.2621177891032735e-03 -6.9832372930336479e-05 0.0000000000000000e+00  0.0000000000000000e+00 0.0000000000000000e+00 0.0000000000000000e+00  2.0556961231252212e-05 -2.5101080348774124e-07 0.0000000000000000e+00  4.1938575701819581e-05 -5.1043919325461926e-07 0.0000000000000000e+00  6.5003587114041412e-05 -7.8701799202471132e-07 0.0000000000000000e+00  9.0686411883082320e-05 -1.0905382659479336e-06 0.0000000000000000e+00  1.2004054642682541e-04 -1.4328454669084342e-06 0.0000000000000000e+00  1.5428948843497308e-04 -1.8296873480412040e-06 0.0000000000000000e+00  1.9488885360797675e-04 -2.3042850188763129e-06 0.0000000000000000e+00  2.4360465344957870e-04 -2.8943674047240845e-06 0.0000000000000000e+00  3.0261474625593681e-04 -3.6661677375355488e-06 0.0000000000000000e+00  3.7464381200876001e-04 -4.7424451565259122e-06 0.0000000000000000e+00  4.6314790312336051e-04 -6.3587996913586302e-06 0.0000000000000000e+00  5.7257504986643918e-04 -8.9768938873798146e-06 0.0000000000000000e+00  7.0874947702874089e-04 -1.3510659546420989e-05 0.0000000000000000e+00  8.7947617282613103e-04 -2.1770201470957095e-05 0.0000000000000000e+00  1.0955979201146828e-03 -3.7305710587629478e-05 0.0000000000000000e+00  1.3731502011972495e-03 -6.6973124756322715e-05 0.0000000000000000e+00  0.0000000000000000e+00 0.0000000000000000e+00 0.0000000000000000e+00  1.9486972170995069e-05 -2.0941238305930042e-07 0.0000000000000000e+00  3.9773587496497333e-05 -4.2219583101715408e-07 0.0000000000000000e+00  6.1692169877070816e-05 -6.4114300365180829e-07 0.0000000000000000e+00  8.6154260876697146e-05 -8.6816434681928876e-07 0.0000000000000000e+00  1.1419707260743045e-04 -1.1037958263724305e-06 0.0000000000000000e+00  1.4703971194049065e-04 -1.3467952097160754e-06 0.0000000000000000e+00  1.8615445612055970e-04 -1.5941746064305425e-06 0.0000000000000000e+00  2.3336072764920454e-04 -1.8425952081268075e-06 0.0000000000000000e+00  2.9095337290010835e-04 -2.0934138829586599e-06 0.0000000000000000e+00  3.6188358219930246e-04 -2.3669068458195911e-06 0.0000000000000000e+00  4.5002258737892280e-04 -2.7389601136036842e-06 0.0000000000000000e+00  5.6055966555568573e-04 -3.4323416772640850e-06 0.0000000000000000e+00  7.0062610494554009e-04 -5.0401969985521536e-06 0.0000000000000000e+00  8.8031498469225589e-04 -9.0653043996221099e-06 0.0000000000000000e+00  1.1144357002968437e-03 -1.9177304803940838e-05 0.0000000000000000e+00  1.4258231814155461e-03 -4.3971429043151710e-05 0.0000000000000000e+00  0.0000000000000000e+00 0.0000000000000000e+00 0.0000000000000000e+00  1.7634886360327587e-05 -1.6470995943630663e-07 0.0000000000000000e+00  3.6007835434581536e-05 -3.2819485744438728e-07 0.0000000000000000e+00  5.5886525405979073e-05 -4.8781770308724351e-07 0.0000000000000000e+00  7.8116332088031941e-05 -6.3816074248221669e-07 0.0000000000000000e+00  1.0366659264045733e-04 -7.6896844863505688e-07 0.0000000000000000e+00  1.3368784805126385e-04 -8.6220517441392870e-07 0.0000000000000000e+00  1.6958629875040161e-04 -8.8776408209472479e-07 0.0000000000000000e+00  2.1312484085635793e-04 -7.9727109087179260e-07 0.0000000000000000e+00  2.6656547335401600e-04 -5.1550153500682628e-07 0.0000000000000000e+00  3.3287755493403132e-04 7.0290362898590790e-08 0.0000000000000000e+00  4.1605454126811286e-04 1.1195088323832944e-06 0.0000000000000000e+00  5.2161782749406919e-04 2.8301302622359212e-06 0.0000000000000000e+00  6.5746145165681321e-04 5.3556297299640910e-06 0.0000000000000000e+00  8.3535003622270398e-04 8.4465577057718401e-06 0.0000000000000000e+00  1.0736818129858552e-03 1.0188283636814702e-05 0.0000000000000000e+00  1.4025998834354223e-03 3.5904295486809861e-06 0.0000000000000000e+00  0.0000000000000000e+00 0.0000000000000000e+00 0.0000000000000000e+00  1.5064876227859745e-05 -1.2145271515639910e-07 0.0000000000000000e+00  3.0770454713899562e-05 -2.3836250150568703e-07 0.0000000000000000e+00  4.7782507745844112e-05 -3.4420867242429610e-07 0.0000000000000000e+00  6.6837333963060139e-05 -4.2832879637597219e-07 0.0000000000000000e+00  8.8784127793093228e-05 -4.7266850429001035e-07 0.0000000000000000e+00  1.1463813089315516e-04 -4.4679370715368819e-07 0.0000000000000000e+00  1.4565081031679973e-04 -2.9991034279471396e-07 0.0000000000000000e+00  1.8340659871592704e-04 5.2228567786622605e-08 0.0000000000000000e+00  2.2996154654042548e-04 7.4923930280205075e-07 0.0000000000000000e+00  2.8805002648854490e-04 2.0235193952206084e-06 0.0000000000000000e+00  3.6140722525548023e-04 4.2653022154473509e-06 0.0000000000000000e+00  4.5530278393870235e-04 8.1366572892691734e-06 0.0000000000000000e+00  5.7749736023898302e-04 1.4763365770297552e-05 0.0000000000000000e+00  7.4014232381631616e-04 2.5979654066409560e-05 0.0000000000000000e+00  9.6397311871837879e-04 4.4021170266739954e-05 0.0000000000000000e+00  1.2880907389150520e-03 6.5901133583770515e-05 0.0000000000000000e+00  0.0000000000000000e+00 0.0000000000000000e+00 0.0000000000000000e+00  1.1875589930846268e-05 -8.2906345561792785e-08 0.0000000000000000e+00  2.4262243952444216e-05 -1.5981002603259302e-07 0.0000000000000000e+00  3.7690416870364190e-05 -2.2259553956392038e-07 0.0000000000000000e+00  5.2748463860883925e-05 -2.5859380811278872e-07 0.0000000000000000e+00  7.0117528974770663e-05 -2.4691128575262253e-07 0.0000000000000000e+00  9.0615582230145863e-05 -1.5263563386467663e-07 0.0000000000000000e+00  1.1525585693690071e-04 8.2738324483019579e-08 0.0000000000000000e+00  1.4532763607791633e-04 5.5761684516346918e-07 0.0000000000000000e+00  1.8251200733271833e-04 1.4388742806995073e-06 0.0000000000000000e+00  2.2905376444572125e-04 3.0135753434019250e-06 0.0000000000000000e+00  2.8802809787816132e-04 5.7868923718521990e-06 0.0000000000000000e+00  3.6378278692175426e-04 1.0679537815722930e-05 0.0000000000000000e+00  4.6275868132007855e-04 1.9461804118838067e-05 0.0000000000000000e+00  5.9529295873944534e-04 3.5813765718682150e-05 0.0000000000000000e+00  7.8027358448470624e-04 6.8185781351278002e-05 0.0000000000000000e+00  1.0546701551019002e-03 1.3736899856165688e-04 0.0000000000000000e+00  0.0000000000000000e+00 0.0000000000000000e+00 0.0000000000000000e+00  8.1963549651870156e-06 -5.0486843372169661e-08 0.0000000000000000e+00  1.6747995377807095e-05 -9.5529328647342329e-08 0.0000000000000000e+00  2.6023233779592593e-05 -1.2792369436378668e-07 0.0000000000000000e+00  3.6431193604459278e-05 -1.3661656732111075e-07 0.0000000000000000e+00  4.8446347137707309e-05 -1.0356484814662050e-07 0.0000000000000000e+00  6.2639465690602299e-05 1.2732082238429623e-09 0.0000000000000000e+00  7.9718515426379093e-05 2.2828801161162616e-07 0.0000000000000000e+00  1.0058460170479829e-04 6.6251718664965510e-07 0.0000000000000000e+00  1.2641039253152706e-04 1.4486517992119932e-06 0.0000000000000000e+00  1.5875163443985631e-04 2.8356967811085412e-06 0.0000000000000000e+00  1.9970627704477624e-04 5.2588647537263825e-06 0.0000000000000000e+00  2.5214220583422321e-04 9.4964807691935246e-06 0.0000000000000000e+00  3.2005447503114702e-04 1.6999933782036548e-05 0.0000000000000000e+00  4.0946776017297752e-04 3.0743066479154952e-05 0.0000000000000000e+00  5.3307808406275739e-04 5.8271518825409655e-05 0.0000000000000000e+00  7.4069261375366805e-04 1.2670862103473417e-04 0.0000000000000000e+00  0.0000000000000000e+00 0.0000000000000000e+00 0.0000000000000000e+00  4.1810317876054842e-06 -2.3607021849649397e-08 0.0000000000000000e+00  8.5437478292773929e-06 -4.4018874365257043e-08 0.0000000000000000e+00  1.3276269627440991e-05 -5.7048057250110113e-08 0.0000000000000000e+00  1.8587587736473449e-05 -5.6320654822771443e-08 0.0000000000000000e+00  2.4720033717589603e-05 -3.1488675526038963e-08 0.0000000000000000e+00  3.1964915091970977e-05 3.4623087297322623e-08 0.0000000000000000e+00  4.0682940384045645e-05 1.7075644929639992e-07 0.0000000000000000e+00  5.1331571850769964e-05 4.2524020106443851e-07 0.0000000000000000e+00  6.4501755630544421e-05 8.7961299535132082e-07 0.0000000000000000e+00  8.0965154990414269e-05 1.6713463569259472e-06 0.0000000000000000e+00  1.0172384082178222e-04 3.0290835757292799e-06 0.0000000000000000e+00  1.2801055029405790e-04 5.3137220131724319e-06 0.0000000000000000e+00  1.6099116430054754e-04 8.9946488383170306e-06 0.0000000000000000e+00  2.0006961168138787e-04 1.4167473983316714e-05 0.0000000000000000e+00  2.3561175544982240e-04 1.7902542987053350e-05 0.0000000000000000e+00  2.3002760994766041e-04 6.2225488539965836e-06 0.0000000000000000e+00  0.0000000000000000e+00 0.0000000000000000e+00 0.0000000000000000e+00  0.0000000000000000e+00 0.0000000000000000e+00 0.0000000000000000e+00  0.0000000000000000e+00 0.0000000000000000e+00 0.0000000000000000e+00  0.0000000000000000e+00 0.0000000000000000e+00 0.0000000000000000e+00  0.0000000000000000e+00 0.0000000000000000e+00 0.0000000000000000e+00  0.0000000000000000e+00 0.0000000000000000e+00 0.0000000000000000e+00  0.0000000000000000e+00 0.0000000000000000e+00 0.0000000000000000e+00  0.0000000000000000e+00 0.0000000000000000e+00 0.0000000000000000e+00  0.0000000000000000e+00 0.0000000000000000e+00 0.0000000000000000e+00  0.0000000000000000e+00 0.00000