<?xml version="1.0"?>
<VTKFile type="UnstructuredGrid"  version="0.1"  >
<UnstructuredGrid>
<Piece  NumberOfPoints="289" NumberOfCells="512">
<Points>
<DataArray  type="Float64"  NumberOfComponents="3"  format="ascii">0 0 0  0.0625 0 0  0.125 0 0  0.1875 0 0  0.25 0 0  0.3125 0 0  0.375 0 0  0.4375 0 0  0.5 0 0  0.5625 0 0  0.625 0 0  0.6875 0 0  0.75 0 0  0.8125 0 0  0.875 0 0  0.9375 0 0  1 0 0  0 0.0625 0  0.06254847797685596 0.06248228039673746 0  0.1250991170319262 0.06246422811409199 0  0.1876542085514445 0.06244553292465597 0  0.2502162990844885 0.06242594296646806 0  0.3127883463524923 0.06240530216625449 0  0.3753739159441094 0.06238359627260733 0  0.4379774501199974 0.06236100681714627 0  0.5006046711695881 0.06233796700628203 0  0.5632632573119795 0.06231520326112382 0  0.6259641220183295 0.06229372640371882 0  0.6887241471580644 0.06227469663936414 0  0.7515727044542675 0.0622589938582488 0  0.8145688075096427 0.06224605982236475 0  0.8778502966482835 0.06223065851467751 0  0.9417867701399203 0.06219258047899889 0  1.007502125422451 0.06205930555808088 0  0 0.125 0  0.06259479086612502 0.1249648792037893 0  0.1251937997445048 0.1249290635342669 0  0.1878014998963598 0.1248918998469165 0  0.2504228668761921 0.1248528450934338 0  0.3130636848106337 0.124811539412546 0  0.3757309287166769 0.1247678993060555 0  0.4384332738881491 0.1247222323489381 0  0.5011818232054024 0.124675366493705 0  0.5639912301543281 0.1246287707674823 0  0.6268815869639611 0.1245846151438777 0  0.6898818640753045 0.1245456708503974 0  0.7530365401698234 0.1245148945155032 0  0.8164185013306804 0.1244945441949876 0  0.8801520575854106 0.1244851639150903 0  0.9444398109701592 0.1244878508304293 0  1.009509887875792 0.1245286888718585 0  0 0.1875 0  0.06263689339578092 0.1874481638384691 0  0.1252798392162746 0.187395217029563 0  0.1879352534741613 0.1873401031471906 0  0.2506102721145534 0.1872819129806032 0  0.3133131871911792 0.1872199881205917 0  0.3760539831373905 0.1871540603798927 0  0.4388450269831543 0.1870844352686634 0  0.501701990406599 0.1870122197823761 0  0.5646451209176711 0.1869395773902905 0  0.6277010356719741 0.1868699592803897 0  0.6909052533166411 0.1868082002944061 0  0.7543055301323031 0.1867602646502834 0  0.8179650270135154 0.1867322407739168 0  0.8819601451222623 0.1867277280695561 0  0.9463548631435507 0.1867409634056402 0  1.01110500418328 0.1867341120951022 0  0 0.25 0  0.06267297132106832 0.249932554595743 0  0.1253535022382313 0.2498635127509077 0  0.1880495984433816 0.2497913337216422 0  0.2507701566532697 0.2497146366841541 0  0.3135255025490016 0.2496323238173196 0  0.3763280458106043 0.2495437584733443 0  0.439193102444382 0.2494490186333552 0  0.5021399370076058 0.2493492429764711 0  0.5651930619649753 0.249247075536733 0  0.6283837605768219 0.2491471861533184 0  0.691751574649024 0.2490567826659242 0  0.7553448748238347 0.2489859127856007 0  0.8192180692540564 0.2489471420096393 0  0.8834195971077231 0.2489538518660905 0  0.9479592582245562 0.2490160698257489 0  1.012741143475672 0.2491340873035822 0  0 0.3125 0  0.06270153821050564 0.3124185403640627 0  0.12541173325108 0.3123349243705817 0  0.18813973765383 0.3122470373476939 0  0.2508957060932333 0.3121529019327458 0  0.3136914028213784 0.3120508014530559 0  0.3765409439548263 0.3119394776029645 0  0.4394617288755779 0.3118184385254564 0  0.5024756092683959 0.3116884208968468 0  0.5656103069483012 0.3115520533653879 0  0.6289009749931718 0.311414759523039 0  0.6923915042444648 0.3112858978996308 0  0.7561345391992925 0.3111800307288859 0  0.8201879695216392 0.31111799274506 0  0.8846039381255701 0.3111270557338472 0  0.9494055294296182 0.3112390326784552 0  1.014551504139492 0.3114850106317967 0  0 0.375 0  0.06272150960339057 0.3749066819666531 0  0.1254523093874016 0.3748105866960371 0  0.188202196553416 0.3747089454331063 0  0.2509820094875858 0.3745990590532265 0  0.3138042664764821 0.3744783932682671 0  0.3766839605485428 0.3743447609396559 0  0.4396395839939132 0.3741966438128366 0  0.5026944652721683 0.3740337283468124 0  0.5658784892203065 0.373857758738851 0  0.6292302006261714 0.3736738388963508 0  0.692799088917364 0.3734923252367608 0  0.7566474103329343 0.3733313975662651 0  0.8208501483505224 0.3732201823790229 0  0.885490875838886 0.3732017865348414 0  0.9506515736578631 0.3733346552499129 0  1.016398835450014 0.3736893910218733 0  0 0.4375 0  0.06273225033734836 0.4373975983496473 0  0.1254739406995104 0.437291772119102 0  0.1882349876371921 0.4371790513913204 0  0.2510263048474577 0.4370559181602799 0  0.3138604244971445 0.4369188372351114 0  0.3767522922289854 0.4367643724612384 0  0.4397203399125434 0.4365894509199708 0  0.5027879861577288 0.4363918764450427 0  0.5659857738300456 0.4361712536467234 0  0.6293544125992189 0.4359305692742508 0  0.6929490114946492 0.4356787825256622 0  0.756844673790069 0.4354348554567241 0  0.8211432614228663 0.4352335697294134 0  0.885980513375521 0.4351329106197822 0  0.9515324568601223 0.435221273938966 0  1.018022444374574 0.4356201093641044 0  0 0.5 0  0.06273359159932071 0.4998919317567194 0  0.1254763084367559 0.4997798225403997 0  0.1882376798829416 0.4996595141601513 0  0.2510280993507379 0.4995266366772391 0  0.313859367350927 0.4993765366834374 0  0.3767454056163649 0.499204266730871 0  0.4397032725030652 0.4990046952144096 0  0.5027547032860027 0.498772846187897 0  0.5659285598392044 0.4985046673777696 0  0.6292648353135779 0.4981985766310134 0  0.6928212426732151 0.4978583820377665 0  0.7566838757083899 0.4974985175357741 0  0.8209837336747877 0.4971528717056498 0  0.8859205110197951 0.4968883132684635 0  0.9517935667319337 0.4968220110818538 0  1.019039739751696 0.4971358112682923 0  0 0.5625 0  0.06272581467985253 0.5623902905403676 0  0.1254600336716185 0.5622760322411893 0  0.1882113571297015 0.5621524769024098 0  0.2509891334981433 0.5620144717123758 0  0.3138037575083617 0.5618562539211797 0  0.3766671973835903 0.5616712564121962 0  0.4395937799747026 0.5614519594091125 0  0.5026014920901762 0.5611898714912043 0  0.5657143153271748 0.5608758207450842 0  0.6289666106334753 0.5605009336555254 0  0.6924114737180901 0.5600590685425381 0  0.7561364585934758 0.5595522070801354 0  0.8202920019613846 0.5590015531909912 0  0.8851391354009446 0.5584685763017194 0  0.9511206281860038 0.5580896607588096 0  1.01895194033126 0.5581185340562452 0  0 0.625 0  0.06270960002173716 0.624893172514019 0  0.1254265707575365 0.6247814861397668 0  0.1881584489099856 0.6246598033648983 0  0.2509131471656679 0.6245223902780757 0  0.3136991510276425 0.6243625661770562 0  0.376525753375526 0.6241722922052235 0  0.4394034045412343 0.6239416878353181 0  0.502344379541847 0.6236584881987729 0  0.5653642566649992 0.6233075207315399 0  0.62848536800731 0.6228704473233049 0  0.6917448353483233 0.6223264385349901 0  0.7552127713527831 0.6216554873474867 0  0.8190316061943977 0.6208485686675085 0  0.8834948789625564 0.6199342262815513 0  0.9491861731840576 0.6190386733954858 0  1.01718035351892 0.6184877884937831 0  0 0.6875 0  0.06268594422991439 0.6874008772730739 0  0.1253780286521086 0.6872968701831638 0  0.1880824304593759 0.6871827561235193 0  0.2508054215301332 0.6870525656543287 0  0.3135533422787812 0.6868991062513388 0  0.3763324830079628 0.6867133466700521 0  0.4391488448744471 0.6864835904662611 0  0.5020078028138025 0.686194346980164 0  0.56491387936242 0.6858247925976548 0  0.6278714128191355 0.685346737994571 0  0.6908885180273319 0.684722198685575 0  0.7539909936804582 0.683901432696568 0  0.8172632592208597 0.6828251714281921 0  0.8809556832583819 0.6814449207339166 0  0.9457273563455516 0.6798070738850714 0  1.013060624905878 0.6782874509551299 0  0 0.75 0  0.062656054336967 0.7499134214707491 0  0.1253169387878941 0.7498222836895231 0  0.1879874185231972 0.7497216659323122 0  0.2506721235723514 0.7496058331744732 0  0.3133753325995534 0.7494676886627321 0  0.3761005335024346 0.7492980256109405 0  0.4388495995349013 0.7490844520192236 0  0.5016213331708873 0.7488097930796154 0  0.5644090409211741 0.7484496579416586 0  0.627196853663424 0.7479686576593776 0  0.6899552688309938 0.7473144293489552 0  0.7526398754684075 0.7464081637706662 0  0.8152100934508905 0.7451303876896151 0  0.8777277813493914 0.7433063865897901 0  0.9407210211036561 0.7407416967213599 0  1.006023352536443 0.7376843540104181 0  0 0.8125 0  0.06262123609602993 0.812430474763186 0  0.1252460070851611 0.8123570929916147 0  0.1878777296558072 0.8122756617596673 0  0.2505195607155259 0.8121812201556846 0  0.3131740813837028 0.8120675046284325 0  0.3758426824063552 0.8119261925334825 0  0.4385243892369692 0.8117457725623437 0  0.5012136388847919 0.8115097929504933 0  0.5638960889423036 0.8111940588475218 0  0.6265407481255176 0.8107620027920591 0  0.6890854356936629 0.8101567182835642 0  0.7514113350818077 0.8092864147982005 0  0.8133058245074847 0.8079955573704827 0  0.874446746665709 0.8060020177298216 0  0.9346504710492064 0.802754097453828 0  0.9961681055120817 0.7971904396426389 0  0 0.875 0  0.06258279805368203 0.8749513340783841 0  0.1251679014671008 0.8748998668940966 0  0.1877575006359447 0.8748425368818764 0  0.2503535295335601 0.8747756830857787 0  0.3129573718791759 0.8746946185616717 0  0.3755692921059146 0.8745930143731201 0  0.4381873262641914 0.874461960572382 0  0.5008050963774771 0.8742884820780591 0  0.5634074148175438 0.8740531300061619 0  0.6259611926456595 0.8737259839812676 0  0.6883960189194996 0.8732598466940257 0  0.750561359426118 0.8725781064900389 0  0.8121301033114607 0.8715505081140199 0  0.8723813872441605 0.8699320949544722 0  0.9297384034157261 0.8671565800446804 0  0.9809863266249003 0.8614756066496784 0  0 0.9375 0  0.0625419918830846 0.9374749488205202 0  0.1250851247327668 0.9374484239572048 0  0.1876304730539011 0.9374188098424462 0  0.2501789628189739 0.9373841626290679 0  0.3127312044669356 0.9373419737128545 0  0.3752871695808691 0.9372888246439526 0  0.4378455547047495 0.9372198561
[...]
<PointData  Vectors="f_54"> 
<DataArray  type="Float64"  Name="f_54"  NumberOfComponents="3" format="ascii">0.0000000000000000e+00 0.0000000000000000e+00 0.0000000000000000e+00  0.0000000000000000e+00 0.0000000000000000e+00 0.0000000000000000e+00  0.0000000000000000e+00 0.0000000000000000e+00 0.0000000000000000e+00  0.0000000000000000e+00 0.0000000000000000e+00 0.0000000000000000e+00  0.0000000000000000e+00 0.0000000000000000e+00 0.0000000000000000e+00  0.0000000000000000e+00 0.0000000000000000e+00 0.0000000000000000e+00  0.0000000000000000e+00 0.0000000000000000e+00 0.0000000000000000e+00  0.0000000000000000e+00 0.0000000000000000e+00 0.0000000000000000e+00  0.0000000000000000e+00 0.0000000000000000e+00 0.0000000000000000e+00  0.0000000000000000e+00 0.0000000000000000e+00 0.0000000000000000e+00  0.0000000000000000e+00 0.0000000000000000e+00 0.0000000000000000e+00  0.0000000000000000e+00 0.0000000000000000e+00 0.0000000000000000e+00  0.0000000000000000e+00 0.0000000000000000e+00 0.0000000000000000e+00  0.0000000000000000e+00 0.0000000000000000e+00 0.0000000000000000e+00  0.0000000000000000e+00 0.0000000000000000e+00 0.0000000000000000e+00  0.0000000000000000e+00 0.0000000000000000e+00 0.0000000000000000e+00  0.0000000000000000e+00 0.0000000000000000e+00 0.0000000000000000e+00  0.0000000000000000e+00 0.0000000000000000e+00 0.0000000000000000e+00  -4.3682111903853510e-06 -1.8301685600903748e-07 0.0000000000000000e+00  -8.8527870878395549e-06 -3.6609194279523495e-07 0.0000000000000000e+00  -1.3570678360150693e-05 -5.4860437031512453e-07 0.0000000000000000e+00  -1.8634502027637701e-05 -7.2829740183760089e-07 0.0000000000000000e+00  -2.4148740597435561e-05 -9.0030017943089296e-07 0.0000000000000000e+00  -3.0203732320143669e-05 -1.0559920222647152e-06 0.0000000000000000e+00  -3.6866584002967990e-05 -1.1817370899009803e-06 0.0000000000000000e+00  -4.4168109604422023e-05 -1.2576137794622396e-06 0.0000000000000000e+00  -5.2085051362956010e-05 -1.2563966748901579e-06 0.0000000000000000e+00  -6.0517568505473813e-05 -1.1431493426364207e-06 0.0000000000000000e+00  -6.9264588779121005e-05 -8.7553504597252341e-07 0.0000000000000000e+00  -7.8008808465526990e-05 -4.0313992494595007e-07 0.0000000000000000e+00  -8.6356672438892435e-05 3.4378940929808716e-07 0.0000000000000000e+00  -9.4107607277128647e-05 1.5174538734822192e-06 0.0000000000000000e+00  -1.0246553635993853e-04 3.6411201102767469e-06 0.0000000000000000e+00  -1.1964101078918281e-04 8.9616942384855986e-06 0.0000000000000000e+00  0.0000000000000000e+00 0.0000000000000000e+00 0.0000000000000000e+00  -8.6244295332631471e-06 -3.6614878933823088e-07 0.0000000000000000e+00  -1.7484424396972396e-05 -7.3320980654038481e-07 0.0000000000000000e+00  -2.6817244559612220e-05 -1.1007964594086124e-06 0.0000000000000000e+00  -3.6853071426249898e-05 -1.4653618180011432e-06 0.0000000000000000e+00  -4.7808278279806066e-05 -1.8182551024496470e-06 0.0000000000000000e+00  -5.9874331845080809e-05 -2.1433939148040475e-06 0.0000000000000000e+00  -7.3200500412094036e-05 -2.4145614625281537e-06 0.0000000000000000e+00  -8.7868311450309031e-05 -2.5925322953426724e-06 0.0000000000000000e+00  -1.0385553781831503e-04 -2.6225683320014857e-06 0.0000000000000000e+00  -1.2098747838078624e-04 -2.4333576659365575e-06 0.0000000000000000e+00  -1.3887340242101908e-04 -1.9392203781929113e-06 0.0000000000000000e+00  -1.5682532849921525e-04 -1.0484822532411245e-06 0.0000000000000000e+00  -1.7374869050950284e-04 3.1652623669171764e-07 0.0000000000000000e+00  -1.8794560196078454e-04 2.1700661257994746e-06 0.0000000000000000e+00  -1.9649649997795771e-04 4.2949484463316125e-06 0.0000000000000000e+00  -1.9235699057868435e-04 5.4523775504415064e-06 0.0000000000000000e+00  0.0000000000000000e+00 0.0000000000000000e+00 0.0000000000000000e+00  -1.2647028914059973e-05 -5.4842067589539868e-07 0.0000000000000000e+00  -2.5652839230067789e-05 -1.1001249417575247e-06 0.0000000000000000e+00  -3.9379938809307736e-05 -1.6566155124910236e-06 0.0000000000000000e+00  -5.4183962074942823e-05 -2.2149843395202142e-06 0.0000000000000000e+00  -7.0405690505698804e-05 -2.7650774985716684e-06 0.0000000000000000e+00  -8.8356743306317856e-05 -3.2859337423317963e-06 0.0000000000000000e+00  -1.0829611220481839e-04 -3.7413852114755443e-06 0.0000000000000000e+00  -1.3039414278439589e-04 -4.0749479261794949e-06 0.0000000000000000e+00  -1.5467986877660360e-04 -4.2046277891574696e-06 0.0000000000000000e+00  -1.8096657986914726e-04 -4.0192274619461536e-06 0.0000000000000000e+00  -2.0874827272816289e-04 -3.3795029209987463e-06 0.0000000000000000e+00  -2.3705326293428392e-04 -2.1307336182158053e-06 0.0000000000000000e+00  -2.6422198654455615e-04 -1.3936270636940199e-07 0.0000000000000000e+00  -2.8752109688080590e-04 2.6216863116315963e-06 0.0000000000000000e+00  -3.0237267743434649e-04 5.8957551906129323e-06 0.0000000000000000e+00  -3.0080788387820093e-04 8.8590708223853431e-06 0.0000000000000000e+00  0.0000000000000000e+00 0.0000000000000000e+00 0.0000000000000000e+00  -1.6310842060800728e-05 -7.2734306844152128e-07 0.0000000000000000e+00  -3.3107431301412567e-05 -1.4624335288151121e-06 0.0000000000000000e+00  -5.0882530098172028e-05 -2.2109895161147867e-06 0.0000000000000000e+00  -7.0126378421824285e-05 -2.9735593612240720e-06 0.0000000000000000e+00  -9.1319914825366107e-05 -3.7419884351585680e-06 0.0000000000000000e+00  -1.1492013490317381e-04 -4.4946975114947082e-06 0.0000000000000000e+00  -1.4133381251535198e-04 -5.1903917531786286e-06 0.0000000000000000e+00  -1.7087483615177312e-04 -5.7599764406252289e-06 0.0000000000000000e+00  -2.0369922743482496e-04 -6.0969126616576492e-06 0.0000000000000000e+00  -2.3971039788201466e-04 -6.0473245903273216e-06 0.0000000000000000e+00  -2.7842485579075173e-04 -5.4034382066859549e-06 0.0000000000000000e+00  -3.1878397547534362e-04 -3.9083211610052536e-06 0.0000000000000000e+00  -3.5888799946974726e-04 -1.2877121477059946e-06 0.0000000000000000e+00  -3.9561405993904133e-04 2.6630587307751719e-06 0.0000000000000000e+00  -4.2408617351298063e-04 7.8956935273989394e-06 0.0000000000000000e+00  -4.3713147911055949e-04 1.3791763364331814e-05 0.0000000000000000e+00  0.0000000000000000e+00 0.0000000000000000e+00 0.0000000000000000e+00  -1.9487738669195148e-05 -8.9835481516568318e-07 0.0000000000000000e+00  -3.9589656793200247e-05 -1.8113363587070598e-06 0.0000000000000000e+00  -6.0931712750984240e-05 -2.7516347344220660e-06 0.0000000000000000e+00  -8.4146721132742757e-05 -3.7267665173939119e-06 0.0000000000000000e+00  -1.0987188178749841e-04 -4.7352289786140412e-06 0.0000000000000000e+00  -1.3873763378540556e-04 -5.7609534147133425e-06 0.0000000000000000e+00  -1.7134326812243432e-04 -6.7652619315536694e-06 0.0000000000000000e+00  -2.0821327586966739e-04 -7.6754265761290328e-06 0.0000000000000000e+00  -2.4972669255155839e-04 -8.3690189625617902e-06 0.0000000000000000e+00  -2.9600992557556678e-04 -8.6538877986015072e-06 0.0000000000000000e+00  -3.4678208512586422e-04 -8.2455620552240194e-06 0.0000000000000000e+00  -4.0114138083436376e-04 -6.7485203168814194e-06 0.0000000000000000e+00  -4.5728363140398829e-04 -3.6571610579265875e-06 0.0000000000000000e+00  -5.1215633925794958e-04 1.5916172275858940e-06 0.0000000000000000e+00  -5.6109743103510636e-04 9.4612821691028886e-06 0.0000000000000000e+00  -5.9764165900999468e-04 1.9987845738716178e-05 0.0000000000000000e+00  0.0000000000000000e+00 0.0000000000000000e+00 0.0000000000000000e+00  -2.2049175550738065e-05 -1.0545226971416295e-06 0.0000000000000000e+00  -4.4837721066605518e-05 -2.1329179210652440e-06 0.0000000000000000e+00  -6.9123068880825545e-05 -3.2576515228447026e-06 0.0000000000000000e+00  -9.5684292572492357e-05 -4.4470291664760944e-06 0.0000000000000000e+00  -1.2532749150049468e-04 -5.7116661216064622e-06 0.0000000000000000e+00  -1.5888276032308469e-04 -7.0488551870867782e-06 0.0000000000000000e+00  -1.9718767518756155e-04 -8.4335649957362184e-06 0.0000000000000000e+00  -2.4105013117410053e-04 -9.8042562897222002e-06 0.0000000000000000e+00  -2.9118080461999334e-04 -1.1041040312535133e-05 0.0000000000000000e+00  -3.4808295271044530e-04 -1.1933164070071967e-05 0.0000000000000000e+00  -4.1188589514057919e-04 -1.2133139000951000e-05 0.0000000000000000e+00  -4.8211086764688701e-04 -1.1097860877381243e-05 0.0000000000000000e+00  -5.5736857479729584e-04 -8.0264605419913640e-06 0.0000000000000000e+00  -6.3501368838988679e-04 -1.8257978613486897e-06 0.0000000000000000e+00  -7.1083007482218585e-04 8.8293572627694946e-06 0.0000000000000000e+00  -7.7888743881228395e-04 2.5234174904706711e-05 0.0000000000000000e+00  0.0000000000000000e+00 0.0000000000000000e+00 0.0000000000000000e+00  -2.3871068750496330e-05 -1.1866138200038438e-06 0.0000000000000000e+00  -4.8596173277383341e-05 -2.4081806409851999e-06 0.0000000000000000e+00  -7.5055021296525990e-05 -3.6992615036772351e-06 0.0000000000000000e+00  -1.0416880916063957e-04 -5.0924544531014396e-06 0.0000000000000000e+00  -1.3691710083723628e-04 -6.6160335812106846e-06 0.0000000000000000e+00  -1.7434803391905572e-04 -8.2894301485487464e-06 0.0000000000000000e+00  -2.1757680033926229e-04 -1.0114946208809754e-05 0.0000000000000000e+00  -2.6776444943916344e-04 -1.2063034812632428e-05 0.0000000000000000e+00  -3.2606513244507688e-04 -1.4046778942013370e-05 0.0000000000000000e+00  -3.9352536386326182e-04 -1.5878669734490471e-05 0.0000000000000000e+00  -4.7091537467826511e-04 -1.7199603088050663e-05 0.0000000000000000e+00  -5.5847439596423210e-04 -1.7367701276768645e-05 0.0000000000000000e+00  -6.5556690095162570e-04 -1.5298128938656435e-05 0.0000000000000000e+00  -7.6028589656295753e-04 -9.2658446343990400e-06 0.0000000000000000e+00  -8.6910175809400928e-04 3.2634112106620699e-06 0.0000000000000000e+00  -9.7669594150861854e-04 2.5626327266252196e-05 0.0000000000000000e+00  0.0000000000000000e+00 0.0000000000000000e+00 0.0000000000000000e+00  -2.4841076511802538e-05 -1.2836443735486474e-06 0.0000000000000000e+00  -5.0630687183760343e-05 -2.6140833252545025e-06 0.0000000000000000e+00  -7.8351473538349425e-05 -4.0391730965129564e-06 0.0000000000000000e+00  -1.0905117759315294e-04 -5.6081408037393094e-06 0.0000000000000000e+00  -1.4387422272999720e-04 -7.3713426046983677e-06 0.0000000000000000e+00  -1.8409025580972383e-04 -9.3783839170368712e-06 0.0000000000000000e+00  -2.3111551004905800e-04 -1.1673036759808286e-05 0.0000000000000000e+00  -2.8651916701314978e-04 -1.4281984775111858e-05 0.0000000000000000e+00  -3.5200116774710647e-04 -1.7191783991807741e-05 0.0000000000000000e+00  -4.2931989258592802e-04 -2.0303580396370489e-05 0.0000000000000000e+00  -5.2013899079344768e-04 -2.3346690153344528e-05 0.0000000000000000e+00  -6.2575771814169119e-04 -2.5719070955519830e-05 0.0000000000000000e+00  -7.4670266989610963e-04 -2.6207683579360673e-05 0.0000000000000000e+00  -8.8221715456745218e-04 -2.2540638348908022e-05 0.0000000000000000e+00  -1.0298069185980571e-03 -1.0776658864713344e-05 0.0000000000000000e+00  -1.1851117410364635e-03 1.5322874202328189e-05 0.0000000000000000e+00  0.0000000000000000e+00 0.0000000000000000e+00 0.0000000000000000e+00  -2.4868029618925069e-05 -1.3339557846903621e-06 0.0000000000000000e+00  -5.0747606449540780e-05 -2.7257357039770110e-06 0.0000000000000000e+00  -7.8692782046538827e-05 -4.2359458342108998e-06 0.0000000000000000e+00  -1.0984764437221457e-04 -5.9306709850280528e-06 0.0000000000000000e+00  -1.4549463848364524e-04 -7.8841437359346377e-06 0.0000000000000000e+00  -1.8710562526737270e-04 -1.0180973893069685e-05 0.0000000000000000e+00  -2.3639384028460134e-04 -1.2917023387850613e-05 0.0000000000000000e+00  -2.9536095124340706e-04 -1.6196746414970043e-05 0.0000000000000000e+00  -3.6632609951553724e-04 -2.0122031049996268e-05 0.0000000000000000e+00  -4.5191131431247415e-04 -2.4761467822580600e-05 0.0000000000000000e+00  -5.5493875792235210e-04 -3.0075737603778544e-05 0.0000000000000000e+00  -6.7817312136443165e-04 -3.5747288253311264e-05 0.0000000000000000e+00  -8.2383610577396033e-04 -4.0810725043889921e-05 0.0000000000000000e+00  -9.9288808208625027e-04 -4.2906178276725805e-05 0.0000000000000000e+00  -1.1843283396104473e-03 -3.6953231028345275e-05 0.0000000000000000e+00  -1.3952550508835083e-03 -1.3262706353341978e-05 0.0000000000000000e+00  0.0000000000000000e+00 0.0000000000000000e+00 0.0000000000000000e+00  -2.3892808316040557e-05 -1.3267695562815523e-06 0.0000000000000000e+00  -4.8816926571854543e-05 -2.7196899430378675e-06 0.0000000000000000e+00  -7.5853286384858679e-05 -4.2493833567004544e-06 0.0000000000000000e+00  -1.0619549003926853e-04 -5.9961323153802743e-06 0.0000000000000000e+00  -1.4121480068578256e-04 -8.0557636850676867e-06 0.0000000000000000e+00  -1.8253559336741033e-04 -1.0546807961669110e-05 0.0000000000000000e+00  -2.3212354632949902e-04 -1.3619279099601087e-05 0.0000000000000000e+00  -2.9238587549758511e-04 -1.7465005619752388e-05 0.0000000000000000e+00  -3.6627566541378928e-04 -2.2328040884503974e-05 0.0000000000000000e+00  -4.5737661623182258e-04 -2.8509404470272946e-05 0.0000000000000000e+00  -5.6991374182390961e-04 -3.6347960443198987e-05 0.0000000000000000e+00  -7.0858306637548523e-04 -4.6124168880758933e-05 0.0000000000000000e+00  -8.7802707136610408e-04 -5.7739280684628139e-05 0.0000000000000000e+00  -1.0817839251245768e-03 -6.9797411590294571e-05 0.0000000000000000e+00  -1.3209093696180303e-03 -7.7351114040009666e-05 0.0000000000000000e+00  -1.5934762252350365e-03 -6.7647121880633825e-05 0.0000000000000000e+00  0.0000000000000000e+00 0.0000000000000000e+00 0.0000000000000000e+00  -2.1899474422692227e-05 -1.2540375151196506e-06 0.0000000000000000e+00  -4.4796322315536141e-05 -2.5779642145037361e-06 0.0000000000000000e+00  -6.9741843106809352e-05 -4.0474286176365329e-06 0.0000000000000000e+00  -9.7915782766829206e-05 -5.7510688996913261e-06 0.0000000000000000e+00  -1.3070482069533487e-04 -7.7991512470151810e-06 0.0000000000000000e+00  -1.6980018060538268e-04 -1.0335237894927966e-05 0.0000000000000000e+00  -2.1732253209731341e-04 -1.3552734994014141e-05 0.0000000000000000e+00  -2.7598243504776672e-04 -1.7719135512871111e-05 0.0000000000000000e+00  -3.4928111261074766e-04 -2.3212249706644123e-05 0.0000000000000000e+00  -4.4174314086357881e-04 -3.0574434637754636e-05 0.0000000000000000e+00  -5.5913622078318547e-04 -4.0590251152792847e-05 0.0000000000000000e+00  -7.0854728482712458e-04 -5.4377436686607330e-05 0.0000000000000000e+00  -8.9800986138865904e-04 -7.3397143117330597e-05 0.0000000000000000e+00  -1.1351269246097917e-03 -9.8930788238617081e-05 0.0000000000000000e+00  -1.4243980809444548e-03 -1.2930371881037528e-04 0.0000000000000000e+00  -1.7662617394379691e-03 -1.5211661743214276e-04 0.0000000000000000e+00  0.0000000000000000e+00 0.0000000000000000e+00 0.0000000000000000e+00  -1.8924996740605187e-05 -1.1122707323806391e-06 0.0000000000000000e+00  -3.8752741465320305e-05 -2.2921107461201011e-06 0.0000000000000000e+00  -6.0439812469770019e-05 -3.6133907819426857e-06 0.0000000000000000e+00  -8.5075368691216413e-05 -5.1645468159761804e-06 0.0000000000000000e+00  -1.1396615781462919e-04 -7.0586928072117444e-06 0.0000000000000000e+00  -1.4874818654313674e-04 -9.4479060216752101e-06 0.0000000000000000e+00  -1.9153981244312673e-04 -1.2544594461300057e-05 0.0000000000000000e+00  -2.4515637798540335e-04 -1.6654964411140574e-05 0.0000000000000000e+00  -3.1341206997493356e-04 -2.2233884274562691e-05 0.0000000000000000e+00  -4.0153538727603292e-04 -2.9979490166474337e-05 0.0000000000000000e+00  -5.1670433593931173e-04 -4.1005261386779894e-05 0.0000000000000000e+00  -6.6862078846934296e-04 -5.7166347599828574e-05 0.0000000000000000e+00  -8.6977099064491133e-04 -8.1675403047873756e-05 0.0000000000000000e+00  -1.1342667472132683e-03 -1.2008715565660638e-04 0.0000000000000000e+00  -1.4724813631907105e-03 -1.8024404076924107e-04 0.0000000000000000e+00  -1.8866727712223649e-03 -2.5283233113599670e-04 0.0000000000000000e+00  0.0000000000000000e+00 0.0000000000000000e+00 0.0000000000000000e+00  -1.5065584540220893e-05 -9.0395113392636110e-07 0.0000000000000000e+00  -3.0877237495193450e-05 -1.8664291959067392e-06 0.0000000000000000e+00  -4.8229133532016257e-05 -2.9518536024952387e-06 0.0000000000000000e+00  -6.8036714162183598e-05 -4.2384623657036437e-06 0.0000000000000000e+00  -9.1417587441852523e-05 -5.8280787407433448e-06 0.0000000000000000e+00  -1.1980258432658191e-04 -7.8600995113077016e-06 0.0000000000000000e+00  -1.5509658947815614e-04 -1.0532614935895407e-05 0.0000000000000000e+00  -1.9992003281015381e-04 -1.4135623695225482e-05 0.0000000000000000e+00  -2.5798003430894267e-04 -1.9105605476100637e-05 0.0000000000000000e+00  -3.3464687982907404e-04 -2.6120893017411813e-05 0.0000000000000000e+00  -4.3784241795000146e-04 -3.6284580021372105e-05 0.0000000000000000e+00  -5.7935027057686350e-04 -5.1521577986071259e-05 0.0000000000000000e+00  -7.7649830390170830e-04 -7.5559370269384922e-05 0.0000000000000000e+00  -1.0533148750166918e-03 -1.1661380081001325e-04 0.0000000000000000e+00  -1.4361691346748127e-03 -1.9552910927784443e-04 0.0000000000000000e+00  -1.9049856842718569e-03 -3.8035860877603606e-04 0.0000000000000000e+00  0.0000000000000000e+00 0.0000000000000000e+00 0.0000000000000000e+00  -1.0477642383161428e-05 -6.3815399279076059e-07 0.0000000000000000e+00  -2.1488511378961632e-05 -1.3194559420301038e-06 0.0000000000000000e+00  -3.3602227768716405e-05 -2.0915936183657081e-06 0.0000000000000000e+00  -4.7481586169309307e-05 -3.0129860953638911e-06 0.0000000000000000e+00  -6.3946626030998485e-05 -4.1603791819151553e-06 0.0000000000000000e+00  -8.4065566148152938e-05 -5.6396459284464888e-06 0.0000000000000000e+00  -1.0929209131218539e-04 -7.6016963551272125e-06 0.0000000000000000e+00  -1.4168254694402126e-04 -1.0266113717203886e-05 0.0000000000000000e+00  -1.8425297170702863e-04 -1.3955758606748570e-05 0.0000000000000000e+00  -2.4158556182758280e-04 -1.9145521712791268e-05 0.0000000000000000e+00  -3.2088711185084397e-04 -2.6527801752242740e-05 0.0000000000000000e+00  -4.3387136794674453e-04 -3.7107105570644595e-05 0.0000000000000000e+00  -6.0013029543898322e-04 -5.2434652476231417e-05 0.0000000000000000e+00  -8.5313319796832159e-04 -7.5657517381078407e-05 0.0000000000000000e+00  -1.2506508442676179e-03 -1.1630919143064926e-04 0.0000000000000000e+00  -1.8914066602040442e-03 -2.0701064266020916e-04 0.0000000000000000e+00  0.0000000000000000e+00 0.0000000000000000e+00 0.0000000000000000e+00  -5.3718564312479225e-06 -3.3015258163928633e-07 0.0000000000000000e+00  -1.1021541667864025e-05 -6.8318419132403702e-07 0.0000000000000000e+00  -1.7246497161961292e-05 -1.0844324782056137e-06 0.0000000000000000e+00  -2.4394835862022918e-05 -1.5650681615148464e-06 0.0000000000000000e+00  -3.2900864574285747e-05 -2.1661987049598709e-06 0.0000000000000000e+00  -4.3336580620766886e-05 -2.9446073491249632e-06 0.0000000000000000e+00  -5.6491516813298867e-05 -3.9808460878820426e-06 0.0000000000000000e+00  -7.3503339954614878e-05 -5.3899787876442036e-06 0.0000000000000000e+00  -9.6081635870854713e-05 -7.3327307301013640e-06 0.0000000000000000e+00  -1.2690752131866187e-04 -1.0014304346844899e-05 0.0000000000000000e+00  -1.7036943720983547e-04 -1.3618921602236856e-05 0.0000000000000000e+00  -2.3391889548943207e-04 -1.7987775253383322e-05 0.0000000000000000e+00  -3.3034744525118622e-04 -2.1370711144863365e-05 0.0000000000000000e+00  -4.7999942419806702e-04 -1.6201736121149662e-05 0.0000000000000000e+00  -7.0362141005586240e-04 2.1808411737018796e-05 0.0000000000000000e+00  -9.7330019721252688e-04 1.3909530319833102e-04 0.0000000000000000e+00  0.0000000000000000e+00 0.0000000000000000e+00 0.0000000000000000e+00  0.0000000000000000e+00 0.0000000000000000e+00 0.0000000000000000e+00  0.0000000000000000e+00 0.0000000000000000e+00 0.0000000000000000e+00  0.0000000000000000e+00 0.0000000000000000e+00 0.0000000000000000e+00  0.0000000000000000e+00 0.0000000000000000e+00 0.0000000000000000e+00  0.0000000000000000e+00 0.0000000000000000e+00 