<?xml version="1.0"?>
<VTKFile type="UnstructuredGrid"  version="0.1"  >
<UnstructuredGrid>
<Piece  NumberOfPoints="289" NumberOfCells="512">
<Points>
<DataArray  type="Float64"  NumberOfComponents="3"  format="ascii">0 0 0  0.0625 0 0  0.125 0 0  0.1875 0 0  0.25 0 0  0.3125 0 0  0.375 0 0  0.4375 0 0  0.5 0 0  0.5625 0 0  0.625 0 0  0.6875 0 0  0.75 0 0  0.8125 0 0  0.875 0 0  0.9375 0 0  1 0 0  0 0.0625 0  0.06250354584311993 0.06248020791876101 0  0.1250080084119355 0.06246007125249402 0  0.1875144195689357 0.06243927417467039 0  0.2500240930933273 0.0624175750859132 0  0.3125388077069674 0.06239485389904133 0  0.3750610490562205 0.06237117004685112 0  0.4375943479533508 0.06234683068456934 0  0.5001437809598905 0.06232246257996175 0  0.5627167674306524 0.06229907012245894 0  0.6253244676474653 0.0622780423420864 0  0.6879845393287366 0.06226103750918698 0  0.7507272834869512 0.06224960851778624 0  0.8136110103097934 0.06224427773987148 0  0.8767644516157449 0.06224228620648413 0  0.9405141471192584 0.06223144449852064 0  1.005799922371428 0.06217154664776012 0  0 0.125 0  0.06250615667786701 0.1249607456157694 0  0.1250140248493441 0.124920764881786 0  0.1875255369748796 0.1248793850689884 0  0.2500431675885064 0.1248360737947476 0  0.3125702863488544 0.1247905313858666 0  0.375111623910645 0.1247428080473893 0  0.4376739153704727 0.1246934479339279 0  0.5002668249784521 0.1246436523958257 0  0.5629043376111897 0.1245954358467551 0  0.6256069795190671 0.1245517147028223 0  0.6884056140196234 0.124516217952873 0  0.7513483471993949 0.1244930423815853 0  0.8145134569994932 0.1244856554271341 0  0.8780323525615059 0.1244954860149583 0  0.9421197077498489 0.1245223757362033 0  1.007052413563774 0.1245789746753076 0  0 0.1875 0  0.06250707502010384 0.1874420014238772 0  0.1250164109433392 0.1873828267314454 0  0.1875305719861653 0.1873213699599569 0  0.2500528696525034 0.1872567137376109 0  0.3125878513996546 0.1871882603171441 0  0.375141943893799 0.1871159065853547 0  0.4377243280551003 0.187040273232644 0  0.5003481506479551 0.1869629885385224 0  0.5630322200514236 0.1868870058349703 0  0.6258033951833067 0.1868168916151796 0  0.6886999353213531 0.1867589445508202 0  0.7517759972976671 0.1867208710798715 0  0.8151066781706552 0.1867104937858451 0  0.8787896457456315 0.1867323795858679 0  0.9429287820435303 0.1867792727122043 0  1.007561641290748 0.1868067639796286 0  0 0.25 0  0.06250579216458529 0.2499244308924516 0  0.1250140521794274 0.2498471463937129 0  0.1875275982871578 0.2497665043205671 0  0.2500501186259116 0.2496810695092335 0  0.3125867463212733 0.2495897700517998 0  0.3751448205712941 0.2494921209597049 0  0.4377349169308942 0.2493885399600771 0  0.5003722412172462 0.2492807763690178 0  0.5630784778720311 0.2491724591639631 0  0.6258841310565002 0.2490697324765544 0  0.6888312079693328 0.2489818649547697 0  0.7519755555342033 0.2489215596539903 0  0.8153868012384567 0.2489044017607843 0  0.8791408463075917 0.2489464120190041 0  0.943294740592475 0.2490581882609252 0  1.007830427037923 0.2492354373514557 0  0 0.3125 0  0.06250213422590072 0.3124085774007147 0  0.1250065434203814 0.3123148041732181 0  0.1875158559553232 0.312216387074943 0  0.2500335886702849 0.3121112152322796 0  0.3125647488326435 0.3119975181449747 0  0.3751166476511018 0.3118741145863694 0  0.4377000204233299 0.3117407966980358 0  0.5003305566110847 0.3115989027096425 0  0.5630309238399351 0.3114521357248266 0  0.625833276356096 0.3113076724459779 0  0.6887819772047327 0.3111775489522006 0  0.7519356706323148 0.311080163892185 0  0.8153667056426157 0.3110414322551859 0  0.8791542191382588 0.3110945940852728 0  0.9433660459803603 0.3112770229707037 0  1.008028416014363 0.3116220811761163 0  0 0.375 0  0.06249630837821317 0.3748950776392695 0  0.1249942917954086 0.3747870880502961 0  0.187495931911137 0.3746729822572973 0  0.2500039978546036 0.3745498140685668 0  0.3125226054186253 0.3744148650704592 0  0.3750580067843545 0.3742658761330211 0  0.4376197295407325 0.3741014498309169 0  0.500222212209802 0.3739217162068942 0  0.5628870962017918 0.3737293901479582 0  0.6256462905505659 0.3735313847193975 0  0.6885457464144066 0.3733411561073087 0  0.7516494394270652 0.3731818797298437 0  0.8150422511221111 0.3730902657299461 0  0.8788294324261752 0.3731201171459557 0  0.9431302095776045 0.3733434556178232 0  1.008066649746403 0.3738453748416285 0  0 0.4375 0  0.06248890195334993 0.4373846461522691 0  0.1249785218253005 0.4372654677109791 0  0.1874697857094784 0.4371385942746958 0  0.2499641788597992 0.4370001177393471 0  0.3124641813699165 0.4368461401430825 0  0.3749739360565645 0.4366729255173423 0  0.4375002970481168 0.4364772328091413 0  0.5000544788356919 0.4362569556269185 0  0.5626546186848205 0.4360122710692986 0  0.6253296628761162 0.4357476114257361 0  0.6881250336102848 0.4354749123890305 0  0.7511104053725079 0.4352187035492921 0  0.8143894259503633 0.4350235079312058 0  0.8781102626327048 0.4349632847838714 0  0.9424750571042273 0.4351506524657519 0  1.007748293675209 0.4357402337964665 0  0 0.5 0  0.06248083016100234 0.4998780342696716 0  0.1249611730467082 0.4997515142859112 0  0.1874406036010371 0.4996157542597469 0  0.2499189063073362 0.4994658345458424 0  0.3123962986685807 0.4992965256857102 0  0.3748738516626047 0.4991022862096421 0  0.4373542732522421 0.4988774063539553 0  0.4998433456105066 0.4986164323984532 0  0.5623525145981597 0.4983151191130719 0  0.6249034539361992 0.4979723552742294 0  0.6875358742511097 0.4975938342923892 0  0.7503203223713714 0.4971987216970319 0  0.8133778596729158 0.4968310739404789 0  0.8769075646122717 0.4965776477554313 0  0.9412202227661731 0.4965912939166396 0  1.006775323260922 0.4971120188623035 0  0 0.5625 0  0.06247323184865161 0.5623759618530685 0  0.1249446863683747 0.5622467603979869 0  0.1874124682762981 0.5621070030242854 0  0.2498744495292263 0.5619508322025749 0  0.3123281968079524 0.5617716885393741 0  0.3747710030021406 0.5615620854499962 0  0.4372001672959305 0.5613134364691532 0  0.4996138316506326 0.5610160340171454 0  0.5620130004490939 0.5606593990128113 0  0.6244059666551715 0.5602334703139999 0  0.6868174098504561 0.5597316114594708 0  0.7493060402665895 0.5591574063075718 0  0.8119965416866347 0.5585389622675189 0  0.8751320627932597 0.5579566815494081 0  0.9391486885999536 0.5575902432738619 0  1.004761110835267 0.5577792007388805 0  0 0.625 0  0.06246731830685837 0.6248790255109594 0  0.124931685854413 0.6247525061860976 0  0.1873898443593779 0.6246145740537228 0  0.2498378265927585 0.6244586673861812 0  0.3122705336069956 0.6242771201227478 0  0.3746812566118026 0.624060675452321 0  0.4370612022771803 0.6237979061475811 0  0.499399230815419 0.6234745493774763 0  0.5616823707717056 0.6230728367097634 0  0.6238984693043459 0.6225710974320714 0  0.6860440266181932 0.6219444324075825 0  0.748143597985535 0.6211685973599523 0  0.8102928866558048 0.620232582033735 0  0.8727445883729276 0.6191728484791792 0  0.9360547032808165 0.6181532100867568 0  1.001280688393507 0.6176053163160968 0  0 0.6875 0  0.06246418859933899 0.6873875936834424 0  0.124924580690712 0.6872695920948083 0  0.1873769087908764 0.6871400069486037 0  0.2498157749571528 0.6869919782438315 0  0.3122338851838239 0.6868172152015473 0  0.3746210218478195 0.6866052684823351 0  0.4369626573220773 0.6863425431361198 0  0.4992381652573987 0.6860109297586728 0  0.561418808613072 0.685585895690619 0  0.6234663778191293 0.6850338707782496 0  0.685335273858798 0.6843089189640145 0  0.7469857563488677 0.6833495359008568 0  0.8084277170806196 0.6820799329365168 0  0.8698378505694424 0.6804334389164486 0  0.9318183165228756 0.6784591636834817 0  0.9958041589544834 0.6766203040583797 0  0 0.75 0  0.06246463571300109 0.7499017056532442 0  0.1249251373573235 0.7497981749923374 0  0.1873768025593731 0.7496837522587509 0  0.249813535447948 0.7495518319572217 0  0.3122268341115603 0.749394218822414 0  0.3746043178786771 0.7492002500578621 0  0.4369275069332305 0.7489555277319709 0  0.4991684403477807 0.7486400194538216 0  0.5612845955236616 0.7482251247601878 0  0.6232116448306697 0.7476690097000754 0  0.6848545667108757 0.7469089692229111 0  0.7460818984238604 0.7458486757605683 0  0.8067429976933863 0.7443374761289948 0  0.8667765738742956 0.7421444595140624 0  0.9266131725965606 0.7389881850505646 0  0.9880139400268619 0.7351800908424314 0  0 0.8125 0  0.06246897822679941 0.8124209957608758 0  0.1249340985339625 0.8123375551236391 0  0.1873909362740267 0.8122448524702516 0  0.2498336577378958 0.8121371690203303 0  0.3122539471613286 0.812007272178315 0  0.3746393649427642 0.8118455390092207 0  0.4369707048152929 0.8116386501783389 0  0.4992176000981523 0.8113675674445701 0  0.5613310574794215 0.8110042937644265 0  0.6232306173752127 0.8105064785889124 0  0.6847823919633664 0.8098079401445528 0  0.7457631830266667 0.8088006623732832 0  0.805811083467421 0.8072969213431617 0  0.86440461154535 0.8049407362126122 0  0.9211537164517657 0.8009832296074341 0  0.9784673536331743 0.7936521335563905 0  0 0.875 0  0.06247695736101801 0.8749446635375264 0  0.1249509412191574 0.8748861016022674 0  0.1874185235958179 0.8748207884891552 0  0.2498751359532417 0.8747445038036026 0  0.312314174362018 0.8746518412301705 0  0.3747255860119258 0.8745355047451523 0  0.4370934994881653 0.8743852482480624 0  0.4993920699417543 0.8741862275010684 0  0.5615778946635807 0.8739163871283092 0  0.6235756046188807 0.8735422558555985 0  0.6852493829697438 0.8730120407464711 0  0.7463445421551665 0.8722436232352748 0  0.8063642247811288 0.8711000765195868 0  0.8643074110496384 0.8693227417244489 0  0.9181401144194078 0.8662915042534991 0  0.9639584397834187 0.8600495074050966 0  0 0.9375 0  0.06248773382804022 0.9374715039113427 0  0.1249738576623635 0.9374413101131179 0  0.1874565114962937 0.937407557624199 0  0.2499332043340289 0.9373680059910512 0  0.3124003122507492 0.9373197647236569 0  0.3748522733943274 0.9372589036723534 0  0.4372802
[...]
<PointData  Vectors="f_54"> 
<DataArray  type="Float64"  Name="f_54"  NumberOfComponents="3" format="ascii">0.0000000000000000e+00 0.0000000000000000e+00 0.0000000000000000e+00  0.0000000000000000e+00 0.0000000000000000e+00 0.0000000000000000e+00  0.0000000000000000e+00 0.0000000000000000e+00 0.0000000000000000e+00  0.0000000000000000e+00 0.0000000000000000e+00 0.0000000000000000e+00  0.0000000000000000e+00 0.0000000000000000e+00 0.0000000000000000e+00  0.0000000000000000e+00 0.0000000000000000e+00 0.0000000000000000e+00  0.0000000000000000e+00 0.0000000000000000e+00 0.0000000000000000e+00  0.0000000000000000e+00 0.0000000000000000e+00 0.0000000000000000e+00  0.0000000000000000e+00 0.0000000000000000e+00 0.0000000000000000e+00  0.0000000000000000e+00 0.0000000000000000e+00 0.0000000000000000e+00  0.0000000000000000e+00 0.0000000000000000e+00 0.0000000000000000e+00  0.0000000000000000e+00 0.0000000000000000e+00 0.0000000000000000e+00  0.0000000000000000e+00 0.0000000000000000e+00 0.0000000000000000e+00  0.0000000000000000e+00 0.0000000000000000e+00 0.0000000000000000e+00  0.0000000000000000e+00 0.0000000000000000e+00 0.0000000000000000e+00  0.0000000000000000e+00 0.0000000000000000e+00 0.0000000000000000e+00  0.0000000000000000e+00 0.0000000000000000e+00 0.0000000000000000e+00  0.0000000000000000e+00 0.0000000000000000e+00 0.0000000000000000e+00  -4.3015783358699057e-06 -2.1863582013390769e-07 0.0000000000000000e+00  -8.7282834648302948e-06 -4.3977268978099449e-07 0.0000000000000000e+00  -1.3407812243709528e-05 -6.6540586618341346e-07 0.0000000000000000e+00  -1.8467462596023280e-05 -8.9616583073504198e-07 0.0000000000000000e+00  -2.4032981397312110e-05 -1.1304259509425600e-06 0.0000000000000000e+00  -3.0226152650110334e-05 -1.3631604751026214e-06 0.0000000000000000e+00  -3.7160891777661051e-05 -1.5844919247651496e-06 0.0000000000000000e+00  -4.4938102224638397e-05 -1.7778947100623914e-06 0.0000000000000000e+00  -5.3640932497114493e-05 -1.9180340638233932e-06 0.0000000000000000e+00  -6.3335900152486948e-05 -1.9680838685857781e-06 0.0000000000000000e+00  -7.4096319618973422e-05 -1.8755688989016303e-06 0.0000000000000000e+00  -8.6097884752634233e-05 -1.5624135389796470e-06 0.0000000000000000e+00  -9.9945709941008290e-05 -8.9176851893671248e-07 0.0000000000000000e+00  -1.1777992055844922e-04 4.5729755912640525e-07 0.0000000000000000e+00  -1.4721929732698270e-04 3.4912442009499546e-06 0.0000000000000000e+00  -2.1719997309287584e-04 1.2113894643202923e-05 0.0000000000000000e+00  0.0000000000000000e+00 0.0000000000000000e+00 0.0000000000000000e+00  -8.4757927287901590e-06 -4.3465370588277783e-07 0.0000000000000000e+00  -1.7202155991566637e-05 -8.7495892528221673e-07 0.0000000000000000e+00  -2.6435006142404758e-05 -1.3256336519610849e-06 0.0000000000000000e+00  -3.6430467668945821e-05 -1.7888381159959879e-06 0.0000000000000000e+00  -4.7443065965958044e-05 -2.2624661690238325e-06 0.0000000000000000e+00  -5.9721294857842623e-05 -2.7379151208596312e-06 0.0000000000000000e+00  -7.3499779420346808e-05 -3.1971951817619776e-06 0.0000000000000000e+00  -8.8987684686581798e-05 -3.6093148912115014e-06 0.0000000000000000e+00  -1.0635425008055436e-04 -3.9260237618795220e-06 0.0000000000000000e+00  -1.2571536659628670e-04 -4.0772147710986819e-06 0.0000000000000000e+00  -1.4713202555275269e-04 -3.9665549885888718e-06 0.0000000000000000e+00  -1.7064569976241552e-04 -3.4682966319857533e-06 0.0000000000000000e+00  -1.9639785033769152e-04 -2.4283679812451929e-06 0.0000000000000000e+00  -2.2487156890366273e-04 -6.8937974591362427e-07 0.0000000000000000e+00  -2.5693827733131033e-04 1.7316208626614310e-06 0.0000000000000000e+00  -2.9064447678140928e-04 3.5158005539493775e-06 0.0000000000000000e+00  0.0000000000000000e+00 0.0000000000000000e+00 0.0000000000000000e+00  -1.2394663783090795e-05 -6.4476300066033533e-07 0.0000000000000000e+00  -2.5165272509318215e-05 -1.2995312492206262e-06 0.0000000000000000e+00  -3.8696245885752023e-05 -1.9731049559657790e-06 0.0000000000000000e+00  -5.3374695450154767e-05 -2.6708841421754874e-06 0.0000000000000000e+00  -6.9588946564148323e-05 -3.3925094151278258e-06 0.0000000000000000e+00  -8.7723017252400287e-05 -4.1286733134316531e-06 0.0000000000000000e+00  -1.0814541686454041e-04 -4.8568333278966370e-06 0.0000000000000000e+00  -1.3119051564886846e-04 -5.5356491356708459e-06 0.0000000000000000e+00  -1.5713076327917468e-04 -6.0982261573358666e-06 0.0000000000000000e+00  -1.8613809011576332e-04 -6.4448470803518696e-06 0.0000000000000000e+00  -2.1823186441078654e-04 -6.4371471239718048e-06 0.0000000000000000e+00  -2.5320412830935759e-04 -5.8983744970168105e-06 0.0000000000000000e+00  -2.9048328453663711e-04 -4.6302665800709956e-06 0.0000000000000000e+00  -3.2878897931696498e-04 -2.4699390336006669e-06 0.0000000000000000e+00  -3.6509108376957944e-04 5.7070074586316612e-07 0.0000000000000000e+00  -3.9158880488984862e-04 4.1077266509122388e-06 0.0000000000000000e+00  0.0000000000000000e+00 0.0000000000000000e+00 0.0000000000000000e+00  -1.5930798062884700e-05 -8.4448375773246240e-07 0.0000000000000000e+00  -3.2361506884867729e-05 -1.7049071657241113e-06 0.0000000000000000e+00  -4.9804136444818747e-05 -2.5959666872847790e-06 0.0000000000000000e+00  -6.8778571612298196e-05 -3.5286550875787645e-06 0.0000000000000000e+00  -8.9812981024833227e-05 -4.5075315750393450e-06 0.0000000000000000e+00  -1.1343898152056217e-04 -5.5268309500063807e-06 0.0000000000000000e+00  -1.4017900952351657e-04 -6.5649299875079191e-06 0.0000000000000000e+00  -1.7052258994998412e-04 -7.5766968148646456e-06 0.0000000000000000e+00  -2.0488703091030289e-04 -8.4834419552126982e-06 0.0000000000000000e+00  -2.4355590972097952e-04 -9.1608310527986775e-06 0.0000000000000000e+00  -2.8658376957406818e-04 -9.4267225370783630e-06 0.0000000000000000e+00  -3.3364299107308622e-04 -9.0343893881030402e-06 0.0000000000000000e+00  -3.8375802675830596e-04 -7.6834549603656161e-06 0.0000000000000000e+00  -4.3480478049865985e-04 -5.0727249296683918e-06 0.0000000000000000e+00  -4.8254678486886243e-04 -1.0348131302284285e-06 0.0000000000000000e+00  -5.1900057679588778e-04 4.1962280466016916e-06 0.0000000000000000e+00  0.0000000000000000e+00 0.0000000000000000e+00 0.0000000000000000e+00  -1.8959021383950132e-05 -1.0277844503339284e-06 0.0000000000000000e+00  -3.8537825833367586e-05 -2.0791347679984906e-06 0.0000000000000000e+00  -5.9372516401516932e-05 -3.1766363214788859e-06 0.0000000000000000e+00  -8.2115585069831825e-05 -4.3395881807558980e-06 0.0000000000000000e+00  -1.0744029961681218e-04 -5.5813247716642775e-06 0.0000000000000000e+00  -1.3603921465912632e-04 -6.9050865844524890e-06 0.0000000000000000e+00  -1.6861357239548501e-04 -8.2976775107906969e-06 0.0000000000000000e+00  -2.0584908572259273e-04 -9.7199359546106062e-06 0.0000000000000000e+00  -2.4837172394580266e-04 -1.1092900935624332e-05 0.0000000000000000e+00  -2.9667419731927108e-04 -1.2278725136273964e-05 0.0000000000000000e+00  -3.5099883020581841e-04 -1.3056449762796957e-05 0.0000000000000000e+00  -4.1115337811365913e-04 -1.3095850471615515e-05 0.0000000000000000e+00  -4.7622032025470374e-04 -1.1939553613449797e-05 0.0000000000000000e+00  -5.4409878344047625e-04 -9.0165657940661037e-06 0.0000000000000000e+00  -6.1081921147088526e-04 -3.7288191584266001e-06 0.0000000000000000e+00  -6.6970380057044924e-04 4.3330928461716349e-06 0.0000000000000000e+00  0.0000000000000000e+00 0.0000000000000000e+00 0.0000000000000000e+00  -2.1359295692695833e-05 -1.1869881900799021e-06 0.0000000000000000e+00  -4.3449835033181514e-05 -2.4066235253391762e-06 0.0000000000000000e+00  -6.7024006171970650e-05 -3.6911760939454018e-06 0.0000000000000000e+00  -9.2862679106064697e-05 -5.0709011691840022e-06 0.0000000000000000e+00  -1.2178599423999899e-04 -6.5719813614853570e-06 0.0000000000000000e+00  -1.5465853255380727e-04 -8.2128948612756496e-06 0.0000000000000000e+00  -1.9238535077895354e-04 -9.9981848198965932e-06 0.0000000000000000e+00  -2.3589373818423673e-04 -1.1908072942084491e-05 0.0000000000000000e+00  -2.8609332307164107e-04 -1.3881612243030911e-05 0.0000000000000000e+00  -3.4380425914905271e-04 -1.5790194996544407e-05 0.0000000000000000e+00  -4.0963969020247140e-04 -1.7397654594419738e-05 0.0000000000000000e+00  -4.8382491012296630e-04 -1.8304192074785279e-05 0.0000000000000000e+00  -5.6593320233304736e-04 -1.7876754603953694e-05 0.0000000000000000e+00  -6.5452290148725739e-04 -1.5182954846687706e-05 0.0000000000000000e+00  -7.4668873600116346e-04 -8.9728920267996090e-06 0.0000000000000000e+00  -8.3762998382229652e-04 2.2130272885183873e-06 0.0000000000000000e+00  0.0000000000000000e+00 0.0000000000000000e+00 0.0000000000000000e+00  -2.3021159719611111e-05 -1.3130259077512191e-06 0.0000000000000000e+00  -4.6870564897042416e-05 -2.6685974652791539e-06 0.0000000000000000e+00  -7.2402898364501539e-05 -4.1098146051079319e-06 0.0000000000000000e+00  -1.0051667472174160e-04 -5.6799046786658448e-06 0.0000000000000000e+00  -1.3217385283360039e-04 -7.4214481296603429e-06 0.0000000000000000e+00  -1.6841521425321683e-04 -9.3742305706308800e-06 0.0000000000000000e+00  -2.1036821081534842e-04 -1.1570605023822681e-05 0.0000000000000000e+00  -2.5924207961766697e-04 -1.4026407062180031e-05 0.0000000000000000e+00  -3.1630246705461495e-04 -1.6724009919470350e-05 0.0000000000000000e+00  -3.8281482599381413e-04 -1.9581728191880585e-05 0.0000000000000000e+00  -4.5994335279989410e-04 -2.2400302611926175e-05 0.0000000000000000e+00  -5.4859249000109806e-04 -2.4773299798030790e-05 0.0000000000000000e+00  -6.4918556736479061e-04 -2.5947261966874968e-05 0.0000000000000000e+00  -7.6139677242943542e-04 -2.4628107604299821e-05 0.0000000000000000e+00  -8.8389338479548027e-04 -1.8766075739509983e-05 0.0000000000000000e+00  -1.0141968701679075e-03 -5.4122205088045609e-06 0.0000000000000000e+00  0.0000000000000000e+00 0.0000000000000000e+00 0.0000000000000000e+00  -2.3849740930747540e-05 -1.3960846285370767e-06 0.0000000000000000e+00  -4.8602678633623018e-05 -2.8443964332883045e-06 0.0000000000000000e+00  -7.5193892067888793e-05 -4.3988864295428830e-06 0.0000000000000000e+00  -1.0461986363993598e-04 -6.1164728121089334e-06 0.0000000000000000e+00  -1.3796890702386184e-04 -8.0581727547819963e-06 0.0000000000000000e+00  -1.7645002320689903e-04 -1.0289500586313238e-05 0.0000000000000000e+00  -2.2141770857273576e-04 -1.2879269914690174e-05 0.0000000000000000e+00  -2.7438809319371943e-04 -1.5895000679053486e-05 0.0000000000000000e+00  -3.3703870456161571e-04 -1.9391230540078206e-05 0.0000000000000000e+00  -4.1118034999287038e-04 -2.3383263862329494e-05 0.0000000000000000e+00  -4.9868641493159064e-04 -2.7791791548909695e-05 0.0000000000000000e+00  -6.0136622340082452e-04 -3.2331687857280188e-05 0.0000000000000000e+00  -7.2078388952165990e-04 -3.6301668338759393e-05 0.0000000000000000e+00  -8.5806711546839462e-04 -3.8221010511186138e-05 0.0000000000000000e+00  -1.0138320531197864e-03 -3.5287946179074092e-05 0.0000000000000000e+00  -1.1884340747418164e-03 -2.2736346200922887e-05 0.0000000000000000e+00  0.0000000000000000e+00 0.0000000000000000e+00 0.0000000000000000e+00  -2.3773118495332034e-05 -1.4266402383173029e-06 0.0000000000000000e+00  -4.8493731279249474e-05 -2.9136333758814606e-06 0.0000000000000000e+00  -7.5146289002143873e-05 -4.5242888754962406e-06 0.0000000000000000e+00  -1.0479461220265887e-04 -6.3280161714913923e-06 0.0000000000000000e+00  -1.3862419016716845e-04 -8.4037374042881821e-06 0.0000000000000000e+00  -1.7798688410843093e-04 -1.0843624501487721e-05 0.0000000000000000e+00  -2.2444713486872132e-04 -1.3756991461964688e-05 0.0000000000000000e+00  -2.7982654445303794e-04 -1.7273572962320376e-05 0.0000000000000000e+00  -3.4623995796005322e-04 -2.1543867312054983e-05 0.0000000000000000e+00  -4.2611060049571007e-04 -2.6730339511110780e-05 0.0000000000000000e+00  -5.2214527706155687e-04 -3.2973958621152440e-05 0.0000000000000000e+00  -6.3724784040496737e-04 -4.0299444237654571e-05 0.0000000000000000e+00  -7.7436487011510783e-04 -4.8379672358008162e-05 0.0000000000000000e+00  -9.3632722977021537e-04 -5.6011059741447876e-05 0.0000000000000000e+00  -1.1259339513448796e-03 -6.0105226321889359e-05 0.0000000000000000e+00  -1.3468869626427605e-03 -5.4117449232231137e-05 0.0000000000000000e+00  0.0000000000000000e+00 0.0000000000000000e+00 0.0000000000000000e+00  -2.2750496668748091e-05 -1.3967782381044647e-06 0.0000000000000000e+00  -4.6453433228549650e-05 -2.8590275057430285e-06 0.0000000000000000e+00  -7.2102174459220245e-05 -4.4562326212953437e-06 0.0000000000000000e+00  -1.0078521757923201e-04 -6.2668033890434894e-06 0.0000000000000000e+00  -1.3373991473117895e-04 -8.3836762326501792e-06 0.0000000000000000e+00  -1.7241370899433113e-04 -1.0921477463286664e-05 0.0000000000000000e+00  -2.1853449865077081e-04 -1.4026094040614177e-05 0.0000000000000000e+00  -2.7418991776708253e-04 -1.7887733817580248e-05 0.0000000000000000e+00  -3.4191131322595236e-04 -2.2758536224279421e-05 0.0000000000000000e+00  -4.2475049242001324e-04 -2.8974438479706819e-05 0.0000000000000000e+00  -5.2632467960807836e-04 -3.6974763033092360e-05 0.0000000000000000e+00  -6.5078997768899815e-04 -4.7291264311124370e-05 0.0000000000000000e+00  -8.0270337166263187e-04 -6.0412681237321000e-05 0.0000000000000000e+00  -9.8681086388835654e-04 -7.6261052187016868e-05 0.0000000000000000e+00  -1.2080969551724078e-03 -9.2721281686813993e-05 0.0000000000000000e+00  -1.4728705410867670e-03 -1.0261407001329431e-04 0.0000000000000000e+00  0.0000000000000000e+00 0.0000000000000000e+00 0.0000000000000000e+00  -2.0780309736274163e-05 -1.3016098383940438e-06 0.0000000000000000e+00  -4.2471139781059090e-05 -2.6695076281068839e-06 0.0000000000000000e+00  -6.6025884445566581e-05 -4.1746320685748284e-06 0.0000000000000000e+00  -9.2503440389834699e-05 -5.8987041819827943e-06 0.0000000000000000e+00  -1.2313082191796454e-04 -7.9413407730257516e-06 0.0000000000000000e+00  -1.5937894885102155e-04 -1.0429708404540286e-05 0.0000000000000000e+00  -2.0305671489994533e-04 -1.3532492428815362e-05 0.0000000000000000e+00  -2.5642801164052357e-04 -1.7481216878503645e-05 0.0000000000000000e+00  -3.2235359577719331e-04 -2.2604280602846889e-05 0.0000000000000000e+00  -4.0445142705639129e-04 -2.9383032141458142e-05 0.0000000000000000e+00  -5.0725005968338822e-04 -3.8544365086584657e-05 0.0000000000000000e+00  -6.3627392293959955e-04 -5.1204014781969980e-05 0.0000000000000000e+00  -7.9795351304681674e-04 -6.9034335394256398e-05 0.0000000000000000e+00  -9.9928184121669491e-04 -9.4203023997993716e-05 0.0000000000000000e+00  -1.2476893004348640e-03 -1.2792250720903829e-04 0.0000000000000000e+00  -1.5533394878407636e-03 -1.6633418909276678e-04 0.0000000000000000e+00  0.0000000000000000e+00 0.0000000000000000e+00 0.0000000000000000e+00  -1.7907071331505010e-05 -1.1405172199385979e-06 0.0000000000000000e+00  -3.6631085186778146e-05 -2.3429921120252674e-06 0.0000000000000000e+00  -5.7030806323338706e-05 -3.6740779925326468e-06 0.0000000000000000e+00  -8.0072131507759708e-05 -5.2115958204150418e-06 0.0000000000000000e+00  -1.0689454248883452e-04 -7.0519994066352342e-06 0.0000000000000000e+00  -1.3889574999513912e-04 -9.3206484983039041e-06 0.0000000000000000e+00  -1.7784367152573293e-04 -1.2186930050154239e-05 0.0000000000000000e+00  -2.2602719179032934e-04 -1.5887994978845217e-05 0.0000000000000000e+00  -2.8645840448811229e-04 -2.0768743481622267e-05 0.0000000000000000e+00  -3.6313534247760655e-04 -2.7354587975571927e-05 0.0000000000000000e+00  -4.6135581877997073e-04 -3.6493875808686164e-05 0.0000000000000000e+00  -5.8801866248896673e-04 -4.9650886762840316e-05 0.0000000000000000e+00  -7.5172180460702565e-04 -6.9511360807678079e-05 0.0000000000000000e+00  -9.6224919756747018e-04 -1.0112626275706740e-04 0.0000000000000000e+00  -1.2291269543030579e-03 -1.5300707343619528e-04 0.0000000000000000e+00  -1.5668361311022053e-03 -2.2260276037460461e-04 0.0000000000000000e+00  0.0000000000000000e+00 0.0000000000000000e+00 0.0000000000000000e+00  -1.4225572206493586e-05 -9.1794971864467717e-07 0.0000000000000000e+00  -2.9122341212548003e-05 -1.8882007224760224e-06 0.0000000000000000e+00  -4.5398447124716566e-05 -2.9671681123717269e-06 0.0000000000000000e+00  -6.3859291519304057e-05 -4.2211978952193434e-06 0.0000000000000000e+00  -8.5470252919228536e-05 -5.7330955036911608e-06 0.0000000000000000e+00  -1.1144014902966023e-04 -7.6108688238518190e-06 0.0000000000000000e+00  -1.4333786660279866e-04 -1.0000001019796146e-05 0.0000000000000000e+00  -1.8326046857476932e-04 -1.3101450965455353e-05 0.0000000000000000e+00  -2.3407931179974273e-04 -1.7199846636216950e-05 0.0000000000000000e+00  -2.9979976220939142e-04 -2.2713081945535695e-05 0.0000000000000000e+00  -3.8607197932102595e-04 -3.0295908256151983e-05 0.0000000000000000e+00  -5.0085646549330985e-04 -4.1097994569243073e-05 0.0000000000000000e+00  -6.5509100192536818e-04 -5.7487559868607205e-05 0.0000000000000000e+00  -8.6267236875923862e-04 -8.5216546049183794e-05 0.0000000000000000e+00  -1.1373129902262607e-03 -1.4065563513987011e-04 0.0000000000000000e+00  -1.4733778877110456e-03 -2.8878568097744594e-04 0.0000000000000000e+00  0.0000000000000000e+00 0.0000000000000000e+00 0.0000000000000000e+00  -9.8810201774452917e-06 -6.4356624677614468e-07 0.0000000000000000e+00  -2.0240324587470355e-05 -1.3250116596291132e-06 0.0000000000000000e+00  -3.1584087117873802e-05 -2.0852295620817224e-06 0.0000000000000000e+00  -4.4493202020615645e-05 -2.9724417192622468e-06 0.0000000000000000e+00  -5.9673026936915720e-05 -4.0468283034048045e-06 0.0000000000000000e+00  -7.8021986330042926e-05 -5.3863052842368996e-06 0.0000000000000000e+00  -1.0073184610621174e-04 -7.0934945803304464e-06 0.0000000000000000e+00  -1.2944066330238107e-04 -9.3029525248502515e-06 0.0000000000000000e+00  -1.6647367803501408e-04 -1.2185008328717306e-05 0.0000000000000000e+00  -2.1523162760878932e-04 -1.5936085252099079e-05 0.0000000000000000e+00  -2.8082504368832320e-04 -2.0732947121870424e-05 0.0000000000000000e+00  -3.7111005957604577e-04 -2.6616395474865391e-05 0.0000000000000000e+00  -4.9834482062764490e-04 -3.3313728556394512e-05 0.0000000000000000e+00  -6.8164977630592318e-04 -4.0317340860491471e-05 0.0000000000000000e+00  -9.4952565828951589e-04 -4.8501629976252990e-05 0.0000000000000000e+00  -1.3369444588120138e-03 -6.6760334438976585e-05 0.0000000000000000e+00  0.0000000000000000e+00 0.0000000000000000e+00 0.0000000000000000e+00  -5.0640206649668709e-06 -3.3166488479302859e-07 0.0000000000000000e+00  -1.0377200728632027e-05 -6.8322633347380482e-07 0.0000000000000000e+00  -1.6203813500310830e-05 -1.0761650458337194e-06 0.0000000000000000e+00  -2.2849011626647169e-05 -1.5358215325757589e-06 0.0000000000000000e+00  -3.0686666896258673e-05 -2.0937291840088900e-06 0.0000000000000000e+00  -4.0198746690739516e-05 -2.7902608784966315e-06 0.0000000000000000e+00  -5.2034726621426219e-05 -3.6769942573019117e-06 0.0000000000000000e+00  -6.7105830352031751e-05 -4.8163656185199628e-06 0.0000000000000000e+00  -8.6740543493770916e-05 -6.2704840973908699e-06 0.0000000000000000e+00  -1.1294816917543677e-04 -8.0534255476842615e-06 0.0000000000000000e+00  -1.4886492574884747e-04 -9.9674675277328329e-06 0.0000000000000000e+00  -1.9945194263577349e-04 -1.1082463600577344e-05 0.0000000000000000e+00  -2.7223147758445696e-04 -8.1798947660457771e-06 0.0000000000000000e+00  -3.7623124230131311e-04 8.3206997453094254e-06 0.0000000000000000e+00  -5.1173282127762987e-04 6.1136208726903836e-05 0.0000000000000000e+00  -6.4046221253708858e-04 1.7697430578493209e-04 0.0000000000000000e+00  0.0000000000000000e+00 0.0000000000000000e+00 0.0000000000000000e+00  0.0000000000000000e+00 0.0000000000000000e+00 0.0000000000000000e+00  0.0000000000000000e+00 0.0000000000000000e+00 0.0000000000000000e+00  0.0000000000000000e+00 0.0000000000000000e+00 0.0000000000000000e+00  0.0000000000000000e+00 0.0000000000000000e+00 0.0000000000000000e+00  0.0000000000000000e+00 0.0000000000