<?xml version="1.0"?>
<VTKFile type="UnstructuredGrid"  version="0.1"  >
<UnstructuredGrid>
<Piece  NumberOfPoints="289" NumberOfCells="512">
<Points>
<DataArray  type="Float64"  NumberOfComponents="3"  format="ascii">0 0 0  0.0625 0 0  0.125 0 0  0.1875 0 0  0.25 0 0  0.3125 0 0  0.375 0 0  0.4375 0 0  0.5 0 0  0.5625 0 0  0.625 0 0  0.6875 0 0  0.75 0 0  0.8125 0 0  0.875 0 0  0.9375 0 0  1 0 0  0 0.0625 0  0.06245951251891465 0.06247792075714323 0  0.1249185229489365 0.0624554589940662 0  0.1873765955964564 0.06243226463227693 0  0.2498335352927561 0.06240807294097964 0  0.3122895535488113 0.06238275956008135 0  0.3747454987030155 0.06235640901490136 0  0.4372031850671231 0.06232939722652601 0  0.4996658759317641 0.06230248266784497 0  0.5621390190946184 0.06227689032104283 0  0.6246314379336868 0.06225435565148717 0  0.6871574463211891 0.06223707208654013 0  0.7497410663114369 0.06222746076268808 0  0.8124255091830888 0.06222768173996306 0  0.8752967222218653 0.06223893142483235 0  0.9385455635024842 0.06226132702770597 0  1.00263088693037 0.06230138789937571 0  0 0.125 0  0.06241956224967595 0.1249562120095436 0  0.1248380203885517 0.1249116166831606 0  0.1872543946217317 0.1248654668935134 0  0.2496681595265921 0.1248171762658977 0  0.3120795616498456 0.1247664260201236 0  0.374490062413577 0.1247133021041732 0  0.4369029717308777 0.1246584667546364 0  0.4993243680104854 0.1246033587288005 0  0.5617644593253918 0.124550397311399 0  0.6242396621237147 0.1245031317567586 0  0.6867759286969933 0.1244662258319468 0  0.7494143681419468 0.1244451006720092 0  0.8122210959942986 0.1244450166846156 0  0.8753041021314182 0.1244695139774291 0  0.9388375506314508 0.1245189307500965 0  1.003077987514575 0.124591356759381 0  0 0.1875 0  0.06238081498089373 0.187435306606002 0  0.1247597232686771 0.1873693036922302 0  0.1871349785010303 0.1873007598989207 0  0.2495054378898969 0.1872286585969769 0  0.311870992460919 0.1871523481862503 0  0.3742331739232229 0.1870717444972453 0  0.4365960241942916 0.1869875987286497 0  0.4989673407410914 0.1869018345274021 0  0.5613604507771557 0.1868179352422335 0  0.6237967234519842 0.1867413165672402 0  0.6863090922242275 0.1866795336736641 0  0.7489468538283027 0.1866420147088221 0  0.8117816155262888 0.1866387088222727 0  0.8749124718352664 0.1866763270346362 0  0.9384630900869124 0.1867487175492309 0  1.002553051594903 0.1868106253198507 0  0 0.25 0  0.06234413460133621 0.2499157137845463 0  0.1246852902788829 0.2498295144867133 0  0.1870206511195441 0.2497395695622987 0  0.249348056688788 0.2496442802278498 0  0.3116664869287502 0.2495424587917753 0  0.3739767630687265 0.2494335839348595 0  0.436282565499149 0.2493181635298307 0  0.4985918898166504 0.2491982314722783 0  0.5609190751946204 0.2490779896974259 0  0.6232875213214761 0.248964564953759 0  0.6857331029265024 0.2488687567460128 0  0.7483079555184987 0.2488054652825875 0  0.8110834448937646 0.2487931395942324 0  0.8741492558880336 0.2488510058444481 0  0.9376024065396112 0.2489921788454522 0  1.001517623479992 0.2492118009676714 0  0 0.3125 0  0.06231063803047372 0.3123980421425555 0  0.1246169334536197 0.3122934597972034 0  0.1869146675611736 0.3121836899945248 0  0.2492002068178242 0.3120663730725183 0  0.3114709699000732 0.3119395296110768 0  0.373726138197467 0.3118018403935461 0  0.4359677274896748 0.311653080465819 0  0.4982021614050664 0.3114947698671767 0  0.5604424940850897 0.3113311100439615 0  0.6227113846180814 0.311170262215218 0  0.6850447582447726 0.3110259622283262 0  0.7474956775593703 0.3109192999093771 0  0.810137140743179 0.3108801330006575 0  0.8730613266746176 0.3109469741337983 0  0.9363720019441917 0.3111633669774181 0  1.000169262342 0.3115683113162817 0  0 0.375 0  0.06228170365674003 0.374883004973585 0  0.1245574469168185 0.3747625838596735 0  0.1868213075273946 0.37463532712626 0  0.2490677405404588 0.3744979361288339 0  0.3112919433264205 0.3743473600024194 0  0.3734904758711056 0.3741810510896236 0  0.4356622761319769 0.3739974114807103 0  0.4978102538452127 0.3737965359397271 0  0.559943684273935 0.3735813994004297 0  0.6220816224934113 0.3733596828678024 0  0.6842574507616842 0.3731464530135141 0  0.7465243468632566 0.3729678377027624 0  0.8089608149437203 0.3728655243549748 0  0.8716745570699889 0.3729011142892922 0  0.9348027010753069 0.3731578914767009 0  0.9985088601196893 0.3737356142535537 0  0 0.4375 0  0.06225892495547671 0.4373714016251029 0  0.1245101207660215 0.4372385323030789 0  0.1867457638986162 0.4370970654857271 0  0.2489580603092861 0.4369426256535916 0  0.3111394156130936 0.4367708359021212 0  0.3732828456224093 0.436577478711507 0  0.4353827887298663 0.4363588548761691 0  0.4974365644667696 0.4361124807351827 0  0.5594468336475809 0.4358383520746155 0  0.6214255398327256 0.435541134955658 0  0.6833998960129579 0.4352338163105738 0  0.7454209001023476 0.4349435043187409 0  0.8075744117105526 0.4347200103375742 0  0.8699938464385745 0.4346470903157289 0  0.9328725020860075 0.4348540309696074 0  0.9964747047120275 0.4355214447490171 0  0 0.5 0  0.0622440057488697 0.4998640700236607 0  0.1244785310940096 0.4997230587584082 0  0.1866938286410918 0.4995717341888259 0  0.2488797095202436 0.4994045953263239 0  0.3110254245765762 0.4992157796431301 0  0.3731197266460764 0.4989990473327357 0  0.4351512803103397 0.498747919418828 0  0.4971097159755115 0.4984561155217784 0  0.5589878406629145 0.4981185632060592 0  0.6207858495240115 0.4977334761127886 0  0.6825188322054178 0.4973063807701342 0  0.7442293276637862 0.4968575546866057 0  0.8060067632220074 0.4964350053885956 0  0.8680145012685447 0.4961351874976077 0  0.9305222035930446 0.4961311993615014 0  0.9939390000809868 0.4967004886628422 0  0 0.5625 0  0.06223859945091816 0.5623618091563899 0  0.1244662080742866 0.5622178653537391 0  0.1866713716884583 0.5620621579788987 0  0.2488416444027876 0.5618881517949081 0  0.3109631014293645 0.5616885153619547 0  0.3730199119863115 0.5614548554523014 0  0.4349941023782067 0.5611774972626778 0  0.4968658023541332 0.5608454106694147 0  0.5586145846447677 0.5604465116723011 0  0.6202230945792785 0.5599688411748405 0  0.6816851775679227 0.5594036927678149 0  0.7430222366721472 0.5587529035163049 0  0.8043132325195879 0.5580445964046196 0  0.8657438164029393 0.5573645149196534 0  0.9276743720695335 0.5569106423046791 0  0.9907116361351761 0.5570677231305178 0  0 0.625 0  0.06224410246518784 0.6248652762265968 0  0.1244761995340915 0.6247243848788271 0  0.1866836301740197 0.6245707998212594 0  0.2488521886953038 0.624397221020444 0  0.3109652309279991 0.6241951135765801 0  0.3730026533262632 0.6239541562988058 0  0.4349397745748513 0.6236615735662406 0  0.4967462945637877 0.6233013452548815 0  0.5583858512128176 0.6228533577865846 0  0.6198174704986691 0.6222927565811924 0  0.6810018409825559 0.6215903036483894 0  0.741918527167723 0.6207160000938448 0  0.8026055734739183 0.6196519738617052 0  0.8632389740143487 0.6184292280799458 0  0.924266762594979 0.6172161691478207 0  0.9865857037279812 0.6164806201404863 0  0 0.6875 0  0.06226142208230048 0.6873748706265939 0  0.1245105693787755 0.6872435291554526 0  0.1867343614284222 0.6870993317304387 0  0.2489177238008683 0.6869346711523548 0  0.3110423228766244 0.6867403582682809 0  0.3730849436638611 0.6865048141622069 0  0.4350153717276191 0.6862129680002091 0  0.4967936844789028 0.6858447124505178 0  0.558367067845839 0.6853727118382131 0  0.6196669498235473 0.6847593120003257 0  0.6806091154153846 0.6839523945567701 0  0.7411042235255038 0.6828808013201766 0  0.8010971735580467 0.6814535744286063 0  0.860675231414412 0.6795816038222875 0  0.9203045965621488 0.6772887467267282 0  0.9811946659119462 0.6750244126152537 0  0 0.75 0  0.06229075083870333 0.7498906239306457 0  0.1245698974237399 0.7497754450092022 0  0.1868249640373949 0.7496482035348501 0  0.2490412541757718 0.7495015989758662 0  0.3112003481880589 0.7493265907830784 0  0.3732780313813222 0.7491114412074822 0  0.4352413134530727 0.748840333580689 0  0.4970440606878814 0.7484912974277802 0  0.5586206258993565 0.7480329828698706 0  0.6198769245396685 0.747419465405844 0  0.6806793818866845 0.7465815632592732 0  0.740846398581379 0.7454118955004194 0  0.8001616555046104 0.7437394884191215 0  0.85847456919499 0.7412942395071187 0  0.9160750279934602 0.7377228439624604 0  0.9744039548716016 0.7333123305575747 0  0 0.8125 0  0.06233138942942716 0.8124121191920803 0  0.124652873363967 0.8123193300299604 0  0.186953727156816 0.8122163033271799 0  0.2492210994026921 0.8120967382775458 0  0.3114385050422121 0.8119526924637531 0  0.3735836396762713 0.8117736421334274 0  0.4356250270191333 0.811545092169382 0  0.4975166763730142 0.8112464382295386 0  0.5591893367101757 0.8108475583804888 0  0.6205359455970803 0.8103031368564877 0  0.6813874529354836 0.8095425988813503 0  0.7414742807693795 0.8084505751969439 0  0.8003741874280292 0.8068244653993376 0  0.8574891420504372 0.8042713822924806 0  0.9123317355580217 0.7999316300739409 0  0.9671508197722302 0.7915597226334129 0  0 0.875 0  0.06238166405657844 0.8749384614818381 0  0.1247560909481963 0.874873358749362 0  0.1871154061665441 0.8748008048136818 0  0.2494500605028374 0.8747161614572019 0  0.3117476062278024 0.8746135144360218 0  0.3739908622238047 0.8744849309140862 0  0.43615498003228 0.8743193584578522 0  0.4982025118651621 0.8741009489448915 0  0.5600747416488558 0.8738064725889677 0  0.6216757690690379 0.8734013022255477 0  0.6828419862261943 0.8728330950730814 0  0.7432810265969034 0.8720211985453773 0  0.8024452526187548 0.870834806365534 0  0.8592655611629718 0.8690289429704349 0  0.9116155066323025 0.866001114114102 0  0.9554535356594198 0.8597757158974306 0  0 0.9375 0  0.06243897616659794 0.9374683138343977 0  0.1248741345504712 0.9374347528872058 0  0.1873013103570261 0.9373972674438117 0  0.2497154204725675 0.9373533989454543 0  0.3121097818303507 0.9372999930124325 0  0.3744750722035401 0.9372327933474607 0  0.436797633384101
[...]
<PointData  Vectors="f_54"> 
<DataArray  type="Float64"  Name="f_54"  NumberOfComponents="3" format="ascii">0.0000000000000000e+00 0.0000000000000000e+00 0.0000000000000000e+00  0.0000000000000000e+00 0.0000000000000000e+00 0.0000000000000000e+00  0.0000000000000000e+00 0.0000000000000000e+00 0.0000000000000000e+00  0.0000000000000000e+00 0.0000000000000000e+00 0.0000000000000000e+00  0.0000000000000000e+00 0.0000000000000000e+00 0.0000000000000000e+00  0.0000000000000000e+00 0.0000000000000000e+00 0.0000000000000000e+00  0.0000000000000000e+00 0.0000000000000000e+00 0.0000000000000000e+00  0.0000000000000000e+00 0.0000000000000000e+00 0.0000000000000000e+00  0.0000000000000000e+00 0.0000000000000000e+00 0.0000000000000000e+00  0.0000000000000000e+00 0.0000000000000000e+00 0.0000000000000000e+00  0.0000000000000000e+00 0.0000000000000000e+00 0.0000000000000000e+00  0.0000000000000000e+00 0.0000000000000000e+00 0.0000000000000000e+00  0.0000000000000000e+00 0.0000000000000000e+00 0.0000000000000000e+00  0.0000000000000000e+00 0.0000000000000000e+00 0.0000000000000000e+00  0.0000000000000000e+00 0.0000000000000000e+00 0.0000000000000000e+00  0.0000000000000000e+00 0.0000000000000000e+00 0.0000000000000000e+00  0.0000000000000000e+00 0.0000000000000000e+00 0.0000000000000000e+00  0.0000000000000000e+00 0.0000000000000000e+00 0.0000000000000000e+00  -1.3137619481045769e-06 -6.0174870358033071e-08 0.0000000000000000e+00  -2.6874198292640042e-06 -1.2204767351092833e-07 0.0000000000000000e+00  -4.1850489262801438e-06 -1.8731913954717194e-07 0.0000000000000000e+00  -5.8776575226211161e-06 -2.5759789846598557e-07 0.0000000000000000e+00  -7.8472431900456781e-06 -3.3430023291875506e-07 0.0000000000000000e+00  -1.0191618336497213e-05 -4.1846809348342895e-07 0.0000000000000000e+00  -1.3030591876554477e-05 -5.1044974649115020e-07 0.0000000000000000e+00  -1.6514775995063940e-05 -6.0935046702282747e-07 0.0000000000000000e+00  -2.0840116198686216e-05 -7.1208357346059052e-07 0.0000000000000000e+00  -2.6276233764681891e-05 -8.1166119126503072e-07 0.0000000000000000e+00  -3.3230773665070023e-05 -8.9380263452678074e-07 0.0000000000000000e+00  -4.2413993644347346e-05 -9.2905335270774357e-07 0.0000000000000000e+00  -5.5302018468734944e-05 -8.5066560819801707e-07 0.0000000000000000e+00  -7.5560061113574218e-05 -4.8104807747477409e-07 0.0000000000000000e+00  -1.1382572808649672e-04 7.4642220076766694e-07 0.0000000000000000e+00  -2.0552278313341622e-04 4.9593194096138292e-06 0.0000000000000000e+00  0.0000000000000000e+00 0.0000000000000000e+00 0.0000000000000000e+00  -2.5649680191029820e-06 -1.1853031483190103e-07 0.0000000000000000e+00  -5.2461818880890454e-06 -2.4048667569810196e-07 0.0000000000000000e+00  -8.1678901577041579e-06 -3.6931697351601677e-07 0.0000000000000000e+00  -1.1467731754293053e-05 -5.0833134591594644e-07 0.0000000000000000e+00  -1.5304508020594313e-05 -6.6053876537915321e-07 0.0000000000000000e+00  -1.9867267011520676e-05 -8.2834115757740191e-07 0.0000000000000000e+00  -2.5386481530278488e-05 -1.0129913999007333e-06 0.0000000000000000e+00  -3.2148786010484453e-05 -1.2136697739428642e-06 0.0000000000000000e+00  -4.0518471593801534e-05 -1.4259494823002189e-06 0.0000000000000000e+00  -5.0973210785992930e-05 -1.6392852039197794e-06 0.0000000000000000e+00  -6.4171620525442383e-05 -1.8329493332084088e-06 0.0000000000000000e+00  -8.1092843223116090e-05 -1.9696670211949502e-06 0.0000000000000000e+00  -1.0333132497224363e-04 -1.9872236477215070e-06 0.0000000000000000e+00  -1.3367041539780514e-04 -1.7983961561439829e-06 0.0000000000000000e+00  -1.7680963553437347e-04 -1.3760514466402856e-06 0.0000000000000000e+00  -2.3757406117362904e-04 -1.4023247573236608e-06 0.0000000000000000e+00  0.0000000000000000e+00 0.0000000000000000e+00 0.0000000000000000e+00  -3.6964875002613872e-06 -1.7330040701473969e-07 0.0000000000000000e+00  -7.5589592408796788e-06 -3.5180188224990983e-07 0.0000000000000000e+00  -1.1764585696329128e-05 -5.4077371429959197e-07 0.0000000000000000e+00  -1.6509565506562246e-05 -7.4538210181495429e-07 0.0000000000000000e+00  -2.2020092959795568e-05 -9.7052627582172486e-07 0.0000000000000000e+00  -2.8564955039540127e-05 -1.2205037259130444e-06 0.0000000000000000e+00  -3.6470357194189423e-05 -1.4983930650556781e-06 0.0000000000000000e+00  -4.6137682426668691e-05 -1.8049872522097897e-06 0.0000000000000000e+00  -5.8065145237459158e-05 -2.1370357384934770e-06 0.0000000000000000e+00  -7.2874756170955530e-05 -2.4844813204348554e-06 0.0000000000000000e+00  -9.1346127214474038e-05 -2.8263888082592694e-06 0.0000000000000000e+00  -1.1445486156911580e-04 -3.1256187683701755e-06 0.0000000000000000e+00  -1.4338982352115855e-04 -3.3236537944044514e-06 0.0000000000000000e+00  -1.7942262289658535e-04 -3.3400780463640524e-06 0.0000000000000000e+00  -2.2314735155573001e-04 -3.0793000637608662e-06 0.0000000000000000e+00  -2.7164516902041083e-04 -2.3575081216559089e-06 0.0000000000000000e+00  0.0000000000000000e+00 0.0000000000000000e+00 0.0000000000000000e+00  -4.6580374374484602e-06 -2.2267993474388549e-07 0.0000000000000000e+00  -9.5224976634736206e-06 -4.5236300228528191e-07 0.0000000000000000e+00  -1.4813309848714823e-05 -6.9619733148062784e-07 0.0000000000000000e+00  -2.0773985264863415e-05 -9.6135808874680102e-07 0.0000000000000000e+00  -2.7685222700271723e-05 -1.2549574506122482e-06 0.0000000000000000e+00  -3.5880464156291089e-05 -1.5837923569792548e-06 0.0000000000000000e+00  -4.5763796343035841e-05 -1.9538192488746536e-06 0.0000000000000000e+00  -5.7830083242200093e-05 -2.3691834335397680e-06 0.0000000000000000e+00  -7.2686027066929171e-05 -2.8305435938001788e-06 0.0000000000000000e+00  -9.1068128023014312e-05 -3.3323335567881167e-06 0.0000000000000000e+00  -1.1384714954501352e-04 -3.8585646598692019e-06 0.0000000000000000e+00  -1.4199348348358141e-04 -4.3770093241365994e-06 0.0000000000000000e+00  -1.7644133492721300e-04 -4.8326407778988969e-06 0.0000000000000000e+00  -2.1770667670470640e-04 -5.1440799591940428e-06 0.0000000000000000e+00  -2.6495621884930549e-04 -5.2138985255727626e-06 0.0000000000000000e+00  -3.1407977903637077e-04 -4.9894826672636248e-06 0.0000000000000000e+00  0.0000000000000000e+00 0.0000000000000000e+00 0.0000000000000000e+00  -5.4089807941451465e-06 -2.6484835130631458e-07 0.0000000000000000e+00  -1.1053351652376135e-05 -5.3846555660973773e-07 0.0000000000000000e+00  -1.7183287000150660e-05 -8.2986652929497829e-07 0.0000000000000000e+00  -2.4075742325125027e-05 -1.1483118814322383e-06 0.0000000000000000e+00  -3.2050103066337833e-05 -1.5033623813969822e-06 0.0000000000000000e+00  -4.1486352187776144e-05 -1.9048183598669399e-06 0.0000000000000000e+00  -5.2846294378323274e-05 -2.3624556985785793e-06 0.0000000000000000e+00  -6.6697655701350843e-05 -2.8854046690691321e-06 0.0000000000000000e+00  -8.3739141224712919e-05 -3.4809014577529836e-06 0.0000000000000000e+00  -1.0482069039155700e-04 -4.1519443953959771e-06 0.0000000000000000e+00  -1.3094516676776690e-04 -4.8930816321432579e-06 0.0000000000000000e+00  -1.6322196078687342e-04 -5.6831764379571862e-06 0.0000000000000000e+00  -2.0271424623870024e-04 -6.4737766861588399e-06 0.0000000000000000e+00  -2.5007658577325418e-04 -7.1723759712671367e-06 0.0000000000000000e+00  -3.0483474537516510e-04 -7.6228233922119262e-06 0.0000000000000000e+00  -3.6420630909948120e-04 -7.5909549921257717e-06 0.0000000000000000e+00  0.0000000000000000e+00 0.0000000000000000e+00 0.0000000000000000e+00  -5.9205567793226634e-06 -2.9803649218675924e-07 0.0000000000000000e+00  -1.2092489940631096e-05 -6.0646749962150744e-07 0.0000000000000000e+00  -1.8782043051940198e-05 -9.3604440126879705e-07 0.0000000000000000e+00  -2.6283718560343482e-05 -1.2980423807911217e-06 0.0000000000000000e+00  -3.4937184684952682e-05 -1.7045098813496941e-06 0.0000000000000000e+00  -4.5147567315471984e-05 -2.1684846098433141e-06 0.0000000000000000e+00  -5.7410304179862343e-05 -2.7041384613447684e-06 0.0000000000000000e+00  -7.2341385266755731e-05 -3.3267646096111092e-06 0.0000000000000000e+00  -9.0712609760456369e-05 -4.0524025818713194e-06 0.0000000000000000e+00  -1.1348848702752173e-04 -4.8966243697351819e-06 0.0000000000000000e+00  -1.4185492767974803e-04 -5.8714046323624158e-06 0.0000000000000000e+00  -1.7721752732710155e-04 -6.9777879384846235e-06 0.0000000000000000e+00  -2.2112708863302748e-04 -8.1899462767109782e-06 0.0000000000000000e+00  -2.7506519881189350e-04 -9.4233619059046969e-06 0.0000000000000000e+00  -3.4001313335270519e-04 -1.0478023748265631e-05 0.0000000000000000e+00  -4.1578524226189572e-04 -1.0950549563174717e-05 0.0000000000000000e+00  0.0000000000000000e+00 0.0000000000000000e+00 0.0000000000000000e+00  -6.1773828366352124e-06 -3.2063216176999168e-07 0.0000000000000000e+00  -1.2608477504358974e-05 -6.5301359579814000e-07 0.0000000000000000e+00  -1.9560633722047094e-05 -1.0093509184089264e-06 0.0000000000000000e+00  -2.7328759241052854e-05 -1.4026650309618783e-06 0.0000000000000000e+00  -3.6252302850941717e-05 -1.8472495875822492e-06 0.0000000000000000e+00  -4.6736549406512216e-05 -2.3591961554356213e-06 0.0000000000000000e+00  -5.9280410359803336e-05 -2.9570257241353249e-06 0.0000000000000000e+00  -7.4513423220322404e-05 -3.6624708044850077e-06 0.0000000000000000e+00  -9.3244978569341936e-05 -4.5014169695023497e-06 0.0000000000000000e+00  -1.1652820010926808e-04 -5.5048311979555165e-06 0.0000000000000000e+00  -1.4573801480472105e-04 -6.7088902970825790e-06 0.0000000000000000e+00  -1.8265537666502165e-04 -8.1518032117002222e-06 0.0000000000000000e+00  -2.2953466432377022e-04 -9.8607042238070700e-06 0.0000000000000000e+00  -2.8911042144999342e-04 -1.1813894281091498e-05 0.0000000000000000e+00  -3.6449091212585101e-04 -1.3852337272375302e-05 0.0000000000000000e+00  -4.5893835041045536e-04 -1.5507868418143757e-05 0.0000000000000000e+00  0.0000000000000000e+00 0.0000000000000000e+00 0.0000000000000000e+00  -6.1780442191654124e-06 -3.3131055631760943e-07 0.0000000000000000e+00  -1.2598856484648329e-05 -6.7531725932519622e-07 0.0000000000000000e+00  -1.9516275130087767e-05 -1.0452434577823634e-06 0.0000000000000000e+00  -2.7208408828609805e-05 -1.4553749227401098e-06 0.0000000000000000e+00  -3.5993010371717183e-05 -1.9216941829325693e-06 0.0000000000000000e+00  -4.6247662506632371e-05 -2.4626688949171670e-06 0.0000000000000000e+00  -5.8437952167769675e-05 -3.1003145080461255e-06 0.0000000000000000e+00  -7.3158517887485778e-05 -3.8617407574824362e-06 0.0000000000000000e+00  -9.1194333728638252e-05 -4.7815368906483246e-06 0.0000000000000000e+00  -1.1361274731898698e-04 -5.9055301642120024e-06 0.0000000000000000e+00  -1.4189974637263144e-04 -7.2964664937162052e-06 0.0000000000000000e+00  -1.7815393764175044e-04 -9.0412037121338912e-06 0.0000000000000000e+00  -2.2534282648605582e-04 -1.1254597186693023e-05 0.0000000000000000e+00  -2.8760126636430638e-04 -1.4061613039738180e-05 0.0000000000000000e+00  -3.7052376343336345e-04 -1.7509197403639616e-05 0.0000000000000000e+00  -4.8145635996194150e-04 -2.1327220341701967e-05 0.0000000000000000e+00  0.0000000000000000e+00 0.0000000000000000e+00 0.0000000000000000e+00  -5.9345766714555712e-06 -3.2916785400010538e-07 0.0000000000000000e+00  -1.2089272184728814e-05 -6.7145172159175145e-07 0.0000000000000000e+00  -1.8691522472440770e-05 -1.0405203665050565e-06 0.0000000000000000e+00  -2.5987055561766797e-05 -1.4512647407054677e-06 0.0000000000000000e+00  -3.4251592749666450e-05 -1.9205322335825185e-06 0.0000000000000000e+00  -4.3806846183783410e-05 -2.4680511434402242e-06 0.0000000000000000e+00  -5.5044416990173636e-05 -3.1177037059516081e-06 0.0000000000000000e+00  -6.8463989204038613e-05 -3.8994617394353299e-06 0.0000000000000000e+00  -8.4737024411645515e-05 -4.8526391126503040e-06 0.0000000000000000e+00  -1.0481499510890840e-04 -6.0318299544284246e-06 0.0000000000000000e+00  -1.3011281249658050e-04 -7.5182727390020346e-06 0.0000000000000000e+00  -1.6281226110159729e-04 -9.4414733908184561e-06 0.0000000000000000e+00  -2.0633881757600240e-04 -1.2016868564151318e-05 0.0000000000000000e+00  -2.6604477415335221e-04 -1.5594770166837687e-05 0.0000000000000000e+00  -3.5005636715944435e-04 -2.0658936080858969e-05 0.0000000000000000e+00  -4.7023890940752047e-04 -2.7553309001287565e-05 0.0000000000000000e+00  0.0000000000000000e+00 0.0000000000000000e+00 0.0000000000000000e+00  -5.4707042140205526e-06 -3.1383383334935237e-07 0.0000000000000000e+00  -1.1129958321152068e-05 -6.4059541163949212e-07 0.0000000000000000e+00  -1.7169107439762285e-05 -9.9374510099541197e-07 0.0000000000000000e+00  -2.3789604249605354e-05 -1.3880163492671845e-06 0.0000000000000000e+00  -3.1209025457293316e-05 -1.8401567642893454e-06 0.0000000000000000e+00  -3.9669408084125942e-05 -2.3698234458592205e-06 0.0000000000000000e+00  -4.9450793093600012e-05 -3.0007430409815487e-06 0.0000000000000000e+00  -6.0896070001268895e-05 -3.7623712586300027e-06 0.0000000000000000e+00  -7.4459564974632087e-05 -4.6926337371390037e-06 0.0000000000000000e+00  -9.0803951303480886e-05 -5.8432957322760173e-06 0.0000000000000000e+00  -1.1099219978377111e-04 -7.2921126235820029e-06 0.0000000000000000e+00  -1.3685870045125744e-04 -9.1725449368873858e-06 0.0000000000000000e+00  -1.7169698313719396e-04 -1.1746928723766100e-05 0.0000000000000000e+00  -2.2143877197270014e-04 -1.5574263492657499e-05 0.0000000000000000e+00  -2.9637574287231166e-04 -2.1813187669855336e-05 0.0000000000000000e+00  -4.1311866180562275e-04 -3.2392131195641364e-05 0.0000000000000000e+00  0.0000000000000000e+00 0.0000000000000000e+00 0.0000000000000000e+00  -4.8188584895730849e-06 -2.8554406587827065e-07 0.0000000000000000e+00  -9.7895187171670612e-06 -5.8318625572077442e-07 0.0000000000000000e+00  -1.5061998225542465e-05 -9.0550300077551481e-07 0.0000000000000000e+00  -2.0787280861329578e-05 -1.2662973536074512e-06 0.0000000000000000e+00  -2.7116385707277009e-05 -1.6812765740882306e-06 0.0000000000000000e+00  -3.4198323530941594e-05 -2.1688009181402187e-06 0.0000000000000000e+00  -4.2177613552183119e-05 -2.7506894529049955e-06 0.0000000000000000e+00  -5.1194341720057299e-05 -3.4530243259114653e-06 0.0000000000000000e+00  -6.1395441483152950e-05 -4.3068782825791910e-06 0.0000000000000000e+00  -7.2979175497463398e-05 -5.3491662042672857e-06 0.0000000000000000e+00  -8.6324507972594783e-05 -6.6255001871059099e-06 0.0000000000000000e+00  -1.0232096393479655e-04 -8.2040655837265240e-06 0.0000000000000000e+00  -1.2314548453367020e-04 -1.0235893353897313e-05 0.0000000000000000e+00  -1.5396669190214195e-04 -1.3186337485120955e-05 0.0000000000000000e+00  -2.0619617639182559e-04 -1.8623922875467318e-05 0.0000000000000000e+00  -3.0121008404682082e-04 -3.1076555649523631e-05 0.0000000000000000e+00  0.0000000000000000e+00 0.0000000000000000e+00 0.0000000000000000e+00  -4.0162791188928878e-06 -2.4516337138027550e-07 0.0000000000000000e+00  -8.1465423404995425e-06 -5.0096636784149274e-07 0.0000000000000000e+00  -1.2499278447597816e-05 -7.7845555073302491e-07 0.0000000000000000e+00  -1.7175778011579658e-05 -1.0897903244537896e-06 0.0000000000000000e+00  -2.2262521932910751e-05 -1.4488375220480445e-06 0.0000000000000000e+00  -2.7818302222334940e-05 -1.8717805102924901e-06 0.0000000000000000e+00  -3.3853272882346185e-05 -2.3776252727530060e-06 0.0000000000000000e+00  -4.0296865496702290e-05 -2.9882418952409831e-06 0.0000000000000000e+00  -4.6953065946949462e-05 -3.7269842448522279e-06 0.0000000000000000e+00  -5.3449170994862132e-05 -4.6135900932305570e-06 0.0000000000000000e+00  -5.9209205457817272e-05 -5.6504804523267457e-06 0.0000000000000000e+00  -6.3555333664694314e-05 -6.7924238063387307e-06 0.0000000000000000e+00  -6.6237597235212846e-05 -7.8968123323220400e-06 0.0000000000000000e+00  -6.9228892405155044e-05 -8.7187847824658498e-06 0.0000000000000000e+00  -8.2079043932130948e-05 -9.4605734221948379e-06 0.0000000000000000e+00  -1.3358668596112481e-04 -1.5728690604283747e-05 0.0000000000000000e+00  0.0000000000000000e+00 0.0000000000000000e+00 0.0000000000000000e+00  -3.1008175729015715e-06 -1.9416497186776926e-07 0.0000000000000000e+00  -6.2803519932962268e-06 -3.9693140309763574e-07 0.0000000000000000e+00  -9.6099034383988145e-06 -6.1722987302872124e-07 0.0000000000000000e+00  -1.3148552431391646e-05 -8.6494140018533802e-07 0.0000000000000000e+00  -1.6931173458903031e-05 -1.1514243501752866e-06 0.0000000000000000e+00  -2.0947818300169786e-05 -1.4900926220624058e-06 0.0000000000000000e+00  -2.5108102274932986e-05 -1.8969806397781499e-06 0.0000000000000000e+00  -2.9180276830950224e-05 -2.3910124445710475e-06 0.0000000000000000e+00  -3.2688822145191345e-05 -2.9929943054505203e-06 0.0000000000000000e+00  -3.4747678510265183e-05 -3.7201846940136768e-06 0.0000000000000000e+00  -3.3805488674780023e-05 -4.5668572946409216e-06 0.0000000000000000e+00  -2.7311350732434872e-05 -5.4433999085409435e-06 0.0000000000000000e+00  -1.1466156356464387e-05 -6.0019240259171938e-06 0.0000000000000000e+00  1.8188603017764353e-05 -5.1793802186945991e-06 0.0000000000000000e+00  6.2383878755831301e-05 -5.0856834009076306e-08 0.0000000000000000e+00  9.4262857722775657e-05 1.8456867078108682e-05 0.0000000000000000e+00  0.0000000000000000e+00 0.0000000000000000e+00 0.0000000000000000e+00  -2.1073221327470678e-06 -1.3457650046544639e-07 0.0000000000000000e+00  -4.2628526398307641e-06 -2.7521717643023771e-07 0.0000000000000000e+00  -6.5078386324080769e-06 -4.2822752046865324e-07 0.0000000000000000e+00  -8.8710342499567850e-06 -6.0063799653749280e-07 0.0000000000000000e+00  -1.1356468042566448e-05 -8.0065134539254802e-07 0.0000000000000000e+00  -1.3921876781783261e-05 -1.0382403507300023e-06 0.0000000000000000e+00  -1.6439820167433107e-05 -1.3260425989192281e-06 0.0000000000000000e+00  -1.8626794696996778e-05 -1.6808652361213997e-06 0.0000000000000000e+00  -1.9912930294131041e-05 -2.1264382162296965e-06 0.0000000000000000e+00  -1.9201171970317338e-05 -2.6984347685737054e-06 0.0000000000000000e+00  -1.4423235771947065e-05 -3.4518481086461889e-06 0.0000000000000000e+00  -1.7370927310950530e-06 -4.4613671091344125e-06 0.0000000000000000e+00  2.5834790888429305e-05 -5.7608369719433672e-06 0.0000000000000000e+00  8.0289848077039032e-05 -7.0305461237904236e-06 0.0000000000000000e+00  1.7915876132493222e-04 -6.6489030725996486e-06 0.0000000000000000e+00  3.3515493755159999e-04 1.3407278404553551e-07 0.0000000000000000e+00  0.0000000000000000e+00 0.0000000000000000e+00 0.0000000000000000e+00  -1.0655183995668501e-06 -6.8899740924333066e-08 0.0000000000000000e+00  -2.1536479565629202e-06 -1.4094349770806099e-07 0.0000000000000000e+00  -3.2827985567380549e-06 -2.1940751513999852e-07 0.0000000000000000e+00  -4.4635325962283201e-06 -3.0797406062087751e-07 0.0000000000000000e+00  -5.6907999213116453e-06 -4.1101175742319137e-07 0.0000000000000000e+00  -6.9299620592354720e-06 -5.3402064328235580e-07 0.0000000000000000e+00  -8.0908151452589827e-06 -6.8449615715771362e-07 0.0000000000000000e+00  -8.9782271394370598e-06 -8.7394890881819145e-07 0.0000000000000000e+00  -9.1963659486596077e-06 -1.1233221069517271e-06 0.0000000000000000e+00  -7.9595031292323153e-06 -1.4788295358521660e-06 0.0000000000000000e+00  -3.7158180689268446e-06 -2.0604605296452907e-06 0.0000000000000000e+00  6.5808353190952392e-06 -3.2123340917556777e-06 0.0000000000000000e+00  2.8717717574187776e-05 -5.9526721854219622e-06 0.0000000000000000e+00  7.2460572311416676e-05 -1.3148088520424635e-05 0.0000000000000000e+00  1.4847766292758316e-04 -3.1383844633780967e-05 0.0000000000000000e+00  2.4839829176796161e-04 -6.7879294692144607e-05 0.0000000000000000e+00  0.0000000000000000e+00 0.0000000000000000e+00 0.0000000000000000e+00  0.0000000000000000e+00 0.0000000000000000e+00 0.0000000000000000e+00  0.0000000000000000e+00 0.0000000000000000e+00 0.0000000000000000e+00  0.0000000000000000e+00 0.0000000000000000e+00 0.0000000000000000e+00  0.0000000000000000e+00 0.0000000000000000e+00 0.0000000000000000e+00  0.0000000000000000e+00 0.0000000000000