<?xml version="1.0"?>
<VTKFile type="UnstructuredGrid"  version="0.1"  >
<UnstructuredGrid>
<Piece  NumberOfPoints="289" NumberOfCells="512">
<Points>
<DataArray  type="Float64"  NumberOfComponents="3"  format="ascii">0 0 0  0.0625 0 0  0.125 0 0  0.1875 0 0  0.25 0 0  0.3125 0 0  0.375 0 0  0.4375 0 0  0.5 0 0  0.5625 0 0  0.625 0 0  0.6875 0 0  0.75 0 0  0.8125 0 0  0.875 0 0  0.9375 0 0  1 0 0  0 0.0625 0  0.06257720781816953 0.06249828442088989 0  0.1251568674194176 0.0624965136477145 0  0.1877414619298245 0.06249463198672819 0  0.2503335277835943 0.06249258314574022 0  0.3129356709247923 0.06249031057093522 0  0.3755505725823517 0.06248775864405694 0  0.4381809881743602 0.06248487513684609 0  0.5008297577412314 0.06248161526983444 0  0.5634998846748487 0.06247794723151844 0  0.6261948397748031 0.06247385695850074 0  0.6889195212047311 0.06246934233434578 0  0.7516830973773398 0.0624643582835419 0  0.8145074634717944 0.06245856138427777 0  0.8774535685347326 0.06245023371283947 0  0.9407094448433221 0.06243170297844839 0  1.004914728235958 0.06236867959123878 0  0 0.125 0  0.06265205546291643 0.1249966212664582 0  0.1253089983090499 0.1249931321815992 0  0.1879757841621657 0.1249894211228791 0  0.2506574864337527 0.1249853746756276 0  0.3133593322618072 0.1249808779338556 0  0.376086712185245 0.1249758164748146 0  0.4388451614837502 0.1249700809217001 0  0.5016403267444797 0.1249635752543407 0  0.5644779701433572 0.1249562301893102 0  0.62736415424478 0.124948022934795 0  0.6903059484271413 0.1249390051681954 0  0.7533133987027877 0.1249293489221445 0  0.8164041439196541 0.1249194762696089 0  0.8796121139701462 0.1249106668395844 0  0.9429945738845708 0.12490830884732 0  1.006577274976044 0.1249392656504963 0  0 0.1875 0  0.06272210585865572 0.1874950657449995 0  0.1254514841148973 0.1874899667078571 0  0.1881955225775128 0.1874845355896132 0  0.2509618128363804 0.1874786010398326 0  0.3137582151080605 0.1874719871928518 0  0.37659287548794 0.1874645154751344 0  0.439474177653689 0.1874560101111387 0  0.5024106139648242 0.1874463094195317 0  0.5654105714574128 0.1874352859405334 0  0.6284820494201003 0.1874228798164692 0  0.6916323455268112 0.1874091520571158 0  0.7548676879046463 0.1873943679490511 0  0.8181923265406672 0.1873791218411563 0  0.8816046528461431 0.1873644588142016 0  0.9450816877152173 0.1873514129151413 0  1.008529584923107 0.1873355661154597 0  0 0.25 0  0.06278497364961799 0.2499936723017277 0  0.1255795089646087 0.2499871272958268 0  0.1883933454785811 0.2499801433125298 0  0.2512365458821606 0.249972490988237 0  0.3141196086890948 0.2499639310082803 0  0.3770535126770447 0.249954214274744 0  0.4400496553065742 0.2499430862368847 0  0.5031196327986645 0.2499302981594501 0  0.5662747872132823 0.2499156297375805 0  0.6295254056778521 0.249898929939537 0  0.6928793691915263 0.2498801863914798 0  0.7563398341765084 0.2498596371791102 0  0.8199010101845964 0.2498379378891199 0  0.8835399861509301 0.2498163764347732 0  0.9472009118269088 0.2497970869265483 0  1.010768510976074 0.2497835650015176 0  0 0.3125 0  0.06283837052732544 0.3124924934317684 0  0.1256884350655465 0.3124847207376382 0  0.1885621472131874 0.3124764089847226 0  0.2514719467510009 0.3124672724739742 0  0.3144309498883578 0.3124570075253619 0  0.3774530605985778 0.3124452892004042 0  0.4405529496349606 0.3124317716153197 0  0.5037458183402461 0.312416094732818 0  0.5670468175720118 0.3123979026329031 0  0.6304699168348048 0.3123768817834349 0  0.6940258960345308 0.3123528334590218 0  0.757718935857328 0.3123258028837603 0  0.8215410040491226 0.3122962994504823 0  0.8854630032262598 0.3122656604744233 0  0.9494221131368915 0.3122366585521409 0  1.013307890224683 0.3122146270299254 0  0 0.375 0  0.06288016647801568 0.3749915778752352 0  0.1257739210671253 0.3749828469435516 0  0.1886952134167923 0.3749734887088285 0  0.2516586899811795 0.374963165724038 0  0.3146799990619699 0.3749515123889451 0  0.3777760248651266 0.3749381264740577 0  0.4409649923821939 0.3749225624033634 0  0.5042663460887689 0.3749043284201127 0  0.5677002441147193 0.3748828918379015 0  0.6312864161073176 0.3748577004907143 0  0.6950419990705765 0.3748282357198679 0  0.7589777968759982 0.3747941251607183 0  0.8230922641272786 0.3747553655100938 0  0.8873625923604505 0.3747127387768729 0  0.9517330550000153 0.3746685404278614 0  1.016103007788255 0.374627692616938 0  0 0.4375 0  0.06290847106284463 0.4374909681910272 0  0.1258320836103436 0.4374815939293406 0  0.1887864589152471 0.4374715220807993 0  0.2517881663772601 0.4374603719688043 0  0.3148551805378765 0.4374477236169383 0  0.3780072992537939 0.437433102902074 0  0.4412664752291963 0.4374159654814321 0  0.5046569720151041 0.4373956798321014 0  0.5682051886927443 0.4373715109171831 0  0.6319388934624199 0.4373426087822434 0  0.6958854553633897 0.4373080127722202 0  0.7600684691266634 0.4372666961501961 0  0.8245019770812191 0.4372177055977713 0  0.8891814428602648 0.4371605087927908 0  0.954070992942157 0.4370957690755531 0  1.019087482734343 0.4370269359602694 0  0 0.5 0  0.06292173571887504 0.4999906978698085 0  0.1258597059545428 0.4999810317127037 0  0.1888307495862481 0.4999706221662116 0  0.2518529250673316 0.4999590583342857 0  0.3149461462945083 0.4999458796663662 0  0.378132836976489 0.4999305546903124 0  0.4414385834573651 0.4999124549540299 0  0.504892731591851 0.4998908219445765 0  0.5685288124061888 0.4998647240369236 0  0.6323845774832452 0.4998330000501337 0  0.6965012559280236 0.4997941871032185 0  0.760921386147568 0.4997464371775956 0  0.8256842164804479 0.499687449733041 0  0.8908172471837317 0.4996145122518848 0  0.9563221480080951 0.4995249003986928 0  1.022153313307572 0.4994172413442106 0  0 0.5625 0  0.06291887304335149 0.5624907883139394 0  0.1258544867541684 0.5624812058182675 0  0.188824301170042 0.5624708645274473 0  0.2518472531661737 0.5624593406330505 0  0.3149445766021207 0.5624461531124296 0  0.3781407185714739 0.5624307374503891 0  0.4414643762118054 0.5624124114354502 0  0.5049496623726004 0.5623903282216567 0  0.5686373714148648 0.5623634087193324 0  0.6325762381882996 0.5623302399652798 0  0.6968239269933345 0.5622889171972569 0  0.7614471895428226 0.5622367942963199 0  0.8265200918197827 0.5621700939362735 0  0.8921183062802459 0.5620833359497601 0  0.9583061584116552 0.5619686382644644 0  1.0251117931995 0.5618152870480659 0  0 0.625 0  0.06289938286314514 0.6249912461358937 0  0.1258153084518241 0.6249821313876084 0  0.1887651241962095 0.6249722770502875 0  0.251767852844151 0.6249612669160609 0  0.314845171148795 0.6249486244859302 0  0.3780225708285093 0.6249337844320204 0  0.4413307824876712 0.62491605456558 0  0.5048075575286337 0.6248945620841494 0  0.5684999131133051 0.6248681730407167 0  0.6324669354512323 0.6248353643365864 0  0.6967831698894181 0.6247940079220329 0  0.7615424170608496 0.624740986862791 0  0.8268612162845871 0.6246714835481608 0  0.8928800618725588 0.6245776366511061 0  0.9597579129333148 0.6244460668596191 0  1.027651760488376 0.6242537933785004 0  0 0.6875 0  0.06286346887241269 0.6874920612584963 0  0.1257424911119109 0.6874837889833985 0  0.1886534594420243 0.687474832551622 0  0.2516145338766611 0.6874648052098438 0  0.3146467167968188 0.6874532621367325 0  0.3777751870944205 0.6874396730619325 0  0.4410310312558146 0.6874233860566235 0  0.5044535625029486 0.6874035769551768 0  0.5680934966729494 0.6873791745102262 0  0.6320173601371214 0.6873487419989818 0  0.6963136366927383 0.6873102743886702 0  0.7611012788999473 0.6872608173512631 0  0.8265411618432504 0.6871956793999219 0  0.8928503257785262 0.687106653825822 0  0.9603158955831776 0.6869777244280947 0  1.029296982086568 0.6867742184442658 0  0 0.75 0  0.06281212534013166 0.7499932062112176 0  0.12563798731472 0.7499861229859778 0  0.1884921285039256 0.7499784458384895 0  0.2513908036120001 0.7499698384326203 0  0.3143530546640842 0.749959913551557 0  0.3774020915777362 0.7499482099079168 0  0.4405671582895637 0.7499341626831382 0  0.5038861546144014 0.7499170648855229 0  0.567409432301677 0.7498960152605416 0  0.6312054289022195 0.7498698458512946 0  0.6953692134646996 0.7498370159055365 0  0.7600357171050016 0.7497954392674003 0  0.8254006209232521 0.7497421431462099 0  0.8917537929579078 0.7496723978994295 0  0.9595318854753286 0.7495770050417557 0  1.029389602415627 0.7494329655473444 0  0 0.8125 0  0.0627471724844943 0.8124946368185273 0  0.1255054706758036 0.8124890430232878 0  0.1882867158302049 0.8124829760284383 0  0.251104216771012 0.8124761679468425 0  0.3139737266974331 0.8124683108699499 0  0.3769147028807426 0.8124590396350091 0  0.4399520602194518 0.812447911440607 0  0.5031187190716312 0.812434382383789 0  0.5664594394507202 0.8124177831783059 0  0.6300367767196404 0.8123973025680821 0  0.6939406324855319 0.8123720046072879 0  0.7583041398118332 0.8123409560395652 0  0.823331380449009 0.8123036803030735 0  0.8893492291615306 0.8122615179439917 0  0.9569137057022811 0.8122211615063749 0  1.027033733514694 0.812201406384601 0  0 0.875 0  0.06267122283214316 0.8749962942282202 0  0.1253502776979251 0.8749924282911626 0  0.1880455080734307 0.8749882337997428 0  0.2507663563184289 0.8749835250298661 0  0.3135240821479864 0.8749780891301372 0  0.3763327246184774 0.8749716751695711 0  0.4392104676961142 0.8749639822650457 0  0.5021816685693922 0.8749546482943468 0  0.5652799867773096 0.8749432439140309 0  0.6285533830568185 0.8749292849426497 0  0.6920723924690658 0.874912299452706 0  0.7559443773004053 0.8748920594497355 0  0.8203394767116848 0.8748693590082596 0  0.885542918350844 0.8748489053492527 0  0.9520881604869744 0.8748519243267383 0  1.021306958094011 0.8749830325905821 0  0 0.9375 0  0.06258756952680843 0.9374981080163064 0  0.1251791810681895 0.9374961341293878 0  0.1877791469429257 0.9374939922886288 0  0.2503923617152942 0.9374915877226401 0  0.3130246862759059 0.9374888121276715 0  0.3756834667679072 0.9374855384769262 0  0.4383782789017605 0.93748161
[...]
<PointData  Vectors="f_54"> 
<DataArray  type="Float64"  Name="f_54"  NumberOfComponents="3" format="ascii">0.0000000000000000e+00 0.0000000000000000e+00 0.0000000000000000e+00  0.0000000000000000e+00 0.0000000000000000e+00 0.0000000000000000e+00  0.0000000000000000e+00 0.0000000000000000e+00 0.0000000000000000e+00  0.0000000000000000e+00 0.0000000000000000e+00 0.0000000000000000e+00  0.0000000000000000e+00 0.0000000000000000e+00 0.0000000000000000e+00  0.0000000000000000e+00 0.0000000000000000e+00 0.0000000000000000e+00  0.0000000000000000e+00 0.0000000000000000e+00 0.0000000000000000e+00  0.0000000000000000e+00 0.0000000000000000e+00 0.0000000000000000e+00  0.0000000000000000e+00 0.0000000000000000e+00 0.0000000000000000e+00  0.0000000000000000e+00 0.0000000000000000e+00 0.0000000000000000e+00  0.0000000000000000e+00 0.0000000000000000e+00 0.0000000000000000e+00  0.0000000000000000e+00 0.0000000000000000e+00 0.0000000000000000e+00  0.0000000000000000e+00 0.0000000000000000e+00 0.0000000000000000e+00  0.0000000000000000e+00 0.0000000000000000e+00 0.0000000000000000e+00  0.0000000000000000e+00 0.0000000000000000e+00 0.0000000000000000e+00  0.0000000000000000e+00 0.0000000000000000e+00 0.0000000000000000e+00  0.0000000000000000e+00 0.0000000000000000e+00 0.0000000000000000e+00  0.0000000000000000e+00 0.0000000000000000e+00 0.0000000000000000e+00  9.7538589994524732e-09 -3.4735073528937711e-08 0.0000000000000000e+00  3.8403474906402607e-08 -7.0438846915503091e-08 0.0000000000000000e+00  1.0796503614163684e-07 -1.0810384522568290e-07 0.0000000000000000e+00  2.4707262550808281e-07 -1.4877256081009450e-07 0.0000000000000000e+00  4.9532101765912901e-07 -1.9358598939425478e-07 0.0000000000000000e+00  9.0902806313840439e-07 -2.4387052834956958e-07 0.0000000000000000e+00  1.5693076975749766e-06 -3.0129710820683218e-07 0.0000000000000000e+00  2.5940400670618697e-06 -3.6817589283685784e-07 0.0000000000000000e+00  4.1570123094975021e-06 -4.4801546511100258e-07 0.0000000000000000e+00  6.5218642532721915e-06 -5.4664614428765194e-07 0.0000000000000000e+00  1.0110447042203438e-05 -6.7472135083214562e-07 0.0000000000000000e+00  1.5660182267895861e-05 -8.5414020598592565e-07 0.0000000000000000e+00  2.4634248075655523e-05 -1.1372325076575707e-06 0.0000000000000000e+00  4.0415582232556132e-05 -1.6720417105418306e-06 0.0000000000000000e+00  7.2167490002773195e-05 -2.9496927950551327e-06 0.0000000000000000e+00  1.4909046192993763e-04 -6.8674122910861503e-06 0.0000000000000000e+00  0.0000000000000000e+00 0.0000000000000000e+00 0.0000000000000000e+00  6.7827836812592227e-10 -6.8586491920666445e-08 0.0000000000000000e+00  3.6185829642340083e-08 -1.3909976731877603e-07 0.0000000000000000e+00  1.4725521100076117e-07 -2.1350704006612164e-07 0.0000000000000000e+00  3.8715098800461766e-07 -2.9385845466746817e-07 0.0000000000000000e+00  8.2988119297080569e-07 -3.8236699827839714e-07 0.0000000000000000e+00  1.5810093486265928e-06 -4.8155149378487765e-07 0.0000000000000000e+00  2.7925059912364507e-06 -5.9449711427399694e-07 0.0000000000000000e+00  4.6839000239095566e-06 -7.2532640203854817e-07 0.0000000000000000e+00  7.5737458797571086e-06 -8.8003743975613118e-07 0.0000000000000000e+00  1.1929329601403850e-05 -1.0679685239177020e-06 0.0000000000000000e+00  1.8451292531671138e-05 -1.3042879875443060e-06 0.0000000000000000e+00  2.8228627952175509e-05 -1.6138939875247767e-06 0.0000000000000000e+00  4.3033889074776480e-05 -2.0355201483965424e-06 0.0000000000000000e+00  6.5857083716955301e-05 -2.6132588260323443e-06 0.0000000000000000e+00  1.0157010054113961e-04 -3.2949155944912516e-06 0.0000000000000000e+00  1.5565259235074362e-04 -3.2829158469065548e-06 0.0000000000000000e+00  0.0000000000000000e+00 0.0000000000000000e+00 0.0000000000000000e+00  -4.3113091653651847e-08 -1.0059307589671232e-07 0.0000000000000000e+00  -4.1215927904434077e-08 -2.0404659966324649e-07 0.0000000000000000e+00  5.8693317421538188e-08 -3.1326550830414752e-07 0.0000000000000000e+00  3.2661912891801829e-07 -4.3124116039339748e-07 0.0000000000000000e+00  8.6072038571375053e-07 -5.6113262642035894e-07 0.0000000000000000e+00  1.8018979393982803e-06 -7.0641366557760716e-07 0.0000000000000000e+00  3.3534211505711482e-06 -8.7114561206866947e-07 0.0000000000000000e+00  5.8076285798518455e-06 -1.0604749335180848e-06 0.0000000000000000e+00  9.5823209946613772e-06 -1.2815017322359396e-06 0.0000000000000000e+00  1.5270093384612795e-05 -1.5446982068050331e-06 0.0000000000000000e+00  2.3703733436988250e-05 -1.8659913047642359e-06 0.0000000000000000e+00  3.6036222157550174e-05 -2.2692310572599562e-06 0.0000000000000000e+00  5.3810321605647022e-05 -2.7875805413656750e-06 0.0000000000000000e+00  7.8901230792691702e-05 -3.4605438502978479e-06 0.0000000000000000e+00  1.1291798399004520e-04 -4.3310259087636909e-06 0.0000000000000000e+00  1.5490508167474503e-04 -5.5519703873972523e-06 0.0000000000000000e+00  0.0000000000000000e+00 0.0000000000000000e+00 0.0000000000000000e+00  -1.3173416896687411e-07 -1.2981857182240627e-07 0.0000000000000000e+00  -2.1613878436875284e-07 -2.6340499681295094e-07 0.0000000000000000e+00  -1.9678332698814412e-07 -4.0456342346622037e-07 0.0000000000000000e+00  2.2184149530368566e-09 -5.5715831961926021e-07 0.0000000000000000e+00  4.8909336515053297e-07 -7.2516386757675317e-07 0.0000000000000000e+00  1.4213194203371578e-06 -9.1275607956584797e-07 0.0000000000000000e+00  3.0282169903639570e-06 -1.1245014250139462e-06 0.0000000000000000e+00  5.6408881226129685e-06 -1.3657382161405997e-06 0.0000000000000000e+00  9.7306159264854922e-06 -1.6433018086400257e-06 0.0000000000000000e+00  1.5954752678639139e-05 -1.9667874426054320e-06 0.0000000000000000e+00  2.5203209763394543e-05 -2.3504957540271731e-06 0.0000000000000000e+00  3.8623575667765369e-05 -2.8158750209363107e-06 0.0000000000000000e+00  5.7567109743928036e-05 -3.3933173443385853e-06 0.0000000000000000e+00  8.3321169357542337e-05 -4.1201841189109485e-06 0.0000000000000000e+00  1.1636247185967172e-04 -5.0282673685788089e-06 0.0000000000000000e+00  1.5478190995874732e-04 -6.0976783300823426e-06 0.0000000000000000e+00  0.0000000000000000e+00 0.0000000000000000e+00 0.0000000000000000e+00  -2.6745133261831975e-07 -1.5535405440148987e-07 0.0000000000000000e+00  -4.9425964159427609e-07 -3.1536665876856487e-07 0.0000000000000000e+00  -6.3075547909388738e-07 -4.8471938648862134e-07 0.0000000000000000e+00  -6.0779827141194675e-07 -6.6811329469262250e-07 0.0000000000000000e+00  -3.2355490526503683e-07 -8.7026033103671024e-07 0.0000000000000000e+00  3.7421441164379414e-07 -1.0958670419648507e-06 0.0000000000000000e+00  1.7122511372923888e-06 -1.3496427262950158e-06 0.0000000000000000e+00  4.0241366232210270e-06 -1.6364138142616902e-06 0.0000000000000000e+00  7.7919419615588926e-06 -1.9615135886742746e-06 0.0000000000000000e+00  1.3695553862688171e-05 -2.3317500984610518e-06 0.0000000000000000e+00  2.2661171750857140e-05 -2.7574146553679168e-06 0.0000000000000000e+00  3.5885474933470609e-05 -3.2558685996252536e-06 0.0000000000000000e+00  5.4783397157446782e-05 -3.8569115999625053e-06 0.0000000000000000e+00  8.0763016243681434e-05 -4.6086016478120775e-06 0.0000000000000000e+00  1.1469033687479183e-04 -5.5776991150591181e-06 0.0000000000000000e+00  1.5595752828982337e-04 -6.8281599455776256e-06 0.0000000000000000e+00  0.0000000000000000e+00 0.0000000000000000e+00 0.0000000000000000e+00  -4.4357782556116754e-07 -1.7630912503984498e-07 0.0000000000000000e+00  -8.6217629406758122e-07 -3.5816437263058898e-07 0.0000000000000000e+00  -1.2231711973259408e-06 -5.5113049268370686e-07 0.0000000000000000e+00  -1.4771762316665536e-06 -7.6076632887530629e-07 0.0000000000000000e+00  -1.5460857701275934e-06 -9.9255136673032283e-07 0.0000000000000000e+00  -1.3063186860685192e-06 -1.2517277930593704e-06 0.0000000000000000e+00  -5.6488618928401562e-07 -1.5430438290560085e-06 0.0000000000000000e+00  9.7455818565194791e-07 -1.8704278690401740e-06 0.0000000000000000e+00  3.7585958203067242e-06 -2.2367361201358860e-06 0.0000000000000000e+00  8.4455747673055338e-06 -2.6439680000412124e-06 0.0000000000000000e+00  1.5979432917152072e-05 -3.0948376916417418e-06 0.0000000000000000e+00  2.7663760898763477e-05 -3.5974326823423155e-06 0.0000000000000000e+00  4.5205729877011035e-05 -4.1758296311896044e-06 0.0000000000000000e+00  7.0672753682856661e-05 -4.8903073303320612e-06 0.0000000000000000e+00  1.0628215566945577e-04 -5.8689657624590802e-06 0.0000000000000000e+00  1.5396105310896182e-04 -7.3433706065900340e-06 0.0000000000000000e+00  0.0000000000000000e+00 0.0000000000000000e+00 0.0000000000000000e+00  -6.4453442955486226e-07 -1.9179922015139484e-07 0.0000000000000000e+00  -1.2874004800683003e-06 -3.9003264509987473e-07 0.0000000000000000e+00  -1.9219884662571252e-06 -6.0117628740860130e-07 0.0000000000000000e+00  -2.5304666788437255e-06 -8.3173272828951263e-07 0.0000000000000000e+00  -3.0749153189283518e-06 -1.0881192351261590e-06 0.0000000000000000e+00  -3.4837892738063719e-06 -1.3763796920743954e-06 0.0000000000000000e+00  -3.6307954650927421e-06 -1.7016275764458943e-06 0.0000000000000000e+00  -3.3019237901861514e-06 -2.0671264473877607e-06 0.0000000000000000e+00  -2.1445803601941498e-06 -2.4729864709298462e-06 0.0000000000000000e+00  4.0923419300985712e-07 -2.9147297553983993e-06 0.0000000000000000e+00  5.2551878828704034e-06 -3.3827284748273432e-06 0.0000000000000000e+00  1.3772794309724045e-05 -3.8652544706366819e-06 0.0000000000000000e+00  2.8027105251299624e-05 -4.3613300784690201e-06 0.0000000000000000e+00  5.1000207991940965e-05 -4.9152257708983903e-06 0.0000000000000000e+00  8.6805746308186264e-05 -5.6907247613091670e-06 0.0000000000000000e+00  1.4079575511212491e-04 -7.1018461175160453e-06 0.0000000000000000e+00  0.0000000000000000e+00 0.0000000000000000e+00 0.0000000000000000e+00  -8.4719418990577003e-07 -2.0094278949445644e-07 0.0000000000000000e+00  -1.7210265593782464e-06 -4.0918353458995254e-07 0.0000000000000000e+00  -2.6470677984781623e-06 -6.3213122174671907e-07 0.0000000000000000e+00  -3.6478213210902660e-06 -8.7735688595571081e-07 0.0000000000000000e+00  -4.7388980107131779e-06 -1.1525152495952235e-06 0.0000000000000000e+00  -5.9215092089174158e-06 -1.4650146065120642e-06 0.0000000000000000e+00  -7.1682207137122754e-06 -1.8212422953810075e-06 0.0000000000000000e+00  -8.3966556874494877e-06 -2.2250520248142135e-06 0.0000000000000000e+00  -9.4220302363995155e-06 -2.6751207126357835e-06 0.0000000000000000e+00  -9.8732888300215878e-06 -3.1608110672423445e-06 0.0000000000000000e+00  -9.0484831291881048e-06 -3.6567064205233699e-06 0.0000000000000000e+00  -5.6731694826936473e-06 -4.1179715357136913e-06 0.0000000000000000e+00  2.4856111746908232e-06 -4.4842380911866517e-06 0.0000000000000000e+00  1.9197285005164748e-05 -4.7126028992777387e-06 0.0000000000000000e+00  5.0552608049758310e-05 -4.8851357988762569e-06 0.0000000000000000e+00  1.0587698978496747e-04 -5.4723599401363506e-06 0.0000000000000000e+00  0.0000000000000000e+00 0.0000000000000000e+00 0.0000000000000000e+00  -1.0235245237970213e-06 -2.0288646756126474e-07 0.0000000000000000e+00  -2.1031629887408117e-06 -4.1383894143130619e-07 0.0000000000000000e+00  -3.2986170651609202e-06 -6.4115954197087444e-07 0.0000000000000000e+00  -4.6765589110624026e-06 -8.9358025130991119e-07 0.0000000000000000e+00  -6.3135875959159789e-06 -1.1803355878255710e-06 0.0000000000000000e+00  -8.2977295540538455e-06 -1.5109761668181069e-06 0.0000000000000000e+00  -1.0726203003506165e-05 -1.8946535275134768e-06 0.0000000000000000e+00  -1.3694523040046835e-05 -2.3383701228899862e-06 0.0000000000000000e+00  -1.7266850695399456e-05 -2.8432881057633074e-06 0.0000000000000000e+00  -2.1407706298536117e-05 -3.3975934098253451e-06 0.0000000000000000e+00  -2.5837541711255914e-05 -3.9637727463401329e-06 0.0000000000000000e+00  -2.9745270109047709e-05 -4.4583573949120959e-06 0.0000000000000000e+00  -3.1248178424247304e-05 -4.7262773502328800e-06 0.0000000000000000e+00  -2.6444228952626151e-05 -4.5284434437596342e-06 0.0000000000000000e+00  -7.8952151279617108e-06 -3.6087603085117833e-06 0.0000000000000000e+00  3.7502072386645988e-05 -2.0129486591828548e-06 0.0000000000000000e+00  0.0000000000000000e+00 0.0000000000000000e+00 0.0000000000000000e+00  -1.1443777859106585e-06 -1.9687583680388605e-07 0.0000000000000000e+00  -2.3709006561562156e-06 -4.0236293844843790e-07 0.0000000000000000e+00  -3.7700744499131715e-06 -6.2548058693799780e-07 0.0000000000000000e+00  -5.4499162211506317e-06 -8.7606625311805442e-07 0.0000000000000000e+00  -7.5466627820480030e-06 -1.1651364906458227e-06 0.0000000000000000e+00  -1.0237524677488753e-05 -1.5051049578389661e-06 0.0000000000000000e+00  -1.3755261244914337e-05 -1.9096087613213527e-06 0.0000000000000000e+00  -1.8402436608204104e-05 -2.3923697065281532e-06 0.0000000000000000e+00  -2.4558573135346004e-05 -2.9638287085105731e-06 0.0000000000000000e+00  -3.2662812197013421e-05 -3.6228791466783629e-06 0.0000000000000000e+00  -4.3131667178008225e-05 -4.3382865595512275e-06 0.0000000000000000e+00  -5.6124300739971324e-05 -5.0096597152639907e-06 0.0000000000000000e+00  -7.0979227582934566e-05 -5.3919145045063682e-06 0.0000000000000000e+00  -8.5004649695973861e-05 -4.9686450453600525e-06 0.0000000000000000e+00  -9.1150835381611196e-05 -2.8054392883793434e-06 0.0000000000000000e+00  -7.4129926797635769e-05 2.3847917386118775e-06 0.0000000000000000e+00  0.0000000000000000e+00 0.0000000000000000e+00 0.0000000000000000e+00  -1.1840493995017143e-06 -1.8238072027086432e-07 0.0000000000000000e+00  -2.4680940136421339e-06 -3.7352210125786216e-07 0.0000000000000000e+00  -3.9644904985019805e-06 -5.8277647651245828e-07 0.0000000000000000e+00  -5.8121834183260346e-06 -8.2074894070011234e-07 0.0000000000000000e+00  -8.1947160126898886e-06 -1.1000447843482365e-06 0.0000000000000000e+00  -1.1364515848137614e-05 -1.4361322290302275e-06 0.0000000000000000e+00  -1.5676436151041211e-05 -1.8482554837970662e-06 0.0000000000000000e+00  -2.1633792270867317e-05 -2.3600900106120123e-06 0.0000000000000000e+00  -2.9949015003444380e-05 -2.9991716643025027e-06 0.0000000000000000e+00  -4.1615479038476218e-05 -3.7924053378842440e-06 0.0000000000000000e+00  -5.7969020988534173e-05 -4.7505676880661757e-06 0.0000000000000000e+00  -8.0667260410105770e-05 -5.8238873150734641e-06 0.0000000000000000e+00  -1.1138699740517632e-04 -6.7854974807988120e-06 0.0000000000000000e+00  -1.5074982962221152e-04 -6.9474895332275376e-06 0.0000000000000000e+00  -1.9544843324367773e-04 -4.5410463336437176e-06 0.0000000000000000e+00  -2.3196759434214367e-04 4.3542233668918808e-06 0.0000000000000000e+00  0.0000000000000000e+00 0.0000000000000000e+00 0.0000000000000000e+00  -1.1249532549518296e-06 -1.5926547719077083e-07 0.0000000000000000e+00  -2.3556051859020185e-06 -3.2686174795836806e-07 0.0000000000000000e+00  -3.8122945033463069e-06 -5.1184836025538541e-07 0.0000000000000000e+00  -5.6473609591528410e-06 -7.2488269428394773e-07 0.0000000000000000e+00  -8.0681368748471918e-06 -9.7933722135732414e-07 0.0000000000000000e+00  -1.1369985063995177e-05 -1.2928690162852794e-06 0.0000000000000000e+00  -1.5985858152322068e-05 -1.6897063793208138e-06 0.0000000000000000e+00  -2.2562337813200476e-05 -2.2039871769094886e-06 0.0000000000000000e+00  -3.2077360135141162e-05 -2.8844242318250535e-06 0.0000000000000000e+00  -4.6021593893731941e-05 -3.7999188444699877e-06 0.0000000000000000e+00  -6.6670059168011159e-05 -5.0428902770104522e-06 0.0000000000000000e+00  -9.7456390390181116e-05 -6.7166655042245415e-06 0.0000000000000000e+00  -1.4336821654782687e-04 -8.8575434038603783e-06 0.0000000000000000e+00  -2.1091340200417395e-04 -1.1124392359533624e-05 0.0000000000000000e+00  -3.0606306385024066e-04 -1.1729277540265508e-05 0.0000000000000000e+00  -4.2623397494006665e-04 -4.2609761801630419e-06 0.0000000000000000e+00  0.0000000000000000e+00 0.0000000000000000e+00 0.0000000000000000e+00  -9.6154067719154961e-07 -1.2796947246664630e-07 0.0000000000000000e+00  -2.0200950407462921e-06 -2.6312545898238012e-07 0.0000000000000000e+00  -3.2871326653569499e-06 -4.1340948376512107e-07 0.0000000000000000e+00  -4.9060716973599937e-06 -5.8845770944450539e-07 0.0000000000000000e+00  -7.0761511033169160e-06 -8.0090531600425596e-07 0.0000000000000000e+00  -1.0088154681273907e-05 -1.0684087486358111e-06 0.0000000000000000e+00  -1.4380759177392488e-05 -1.4169784302953632e-06 0.0000000000000000e+00  -2.0632644566475127e-05 -1.8867011515123632e-06 0.0000000000000000e+00  -2.9917401260322100e-05 -2.5418597344167978e-06 0.0000000000000000e+00  -4.3970616926439453e-05 -3.4891928146654269e-06 0.0000000000000000e+00  -6.5660106529214694e-05 -4.9110597021356473e-06 0.0000000000000000e+00  -9.9823213641076167e-05 -7.1242760602039754e-06 0.0000000000000000e+00  -1.5473583848802237e-04 -1.0673074425653711e-05 0.0000000000000000e+00  -2.4445484607293335e-04 -1.6403937841771109e-05 0.0000000000000000e+00  -3.9107470401327269e-04 -2.5015313355730981e-05 0.0000000000000000e+00  -6.1781417161648226e-04 -3.2494504372194581e-05 0.0000000000000000e+00  0.0000000000000000e+00 0.0000000000000000e+00 0.0000000000000000e+00  -7.0252745501262535e-07 -8.9640325616306614e-08 0.0000000000000000e+00  -1.4792200145173317e-06 -1.8458567576783155e-07 0.0000000000000000e+00  -2.4158075464555956e-06 -2.9076978873289195e-07 0.0000000000000000e+00  -3.6237628967116881e-06 -4.1555899468401945e-07 0.0000000000000000e+00  -5.2600262224652558e-06 -5.6892087415674046e-07 0.0000000000000000e+00  -7.5572831482314068e-06 -7.6533790644084896e-07 0.0000000000000000e+00  -1.0873229449048753e-05 -1.0271645548393563e-06 0.0000000000000000e+00  -1.5774275100445000e-05 -1.3908297814271897e-06 0.0000000000000000e+00  -2.3183477309377588e-05 -1.9188358344662505e-06 0.0000000000000000e+00  -3.4652974319606901e-05 -2.7240598185108397e-06 0.0000000000000000e+00  -5.2889181583973221e-05 -4.0214577575989839e-06 0.0000000000000000e+00  -8.2818667573423060e-05 -6.2443850508682982e-06 0.0000000000000000e+00  -1.3387658493973061e-04 -1.0324409885724491e-05 0.0000000000000000e+00  -2.2520694437870342e-04 -1.8425361907893598e-05 0.0000000000000000e+00  -3.9801375956109838e-04 -3.6127117615414785e-05 0.0000000000000000e+00  -7.4464573937570947e-04 -8.0557770757750546e-05 0.0000000000000000e+00  0.0000000000000000e+00 0.0000000000000000e+00 0.0000000000000000e+00  -3.7069323230164423e-07 -4.6156784442904500e-08 0.0000000000000000e+00  -7.8147513563154000e-07 -9.5130715758790410e-08 0.0000000000000000e+00  -1.2788294256706166e-06 -1.5009553379305233e-07 0.0000000000000000e+00  -1.9235270778956592e-06 -2.1504407449881713e-07 0.0000000000000000e+00  -2.8017100548217402e-06 -2.9547672974765649e-07 0.0000000000000000e+00  -4.0421187920839293e-06 -3.9955916301823709e-07 0.0000000000000000e+00  -5.8445489368416274e-06 -5.4021257353892387e-07 0.0000000000000000e+00  -8.5291180660379448e-06 -7.3909940692709144e-07 0.0000000000000000e+00  -1.2625477646278634e-05 -1.0346100072998323e-06 0.0000000000000000e+00  -1.9042571529865814e-05 -1.4986905811313468e-06 0.0000000000000000e+00  -2.9411287713757333e-05 -2.2742526032508459e-06 0.0000000000000000e+00  -4.6828225301364126e-05 -3.6633665854279949e-06 0.0000000000000000e+00  -7.7623799946015812e-05 -6.3491670295158217e-06 0.0000000000000000e+00  -1.3606839303624947e-04 -1.1995654463440633e-05 0.0000000000000000e+00  -2.5868192515735944e-04 -2.4989841394707783e-05 0.0000000000000000e+00  -5.5323091594658088e-04 -5.7619315423766735e-05 0.0000000000000000e+00  0.0000000000000000e+00 0.0000000000000000e+00 0.0000000000000000e+00  0.0000000000000000e+00 0.0000000000000000e+00 0.0000000000000000e+00  0.0000000000000000e+00 0.0000000000000000e+00 0.0000000000000000e+00  0.0000000000000000e+00 0.0000000000000000e+00 0.0000000000000000e+00  0.0000000000000000e+00 0.0000000000000000e+00 0.0000000000000000e+00  0.0000000000000000e+00 0.0000000000000000e+00 0.0000000000000000e+00  0.0000000000000000e+00 0.0000000000000000e+00