<?xml version="1.0"?>
<VTKFile type="UnstructuredGrid"  version="0.1"  >
<UnstructuredGrid>
<Piece  NumberOfPoints="289" NumberOfCells="512">
<Points>
<DataArray  type="Float64"  NumberOfComponents="3"  format="ascii">0 0 0  0.0625 0 0  0.125 0 0  0.1875 0 0  0.25 0 0  0.3125 0 0  0.375 0 0  0.4375 0 0  0.5 0 0  0.5625 0 0  0.625 0 0  0.6875 0 0  0.75 0 0  0.8125 0 0  0.875 0 0  0.9375 0 0  1 0 0  0 0.0625 0  0.06252676411914421 0.0624722031953208 0  0.1250553074726967 0.0624439089865585 0  0.1875875588027822 0.06241465447707124 0  0.2501257938232492 0.06238407600731732 0  0.3126728573410558 0.06235197241813878 0  0.375232454806306 0.06231838282041566 0  0.4378095611568621 0.06228367795180913 0  0.5004110354656087 0.06224865561242189 0  0.5630466258538881 0.06221461422329762 0  0.625730788698598 0.06218334769221544 0  0.6884863804604605 0.06215694484107612 0  0.7513530651765071 0.0621371454865078 0  0.8144086163702763 0.06212365464041122 0  0.8778282038573301 0.06210966635075019 0  0.9420638244321882 0.06206853994390531 0  1.008439943310474 0.06190899222154447 0  0 0.125 0  0.06255172661519724 0.1249448759819583 0  0.125106866522918 0.1248887061918744 0  0.1876691227970605 0.1248305088818825 0  0.2502428723528078 0.1247694898118858 0  0.312833597701182 0.1247051659420854 0  0.3754484510595557 0.1246375229929261 0  0.4380970329815783 0.1245672096924228 0  0.5007925233255718 0.1244957578581496 0  0.5635534197590383 0.1244257908631869 0  0.6264063920643304 0.1243611354356072 0  0.6893913044931641 0.124306674660884 0  0.7525705701093054 0.1242676785087677 0  0.8160469189143819 0.1242483121435972 0  0.8799950824049211 0.1242495714786365 0  0.9447026767533699 0.1242705844222936 0  1.010533914347879 0.1243354863557534 0  0 0.1875 0  0.06257329636012486 0.187418579609761 0  0.1251513393192684 0.1873354728774323 0  0.1877392794138548 0.1872490762934659 0  0.2503432096189824 0.1871580377996142 0  0.312970768591788 0.1870614323083686 0  0.3756319228286143 0.1869589976408154 0  0.4383400227297585 0.1868514452429119 0  0.5011132676581568 0.1867408471527704 0  0.5639767799750954 0.186631072146581 0  0.626965584284924 0.1865281878253269 0  0.6901288877717047 0.1864406440199986 0  0.7535359644995494 0.1863788794377328 0  0.8172828434781515 0.1863536854770655 0  0.8814941960926262 0.1863719473484512 0  0.9462994978080804 0.1864258123252259 0  1.01172838094796 0.1864594298347791 0  0 0.25 0  0.06259019022732303 0.2498939659239914 0  0.1251860315496962 0.2497854842006659 0  0.1877936533223185 0.2496721913942366 0  0.2504203065686312 0.2495519987146797 0  0.313075084208458 0.2494233009694987 0  0.3757698531304168 0.249285278369196 0  0.4385204957492516 0.2491383259336638 0  0.5013485746974922 0.2489846411853579 0  0.5642835339141621 0.248828982615856 0  0.6273654886258883 0.2486795635669195 0  0.6906484177501144 0.2485489420065236 0  0.7542028575686422 0.2484545622567291 0  0.8181153321226647 0.2484182305553276 0  0.8824775613209073 0.2484631764949463 0  0.9473513072706371 0.2486066002810314 0  1.01269058261245 0.2488469659412463 0  0 0.3125 0  0.06260154651280567 0.3123718041480317 0  0.1252091343525768 0.3122402706688854 0  0.1878293077099932 0.3121021230161706 0  0.250469798844809 0.3119543235020436 0  0.3131403007430608 0.3117942835219412 0  0.3758534785638467 0.3116201989046797 0  0.4386263271073076 0.3114315722555627 0  0.5014819895573241 0.3112299981382423 0  0.5644521258626439 0.3110202951549979 0  0.6275797971786029 0.3108120551789146 0  0.6909224925346777 0.31062160990145 0  0.7545541455183905 0.3104742239745806 0  0.8185634842014579 0.3104059103259325 0  0.8830438182183974 0.3104635237945353 0  0.9480680289154272 0.3107008094244439 0  1.013648651380644 0.3111675228960505 0  0 0.375 0  0.06260699529426995 0.3748529869431974 0  0.125219876546698 0.3747016385094086 0  0.1878450011203533 0.37454162696008 0  0.2504898507289991 0.3743687524312687 0  0.3131637821425009 0.3741791067445029 0  0.3758790393415551 0.3739693835937335 0  0.4386521603032016 0.3737374245385538 0  0.5015059412712134 0.3734831302234468 0  0.5644721292331871 0.3732099182097762 0  0.6275949477810822 0.3729269628362417 0  0.6909353218316585 0.3726524739922966 0  0.7545750993251115 0.3724181715405873 0  0.8186195571484977 0.3722747068378043 0  0.88319532798192 0.3722967948635839 0  0.9484412748163011 0.3725850765128669 0  1.014496044398043 0.3732597049555224 0  0 0.4375 0  0.06260667844847123 0.4373385078685714 0  0.1252185724872565 0.4371716313577361 0  0.1878412791691368 0.4369939079162476 0  0.2504813158952879 0.4367998086593419 0  0.313146762292827 0.4365837954169174 0  0.375848171007405 0.4363405204030396 0  0.4385999175296538 0.4360652751797275 0  0.5014222401276188 0.4357548640011265 0  0.5643443262214271 0.4354091846118269 0  0.6274089088908783 0.4350339575627665 0  0.6906788776872161 0.4346452429592759 0  0.7542462344173748 0.4342765374777414 0  0.8182431354531751 0.4339890820513103 0  0.8828537883776264 0.4338849246011913 0  0.9483258480780182 0.4341194784212306 0  1.014984928865502 0.4349061158630653 0  0 0.5 0  0.06260121523330191 0.4998294039996743 0  0.1252065563986101 0.499652418000968 0  0.1878203860591195 0.4994624600533591 0  0.2504476458589854 0.4992526118325923 0  0.3130942915876537 0.4990155053637701 0  0.3757679666179246 0.4987433105857244 0  0.4384791104485216 0.4984279236812406 0  0.5012428467842415 0.4980615438473356 0  0.5640822446248043 0.4976379850133548 0  0.6270339370085938 0.4971553480553059 0  0.6901576241118621 0.4966211415264259 0  0.7535515565837131 0.4960616105605029 0  0.8173762500909443 0.4955376955878368 0  0.8818876127354777 0.4951696799055261 0  0.9474784189121864 0.4951686733879175 0  1.014729668293884 0.4958630054806321 0  0 0.5625 0  0.06259161249242941 0.5623266617654156 0  0.1251859986646075 0.5621460992309066 0  0.1877859821750098 0.5619507671850661 0  0.2503945136155877 0.561732466802506 0  0.3130148021544469 0.5614820116018726 0  0.3756505911609335 0.5611889088542767 0  0.43830675793384 0.5608411138699307 0  0.5009906169224756 0.5604249964890115 0  0.563714699754439 0.5599258307476109 0  0.6265025290835277 0.5593294759295439 0  0.6894002079296661 0.5586266491807365 0  0.7524986456464811 0.5578226254042886 0  0.8159734744847593 0.5569576963941959 0  0.8801499334304689 0.5561466673313348 0  0.9455938899604833 0.5556439400448042 0  1.013220222097032 0.5559220970601898 0  0 0.625 0  0.06257912340759861 0.6248310912192604 0  0.1251596082096025 0.6246544420221255 0  0.1877426627387618 0.6244618680625824 0  0.2503291183055286 0.624244217898514 0  0.3129191889944086 0.6239908013228768 0  0.3755122045411684 0.6236887130646114 0  0.4381064044456628 0.6233220294528619 0  0.5006990715479889 0.6228708935399484 0  0.56328773410331 0.6223106130311188 0  0.6258741842021671 0.6216111889274895 0  0.6884752394953384 0.6207384665917756 0  0.7511484698715833 0.6196601147376141 0  0.8140483250943439 0.6183646980034414 0  0.8775356951694087 0.6169132708313327 0  0.9423574812887154 0.6155567413658048 0  1.009881378886421 0.6149241979660492 0  0 0.6875 0  0.06256506673289607 0.6873431830817041 0  0.1251302421179327 0.6871785697267244 0  0.187695299499948 0.6869978289055111 0  0.250259171826227 0.6867914194071442 0  0.3128193358743942 0.6865478152133682 0  0.3753709417423345 0.6862524984209194 0  0.4379055994254487 0.6858865969158595 0  0.5004098114100188 0.6854250039946884 0  0.5628633410716914 0.6848337785855863 0  0.625238734515983 0.6840666422955248 0  0.6875057845623346 0.6830606818024013 0  0.7496513389532227 0.6817327696655259 0  0.8117404415015325 0.6799838997424595 0  0.874075016335398 0.677740177153805 0  0.9375240119576647 0.6751297201548405 0  1.003982326900903 0.6729294716806077 0  0 0.75 0  0.0625506293975646 0.749862971812238 0  0.1251004694864056 0.7497186581548178 0  0.1876482764359392 0.749559206337574 0  0.2501916534023744 0.7493754480267755 0  0.3127261513565047 0.749156014153561 0  0.3752438932446734 0.748886121609622 0  0.4377314126072178 0.7485458233053821 0  0.5001662584311145 0.7481073929816431 0  0.5625117976173657 0.7475313050629844 0  0.6247098150689941 0.7467598921506656 0  0.6866719662077153 0.7457070932351982 0  0.7482772205238627 0.7442416864652404 0  0.8094038052358544 0.7421611567194077 0  0.8700933057147566 0.7391639772175012 0  0.9311373323035979 0.7349260873303268 0  0.9949592585465147 0.7302094212353029 0  0 0.8125 0  0.06253668653248697 0.8123899335651079 0  0.1250721652059147 0.8122737019945214 0  0.1876047518424358 0.8121446157227472 0  0.2501315419686925 0.8119947493587775 0  0.3126474193275354 0.8118140837581143 0  0.3751434646595188 0.8115892933255349 0  0.437604286861816 0.8113019378956271 0  0.50000342695525 0.8109256626130692 0  0.5622953079261505 0.8104217177089434 0  0.6244010429046417 0.8097315244354713 0  0.6861837663707068 0.8087637058536751 0  0.7474084286074013 0.807369737429498 0  0.8076898331450144 0.8052936268503801 0  0.8664942230180415 0.8020578420822347 0  0.9236109265992293 0.796694787233224 0  0.9834397710622927 0.7871613180214795 0  0 0.875 0  0.06252367917445041 0.8749229470537775 0  0.1250462280409182 0.8748414161949138 0  0.187566127086557 0.8747505259793757 0  0.2500808518589677 0.8746444344916134 0  0.3125860354532639 0.8745156601415345 0  0.3750740844365452 0.874354106050118 0  0.4375317633816886 0.8741455851810235 0  0.4999358023626399 0.8738695178951155 0  0.5622445980478988 0.8734952604722871 0  0.6243819247674959 0.8729761539046991 0  0.6862037749169134 0.8722396570036559 0  0.7474288293731343 0.8711699578298633 0  0.8074908017947622 0.8695717176560276 0  0.8652319345953075 0.8670683707180193 0  0.9183281251652271 0.8627357537715785 0  0.9625229702989966 0.8537023831510654 0  0 0.9375 0  0.062511585183642 0.9374603364881066 0  0.1250225099644558 0.937418318056459 0  0.1875318999763949 0.9373713707654652 0  0.2500383252914307 0.9373163964818469 0  0.3125393328917762 0.9372493987761548 0  0.3750306642316322 0.9371649419304668 0  0.4375048644921626 0.93705533095173
[...]
<PointData  Vectors="f_54"> 
<DataArray  type="Float64"  Name="f_54"  NumberOfComponents="3" format="ascii">0.0000000000000000e+00 0.0000000000000000e+00 0.0000000000000000e+00  0.0000000000000000e+00 0.0000000000000000e+00 0.0000000000000000e+00  0.0000000000000000e+00 0.0000000000000000e+00 0.0000000000000000e+00  0.0000000000000000e+00 0.0000000000000000e+00 0.0000000000000000e+00  0.0000000000000000e+00 0.0000000000000000e+00 0.0000000000000000e+00  0.0000000000000000e+00 0.0000000000000000e+00 0.0000000000000000e+00  0.0000000000000000e+00 0.0000000000000000e+00 0.0000000000000000e+00  0.0000000000000000e+00 0.0000000000000000e+00 0.0000000000000000e+00  0.0000000000000000e+00 0.0000000000000000e+00 0.0000000000000000e+00  0.0000000000000000e+00 0.0000000000000000e+00 0.0000000000000000e+00  0.0000000000000000e+00 0.0000000000000000e+00 0.0000000000000000e+00  0.0000000000000000e+00 0.0000000000000000e+00 0.0000000000000000e+00  0.0000000000000000e+00 0.0000000000000000e+00 0.0000000000000000e+00  0.0000000000000000e+00 0.0000000000000000e+00 0.0000000000000000e+00  0.0000000000000000e+00 0.0000000000000000e+00 0.0000000000000000e+00  0.0000000000000000e+00 0.0000000000000000e+00 0.0000000000000000e+00  0.0000000000000000e+00 0.0000000000000000e+00 0.0000000000000000e+00  0.0000000000000000e+00 0.0000000000000000e+00 0.0000000000000000e+00  -4.3788400784935003e-06 -2.6490731656895691e-07 0.0000000000000000e+00  -8.8823003355073699e-06 -5.3184415542001814e-07 0.0000000000000000e+00  -1.3638428343021829e-05 -8.0217438692098461e-07 0.0000000000000000e+00  -1.8774293729374594e-05 -1.0753648587390027e-06 0.0000000000000000e+00  -2.4414541975131153e-05 -1.3477832335999836e-06 0.0000000000000000e+00  -3.0678601552662338e-05 -1.6112006510979628e-06 0.0000000000000000e+00  -3.7676248446788109e-05 -1.8509430157492021e-06 0.0000000000000000e+00  -4.5501646218214611e-05 -2.0436802822239503e-06 0.0000000000000000e+00  -5.4227163681031593e-05 -2.1548640687014775e-06 0.0000000000000000e+00  -6.3901598234737651e-05 -2.1356349581676959e-06 0.0000000000000000e+00  -7.4567116758988945e-05 -1.9179244222671201e-06 0.0000000000000000e+00  -8.6339192924271218e-05 -1.4019525608904294e-06 0.0000000000000000e+00  -9.9693267482150682e-05 -4.1304110407086201e-07 0.0000000000000000e+00  -1.1645792172108781e-04 1.4620350962998028e-06 0.0000000000000000e+00  -1.4342717764517844e-04 5.5258715903812618e-06 0.0000000000000000e+00  -2.0741236650937694e-04 1.6877484061886848e-05 0.0000000000000000e+00  0.0000000000000000e+00 0.0000000000000000e+00 0.0000000000000000e+00  -8.6329671119018224e-06 -5.2776971296533664e-07 0.0000000000000000e+00  -1.7516252695287854e-05 -1.0605177999845698e-06 0.0000000000000000e+00  -2.6907181016379598e-05 -1.6019816532661567e-06 0.0000000000000000e+00  -3.7062261123880092e-05 -2.1523037467986334e-06 0.0000000000000000e+00  -4.8234867037728112e-05 -2.7057025490422178e-06 0.0000000000000000e+00  -6.0670142939382282e-05 -3.2475086390913482e-06 0.0000000000000000e+00  -7.4596273172163060e-05 -3.7504265983325729e-06 0.0000000000000000e+00  -9.0211603964064044e-05 -4.1700040583055282e-06 0.0000000000000000e+00  -1.0766811624383784e-04 -4.4394997482912624e-06 0.0000000000000000e+00  -1.2705425319167550e-04 -4.4646327057263790e-06 0.0000000000000000e+00  -1.4838576115361673e-04 -4.1189749551103944e-06 0.0000000000000000e+00  -1.7162455607507493e-04 -3.2409957725575030e-06 0.0000000000000000e+00  -1.9676139924503647e-04 -1.6357601175388914e-06 0.0000000000000000e+00  -2.2397627745932133e-04 8.9697823542257328e-07 0.0000000000000000e+00  -2.5351784545566065e-04 4.3562541474455638e-06 0.0000000000000000e+00  -2.8219284022532330e-04 7.1859744093984690e-06 0.0000000000000000e+00  0.0000000000000000e+00 0.0000000000000000e+00 0.0000000000000000e+00  -1.2633044441896155e-05 -7.8539201588872854e-07 0.0000000000000000e+00  -2.5643075420402960e-05 -1.5804258870609312e-06 0.0000000000000000e+00  -3.9417865193030940e-05 -2.3931145329718977e-06 0.0000000000000000e+00  -5.4346594051495438e-05 -3.2266040307504781e-06 0.0000000000000000e+00  -7.0817737467016839e-05 -4.0758998950750382e-06 0.0000000000000000e+00  -8.9212722172986368e-05 -4.9235466018945993e-06 0.0000000000000000e+00  -1.0989365788012517e-04 -5.7339598735295854e-06 0.0000000000000000e+00  -1.3318331411952495e-04 -6.4462715242760947e-06 0.0000000000000000e+00  -1.5933544715679911e-04 -6.9659435485182805e-06 0.0000000000000000e+00  -1.8849337426316966e-04 -7.1562659013253558e-06 0.0000000000000000e+00  -2.2063307144350752e-04 -6.8326123700293050e-06 0.0000000000000000e+00  -2.5547893727502513e-04 -5.7660202783946153e-06 0.0000000000000000e+00  -2.9234786889265627e-04 -3.7110402416727960e-06 0.0000000000000000e+00  -3.2976411198880221e-04 -4.9281701018970419e-07 0.0000000000000000e+00  -3.6434355099510777e-04 3.7719856486687610e-06 0.0000000000000000e+00  -3.8766256265815590e-04 8.2675175525731239e-06 0.0000000000000000e+00  0.0000000000000000e+00 0.0000000000000000e+00 0.0000000000000000e+00  -1.6249524895600407e-05 -1.0328844372670412e-06 0.0000000000000000e+00  -3.3002515217586652e-05 -2.0823669250075123e-06 0.0000000000000000e+00  -5.0777260746529408e-05 -3.1633171726126487e-06 0.0000000000000000e+00  -7.0098607953785274e-05 -4.2851472895756467e-06 0.0000000000000000e+00  -9.1497711928408663e-05 -5.4479243525623445e-06 0.0000000000000000e+00  -1.1550631662962161e-04 -6.6369580324004013e-06 0.0000000000000000e+00  -1.4264299002356235e-04 -7.8152731023318078e-06 0.0000000000000000e+00  -1.7338803287990755e-04 -8.9134412041888901e-06 0.0000000000000000e+00  -2.0814269886333791e-04 -9.8165943166434726e-06 0.0000000000000000e+00  -2.4716628393312880e-04 -1.0349442032753462e-05 0.0000000000000000e+00  -2.9047968062695839e-04 -1.0262476976685788e-05 0.0000000000000000e+00  -3.3771118216541164e-04 -9.2275787690602689e-06 0.0000000000000000e+00  -3.8782852486551238e-04 -6.8610697569525735e-06 0.0000000000000000e+00  -4.3863253554161539e-04 -2.8094411987102476e-06 0.0000000000000000e+00  -4.8578622278212753e-04 3.0447455453806780e-06 0.0000000000000000e+00  -5.2121511195640845e-04 1.0196554902348335e-05 0.0000000000000000e+00  0.0000000000000000e+00 0.0000000000000000e+00 0.0000000000000000e+00  -1.9354238180662877e-05 -1.2631133105257123e-06 0.0000000000000000e+00  -3.9335600732758536e-05 -2.5523117229403273e-06 0.0000000000000000e+00  -6.0590376536464600e-05 -3.8922366936939942e-06 0.0000000000000000e+00  -8.3780161804335488e-05 -5.3024296635421620e-06 0.0000000000000000e+00  -1.0958567188897367e-04 -6.7933615746139140e-06 0.0000000000000000e+00  -1.3870437909062873e-04 -8.3604735030275683e-06 0.0000000000000000e+00  -1.7183870789722988e-04 -9.9752271390181808e-06 0.0000000000000000e+00  -2.0967035027866194e-04 -1.1571937535914156e-05 0.0000000000000000e+00  -2.5281461449026121e-04 -1.3029078232281445e-05 0.0000000000000000e+00  -3.0174620115386872e-04 -1.4144193554692672e-05 0.0000000000000000e+00  -3.5668340368735253e-04 -1.4603361115330803e-05 0.0000000000000000e+00  -4.1740929839191528e-04 -1.3950912688242945e-05 0.0000000000000000e+00  -4.8299295073865232e-04 -1.1575310126160292e-05 0.0000000000000000e+00  -5.5135261258513926e-04 -6.7449349197718704e-06 0.0000000000000000e+00  -6.1860735617358192e-04 1.2496827723750245e-06 0.0000000000000000e+00  -6.7831532588289139e-04 1.2781875416900403e-05 0.0000000000000000e+00  0.0000000000000000e+00 0.0000000000000000e+00 0.0000000000000000e+00  -2.1823363929715896e-05 -1.4664976628539996e-06 0.0000000000000000e+00  -4.4390271111791302e-05 -2.9708751588838875e-06 0.0000000000000000e+00  -6.8468065198132980e-05 -4.5503046306483694e-06 0.0000000000000000e+00  -9.4852054832226629e-05 -6.2383881566729652e-06 0.0000000000000000e+00  -1.2437593820785188e-04 -8.0618598795981294e-06 0.0000000000000000e+00  -1.5791619998211046e-04 -1.0035021423047736e-05 0.0000000000000000e+00  -1.9638684322991572e-04 -1.2150482452971332e-05 0.0000000000000000e+00  -2.4071927611710392e-04 -1.4364088505812783e-05 0.0000000000000000e+00  -2.9182021341676254e-04 -1.6570999930235139e-05 0.0000000000000000e+00  -3.5049819488442845e-04 -1.8568932194527623e-05 0.0000000000000000e+00  -4.1734706727907986e-04 -2.0004305060178812e-05 0.0000000000000000e+00  -4.9257316048693543e-04 -2.0299391262994033e-05 0.0000000000000000e+00  -5.7575346929604628e-04 -1.8567415689890831e-05 0.0000000000000000e+00  -6.6551998928270864e-04 -1.3543419060767411e-05 0.0000000000000000e+00  -7.5919745023515469e-04 -3.5931541617739863e-06 0.0000000000000000e+00  -8.5252015893744724e-04 1.3105115099839830e-05 0.0000000000000000e+00  0.0000000000000000e+00 0.0000000000000000e+00 0.0000000000000000e+00  -2.3542037839422208e-05 -1.6312664951395612e-06 0.0000000000000000e+00  -4.7930460464966839e-05 -3.3137378132994066e-06 0.0000000000000000e+00  -7.4040293497648862e-05 -5.0991023612570233e-06 0.0000000000000000e+00  -1.0279083550252053e-04 -7.0382659787910102e-06 0.0000000000000000e+00  -1.3516530604283064e-04 -9.1796569784869490e-06 0.0000000000000000e+00  -1.7222573524992694e-04 -1.1565404910941407e-05 0.0000000000000000e+00  -2.1511950647086099e-04 -1.4223731064404020e-05 0.0000000000000000e+00  -2.6507201059044094e-04 -1.7154703615135609e-05 0.0000000000000000e+00  -3.2335744552845064e-04 -2.0304519550911273e-05 0.0000000000000000e+00  -3.9123746094721649e-04 -2.3520351376397042e-05 0.0000000000000000e+00  -4.6985668585262257e-04 -2.6473529842065955e-05 0.0000000000000000e+00  -5.6008859241537471e-04 -2.8534837332677897e-05 0.0000000000000000e+00  -6.6234038649037505e-04 -2.8587242649943964e-05 0.0000000000000000e+00  -7.7635798029653728e-04 -2.4780308022214363e-05 0.0000000000000000e+00  -9.0112192458307336e-04 -1.4278794149800440e-05 0.0000000000000000e+00  -1.0349823601517904e-03 6.8866434754103702e-06 0.0000000000000000e+00  0.0000000000000000e+00 0.0000000000000000e+00 0.0000000000000000e+00  -2.4410646775386248e-05 -1.7442594126401495e-06 0.0000000000000000e+00  -4.9748843289878986e-05 -3.5532252569192136e-06 0.0000000000000000e+00  -7.6975609876762835e-05 -5.4936385955559888e-06 0.0000000000000000e+00  -1.0711520820090622e-04 -7.6353362148639286e-06 0.0000000000000000e+00  -1.4128627851911905e-04 -1.0052096816680603e-05 0.0000000000000000e+00  -1.8073085475515474e-04 -1.2821120926846627e-05 0.0000000000000000e+00  -2.2683827881255292e-04 -1.6019702071969270e-05 0.0000000000000000e+00  -2.8115857790497772e-04 -1.9716207298279747e-05 0.0000000000000000e+00  -3.4539649384114288e-04 -2.3949656259283187e-05 0.0000000000000000e+00  -4.2137368099314702e-04 -2.8686768398678259e-05 0.0000000000000000e+00  -5.1094508862199934e-04 -3.3735513697091180e-05 0.0000000000000000e+00  -6.1586281659054584e-04 -3.8578336926722682e-05 0.0000000000000000e+00  -7.3761041650605391e-04 -4.2069117780537534e-05 0.0000000000000000e+00  -8.7730135167352584e-04 -4.1934032157767499e-05 0.0000000000000000e+00  -1.0358467906567128e-03 -3.4069337414618349e-05 0.0000000000000000e+00  -1.2146797003808783e-03 -1.1731663476380854e-05 0.0000000000000000e+00  0.0000000000000000e+00 0.0000000000000000e+00 0.0000000000000000e+00  -2.4352601972789856e-05 -1.7922805129207807e-06 0.0000000000000000e+00  -4.9682904338590669e-05 -3.6611111507744642e-06 0.0000000000000000e+00  -7.7006513196626824e-05 -5.6867728245063546e-06 0.0000000000000000e+00  -1.0742204963226762e-04 -7.9571124637221087e-06 0.0000000000000000e+00  -1.4215518095366677e-04 -1.0571593564710376e-05 0.0000000000000000e+00  -1.8260471109765908e-04 -1.3645392148755706e-05 0.0000000000000000e+00  -2.3038919615183458e-04 -1.7312950557808741e-05 0.0000000000000000e+00  -2.8738965510458319e-04 -2.1729282066604074e-05 0.0000000000000000e+00  -3.5577916819041171e-04 -2.7064653448853550e-05 0.0000000000000000e+00  -4.3802335582043996e-04 -3.3482008418767693e-05 0.0000000000000000e+00  -5.3682895185690823e-04 -4.1072156498849262e-05 0.0000000000000000e+00  -6.5501986331411351e-04 -4.9690687665951702e-05 0.0000000000000000e+00  -7.9535757868511405e-04 -5.8581104287848180e-05 0.0000000000000000e+00  -9.6045276298690520e-04 -6.5587156495395941e-05 0.0000000000000000e+00  -1.1531995872113424e-03 -6.5750588510425260e-05 0.0000000000000000e+00  -1.3785916268452833e-03 -4.9295760380059090e-05 0.0000000000000000e+00  0.0000000000000000e+00 0.0000000000000000e+00 0.0000000000000000e+00  -2.3323052182385647e-05 -1.7639003383669193e-06 0.0000000000000000e+00  -4.7633316819547555e-05 -3.6124620829302976e-06 0.0000000000000000e+00  -7.3959354692915434e-05 -5.6356036358078370e-06 0.0000000000000000e+00  -1.0343055163596716e-04 -7.9350584009094757e-06 0.0000000000000000e+00  -1.3733393873403311e-04 -1.0631690014427961e-05 0.0000000000000000e+00  -1.7717876150080588e-04 -1.3874651257663696e-05 0.0000000000000000e+00  -2.2476991715641976e-04 -1.7853202566102828e-05 0.0000000000000000e+00  -2.8228861453436025e-04 -2.2811950809107099e-05 0.0000000000000000e+00  -3.5237271455259395e-04 -2.9069451225542030e-05 0.0000000000000000e+00  -4.3817810160796451e-04 -3.7036606361096095e-05 0.0000000000000000e+00  -5.4338483612589492e-04 -4.7219237680655888e-05 0.0000000000000000e+00  -6.7209349037306726e-04 -6.0151845021206160e-05 0.0000000000000000e+00  -8.2857260596222253e-04 -7.6103719183905001e-05 0.0000000000000000e+00  -1.0169926886209901e-03 -9.4144735181117724e-05 0.0000000000000000e+00  -1.2418580717910976e-03 -1.0983731707596093e-04 0.0000000000000000e+00  -1.5102982887294058e-03 -1.1122547168319624e-04 0.0000000000000000e+00  0.0000000000000000e+00 0.0000000000000000e+00 0.0000000000000000e+00  -2.1317636542195902e-05 -1.6514625514482646e-06 0.0000000000000000e+00  -4.3582835285206423e-05 -3.3900222507837314e-06 0.0000000000000000e+00  -6.7786130815982590e-05 -5.3090423335377165e-06 0.0000000000000000e+00  -9.5031175871859494e-05 -7.5167625696850318e-06 0.0000000000000000e+00  -1.2660198606840247e-04 -1.0146112724577093e-05 0.0000000000000000e+00  -1.6404459560748804e-04 -1.3367980181909468e-05 0.0000000000000000e+00  -2.0926834298984895e-04 -1.7410203965655520e-05 0.0000000000000000e+00  -2.6467075346715385e-04 -2.2585997319358288e-05 0.0000000000000000e+00  -3.3328497172909480e-04 -2.9337955492923945e-05 0.0000000000000000e+00  -4.1893507885409106e-04 -3.8307420305777451e-05 0.0000000000000000e+00  -5.2635399809745269e-04 -5.0441541408804962e-05 0.0000000000000000e+00  -6.6116143893844837e-04 -6.7138160309080999e-05 0.0000000000000000e+00  -8.2952747834963956e-04 -9.0339204645653969e-05 0.0000000000000000e+00  -1.0374287183932448e-03 -1.2206078546730611e-04 0.0000000000000000e+00  -1.2906991521291220e-03 -1.6128442848237703e-04 0.0000000000000000e+00  -1.5999285009334209e-03 -1.9786559869629735e-04 0.0000000000000000e+00  0.0000000000000000e+00 0.0000000000000000e+00 0.0000000000000000e+00  -1.8380023139276496e-05 -1.4529334780341407e-06 0.0000000000000000e+00  -3.7613102485932698e-05 -2.9883403022186469e-06 0.0000000000000000e+00  -5.8594093279711939e-05 -4.6951772581836730e-06 0.0000000000000000e+00  -8.2333851976576757e-05 -6.6783218678057196e-06 0.0000000000000000e+00  -1.1003161243159168e-04 -9.0693462468427927e-06 0.0000000000000000e+00  -1.4316803395606289e-04 -1.2041494245862228e-05 0.0000000000000000e+00  -1.8362928375314979e-04 -1.5831849983247511e-05 0.0000000000000000e+00  -2.3387482932758682e-04 -2.0776057405768140e-05 0.0000000000000000e+00  -2.9716175897173967e-04 -2.7366062309837186e-05 0.0000000000000000e+00  -3.7783005675185089e-04 -3.6352695751629249e-05 0.0000000000000000e+00  -4.8162011963416248e-04 -4.8939878843134910e-05 0.0000000000000000e+00  -6.1589903880563269e-04 -6.7167999702636715e-05 0.0000000000000000e+00  -7.8944351794486194e-04 -9.4663230467277368e-05 0.0000000000000000e+00  -1.0109701311243262e-03 -1.3789994120398430e-04 0.0000000000000000e+00  -1.2854087226866027e-03 -2.0639986714527089e-04 0.0000000000000000e+00  -1.6286555306791145e-03 -2.8243116167965142e-04 0.0000000000000000e+00  0.0000000000000000e+00 0.0000000000000000e+00 0.0000000000000000e+00  -1.4606709051689731e-05 -1.1731887544674086e-06 0.0000000000000000e+00  -2.9916074546603987e-05 -2.4167056346999457e-06 0.0000000000000000e+00  -4.6667675515360953e-05 -3.8066833644993561e-06 0.0000000000000000e+00  -6.5707210049973074e-05 -5.4338141081785769e-06 0.0000000000000000e+00  -8.8055606876867983e-05 -7.4131898251655300e-06 0.0000000000000000e+00  -1.1500235381497207e-04 -9.8978794450553506e-06 0.0000000000000000e+00  -1.4823793757949639e-04 -1.3098633422130547e-05 0.0000000000000000e+00  -1.9004766094506299e-04 -1.7313776518110106e-05 0.0000000000000000e+00  -2.4359923425462313e-04 -2.2977275553992920e-05 0.0000000000000000e+00  -3.1336654131855458e-04 -3.0743611693286172e-05 0.0000000000000000e+00  -4.0572789249913887e-04 -4.1659509702161115e-05 0.0000000000000000e+00  -5.2971021396040947e-04 -5.7567011325695759e-05 0.0000000000000000e+00  -6.9757252443802581e-04 -8.2158595806747033e-05 0.0000000000000000e+00  -9.2398440565510487e-04 -1.2390875244079388e-04 0.0000000000000000e+00  -1.2190109851305973e-03 -2.0513688447021297e-04 0.0000000000000000e+00  -1.5369225811220362e-03 -4.1227482777981433e-04 0.0000000000000000e+00  0.0000000000000000e+00 0.0000000000000000e+00 0.0000000000000000e+00  -1.0147492220480708e-05 -8.2440328794633333e-07 0.0000000000000000e+00  -2.0796453062704800e-05 -1.7001044121968009e-06 0.0000000000000000e+00  -3.2476239888640269e-05 -2.6827298724626415e-06 0.0000000000000000e+00  -4.5798123953532217e-05 -3.8388985633557256e-06 0.0000000000000000e+00  -6.1510550449257937e-05 -5.2535005671582738e-06 0.0000000000000000e+00  -8.0576791700572473e-05 -7.0393571657082197e-06 0.0000000000000000e+00  -1.0429087007914897e-04 -9.3501102730013340e-06 0.0000000000000000e+00  -1.3445856349116197e-04 -1.2396632916717499e-05 0.0000000000000000e+00  -1.7368986546264617e-04 -1.6465206664321912e-05 0.0000000000000000e+00  -2.2588314031181763e-04 -2.1930609333521108e-05 0.0000000000000000e+00  -2.9703523023266878e-04 -2.9249752818487152e-05 0.0000000000000000e+00  -3.9658056932441406e-04 -3.8933304229247332e-05 0.0000000000000000e+00  -5.3948775383562267e-04 -5.1645815324408740e-05 0.0000000000000000e+00  -7.4907822591026502e-04 -6.9300665613513163e-05 0.0000000000000000e+00  -1.0590505050365102e-03 -9.9962406468679396e-05 0.0000000000000000e+00  -1.5079816298691857e-03 -1.7108565028627252e-04 0.0000000000000000e+00  0.0000000000000000e+00 0.0000000000000000e+00 0.0000000000000000e+00  -5.2003201918694853e-06 -4.2539449906209830e-07 0.0000000000000000e+00  -1.0661971182694008e-05 -8.7783670756950689e-07 0.0000000000000000e+00  -1.6661383836994339e-05 -1.3866739901142756e-06 0.0000000000000000e+00  -2.3519859909498869e-05 -1.9871284957447327e-06 0.0000000000000000e+00  -3.1634594646937230e-05 -2.7240879736553941e-06 0.0000000000000000e+00  -4.1523489133707925e-05 -3.6568714754981943e-06 0.0000000000000000e+00  -5.3894448528691587e-05 -4.8647226209917609e-06 0.0000000000000000e+00  -6.9758538011191945e-05 -6.4508729211631536e-06 0.0000000000000000e+00  -9.0623391252928360e-05 -8.5364561489482315e-06 0.0000000000000000e+00  -1.1883579316307368e-04 -1.1213871331868139e-05 0.0000000000000000e+00  -1.5819683176735276e-04 -1.4358854742545355e-05 0.0000000000000000e+00  -2.1501587077051444e-04 -1.6980166868168927e-05 0.0000000000000000e+00  -2.9949752359646325e-04 -1.5171719429647294e-05 0.0000000000000000e+00  -4.2521346405316067e-04 3.3162399394644991e-06 0.0000000000000000e+00  -5.9600701097219403e-04 6.6793174252381346e-05 0.0000000000000000e+00  -7.6570058071093910e-04 1.9869638817229617e-04 0.0000000000000000e+00  0.0000000000000000e+00 0.0000000000000000e+00 0.0000000000000000e+00  0.0000000000000000e+00 0.0000000000000000e+00 0.0000000000000000e+00  0.0000000000000000e+00 0.0000000000000000e+00 0.0000000000000000e+00  0.0000000000000000e+00 0.0000000000000000e+00 0.0000000000000000e+00  0.0000000000000000e+00 0.0000000000000000e+00 0.0000000000000000e+00  0.0000000000000000e+00 0.00000000000000