<?xml version="1.0"?>
<VTKFile type="UnstructuredGrid"  version="0.1"  >
<UnstructuredGrid>
<Piece  NumberOfPoints="289" NumberOfCells="512">
<Points>
<DataArray  type="Float64"  NumberOfComponents="3"  format="ascii">0 0 0  0.0625 0 0  0.125 0 0  0.1875 0 0  0.25 0 0  0.3125 0 0  0.375 0 0  0.4375 0 0  0.5 0 0  0.5625 0 0  0.625 0 0  0.6875 0 0  0.75 0 0  0.8125 0 0  0.875 0 0  0.9375 0 0  1 0 0  0 0.0625 0  0.06258379612333642 0.06249122278280208 0  0.1251703365908622 0.06248224688395922 0  0.1877624265715317 0.06247288164216495 0  0.2503629536077736 0.06246295658334559 0  0.3129749185234237 0.06245233564987686 0  0.375601454107005 0.06244093619237948 0  0.4382458327902108 0.06242875352251481 0  0.500911477834876 0.06241589036791272 0  0.5636020297370264 0.06240258741325068 0  0.6263216218029743 0.06238924441794323 0  0.6890758060124 0.06237640637380912 0  0.7518744138434553 0.06236465006366121 0  0.814740258654833 0.06235418227242116 0  0.8777362368648427 0.06234349452516932 0  0.9410537783668385 0.0623244883284122 0  1.005322105443796 0.06226338258245695 0  0 0.125 0  0.06266492654859226 0.1249826393575346 0  0.1253353193274463 0.1249648712209118 0  0.1880167727663923 0.124946302472346 0  0.2507150637090039 0.1249265768662835 0  0.3134362228586343 0.1249054020120532 0  0.3761865805159105 0.1248825865440522 0  0.4389727823238323 0.1248580899682082 0  0.501801783934272 0.1248320856622846 0  0.564680869775001 0.1248050331050385 0  0.6276178303578324 0.1247777470286847 0  0.6906216350604011 0.1247514378550272 0  0.7537043476160075 0.1247276858411377 0  0.8168856496659146 0.1247083493991213 0  0.8802011250717284 0.1246957577379153 0  0.9437072291752205 0.1246954820534597 0  1.007421614846063 0.1247334151136928 0  0 0.1875 0  0.06274066215237147 0.1874744597163891 0  0.1254894389181766 0.1874482854682939 0  0.188254649128708 0.1874208607097426 0  0.2510449201899133 0.1873916153515915 0  0.3138693145528242 0.1873600621837773 0  0.3767374159191659 0.1873258497175244 0  0.4396593573690269 0.1872888369381433 0  0.5026457727572397 0.1872491940928802 0  0.5657076557882726 0.1872075296722256 0  0.6288561168315354 0.1871650347851336 0  0.6921020123072631 0.1871236181173337 0  0.7554552705348808 0.1870859692948636 0  0.8189230252520219 0.1870554085356045 0  0.8825030886662567 0.1870351230281962 0  0.9461618457819152 0.1870252337770915 0  1.009771509282862 0.1870102776075752 0  0 0.25 0  0.06280835435526233 0.2499669112535353 0  0.1256273345034554 0.249932940455747 0  0.1884678565626226 0.2498972210142356 0  0.2513413048961971 0.2498589314574994 0  0.3142597352431336 0.2498173355563584 0  0.3772360281644491 0.2497718453240496 0  0.4402839606302984 0.2497221166398958 0  0.5034181452939344 0.2496681879945733 0  0.5666537535958095 0.2496106718042364 0  0.6300058701726986 0.2495510023249848 0  0.6934881697859429 0.2494917295500231 0  0.7571102367616186 0.2494368152609435 0  0.8208719926672444 0.2493918180391901 0  0.8847519746384099 0.2493637250870619 0  0.9486838150658018 0.2493600670603483 0  1.012516190492774 0.2493878053092291 0  0 0.3125 0  0.06286549665494964 0.312460242578974 0  0.1257439134968894 0.3124193348204817 0  0.1886485570190666 0.312376133361403 0  0.2515933985546752 0.3123295240764881 0  0.3145933819727929 0.3122784573093915 0  0.3776646858635515 0.3122220112531521 0  0.4408249021762548 0.3121594980249761 0  0.5040930641901726 0.3120906312315296 0  0.5674894032130628 0.3120157783058865 0  0.6310346124527731 0.3119363238639115 0  0.6947482047026327 0.3118551679619058 0  0.7586451989774742 0.3117773683226888 0  0.8227297994198403 0.3117108983164247 0  0.8869840774328129 0.3116674303073693 0  0.9513498968180244 0.3116630149070545 0  1.015706412260164 0.3117186636606806 0  0 0.375 0  0.06290980160712704 0.3749547219777235 0  0.125834504420142 0.3749080135472361 0  0.1887894986222972 0.3748584352834535 0  0.251791068296758 0.3748045439843148 0  0.3148568324772858 0.3747449117161675 0  0.3780061643904692 0.3746781749878214 0  0.4412605597492127 0.3746031325480907 0  0.5046438966558875 0.3745189187796475 0  0.568182478319548 0.3744252914523578 0  0.6319046571776633 0.3743230875869626 0  0.695839677302193 0.3742149173638953 0  0.7600151128066827 0.3741061770046783 0  0.8244519424798067 0.3740064526106645 0  0.8891560951448658 0.373931330581507 0  0.9541059007566822 0.3739044816590962 0  1.019237523368983 0.3739595504176481 0  0 0.4375 0  0.06293929526478934 0.4374506289201217 0  0.1258950482923703 0.4373995520292172 0  0.1888843082103769 0.4373450310559394 0  0.2519252645019307 0.4372852734287893 0  0.3150378424334849 0.4372184222132394 0  0.3782443202497395 0.4371425725355249 0  0.4415699637670737 0.4370558342015901 0  0.5050436587409071 0.4369564724729052 0  0.5686984936917771 0.4368431781695228 0  0.632572195838017 0.4367155469622711 0  0.69670723462046 0.4365748873855183 0  0.761150262543893 0.4364255239948862 0  0.825950361538018 0.4362767969676503 0  0.8911553867220331 0.4361459285157393 0  0.9568058275486478 0.4360617235254409 0  1.022926543800561 0.4360685847363525 0  0 0.5 0  0.06295242719040008 0.4999482376131287 0  0.1259223258757637 0.4998945231133597 0  0.1889278505024025 0.499836842604056 0  0.2519885340261446 0.4997730628854966 0  0.3151260417741552 0.499700879938229 0  0.3783650044710993 0.4996177828313105 0  0.4417339625392672 0.4995210492945679 0  0.5052664613655712 0.4994078031391361 0  0.5690023515348439 0.4992751878827345 0  0.6329893734606331 0.4991207515773821 0  0.6972851453900061 0.4989432029864285 0  0.7619597187783093 0.4987437944488586 0  0.8270988715486631 0.4985286980221025 0  0.8928081707861003 0.4983127857109599 0  0.9592174381351625 0.4981249402361636 0  1.02648491712537 0.4980138229696088 0  0 0.5625 0  0.06294818901639387 0.5624477926746823 0  0.1259142067120909 0.5623934467918354 0  0.1889166328722897 0.5623347301793585 0  0.2519756224849401 0.5622692191065153 0  0.3151137983848206 0.5621941967446147 0  0.3783572831315856 0.5621065482428373 0  0.4417369417476891 0.5620026591825963 0  0.5052899412131127 0.5618783359119249 0  0.5690617990047226 0.5617287894830695 0  0.6331092211445996 0.5615487697991784 0  0.6975042689398351 0.5613330209055084 0  0.7623408010394397 0.5610773791216779 0  0.8277447159686174 0.560781076519787 0  0.8938900258911482 0.5604510858997664 0  0.9610224691938765 0.5601092195595239 0  1.02949047558741 0.5598006351842604 0  0 0.625 0  0.06292622932102397 0.6249494785964196 0  0.125869894169887 0.6248967255777146 0  0.1888492134111204 0.6248393864303138 0  0.2518841013968129 0.6247748468953214 0  0.3149971541242079 0.6247000802394103 0  0.3782148242722438 0.6246114666033138 0  0.4415688882860265 0.6245045759130945 0  0.5050983638225831 0.6243739101766707 0  0.5688521464809234 0.6242126138765828 0  0.6328928644648454 0.6240121942821746 0  0.6973029317807635 0.6237623731785101 0  0.7621947642818923 0.6234513760249244 0  0.8277289697723011 0.6230673714420097 0  0.8941471782400402 0.6226025633599093 0  0.9618286657224353 0.6220623583741585 0  1.031377330692498 0.6214798017049734 0  0 0.6875 0  0.06288694872607103 0.6874533865256541 0  0.1257901319323928 0.6874045727537577 0  0.1887265537806822 0.6873512148211232 0  0.2517149276837227 0.6872906590160356 0  0.3147766889189928 0.6872197471083631 0  0.3779372245800431 0.6871345682556862 0  0.44122743844232 0.687030130468489 0  0.5046858281402459 0.6868999167985815 0  0.5683613733183034 0.6867352836103113 0  0.6323178023490548 0.6865246572501281 0  0.6966404445934282 0.6862525133710965 0  0.7614484429620159 0.6858982519079192 0  0.8269188804969513 0.6854355415012319 0  0.8933377210958908 0.6848342112192043 0  0.961206761162688 0.6840710583106221 0  1.031443342204921 0.683162547589109 0  0 0.75 0  0.06283155785584915 0.7499594836310649 0  0.1256773343218788 0.7499169447237641 0  0.1885522525307776 0.7498702109894978 0  0.2514728325116562 0.749816782196348 0  0.3144581497952046 0.7497536142912063 0  0.3775310137214989 0.749676830530233 0  0.4407194779955534 0.7495813159734181 0  0.504058840835189 0.7494601302454812 0  0.5675943741231061 0.7493036396308387 0  0.631385202790663 0.7490982176334011 0  0.6955102488146828 0.7488242883152741 0  0.7600786787253477 0.7484534044367456 0  0.8252522392779852 0.7479441117767373 0  0.8913026562387054 0.7472374634179095 0  0.9587726129407483 0.7462602649501423 0  1.028881445185803 0.7449829662016092 0  0 0.8125 0  0.06276208282957321 0.8124675913557979 0  0.1255356071152868 0.81243349135192 0  0.1883326017674028 0.8123958712785225 0  0.2511664484491645 0.8123525985112267 0  0.3140527023275018 0.8123010295881814 0  0.3770101098726117 0.812237723796141 0  0.4400619178648081 0.8121580251926086 0  0.5032375882008902 0.812055430060682 0  0.5665750456217915 0.8119206031644342 0  0.6301235716814191 0.8117398115050376 0  0.6939474187435887 0.8114923705569503 0  0.7581303931447334 0.811146359530699 0  0.8227837944655961 0.8106511654577178 0  0.8880740702913287 0.809924085659824 0  0.9543645250844991 0.8088280586084917 0  1.022992235234534 0.8071756911236997 0  0 0.875 0  0.06268130821825338 0.874977378641583 0  0.1253706367482675 0.8749535380913194 0  0.1880764292961545 0.8749271536626559 0  0.250808115822917 0.8748966655836508 0  0.3135767171591685 0.8748601151083676 0  0.3763956020222082 0.8748149123268297 0  0.4392814670791062 0.8747574882800143 0  0.5022556158500702 0.8746827528877845 0  0.5653455795823693 0.8745832242010699 0  0.6285869577360135 0.8744475917575786 0  0.6920247780642985 0.8742582797335281 0  0.755711904735024 0.8739871571631571 0  0.81969709686292 0.8735874617548092 0  0.8839840976124159 0.8729763814649245 0  0.948437523193554 0.8719875276990742 0  1.012836970408364 0.8701904178132004 0  0 0.9375 0  0.06259265503385347 0.9374883743794487 0  0.1251894419538352 0.9374761099508646 0  0.1877947151302043 0.9374625105300184 0  0.2504133510225409 0.9374467515342927 0  0.3130510717230225 0.9374277891504007 0  0.3757148550321965 0.9374042297677184 0  0.4384134731818934 0.9373741310660
[...]
<PointData  Vectors="f_54"> 
<DataArray  type="Float64"  Name="f_54"  NumberOfComponents="3" format="ascii">0.0000000000000000e+00 0.0000000000000000e+00 0.0000000000000000e+00  0.0000000000000000e+00 0.0000000000000000e+00 0.0000000000000000e+00  0.0000000000000000e+00 0.0000000000000000e+00 0.0000000000000000e+00  0.0000000000000000e+00 0.0000000000000000e+00 0.0000000000000000e+00  0.0000000000000000e+00 0.0000000000000000e+00 0.0000000000000000e+00  0.0000000000000000e+00 0.0000000000000000e+00 0.0000000000000000e+00  0.0000000000000000e+00 0.0000000000000000e+00 0.0000000000000000e+00  0.0000000000000000e+00 0.0000000000000000e+00 0.0000000000000000e+00  0.0000000000000000e+00 0.0000000000000000e+00 0.0000000000000000e+00  0.0000000000000000e+00 0.0000000000000000e+00 0.0000000000000000e+00  0.0000000000000000e+00 0.0000000000000000e+00 0.0000000000000000e+00  0.0000000000000000e+00 0.0000000000000000e+00 0.0000000000000000e+00  0.0000000000000000e+00 0.0000000000000000e+00 0.0000000000000000e+00  0.0000000000000000e+00 0.0000000000000000e+00 0.0000000000000000e+00  0.0000000000000000e+00 0.0000000000000000e+00 0.0000000000000000e+00  0.0000000000000000e+00 0.0000000000000000e+00 0.0000000000000000e+00  0.0000000000000000e+00 0.0000000000000000e+00 0.0000000000000000e+00  0.0000000000000000e+00 0.0000000000000000e+00 0.0000000000000000e+00  -1.2951799641266417e-06 -5.1603011495783249e-08 0.0000000000000000e+00  -2.6058717410962795e-06 -1.0330136423581971e-07 0.0000000000000000e+00  -3.9440667148163105e-06 -1.5506020805784682e-07 0.0000000000000000e+00  -5.3132753165674437e-06 -2.0656237242923389e-07 0.0000000000000000e+00  -6.7025243166206688e-06 -2.5709930507911935e-07 0.0000000000000000e+00  -8.0779421470790238e-06 -3.0553257548949561e-07 0.0000000000000000e+00  -9.3705405705815278e-06 -3.5041346163485250e-07 0.0000000000000000e+00  -1.0457941725992707e-05 -3.9042626364437039e-07 0.0000000000000000e+00  -1.1135876734800367e-05 -4.2546082081783785e-07 0.0000000000000000e+00  -1.1070576306959793e-05 -4.5889506122066224e-07 0.0000000000000000e+00  -9.7106766309620721e-06 -5.0231491064092720e-07 0.0000000000000000e+00  -6.1014816548600134e-06 -5.8576435200009596e-07 0.0000000000000000e+00  1.5658463565225699e-06 -7.8296587373510192e-07 0.0000000000000000e+00  1.7204293454676507e-05 -1.2850065538851523e-06 0.0000000000000000e+00  5.0749903125858235e-05 -2.6554358681802640e-06 0.0000000000000000e+00  1.3230522021755265e-04 -6.8742220747034706e-06 0.0000000000000000e+00  0.0000000000000000e+00 0.0000000000000000e+00 0.0000000000000000e+00  -2.5779521587188621e-06 -1.0323276071506618e-07 0.0000000000000000e+00  -5.1910840147481351e-06 -2.0680687071560862e-07 0.0000000000000000e+00  -7.8681432725189148e-06 -3.1079225536720077e-07 0.0000000000000000e+00  -1.0622241589605454e-05 -4.1466213309239546e-07 0.0000000000000000e+00  -1.3439692894551217e-05 -5.1702917871051056e-07 0.0000000000000000e+00  -1.6264327508534004e-05 -6.1547890073471467e-07 0.0000000000000000e+00  -1.8974851454862506e-05 -7.0664481436294681e-07 0.0000000000000000e+00  -2.1351659126148023e-05 -7.8680272731385786e-07 0.0000000000000000e+00  -2.3027262531629470e-05 -8.5347581827295659e-07 0.0000000000000000e+00  -2.3409869001830665e-05 -9.0886989818541420e-07 0.0000000000000000e+00  -2.1559723932719982e-05 -9.6640840721721024e-07 0.0000000000000000e+00  -1.5976947966147919e-05 -1.0620236397697095e-06 0.0000000000000000e+00  -4.2207136833795553e-06 -1.2708194056663464e-06 0.0000000000000000e+00  1.7760417672533315e-05 -1.7193460753675203e-06 0.0000000000000000e+00  5.6535555507151611e-05 -2.5209464266287025e-06 0.0000000000000000e+00  1.2046181944254055e-04 -3.2138845580479971e-06 0.0000000000000000e+00  0.0000000000000000e+00 0.0000000000000000e+00 0.0000000000000000e+00  -3.8281976743071196e-06 -1.5462270456692540e-07 0.0000000000000000e+00  -7.7187053179439640e-06 -3.1014018483688780e-07 0.0000000000000000e+00  -1.1725684537507127e-05 -4.6702469474605253e-07 0.0000000000000000e+00  -1.5883137702464042e-05 -6.2480133992728246e-07 0.0000000000000000e+00  -2.0190261655796505e-05 -7.8155890948665132e-07 0.0000000000000000e+00  -2.4590692652157686e-05 -9.3350570531121863e-07 0.0000000000000000e+00  -2.8942621934104604e-05 -1.0747190994527298e-06 0.0000000000000000e+00  -3.2975822173590475e-05 -1.1974014710008190e-06 0.0000000000000000e+00  -3.6230334247703554e-05 -1.2932187785325564e-06 0.0000000000000000e+00  -3.7969962368609060e-05 -1.3566779425868165e-06 0.0000000000000000e+00  -3.7062512440040581e-05 -1.3919426653933973e-06 0.0000000000000000e+00  -3.1821529157560508e-05 -1.4247311368899131e-06 0.0000000000000000e+00  -1.9825926084212409e-05 -1.5202740690321605e-06 0.0000000000000000e+00  2.1742120186234243e-06 -1.8059619091372460e-06 0.0000000000000000e+00  3.7845433375674635e-05 -2.4998880943730056e-06 0.0000000000000000e+00  8.9115815239193850e-05 -4.0270548215725658e-06 0.0000000000000000e+00  0.0000000000000000e+00 0.0000000000000000e+00 0.0000000000000000e+00  -5.0183816325575886e-06 -2.0519827356526584e-07 0.0000000000000000e+00  -1.0135732639013461e-05 -4.1231775274375827e-07 0.0000000000000000e+00  -1.5442807177640969e-05 -6.2271583502732733e-07 0.0000000000000000e+00  -2.1009334803272994e-05 -8.3645533577837027e-07 0.0000000000000000e+00  -2.6868160714412869e-05 -1.0515295484558111e-06 0.0000000000000000e+00  -3.2992241982322633e-05 -1.2629829585334330e-06 0.0000000000000000e+00  -3.9261118256356465e-05 -1.4620104795337732e-06 0.0000000000000000e+00  -4.5412803414688176e-05 -1.6352855746020863e-06 0.0000000000000000e+00  -5.0976696829379661e-05 -1.7650693097073875e-06 0.0000000000000000e+00  -5.5184041436193519e-05 -1.8311483597710726e-06 0.0000000000000000e+00  -5.6857033921564770e-05 -1.8163687866769461e-06 0.0000000000000000e+00  -5.4291649138441404e-05 -1.7183680062311493e-06 0.0000000000000000e+00  -4.5185514439786352e-05 -1.5706187141677171e-06 0.0000000000000000e+00  -2.6745329823794452e-05 -1.4749949968170667e-06 0.0000000000000000e+00  3.7374915647854084e-06 -1.6429757775425092e-06 0.0000000000000000e+00  4.7416403629191547e-05 -2.4185928129200728e-06 0.0000000000000000e+00  0.0000000000000000e+00 0.0000000000000000e+00 0.0000000000000000e+00  -6.1115868941068212e-06 -2.5391550351777031e-07 0.0000000000000000e+00  -1.2368666347879965e-05 -5.1140508116909710e-07 0.0000000000000000e+00  -1.8910380359074396e-05 -7.7538850141941506e-07 0.0000000000000000e+00  -2.5858320179113662e-05 -1.0472368453203291e-06 0.0000000000000000e+00  -3.3302127938999836e-05 -1.3257067314935848e-06 0.0000000000000000e+00  -4.1277459922546030e-05 -1.6055291455567927e-06 0.0000000000000000e+00  -4.9732559567663707e-05 -1.8755852562270427e-06 0.0000000000000000e+00  -5.8478907535681402e-05 -2.1167204956407198e-06 0.0000000000000000e+00  -6.7121102515639840e-05 -2.2995315085157301e-06 0.0000000000000000e+00  -7.4962419927559269e-05 -2.3830567662822904e-06 0.0000000000000000e+00  -8.0887783222658834e-05 -2.3164355333047904e-06 0.0000000000000000e+00  -8.3239596691833469e-05 -2.0475412310888686e-06 0.0000000000000000e+00  -7.9730676350298017e-05 -1.5454815652033106e-06 0.0000000000000000e+00  -6.7487038359039428e-05 -8.4715280248380353e-07 0.0000000000000000e+00  -4.3364147140769512e-05 -1.3926609519850323e-07 0.0000000000000000e+00  -4.6377802261869308e-06 1.1941653130154305e-07 0.0000000000000000e+00  0.0000000000000000e+00 0.0000000000000000e+00 0.0000000000000000e+00  -7.0612852509316373e-06 -2.9911336168811919e-07 0.0000000000000000e+00  -1.4322728822875824e-05 -6.0417871052315977e-07 0.0000000000000000e+00  -2.1982015383466355e-05 -9.2051161505022494e-07 0.0000000000000000e+00  -3.0227378964666309e-05 -1.2518520477836726e-06 0.0000000000000000e+00  -3.9227608918724934e-05 -1.5991058758426230e-06 0.0000000000000000e+00  -4.9114605085776492e-05 -1.9584495473678406e-06 0.0000000000000000e+00  -5.9954332795065542e-05 -2.3184952731431748e-06 0.0000000000000000e+00  -7.1700636608107505e-05 -2.6561948922867636e-06 0.0000000000000000e+00  -8.4124974764134409e-05 -2.9312760466407939e-06 0.0000000000000000e+00  -9.6714538014464817e-05 -3.0794835597195338e-06 0.0000000000000000e+00  -1.0853315057064612e-04 -3.0062129580223006e-06 0.0000000000000000e+00  -1.1804683615490370e-04 -2.5851317776855639e-06 0.0000000000000000e+00  -1.2293258188059053e-04 -1.6723937471349831e-06 0.0000000000000000e+00  -1.1991427954965163e-04 -1.5736901401506076e-07 0.0000000000000000e+00  -1.0468600567237249e-04 1.9149985481051626e-06 0.0000000000000000e+00  -7.1930839462189117e-05 4.1024666222703199e-06 0.0000000000000000e+00  0.0000000000000000e+00 0.0000000000000000e+00 0.0000000000000000e+00  -7.8131424176437499e-06 -3.3842156554581961e-07 0.0000000000000000e+00  -1.5885356475110696e-05 -6.8588244159474451e-07 0.0000000000000000e+00  -2.4478967298543048e-05 -1.0509719827458178e-06 0.0000000000000000e+00  -3.3859363607049481e-05 -1.4410526406856033e-06 0.0000000000000000e+00  -4.4292448802386343e-05 -1.8610458002685077e-06 0.0000000000000000e+00  -5.6035853527845909e-05 -2.3113283830907481e-06 0.0000000000000000e+00  -6.9319613413318016e-05 -2.7841573741879271e-06 0.0000000000000000e+00  -8.4309690192930649e-05 -3.2577730809120306e-06 0.0000000000000000e+00  -1.0104441172886631e-04 -3.6870393537879146e-06 0.0000000000000000e+00  -1.1932969875019255e-04 -3.9893607403184138e-06 0.0000000000000000e+00  -1.3857457480564674e-04 -4.0252563733318923e-06 0.0000000000000000e+00  -1.5754602610659510e-04 -3.5757958386656053e-06 0.0000000000000000e+00  -1.7402575345276146e-04 -2.3271056700853332e-06 0.0000000000000000e+00  -1.8436477889288607e-04 1.0955959549816282e-07 0.0000000000000000e+00  -1.8295006791108507e-04 4.0793122243913889e-06 0.0000000000000000e+00  -1.6158387382930042e-04 9.5534715494642674e-06 0.0000000000000000e+00  0.0000000000000000e+00 0.0000000000000000e+00 0.0000000000000000e+00  -8.3089459675157784e-06 -3.6878153179077089e-07 0.0000000000000000e+00  -1.6934197489398815e-05 -7.5020764986682434e-07 0.0000000000000000e+00  -2.6202427488619794e-05 -1.1568675363586359e-06 0.0000000000000000e+00  -3.6459415954137797e-05 -1.6009580331767664e-06 0.0000000000000000e+00  -4.8077751321891834e-05 -2.0934898953787811e-06 0.0000000000000000e+00  -6.1460964474591755e-05 -2.6425253157209954e-06 0.0000000000000000e+00  -7.7040408985948089e-05 -3.2496404935723364e-06 0.0000000000000000e+00  -9.5258057687522187e-05 -3.9032283657875768e-06 0.0000000000000000e+00  -1.1652303173659913e-04 -4.5663275207800476e-06 0.0000000000000000e+00  -1.4112100986966313e-04 -5.1553186706569339e-06 0.0000000000000000e+00  -1.6904268345517161e-04 -5.5042993521086110e-06 0.0000000000000000e+00  -1.9968051636082981e-04 -5.3094895802322188e-06 0.0000000000000000e+00  -2.3132701887177581e-04 -4.0527256657391688e-06 0.0000000000000000e+00  -2.6040608869457347e-04 -9.2331952871668720e-07 0.0000000000000000e+00  -2.8040217639239333e-04 5.1866962134409361e-06 0.0000000000000000e+00  -2.8051244737357207e-04 1.5424634546616827e-05 0.0000000000000000e+00  0.0000000000000000e+00 0.0000000000000000e+00 0.0000000000000000e+00  -8.4924913111549129e-06 -3.8663962103856623e-07 0.0000000000000000e+00  -1.7349357683011545e-05 -7.8963999881040466e-07 0.0000000000000000e+00  -2.6953026478155654e-05 -1.2258999176236757e-06 0.0000000000000000e+00  -3.7722870076030899e-05 -1.7132495610798336e-06 0.0000000000000000e+00  -5.0135148595107993e-05 -2.2705291124609065e-06 0.0000000000000000e+00  -6.4743790474218810e-05 -2.9169333676388593e-06 0.0000000000000000e+00  -8.2200246078141227e-05 -3.6698069332417335e-06 0.0000000000000000e+00  -1.0326744534661916e-04 -4.5392639278494851e-06 0.0000000000000000e+00  -1.2881643943868631e-04 -5.5164480263973988e-06 0.0000000000000000e+00  -1.5978190283207877e-04 -6.5493370358542572e-06 0.0000000000000000e+00  -1.9703019706194221e-04 -7.4948234198901428e-06 0.0000000000000000e+00  -2.4105651065087615e-04 -8.0275391343371001e-06 0.0000000000000000e+00  -2.9137560651314382e-04 -7.4759211464410409e-06 0.0000000000000000e+00  -3.4542380882023608e-04 -4.5554689553199353e-06 0.0000000000000000e+00  -3.9681591766928574e-04 2.9824749642386651e-06 0.0000000000000000e+00  -4.3300712928257375e-04 1.8585762021294869e-05 0.0000000000000000e+00  0.0000000000000000e+00 0.0000000000000000e+00 0.0000000000000000e+00  -8.3169429363442332e-06 -3.8835020571355565e-07 0.0000000000000000e+00  -1.7028989128698419e-05 -7.9627631072040315e-07 0.0000000000000000e+00  -2.6556389087997699e-05 -1.2446043298496220e-06 0.0000000000000000e+00  -3.7373336378290310e-05 -1.7567395405976443e-06 0.0000000000000000e+00  -5.0040541573367046e-05 -2.3600056899548095e-06 0.0000000000000000e+00  -6.5244573491281171e-05 -3.0868706066053104e-06 0.0000000000000000e+00  -8.3845744235339705e-05 -3.9755958956098905e-06 0.0000000000000000e+00  -1.0693450035655896e-04 -5.0691073066258772e-06 0.0000000000000000e+00  -1.3589117584104663e-04 -6.4091943252125850e-06 0.0000000000000000e+00  -1.7243138769341599e-04 -8.0193382819451590e-06 0.0000000000000000e+00  -2.1859095772158127e-04 -9.8609653393818127e-06 0.0000000000000000e+00  -2.7654502074050665e-04 -1.1729366024242139e-05 0.0000000000000000e+00  -3.4804505534255726e-04 -1.3017256966379313e-05 0.0000000000000000e+00  -4.3308934511455428e-04 -1.2206299008223995e-05 0.0000000000000000e+00  -5.2731938647637483e-04 -5.8803661757336045e-06 0.0000000000000000e+00  -6.1795785309715458e-04 1.2782156608709349e-05 0.0000000000000000e+00  0.0000000000000000e+00 0.0000000000000000e+00 0.0000000000000000e+00  -7.7528177440660242e-06 -3.7077699319161393e-07 0.0000000000000000e+00  -1.5906508405607096e-05 -7.6311104064630877e-07 0.0000000000000000e+00  -2.4892210402784190e-05 -1.2004870607714811e-06 0.0000000000000000e+00  -3.5207859567417912e-05 -1.7105916502780752e-06 0.0000000000000000e+00  -4.7461390662475099e-05 -2.3280470497733164e-06 0.0000000000000000e+00  -6.2427188326311513e-05 -3.0979484633777663e-06 0.0000000000000000e+00  -8.1122407668465703e-05 -4.0804752905176541e-06 0.0000000000000000e+00  -1.0491118095069818e-04 -5.3566359478076973e-06 0.0000000000000000e+00  -1.3564474189793754e-04 -7.0343905978754556e-06 0.0000000000000000e+00  -1.7584008123234870e-04 -9.2518130246114764e-06 0.0000000000000000e+00  -2.2887802871939534e-04 -1.2166314756197911e-05 0.0000000000000000e+00  -2.9913644411361739e-04 -1.5896871014934852e-05 0.0000000000000000e+00  -3.9180338633475621e-04 -2.0322830349618118e-05 0.0000000000000000e+00  -5.1172401054232989e-04 -2.4465367925183579e-05 0.0000000000000000e+00  -6.5996968997330825e-04 -2.4734611436822313e-05 0.0000000000000000e+00  -8.2673934790349817e-04 -1.0712733652991618e-05 0.0000000000000000e+00  0.0000000000000000e+00 0.0000000000000000e+00 0.0000000000000000e+00  -6.7953770210731631e-06 -3.3201049513640567e-07 0.0000000000000000e+00  -1.3966884958538205e-05 -6.8562952905869390e-07 0.0000000000000000e+00  -2.1922711836572344e-05 -1.0848419186526046e-06 0.0000000000000000e+00  -3.1143190269676218e-05 -1.5589617469486942e-06 0.0000000000000000e+00  -4.2229799602817882e-05 -2.1464777582536454e-06 0.0000000000000000e+00  -5.5972693874951310e-05 -2.9006282200006655e-06 0.0000000000000000e+00  -7.3448280988498588e-05 -3.8978681052203829e-06 0.0000000000000000e+00  -9.6164266237418921e-05 -5.2510579301374278e-06 0.0000000000000000e+00  -1.2627831949551377e-04 -7.1302198570861283e-06 0.0000000000000000e+00  -1.6692762482535138e-04 -9.7949972019295565e-06 0.0000000000000000e+00  -2.2271410701033307e-04 -1.3643506182108533e-05 0.0000000000000000e+00  -3.0036818330332691e-04 -1.9276706461781141e-05 0.0000000000000000e+00  -4.0946935246642115e-04 -2.7540494867258748e-05 0.0000000000000000e+00  -5.6253036756611578e-04 -3.9320962632096658e-05 0.0000000000000000e+00  -7.7190455534164562e-04 -5.3964274810325382e-05 0.0000000000000000e+00  -1.0383726924844321e-03 -6.1311694816752293e-05 0.0000000000000000e+00  0.0000000000000000e+00 0.0000000000000000e+00 0.0000000000000000e+00  -5.4699803840435300e-06 -2.7204780080904428e-07 0.0000000000000000e+00  -1.1258818137139261e-05 -5.6336847323812962e-07 0.0000000000000000e+00  -1.7714954930989220e-05 -8.9565534807533561e-07 0.0000000000000000e+00  -2.5254334387283534e-05 -1.2961247537716583e-06 0.0000000000000000e+00  -3.4407917094540064e-05 -1.8017434963423178e-06 0.0000000000000000e+00  -4.5889686465643790e-05 -2.4657215634646593e-06 0.0000000000000000e+00  -6.0699596827836680e-05 -3.3680618726365437e-06 0.0000000000000000e+00  -8.0285722355900432e-05 -4.6333862968361645e-06 0.0000000000000000e+00  -1.0680767088640309e-04 -6.4620572288479094e-06 0.0000000000000000e+00  -1.4357551235591671e-04 -9.1862920901684600e-06 0.0000000000000000e+00  -1.9579511698412399e-04 -1.3375018315966111e-05 0.0000000000000000e+00  -2.7184124883981208e-04 -2.0038158150221323e-05 0.0000000000000000e+00  -3.8537641259157429e-04 -3.1043528738345337e-05 0.0000000000000000e+00  -5.5846704464847642e-04 -4.9994285232408774e-05 0.0000000000000000e+00  -8.2365188564074174e-04 -8.3883743991929570e-05 0.0000000000000000e+00  -1.2032201836004119e-03 -1.4171415767658753e-04 0.0000000000000000e+00  0.0000000000000000e+00 0.0000000000000000e+00 0.0000000000000000e+00  -3.8339936115166290e-06 -1.9323959710892454e-07 0.0000000000000000e+00  -7.8995786032066999e-06 -4.0098974823952189e-07 0.0000000000000000e+00  -1.2451045579329654e-05 -6.3973901021967762e-07 0.0000000000000000e+00  -1.7794958015987991e-05 -9.3053631942810248e-07 0.0000000000000000e+00  -2.4327840091344952e-05 -1.3026012922080386e-06 0.0000000000000000e+00  -3.2591496353174111e-05 -1.7990411712008245e-06 0.0000000000000000e+00  -4.3359391147438606e-05 -2.4864503661581245e-06 0.0000000000000000e+00  -5.7778067875042543e-05 -3.4717151688934204e-06 0.0000000000000000e+00  -7.7608640901651811e-05 -4.9325059869690626e-06 0.0000000000000000e+00  -1.0565686358333416e-04 -7.1746499642614031e-06 0.0000000000000000e+00  -1.4657352572250499e-04 -1.0744699262104481e-05 0.0000000000000000e+00  -2.0841436289048700e-04 -1.6663466900509804e-05 0.0000000000000000e+00  -3.0582445381052703e-04 -2.6954376305352543e-05 0.0000000000000000e+00  -4.6684173425358590e-04 -4.6029558731472577e-05 0.0000000000000000e+00  -7.4838823684505204e-04 -8.5320743360874730e-05 0.0000000000000000e+00  -1.2808490308437598e-03 -1.8513125311933566e-04 0.0000000000000000e+00  0.0000000000000000e+00 0.0000000000000000e+00 0.0000000000000000e+00  -1.9742655433770274e-06 -1.0032923233753143e-07 0.0000000000000000e+00  -4.0701364305412469e-06 -2.0844298166717815e-07 0.0000000000000000e+00  -6.4214728189831593e-06 -3.3323264408566328e-07 0.0000000000000000e+00  -9.1905010250037932e-06 -4.8615483177130836e-07 0.0000000000000000e+00  -1.2588517532753645e-05 -6.8329416687657322e-07 0.0000000000000000e+00  -1.6906675102152994e-05 -9.4867243474381454e-07 0.0000000000000000e+00  -2.2564829656112040e-05 -1.3198727625004861e-06 0.0000000000000000e+00  -3.0193144408551219e-05 -1.8579806043143244e-06 0.0000000000000000e+00  -4.0775161036535393e-05 -2.6656899903827357e-06 0.0000000000000000e+00  -5.5911732501971839e-05 -3.9210254266951565e-06 0.0000000000000000e+00  -7.8336206762174971e-05 -5.9406771048967213e-06 0.0000000000000000e+00  -1.1298442287339459e-04 -9.2957142200386511e-06 0.0000000000000000e+00  -1.6935857251981328e-04 -1.4993832860277366e-05 0.0000000000000000e+00  -2.6695299490575282e-04 -2.4574109706074980e-05 0.0000000000000000e+00  -4.4675672333664002e-04 -3.8811960394850193e-05 0.0000000000000000e+00  -7.7996314270698712e-04 -4.8495709642014316e-05 0.0000000000000000e+00  0.0000000000000000e+00 0.0000000000000000e+00 0.0000000000000000e+00  0.0000000000000000e+00 0.0000000000000000e+00 0.0000000000000000e+00  0.0000000000000000e+00 0.0000000000000000e+00 0.0000000000000000e+00  0.0000000000000000e+00 0.0000000000000000e+00 0.0000000000000000e+00  0.0000000000000000e+00 0.0000000000000000e+00 0.0000000000000000e+00  0.0000000000000000e+00 0.0000000000000000e+00