<?xml version="1.0"?>
<VTKFile type="UnstructuredGrid"  version="0.1"  >
<UnstructuredGrid>
<Piece  NumberOfPoints="289" NumberOfCells="512">
<Points>
<DataArray  type="Float64"  NumberOfComponents="3"  format="ascii">0 0 0  0.0625 0 0  0.125 0 0  0.1875 0 0  0.25 0 0  0.3125 0 0  0.375 0 0  0.4375 0 0  0.5 0 0  0.5625 0 0  0.625 0 0  0.6875 0 0  0.75 0 0  0.8125 0 0  0.875 0 0  0.9375 0 0  1 0 0  0 0.0625 0  0.06245703839608471 0.0624959250520621 0  0.1249133163859576 0.06249177686591499 0  0.1873681508457111 0.06248748938395012 0  0.249821044255321 0.06248301255305412 0  0.3122718174926407 0.06247832293446536 0  0.3747207959651236 0.06247343719294728 0  0.4371690767801446 0.06246842876279579 0  0.4996189184910728 0.06246344695052351 0  0.5620743252895425 0.06245873583496775 0  0.6245419709597426 0.06245464728417361 0  0.6870328006785815 0.06245163839957869 0  0.7495651901256271 0.06245024045579987 0  0.8121721633422387 0.0624509897980036 0  0.8749203626801836 0.06245433725168987 0  0.937966262096226 0.06246066281624681 0  1.001740946903564 0.06247146011902781 0  0 0.125 0  0.0624148652295087 0.1249919206254471 0  0.1248281280069168 0.1249836870286989 0  0.1872383264605197 0.1249751582978137 0  0.2496443388744589 0.1249662234650452 0  0.312045629841369 0.1249568219632874 0  0.3744425970329681 0.1249469703802024 0  0.4368370680345542 0.124936796662481 0  0.4992330156832856 0.1249265811741642 0  0.561637596319263 0.1249168004960838 0  0.6240626896193894 0.1249081636288649 0  0.686527279806571 0.1249016208251747 0  0.749061364715313 0.1248983149509336 0  0.8117127548429087 0.1248994480723113 0  0.8745590178277377 0.1249061109476091 0  0.937725508923838 0.1249194950146923 0  1.001391047069339 0.1249432454948424 0  0 0.1875 0  0.06237433370463971 0.1874880680746305 0  0.1247460707527572 0.1874758867911696 0  0.1871127911449431 0.1874632240546089 0  0.2494725091800349 0.1874498872858746 0  0.3118239956721079 0.1874357518720707 0  0.3741672380526515 0.1874208001402444 0  0.4365041020774481 0.1874051738999855 0  0.4988392746242358 0.1873892419301196 0  0.5611815877449595 0.1873736796093417 0  0.6235458498471063 0.1873595489797397 0  0.6859553340580714 0.1873483501285326 0  0.7484450548996244 0.1873419817640201 0  0.8110657204332276 0.1873424815332322 0  0.8738871268658794 0.1873512445300825 0  0.9369958592814925 0.1873668325007939 0  1.000471691739817 0.1873781429389175 0  0 0.25 0  0.06233644888842663 0.2499844628905721 0  0.1246691132699292 0.2499685629529056 0  0.1869943835486744 0.2499519551950637 0  0.2493090946329016 0.24993433675247 0  0.3116108733985753 0.2499154798822365 0  0.3738986506354657 0.249895280266145 0  0.4361734117759812 0.2498738268190495 0  0.4984392727766289 0.2498514989536232 0  0.5607049725259932 0.2498290946738408 0  0.6229858548183175 0.2498079849558932 0  0.6853063341907603 0.2497902710815531 0  0.7477026169279348 0.2497788823698699 0  0.8102248998216377 0.2497774777781159 0  0.8729370544506456 0.249789895387216 0  0.9359095343246007 0.2498187946611997 0  0.9991985685365212 0.2498636506376302 0  0 0.3125 0  0.06230240691558538 0.3124812188061434 0  0.124599646708818 0.3124619422510717 0  0.1868866804368295 0.3124416888539772 0  0.2491588236022247 0.3124200122645386 0  0.3114120581864242 0.3123965332587752 0  0.3736435247000633 0.3123709913888584 0  0.4358522797378816 0.3123433265334677 0  0.4980404202048629 0.3123138033585962 0  0.5602146808124734 0.3122831937598738 0  0.6223885846249502 0.3122530308877552 0  0.6845851237835805 0.3122259370854853 0  0.7468396917834909 0.3122059948644654 0  0.809202466948539 0.3121990556355239 0  0.8717385675665613 0.3122127466226927 0  0.9345232407593732 0.3122557606832834 0  0.9976292107408695 0.3123359174533031 0  0 0.375 0  0.06227359399650232 0.3749784684378705 0  0.1245404904701501 0.3749562938194726 0  0.1867940254086281 0.3749328376766908 0  0.2490276911104669 0.374907477985194 0  0.3112353450069262 0.374879632403474 0  0.3734115994897774 0.3748488033078047 0  0.4355524904637309 0.3748146586566888 0  0.497656552231152 0.374777169685702 0  0.5597264545932712 0.3747368360520549 0  0.6217713661743088 0.3746950402416175 0  0.6838101570382589 0.374654580815915 0  0.7458753747348387 0.3746204240474318 0  0.8080175256321964 0.374600652770232 0  0.8703085013465364 0.3746074187851877 0  0.9328421435658105 0.374657337378637 0  0.9957295628362594 0.3747701444537127 0  0 0.4375 0  0.06225153805528091 0.4374763593075697 0  0.1244947987170871 0.4374519220580947 0  0.1867213979583264 0.4374258816027836 0  0.2489228051497873 0.4373974168094084 0  0.3110903774100939 0.4373656972393462 0  0.3732155535223373 0.4373299078978391 0  0.4352903130185242 0.4372893091833002 0  0.4973080584907639 0.4372433587342973 0  0.5592651502620414 0.4371919403329453 0  0.6211634062048564 0.43713577401915 0  0.683013950647367 0.4370771223432571 0  0.7448427902660705 0.4370209517402289 0  0.8066982807329618 0.4369767171786076 0  0.8686600220693661 0.4369608055631587 0  0.9308475044007308 0.4369991785819291 0  0.9934252102515957 0.4371286159840403 0  0 0.5 0  0.06223781023731595 0.4999750444432598 0  0.1244658607975652 0.4999491478904298 0  0.1866741093498783 0.4999213403086703 0  0.2488519779138402 0.4998905960497938 0  0.3109881451937204 0.4998558118739593 0  0.373070444098699 0.4998157962303285 0  0.4350859628175816 0.4997692825782554 0  0.4970215232446915 0.4997149923128822 0  0.5588648334291605 0.4996517974687616 0  0.6206067994260333 0.4995790795567846 0  0.6822457453068181 0.4994974635842578 0  0.743794592491867 0.4994102414936445 0  0.8052922294247142 0.4993259800588331 0  0.8668199306566122 0.4992629263910869 0  0.9285219653702446 0.4992554882933334 0  0.9906257995850304 0.499361392870473 0  0 0.5625 0  0.06223387914083806 0.5624746675295811 0  0.1244567994590632 0.5624482779238229 0  0.1866573260253718 0.5624197243188848 0  0.2488230517616821 0.5623877982034851 0  0.3109400968176054 0.5623511341966958 0  0.3729926176160765 0.5623081515692041 0  0.4349623883734612 0.5622569965550744 0  0.4968286031373562 0.5621954988742216 0  0.5585682081062714 0.5621211777922082 0  0.6201573681111747 0.5620313831425569 0  0.6815751757170896 0.561923768048854 0  0.7428114977650038 0.5617975259718183 0  0.8038818624266383 0.5616562831704204 0  0.8648529675238075 0.5615142805004504 0  0.9258809503034436 0.5614081632331497 0  0.9872573948053538 0.5614155105934452 0  0 0.625 0  0.06224092794583862 0.6249753437634699 0  0.1244701854711477 0.624949563598769 0  0.1866754429858109 0.6249214671293307 0  0.2488429759222525 0.6248897177098017 0  0.3109568553340396 0.6248527459863547 0  0.3729980130189382 0.6248086400969038 0  0.4349431703859138 0.6247550048322396 0  0.4967636853302535 0.6246887796055213 0  0.5584245251324594 0.6246060101150995 0  0.61988391246213 0.6245015930222066 0  0.6810948966646094 0.6243690971003981 0  0.7420114753064433 0.6242010175357894 0  0.8026043093661543 0.623990513395361 0  0.862894543957795 0.6237373766219736 0  0.923016623874481 0.6234643638461245 0  0.9833140626641461 0.623253487432531 0  0 0.6875 0  0.06225965358726571 0.6874771389705302 0  0.1245076065096991 0.687453155636615 0  0.1867313613645991 0.687426846679035 0  0.2489166966170405 0.6873968350079107 0  0.3110465881746737 0.6873614563517039 0  0.3730998494784917 0.6873186081866016 0  0.4350493705214981 0.6872655370583338 0  0.4968598385846974 0.6871985263513224 0  0.5584848864565546 0.6871124229341765 0  0.6198638477769354 0.6869999051956237 0  0.6809189675708733 0.6868503577716497 0  0.741555618359461 0.6866482582539395 0  0.8016720595560766 0.6863714399128482 0  0.861193662146269 0.6859917013457488 0  0.9201603137499803 0.6854876517716834 0  0.9789007553058533 0.6848978578912513 0  0 0.75 0  0.06229007656450212 0.7499800507322227 0  0.1245692498130671 0.7499590620341438 0  0.1868257641693975 0.7499359105325307 0  0.2490459906844722 0.7499092910210469 0  0.3112131892420939 0.7498775940189467 0  0.3733058516440725 0.7498387374905295 0  0.4352953862088233 0.7497899209770283 0  0.4971428075929273 0.7497272472617768 0  0.5587939759442059 0.7496451094404312 0  0.6201728407307115 0.7495351411702073 0  0.6811722927197786 0.7493843133240633 0  0.7416432903823125 0.7491713203300784 0  0.8013869787493862 0.7488596522881197 0  0.8601675150093161 0.748385403945497 0  0.9178000199815919 0.747644286530027 0  0.9744400294260185 0.7465384572369791 0  0 0.8125 0  0.06233139729447037 0.8124839957255748 0  0.1246535765998779 0.812467119185893 0  0.1869565227931814 0.8124484225166048 0  0.2492284485120177 0.8124267933828004 0  0.3114545737724467 0.8124008432665527 0  0.3736154198297306 0.812368753422083 0  0.4356842940506272 0.8123280505304781 0  0.4976234471027635 0.812275265114357 0  0.5593780499278793 0.8122053856509562 0  0.620866580263266 0.8121109256213929 0  0.6819653289006461 0.8119801643558984 0  0.7424835913041223 0.811793376093159 0  0.8021258118418959 0.8115135922011176 0  0.8604440166178354 0.8110614586592351 0  0.9168314791074729 0.8102422219669808 0  0.9708749850456133 0.8085226002074181 0  0 0.875 0  0.06238193640820525 0.8749888067708281 0  0.1247571728352342 0.8749769842983106 0  0.1871183879090213 0.8749638465757014 0  0.2494568677184692 0.8749485840515898 0  0.3117615179864925 0.8749301803504104 0  0.3740174401627547 0.87490729959545 0  0.4362037532895765 0.8748781290892295 0  0.4982901131281189 0.8748401591715878 0  0.5602309412121591 0.8747898839416213 0  0.6219555175762388 0.8747224237994531 0  0.6833503446088767 0.8746311208071791 0  0.7442264578556369 0.8745072282423825 0  0.8042559020791241 0.8743396021326438 0  0.8628416886755107 0.8741118080873552 0  0.9188436225648062 0.8737785378072512 0  0.9700603915829589 0.873109290637657 0  0 0.9375 0  0.06243918848608107 0.9374942412309983 0  0.124874846381943 0.9374881529621105 0  0.1873031016935861 0.9374813754261446 0  0.2497193136760835 0.9374734830798932 0  0.3121175174406089 0.9374639409021269 0  0.3744896084014045 0.9374520469748764 0  0.4368240670044021 0.9374
[...]
<PointData  Vectors="f_54"> 
<DataArray  type="Float64"  Name="f_54"  NumberOfComponents="3" format="ascii">0.0000000000000000e+00 0.0000000000000000e+00 0.0000000000000000e+00  0.0000000000000000e+00 0.0000000000000000e+00 0.0000000000000000e+00  0.0000000000000000e+00 0.0000000000000000e+00 0.0000000000000000e+00  0.0000000000000000e+00 0.0000000000000000e+00 0.0000000000000000e+00  0.0000000000000000e+00 0.0000000000000000e+00 0.0000000000000000e+00  0.0000000000000000e+00 0.0000000000000000e+00 0.0000000000000000e+00  0.0000000000000000e+00 0.0000000000000000e+00 0.0000000000000000e+00  0.0000000000000000e+00 0.0000000000000000e+00 0.0000000000000000e+00  0.0000000000000000e+00 0.0000000000000000e+00 0.0000000000000000e+00  0.0000000000000000e+00 0.0000000000000000e+00 0.0000000000000000e+00  0.0000000000000000e+00 0.0000000000000000e+00 0.0000000000000000e+00  0.0000000000000000e+00 0.0000000000000000e+00 0.0000000000000000e+00  0.0000000000000000e+00 0.0000000000000000e+00 0.0000000000000000e+00  0.0000000000000000e+00 0.0000000000000000e+00 0.0000000000000000e+00  0.0000000000000000e+00 0.0000000000000000e+00 0.0000000000000000e+00  0.0000000000000000e+00 0.0000000000000000e+00 0.0000000000000000e+00  0.0000000000000000e+00 0.0000000000000000e+00 0.0000000000000000e+00  0.0000000000000000e+00 0.0000000000000000e+00 0.0000000000000000e+00  -3.7497634791674642e-06 -1.4513076795701841e-07 0.0000000000000000e+00  -7.6175273716793109e-06 -2.9428217447725633e-07 0.0000000000000000e+00  -1.1722925874935288e-05 -4.5137228512231894e-07 0.0000000000000000e+00  -1.6187845408967091e-05 -6.2003370964314088e-07 0.0000000000000000e+00  -2.1137010492407861e-05 -8.0334055561340299e-07 0.0000000000000000e+00  -2.6698029567475083e-05 -1.0033599139251202e-06 0.0000000000000000e+00  -3.3001112230138233e-05 -1.2204406249236367e-06 0.0000000000000000e+00  -4.0179499932465654e-05 -1.4521298521855139e-06 0.0000000000000000e+00  -4.8373812792497287e-05 -1.6915767602872930e-06 0.0000000000000000e+00  -5.7749197383137557e-05 -1.9252050960658831e-06 0.0000000000000000e+00  -6.8549766385748019e-05 -2.1291315451200416e-06 0.0000000000000000e+00  -8.1260624914012604e-05 -2.2624888932770041e-06 0.0000000000000000e+00  -9.7093369167200499e-05 -2.2501314183448564e-06 0.0000000000000000e+00  -1.1951476096437552e-04 -1.9224890865667500e-06 0.0000000000000000e+00  -1.5944591461082200e-04 -7.6901386961784879e-07 0.0000000000000000e+00  -2.5489281786709214e-04 3.1820880616061514e-06 0.0000000000000000e+00  0.0000000000000000e+00 0.0000000000000000e+00 0.0000000000000000e+00  -7.3757759937265546e-06 -2.8601882787062498e-07 0.0000000000000000e+00  -1.4985740102313571e-05 -5.8017693202252296e-07 0.0000000000000000e+00  -2.3067508917003596e-05 -8.9045662972840937e-07 0.0000000000000000e+00  -3.1863604486934734e-05 -1.2243768705681309e-06 0.0000000000000000e+00  -4.1622735014228561e-05 -1.5885194856209096e-06 0.0000000000000000e+00  -5.2599731704255802e-05 -1.9877258476682864e-06 0.0000000000000000e+00  -6.5054072898871378e-05 -2.4237950724745222e-06 0.0000000000000000e+00  -7.9247789269946419e-05 -2.8934742845323829e-06 0.0000000000000000e+00  -9.5445691777858269e-05 -3.3855022345188181e-06 0.0000000000000000e+00  -1.1392589705542338e-04 -3.8764814833058618e-06 0.0000000000000000e+00  -1.3501991449185502e-04 -4.3254943946449895e-06 0.0000000000000000e+00  -1.5922533622748561e-04 -4.6679786881058408e-06 0.0000000000000000e+00  -1.8747630893381357e-04 -4.8122100105670767e-06 0.0000000000000000e+00  -2.2168369405403752e-04 -4.6567586482836806e-06 0.0000000000000000e+00  -2.6532680442697954e-04 -4.2305183016888790e-06 0.0000000000000000e+00  -3.2089747483517861e-04 -4.5268300111991740e-06 0.0000000000000000e+00  0.0000000000000000e+00 0.0000000000000000e+00 0.0000000000000000e+00  -1.0761392641548487e-05 -4.1852795293005855e-07 0.0000000000000000e+00  -2.1869899797998636e-05 -8.4947923209648396e-07 0.0000000000000000e+00  -3.3678224259402130e-05 -1.3051539378265001e-06 0.0000000000000000e+00  -4.6547540245314610e-05 -1.7974085607030383e-06 0.0000000000000000e+00  -6.0849852153665617e-05 -2.3371155388919370e-06 0.0000000000000000e+00  -7.6967942423812664e-05 -2.9331788424068060e-06 0.0000000000000000e+00  -9.5292042192610498e-05 -3.5908599693150651e-06 0.0000000000000000e+00  -1.1621254189884084e-04 -4.3090936935021049e-06 0.0000000000000000e+00  -1.4010863815548343e-04 -5.0764097761482936e-06 0.0000000000000000e+00  -1.6733394192067306e-04 -5.8650880137766415e-06 0.0000000000000000e+00  -1.9820118379907926e-04 -6.6234012843491808e-06 0.0000000000000000e+00  -2.3296520378519612e-04 -7.2665332828719950e-06 0.0000000000000000e+00  -2.7177907755564397e-04 -7.6684027459301898e-06 0.0000000000000000e+00  -3.1449117165442908e-04 -7.6583224523232216e-06 0.0000000000000000e+00  -3.5978121151562228e-04 -7.0134763403997564e-06 0.0000000000000000e+00  -4.0217915180262246e-04 -5.2897296328439102e-06 0.0000000000000000e+00  0.0000000000000000e+00 0.0000000000000000e+00 0.0000000000000000e+00  -1.3793273846649792e-05 -5.3835764195741318e-07 0.0000000000000000e+00  -2.8041399708180448e-05 -1.0935628834450984e-06 0.0000000000000000e+00  -4.3207560014942549e-05 -1.6824875600565320e-06 0.0000000000000000e+00  -5.9768455994175695e-05 -2.3218386377526280e-06 0.0000000000000000e+00  -7.8218593037635982e-05 -3.0277345711673445e-06 0.0000000000000000e+00  -9.9071139848321793e-05 -3.8147877260607120e-06 0.0000000000000000e+00  -1.2285354250387128e-04 -4.6943838317065379e-06 0.0000000000000000e+00  -1.5009539901901273e-04 -5.6717147238693993e-06 0.0000000000000000e+00  -1.8130499579015348e-04 -6.7409580969828326e-06 0.0000000000000000e+00  -2.1692876202177830e-04 -7.8778565001152394e-06 0.0000000000000000e+00  -2.5728294074923433e-04 -9.0289597878138794e-06 0.0000000000000000e+00  -3.0243425275249843e-04 -1.0097244870922543e-05 0.0000000000000000e+00  -3.5197482917579038e-04 -1.0925202127992534e-05 0.0000000000000000e+00  -4.0456421303883798e-04 -1.1279422323523729e-05 0.0000000000000000e+00  -4.5697968846506549e-04 -1.0846732101761078e-05 0.0000000000000000e+00  -5.0233712966186517e-04 -9.2781459487080733e-06 0.0000000000000000e+00  0.0000000000000000e+00 0.0000000000000000e+00 0.0000000000000000e+00  -1.6363366870186678e-05 -6.4106968717839841e-07 0.0000000000000000e+00  -3.3281473304164838e-05 -1.3034065499808413e-06 0.0000000000000000e+00  -5.1320885119438826e-05 -2.0085675074080159e-06 0.0000000000000000e+00  -7.1068689383288645e-05 -2.7784995572988101e-06 0.0000000000000000e+00  -9.3140046339164703e-05 -3.6354443352284413e-06 0.0000000000000000e+00  -1.1818178053767179e-04 -4.6013949600528964e-06 0.0000000000000000e+00  -1.4686949915937303e-04 -5.6967717333824126e-06 0.0000000000000000e+00  -1.7989440968173992e-04 -6.9377771268379021e-06 0.0000000000000000e+00  -2.1793385107478924e-04 -8.3315777081518569e-06 0.0000000000000000e+00  -2.6159588691918018e-04 -9.8680302082045675e-06 0.0000000000000000e+00  -3.1132185040589201e-04 -1.1506177496881691e-05 0.0000000000000000e+00  -3.6721924455236947e-04 -1.3153430330342491e-05 0.0000000000000000e+00  -4.2877806798673603e-04 -1.4635890582536626e-05 0.0000000000000000e+00  -4.9439733496258170e-04 -1.5661218540921055e-05 0.0000000000000000e+00  -5.6063807937321061e-04 -1.5784211273686168e-05 0.0000000000000000e+00  -6.2122020522667476e-04 -1.4406910528224647e-05 0.0000000000000000e+00  0.0000000000000000e+00 0.0000000000000000e+00 0.0000000000000000e+00  -1.8371604778337098e-05 -7.2223433854024883e-07 0.0000000000000000e+00  -3.7386397224631684e-05 -1.4698806843824999e-06 0.0000000000000000e+00  -5.7703682405013729e-05 -2.2690010221730542e-06 0.0000000000000000e+00  -8.0012410036519758e-05 -3.1468356843122955e-06 0.0000000000000000e+00  -1.0504363271368901e-04 -4.1322381832233043e-06 0.0000000000000000e+00  -1.3357929434355969e-04 -5.2558334395129017e-06 0.0000000000000000e+00  -1.6645466941259701e-04 -6.5496197609411921e-06 0.0000000000000000e+00  -2.0455016181535908e-04 -8.0454832391924325e-06 0.0000000000000000e+00  -2.4876562076325766e-04 -9.7716394386549562e-06 0.0000000000000000e+00  -2.9996636234572903e-04 -1.1745240125178066e-05 0.0000000000000000e+00  -3.5888409229154253e-04 -1.3958151894986580e-05 0.0000000000000000e+00  -4.2594749821558525e-04 -1.6351212840513483e-05 0.0000000000000000e+00  -5.0100746127677333e-04 -1.8770549268626386e-05 0.0000000000000000e+00  -5.8291676435436187e-04 -2.0899423523482612e-05 0.0000000000000000e+00  -6.6894314005961427e-04 -2.2164289079848323e-05 0.0000000000000000e+00  -7.5408001322945439e-04 -2.1628685819095098e-05 0.0000000000000000e+00  0.0000000000000000e+00 0.0000000000000000e+00 0.0000000000000000e+00  -1.9729509463016167e-05 -7.7770139870071391e-07 0.0000000000000000e+00  -4.0174650292147406e-05 -1.5843126854207896e-06 0.0000000000000000e+00  -6.2072096421715987e-05 -2.4497948256157946e-06 0.0000000000000000e+00  -8.6199088222821334e-05 -3.4061951587008767e-06 0.0000000000000000e+00  -1.1339237961097329e-04 -4.4887499894167740e-06 0.0000000000000000e+00  -1.4456479122000173e-04 -5.7370110963791259e-06 0.0000000000000000e+00  -1.8071714378661662e-04 -7.1958842873482867e-06 0.0000000000000000e+00  -2.2294175542600427e-04 -8.9162520158654997e-06 0.0000000000000000e+00  -2.7241119786174567e-04 -1.0954373722274016e-05 0.0000000000000000e+00  -3.3034225644180558e-04 -1.3368259943132720e-05 0.0000000000000000e+00  -3.9791968164609232e-04 -1.6207269889911817e-05 0.0000000000000000e+00  -4.7615737072316446e-04 -1.9487701538261905e-05 0.0000000000000000e+00  -5.6566736619010597e-04 -2.3141705055231521e-05 0.0000000000000000e+00  -6.6630402262170523e-04 -2.6920352766652657e-05 0.0000000000000000e+00  -7.7666236678979592e-04 -3.0229074764626901e-05 0.0000000000000000e+00  -8.9345123481464285e-04 -3.1887389428123471e-05 0.0000000000000000e+00  0.0000000000000000e+00 0.0000000000000000e+00 0.0000000000000000e+00  -2.0364740569067587e-05 -8.0397303103021086e-07 0.0000000000000000e+00  -4.1496189455086958e-05 -1.6392870498219828e-06 0.0000000000000000e+00  -6.4187256742134809e-05 -2.5386964354137932e-06 0.0000000000000000e+00  -8.9283241104017087e-05 -3.5378909998818762e-06 0.0000000000000000e+00  -1.1770836012547838e-04 -4.6772740399417715e-06 0.0000000000000000e+00  -1.5049209957683539e-04 -6.0041488751288424e-06 0.0000000000000000e+00  -1.8879420252669710e-04 -7.5754867315518987e-06 0.0000000000000000e+00  -2.3392581799215465e-04 -9.4613994016807752e-06 0.0000000000000000e+00  -2.8736222641365664e-04 -1.1749181485617135e-05 0.0000000000000000e+00  -3.5073928107208404e-04 -1.4546978147004822e-05 0.0000000000000000e+00  -4.2582078942280960e-04 -1.7984039809356877e-05 0.0000000000000000e+00  -5.1441706280345805e-04 -2.2199724932046062e-05 0.0000000000000000e+00  -6.1822573627458831e-04 -2.7303615170672824e-05 0.0000000000000000e+00  -7.3855618881385379e-04 -3.3271989749717473e-05 0.0000000000000000e+00  -8.7589419540763831e-04 -3.9723647745119131e-05 0.0000000000000000e+00  -1.0292751842390542e-03 -4.5509556697618722e-05 0.0000000000000000e+00  0.0000000000000000e+00 0.0000000000000000e+00 0.0000000000000000e+00  -2.0226412001023354e-05 -7.9862332363442723e-07 0.0000000000000000e+00  -4.1243523887342576e-05 -1.6295660542667696e-06 0.0000000000000000e+00  -6.3873005436399964e-05 -2.5267951816396372e-06 0.0000000000000000e+00  -8.9000194529561928e-05 -3.5277917834903790e-06 0.0000000000000000e+00  -1.1760839919443811e-04 -4.6758302353056907e-06 0.0000000000000000e+00  -1.5081592487406657e-04 -6.0230234277177233e-06 0.0000000000000000e+00  -1.8991617363104079e-04 -7.6346448185430992e-06 0.0000000000000000e+00  -2.3642038951287404e-04 -9.5954878637603870e-06 0.0000000000000000e+00  -2.9210121939940740e-04 -1.2019300074605153e-05 0.0000000000000000e+00  -3.5903280103238589e-04 -1.5062391771320216e-05 0.0000000000000000e+00  -4.3961890873318063e-04 -1.8941601432936311e-05 0.0000000000000000e+00  -5.3659369796063507e-04 -2.3952855918254350e-05 0.0000000000000000e+00  -6.5296807685754645e-04 -3.0474848446542928e-05 0.0000000000000000e+00  -7.9187657867397870e-04 -3.8913656225452516e-05 0.0000000000000000e+00  -9.5625606279701872e-04 -4.9486600049336574e-05 0.0000000000000000e+00  -1.1482846080941933e-03 -6.1664242155288847e-05 0.0000000000000000e+00  0.0000000000000000e+00 0.0000000000000000e+00 0.0000000000000000e+00  -1.9290740952157801e-05 -7.6068261889219910e-07 0.0000000000000000e+00  -3.9363702148298809e-05 -1.5529508326354549e-06 0.0000000000000000e+00  -6.1035665018202521e-05 -2.4100723083411196e-06 0.0000000000000000e+00  -8.5195976818832147e-05 -3.3689556792617049e-06 0.0000000000000000e+00  -1.1284757796465083e-04 -4.4725709237899885e-06 0.0000000000000000e+00  -1.4515393321576296e-04 -5.7733045324313221e-06 0.0000000000000000e+00  -1.8349402048665139e-04 -7.3380044879131301e-06 0.0000000000000000e+00  -2.2952749497926828e-04 -9.2560513832168554e-06 0.0000000000000000e+00  -2.8527176279152561e-04 -1.1652804911872148e-05 0.0000000000000000e+00  -3.5319157670618074e-04 -1.4712383476703572e-05 0.0000000000000000e+00  -4.3629921902900410e-04 -1.8715818056672698e-05 0.0000000000000000e+00  -5.3825814556203075e-04 -2.4101800930218176e-05 0.0000000000000000e+00  -6.6347285952705328e-04 -3.1552075781611067e-05 0.0000000000000000e+00  -8.1712786599347296e-04 -4.2075463713938395e-05 0.0000000000000000e+00  -1.0050960966003445e-03 -5.6973143088935237e-05 0.0000000000000000e+00  -1.2335326030249389e-03 -7.7348495542388596e-05 0.0000000000000000e+00  0.0000000000000000e+00 0.0000000000000000e+00 0.0000000000000000e+00  -1.7566353054554180e-05 -6.9089403069799175e-07 0.0000000000000000e+00  -3.5869789182070738e-05 -1.4108698435303177e-06 0.0000000000000000e+00  -5.5683531269365369e-05 -2.1905039570757132e-06 0.0000000000000000e+00  -7.7857905453126115e-05 -3.0636174053471587e-06 0.0000000000000000e+00  -1.0336564058167401e-04 -4.0693708265780866e-06 0.0000000000000000e+00  -1.3335595265677331e-04 -5.2551266399273237e-06 0.0000000000000000e+00  -1.6922136165706310e-04 -6.6807883207483193e-06 0.0000000000000000e+00  -2.1268201295079767e-04 -8.4260488462978361e-06 0.0000000000000000e+00  -2.6589315333013457e-04 -1.0603509117028394e-05 0.0000000000000000e+00  -3.3158209228749581e-04 -1.3383771836504258e-05 0.0000000000000000e+00  -4.1322103732485248e-04 -1.7044754262181004e-05 0.0000000000000000e+00  -5.1524115632817105e-04 -2.2068319585713263e-05 0.0000000000000000e+00  -6.4329134073361357e-04 -2.9322715739002640e-05 0.0000000000000000e+00  -8.0454553305943843e-04 -4.0377029380508893e-05 0.0000000000000000e+00  -1.0080722015796764e-03 -5.7933435590449272e-05 0.0000000000000000e+00  -1.2653073193850946e-03 -8.6061557451656330e-05 0.0000000000000000e+00  0.0000000000000000e+00 0.0000000000000000e+00 0.0000000000000000e+00  -1.5098394868698935e-05 -5.9176715765017727e-07 0.0000000000000000e+00  -3.0850014143048567e-05 -1.2085122691654424e-06 0.0000000000000000e+00  -4.7943049008046222e-05 -1.8763470924602310e-06 0.0000000000000000e+00  -6.7141197034943564e-05 -2.6238078010841578e-06 0.0000000000000000e+00  -8.9329426534564773e-05 -3.4832198435278485e-06 0.0000000000000000e+00  -1.1557044929302284e-04 -4.4923013336006266e-06 0.0000000000000000e+00  -1.4717723804141957e-04 -5.6962525010822769e-06 0.0000000000000000e+00  -1.8580856149049205e-04 -7.1509841088163197e-06 0.0000000000000000e+00  -2.3359662500444696e-04 -8.9292865800770946e-06 0.0000000000000000e+00  -2.9331841656764289e-04 -1.1134853267033422e-05 0.0000000000000000e+00  -3.6862512098746785e-04 -1.3937122533084562e-05 0.0000000000000000e+00  -4.6434725631774247e-04 -1.7659652286061873e-05 0.0000000000000000e+00  -5.8690032960358673e-04 -2.2999811741907078e-05 0.0000000000000000e+00  -7.4484458572280678e-04 -3.1548569859580744e-05 0.0000000000000000e+00  -9.4976911257407641e-04 -4.6903131552089048e-05 0.0000000000000000e+00  -1.2178579495633896e-03 -7.6265679092315559e-05 0.0000000000000000e+00  0.0000000000000000e+00 0.0000000000000000e+00 0.0000000000000000e+00  -1.1970550053748723e-05 -4.6740419532308996e-07 0.0000000000000000e+00  -2.4472619992726218e-05 -9.5443490146410925e-07 0.0000000000000000e+00  -3.8068295210085952e-05 -1.4814282938485201e-06 0.0000000000000000e+00  -5.3386258460159335e-05 -2.0701658738469049e-06 0.0000000000000000e+00  -7.1163191888916658e-05 -2.7443679239939683e-06 0.0000000000000000e+00  -9.2296213864460943e-05 -3.5297355725029298e-06 0.0000000000000000e+00  -1.1791222777989006e-04 -4.4530244263339553e-06 0.0000000000000000e+00  -1.4946218773777376e-04 -5.5391977857994578e-06 0.0000000000000000e+00  -1.8885113749141165e-04 -6.8051228784272719e-06 0.0000000000000000e+00  -2.3861836911456458e-04 -8.2480214786368483e-06 0.0000000000000000e+00  -3.0218591995871940e-04 -9.8292402269441451e-06 0.0000000000000000e+00  -3.8419797796403004e-04 -1.1467330115261323e-05 0.0000000000000000e+00  -4.9098239554691786e-04 -1.3107467675312163e-05 0.0000000000000000e+00  -6.3120697178118779e-04 -1.5120952214361564e-05 0.0000000000000000e+00  -8.1709387441631764e-04 -1.9955408097414885e-05 0.0000000000000000e+00  -1.0689918831200895e-03 -3.8940770009311626e-05 0.0000000000000000e+00  0.0000000000000000e+00 0.0000000000000000e+00 0.0000000000000000e+00  -8.3041565690970127e-06 -3.2314539634723333e-07 0.0000000000000000e+00  -1.6984627600787985e-05 -6.5974384085403919e-07 0.0000000000000000e+00  -2.6440604110549187e-05 -1.0235967543831246e-06 0.0000000000000000e+00  -3.7121442315547523e-05 -1.4291345801727152e-06 0.0000000000000000e+00  -4.9558492483309913e-05 -1.8912741207626324e-06 0.0000000000000000e+00  -6.4406245772787680e-05 -2.4243776612300361e-06 0.0000000000000000e+00  -8.2497994152873081e-05 -3.0391933685264701e-06 0.0000000000000000e+00  -1.0492320413249227e-04 -3.7353250216097147e-06 0.0000000000000000e+00  -1.3313628682392543e-04 -4.4838692907117929e-06 0.0000000000000000e+00  -1.6910859145275017e-04 -5.1885272236886028e-06 0.0000000000000000e+00  -2.1553486049885641e-04 -5.5998910804194348e-06 0.0000000000000000e+00  -2.7609707764379563e-04 -5.1291028736506427e-06 0.0000000000000000e+00  -3.5576505032349799e-04 -2.4498880999888006e-06 0.0000000000000000e+00  -4.6105027081699016e-04 5.3270674763250942e-06 0.0000000000000000e+00  -5.9979231439027264e-04 2.4247107888276739e-05 0.0000000000000000e+00  -7.7833324784960464e-04 6.5661296170516355e-05 0.0000000000000000e+00  0.0000000000000000e+00 0.0000000000000000e+00 0.0000000000000000e+00  -4.2538997132329393e-06 -1.6514436384322491e-07 0.0000000000000000e+00  -8.7032950131206723e-06 -3.3711827754754691e-07 0.0000000000000000e+00  -1.3556041314544461e-05 -5.2287337593642911e-07 0.0000000000000000e+00  -1.9047210621982941e-05 -7.2953307974560022e-07 0.0000000000000000e+00  -2.5456633669659383e-05 -9.6411286835743509e-07 0.0000000000000000e+00  -3.3131939158793030e-05 -1.2325072047128643e-06 0.0000000000000000e+00  -4.2520260277120243e-05 -1.5367699992192165e-06 0.0000000000000000e+00  -5.4212988299251222e-05 -1.8684066811172948e-06 0.0000000000000000e+00  -6.9008970698681253e-05 -2.1922098599580712e-06 0.0000000000000000e+00  -8.7999869238783690e-05 -2.4072599784335243e-06 0.0000000000000000e+00  -1.1266707843575871e-04 -2.2519052591456957e-06 0.0000000000000000e+00  -1.4491676357279717e-04 -1.0709248643182718e-06 0.0000000000000000e+00  -1.8674951570963190e-04 2.7461348686369308e-06 0.0000000000000000e+00  -2.3853315187129351e-04 1.3027564133779217e-05 0.0000000000000000e+00  -2.9309004248037694e-04 3.8096125704476527e-05 0.0000000000000000e+00  -3.2163723875719446e-04 9.2071163969690371e-05 0.0000000000000000e+00  0.0000000000000000e+00 0.0000000000000000e+00 0.0000000000000000e+00  0.0000000000000000e+00 0.0000000000000000e+00 0.0000000000000000e+00  0.0000000000000000e+00 0.0000000000000000e+00 0.0000000000000000e+00  0.0000000000000000e+00 0.0000000000000000e+00 0.0000000000000000e+00  0.0000000000000000e+00 0.0000000000000000e+00 0.0000000000000000e+00  0.0000000000000000e+00 0.00000