<?xml version="1.0"?>
<VTKFile type="UnstructuredGrid"  version="0.1"  >
<UnstructuredGrid>
<Piece  NumberOfPoints="289" NumberOfCells="512">
<Points>
<DataArray  type="Float64"  NumberOfComponents="3"  format="ascii">0 0 0  0.0625 0 0  0.125 0 0  0.1875 0 0  0.25 0 0  0.3125 0 0  0.375 0 0  0.4375 0 0  0.5 0 0  0.5625 0 0  0.625 0 0  0.6875 0 0  0.75 0 0  0.8125 0 0  0.875 0 0  0.9375 0 0  1 0 0  0 0.0625 0  0.0624871438573541 0.06248710041048693 0  0.1249738214994661 0.06247397635121314 0  0.1874595427598342 0.06246042370688111 0  0.2499437939572908 0.06244628718297539 0  0.312426028540524 0.0624314915872082 0  0.374905662185843 0.0624160804199869 0  0.4373820750805366 0.06240026177205905 0  0.4998546241091108 0.06238445803885845 0  0.5623226640740674 0.06236934979703558 0  0.62478556049755 0.06235589445211386 0  0.6872426147216496 0.06234528746343077 0  0.7496925963681668 0.06233882464512264 0  0.8121317120328632 0.0623376477819438 0  0.8745452498666552 0.06234253557951851 0  0.9368721053354809 0.06235483670086708 0  0.9988451538908723 0.06238571152833406 0  0 0.125 0  0.06247474188406 0.1249744204177025 0  0.1249485707351683 0.1249483680880431 0  0.1874205298814278 0.12492140825684 0  0.2498896215286693 0.1248931983266239 0  0.3123547933952854 0.1248635487369485 0  0.3748149382045204 0.1248325004021574 0  0.437268915605032 0.124800420501139 0  0.4997156111769261 0.1247681124519 0  0.5621540533080651 0.1247369245046183 0  0.6245836128336957 0.1247088214993989 0  0.6870043013222379 0.124686352909506 0  0.7494171281599827 0.1246724070779886 0  0.8118242978224322 0.1246695963526135 0  0.8742287473826051 0.1246790979760546 0  0.9366342152970942 0.1246987163219198 0  0.9990720808625365 0.1247180212523455 0  0 0.1875 0  0.06246326522669159 0.1874622110959483 0  0.1249251983366696 0.1874236572210685 0  0.1873844075961356 0.1873836232992081 0  0.2498394435131601 0.1873415178619436 0  0.3122887823248096 0.1872969590529344 0  0.3747308313143143 0.1872498894409469 0  0.4371639730942971 0.187200726520821 0  0.4995866768345969 0.1871505497104796 0  0.5619977210226639 0.1871013111179596 0  0.6243965964886853 0.187056030221139 0  0.6867841911670226 0.1870188816582601 0  0.7491639002520528 0.1869949919373805 0  0.8115433789915403 0.1869895819955845 0  0.8739374611736865 0.1870056982069979 0  0.9363744528606263 0.1870387379748545 0  0.9989151941490068 0.187063231919903 0  0 0.25 0  0.06245315805523299 0.249950767148162 0  0.1249046007010292 0.2499004191814929 0  0.1873525395836797 0.2498478936103519 0  0.2497951077393275 0.2497922634603641 0  0.3122303360385251 0.2497328394170426 0  0.3746561574741257 0.2496693155583731 0  0.4370704616064145 0.2496019746259664 0  0.4994712355989833 0.2495319663931023 0  0.5618568492040144 0.2494616632218089 0  0.6242265696148754 0.2493950724515454 0  0.6865814264959321 0.2493382316371717 0  0.7489255817794503 0.2492994054914767 0  0.8112683929210307 0.2492887043583074 0  0.8736274615103929 0.2493164112932328 0  0.9360334400191738 0.2493889035999212 0  0.9985385262545623 0.2495013350736783 0  0 0.3125 0  0.06244482176561977 0.3124404405027423 0  0.1248875906174766 0.3123793536933612 0  0.1873261690822987 0.3123152548977508 0  0.2497583124555437 0.3122467789323039 0  0.3121816310523075 0.3121727831253256 0  0.3745935812689504 0.3120925085772734 0  0.4369915096677006 0.3120058277986332 0  0.4993727896704382 0.3119136125554401 0  0.5617351118699367 0.3118182583983042 0  0.6240770146835791 0.3117243944980095 0  0.6863987650747116 0.3116397736024704 0  0.7487037058118333 0.3115762482458141 0  0.8110001689765026 0.3115505497596148 0  0.8733040745349875 0.311584246748934 0  0.9356426574386603 0.3117017881616167 0  0.9980609640824 0.3119251623644697 0  0 0.375 0  0.0624385979282733 0.3749316440396256 0  0.1248748645590843 0.374861296021655 0  0.1873063737645651 0.3747869809365786 0  0.2497305551463704 0.3747067918864651 0  0.3121446340119791 0.3746189716254088 0  0.3745455955150203 0.3745220619424872 0  0.4369301965394873 0.3744151613775961 0  0.499295065885228 0.3742983490770836 0  0.5616369575089181 0.3741733551017894 0  0.6239532509460248 0.3740445816364089 0  0.6862428186966657 0.3739205928464746 0  0.7485073837978553 0.3738161610833246 0  0.810753453635561 0.3737548133200047 0  0.8729948693663323 0.3737714401764982 0  0.935256150560611 0.373913758775577 0  0.99757760540499 0.3742402136555506 0  0 0.4375 0  0.06243475063353856 0.4374248417320729 0  0.1248669673272938 0.437347200351855 0  0.1872940127900527 0.4372645675625277 0  0.2497130627138427 0.4371744127774931 0  0.3121210167411843 0.4370742150300251 0  0.3745144233998614 0.4369615609381476 0  0.4368894400373139 0.4368343567465277 0  0.4992418695339835 0.4366912320560395 0  0.5615673498305188 0.4365322594276308 0  0.6238618233839816 0.4363601831876371 0  0.6861224782352787 0.4361824429429333 0  0.7483494094962416 0.4360143716578725 0  0.8105482478131122 0.4358839627666101 0  0.8727338611002384 0.4358383202163972 0  0.934934936659412 0.4359509211014594 0  0.9971991320456574 0.4363267205084252 0  0 0.5 0  0.06243344984236049 0.4999205222224937 0  0.1248642570266151 0.49983808808763 0  0.187289669959011 0.4997496592959227 0  0.2497067074759575 0.4996520492062543 0  0.312112037396589 0.4995418754916716 0  0.3745018532833437 0.4994155598434753 0  0.43687176494443 0.4992694194059228 0  0.4992167440597132 0.4990999319646361 0  0.5615312182212001 0.4989043233882739 0  0.6238095031987804 0.4986817415633155 0  0.6860469246530606 0.4984354749430465 0  0.7482422066214783 0.4981769733895284 0  0.81040191207134 0.4979328095512626 0  0.872547628648528 0.4977559419304255 0  0.9347256506018753 0.4977419054298141 0  0.9970168726373057 0.4980472270267467 0  0 0.5625 0  0.06243475808612785 0.5624191548067006 0  0.1248668752236021 0.5623349576257806 0  0.1872936007017945 0.5622439094764199 0  0.2497119203212271 0.5621422144014095 0  0.3121184044093277 0.5620256291962067 0  0.3745090330445466 0.5618893215148218 0  0.4368790027450717 0.5617277619382143 0  0.4992225463186892 0.5615347097145844 0  0.5615328663205359 0.5613034209301185 0  0.6238024389204389 0.5610273468171205 0  0.6860242676196997 0.5607018672847673 0  0.7481952525096387 0.5603281458224253 0  0.8103236965145992 0.5599211812197271 0  0.8724436457679446 0.5595256442463455 0  0.9346376160547777 0.5592442593152116 0  0.9970630608696874 0.5592805976806824 0  0 0.625 0  0.06243862307138797 0.624921130101743 0  0.1248747279597843 0.6248386591397005 0  0.1873056927055435 0.6247487760738817 0  0.2497286162169325 0.6246472249845009 0  0.3121401449403297 0.6245290433945154 0  0.3745362529043691 0.6243882545137962 0  0.4369119598686858 0.6242175037316783 0  0.4992609898386938 0.6240076450590056 0  0.5615754375428302 0.62374732464772 0  0.6238457022068046 0.6234227137182282 0  0.6860614413855747 0.6230178053532097 0  0.7482154315401408 0.6225163406848347 0  0.8103144784061841 0.6219080269806873 0  0.8724049652475607 0.621205382236575 0  0.9346226881022509 0.6204841741543039 0  0.9972686015246939 0.6199632648458533 0  0 0.6875 0  0.06244487828396952 0.6874266919394504 0  0.1248874827712924 0.6873497474231297 0  0.1873254501330942 0.6872652722147585 0  0.249756148856133 0.6871688107414906 0  0.3121765022444915 0.6870549879052901 0  0.3745827445571786 0.6869170461443884 0  0.4369700695137433 0.6867462236598069 0  0.4993321209055421 0.6865309029468901 0  0.5616602937992876 0.6862554412618567 0  0.6239429478501196 0.6858985916577327 0  0.6861651371026229 0.6854314925412985 0  0.7483110202017701 0.6848155590350199 0  0.8103753466730439 0.6840020381229936 0  0.8724001468896755 0.6829403167841528 0  0.9345681002647314 0.6816200549310119 0  0.9973833103193535 0.6802069127974335 0  0 0.75 0  0.06245325258546495 0.7499358712909874 0  0.1249045850625326 0.7498683358453688 0  0.1873520098635748 0.7497937095663099 0  0.2497933119209241 0.7497076935589558 0  0.3122258921998077 0.7496049609658783 0  0.3746465375958293 0.7494785933659276 0  0.4370510556167342 0.7493192733093752 0  0.499433665427112 0.7491140889090792 0  0.5617859651269168 0.7488447205168035 0  0.6240952257583378 0.7484846308728642 0  0.6863418742850871 0.7479946176258676 0  0.7484970906314081 0.7473156413056139 0  0.8105262948612936 0.7463573238819209 0  0.872422184732078 0.7449818459485552 0  0.9343448792649505 0.7430017297602759 0  0.9969918822754629 0.7403715557440333 0  0 0.8125 0  0.06246338821662908 0.8124484358594185 0  0.1249252941978738 0.8123939816537538 0  0.1873841946806823 0.812333487935968 0  0.2498384033902983 0.8122632234107372 0  0.3122859584472318 0.8121784701896307 0  0.3747244502974254 0.8120729528366554 0  0.4371507279243531 0.8119379895131745 0  0.499560350782715 0.8117611838763934 0  0.5619464995687552 0.8115243514714823 0  0.6242977282302044 0.8112001398796918 0  0.6865932815575431 0.8107463226321857 0  0.7487936738811736 0.8100956401661882 0  0.8108242306924494 0.8091361558055855 0  0.8725612292065479 0.8076687829257158 0  0.933922146160614 0.8053046902948241 0  0.9958251525043826 0.8012068583208507 0  0 0.875 0  0.06247486481958065 0.8749638689166284 0  0.1249487355831639 0.8749256336411996 0  0.1874206015448056 0.8748829884387189 0  0.2498893612809792 0.8748331719331219 0  0.3123537646954512 0.8747726429543816 0  0.3748123262235424 0.8746966136594453 0  0.4372631719221344 0.8745983403873309 0  0.4997037270582068 0.8744680084136339 0  0.5621300022265888 0.8742909344536692 0  0.6245348333852115 0.8740446137453993 0  0.6869033179616726 0.8736937784758242 0  0.7492005588013847 0.8731818698561019 0  0.8113379224665414 0.872415085108846 0  0.8730787765440989 0.8712259639585845 0  0.9337778948278601 0.8692593146538614 0  0.9917429627142036 0.8654910477197025 0  0 0.9375 0  0.06248722547371019 0.9374813871467852 0  0.1249739602736185 0.9374616652528188 0  0.1874597120685506 0.9374396150043762 0  0.2499439571977558 0.9374137666645446 0  0.3124261263120806 0.9373822195611501 0  0.3749055885816747 0.9373423789602618 0  0.4373816285671515 0.93729
[...]
<PointData  Vectors="f_54"> 
<DataArray  type="Float64"  Name="f_54"  NumberOfComponents="3" format="ascii">0.0000000000000000e+00 0.0000000000000000e+00 0.0000000000000000e+00  0.0000000000000000e+00 0.0000000000000000e+00 0.0000000000000000e+00  0.0000000000000000e+00 0.0000000000000000e+00 0.0000000000000000e+00  0.0000000000000000e+00 0.0000000000000000e+00 0.0000000000000000e+00  0.0000000000000000e+00 0.0000000000000000e+00 0.0000000000000000e+00  0.0000000000000000e+00 0.0000000000000000e+00 0.0000000000000000e+00  0.0000000000000000e+00 0.0000000000000000e+00 0.0000000000000000e+00  0.0000000000000000e+00 0.0000000000000000e+00 0.0000000000000000e+00  0.0000000000000000e+00 0.0000000000000000e+00 0.0000000000000000e+00  0.0000000000000000e+00 0.0000000000000000e+00 0.0000000000000000e+00  0.0000000000000000e+00 0.0000000000000000e+00 0.0000000000000000e+00  0.0000000000000000e+00 0.0000000000000000e+00 0.0000000000000000e+00  0.0000000000000000e+00 0.0000000000000000e+00 0.0000000000000000e+00  0.0000000000000000e+00 0.0000000000000000e+00 0.0000000000000000e+00  0.0000000000000000e+00 0.0000000000000000e+00 0.0000000000000000e+00  0.0000000000000000e+00 0.0000000000000000e+00 0.0000000000000000e+00  0.0000000000000000e+00 0.0000000000000000e+00 0.0000000000000000e+00  0.0000000000000000e+00 0.0000000000000000e+00 0.0000000000000000e+00  4.5543019504180517e-06 2.5396857369025507e-08 0.0000000000000000e+00  9.2270730577508940e-06 5.1504371324960661e-08 0.0000000000000000e+00  1.4135862807342146e-05 7.9038687587282181e-08 0.0000000000000000e+00  1.9392078081710575e-05 1.0870476790639827e-07 0.0000000000000000e+00  2.5095797717652859e-05 1.4118323882567635e-07 0.0000000000000000e+00  3.1327803140236818e-05 1.7710557675340285e-07 0.0000000000000000e+00  3.8137686530491125e-05 2.1700820594903547e-07 0.0000000000000000e+00  4.5526817951519929e-05 2.6124527485545166e-07 0.0000000000000000e+00  5.3425041946962279e-05 3.0981362206657017e-07 0.0000000000000000e+00  6.1660531233678726e-05 3.6198130125029122e-07 0.0000000000000000e+00  6.9924090282589988e-05 4.1546221474599936e-07 0.0000000000000000e+00  7.7735160658622081e-05 4.6448976269937439e-07 0.0000000000000000e+00  8.4437186550050274e-05 4.9491281475519511e-07 0.0000000000000000e+00  8.9326034375113343e-05 4.6961902793753594e-07 0.0000000000000000e+00  9.2315769955249541e-05 2.7584078229333528e-07 0.0000000000000000e+00  9.6729852456408686e-05 -4.9394125858501410e-07 0.0000000000000000e+00  0.0000000000000000e+00 0.0000000000000000e+00 0.0000000000000000e+00  8.9863927810851548e-06 5.0062197342012345e-08 0.0000000000000000e+00  1.8212240167416310e-05 1.0154906724257790e-07 0.0000000000000000e+00  2.7915817671467047e-05 1.5589810517497225e-07 0.0000000000000000e+00  3.8324857724092104e-05 2.1453076606555334e-07 0.0000000000000000e+00  4.9647193713523935e-05 2.7883122928044909e-07 0.0000000000000000e+00  6.2055976961470369e-05 3.5010616912749109e-07 0.0000000000000000e+00  7.5667162861781846e-05 4.2951325498255132e-07 0.0000000000000000e+00  9.0506683634975049e-05 5.1793343594853058e-07 0.0000000000000000e+00  1.0646461326366629e-04 6.1573008022173263e-07 0.0000000000000000e+00  1.2323391152645077e-04 7.2226463215546684e-07 0.0000000000000000e+00  1.4023228876905181e-04 8.3489437251785833e-07 0.0000000000000000e+00  1.5650736580959511e-04 9.4699215295570061e-07 0.0000000000000000e+00  1.7062524229053634e-04 1.0447944335681674e-06 0.0000000000000000e+00  1.8052410927326776e-04 1.1067286411230715e-06 0.0000000000000000e+00  1.8318107489857631e-04 1.1332268861275366e-06 0.0000000000000000e+00  1.7316433683131451e-04 1.3681117476560522e-06 0.0000000000000000e+00  0.0000000000000000e+00 0.0000000000000000e+00 0.0000000000000000e+00  1.3173687043683751e-05 7.3273153076761762e-08 0.0000000000000000e+00  2.6712220117250637e-05 1.4869008123006896e-07 0.0000000000000000e+00  4.0980284985562639e-05 2.2841802292828310e-07 0.0000000000000000e+00  5.6331016474170186e-05 3.1461453720362019e-07 0.0000000000000000e+00  7.3094473729390719e-05 4.0940570445002849e-07 0.0000000000000000e+00  9.1558363239174626e-05 5.1484272847690201e-07 0.0000000000000000e+00  1.1193753648199747e-04 6.3282978476773747e-07 0.0000000000000000e+00  1.3432817261584441e-04 7.6501270999192241e-07 0.0000000000000000e+00  1.5864202248404719e-04 9.1260242540745796e-07 0.0000000000000000e+00  1.8451580875862952e-04 1.0760516271696414e-06 0.0000000000000000e+00  2.1119087932721563e-04 1.2543362173432993e-06 0.0000000000000000e+00  2.3735779463667089e-04 1.4431247450462595e-06 0.0000000000000000e+00  2.6095650622526007e-04 1.6297879761959825e-06 0.0000000000000000e+00  2.7890527778260928e-04 1.7788717370135986e-06 0.0000000000000000e+00  2.8667948906657719e-04 1.7840283809417327e-06 0.0000000000000000e+00  2.7758424080981977e-04 1.2750821491650058e-06 0.0000000000000000e+00  0.0000000000000000e+00 0.0000000000000000e+00 0.0000000000000000e+00  1.6989550660348401e-05 9.4303851305350306e-08 0.0000000000000000e+00  3.4473987960088624e-05 1.9147195689145494e-07 0.0000000000000000e+00  5.2950835782394918e-05 2.9440701358965126e-07 0.0000000000000000e+00  7.2909857089674206e-05 4.0602282989143073e-07 0.0000000000000000e+00  9.4822271170363055e-05 5.2922888667755745e-07 0.0000000000000000e+00  1.1912046725999258e-04 6.6689091980728901e-07 0.0000000000000000e+00  1.4616364922046449e-04 8.2176853719054177e-07 0.0000000000000000e+00  1.7618375474643200e-04 9.9644627777237583e-07 0.0000000000000000e+00  2.0920486374919806e-04 1.1933019141933226e-06 0.0000000000000000e+00  2.4492840468584917e-04 1.4145897536449743e-06 0.0000000000000000e+00  2.8257611989586997e-04 1.6627148792567021e-06 0.0000000000000000e+00  3.2068324548655219e-04 1.9405833162816962e-06 0.0000000000000000e+00  3.5683584211246430e-04 2.2511084414497770e-06 0.0000000000000000e+00  3.8734984494869846e-04 2.5926529062621451e-06 0.0000000000000000e+00  4.0690505023747130e-04 2.9429225947878595e-06 0.0000000000000000e+00  4.0822290377775773e-04 3.2281473301260148e-06 0.0000000000000000e+00  0.0000000000000000e+00 0.0000000000000000e+00 0.0000000000000000e+00  2.0303208373728373e-05 1.1242996714670445e-07 0.0000000000000000e+00  4.1233921102370351e-05 2.2843493132533234e-07 0.0000000000000000e+00  6.3427169579826094e-05 3.5164895717471249e-07 0.0000000000000000e+00  8.7519800960967703e-05 4.8575582774481664e-07 0.0000000000000000e+00  1.1414409418049814e-04 6.3448589673868272e-07 0.0000000000000000e+00  1.4391103274237995e-04 8.0157970752128404e-07 0.0000000000000000e+00  1.7737778960795898e-04 9.9071916995389978e-07 0.0000000000000000e+00  2.1499226207544360e-04 1.2054573900902289e-06 0.0000000000000000e+00  2.5700550743762006e-04 1.4492536608559961e-06 0.0000000000000000e+00  3.0334102657015633e-04 1.7258844042117858e-06 0.0000000000000000e+00  3.5340874087025343e-04 2.0408150928365925e-06 0.0000000000000000e+00  4.0585252068288727e-04 2.4046249110726730e-06 0.0000000000000000e+00  4.5822562596667832e-04 2.8401729822520664e-06 0.0000000000000000e+00  5.0660321568551285e-04 3.3953596587601245e-06 0.0000000000000000e+00  5.4517633726249416e-04 4.1617920015255626e-06 0.0000000000000000e+00  5.6595293914681890e-04 5.2941510771216716e-06 0.0000000000000000e+00  0.0000000000000000e+00 0.0000000000000000e+00 0.0000000000000000e+00  2.2981942258966764e-05 1.2694049967960789e-07 0.0000000000000000e+00  4.6721741346215267e-05 2.5813643104952642e-07 0.0000000000000000e+00  7.1991812110981228e-05 3.9793086110011709e-07 0.0000000000000000e+00  9.9582107146011352e-05 5.5077886954156352e-07 0.0000000000000000e+00  1.3030224630799210e-04 7.2126599693135156e-07 0.0000000000000000e+00  1.6497378402312857e-04 9.1407428495998856e-07 0.0000000000000000e+00  2.0440671919051985e-04 1.1338764717039802e-06 0.0000000000000000e+00  2.4935188083849327e-04 1.3851592372776237e-06 0.0000000000000000e+00  3.0041763429865221e-04 1.6720558459478642e-06 0.0000000000000000e+00  3.5793572174111602e-04 1.9985010595325518e-06 0.0000000000000000e+00  4.2175781134977364e-04 2.3696065367626216e-06 0.0000000000000000e+00  4.9096330797202404e-04 2.7964588988716664e-06 0.0000000000000000e+00  5.6346342679273282e-04 3.3090712740557331e-06 0.0000000000000000e+00  6.3550099775892203e-04 3.9861721916155309e-06 0.0000000000000000e+00  7.0107363063877728e-04 5.0140487107976074e-06 0.0000000000000000e+00  7.5134572315629260e-04 6.7809844326386995e-06 0.0000000000000000e+00  0.0000000000000000e+00 0.0000000000000000e+00 0.0000000000000000e+00  2.4896016079494927e-05 1.3715872209391069e-07 0.0000000000000000e+00  5.0670226035446695e-05 2.7919024426199373e-07 0.0000000000000000e+00  7.8224258219126300e-05 4.3109437961909853e-07 0.0000000000000000e+00  1.0849863334112430e-04 5.9807703291734309e-07 0.0000000000000000e+00  1.4248752345914656e-04 7.8561053625515548e-07 0.0000000000000000e+00  1.8124588110947620e-04 9.9942178210799791e-07 0.0000000000000000e+00  2.2588334171319617e-04 1.2453494543202337e-06 0.0000000000000000e+00  2.7753608846184510e-04 1.5289827801630093e-06 0.0000000000000000e+00  3.3730324601307510e-04 1.8549844300394994e-06 0.0000000000000000e+00  4.0612824118093700e-04 2.2261018067901646e-06 0.0000000000000000e+00  4.8459844880208668e-04 2.6423606598504901e-06 0.0000000000000000e+00  5.7263020023727877e-04 3.1025254114919956e-06 0.0000000000000000e+00  6.6900495260498259e-04 3.6141710516425594e-06 0.0000000000000000e+00  7.7073183953191890e-04 4.2283897838953409e-06 0.0000000000000000e+00  8.7223250316931982e-04 5.1331406003804202e-06 0.0000000000000000e+00  9.6434948078136327e-04 6.8635032715415684e-06 0.0000000000000000e+00  0.0000000000000000e+00 0.0000000000000000e+00 0.0000000000000000e+00  2.5926433934966805e-05 1.4247490355211482e-07 0.0000000000000000e+00  5.2831018269294554e-05 2.9032914600324965e-07 0.0000000000000000e+00  8.1725352244024362e-05 4.4912025985809729e-07 0.0000000000000000e+00  1.1368530331299701e-04 6.2474229707440395e-07 0.0000000000000000e+00  1.4988185184064382e-04 8.2356333537329951e-07 0.0000000000000000e+00  1.9160862428747966e-04 1.0524945075574499e-06 0.0000000000000000e+00  2.4030196296556843e-04 1.3188987396115578e-06 0.0000000000000000e+00  2.9754574314872704e-04 1.6301454988505218e-06 0.0000000000000000e+00  3.6504727250336082e-04 1.9924285096458420e-06 0.0000000000000000e+00  4.4456165967867562e-04 2.4081613307045643e-06 0.0000000000000000e+00  5.3772956749979274e-04 2.8709514531756777e-06 0.0000000000000000e+00  6.4577844952165662e-04 3.3574528081607664e-06 0.0000000000000000e+00  7.6902547776686264e-04 3.8185729548838781e-06 0.0000000000000000e+00  9.0612354280817774e-04 4.1848750042008611e-06 0.0000000000000000e+00  1.0530240581788585e-03 4.4360156234085858e-06 0.0000000000000000e+00  1.2016666014515254e-03 4.8600856975541098e-06 0.0000000000000000e+00  0.0000000000000000e+00 0.0000000000000000e+00 0.0000000000000000e+00  2.5975207965569127e-05 1.4239347832805457e-07 0.0000000000000000e+00  5.2995985890162934e-05 2.9049893677964133e-07 0.0000000000000000e+00  8.2151357148373111e-05 4.5026473116384277e-07 0.0000000000000000e+00  1.1462116494274512e-04 6.2813276741580946e-07 0.0000000000000000e+00  1.5172493832134852e-04 8.3129405487179301e-07 0.0000000000000000e+00  1.9497388942396580e-04 1.0679301021562415e-06 0.0000000000000000e+00  2.4612484511114813e-04 1.3473668930631767e-06 0.0000000000000000e+00  3.0723164255236281e-04 1.6799303287549735e-06 0.0000000000000000e+00  3.8068335122670895e-04 2.0759510259573694e-06 0.0000000000000000e+00  4.6920771111360270e-04 2.5425670421336644e-06 0.0000000000000000e+00  5.7580005952450144e-04 3.0752436531212422e-06 0.0000000000000000e+00  7.0351143275608214e-04 3.6376787877292544e-06 0.0000000000000000e+00  8.5499894736895373e-04 4.1193802729641254e-06 0.0000000000000000e+00  1.0317292568871451e-03 4.2607210211588471e-06 0.0000000000000000e+00  1.2327923918488452e-03 3.5654121679654960e-06 0.0000000000000000e+00  1.4535280962490779e-03 1.3409308171038988e-06 0.0000000000000000e+00  0.0000000000000000e+00 0.0000000000000000e+00 0.0000000000000000e+00  2.4977287671032332e-05 1.3659484850565568e-07 0.0000000000000000e+00  5.1022482505017671e-05 2.7898828729276970e-07 0.0000000000000000e+00  7.9255400259948611e-05 4.3326721607777290e-07 0.0000000000000000e+00  1.1091039566497230e-04 6.0616253174886336e-07 0.0000000000000000e+00  1.4740269380436138e-04 8.0544189822900933e-07 0.0000000000000000e+00  1.9040590643077188e-04 1.0403956608720435e-06 0.0000000000000000e+00  2.4194411288702423e-04 1.3224453226992256e-06 0.0000000000000000e+00  3.0450028677226726e-04 1.6658487208639485e-06 0.0000000000000000e+00  3.8113844979750398e-04 2.0882385723753600e-06 0.0000000000000000e+00  4.7562673974701293e-04 2.6099073542556942e-06 0.0000000000000000e+00  5.9252753668051516e-04 3.2482027151541899e-06 0.0000000000000000e+00  7.3718200722907928e-04 3.9962140828212239e-06 0.0000000000000000e+00  9.1545579337818999e-04 4.7567994733618542e-06 0.0000000000000000e+00  1.1330487017303275e-03 5.1649021636431121e-06 0.0000000000000000e+00  1.3942064565854806e-03 4.1806877528220837e-06 0.0000000000000000e+00  1.7000746733217959e-03 -6.3870342926923161e-07 0.0000000000000000e+00  0.0000000000000000e+00 0.0000000000000000e+00 0.0000000000000000e+00  2.2912748957746757e-05 1.2500557315047740e-07 0.0000000000000000e+00  4.6859649766111582e-05 2.5558449794947239e-07 0.0000000000000000e+00  7.2931902817359212e-05 3.9762493363836848e-07 0.0000000000000000e+00  1.0235136762113243e-04 5.5775018527852318e-07 0.0000000000000000e+00  1.3655045027037498e-04 7.4381268364253742e-07 0.0000000000000000e+00  1.7727155222972763e-04 9.6559300365940397e-07 0.0000000000000000e+00  2.2669520964258919e-04 1.2358844364025380e-06 0.0000000000000000e+00  2.8760774282675600e-04 1.5723011898375700e-06 0.0000000000000000e+00  3.6361971680611075e-04 2.0004115901756698e-06 0.0000000000000000e+00  4.5944262792370463e-04 2.5590654600306506e-06 0.0000000000000000e+00  5.8121583018819938e-04 3.3082457684004742e-06 0.0000000000000000e+00  7.3683454489316543e-04 4.3347005674431662e-06 0.0000000000000000e+00  9.3614022273301911e-04 5.7269846171631622e-06 0.0000000000000000e+00  1.1906829096111668e-03 7.4047789361479534e-06 0.0000000000000000e+00  1.5126675128612087e-03 8.4417697153964425e-06 0.0000000000000000e+00  1.9134791484975663e-03 5.3615339232538623e-06 0.0000000000000000e+00  0.0000000000000000e+00 0.0000000000000000e+00 0.0000000000000000e+00  1.9817358419712872e-05 1.0786175879891029e-07 0.0000000000000000e+00  4.0571776766736797e-05 2.2072201029717038e-07 0.0000000000000000e+00  6.3257503595967886e-05 3.4387930013499443e-07 0.0000000000000000e+00  8.9003262608618961e-05 4.8335117758183554e-07 0.0000000000000000e+00  1.1915804231953408e-04 6.4636905008242036e-07 0.0000000000000000e+00  1.5540305913774931e-04 8.4210711166891581e-07 0.0000000000000000e+00  1.9990464910454086e-04 1.0828987141387648e-06 0.0000000000000000e+00  2.5552903116865219e-04 1.3865302044037612e-06 0.0000000000000000e+00  3.2614841179926679e-04 1.7810538572096398e-06 0.0000000000000000e+00  4.1707777506032404e-04 2.3156806020682910e-06 0.0000000000000000e+00  5.3568773097928824e-04 3.0862895471078708e-06 0.0000000000000000e+00  6.9222401139955347e-04 4.2940943458847719e-06 0.0000000000000000e+00  9.0078369893725936e-04 6.3667844757586911e-06 0.0000000000000000e+00  1.1801568837129174e-03 1.0121273840637461e-05 0.0000000000000000e+00  1.5537354833604295e-03 1.6378920712280608e-05 0.0000000000000000e+00  2.0480248068850291e-03 2.0083620358352684e-05 0.0000000000000000e+00  0.0000000000000000e+00 0.0000000000000000e+00 0.0000000000000000e+00  1.5789366243526565e-05 8.5744382252030007e-08 0.0000000000000000e+00  3.2354024675854021e-05 1.7557130650416886e-07 0.0000000000000000e+00  5.0520419688988414e-05 2.7380639003024270e-07 0.0000000000000000e+00  7.1237525383763847e-05 3.8536223866963087e-07 0.0000000000000000e+00  9.5657655326390127e-05 5.1611330732688369e-07 0.0000000000000000e+00  1.2524580193467883e-04 6.7339858733024983e-07 0.0000000000000000e+00  1.6193562697220992e-04 8.6677314391352735e-07 0.0000000000000000e+00  2.0836050450958319e-04 1.1093283531223528e-06 0.0000000000000000e+00  2.6820528252599103e-04 1.4205719318136932e-06 0.0000000000000000e+00  3.4675285993570557e-04 1.8341797552302404e-06 0.0000000000000000e+00  4.5174436802615791e-04 2.4219976883471191e-06 0.0000000000000000e+00  5.9473325089360359e-04 3.3735673632894736e-06 0.0000000000000000e+00  7.9316269951088783e-04 5.2658744668238736e-06 0.0000000000000000e+00  1.0732785836200364e-03 9.9821690033303837e-06 0.0000000000000000e+00  1.4730411002107820e-03 2.3893058063796311e-05 0.0000000000000000e+00  2.0372617609500888e-03 7.0448415305109883e-05 0.0000000000000000e+00  0.0000000000000000e+00 0.0000000000000000e+00 0.0000000000000000e+00  1.0990505226832894e-05 5.9568955283026859e-08 0.0000000000000000e+00  2.2535928397404402e-05 1.2202089345323387e-07 0.0000000000000000e+00  3.5229905946221346e-05 1.9039976165058310e-07 0.0000000000000000e+00  4.9759974615324273e-05 2.6813413969590579e-07 0.0000000000000000e+00  6.6971026970146297e-05 3.5923238508416383e-07 0.0000000000000000e+00  8.7953440341402084e-05 4.6843623992886495e-07 0.0000000000000000e+00  1.1417283553902863e-04 6.0118397431861383e-07 0.0000000000000000e+00  1.4766974687764197e-04 7.6295669563975051e-07 0.0000000000000000e+00  1.9137842320276555e-04 9.5688463996484482e-07 0.0000000000000000e+00  2.4965358950999102e-04 1.1768699001069000e-06 0.0000000000000000e+00  3.2917133190481359e-04 1.3903340638485769e-06 0.0000000000000000e+00  4.4052789374005892e-04 1.5019220797370147e-06 0.0000000000000000e+00  6.0120379018190507e-04 1.3083396109236807e-06 0.0000000000000000e+00  8.4139633125881119e-04 6.2150829277788743e-07 0.0000000000000000e+00  1.2165885175963360e-03 6.5320387653520140e-07 0.0000000000000000e+00  1.8392661053341492e-03 1.1872958673317198e-05 0.0000000000000000e+00  0.0000000000000000e+00 0.0000000000000000e+00 0.0000000000000000e+00  5.6398079755145975e-06 3.0527517060261632e-08 0.0000000000000000e+00  1.1569343610953129e-05 6.2544569512430296e-08 0.0000000000000000e+00  1.8099253621609392e-05 9.7617380314824116e-08 0.0000000000000000e+00  2.5591278599091408e-05 1.3749142273150177e-07 0.0000000000000000e+00  3.4493305911088138e-05 1.8415004192815200e-07 0.0000000000000000e+00  4.5388834167111924e-05 2.3976825914054931e-07 0.0000000000000000e+00  5.9071197236782493e-05 3.0631776202360399e-07 0.0000000000000000e+00  7.6660346605170890e-05 3.8408026152133515e-07 0.0000000000000000e+00  9.9794168114720523e-05 4.6679397430589089e-07 0.0000000000000000e+00  1.3095355278714029e-04 5.2630587757689008e-07 0.0000000000000000e+00  1.7403189437766058e-04 4.6372245422872196e-07 0.0000000000000000e+00  2.3534615194102207e-04 -4.9539638131411983e-08 0.0000000000000000e+00  3.2535769546895204e-04 -2.1014811565865821e-06 0.0000000000000000e+00  4.6091138230159201e-04 -9.3160610614452680e-06 0.0000000000000000e+00  6.6368073722356186e-04 -3.3420312766425858e-05 0.0000000000000000e+00  9.3073593411091993e-04 -1.0579240884370960e-04 0.0000000000000000e+00  0.0000000000000000e+00 0.0000000000000000e+00 0.0000000000000000e+00  0.0000000000000000e+00 0.0000000000000000e+00 0.0000000000000000e+00  0.0000000000000000e+00 0.0000000000000000e+00 0.0000000000000000e+00  0.0000000000000000e+00 0.0000000000000000e+00 0.0000000000000000e+00  0.0000000000000000e+00 0.0000000000000000e+00 0.0000000000000000e+00  0.0000000000000000e+00 0.0000000000000000e+00 0.0000000000000000e+00  0.0000000000000000e+00 0.0000000000000000e+00 0.0000000000000000e+00  0.0000000000000000e+00 0.0000000000000000e+00 0.0000000000000000e+00  0.0000000000000000e+00 0.0000000000000000e+00 0.0000000000000000e+00  0.0000000000000000e+00 0.0000000000000000e+00 0.0000000000000000e+00  0.0000000000000000e+00 0.0000000000000000e+00 0.0000000000000000e+00  0.0000000000000000e+00 0.0000000000000000e+00 0.0000000000000000e+00  0.000