<?xml version="1.0"?>
<VTKFile type="UnstructuredGrid"  version="0.1"  >
<UnstructuredGrid>
<Piece  NumberOfPoints="289" NumberOfCells="512">
<Points>
<DataArray  type="Float64"  NumberOfComponents="3"  format="ascii">0 0 0  0.0625 0 0  0.125 0 0  0.1875 0 0  0.25 0 0  0.3125 0 0  0.375 0 0  0.4375 0 0  0.5 0 0  0.5625 0 0  0.625 0 0  0.6875 0 0  0.75 0 0  0.8125 0 0  0.875 0 0  0.9375 0 0  1 0 0  0 0.0625 0  0.06246204934521158 0.06248734456793353 0  0.124923589486123 0.06247447096527149 0  0.187384187779936 0.06246118181540702 0  0.2498436241973108 0.0624473293848995 0  0.3123020378704111 0.06243284758547561 0  0.3747601278914299 0.06241779168624555 0  0.4372194365412758 0.06240238590925174 0  0.4996827580094141 0.06238707559353032 0  0.5621547494815782 0.06237257439942596 0  0.6246429048872016 0.06235988709502378 0  0.687159270903039 0.06235027482705448 0  0.7497238923245587 0.06234511623493989 0  0.8123727377770347 0.06234561954783707 0  0.8751781928763878 0.06235240880200859 0  0.9383068292245768 0.06236537393770568 0  1.00219083018175 0.06238722163807633 0  0 0.125 0  0.0624246295596781 0.124974901799025 0  0.1248481492259204 0.1249493430524672 0  0.1872695914499487 0.1249229019598817 0  0.249688387368796 0.1248952502716901 0  0.3121046447982356 0.1248662154525521 0  0.3745195315608337 0.1248358601788378 0  0.4369358160142813 0.1248045813287088 0  0.4993586377898621 0.1247732246869282 0  0.5617966235441885 0.1247432001689022 0  0.6242635509903831 0.1247165625522154 0  0.6867809564922526 0.1246959922028107 0  0.7493824836623513 0.1246845722595239 0  0.8121215019089524 0.1246852386450671 0  0.8750842955915272 0.1246998822836598 0  0.9384090450809255 0.1247286581520307 0  1.002292382532866 0.1247716164141019 0  0 0.1875 0  0.06238837446592311 0.1874629167631606 0  0.1247748602568066 0.1874250860310019 0  0.1871577529374254 0.1873858110311172 0  0.2495358743514698 0.1873445200934993 0  0.3119089474298684 0.1873008541899112 0  0.374278119506922 0.1872547843722977 0  0.4366467024630248 0.1872067665663394 0  0.4990212152268954 0.1871579351614062 0  0.5614128375314779 0.1871103231750563 0  0.6238394135911499 0.1870670692056971 0  0.686328170247067 0.1870325197532546 0  0.7489192737639659 0.1870120414738395 0  0.8116699865594985 0.1870111767931857 0  0.8746576646426335 0.1870333528755081 0  0.9379750981449682 0.1870740651952048 0  1.001701243097709 0.1871049218060745 0  0 0.25 0  0.06235409560389046 0.249951678797968 0  0.124705287502476 0.2499022645854458 0  0.1870508630168935 0.2498507175715793 0  0.2493886773115526 0.2497961344412985 0  0.3117175745523141 0.2497378518280506 0  0.3740379919429201 0.2496755946522358 0  0.4363528283892055 0.2496096861194981 0  0.4986686716179946 0.249541333980498 0  0.5609974798064286 0.2494729980575557 0  0.6233587847927731 0.2494088186083272 0  0.6857823740063649 0.2493550288838112 0  0.7483111038069629 0.2493201634299246 0  0.81100275734188 0.2493146697995085 0  0.873928274134986 0.2493492055415602 0  0.9371609558864284 0.2494305854542518 0  1.000748806008 0.2495552115724188 0  0 0.3125 0  0.06232283271272986 0.3124415351346003 0  0.1246414940266251 0.3123815693136049 0  0.1869519667646838 0.3123186442591931 0  0.2492507356436368 0.3122514209225284 0  0.3115351915249714 0.312178783035908 0  0.3738042437562305 0.3121000001082329 0  0.4360592386247457 0.31201497915314 0  0.4983052981913996 0.3119246407334932 0  0.5605531945962168 0.3118314579258935 0  0.6228218300802777 0.3117401881544327 0  0.6851412430982746 0.3116587900501542 0  0.7475557042803219 0.3115994184919098 0  0.8101257699862283 0.3115791825052547 0  0.8729270856809414 0.311619990461566 0  0.9360427718896025 0.3117463506496186 0  0.9995473875435591 0.3119797467064848 0  0 0.375 0  0.06229586280578555 0.3749328943636115 0  0.1245860693618871 0.374863827461397 0  0.18686503231596 0.3747908543312065 0  0.2491274790036122 0.3747120960939392 0  0.3113687645137254 0.3746258205714875 0  0.37358540456974 0.3745305913805203 0  0.4357759469418031 0.3744255273220969 0  0.4979423356983024 0.3743107325230127 0  0.5600919532416251 0.3741879820678255 0  0.62224052337243 0.3740617733250981 0  0.6844159686659173 0.3739408642293559 0  0.7466630442868216 0.3738403762725549 0  0.8090480130092703 0.3737843572215532 0  0.8716617980579429 0.3738082357867531 0  0.9346194288024404 0.3739597081400758 0  0.9980545485510798 0.374295289123135 0  0 0.4375 0  0.06227465961580039 0.4374262160175018 0  0.1245420543053496 0.4373499850905025 0  0.1867948542299583 0.4372688335690153 0  0.2490257332182652 0.4371802616272941 0  0.3112275079092646 0.4370817722656276 0  0.3733934842204691 0.436970965639795 0  0.4355181487358806 0.4368457477030928 0  0.4975984116413661 0.4367047338027479 0  0.559635700401428 0.436547978445479 0  0.6216393081762699 0.4363782379808825 0  0.6836314767863502 0.4362030720183603 0  0.7456546418016889 0.4360381812580814 0  0.807780908772111 0.4359123530475867 0  0.8701229662362349 0.4358739645701615 0  0.9328443798940966 0.4359976926242873 0  0.9961667508115898 0.4363875222661934 0  0 0.5 0  0.06226079921588457 0.499921983381128 0  0.1245127519655233 0.4998410536066232 0  0.1867467718318699 0.4997542136917549 0  0.2489533557940697 0.4996583133358389 0  0.3111224652976335 0.4995499966644843 0  0.3732435623187475 0.4994256940176989 0  0.435305940452933 0.499281701917244 0  0.4972995980884092 0.4991144346770039 0  0.5592170762579167 0.4989210032208949 0  0.6210569532690271 0.4987004054260768 0  0.6828300579615021 0.4984558312211727 0  0.7445698604872063 0.4981989213924537 0  0.8063486431788041 0.4979572172113153 0  0.8683002887912169 0.4977861434255209 0  0.9306479834337417 0.4977856022652854 0  0.9937315649841589 0.4981167062657608 0  0 0.5625 0  0.06225581302170827 0.5624206587452129 0  0.1245014248605198 0.5623380176683278 0  0.1867261951735534 0.5622486286241763 0  0.2489185763338636 0.5621487424066794 0  0.311065665803655 0.5620341526161128 0  0.3731528070334312 0.5619000421787048 0  0.435163344835057 0.5617408545601843 0  0.4970787713942549 0.5615502456133884 0  0.5588797488523254 0.5613212444594172 0  0.6205489530839888 0.5610469053641786 0  0.6820774729997879 0.5607220526098715 0  0.7434777135582529 0.5603473617936288 0  0.8048072038869583 0.5599381947562396 0  0.8662082689660883 0.5595423038330138 0  0.9279650370501156 0.5592713237928228 0  0.9905674282272646 0.5593455083133935 0  0 0.625 0  0.06226099695247715 0.6249226237872407 0  0.1245108929193817 0.6248417088833476 0  0.1867379527110178 0.6247535072015264 0  0.2489290406818796 0.6246538257350249 0  0.31106881097492 0.6245377606797575 0  0.3731387832111928 0.6243993780688484 0  0.4351163215384046 0.6242313240362499 0  0.4969736463397742 0.6240243579372893 0  0.5586772692282016 0.6237668366980722 0  0.6201888211870704 0.6234442833463214 0  0.6814694590912602 0.6230394646492499 0  0.742492412619012 0.6225341869045099 0  0.8032723564825631 0.62191602711051 0  0.8639256927489237 0.6211978734722716 0  0.9247770306891597 0.6204662692366514 0  0.9865093347509973 0.6199765731135339 0  0 0.6875 0  0.0622771955061821 0.6874281121400454 0  0.1245430686610547 0.6873526595765033 0  0.1867855100260927 0.6872698236812814 0  0.2489906082933522 0.6871752319855252 0  0.3111415103116428 0.6870636013971457 0  0.3732169680626697 0.6869282709808936 0  0.4351894476431473 0.68676056145229 0  0.4970227021741717 0.6865488707188706 0  0.5586688548985717 0.6862773750706566 0  0.6200655092047876 0.6859241629484174 0  0.6811347083253895 0.6854586441771615 0  0.7417888851293976 0.6848384284355586 0  0.8019567194317813 0.6840076327056903 0  0.8616578150479285 0.6829056152308655 0  0.9211772299809386 0.6815188523020249 0  0.981371638673592 0.6800498689393645 0  0 0.75 0  0.06230459078324899 0.7499371453816349 0  0.1245984918976215 0.7498709608791387 0  0.1868701571132072 0.7497978469853832 0  0.2491060341676183 0.7497136064101396 0  0.3112892135714716 0.7496130415898116 0  0.3733975816536581 0.7494894030367435 0  0.4354011864033746 0.7493335909637565 0  0.4972584048803823 0.7491329508286695 0  0.5589103706916881 0.748869386738649 0  0.6202731043568466 0.7485162881280252 0  0.6812273473294611 0.74803331061428 0  0.7416087361395509 0.7473571968628917 0  0.8012103101084027 0.7463856466292228 0  0.8598389117021608 0.744952611537643 0  0.9175488368863483 0.7428209113938505 0  0.9752543318941147 0.739964826847644 0  0 0.8125 0  0.06234253612851248 0.81244948607741 0  0.1246759507254589 0.8123961557210617 0  0.1869903128916547 0.8123369437416035 0  0.249273767130364 0.8122682278084793 0  0.3115111764653748 0.8121854439835317 0  0.3736821750478704 0.8120825480854522 0  0.4357582160208968 0.8119512193938371 0  0.4976979275817763 0.8117796353422952 0  0.5594396139097392 0.811550513270419 0  0.6208889369315398 0.8112378305511148 0  0.6818986072830352 0.810800947380254 0  0.7422357414187183 0.8101730134090337 0  0.8015347806455275 0.8092352304940473 0  0.8592572296426604 0.8077526579906371 0  0.9148155585684831 0.8051970535176565 0  0.9688817224630434 0.8001768250619991 0  0 0.875 0  0.06238947748280049 0.8749646206558874 0  0.1247722874142278 0.874927196216584 0  0.1871411287903861 0.8748854906845621 0  0.249487179198331 0.8748368380254438 0  0.3117989880339493 0.8747778421289533 0  0.3740608351350427 0.8747039539991089 0  0.4362501402107668 0.8746088480821455 0  0.4983331768302861 0.8744834792920377 0  0.5602576837198091 0.8743146418059087 0  0.621939607364242 0.8740827619559577 0  0.6832383151802129 0.8737585025631815 0  0.7439082204233513 0.8732972822731132 0  0.8035002144562718 0.8726285526546879 0  0.8611538833691403 0.8716252456804279 0  0.915164688906469 0.8699844426399315 0  0.9622332368234718 0.8666798989030574 0  0 0.9375 0  0.06244299793814077 0.9374817802369667 0  0.124882474472808 0.9374624846635745 0  0.1873145607916199 0.9374409339771453 0  0.2497345489428445 0.9374157151091786 0  0.312136270647469 0.9373850176497954 0  0.3745111593516821 0.9373464039847037 0  0.4368467372678667 0.9372964751879018 
[...]
<PointData  Vectors="f_54"> 
<DataArray  type="Float64"  Name="f_54"  NumberOfComponents="3" format="ascii">0.0000000000000000e+00 0.0000000000000000e+00 0.0000000000000000e+00  0.0000000000000000e+00 0.0000000000000000e+00 0.0000000000000000e+00  0.0000000000000000e+00 0.0000000000000000e+00 0.0000000000000000e+00  0.0000000000000000e+00 0.0000000000000000e+00 0.0000000000000000e+00  0.0000000000000000e+00 0.0000000000000000e+00 0.0000000000000000e+00  0.0000000000000000e+00 0.0000000000000000e+00 0.0000000000000000e+00  0.0000000000000000e+00 0.0000000000000000e+00 0.0000000000000000e+00  0.0000000000000000e+00 0.0000000000000000e+00 0.0000000000000000e+00  0.0000000000000000e+00 0.0000000000000000e+00 0.0000000000000000e+00  0.0000000000000000e+00 0.0000000000000000e+00 0.0000000000000000e+00  0.0000000000000000e+00 0.0000000000000000e+00 0.0000000000000000e+00  0.0000000000000000e+00 0.0000000000000000e+00 0.0000000000000000e+00  0.0000000000000000e+00 0.0000000000000000e+00 0.0000000000000000e+00  0.0000000000000000e+00 0.0000000000000000e+00 0.0000000000000000e+00  0.0000000000000000e+00 0.0000000000000000e+00 0.0000000000000000e+00  0.0000000000000000e+00 0.0000000000000000e+00 0.0000000000000000e+00  0.0000000000000000e+00 0.0000000000000000e+00 0.0000000000000000e+00  0.0000000000000000e+00 0.0000000000000000e+00 0.0000000000000000e+00  -3.2393709994762729e-06 -1.5059852877638994e-07 0.0000000000000000e+00  -6.5833051783365398e-06 -3.0456321184107129e-07 0.0000000000000000e+00  -1.0139063336534391e-05 -4.6509382220046113e-07 0.0000000000000000e+00  -1.4016797660470152e-05 -6.3489380327084219e-07 0.0000000000000000e+00  -1.8330644331866605e-05 -8.1578809076120223e-07 0.0000000000000000e+00  -2.3199417611239673e-05 -1.0081664886838443e-06 0.0000000000000000e+00  -2.8747079529390097e-05 -1.2101794892355288e-06 0.0000000000000000e+00  -3.5103847884857037e-05 -1.4166036901927861e-06 0.0000000000000000e+00  -4.2410659298705943e-05 -1.6172741666566761e-06 0.0000000000000000e+00  -5.0834713541652347e-05 -1.7948980281441858e-06 0.0000000000000000e+00  -6.0617864461981909e-05 -1.9216881807390177e-06 0.0000000000000000e+00  -7.2221396073818340e-05 -1.9526723864526997e-06 0.0000000000000000e+00  -8.6764553402048848e-05 -1.8070373617965821e-06 0.0000000000000000e+00  -1.0741884133000846e-04 -1.3018805673292338e-06 0.0000000000000000e+00  -1.4417873929857861e-04 1.1442110879984999e-07 0.0000000000000000e+00  -2.3187658241269742e-04 4.5358733033062391e-06 0.0000000000000000e+00  0.0000000000000000e+00 0.0000000000000000e+00 0.0000000000000000e+00  -6.3688614053515532e-06 -2.9758456443107898e-07 0.0000000000000000e+00  -1.2944949245538727e-05 -6.0211043577592355e-07 0.0000000000000000e+00  -1.9940900961801789e-05 -9.2023481311674281e-07 0.0000000000000000e+00  -2.7575448681556596e-05 -1.2577355002263446e-06 0.0000000000000000e+00  -3.6075697961704460e-05 -1.6188146771125178e-06 0.0000000000000000e+00  -4.5678410776539735e-05 -2.0050650946049478e-06 0.0000000000000000e+00  -5.6630229825971837e-05 -2.4139535984135504e-06 0.0000000000000000e+00  -6.9187453250111447e-05 -2.8366643607681850e-06 0.0000000000000000e+00  -8.3617722474499045e-05 -3.2551519799787391e-06 0.0000000000000000e+00  -1.0021023971265082e-04 -3.6383023430267346e-06 0.0000000000000000e+00  -1.1931092850220024e-04 -3.9372271691274183e-06 0.0000000000000000e+00  -1.4141996875444298e-04 -4.0801408553521080e-06 0.0000000000000000e+00  -1.6742667654590486e-04 -3.9694343414538636e-06 0.0000000000000000e+00  -1.9907899850321370e-04 -3.4964939605824800e-06 0.0000000000000000e+00  -2.3947361741642685e-04 -2.6662391026593979e-06 0.0000000000000000e+00  -2.9057463823486089e-04 -2.3672825995909883e-06 0.0000000000000000e+00  0.0000000000000000e+00 0.0000000000000000e+00 0.0000000000000000e+00  -9.2846348620863496e-06 -4.3732725082458545e-07 0.0000000000000000e+00  -1.8875625235808854e-05 -8.8554844158109371e-07 0.0000000000000000e+00  -2.9087515837559727e-05 -1.3552463268515268e-06 0.0000000000000000e+00  -4.0244837528772751e-05 -1.8559541889603682e-06 0.0000000000000000e+00  -5.2685879394477385e-05 -2.3952746461252354e-06 0.0000000000000000e+00  -6.6764692984656868e-05 -2.9775186925257749e-06 0.0000000000000000e+00  -8.2850618766794999e-05 -3.6016416008513737e-06 0.0000000000000000e+00  -1.0132467004194091e-04 -4.2582206828203840e-06 0.0000000000000000e+00  -1.2257238827393196e-04 -4.9252294287952423e-06 0.0000000000000000e+00  -1.4697333742096945e-04 -5.5624869733022406e-06 0.0000000000000000e+00  -1.7488753656266453e-04 -6.1050550973424574e-06 0.0000000000000000e+00  -2.0663476631782249e-04 -6.4568321437934284e-06 0.0000000000000000e+00  -2.4243700453607407e-04 -6.4877029495452192e-06 0.0000000000000000e+00  -2.8218842419322861e-04 -6.0407418463669728e-06 0.0000000000000000e+00  -3.2456001228756430e-04 -4.9491055104427310e-06 0.0000000000000000e+00  -3.6403263115743705e-04 -2.9416673701400469e-06 0.0000000000000000e+00  0.0000000000000000e+00 0.0000000000000000e+00 0.0000000000000000e+00  -1.1886624330038046e-05 -5.6582656764584618e-07 0.0000000000000000e+00  -2.4173197646871248e-05 -1.1469429232386212e-06 0.0000000000000000e+00  -3.7270765940293680e-05 -1.7584233653421064e-06 0.0000000000000000e+00  -5.1605339453998593e-05 -2.4144169752582307e-06 0.0000000000000000e+00  -6.7623817969989078e-05 -3.1272676571891497e-06 0.0000000000000000e+00  -8.5797485059473604e-05 -3.9060520132743032e-06 0.0000000000000000e+00  -1.0662164581260814e-04 -4.7542264881706235e-06 0.0000000000000000e+00  -1.3060929465837245e-04 -5.6659880951921877e-06 0.0000000000000000e+00  -1.5827548581094601e-04 -6.6208854122253527e-06 0.0000000000000000e+00  -1.9010663125222389e-04 -7.5762533946074648e-06 0.0000000000000000e+00  -2.2650335707094255e-04 -8.4573766631500149e-06 0.0000000000000000e+00  -2.6767186054992551e-04 -9.1462853919171165e-06 0.0000000000000000e+00  -3.1340527032613637e-04 -9.4723893554137449e-06 0.0000000000000000e+00  -3.6262110257374988e-04 -9.2126395842834597e-06 0.0000000000000000e+00  -4.1238567576427340e-04 -8.1172559192966327e-06 0.0000000000000000e+00  -4.5607469068909560e-04 -6.0043054981943446e-06 0.0000000000000000e+00  0.0000000000000000e+00 0.0000000000000000e+00 0.0000000000000000e+00  -1.4080668258830158e-05 -6.7865252725686794e-07 0.0000000000000000e+00  -2.8646795970743103e-05 -1.3773593318143052e-06 0.0000000000000000e+00  -4.4198016666475091e-05 -2.1161937885879045e-06 0.0000000000000000e+00  -6.1255280694961288e-05 -2.9147722337107458e-06 0.0000000000000000e+00  -8.0369933109491559e-05 -3.7916090972322760e-06 0.0000000000000000e+00  -1.0213015869304208e-04 -4.7628612734301320e-06 0.0000000000000000e+00  -1.2716295252699215e-04 -5.8400809227008599e-06 0.0000000000000000e+00  -1.5612862530112848e-04 -7.0264188436107108e-06 0.0000000000000000e+00  -1.8970284823556204e-04 -8.3104875299530352e-06 0.0000000000000000e+00  -2.2853761819969788e-04 -9.6568472865312161e-06 0.0000000000000000e+00  -2.7318577369015877e-04 -1.0991972146068090e-05 0.0000000000000000e+00  -3.2396111599684857e-04 -1.2184972573772850e-05 0.0000000000000000e+00  -3.8068406601393483e-04 -1.3024121164177954e-05 0.0000000000000000e+00  -4.4223053541061921e-04 -1.3194823653307868e-05 0.0000000000000000e+00  -5.0578074525573283e-04 -1.2274325967538714e-05 0.0000000000000000e+00  -5.6575194214451016e-04 -9.7753223694375683e-06 0.0000000000000000e+00  0.0000000000000000e+00 0.0000000000000000e+00 0.0000000000000000e+00  -1.5781154982827041e-05 -7.7102436851428282e-07 0.0000000000000000e+00  -3.2121986873842472e-05 -1.5670003215927028e-06 0.0000000000000000e+00  -4.9599553456437788e-05 -2.4132646291234323e-06 0.0000000000000000e+00  -6.8819964663063371e-05 -3.3355078467075020e-06 0.0000000000000000e+00  -9.0431754559923592e-05 -4.3596216848880734e-06 0.0000000000000000e+00  -1.1513711766340851e-04 -5.5110246978039710e-06 0.0000000000000000e+00  -1.4369925343598033e-04 -6.8130691584399127e-06 0.0000000000000000e+00  -1.7694283447308994e-04 -8.2838620061042376e-06 0.0000000000000000e+00  -2.1574256313017533e-04 -9.9303892425870891e-06 0.0000000000000000e+00  -2.6099136906324928e-04 -1.1738152701470838e-05 0.0000000000000000e+00  -3.1353420827375764e-04 -1.3653605365629242e-05 0.0000000000000000e+00  -3.7404471008317761e-04 -1.5555733276336694e-05 0.0000000000000000e+00  -4.4281004276449667e-04 -1.7213016444207855e-05 0.0000000000000000e+00  -5.1937876924209962e-04 -1.8224717162086797e-05 0.0000000000000000e+00  -6.0203482557291080e-04 -1.7954213601372224e-05 0.0000000000000000e+00  -6.8713067237417835e-04 -1.5478283527065219e-05 0.0000000000000000e+00  0.0000000000000000e+00 0.0000000000000000e+00 0.0000000000000000e+00  -1.6914271765176580e-05 -8.3804996521011419e-07 0.0000000000000000e+00  -3.4447287110710394e-05 -1.7056887368356381e-06 0.0000000000000000e+00  -5.3238351157776733e-05 -2.6333502435047682e-06 0.0000000000000000e+00  -7.3964547977058476e-05 -3.6529030020988880e-06 0.0000000000000000e+00  -9.7359375018369400e-05 -4.7982224891341851e-06 0.0000000000000000e+00  -1.2423047754580685e-04 -6.1054824959112541e-06 0.0000000000000000e+00  -1.5547532576208630e-04 -7.6128616159259372e-06 0.0000000000000000e+00  -1.9209269296630309e-04 -9.3590550346590281e-06 0.0000000000000000e+00  -2.3518621519297685e-04 -1.1379387787647858e-05 0.0000000000000000e+00  -2.8595384374699928e-04 -1.3697216119784959e-05 0.0000000000000000e+00  -3.4565327099882908e-04 -1.6306355367142654e-05 0.0000000000000000e+00  -4.1552814894644824e-04 -1.9137199752487947e-05 0.0000000000000000e+00  -4.9667363327341005e-04 -2.1995294976514964e-05 0.0000000000000000e+00  -5.8981558430709071e-04 -2.4458643247486758e-05 0.0000000000000000e+00  -6.9498458931921371e-04 -2.5725169925089667e-05 0.0000000000000000e+00  -8.1109824699278311e-04 -2.4423277002886323e-05 0.0000000000000000e+00  0.0000000000000000e+00 0.0000000000000000e+00 0.0000000000000000e+00  -1.7421826267722026e-05 -8.7512007496112222e-07 0.0000000000000000e+00  -3.5502003866457705e-05 -1.7836934673516128e-06 0.0000000000000000e+00  -5.4922325567193579e-05 -2.7605028130915596e-06 0.0000000000000000e+00  -7.6411267685672034e-05 -3.8429609788005732e-06 0.0000000000000000e+00  -1.0076834913341545e-04 -5.0725465356857529e-06 0.0000000000000000e+00  -1.2888941198876884e-04 -6.4963435076365863e-06 0.0000000000000000e+00  -1.6179265400966737e-04 -8.1686196508725040e-06 0.0000000000000000e+00  -2.0064470988059819e-04 -1.0152163650966260e-05 0.0000000000000000e+00  -2.4678526496640306e-04 -1.2518572986183470e-05 0.0000000000000000e+00  -3.0174751021905288e-04 -1.5345455335467752e-05 0.0000000000000000e+00  -3.6727013481507338e-04 -1.8705823406283530e-05 0.0000000000000000e+00  -4.4529446109756166e-04 -2.2639543195206058e-05 0.0000000000000000e+00  -5.3793788333494972e-04 -2.7086961925127566e-05 0.0000000000000000e+00  -6.4743313848502129e-04 -3.1750866992312923e-05 0.0000000000000000e+00  -7.7602744492842298e-04 -3.5842721040051749e-05 0.0000000000000000e+00  -9.2585713997397911e-04 -3.7689050547859651e-05 0.0000000000000000e+00  0.0000000000000000e+00 0.0000000000000000e+00 0.0000000000000000e+00  -1.7265433542682706e-05 -8.7841865046380530e-07 0.0000000000000000e+00  -3.5204999891248599e-05 -1.7928235854058892e-06 0.0000000000000000e+00  -5.4518491127087277e-05 -2.7809458482336339e-06 0.0000000000000000e+00  -7.5960309801727482e-05 -3.8842324384573183e-06 0.0000000000000000e+00  -1.0036924436812940e-04 -5.1501123160353054e-06 0.0000000000000000e+00  -1.2870128176957379e-04 -6.6348197098548814e-06 0.0000000000000000e+00  -1.6206646472425275e-04 -8.4070672754411376e-06 0.0000000000000000e+00  -2.0177079901564265e-04 -1.0552907655280457e-05 0.0000000000000000e+00  -2.4936426837362591e-04 -1.3182015826805910e-05 0.0000000000000000e+00  -3.0669627796262619e-04 -1.6434976795780985e-05 0.0000000000000000e+00  -3.7598067185988098e-04 -2.0488950903896522e-05 0.0000000000000000e+00  -4.5987445639554959e-04 -2.5552884526275238e-05 0.0000000000000000e+00  -5.6157818999962744e-04 -3.1828185828946748e-05 0.0000000000000000e+00  -6.8497207169258584e-04 -3.9378434260717827e-05 0.0000000000000000e+00  -8.3481471359305890e-04 -4.7798196866649331e-05 0.0000000000000000e+00  -1.0171061093854487e-03 -5.5523071611360149e-05 0.0000000000000000e+00  0.0000000000000000e+00 0.0000000000000000e+00 0.0000000000000000e+00  -1.6430681971429713e-05 -8.4547461852408484e-07 0.0000000000000000e+00  -3.3523576073276928e-05 -1.7276337576614179e-06 0.0000000000000000e+00  -5.1967716206855960e-05 -2.6851584547779184e-06 0.0000000000000000e+00  -7.2512360353590622e-05 -3.7611746666449507e-06 0.0000000000000000e+00  -9.6000963361158359e-05 -5.0060999051850540e-06 0.0000000000000000e+00  -1.2341023379639456e-04 -6.4814166015745432e-06 0.0000000000000000e+00  -1.5589642414622645e-04 -8.2650244399635888e-06 0.0000000000000000e+00  -1.9485148720708352e-04 -1.0459241036767300e-05 0.0000000000000000e+00  -2.4197254164258066e-04 -1.3203177133052655e-05 0.0000000000000000e+00  -2.9934963426902399e-04 -1.6692052536878092e-05 0.0000000000000000e+00  -3.6958009563952971e-04 -2.1206441199093539e-05 0.0000000000000000e+00  -4.5592525240557277e-04 -2.7152001398867120e-05 0.0000000000000000e+00  -5.6254155651612892e-04 -3.5097221931784954e-05 0.0000000000000000e+00  -6.9484833506517501e-04 -4.5752483456366484e-05 0.0000000000000000e+00  -8.6012506432823739e-04 -5.9719013365177138e-05 0.0000000000000000e+00  -1.0683856333891708e-03 -7.6620526655347650e-05 0.0000000000000000e+00  0.0000000000000000e+00 0.0000000000000000e+00 0.0000000000000000e+00  -1.4930751363537453e-05 -7.7565327471745232e-07 0.0000000000000000e+00  -3.0481345559841065e-05 -1.5865152147676553e-06 0.0000000000000000e+00  -4.7298191023977784e-05 -2.4698133591262015e-06 0.0000000000000000e+00  -6.6089913286764517e-05 -3.4674019389124282e-06 0.0000000000000000e+00  -8.7663401666649124e-05 -4.6287481625965546e-06 0.0000000000000000e+00  -1.1296654919431397e-04 -6.0149507915802903e-06 0.0000000000000000e+00  -1.4314073428024936e-04 -7.7046019331963456e-06 0.0000000000000000e+00  -1.7958690751409173e-04 -9.8030004379559451e-06 0.0000000000000000e+00  -2.2405038289726513e-04 -1.2457636533676164e-05 0.0000000000000000e+00  -2.7873158479318214e-04 -1.5885632467910633e-05 0.0000000000000000e+00  -3.4643465208372806e-04 -2.0423863420392469e-05 0.0000000000000000e+00  -4.3077791402809765e-04 -2.6620249334455286e-05 0.0000000000000000e+00  -5.3652458485205061e-04 -3.5391237200046613e-05 0.0000000000000000e+00  -6.7018684577838908e-04 -4.8251192376830919e-05 0.0000000000000000e+00  -8.4126837221546076e-04 -6.7477441707812814e-05 0.0000000000000000e+00  -1.0646261103213510e-03 -9.5861955307604218e-05 0.0000000000000000e+00  0.0000000000000000e+00 0.0000000000000000e+00 0.0000000000000000e+00  -1.2808889607391248e-05 -6.7048081315160412e-07 0.0000000000000000e+00  -2.6163815298250712e-05 -1.3724261559285443e-06 0.0000000000000000e+00  -4.0635428428947138e-05 -2.1391045365574780e-06 0.0000000000000000e+00  -5.6853912594657401e-05 -3.0079939389331212e-06 0.0000000000000000e+00  -7.5544226660876056e-05 -4.0234010244516073e-06 0.0000000000000000e+00  -9.7568887179430680e-05 -5.2398490007965685e-06 0.0000000000000000e+00  -1.2398183744397246e-04 -6.7268136363536892e-06 0.0000000000000000e+00  -1.5609788889624544e-04 -8.5759713736498919e-06 0.0000000000000000e+00  -1.9558342088197301e-04 -1.0913566153275650e-05 0.0000000000000000e+00  -2.4457565269391337e-04 -1.3924086139447042e-05 0.0000000000000000e+00  -3.0584088476461074e-04 -1.7900198899592053e-05 0.0000000000000000e+00  -3.8299157242587255e-04 -2.3354418554790731e-05 0.0000000000000000e+00  -4.8081919901268215e-04 -3.1272524117673132e-05 0.0000000000000000e+00  -6.0595207767955570e-04 -4.3668820869266362e-05 0.0000000000000000e+00  -7.6864999807101293e-04 -6.4607950536424921e-05 0.0000000000000000e+00  -9.8825648217918099e-04 -9.9553414784521509e-05 0.0000000000000000e+00  0.0000000000000000e+00 0.0000000000000000e+00 0.0000000000000000e+00  -1.0139178152742611e-05 -5.3372408902141246e-07 0.0000000000000000e+00  -2.0720428666257508e-05 -1.0930737447301568e-06 0.0000000000000000e+00  -3.2206656780637644e-05 -1.7050843668332030e-06 0.0000000000000000e+00  -4.5112337352452943e-05 -2.4001086157101225e-06 0.0000000000000000e+00  -6.0034600117638954e-05 -3.2136924365367439e-06 0.0000000000000000e+00  -7.7691686118633139e-05 -4.1886788762952658e-06 0.0000000000000000e+00  -9.8972315433203931e-05 -5.3775068685197713e-06 0.0000000000000000e+00  -1.2500037694381013e-04 -6.8445740970046341e-06 0.0000000000000000e+00  -1.5722013702433590e-04 -8.6685940442013663e-06 0.0000000000000000e+00  -1.9750731543083909e-04 -1.0945949582019332e-05 0.0000000000000000e+00  -2.4831000212689828e-04 -1.3801352854838107e-05 0.0000000000000000e+00  -3.1282028967686919e-04 -1.7432671787571913e-05 0.0000000000000000e+00  -3.9518045635532394e-04 -2.2288565259339729e-05 0.0000000000000000e+00  -5.0079870299351637e-04 -2.9725108507966553e-05 0.0000000000000000e+00  -6.3743221260606985e-04 -4.4480207500160826e-05 0.0000000000000000e+00  -8.2259318161263632e-04 -8.6620113341107815e-05 0.0000000000000000e+00  0.0000000000000000e+00 0.0000000000000000e+00 0.0000000000000000e+00  -7.0251332282601049e-06 -3.7120747858887346e-07 0.0000000000000000e+00  -1.4362059434388725e-05 -7.6049959857278802e-07 0.0000000000000000e+00  -2.2337832215567479e-05 -1.1868946993496071e-06 0.0000000000000000e+00  -3.1317863029866361e-05 -1.6716068126748705e-06 0.0000000000000000e+00  -4.1729404583644872e-05 -2.2390951289017043e-06 0.0000000000000000e+00  -5.4091069645953061e-05 -2.9178453003182534e-06 0.0000000000000000e+00  -6.9051339949318411e-05 -3.7402258860612526e-06 0.0000000000000000e+00  -8.7439660510931839e-05 -4.7397534505725420e-06 0.0000000000000000e+00  -1.1033385295655791e-04 -5.9417776400028272e-06 0.0000000000000000e+00  -1.3914577710330431e-04 -7.3384223333350840e-06 0.0000000000000000e+00  -1.7572019674828024e-04 -8.8276771931849852e-06 0.0000000000000000e+00  -2.2242435651166712e-04 -1.0075541515698491e-05 0.0000000000000000e+00  -2.8217440343282935e-04 -1.0227076784779744e-05 0.0000000000000000e+00  -3.5830385396825297e-04 -7.3645538554390534e-06 0.0000000000000000e+00  -4.5408529456257232e-04 2.2804319085883880e-06 0.0000000000000000e+00  -5.7205773047987684e-04 2.3996961476568831e-05 0.0000000000000000e+00  0.0000000000000000e+00 0.0000000000000000e+00 0.0000000000000000e+00  -3.5958912707156730e-06 -1.9041867831278759e-07 0.0000000000000000e+00  -7.3533668221353464e-06 -3.9019605333443589e-07 0.0000000000000000e+00  -1.1442165588511400e-05 -6.0914822065441969e-07 0.0000000000000000e+00  -1.6052689755136408e-05 -8.5816055695693394e-07 0.0000000000000000e+00  -2.1408826480544212e-05 -1.1496025181422179e-06 0.0000000000000000e+00  -2.7784289746840453e-05 -1.4973881248966121e-06 0.0000000000000000e+00  -3.5524245766764362e-05 -1.9159815882048558e-06 0.0000000000000000e+00  -4.5074278440862132e-05 -2.4164889664149776e-06 0.0000000000000000e+00  -5.7018169427603337e-05 -2.9949409372799995e-06 0.0000000000000000e+00  -7.2121593272719020e-05 -3.5998131823467732e-06 0.0000000000000000e+00  -9.1360415146097247e-05 -4.0444116272335707e-06 0.0000000000000000e+00  -1.1584539505152914e-04 -3.7746330455116288e-06 0.0000000000000000e+00  -1.4633456881499874e-04 -1.2773873473335673e-06 0.0000000000000000e+00  -1.8141087115286202e-04 7.2563521761366220e-06 0.0000000000000000e+00  -2.1244605828239918e-04 2.9926598375011634e-05 0.0000000000000000e+00  -2.1670383031214860e-04 7.6950667519058380e-05 0.0000000000000000e+00  0.0000000000000000e+00 0.0000000000000000e+00 0.0000000000000000e+00  0.0000000000000000e+00 0.0000000000000000e+00 0.0000000000000000e+00  0.0000000000000000e+00 0.0000000000000000e+00 0.0000000000000000e+00  0.0000000000000000e+00 0.0000000000000000e+00 0.0000000000000000e+00  0.0000000000000000e+00 0.0000000000000000e+00 0.0000000000000000e+00  0.0000000000000000e+00 0.0000