<?xml version="1.0"?>
<VTKFile type="UnstructuredGrid"  version="0.1"  >
<UnstructuredGrid>
<Piece  NumberOfPoints="289" NumberOfCells="512">
<Points>
<DataArray  type="Float64"  NumberOfComponents="3"  format="ascii">0 0 0  0.0625 0 0  0.125 0 0  0.1875 0 0  0.25 0 0  0.3125 0 0  0.375 0 0  0.4375 0 0  0.5 0 0  0.5625 0 0  0.625 0 0  0.6875 0 0  0.75 0 0  0.8125 0 0  0.875 0 0  0.9375 0 0  1 0 0  0 0.0625 0  0.06255324813441525 0.06248660574406418 0  0.1251079606980966 0.0624729612117448 0  0.187665599579715 0.06245883525865021 0  0.2502275853586445 0.06244404371644005 0  0.3127952578154528 0.06242848034944931 0  0.3753698125289577 0.06241215609893584 0  0.4379522057973067 0.06239524735444946 0  0.5005430226194716 0.06237815083126085 0  0.5631423100083045 0.06236153671092021 0  0.6257493970229785 0.06234638167969881 0  0.6883627686650047 0.0623339485863248 0  0.7509801660154102 0.0623256619868889 0  0.8135992953783761 0.06232282226603682 0  0.876219687159697 0.06232615746305836 0  0.9388440784482869 0.06233559754067718 0  1.001454140544983 0.06235420909845209 0  0 0.125 0  0.06260503134321198 0.1249734564661116 0  0.1252130215819436 0.1249463894715064 0  0.1878269350250422 0.1249183109131276 0  0.2504496780109822 0.1248888206213925 0  0.3130840356476566 0.1248576661104941 0  0.3757325647870169 0.1248248205835961 0  0.4383974289174163 0.1247905824243654 0  0.5010801649929657 0.1247556942543474 0  0.5637813847639748 0.1247214691739012 0  0.6265004417816831 0.1246898926521294 0  0.689235150570241 0.1246636371152587 0  0.7519817269204115 0.1246458830838526 0  0.8147351479730256 0.1246398070734187 0  0.8774896934282805 0.1246476740236326 0  0.9402373916062569 0.124670001166314 0  1.002961200227779 0.1247065396263161 0  0 0.1875 0  0.06265385582694875 0.1874608282978863 0  0.1253122004457793 0.1874208181361802 0  0.1879795515113545 0.1873791766124207 0  0.2506603893172041 0.1873352269568607 0  0.3133590919716394 0.1872884917316571 0  0.3760798102304791 0.1872388066816834 0  0.4388262596628606 0.1871864740305408 0  0.5016014094968779 0.1871324593484947 0  0.5644070547263573 0.18707862456446 0  0.6272432731557959 0.1870279648679194 0  0.6901077865955052 0.1869847677334385 0  0.752995228820972 0.1869545155057755 0  0.8158961473016303 0.1869431525301848 0  0.8787949598193658 0.1869548499494212 0  0.9416650262435058 0.1869859389758906 0  1.004460597566787 0.1870077919575933 0  0 0.25 0  0.06269819919516192 0.2499490387895967 0  0.1254024400607956 0.2498968699194818 0  0.1881188354486123 0.2498423320846604 0  0.25085352858084 0.2497843879080575 0  0.3136126549744985 0.2497222205610072 0  0.3764022321319657 0.2496553750698445 0  0.4392279456704542 0.2495839621452893 0  0.5020947956646854 0.2495089419263661 0  0.5650065617894472 0.2494324988568849 0  0.6279650370950012 0.2493584995804865 0  0.6909689541705488 0.2492929790156523 0  0.7540124459766928 0.2492444992448276 0  0.817082674829075 0.2492240259052441 0  0.880155892469208 0.2492436098686978 0  0.9431910657701451 0.2493127147598778 0  1.006122030324993 0.2494315365893476 0  0 0.3125 0  0.0627365176841727 0.3124384589005075 0  0.1254806178124936 0.3123752845168827 0  0.1882400165419313 0.3123088780387322 0  0.2510225814048528 0.3122377441035334 0  0.3138363536745766 0.3121605847370825 0  0.3766894950703637 0.3120764507981096 0  0.4395901207540849 0.3119849800555181 0  0.5025459684688345 0.3118867587366391 0  0.5655638359527424 0.311783850172373 0  0.6286486897788877 0.3116805343337365 0  0.6918022958030929 0.3115842828085624 0  0.7550211242176107 0.3115069294450357 0  0.8182931369690518 0.311465843707379 0  0.8815929977651268 0.3114846198589329 0  0.9448758250331467 0.311592366682916 0  1.008072281039104 0.311820306603514 0  0 0.375 0  0.0627672761555184 0.3749295148140363 0  0.1255436028006728 0.3748569257710945 0  0.1883382455611167 0.3747801365279851 0  0.251160796179333 0.3746970990864241 0  0.3140212918966504 0.3746058825889153 0  0.376930268869093 0.3745048064399081 0  0.4398987114393522 0.3743926772318156 0  0.5029378428446819 0.3742691873235424 0  0.5660586788442791 0.3741355586501989 0  0.6292712285479014 0.3739955477443272 0  0.6925831673244851 0.3738569602794684 0  0.7559977159161286 0.3737338335842502 0  0.8195103525724752 0.3736493791061875 0  0.8831039744528731 0.3736395267894171 0  0.9467425578351659 0.3737563224794124 0  1.010364824487983 0.3740693519162821 0  0 0.4375 0  0.06278900545040772 0.4374226761284322 0  0.1255883704087974 0.4373427606563138 0  0.1884087651991859 0.4372576270304231 0  0.2512614071118414 0.4371646051286304 0  0.3141583113545969 0.4370609979223277 0  0.3771125023051093 0.4369441576413824 0  0.4401381567757922 0.4368116655813852 0  0.5032506366313565 0.4366616880033229 0  0.5664663488138317 0.4364936265360997 0  0.6298023451731187 0.4363092532860907 0  0.6932755389755878 0.4361146258810755 0  0.7569013625745717 0.4359232114550203 0  0.8206916132018676 0.435760763763711 0  0.8846511362302316 0.4356724405189313 0  0.9487729290103891 0.4357320947659001 0  1.013031352835359 0.4360522822420483 0  0 0.5 0  0.06280038836325467 0.4999184279339934 0  0.1256121779144449 0.4998338039388818 0  0.1884471823217547 0.4997429858221012 0  0.2513180116142669 0.499642663927053 0  0.3142384803353825 0.4995292987368816 0  0.3772240192527289 0.4993990969734945 0  0.440292083232534 0.4992480642394498 0  0.5034625425737398 0.499072205081167 0  0.5667580447078011 0.4988680006297093 0  0.6302043469998976 0.4986333995012391 0  0.6938306632351332 0.498369740855096 0  0.7576701453759144 0.4980853296060283 0  0.8217607101956724 0.4978018190194449 0  0.8861463823411888 0.497564992064438 0  0.9508788597885461 0.4974613810463881 0  1.016017958338293 0.4976400635486136 0  0 0.5625 0  0.06280037078365831 0.5624172263836579 0  0.1256127951150092 0.5623310265375858 0  0.1884498350119874 0.5622378222485606 0  0.2513250989349188 0.5621337257965581 0  0.3142538162399821 0.5620143787169551 0  0.3772534718979912 0.5618747909267016 0  0.4403445236734422 0.5617091981843808 0  0.50355123300018 0.5615109829391211 0  0.5669026706051556 0.561272758957246 0  0.6304340393608596 0.5609868327724529 0  0.6941886493402756 0.5606464837735348 0  0.7582212716861828 0.5602489629581975 0  0.8226042454346846 0.5598019839068327 0  0.8874384190617015 0.5593369179382642 0  0.9528709128979168 0.558933338468573 0  1.019119302572454 0.5587578619502258 0  0 0.625 0  0.0627882887807019 0.6249194406050708 0  0.125588771819144 0.6248352325428993 0  0.188414228017558 0.6247435170099139 0  0.2512786969979012 0.6246399882150886 0  0.3141982057601634 0.6245196287451893 0  0.3771916186516658 0.6243763948147681 0  0.4402816660745915 0.6242028364499885 0  0.5034962307442717 0.6239896464668963 0  0.5668700294994735 0.6237251587163666 0  0.6304469829792579 0.6233948874220676 0  0.6942839558809266 0.6229813836529209 0  0.7584574692131376 0.6224651577921522 0  0.823076901646754 0.6218286200918047 0  0.8883109032874522 0.6210678743326229 0  0.9544368492701895 0.6202226047552487 0  1.021921216528255 0.6194361974441667 0  0 0.6875 0  0.06276399640984484 0.6874252877316624 0  0.1255397111509468 0.6873469186784112 0  0.1883394884020984 0.6872609834002437 0  0.2511770701724861 0.6871630209979953 0  0.3140684335948528 0.6870476681968606 0  0.3770328115111125 0.6869082064024785 0  0.4400939832193028 0.6867359531400387 0  0.5032819541607924 0.6865194257487999 0  0.566635212833502 0.6862431817625895 0  0.6302039339090213 0.6858862188044313 0  0.6940550079844996 0.685419828667971 0  0.7582812277504467 0.6848049775509636 0  0.8230208388950566 0.683990161783933 0  0.888502800017209 0.6829143557646882 0  0.9551488018733953 0.6815332586838252 0  1.023771456194576 0.6799161488105757 0  0 0.75 0  0.06272797411494885 0.749934771503117 0  0.1254665066589412 0.7498661386281108 0  0.1882267739231811 0.7497904290300575 0  0.2510213694151482 0.7497033755198784 0  0.3138651815871882 0.7495997193864419 0  0.3767765009288481 0.749472673056756 0  0.439778469497156 0.7493131560925805 0  0.5029010205475705 0.7491086734081117 0  0.5661835094957814 0.7488416291950896 0  0.6296783514808851 0.7484867411189878 0  0.6934563372687514 0.7480069907332259 0  0.7576156232267098 0.7473471352341818 0  0.822301346432817 0.7464231677228687 0  0.8877602730357789 0.7451061362248529 0  0.9545077998285247 0.7432086858978609 0  1.02373920119507 0.7405902466421251 0  0 0.8125 0  0.06268139532410917 0.8124476370526064 0  0.1253714954419052 0.8123924002028673 0  0.1880795550789556 0.8123311674184871 0  0.2508161156364334 0.8122602595095347 0  0.313593827105249 0.8121750565522747 0  0.3764285182746164 0.8120694619363276 0  0.4393406461350232 0.8119351140049005 0  0.5023572951770766 0.8117601859131283 0  0.5655149326772375 0.8115275114515258 0  0.6288631233295513 0.8112115909513149 0  0.6924693156091205 0.8107736807189053 0  0.7564247472985178 0.8101534183431325 0  0.8208530635700098 0.8092535856514813 0  0.8859371569687436 0.8079095540230885 0  0.9520707760069135 0.8058211995300106 0  1.020841421075908 0.8023980748188911 0  0 0.875 0  0.06262613062235912 0.8749633539982247 0  0.1252584818949224 0.8749246229324315 0  0.1879036924774436 0.8748815301655725 0  0.250569392893483 0.8748313656170279 0  0.3132648576368595 0.8747706808878196 0  0.3760018807430063 0.8746948545320506 0  0.4387960049669248 0.8745974386424905 0  0.5016682860170799 0.8744691423220321 0  0.564647822114835 0.8742962120579371 0  0.6277752498443046 0.874057805857708 0  0.6911070298433837 0.8737216743991087 0  0.7547187600149681 0.8732369095127528 0  0.8187004777449853 0.8725210334825401 0  0.883122141874782 0.8714327991219546 0  0.9479213887081699 0.8696940429408034 0  1.012779769631898 0.8665782765125298 0  0 0.9375 0  0.06256467559872574 0.9374811362087495 0  0.125132599312754 0.9374611757807679 0  0.1877072476266771 0.9374389176257594 0  0.2502926436707786 0.9374129232640886 0  0.3128937256591064 0.9373813476472022 0  0.3755168553933763 0.9373416948487286 0  0.4381705574770713 0.9372904456815
[...]
<PointData  Vectors="f_54"> 
<DataArray  type="Float64"  Name="f_54"  NumberOfComponents="3" format="ascii">0.0000000000000000e+00 0.0000000000000000e+00 0.0000000000000000e+00  0.0000000000000000e+00 0.0000000000000000e+00 0.0000000000000000e+00  0.0000000000000000e+00 0.0000000000000000e+00 0.0000000000000000e+00  0.0000000000000000e+00 0.0000000000000000e+00 0.0000000000000000e+00  0.0000000000000000e+00 0.0000000000000000e+00 0.0000000000000000e+00  0.0000000000000000e+00 0.0000000000000000e+00 0.0000000000000000e+00  0.0000000000000000e+00 0.0000000000000000e+00 0.0000000000000000e+00  0.0000000000000000e+00 0.0000000000000000e+00 0.0000000000000000e+00  0.0000000000000000e+00 0.0000000000000000e+00 0.0000000000000000e+00  0.0000000000000000e+00 0.0000000000000000e+00 0.0000000000000000e+00  0.0000000000000000e+00 0.0000000000000000e+00 0.0000000000000000e+00  0.0000000000000000e+00 0.0000000000000000e+00 0.0000000000000000e+00  0.0000000000000000e+00 0.0000000000000000e+00 0.0000000000000000e+00  0.0000000000000000e+00 0.0000000000000000e+00 0.0000000000000000e+00  0.0000000000000000e+00 0.0000000000000000e+00 0.0000000000000000e+00  0.0000000000000000e+00 0.0000000000000000e+00 0.0000000000000000e+00  0.0000000000000000e+00 0.0000000000000000e+00 0.0000000000000000e+00  0.0000000000000000e+00 0.0000000000000000e+00 0.0000000000000000e+00  4.2762203909462140e-06 -9.5488492181017756e-08 0.0000000000000000e+00  8.6929642803428108e-06 -1.9555921796972620e-07 0.0000000000000000e+00  1.3394842473612813e-05 -3.0503428896515568e-07 0.0000000000000000e+00  1.8530804157657846e-05 -4.2911656681189892e-07 0.0000000000000000e+00  2.4255741663042434e-05 -5.7352120116542017e-07 0.0000000000000000e+00  3.0731314148704799e-05 -7.4450054852843538e-07 0.0000000000000000e+00  3.8125883057989509e-05 -9.4866818798209343e-07 0.0000000000000000e+00  4.6613974417260322e-05 -1.1924730187888744e-06 0.0000000000000000e+00  5.6377293084832539e-05 -1.4811161570323467e-06 0.0000000000000000e+00  6.7614005517076061e-05 -1.8166947653835266e-06 0.0000000000000000e+00  8.0576735241810423e-05 -2.1955896242807802e-06 0.0000000000000000e+00  9.5701448504832581e-05 -2.6062755073901571e-06 0.0000000000000000e+00  1.1402374197599181e-04 -3.0334702115444430e-06 0.0000000000000000e+00  1.3854051697781680e-04 -3.4938269273382866e-06 0.0000000000000000e+00  1.7886600520899715e-04 -4.2106416762768679e-06 0.0000000000000000e+00  2.6806411554686091e-04 -6.4012061613417198e-06 0.0000000000000000e+00  0.0000000000000000e+00 0.0000000000000000e+00 0.0000000000000000e+00  8.4175543774213520e-06 -1.8652360190112123e-07 0.0000000000000000e+00  1.7114933692578127e-05 -3.8204428933754802e-07 0.0000000000000000e+00  2.6380281174021655e-05 -5.9605704025545488e-07 0.0000000000000000e+00  3.6511131093411988e-05 -8.3887841080379473e-07 0.0000000000000000e+00  4.7817949544746671e-05 -1.1219684685693033e-06 0.0000000000000000e+00  6.0625958124374480e-05 -1.4580772816070166e-06 0.0000000000000000e+00  7.5274629490476412e-05 -1.8610400400839003e-06 0.0000000000000000e+00  9.2114580359191781e-05 -2.3449207269333217e-06 0.0000000000000000e+00  1.1150282832157106e-04 -2.9220302405385115e-06 0.0000000000000000e+00  1.3380085236572889e-04 -3.5991296949781904e-06 0.0000000000000000e+00  1.5938840915265368e-04 -4.3708915396711057e-06 0.0000000000000000e+00  1.8872438159306455e-04 -5.2092988395858308e-06 0.0000000000000000e+00  2.2251557151923104e-04 -6.0457448274773230e-06 0.0000000000000000e+00  2.6204851368249359e-04 -6.7304703436423863e-06 0.0000000000000000e+00  3.0933195609504914e-04 -6.8839428922219273e-06 0.0000000000000000e+00  3.6373440241386552e-04 -5.1769028358240950e-06 0.0000000000000000e+00  0.0000000000000000e+00 0.0000000000000000e+00 0.0000000000000000e+00  1.2283109135158902e-05 -2.6866024016777478e-07 0.0000000000000000e+00  2.4981602017415411e-05 -5.5034394150117012e-07 0.0000000000000000e+00  3.8523619077576627e-05 -8.5885255473070217e-07 0.0000000000000000e+00  5.3353040032476827e-05 -1.2093393653618573e-06 0.0000000000000000e+00  6.9935684659878759e-05 -1.6189226948980191e-06 0.0000000000000000e+00  8.8762836782385856e-05 -2.1071343846652020e-06 0.0000000000000000e+00  1.1035063257189843e-04 -2.6959876844398006e-06 0.0000000000000000e+00  1.3523339928404667e-04 -3.4092577954926556e-06 0.0000000000000000e+00  1.6394851688830676e-04 -4.2702641287345537e-06 0.0000000000000000e+00  1.9700965876411777e-04 -5.2969929886497757e-06 0.0000000000000000e+00  2.3486324302488212e-04 -6.4928045711556352e-06 0.0000000000000000e+00  2.7781453582865064e-04 -7.8303774325626000e-06 0.0000000000000000e+00  3.2587620015375680e-04 -9.2267614691399021e-06 0.0000000000000000e+00  3.7837291067106728e-04 -1.0512728821183821e-05 0.0000000000000000e+00  4.3277932452386530e-04 -1.1434383551353839e-05 0.0000000000000000e+00  4.8152256029899244e-04 -1.1929151278248631e-05 0.0000000000000000e+00  0.0000000000000000e+00 0.0000000000000000e+00 0.0000000000000000e+00  1.5736208421435685e-05 -3.3785694939688971e-07 0.0000000000000000e+00  3.2016465356878479e-05 -6.9211943780852980e-07 0.0000000000000000e+00  4.9402271489979910e-05 -1.0802578358802662e-06 0.0000000000000000e+00  6.8479034453522398e-05 -1.5216974048338610e-06 0.0000000000000000e+00  8.9866140447822043e-05 -2.0388331648940127e-06 0.0000000000000000e+00  1.1422375712946350e-04 -2.6580042040537987e-06 0.0000000000000000e+00  1.4225412393922371e-04 -3.4102489276302100e-06 0.0000000000000000e+00  1.7469377291315700e-04 -4.3314372850936397e-06 0.0000000000000000e+00  2.1229090249346181e-04 -5.4609684523742533e-06 0.0000000000000000e+00  2.5575807787652985e-04 -6.8375222022982708e-06 0.0000000000000000e+00  3.0568230304126682e-04 -8.4892260673525086e-06 0.0000000000000000e+00  3.6235693586169466e-04 -1.0413965745080557e-05 0.0000000000000000e+00  4.2546148566021221e-04 -1.2543605495922497e-05 0.0000000000000000e+00  4.9343856830964437e-04 -1.4684325737860510e-05 0.0000000000000000e+00  5.6230604490093436e-04 -1.6423373977479137e-05 0.0000000000000000e+00  6.2366266344293262e-04 -1.6963027869153701e-05 0.0000000000000000e+00  0.0000000000000000e+00 0.0000000000000000e+00 0.0000000000000000e+00  1.8647722494693707e-05 -3.9073463259974075e-07 0.0000000000000000e+00  3.7957250252621078e-05 -8.0033294028234238e-07 0.0000000000000000e+00  5.8612768096845405e-05 -1.2489773729178630e-06 0.0000000000000000e+00  8.1332627332131907e-05 -1.7594030814791935e-06 0.0000000000000000e+00  1.0688488469773109e-04 -2.3583833806547980e-06 0.0000000000000000e+00  1.3609979330777997e-04 -3.0784211201761185e-06 0.0000000000000000e+00  1.6987671740935150e-04 -3.9596124479794065e-06 0.0000000000000000e+00  2.0918112686582404e-04 -5.0514638696277234e-06 0.0000000000000000e+00  2.5502423277852797e-04 -6.4140395569710909e-06 0.0000000000000000e+00  3.0841249346441146e-04 -8.1169882225026338e-06 0.0000000000000000e+00  3.7024496162247505e-04 -1.0233395567632137e-05 0.0000000000000000e+00  4.4112066340838089e-04 -1.2822478939822904e-05 0.0000000000000000e+00  5.2099353810949119e-04 -1.5890130285091958e-05 0.0000000000000000e+00  6.0858352610166548e-04 -1.9308353681424312e-05 0.0000000000000000e+00  7.0045324299732427e-04 -2.2662975814825168e-05 0.0000000000000000e+00  7.8979864463464642e-04 -2.4985055284956811e-05 0.0000000000000000e+00  0.0000000000000000e+00 0.0000000000000000e+00 0.0000000000000000e+00  2.0900206647433916e-05 -4.2485592834433277e-07 0.0000000000000000e+00  4.2564088569508242e-05 -8.6984392078137963e-07 0.0000000000000000e+00  6.5782694561384387e-05 -1.3565746320653763e-06 0.0000000000000000e+00  9.1393395039803275e-05 -1.9096654929866768e-06 0.0000000000000000e+00  1.2030254357084967e-04 -2.5586632910073202e-06 0.0000000000000000e+00  1.5350641294774293e-04 -3.3405049110945130e-06 0.0000000000000000e+00  1.9210835365096051e-04 -4.3027383452948013e-06 0.0000000000000000e+00  2.3732831233715782e-04 -5.5076947267536623e-06 0.0000000000000000e+00  2.9049780253122411e-04 -7.0376102692311664e-06 0.0000000000000000e+00  3.5302842969869527e-04 -9.0000968112822390e-06 0.0000000000000000e+00  4.2633425361110255e-04 -1.1531827068566347e-05 0.0000000000000000e+00  5.1167707069461226e-04 -1.4794808955529441e-05 0.0000000000000000e+00  6.0989069879061899e-04 -1.8952357854330404e-05 0.0000000000000000e+00  7.2093379989403175e-04 -2.4098126402435131e-05 0.0000000000000000e+00  8.4324273121633543e-04 -3.0088569129322866e-05 0.0000000000000000e+00  9.7293810775273925e-04 -3.6197862018578730e-05 0.0000000000000000e+00  0.0000000000000000e+00 0.0000000000000000e+00 0.0000000000000000e+00  2.2392924863722210e-05 -4.3898716017294174e-07 0.0000000000000000e+00  4.5629682800783598e-05 -8.9799536936546735e-07 0.0000000000000000e+00  7.0586201071580587e-05 -1.3985205554959587e-06 0.0000000000000000e+00  9.8197973208396746e-05 -1.9652031203109946e-06 0.0000000000000000e+00  1.2949108397405595e-04 -2.6280009015060838e-06 0.0000000000000000e+00  1.6561395422139423e-04 -3.4252231815741155e-06 0.0000000000000000e+00  2.0786903042307800e-04 -4.4079632562835728e-06 0.0000000000000000e+00  2.5774233265704214e-04 -5.6467067760547121e-06 0.0000000000000000e+00  3.1692653669483775e-04 -7.2411758940119519e-06 0.0000000000000000e+00  3.8732964123518388e-04 -9.3346514127840036e-06 0.0000000000000000e+00  4.7105586969271163e-04 -1.2133646761625918e-05 0.0000000000000000e+00  5.7033857218801831e-04 -1.5931718574246892e-05 0.0000000000000000e+00  6.8739906426475682e-04 -2.1129727098313988e-05 0.0000000000000000e+00  8.2420817479191976e-04 -2.8228752769052629e-05 0.0000000000000000e+00  9.8215356150889313e-04 -3.7737491217944807e-05 0.0000000000000000e+00  1.1616788757834319e-03 -4.9871692421158859e-05 0.0000000000000000e+00  0.0000000000000000e+00 0.0000000000000000e+00 0.0000000000000000e+00  2.3047615097519598e-05 -4.3328097311470833e-07 0.0000000000000000e+00  4.6991233328082839e-05 -8.8505279075297222e-07 0.0000000000000000e+00  7.2762903197272106e-05 -1.3750603842404600e-06 0.0000000000000000e+00  1.0136715811657095e-04 -1.9258622997713643e-06 0.0000000000000000e+00  1.3392073855749608e-04 -2.5649032288350924e-06 0.0000000000000000e+00  1.7169633409382172e-04 -3.3276179187301226e-06 0.0000000000000000e+00  2.1617150291477103e-04 -4.2623613649402321e-06 0.0000000000000000e+00  2.6908353414345710e-04 -5.4385143770993761e-06 0.0000000000000000e+00  3.3249020411121134e-04 -6.9600461049173763e-06 0.0000000000000000e+00  4.0883489945535298e-04 -8.9883014061758366e-06 0.0000000000000000e+00  5.0101230088932681e-04 -1.1779925855884622e-05 0.0000000000000000e+00  6.1242827216906933e-04 -1.5748294966644977e-05 0.0000000000000000e+00  7.4704759993582978e-04 -2.1557722916544830e-05 0.0000000000000000e+00  9.0943486928585367e-04 -3.0253573670944915e-05 0.0000000000000000e+00  1.1048402295604385e-03 -4.3406792765322990e-05 0.0000000000000000e+00  1.3395114489801394e-03 -6.3197171545428848e-05 0.0000000000000000e+00  0.0000000000000000e+00 0.0000000000000000e+00 0.0000000000000000e+00  2.2814581768699850e-05 -4.0930741091323300e-07 0.0000000000000000e+00  4.6543296110267997e-05 -8.3432697206052930e-07 0.0000000000000000e+00  7.2138922365570267e-05 -1.2915784090815299e-06 0.0000000000000000e+00  1.0063745388661992e-04 -1.7995367079059015e-06 0.0000000000000000e+00  1.3320555913397513e-04 -2.3801476139807830e-06 0.0000000000000000e+00  1.7119569748022295e-04 -3.0612487970504178e-06 0.0000000000000000e+00  2.1621234008900505e-04 -3.8807315694531148e-06 0.0000000000000000e+00  2.7019358736328009e-04 -4.8940304052636451e-06 0.0000000000000000e+00  3.3551360757466745e-04 -6.1879877967486933e-06 0.0000000000000000e+00  4.1511281060706376e-04 -7.9069553091019559e-06 0.0000000000000000e+00  5.1266470385721115e-04 -1.0302327366909978e-05 0.0000000000000000e+00  6.3279170733003521e-04 -1.3826480364000074e-05 0.0000000000000000e+00  7.8134989151721311e-04 -1.9308766441964080e-05 0.0000000000000000e+00  9.6582641547629565e-04 -2.8275815112942112e-05 0.0000000000000000e+00  1.1959754408832565e-03 -4.3505559058669554e-05 0.0000000000000000e+00  1.4850924313988536e-03 -6.9929004316186352e-05 0.0000000000000000e+00  0.0000000000000000e+00 0.0000000000000000e+00 0.0000000000000000e+00  2.1678442988834822e-05 -3.6987513468196487e-07 0.0000000000000000e+00  4.4250150913483361e-05 -7.5183358058095787e-07 0.0000000000000000e+00  6.8647733217828787e-05 -1.1581527681989655e-06 0.0000000000000000e+00  9.5893544635315185e-05 -1.6017777793085904e-06 0.0000000000000000e+00  1.2715246516190802e-04 -2.0968527980195680e-06 0.0000000000000000e+00  1.6379561293497692e-04 -2.6596723489657490e-06 0.0000000000000000e+00  2.0748067062685544e-04 -3.3105865049395402e-06 0.0000000000000000e+00  2.6025672174762125e-04 -4.0780407343401899e-06 0.0000000000000000e+00  3.2470492770205318e-04 -5.0073588548199285e-06 0.0000000000000000e+00  4.0413166220851476e-04 -6.1800588201240340e-06 0.0000000000000000e+00  5.0283889109337305e-04 -7.7566453187688161e-06 0.0000000000000000e+00  6.2650950307659441e-04 -1.0071980379766087e-05 0.0000000000000000e+00  7.8276705082781989e-04 -1.3848449054759088e-05 0.0000000000000000e+00  9.8201187915312647e-04 -2.0669445396785976e-05 0.0000000000000000e+00  1.2387441775132710e-03 -3.4003996271662064e-05 0.0000000000000000e+00  1.5739499799987588e-03 -6.1313780172523929e-05 0.0000000000000000e+00  0.0000000000000000e+00 0.0000000000000000e+00 0.0000000000000000e+00  1.9662686197133822e-05 -3.1862799637123291e-07 0.0000000000000000e+00  4.0155847506961234e-05 -6.4543567689278355e-07 0.0000000000000000e+00  6.2347692969415877e-05 -9.8814426921380094e-07 0.0000000000000000e+00  8.7196751179785621e-05 -1.3536986432499587e-06 0.0000000000000000e+00  1.1580620837744234e-04 -1.7475961232471278e-06 0.0000000000000000e+00  1.4949136498828010e-04 -2.1728795374923148e-06 0.0000000000000000e+00  1.8986755295554770e-04 -2.6287061682057916e-06 0.0000000000000000e+00  2.3896929659912198e-04 -3.1085617163086235e-06 0.0000000000000000e+00  2.9941717108812165e-04 -3.5987295695429438e-06 0.0000000000000000e+00  3.7465825024425727e-04 -4.0792750273914531e-06 0.0000000000000000e+00  4.6932206740993613e-04 -4.5346446191535729e-06 0.0000000000000000e+00  5.8976208896671385e-04 -4.9951562085976762e-06 0.0000000000000000e+00  7.4490382400879164e-04 -5.6726116754368359e-06 0.0000000000000000e+00  9.4761729775678818e-04 -7.3772813700358994e-06 0.0000000000000000e+00  1.2170167872131751e-03 -1.2744224460092266e-05 0.0000000000000000e+00  1.5825032749105588e-03 -2.9430239084401502e-05 0.0000000000000000e+00  0.0000000000000000e+00 0.0000000000000000e+00 0.0000000000000000e+00  1.6832156053537294e-05 -2.5946892301153092e-07 0.0000000000000000e+00  3.4389995869820662e-05 -5.2356953148977792e-07 0.0000000000000000e+00  5.3432867211135143e-05 -7.9595165963456179e-07 0.0000000000000000e+00  7.4803949686047422e-05 -1.0782774641634440e-06 0.0000000000000000e+00  9.9481488192625328e-05 -1.3684819586657913e-06 0.0000000000000000e+00  1.2864363458846094e-04 -1.6579285454413079e-06 0.0000000000000000e+00  1.6375484728675508e-04 -1.9266471684184914e-06 0.0000000000000000e+00  2.0668591527583745e-04 -2.1352956686012804e-06 0.0000000000000000e+00  2.5988676091263718e-04 -2.2115363619146639e-06 0.0000000000000000e+00  3.2664371969426989e-04 -2.0269282894450544e-06 0.0000000000000000e+00  4.1147621508326362e-04 -1.3580452457560369e-06 0.0000000000000000e+00  5.2077346174047960e-04 1.7647628376407609e-07 0.0000000000000000e+00  6.6386885507368934e-04 3.2030057983914035e-06 0.0000000000000000e+00  8.5497101351301465e-04 8.6256450287018408e-06 0.0000000000000000e+00  1.1168835908945199e-03 1.7027515391722855e-05 0.0000000000000000e+00  1.4884972045353571e-03 2.4079660110640070e-05 0.0000000000000000e+00  0.0000000000000000e+00 0.0000000000000000e+00 0.0000000000000000e+00  1.3292744637975823e-05 -1.9593249541438801e-07 0.0000000000000000e+00  2.7167654471273077e-05 -3.9382382081791582e-07 0.0000000000000000e+00  4.2234189352086219e-05 -5.9441087090394744e-07 0.0000000000000000e+00  5.9171956072182577e-05 -7.9583926071217003e-07 0.0000000000000000e+00  7.8773980079223547e-05 -9.9136281342814238e-07 0.0000000000000000e+00  1.0200210990716245e-04 -1.1654805419133532e-06 0.0000000000000000e+00  1.3006177226242960e-04 -1.2872192364010170e-06 0.0000000000000000e+00  1.6450718787705063e-04 -1.2981958856796752e-06 0.0000000000000000e+00  2.0739498331697544e-04 -1.0909500344431099e-06 0.0000000000000000e+00  2.6151659244462444e-04 -4.6856308707427445e-07 0.0000000000000000e+00  3.3076419779571779e-04 9.3335361941127846e-07 0.0000000000000000e+00  4.2073775852408048e-04 3.8050920830869047e-06 0.0000000000000000e+00  5.3983157219237481e-04 9.5068888644343033e-06 0.0000000000000000e+00  7.0140833802633169e-04 2.0877657132633925e-05 0.0000000000000000e+00  9.2873098842624071e-04 4.4258629177013436e-05 0.0000000000000000e+00  1.2648127856776858e-03 9.3838599273002429e-05 0.0000000000000000e+00  0.0000000000000000e+00 0.0000000000000000e+00 0.0000000000000000e+00  9.1878689937664854e-06 -1.3066985267281594e-07 0.0000000000000000e+00  1.8782342756779120e-05 -2.6175397376757605e-07 0.0000000000000000e+00  2.9209113377731121e-05 -3.9256759998139757e-07 0.0000000000000000e+00  4.0944097511335283e-05 -5.2004687557512827e-07 0.0000000000000000e+00  5.4544527747834296e-05 -6.3661981828751048e-07 0.0000000000000000e+00  7.0688943609414426e-05 -7.2659189060313603e-07 0.0000000000000000e+00  9.0231341678712041e-05 -7.5977898167227523e-07 0.0000000000000000e+00  1.1427749877846057e-04 -6.8003625737217693e-07 0.0000000000000000e+00  1.4429613840470046e-04 -3.8417367720583729e-07 0.0000000000000000e+00  1.8228560347229372e-04 3.1768683922260164e-07 0.0000000000000000e+00  2.3103103554385102e-04 1.7789023337925523e-06 0.0000000000000000e+00  2.9451650518029141e-04 4.6719560485617354e-06 0.0000000000000000e+00  3.7864186138586274e-04 1.0330091328977080e-05 0.0000000000000000e+00  4.9279188065815254e-04 2.1617946571459906e-05 0.0000000000000000e+00  6.5533579236981652e-04 4.5795978922238163e-05 0.0000000000000000e+00  9.2488224009416951e-04 1.0788413355711304e-04 0.0000000000000000e+00  0.0000000000000000e+00 0.0000000000000000e+00 0.0000000000000000e+00  4.6917538150474266e-06 -6.5198605368437478e-08 0.0000000000000000e+00  9.5921561747205988e-06 -1.3029836134325465e-07 0.0000000000000000e+00  1.4919582806489703e-05 -1.9455503220925882e-07 0.0000000000000000e+00  2.0918403226492976e-05 -2.5581462231406854e-07 0.0000000000000000e+00  2.7875047983859399e-05 -3.0924949929485363e-07 0.0000000000000000e+00  3.6138642634486483e-05 -3.4520830374969932e-07 0.0000000000000000e+00  4.6148829242126584e-05 -3.4542686961932298e-07 0.0000000000000000e+00  5.8474623892738175e-05 -2.7622944899280397e-07 0.0000000000000000e+00  7.3869943867903019e-05 -7.6210762901091904e-08 0.0000000000000000e+00  9.3353405146731809e-05 3.6607863855150515e-07 0.0000000000000000e+00  1.1831902421748302e-04 1.2516558209929253e-06 0.0000000000000000e+00  1.5066368603037765e-04 2.9351784785900820e-06 0.0000000000000000e+00  1.9279184620766418e-04 5.9954573012234359e-06 0.0000000000000000e+00  2.4671005485942465e-04 1.1114451436589083e-05 0.0000000000000000e+00  3.0838479576942516e-04 1.7596979863599970e-05 0.0000000000000000e+00  3.4419383520925681e-04 1.5940647747596849e-05 0.0000000000000000e+00  0.0000000000000000e+00 0.0000000000000000e+00 0.0000000000000000e+00  0.0000000000000000e+00 0.0000000000000000e+00 0.0000000000000000e+00  0.0000000000000000e+00 0.0000000000000000e+00 0.0000000000000000e+00  0.0000000000000000e+00 0.0000000000000000e+00 0.0000000000000000e+00  0.0000000000000000e+00 0.0000000000000000e+00 0.0000000000000000e+00  0.0000000000000000e+00 0.0000000000000000e+00 0.0000000000000000e+00  0.0000000000000000e+00 0.0000000000000000e+00 0.0000000000000000e+00  0.0000000000000000e+00 0.0000000000000000e+00 0.0000000000000000e+00  0.0000000000000000e+00 0.0000000000000000e+00 0.0000000000000000e+00  0.00000