<?xml version="1.0"?>
<VTKFile type="UnstructuredGrid"  version="0.1"  >
<UnstructuredGrid>
<Piece  NumberOfPoints="289" NumberOfCells="512">
<Points>
<DataArray  type="Float64"  NumberOfComponents="3"  format="ascii">0 0 0  0.0625 0 0  0.125 0 0  0.1875 0 0  0.25 0 0  0.3125 0 0  0.375 0 0  0.4375 0 0  0.5 0 0  0.5625 0 0  0.625 0 0  0.6875 0 0  0.75 0 0  0.8125 0 0  0.875 0 0  0.9375 0 0  1 0 0  0 0.0625 0  0.06248538300627871 0.06247898962458737 0  0.1249705010983068 0.06245760991128301 0  0.1874550913445053 0.06243552164684636 0  0.2499389576828503 0.06241246456360589 0  0.3124220220604482 0.06238830826814737 0  0.3749044025189528 0.06236311570130282 0  0.4373865354156277 0.06233721965831288 0  0.4998693695753725 0.06231130756820566 0  0.5623546804019603 0.06228650023775463 0  0.6248455925524843 0.0622643952329587 0  0.6873474845644663 0.06224702592758363 0  0.7498696235777362 0.06223667362683401 0  0.8124281695622932 0.06223550926622113 0  0.875051100811827 0.06224532326337062 0  0.9377803776738844 0.06226904458314934 0  1.000621043354557 0.0623251765252391 0  0 0.125 0  0.0624710241358411 0.1249583347455884 0  0.1249414992282086 0.1249158914882047 0  0.1874108822681601 0.1248719481462518 0  0.2498787614149679 0.1248259313459651 0  0.3123449582328865 0.1247775153378579 0  0.3748096853884505 0.1247267490401299 0  0.4372737947070639 0.1246742151227629 0  0.4997391707358014 0.1246212159780207 0  0.5622093613746093 0.1245699638224589 0  0.6246906038674328 0.1245237212585788 0  0.6871935260446987 0.1244867900280796 0  0.7497360080762049 0.1244641815287483 0  0.8123479544930936 0.1244607502424758 0  0.8750787845927415 0.1244796278957117 0  0.9380081302034441 0.1245201102985789 0  1.001271186036466 0.1245739949641198 0  0 0.1875 0  0.06245725493454907 0.1874384513873182 0  0.1249136265356514 0.1873756443266535 0  0.1873682391341331 0.1873103929777029 0  0.2498203927506188 0.1872417101221217 0  0.3122697037269596 0.187168946337239 0  0.374716324458866 0.1870919775355815 0  0.4371612897754039 0.1870114533964597 0  0.4996070606653533 0.1869291102151501 0  0.5620583717700068 0.1868481309057178 0  0.6245235409234966 0.1867734922868055 0  0.6870164626304226 0.1867121583260028 0  0.7495595426822462 0.1866728254112797 0  0.8121876911266949 0.1866646220826241 0  0.8749528424119898 0.186693449851133 0  0.9379272515919018 0.186752578883584 0  1.001205389764064 0.1867976820780657 0  0 0.25 0  0.06244445657286828 0.2499198264640172 0  0.1248876240968271 0.2498378200491397 0  0.187328216269829 0.2497522226917118 0  0.2497651324266361 0.2496614924520386 0  0.3121976137324624 0.2495644677439503 0  0.3746254937877858 0.2494606039224284 0  0.4370495980843878 0.2493503097046094 0  0.4994723680851934 0.2492354081655583 0  0.5618988111141349 0.2491197332919545 0  0.6243378974948428 0.2490098352666038 0  0.6868045131974667 0.2489156818753239 0  0.7493219591339561 0.2488510673512969 0  0.8119246283884125 0.2488331037640507 0  0.8746597367309107 0.2488795895157961 0  0.9375860729117663 0.2490023312389712 0  1.000768133991332 0.2491951775493197 0  0 0.3125 0  0.06243306803091275 0.3124030389951371 0  0.1248643651986264 0.3123035707644155 0  0.1872921089444947 0.312199145174733 0  0.2497146677179262 0.3120874997765314 0  0.3121307035730422 0.311966723691088 0  0.3745394154845316 0.3118355171797957 0  0.4369409419987754 0.3116935941825946 0  0.4993370029891693 0.3115422858707651 0  0.5617318806365191 0.3113854098720028 0  0.6241338435925767 0.3112304600772822 0  0.6865570701928281 0.3110901196674432 0  0.7490239639063724 0.3109839550051837 0  0.8115674104975349 0.3109398290665666 0  0.8742320768478121 0.3109939939939146 0  0.9370739499961077 0.3111880352336576 0  1.000159895471129 0.3115603416528274 0  0 0.375 0  0.06242357881545293 0.3748887649684841 0  0.1248448453404746 0.374774264913023 0  0.1872614501440732 0.3746532499516848 0  0.2496711115696206 0.3745225718192778 0  0.3120717125611597 0.3743793106947413 0  0.3744614951150912 0.3742210123010379 0  0.4368394152876861 0.3740461023237981 0  0.4992057499351447 0.3738545751983747 0  0.5615630786324484 0.3736490941594544 0  0.623917786789114 0.3734366836587967 0  0.6862822165944441 0.3732312226126588 0  0.748677476142135 0.3730569000430167 0  0.8111366549982255 0.3729525483160094 0  0.8737078742090308 0.3729761113505488 0  0.9364567610999434 0.37320722057438 0  0.9994699313961009 0.3737440246137504 0  0 0.4375 0  0.06241650502530666 0.4373777599459201 0  0.1248301358073393 0.4372514573342725 0  0.1872379447905878 0.4371169772783087 0  0.2496369231102841 0.4369701575179459 0  0.3120240191144957 0.4368068325156305 0  0.3743962394215168 0.4366229834076574 0  0.4367508990079473 0.4364150723236737 0  0.499086131046634 0.4361806896884385 0  0.5614018335246392 0.4359197231228911 0  0.6237013175751381 0.4356363770315148 0  0.685994013845832 0.4353425343009687 0  0.7482996319962778 0.4350631170006091 0  0.8106540441623968 0.4348441180315401 0  0.873116757052357 0.4347634481556383 0  0.9357792873767087 0.4349430120359274 0  0.9987741977890469 0.4355571793578519 0  0 0.5 0  0.06241235001460984 0.4998708148570715 0  0.1248213027724331 0.4997368024123306 0  0.1872233433241773 0.4995929937671933 0  0.2496147312613483 0.4994341670911785 0  0.3119914114255908 0.4992547616362548 0  0.374348974855394 0.4990488649690222 0  0.4366827328785924 0.4988103452071849 0  0.4989880315972073 0.4985332623560086 0  0.5612610519644503 0.498212805671585 0  0.6235005433244007 0.4978472038912662 0  0.6857112523341536 0.4974413951294448 0  0.7479102093591691 0.4970137716575519 0  0.810137327385248 0.4966079696458477 0  0.8724714178059274 0.4963119545221881 0  0.9350509343988677 0.4962850050742029 0  0.998096143852382 0.4967870468307695 0  0 0.5625 0  0.06241155309088386 0.5623686837432141 0  0.1248192983666424 0.5622319056102638 0  0.1872192631673764 0.5620839611922993 0  0.2496070704857694 0.5619186531240661 0  0.311977721389326 0.5617290382061989 0  0.3743253731324986 0.5615071835051342 0  0.4366431543438641 0.5612439705609666 0  0.4989231343696476 0.5609290426212074 0  0.5611567301953823 0.5605511055442018 0  0.6233361784842426 0.5600990321221748 0  0.685458358282766 0.559564709604121 0  0.7475333627021518 0.5589495476160947 0  0.8096016963264174 0.5582783659473882 0  0.8717648233057638 0.5576270304503171 0  0.9342310311092366 0.5571715260190221 0  0.9973678533135065 0.5572586910591378 0  0 0.625 0  0.06241443165610569 0.624871987626614 0  0.1248248343678436 0.6247381201936071 0  0.1872269730489491 0.6245922038896448 0  0.2496160447751678 0.6244273158216253 0  0.3119863307934749 0.6242353728588204 0  0.3743307684652651 0.624006620816678 0  0.4366404354529968 0.6237290245761629 0  0.4989039973609414 0.6233875629532751 0  0.5611073390999797 0.622963498893124 0  0.6232340344876715 0.6224338739906704 0  0.685268331721071 0.6217719420882549 0  0.7472045242162186 0.6209504640887281 0  0.8090706359204726 0.6199528535300195 0  0.8709798326629019 0.6188043042161837 0  0.9332241496830664 0.6176468285892396 0  0.9964088008843882 0.6168794544251642 0  0 0.6875 0  0.06242112405256925 0.6873811055008204 0  0.1248382536990726 0.6872563112513603 0  0.1872471636888596 0.6871193075391151 0  0.2496429493325215 0.6869628728836927 0  0.3120195745103804 0.6867782913112063 0  0.3743692563475719 0.6865545966011493 0  0.4366816040114109 0.6862775523055356 0  0.4989424276253834 0.6859282456396359 0  0.5611322077495257 0.6854811389003952 0  0.6232245472947685 0.6849014098834868 0  0.6851860155539086 0.6841415316835292 0  0.746981902371877 0.6831377210928641 0  0.808600312119392 0.6818097805529122 0  0.8701238572881336 0.680079173565206 0  0.9318984160751451 0.6779593408176723 0  0.9948283118542968 0.6758230122649962 0  0 0.75 0  0.06243154199620268 0.7498960700405471 0  0.124859419704421 0.7497866247387872 0  0.1872797396697707 0.7496657122773321 0  0.2496879031232795 0.7495263895462243 0  0.3120781095832228 0.749360056792979 0  0.3744426341862469 0.7491555492214818 0  0.4367707186337326 0.7488978334765968 0  0.499046819490734 0.7485660722966438 0  0.5612478273351548 0.748130674086539 0  0.6233387862877111 0.747548683693203 0  0.6852670058905251 0.7467563979799721 0  0.746956818615265 0.7456572772101341 0  0.8083169733058498 0.7441023568279249 0  0.8693066028522123 0.7418637587935314 0  0.9302023097101771 0.7386458183214426 0  0.9921392000061524 0.7345925959165923 0  0 0.8125 0  0.06244534228320901 0.8124164897252903 0  0.1248876465986415 0.8123283098459593 0  0.1873236782360386 0.8122303859523846 0  0.2497495748557872 0.8121167114698228 0  0.3121603894360001 0.811979701757234 0  0.3745493959295143 0.8118092845496936 0  0.4369069585135425 0.8115915502581045 0  0.4992185895049047 0.8113066754485045 0  0.5614614694778826 0.8109256331631239 0  0.6235980163744036 0.8104048201571238 0  0.6855638598250731 0.8096769152136425 0  0.7472459828919615 0.8086343038237509 0  0.8084481709816543 0.8070960103458912 0  0.8688667925329904 0.8047335004163316 0  0.9282795926104768 0.8008863121561002 0  0.9885649053657182 0.7940698847820182 0  0 0.875 0  0.06246192639874708 0.8749415184330172 0  0.1249216933133082 0.8748796429817817 0  0.1873770030376845 0.8748106672848984 0  0.2498251016887474 0.8747301590216858 0  0.3122624437196601 0.8746324467511853 0  0.3746841731470714 0.8745098840931772 0  0.4370832538143823 0.8743517386878312 0  0.4994489049474545 0.8741424585036529 0  0.5617635919076365 0.8738589068667174 0  0.6239968445187233 0.8734658843193338 0  0.6860917379146423 0.8729087649899789 0  0.7479336410395463 0.8721009606194601 0  0.8092748031119171 0.870900042810277 0  0.8695481121581522 0.8690482471406558 0  0.9274135601850276 0.865965129518891 0  0.9797841306434992 0.8598688763607111 0  0 0.9375 0  0.06248047278587681 0.9374698870470234 0  0.1249598338442246 0.9374379878560184 0  0.1874369044319106 0.9374023460522066 0  0.2499102764328654 0.9373606080083603 0  0.3123781466383922 0.9373097388934942 0  0.3748380633621004 0.9372456115533951 0  0.43728650432838
[...]
<PointData  Vectors="f_54"> 
<DataArray  type="Float64"  Name="f_54"  NumberOfComponents="3" format="ascii">0.0000000000000000e+00 0.0000000000000000e+00 0.0000000000000000e+00  0.0000000000000000e+00 0.0000000000000000e+00 0.0000000000000000e+00  0.0000000000000000e+00 0.0000000000000000e+00 0.0000000000000000e+00  0.0000000000000000e+00 0.0000000000000000e+00 0.0000000000000000e+00  0.0000000000000000e+00 0.0000000000000000e+00 0.0000000000000000e+00  0.0000000000000000e+00 0.0000000000000000e+00 0.0000000000000000e+00  0.0000000000000000e+00 0.0000000000000000e+00 0.0000000000000000e+00  0.0000000000000000e+00 0.0000000000000000e+00 0.0000000000000000e+00  0.0000000000000000e+00 0.0000000000000000e+00 0.0000000000000000e+00  0.0000000000000000e+00 0.0000000000000000e+00 0.0000000000000000e+00  0.0000000000000000e+00 0.0000000000000000e+00 0.0000000000000000e+00  0.0000000000000000e+00 0.0000000000000000e+00 0.0000000000000000e+00  0.0000000000000000e+00 0.0000000000000000e+00 0.0000000000000000e+00  0.0000000000000000e+00 0.0000000000000000e+00 0.0000000000000000e+00  0.0000000000000000e+00 0.0000000000000000e+00 0.0000000000000000e+00  0.0000000000000000e+00 0.0000000000000000e+00 0.0000000000000000e+00  0.0000000000000000e+00 0.0000000000000000e+00 0.0000000000000000e+00  0.0000000000000000e+00 0.0000000000000000e+00 0.0000000000000000e+00  3.9278346553323308e-06 1.0584344618310222e-07 0.0000000000000000e+00  7.9478516383502039e-06 2.1336575606146325e-07 0.0000000000000000e+00  1.2151021046331877e-05 3.2408970117739301e-07 0.0000000000000000e+00  1.6620145051004953e-05 4.3906176362621067e-07 0.0000000000000000e+00  2.1423714059034643e-05 5.5854177506742113e-07 0.0000000000000000e+00  2.6607015164271082e-05 6.8160753460451977e-07 0.0000000000000000e+00  3.2179349392230789e-05 8.0565707675337769e-07 0.0000000000000000e+00  3.8096011882757503e-05 9.2580409532845230e-07 0.0000000000000000e+00  4.4233357297997742e-05 1.0341742995364156e-06 0.0000000000000000e+00  5.0354559040337452e-05 1.1190968507502150e-06 0.0000000000000000e+00  5.6061819210930229e-05 1.1640605708914028e-06 0.0000000000000000e+00  6.0725639244286477e-05 1.1457985214115233e-06 0.0000000000000000e+00  6.3367122474839208e-05 1.0290541149148837e-06 0.0000000000000000e+00  6.2426689367902553e-05 7.4895735344543815e-07 0.0000000000000000e+00  5.5224808645264572e-05 1.4583418711014035e-07 0.0000000000000000e+00  3.6533188940209734e-05 -1.2916349777034585e-06 0.0000000000000000e+00  0.0000000000000000e+00 0.0000000000000000e+00 0.0000000000000000e+00  7.7590129115519170e-06 2.0988720236589335e-07 0.0000000000000000e+00  1.5706001296729161e-05 4.2335382248666001e-07 0.0000000000000000e+00  2.4027123846339683e-05 6.4369256932244555e-07 0.0000000000000000e+00  3.2893962950201259e-05 8.7330399055873569e-07 0.0000000000000000e+00  4.2452260668624536e-05 1.1131021391644368e-06 0.0000000000000000e+00  5.2805326944389720e-05 1.3617427014661932e-06 0.0000000000000000e+00  6.3989898277062691e-05 1.6146340005663951e-06 0.0000000000000000e+00  7.5941881939788381e-05 1.8627215541339947e-06 0.0000000000000000e+00  8.8448975334560163e-05 2.0910848628354075e-06 0.0000000000000000e+00  1.0108638506643973e-04 2.2774385414690004e-06 0.0000000000000000e+00  1.1313008236079788e-04 2.3906420987796397e-06 0.0000000000000000e+00  1.2343731746294005e-04 2.3892091063191689e-06 0.0000000000000000e+00  1.3027178719205782e-04 2.2196336258402353e-06 0.0000000000000000e+00  1.3102012676965852e-04 1.8157021628790527e-06 0.0000000000000000e+00  1.2167417360453930e-04 1.1137322190021423e-06 0.0000000000000000e+00  9.5787243639316319e-05 1.8778125066259868e-07 0.0000000000000000e+00  0.0000000000000000e+00 0.0000000000000000e+00 0.0000000000000000e+00  1.1395402021568466e-05 3.1016568913419163e-07 0.0000000000000000e+00  2.3081097379190518e-05 6.2622692533709929e-07 0.0000000000000000e+00  3.5346112827761921e-05 9.5371318556482099e-07 0.0000000000000000e+00  4.8461872887613572e-05 1.2969687994081642e-06 0.0000000000000000e+00  6.2667775856001490e-05 1.6583300749076220e-06 0.0000000000000000e+00  7.8149160614056153e-05 2.0370177250424757e-06 0.0000000000000000e+00  9.5004431870493997e-05 2.4276674177889836e-06 0.0000000000000000e+00  1.1319764907137811e-04 2.8184654537147608e-06 0.0000000000000000e+00  1.3249249070740592e-04 3.1889502853866060e-06 0.0000000000000000e+00  1.5236326044132240e-04 3.5077031670190829e-06 0.0000000000000000e+00  1.7187847497585648e-04 3.7303776914612911e-06 0.0000000000000000e+00  1.8955235102815292e-04 3.7987279509156703e-06 0.0000000000000000e+00  2.0315918734297399e-04 3.6412204037163311e-06 0.0000000000000000e+00  2.0950832298650623e-04 3.1745899520079952e-06 0.0000000000000000e+00  2.0420197200999790e-04 2.2992468574655085e-06 0.0000000000000000e+00  1.8152615009916619e-04 8.4407602090557323e-07 0.0000000000000000e+00  0.0000000000000000e+00 0.0000000000000000e+00 0.0000000000000000e+00  1.4732806748866496e-05 4.0430772480830332e-07 0.0000000000000000e+00  2.9866007082119242e-05 8.1737407260086947e-07 0.0000000000000000e+00  4.5800877737588905e-05 1.2475902500329605e-06 0.0000000000000000e+00  6.2922854436881767e-05 1.7020601504841266e-06 0.0000000000000000e+00  8.1586753706404378e-05 2.1856421751855376e-06 0.0000000000000000e+00  1.0209255045274790e-04 2.6995837592246158e-06 0.0000000000000000e+00  1.2464749866594667e-04 3.2396053104629542e-06 0.0000000000000000e+00  1.4930968069640869e-04 3.7933263045173820e-06 0.0000000000000000e+00  1.7590758757807470e-04 4.3370439921279321e-06 0.0000000000000000e+00  2.0393048779141342e-04 4.8321473455968948e-06 0.0000000000000000e+00  2.3238579714082806e-04 5.2219649388727902e-06 0.0000000000000000e+00  2.5962351959208209e-04 5.4306508505538593e-06 0.0000000000000000e+00  2.8313637071720863e-04 5.3666286124839375e-06 0.0000000000000000e+00  2.9936346237754855e-04 4.9333460312875343e-06 0.0000000000000000e+00  3.0357198325370695e-04 4.0477732631778868e-06 0.0000000000000000e+00  2.9000170037289782e-04 2.6615055850174464e-06 0.0000000000000000e+00  0.0000000000000000e+00 0.0000000000000000e+00 0.0000000000000000e+00  1.7659939911402108e-05 4.8941095250828345e-07 0.0000000000000000e+00  3.5837076649752764e-05 9.9102633528718741e-07 0.0000000000000000e+00  5.5053537961935391e-05 1.5167856979346353e-06 0.0000000000000000e+00  7.5823224877081443e-05 2.0775003769634137e-06 0.0000000000000000e+00  9.8640211421884913e-05 2.6819033826011938e-06 0.0000000000000000e+00  1.2395654110141543e-04 3.3351689647654899e-06 0.0000000000000000e+00  1.5214425881229091e-04 4.0366569967807883e-06 0.0000000000000000e+00  1.8343530450577454e-04 4.7766184432134195e-06 0.0000000000000000e+00  2.1783184749385529e-04 5.5316654057192857e-06 0.0000000000000000e+00  2.5497940496198383e-04 6.2590982008170829e-06 0.0000000000000000e+00  2.9399680565159154e-04 6.8909394549222695e-06 0.0000000000000000e+00  3.3326255403562507e-04 7.3301150299717904e-06 0.0000000000000000e+00  3.7016913484095882e-04 7.4539693862580975e-06 0.0000000000000000e+00  4.0087919696391662e-04 7.1339252739613791e-06 0.0000000000000000e+00  4.2015583427000222e-04 6.2824576954791275e-06 0.0000000000000000e+00  4.2139764891934648e-04 4.9340915801746356e-06 0.0000000000000000e+00  0.0000000000000000e+00 0.0000000000000000e+00 0.0000000000000000e+00  2.0059704973666109e-05 5.6201232519190929e-07 0.0000000000000000e+00  4.0756191013195116e-05 1.1401653487176459e-06 0.0000000000000000e+00  6.2737216585434950e-05 1.7505608624448011e-06 0.0000000000000000e+00  8.6656338704437278e-05 2.4086534335584877e-06 0.0000000000000000e+00  1.1316856777613036e-04 3.1285113012170746e-06 0.0000000000000000e+00  1.4291530609593549e-04 3.9214637745935750e-06 0.0000000000000000e+00  1.7649262190453082e-04 4.7937674362664450e-06 0.0000000000000000e+00  2.1439485093788230e-04 5.7427851577165286e-06 0.0000000000000000e+00  2.5692322935702940e-04 6.7510531358974665e-06 0.0000000000000000e+00  3.0404742991071618e-04 7.7776699399698853e-06 0.0000000000000000e+00  3.5520793004201054e-04 8.7470775090753073e-06 0.0000000000000000e+00  4.0905155333048436e-04 9.5373607791491012e-06 0.0000000000000000e+00  4.6310453762251827e-04 9.9750900245910603e-06 0.0000000000000000e+00  5.1340901879583754e-04 9.8529542447653925e-06 0.0000000000000000e+00  5.5417442734737954e-04 8.9990902435514754e-06 0.0000000000000000e+00  5.7750155111965221e-04 7.4342367205706411e-06 0.0000000000000000e+00  0.0000000000000000e+00 0.0000000000000000e+00 0.0000000000000000e+00  2.1813262082145427e-05 6.1818621652206340e-07 0.0000000000000000e+00  4.4378663921913053e-05 1.2566941825588779e-06 0.0000000000000000e+00  6.8467203957339563e-05 1.9361597839507556e-06 0.0000000000000000e+00  9.4875928700285771e-05 2.6774007305265727e-06 0.0000000000000000e+00  1.2443514876238004e-04 3.5011445781415904e-06 0.0000000000000000e+00  1.5800638177025894e-04 4.4271666424687256e-06 0.0000000000000000e+00  1.9646476787701136e-04 5.4723770764750158e-06 0.0000000000000000e+00  2.4065654578961495e-04 6.6470899255257263e-06 0.0000000000000000e+00  2.9131798141169288e-04 7.9482468819565565e-06 0.0000000000000000e+00  3.4893732580584298e-04 9.3478041751864117e-06 0.0000000000000000e+00  4.1353742014061805e-04 1.0774172513823033e-05 0.0000000000000000e+00  4.8435686235731454e-04 1.2085704373743794e-05 0.0000000000000000e+00  5.5941790610486094e-04 1.3040719765043289e-05 0.0000000000000000e+00  6.3499426237053388e-04 1.3284098248750415e-05 0.0000000000000000e+00  7.0502120894984875e-04 1.2402433467520288e-05 0.0000000000000000e+00  7.6046662187944074e-04 1.0145728238601121e-05 0.0000000000000000e+00  0.0000000000000000e+00 0.0000000000000000e+00 0.0000000000000000e+00  2.2807071240531608e-05 6.5379381390818703e-07 0.0000000000000000e+00  4.6467462826592333e-05 1.3319293484785061e-06 0.0000000000000000e+00  7.1862561084085752e-05 2.0595181792405048e-06 0.0000000000000000e+00  9.9925055920009051e-05 2.8629883681950506e-06 0.0000000000000000e+00  1.3166171152420895e-04 3.7705499369646770e-06 0.0000000000000000e+00  1.6817041608987502e-04 4.8122744538467501e-06 0.0000000000000000e+00  2.1064593861405481e-04 6.0193546873487683e-06 0.0000000000000000e+00  2.6036461637487634e-04 7.4216675435358662e-06 0.0000000000000000e+00  3.1863174254657972e-04 9.0419163720346355e-06 0.0000000000000000e+00  3.8666635526224218e-04 1.0883106238980889e-05 0.0000000000000000e+00  4.6538726014709792e-04 1.2903692115522139e-05 0.0000000000000000e+00  5.5505550310811923e-04 1.4971954385094355e-05 0.0000000000000000e+00  6.5473280495668518e-04 1.6791390956871104e-05 0.0000000000000000e+00  7.6155111292676490e-04 1.7803159868273315e-05 0.0000000000000000e+00  8.6986279935670398e-04 1.7122952381204332e-05 0.0000000000000000e+00  9.7036605615455232e-04 1.3679525974765521e-05 0.0000000000000000e+00  0.0000000000000000e+00 0.0000000000000000e+00 0.0000000000000000e+00  2.2942721193131525e-05 6.6488830630573508e-07 0.0000000000000000e+00  4.6813518422436260e-05 1.3574373185873671e-06 0.0000000000000000e+00  7.2578139211602121e-05 2.1065744041165092e-06 0.0000000000000000e+00  1.0128138177688826e-04 2.9438417691192575e-06 0.0000000000000000e+00  1.3408827109482729e-04 3.9048018746405323e-06 0.0000000000000000e+00  1.7232554648810434e-04 5.0304771136327665e-06 0.0000000000000000e+00  2.1752016812646318e-04 6.3686302371455141e-06 0.0000000000000000e+00  2.7142691696719105e-04 7.9742931121746417e-06 0.0000000000000000e+00  3.3602890353580362e-04 9.9079835636446789e-06 0.0000000000000000e+00  4.1348102334793919e-04 1.2227790833853800e-05 0.0000000000000000e+00  5.0594564750941593e-04 1.4966534116891212e-05 0.0000000000000000e+00  6.1524426200862913e-04 1.8075279513194270e-05 0.0000000000000000e+00  7.4223275495976073e-04 2.1298419257755136e-05 0.0000000000000000e+00  8.8584624339617748e-04 2.3932471673043949e-05 0.0000000000000000e+00  1.0419422444275454e-03 2.4456370670865324e-05 0.0000000000000000e+00  1.2024709395960646e-03 2.0199383042809115e-05 0.0000000000000000e+00  0.0000000000000000e+00 0.0000000000000000e+00 0.0000000000000000e+00  2.2148852905404067e-05 6.4824755419200121e-07 0.0000000000000000e+00  4.5260846532403628e-05 1.3261700203536555e-06 0.0000000000000000e+00  7.0345424104869121e-05 2.0651503387147533e-06 0.0000000000000000e+00  9.8517402337787102e-05 2.9004027978089843e-06 0.0000000000000000e+00  1.3105716357914767e-04 3.8733406482613756e-06 0.0000000000000000e+00  1.6947951814117693e-04 5.0345470441640455e-06 0.0000000000000000e+00  2.1561229886072402e-04 6.4476241688735666e-06 0.0000000000000000e+00  2.7168211296922754e-04 8.1941561999725085e-06 0.0000000000000000e+00  3.4039653395506286e-04 1.0379625598296723e-05 0.0000000000000000e+00  4.2499532433390978e-04 1.3138491784585550e-05 0.0000000000000000e+00  5.2921201089924954e-04 1.6631246068628917e-05 0.0000000000000000e+00  6.5703537665759968e-04 2.1010477602502452e-05 0.0000000000000000e+00  8.1209359312005584e-04 2.6292049349880605e-05 0.0000000000000000e+00  9.9645834120113915e-04 3.1980146633946917e-05 0.0000000000000000e+00  1.2088859401877406e-03 3.6188073725887916e-05 0.0000000000000000e+00  1.4432166095178546e-03 3.4066576191924125e-05 0.0000000000000000e+00  0.0000000000000000e+00 0.0000000000000000e+00 0.0000000000000000e+00  2.0393901495568841e-05 6.0196310577329218e-07 0.0000000000000000e+00  4.1733950810432505e-05 1.2337553180510001e-06 0.0000000000000000e+00  6.5018521427847534e-05 1.9271892601842449e-06 0.0000000000000000e+00  9.1371179604087601e-05 2.7187415857678742e-06 0.0000000000000000e+00  1.2211707993984853e-04 3.6526328269672594e-06 0.0000000000000000e+00  1.5887763871950326e-04 4.7850261950828764e-06 0.0000000000000000e+00  2.0369090786111842e-04 6.1901501817287897e-06 0.0000000000000000e+00  2.5916464037978825e-04 7.9697241746208226e-06 0.0000000000000000e+00  3.2866490718839889e-04 1.0268052017221191e-05 0.0000000000000000e+00  4.1652953406813440e-04 1.3296484127680718e-05 0.0000000000000000e+00  5.2826073971031071e-04 1.7371194879522635e-05 0.0000000000000000e+00  6.7057397064470723e-04 2.2959948688628555e-05 0.0000000000000000e+00  8.5103290323990219e-04 3.0687382184815892e-05 0.0000000000000000e+00  1.0768000096520469e-03 4.1067054126299347e-05 0.0000000000000000e+00  1.3521481082043136e-03 5.3217051538938870e-05 0.0000000000000000e+00  1.6764820786756476e-03 6.2316992684822531e-05 0.0000000000000000e+00  0.0000000000000000e+00 0.0000000000000000e+00 0.0000000000000000e+00  1.7697797526713364e-05 5.2597449332138287e-07 0.0000000000000000e+00  3.6263637670815899e-05 1.0796975136265077e-06 0.0000000000000000e+00  5.6619166664567971e-05 1.6909245622886641e-06 0.0000000000000000e+00  7.9819055219447005e-05 2.3942679842311930e-06 0.0000000000000000e+00  1.0713649549173020e-04 3.2324751639039398e-06 0.0000000000000000e+00  1.4017557472939646e-04 4.2610166691471743e-06 0.0000000000000000e+00  1.8102515129211517e-04 5.5550316112381100e-06 0.0000000000000000e+00  2.3247393127838229e-04 7.2206886003076054e-06 0.0000000000000000e+00  2.9831160064420147e-04 9.4153563961830348e-06 0.0000000000000000e+00  3.8374142777854224e-04 1.2386414344781230e-05 0.0000000000000000e+00  4.9591153867802930e-04 1.6550708644641339e-05 0.0000000000000000e+00  6.4449752985434525e-04 2.2660530208151228e-05 0.0000000000000000e+00  8.4205019436243284e-04 3.2129678320207997e-05 0.0000000000000000e+00  1.1032876840317962e-03 4.7500001309668631e-05 0.0000000000000000e+00  1.4415814364060922e-03 7.1803729912646455e-05 0.0000000000000000e+00  1.8655542220302659e-03 9.4343390531587430e-05 0.0000000000000000e+00  0.0000000000000000e+00 0.0000000000000000e+00 0.0000000000000000e+00  1.4140344230773082e-05 4.2242121978115000e-07 0.0000000000000000e+00  2.9006288169118321e-05 8.6819004370140436e-07 0.0000000000000000e+00  4.5372376898822982e-05 1.3624090007139479e-06 0.0000000000000000e+00  6.4137468758819087e-05 1.9344974782175878e-06 0.0000000000000000e+00  8.6408008477465749e-05 2.6210532310216667e-06 0.0000000000000000e+00  1.1361256021100397e-04 3.4697454567672900e-06 0.0000000000000000e+00  1.4766766547345977e-04 4.5449450711413486e-06 0.0000000000000000e+00  1.9122633660242962e-04 5.9364443848408493e-06 0.0000000000000000e+00  2.4805846524678435e-04 7.7744209299211395e-06 0.0000000000000000e+00  3.2363893425270759e-04 1.0259356736016642e-05 0.0000000000000000e+00  4.2605069766167071e-04 1.3733554235519008e-05 0.0000000000000000e+00  5.6731831104089370e-04 1.8879065624906822e-05 0.0000000000000000e+00  7.6515349483456056e-04 2.7312325631650498e-05 0.0000000000000000e+00  1.0443897077401136e-03 4.3430889788353907e-05 0.0000000000000000e+00  1.4343915067837340e-03 8.0429750698955647e-05 0.0000000000000000e+00  1.9381239614416903e-03 1.8654017569866733e-04 0.0000000000000000e+00  0.0000000000000000e+00 0.0000000000000000e+00 0.0000000000000000e+00  9.8639318632666305e-06 2.9571022485438383e-07 0.0000000000000000e+00  2.0251283552369593e-05 6.0829133061801372e-07 0.0000000000000000e+00  3.1723148008374763e-05 9.5589169778494573e-07 0.0000000000000000e+00  4.4937735068477963e-05 1.3598238837224492e-06 0.0000000000000000e+00  6.0717492222097948e-05 1.8465520802878676e-06 0.0000000000000000e+00  8.0144585541816663e-05 2.4501481093127364e-06 0.0000000000000000e+00  1.0470500724465268e-04 3.2151788805652016e-06 0.0000000000000000e+00  1.3651582460098421e-04 4.1994591707077182e-06 0.0000000000000000e+00  1.7869655261310111e-04 5.4746613580995663e-06 0.0000000000000000e+00  2.3599525384660459e-04 7.1194088444370024e-06 0.0000000000000000e+00  3.1587346917656093e-04 9.1936208518078796e-06 0.0000000000000000e+00  4.3042913650550630e-04 1.1682331797526863e-05 0.0000000000000000e+00  5.9985561392013136e-04 1.4460209218643870e-05 0.0000000000000000e+00  8.5866599437537034e-04 1.7731836299525108e-05 0.0000000000000000e+00  1.2664233646279700e-03 2.5110240997542589e-05 0.0000000000000000e+00  1.9230538233661785e-03 5.6555358100053723e-05 0.0000000000000000e+00  0.0000000000000000e+00 0.0000000000000000e+00 0.0000000000000000e+00  5.0687695550047657e-06 1.5226443541784456e-07 0.0000000000000000e+00  1.0412209641240177e-05 3.1337804284869219e-07 0.0000000000000000e+00  1.6325585998830248e-05 4.9285601357534106e-07 0.0000000000000000e+00  2.3157695566333547e-05 7.0186451721684947e-07 0.0000000000000000e+00  3.1348619943755299e-05 9.5419033064576265e-07 0.0000000000000000e+00  4.1484599093008192e-05 1.2672682767952352e-06 0.0000000000000000e+00  5.4383049357065971e-05 1.6628458420238648e-06 0.0000000000000000e+00  7.1230949132329040e-05 2.1657155738440992e-06 0.0000000000000000e+00  9.3819771886082250e-05 2.7953123669634978e-06 0.0000000000000000e+00  1.2495930219695256e-04 3.5333984260704405e-06 0.0000000000000000e+00  1.6922654235434128e-04 4.2136223481300364e-06 0.0000000000000000e+00  2.3432069151803746e-04 4.1565124173641831e-06 0.0000000000000000e+00  3.3331290378558082e-04 9.8335374498429835e-07 0.0000000000000000e+00  4.8692189865881362e-04 -1.3042697582589606e-05 0.0000000000000000e+00  7.1723453046112888e-04 -6.0084310579056054e-05 0.0000000000000000e+00  1.0000837187031993e-03 -1.8109158513182679e-04 0.0000000000000000e+00  0.0000000000000000e+00 0.0000000000000000e+00 0.0000000000000000e+00  0.0000000000000000e+00 0.0000000000000000e+00 0.0000000000000000e+00  0.0000000000000000e+00 0.0000000000000000e+00 0.0000000000000000e+00  0.0000000000000000e+00 0.0000000000000000e+00 0.0000000000000000e+00  0.0000000000000000e+00 0.0000000000000000e+00 0.0000000000000000e+00  0.0000000000000000e+00 0.0000000000000000e+00 0.0000000000000000e+00  0.0000000000000000e+00 0.0000000000000000e+00 0.0000000000000000e+00  0.0000000000000000e+00 0.0000000000000000e+00 0.0000000000000000e+00  0.0000000000000000e+00 0.0000000000000000e+00 0.0000000000000000e+00  0.0000000000000000e+00 0.0000000000000000e+00 0.0000000000000000e+00  0.0000000000000000e+00 0.0000000000000000e+00 0.0000000000000000e+00  0.0000000000000000e+00 0.0000000000000000e+00 0.0000000000000000e+00  0.000000