<?xml version="1.0"?>
<VTKFile type="UnstructuredGrid"  version="0.1"  >
<UnstructuredGrid>
<Piece  NumberOfPoints="289" NumberOfCells="512">
<Points>
<DataArray  type="Float64"  NumberOfComponents="3"  format="ascii">0 0 0  0.0625 0 0  0.125 0 0  0.1875 0 0  0.25 0 0  0.3125 0 0  0.375 0 0  0.4375 0 0  0.5 0 0  0.5625 0 0  0.625 0 0  0.6875 0 0  0.75 0 0  0.8125 0 0  0.875 0 0  0.9375 0 0  1 0 0  0 0.0625 0  0.06242786444040272 0.0624945078224509 0  0.1248538357459973 0.06248889858924585 0  0.1872760511012719 0.06248306233032825 0  0.2496927439047434 0.06247690551542871 0  0.3121023264718928 0.06247036267141445 0  0.3745035174085425 0.0624634119841208 0  0.4368955321753788 0.06245609579594295 0  0.4992783568001066 0.06244854606570141 0  0.5616531230706763 0.06244101315073868 0  0.6240225925595936 0.06243389340695933 0  0.6863917166745113 0.06242774762216408 0  0.7487680984895058 0.06242330273586403 0  0.8111616481263357 0.06242145536950809 0  0.8735805330029724 0.06242344623537641 0  0.936010890340469 0.0624321385627728 0  0.9983229207684801 0.06245974829726677 0  0 0.125 0  0.06235770819019451 0.1249891328901684 0  0.1247115996675321 0.1249780241589328 0  0.1870579075458864 0.1249664450433669 0  0.2493930323637023 0.1249541969716797 0  0.3117136932865454 0.1249411335719858 0  0.3740171673967299 0.1249271910029917 0  0.4363016555635331 0.1249124289312384 0  0.4985668194306662 0.1248970831493261 0  0.5608145387068164 0.1248816277241405 0  0.6230499382136969 0.1248668383916716 0  0.6852827253718987 0.1248538379815165 0  0.7475288561831922 0.1248440867780004 0  0.8098125316961698 0.124839250109712 0  0.872168783022244 0.1248407938368571 0  0.9346495633057816 0.1248487398571076 0  0.9973566182339212 0.1248561220396323 0  0 0.1875 0  0.0622914700230752 0.1874840003246356 0  0.1245771396191006 0.1874676207585664 0  0.1868512552730426 0.1874504973888421 0  0.2491082501767878 0.1874323047359352 0  0.3113429332441354 0.1874127854557273 0  0.3735508046776302 0.187391793160779 0  0.4357285564763505 0.1873693530252663 0  0.4978748286588024 0.1873457439073173 0  0.5599913050350804 0.1873216025309533 0  0.622084244424722 0.1872980424925678 0  0.6841665544746474 0.1872767644447872 0  0.746260535825407 0.1872601014682282 0  0.8084015045667976 0.1872508804549689 0  0.8706428404970679 0.1872518515771054 0  0.9330642795192141 0.1872641821498009 0  0.9957886852323571 0.1872843718672196 0  0 0.25 0  0.06223114812373359 0.2499792489177897 0  0.1244544475528526 0.2499579625286042 0  0.1866620614074821 0.2499356206563322 0  0.2488462838445467 0.2499117414101003 0  0.3109997210141965 0.2498859140310714 0  0.3731156274259632 0.2498578496974962 0  0.4351884739833835 0.249827458303712 0  0.4972148436629362 0.2497949600307856 0  0.5591947722554486 0.2497610395988032 0  0.6211336700917285 0.2497270456932701 0  0.6830449682233432 0.2496952229501773 0  0.7449536175825046 0.2496689298058351 0  0.8069005202725337 0.2496527281645827 0  0.8689478838739616 0.2496521161894391 0  0.9311853331785751 0.2496725388846243 0  0.9937358708684836 0.2497173652043253 0  0 0.3125 0  0.06217880147627946 0.3124750344799196 0  0.1243476731072494 0.312449361751897 0  0.1864966230263057 0.3124222838085927 0  0.2486156436677717 0.3123931297699201 0  0.3106948266245394 0.312361285189257 0  0.3727246469151672 0.3123262430760349 0  0.4346965069629444 0.3122876884922732 0  0.4966036595887275 0.3122456325074976 0  0.5584426625515722 0.3122006154225357 0  0.6202155469367566 0.3121540013201704 0  0.6819328910384387 0.3121083808725619 0  0.7436179483689607 0.3120680758329925 0  0.8053118315614785 0.3120396769786539 0  0.8670794349143157 0.3120324204284703 0  0.9290152100368438 0.3120579978678553 0  0.991246958398897 0.3121291239280695 0  0 0.375 0  0.06213651552612207 0.3749715290762955 0  0.1242610621957758 0.3749421684800248 0  0.1863614946968043 0.374911026108019 0  0.2484254083919469 0.3748772131310663 0  0.3104401227845126 0.3748398610953607 0  0.3723928276252358 0.3747981616647159 0  0.4342709896508795 0.3747514439387045 0  0.4960631591200379 0.3746993121597544 0  0.5577603679449188 0.3746418781017561 0  0.6193583688190638 0.3745801374294154 0  0.6808610081806956 0.3745165547288516 0  0.7422850132200826 0.3744559266731023 0  0.8036663302749584 0.3744065587671495 0  0.8650677773177626 0.3743816616185984 0  0.9265870805484397 0.3744005633121127 0  0.9883633622012812 0.3744887908132259 0  0 0.4375 0  0.06210632554976307 0.4374689150208775 0  0.1241988058225019 0.4374367591586469 0  0.1862632684176601 0.4374024420424612 0  0.2482849491311706 0.4373648402097455 0  0.3102482787126915 0.4373227923272789 0  0.37213679834677 0.437275113200742 0  0.43393329873282 0.4372206419619911 0  0.4956203325960526 0.4371583511013292 0  0.5571813304905501 0.4370875622120378 0  0.618602656958411 0.4370083455398723 0  0.6798770686687399 0.4369222272741333 0  0.7410091391353756 0.4368333878824208 0  0.8020232009727846 0.4367505798033569 0  0.8629740513828305 0.4366899367977288 0  0.9239598485516414 0.436678496139144 0  0.9851352479877203 0.4367573288595442 0  0 0.5 0  0.06209009621710666 0.4999673730177183 0  0.1241647944241305 0.4999335126304658 0  0.1862081945076361 0.4998971449831118 0  0.248203408462455 0.4998569172206147 0  0.3101320952809717 0.4998113621179739 0  0.3719740580554013 0.4997588715739896 0  0.4337069776736825 0.4996976902596221 0  0.4953064227906811 0.4996259526857433 0  0.5567463846378897 0.4995418103557987 0  0.618000758119207 0.4994437404292348 0  0.6790464455265659 0.4993312096582947 0  0.7398690875546308 0.4992060079862387 0  0.8004727326047918 0.4990747725292529 0  0.8608947439616759 0.4989534233761174 0  0.9212263147324681 0.4988741141215139 0  0.9816365117812852 0.4988940773850769 0  0 0.5625 0  0.06208936239648546 0.5624670647581346 0  0.1241622864280952 0.5624327737710457 0  0.1862016524698374 0.5623957088635053 0  0.2481889378188954 0.5623543236143311 0  0.3101034681162456 0.5623068724498831 0  0.3719216305660575 0.562251333035599 0  0.4336160784829608 0.562185323656165 0  0.4951550198475018 0.5621060249837075 0  0.556501806191838 0.5620101343639883 0  0.617615270241775 0.5618939249079192 0  0.6784516734225507 0.5617535824259805 0  0.7389697986798607 0.5615862125690473 0  0.7991416645630126 0.5613923514254229 0  0.8589722014025513 0.561181570851101 0  0.918530740322924 0.5609836342915745 0  0.9779924612128805 0.5608671997724561 0  0 0.625 0  0.06210514408995023 0.6249681115477959 0  0.1241935161856429 0.6249348077821112 0  0.1862475072780078 0.6248985919164236 0  0.2482477337595818 0.6248577952471062 0  0.3101720128587259 0.6248104723968426 0  0.3719941730110004 0.6247542716522078 0  0.4336826563278535 0.6246862683766838 0  0.4951989079556483 0.62460274727304 0  0.5564956476566025 0.624498920600528 0  0.6175153579606901 0.6243685857274109 0  0.6781898482297452 0.6242037912971752 0  0.7384428234192776 0.6239947941154333 0  0.7981993523609513 0.623731196622403 0  0.8574091104771527 0.6234066918916692 0  0.9160928089294583 0.6230330171131442 0  0.9744174314405502 0.6226723813539395 0  0 0.6875 0  0.06213775675905615 0.6874705719143442 0  0.1242592847651358 0.6874397513512654 0  0.1863474178922127 0.6874060524734237 0  0.2483829622949196 0.6873677892642858 0  0.3103434565372232 0.687322946861182 0  0.3722016338558862 0.687269012520742 0  0.4339234507401782 0.6872027409217616 0  0.4954655284086167 0.6871198138502177 0  0.5567718705353955 0.687014329068631 0  0.617769851184506 0.6868780127987321 0  0.6783659118419102 0.6866989999250558 0  0.7384426408621573 0.686460026855671 0  0.7978619532787173 0.686136225181211 0  0.8564856847615753 0.6856944805586604 0  0.9142358502971341 0.6851028437462786 0  0.9712207107860925 0.6843745276968284 0  0 0.75 0  0.06218664576314931 0.7499744222079434 0  0.1243585944220336 0.7499475695208011 0  0.1865001972091645 0.7499180722930732 0  0.2485937166017708 0.7498843558353944 0  0.3106179915045737 0.7498445050257171 0  0.3725466998082131 0.7497960816342694 0  0.4343459913292152 0.7497358626718532 0  0.4959711700973258 0.749659445969121 0  0.5573619785137288 0.7495606242953806 0  0.618435905604544 0.7494303341563934 0  0.6790789454245163 0.7492547797322422 0  0.7391338714106699 0.7490119025716612 0  0.7983889992535356 0.7486646046292449 0  0.8565804140171174 0.7481486117734581 0  0.9134495529472123 0.7473583996959674 0  0.9689514113203999 0.7461871175396901 0  0 0.8125 0  0.06225027797866831 0.8124795444581482 0  0.1244883990613533 0.8124580279601943 0  0.1867013479345961 0.8124343053073102 0  0.248874205339878 0.8124070482201764 0  0.3109888896839472 0.8123746235898588 0  0.3730224592972336 0.8123349289047647 0  0.4349446953169677 0.8122851577728314 0  0.4967145246118976 0.8122214514084919 0  0.5582745674186111 0.8121383565185081 0  0.6195426278465678 0.8120279259813322 0  0.6803981783418572 0.8118780717948978 0  0.7406607836204719 0.8116691072224258 0  0.8000566827363 0.8113653220313818 0  0.85817452311031 0.8108918251274356 0  0.9144496112349167 0.810065999183917 0  0.9684436660341013 0.8083842131239997 0  0 0.875 0  0.06232612228369342 0.8749857248574499 0  0.124643542392649 0.8749706884669008 0  0.1869429047919599 0.8749540667615368 0  0.2492133944450303 0.874934899054853 0  0.3114417487743324 0.8749119978176283 0  0.3736108910580841 0.874883828856946 0  0.4356979257008819 0.874848347268676 0  0.49767106286789 0.8748027725866474 0  0.5594847163837526 0.8747432903524374 0  0.6210713903601568 0.8746646886033995 0  0.6823276796435465 0.874559997450929 0  0.7430888536471151 0.8744202981380571 0  0.8030795962424762 0.8742347393141535 0  0.861810674589909 0.8739885039282524 0  0.9183477230661999 0.8736408904146618 0  0.9708210700949385 0.8729682863512265 0  0 0.9375 0  0.06241074136510046 0.9374926642975574 0  0.1248169370420467 0.9374849310119971 0  0.1872136870391366 0.9374763691376179 0  0.2495952966605244 0.9374664750565385 0  0.3119547307128338 0.9374546251772848 0  0.3742828476095491 0.9374400146321109 0  0.4365672571203437 0.93742
[...]
<PointData  Vectors="f_54"> 
<DataArray  type="Float64"  Name="f_54"  NumberOfComponents="3" format="ascii">0.0000000000000000e+00 0.0000000000000000e+00 0.0000000000000000e+00  0.0000000000000000e+00 0.0000000000000000e+00 0.0000000000000000e+00  0.0000000000000000e+00 0.0000000000000000e+00 0.0000000000000000e+00  0.0000000000000000e+00 0.0000000000000000e+00 0.0000000000000000e+00  0.0000000000000000e+00 0.0000000000000000e+00 0.0000000000000000e+00  0.0000000000000000e+00 0.0000000000000000e+00 0.0000000000000000e+00  0.0000000000000000e+00 0.0000000000000000e+00 0.0000000000000000e+00  0.0000000000000000e+00 0.0000000000000000e+00 0.0000000000000000e+00  0.0000000000000000e+00 0.0000000000000000e+00 0.0000000000000000e+00  0.0000000000000000e+00 0.0000000000000000e+00 0.0000000000000000e+00  0.0000000000000000e+00 0.0000000000000000e+00 0.0000000000000000e+00  0.0000000000000000e+00 0.0000000000000000e+00 0.0000000000000000e+00  0.0000000000000000e+00 0.0000000000000000e+00 0.0000000000000000e+00  0.0000000000000000e+00 0.0000000000000000e+00 0.0000000000000000e+00  0.0000000000000000e+00 0.0000000000000000e+00 0.0000000000000000e+00  0.0000000000000000e+00 0.0000000000000000e+00 0.0000000000000000e+00  0.0000000000000000e+00 0.0000000000000000e+00 0.0000000000000000e+00  0.0000000000000000e+00 0.0000000000000000e+00 0.0000000000000000e+00  4.6515119993683942e-07 -1.9025595381043265e-08 0.0000000000000000e+00  9.1526725628893211e-07 -3.8482387611805758e-08 0.0000000000000000e+00  1.3308022873610863e-06 -5.8842875996362854e-08 0.0000000000000000e+00  1.6824814123905465e-06 -8.0674566771584123e-08 0.0000000000000000e+00  1.9250127225962396e-06 -1.0473537080961168e-07 0.0000000000000000e+00  1.9889156407103923e-06 -1.3213668261688104e-07 0.0000000000000000e+00  1.7694421575541417e-06 -1.6461391322199068e-07 0.0000000000000000e+00  1.1108691663568520e-06 -2.0496021652054015e-07 0.0000000000000000e+00  -2.1733041019200340e-07 -2.5770682058275163e-07 0.0000000000000000e+00  -2.5606488158089248e-06 -3.3020159994087960e-07 0.0000000000000000e+00  -6.4574073988457244e-06 -4.3445033307124153e-07 0.0000000000000000e+00  -1.2814375734189738e-05 -5.9078776446920914e-07 0.0000000000000000e+00  -2.3361549954259076e-05 -8.3673622700167065e-07 0.0000000000000000e+00  -4.1977379981021638e-05 -1.2516853992969777e-06 0.0000000000000000e+00  -7.8961073050982518e-05 -2.0303080790370861e-06 0.0000000000000000e+00  -1.6590900397224812e-04 -3.6998934932615307e-06 0.0000000000000000e+00  0.0000000000000000e+00 0.0000000000000000e+00 0.0000000000000000e+00  9.4421990782113005e-07 -3.7572441267791344e-08 0.0000000000000000e+00  1.8630347227959164e-06 -7.5964491439758700e-08 0.0000000000000000e+00  2.7226332138750165e-06 -1.1605984229083493e-07 0.0000000000000000e+00  3.4710448999486716e-06 -1.5889156098132209e-07 0.0000000000000000e+00  4.0264162186205857e-06 -2.0580234977894098e-07 0.0000000000000000e+00  4.2618740448607939e-06 -2.5872744815198656e-07 0.0000000000000000e+00  3.9853599960165554e-06 -3.2067366144724506e-07 0.0000000000000000e+00  2.9120870731221422e-06 -3.9649285984184950e-07 0.0000000000000000e+00  6.2558898007133832e-07 -4.9407532350645478e-07 0.0000000000000000e+00  -3.4806758567705095e-06 -6.2612349311472724e-07 0.0000000000000000e+00  -1.0298711855273142e-05 -8.1275494984418906e-07 0.0000000000000000e+00  -2.1177409526570757e-05 -1.0855092854272287e-06 0.0000000000000000e+00  -3.8251571986997206e-05 -1.4945474099993237e-06 0.0000000000000000e+00  -6.5059559993372150e-05 -2.1252312747066636e-06 0.0000000000000000e+00  -1.0741005320898906e-04 -3.1468753927280307e-06 0.0000000000000000e+00  -1.7249787209021290e-04 -4.9869296756733487e-06 0.0000000000000000e+00  0.0000000000000000e+00 0.0000000000000000e+00 0.0000000000000000e+00  1.4475550860621346e-06 -5.5250137007794122e-08 0.0000000000000000e+00  2.8679501375669570e-06 -1.1164543021533481e-07 0.0000000000000000e+00  4.2228103464238778e-06 -1.7038579603848794e-07 0.0000000000000000e+00  5.4494383730742391e-06 -2.3280406179223900e-07 0.0000000000000000e+00  6.4450367928299320e-06 -3.0053691856670946e-07 0.0000000000000000e+00  7.0463822871293104e-06 -3.7585157367655551e-07 0.0000000000000000e+00  7.0031400049424027e-06 -4.6223005834719470e-07 0.0000000000000000e+00  5.9427715669459034e-06 -5.6534895407669156e-07 0.0000000000000000e+00  3.3246844578535584e-06 -6.9461436695809284e-07 0.0000000000000000e+00  -1.6191120516907101e-06 -8.6537650860117530e-07 0.0000000000000000e+00  -9.9596624283159350e-06 -1.1017522222117264e-06 0.0000000000000000e+00  -2.3163082766884338e-05 -1.4393614673628147e-06 0.0000000000000000e+00  -4.3181629230698184e-05 -1.9253883233829113e-06 0.0000000000000000e+00  -7.2450178330440190e-05 -2.6068675915411099e-06 0.0000000000000000e+00  -1.1342102608506225e-04 -3.4719240121932129e-06 0.0000000000000000e+00  -1.6651464949103735e-04 -4.1897656748860997e-06 0.0000000000000000e+00  0.0000000000000000e+00 0.0000000000000000e+00 0.0000000000000000e+00  1.9768966216041450e-06 -7.1732065707588382e-08 0.0000000000000000e+00  3.9363476620397650e-06 -1.4488356497227365e-07 0.0000000000000000e+00  5.8483467129866066e-06 -2.2088133382218235e-07 0.0000000000000000e+00  7.6554288740073293e-06 -3.0118282764682515e-07 0.0000000000000000e+00  9.2545582539353899e-06 -3.8738712002738607e-07 0.0000000000000000e+00  1.0473557572097347e-05 -4.8150204369092739e-07 0.0000000000000000e+00  1.1040122195501946e-05 -5.8649300165547744e-07 0.0000000000000000e+00  1.0541701647027205e-05 -7.0730310466253829e-07 0.0000000000000000e+00  8.3754909837348787e-06 -8.5259583431241775e-07 0.0000000000000000e+00  3.6903570734720984e-06 -1.0374726788476248e-06 0.0000000000000000e+00  -4.6713069236795841e-06 -1.2872170357032273e-06 0.0000000000000000e+00  -1.8209647821498229e-05 -1.6414153669452425e-06 0.0000000000000000e+00  -3.8727273232184210e-05 -2.1561064373048679e-06 0.0000000000000000e+00  -6.8090010605236260e-05 -2.8985537802349010e-06 0.0000000000000000e+00  -1.0753565511306440e-04 -3.9277913464674492e-06 0.0000000000000000e+00  -1.5612998831710653e-04 -5.2817246726406325e-06 0.0000000000000000e+00  0.0000000000000000e+00 0.0000000000000000e+00 0.0000000000000000e+00  2.5224765907086201e-06 -8.6743986711858256e-08 0.0000000000000000e+00  5.0500684779358131e-06 -1.7517947152628798e-07 0.0000000000000000e+00  7.5757312554884447e-06 -2.6692512420789007e-07 0.0000000000000000e+00  1.0065447387214822e-05 -3.6344954258416545e-07 0.0000000000000000e+00  1.2439768061304662e-05 -4.6604580966436692e-07 0.0000000000000000e+00  1.4549063702584338e-05 -5.7591409301276494e-07 0.0000000000000000e+00  1.6140094224507460e-05 -6.9448502093772917e-07 0.0000000000000000e+00  1.6811753305023410e-05 -8.2422621301976254e-07 0.0000000000000000e+00  1.5959064772269909e-05 -9.7033144913693971e-07 0.0000000000000000e+00  1.2707890763222866e-05 -1.1438700615861844e-06 0.0000000000000000e+00  5.8504902512317648e-06 -1.3670624250947512e-06 0.0000000000000000e+00  -6.1923921632568626e-06 -1.6810614731091611e-06 0.0000000000000000e+00  -2.5328860695022529e-05 -2.1554191396767524e-06 0.0000000000000000e+00  -5.3573772753828798e-05 -2.8956567145510292e-06 0.0000000000000000e+00  -9.2497083663281468e-05 -4.0413113286729348e-06 0.0000000000000000e+00  -1.4219409648566015e-04 -5.7445860548105585e-06 0.0000000000000000e+00  0.0000000000000000e+00 0.0000000000000000e+00 0.0000000000000000e+00  3.0616028388397921e-06 -1.0001466274450021e-07 0.0000000000000000e+00  6.1633310822961352e-06 -2.0207190714695370e-07 0.0000000000000000e+00  9.3354908480558479e-06 -3.0804776854791370e-07 0.0000000000000000e+00  1.2585976596508684e-05 -4.1944691813174407e-07 0.0000000000000000e+00  1.5883783088478059e-05 -5.3717706590766562e-07 0.0000000000000000e+00  1.9135547105483471e-05 -6.6131728819544275e-07 0.0000000000000000e+00  2.2151932713134404e-05 -7.9097759243308557e-07 0.0000000000000000e+00  2.4600287133170666e-05 -9.2449582065014785e-07 0.0000000000000000e+00  2.5940255452862313e-05 -1.0604933367636648e-06 0.0000000000000000e+00  2.5340998713218385e-05 -1.2007678582683143e-06 0.0000000000000000e+00  2.1584224880352115e-05 -1.3566453678383525e-06 0.0000000000000000e+00  1.2969481035793005e-05 -1.5610479326988786e-06 0.0000000000000000e+00  -2.7390518076544235e-06 -1.8884306092047825e-06 0.0000000000000000e+00  -2.8249495017443472e-05 -2.4820392095633671e-06 0.0000000000000000e+00  -6.6447087905784224e-05 -3.5788406415105253e-06 0.0000000000000000e+00  -1.1973505906900199e-04 -5.5001671577861877e-06 0.0000000000000000e+00  0.0000000000000000e+00 0.0000000000000000e+00 0.0000000000000000e+00  3.5590341124052123e-06 -1.1119365850375160e-07 0.0000000000000000e+00  7.2032725243796867e-06 -2.2495383924657647e-07 0.0000000000000000e+00  1.1012438626864943e-05 -3.4360808413150687e-07 0.0000000000000000e+00  1.5052718156406767e-05 -4.6892435225658116e-07 0.0000000000000000e+00  1.9364937878786623e-05 -6.0166491135700615e-07 0.0000000000000000e+00  2.3945634441468368e-05 -7.4094944963944993e-07 0.0000000000000000e+00  2.8716909572290276e-05 -8.8341523983792850e-07 0.0000000000000000e+00  3.3479432815661596e-05 -1.0222981336066950e-06 0.0000000000000000e+00  3.7841207143364946e-05 -1.1468926271982042e-06 0.0000000000000000e+00  4.1113367059315503e-05 -1.2435666990076928e-06 0.0000000000000000e+00  4.2164838471075263e-05 -1.3008660251716197e-06 0.0000000000000000e+00  3.9233318778740880e-05 -1.3234470940870886e-06 0.0000000000000000e+00  2.9706504126822881e-05 -1.3622862921745694e-06 0.0000000000000000e+00  9.9233765544457511e-06 -1.5696237145540040e-06 0.0000000000000000e+00  -2.4891607756579891e-05 -2.2798956496533849e-06 0.0000000000000000e+00  -8.0364787119675216e-05 -4.0895408010451795e-06 0.0000000000000000e+00  0.0000000000000000e+00 0.0000000000000000e+00 0.0000000000000000e+00  3.9693639098079770e-06 -1.1975602172635317e-07 0.0000000000000000e+00  8.0746399248708440e-06 -2.4284671451590439e-07 0.0000000000000000e+00  1.2452428518018462e-05 -3.7236279205100223e-07 0.0000000000000000e+00  1.7238778517404744e-05 -5.1078519110338589e-07 0.0000000000000000e+00  2.2564993251068276e-05 -6.5938114347155032e-07 0.0000000000000000e+00  2.8547337473202682e-05 -8.1718494688352060e-07 0.0000000000000000e+00  3.5266033410971483e-05 -9.7935472880111930e-07 0.0000000000000000e+00  4.2726080448775527e-05 -1.1347134890832932e-06 0.0000000000000000e+00  5.0788114872915043e-05 -1.2624913348729088e-06 0.0000000000000000e+00  5.9051511288271420e-05 -1.3289959945498857e-06 0.0000000000000000e+00  6.6664699077743445e-05 -1.2867684281516072e-06 0.0000000000000000e+00  7.2031808683626914e-05 -1.0827694805569289e-06 0.0000000000000000e+00  7.2387870591514268e-05 -6.8951932591853495e-07 0.0000000000000000e+00  6.3244362171577091e-05 -1.8368826040589399e-07 0.0000000000000000e+00  3.7794090230122213e-05 9.6332555472679212e-08 0.0000000000000000e+00  -1.3460245069042357e-05 -6.9797698133449391e-07 0.0000000000000000e+00  0.0000000000000000e+00 0.0000000000000000e+00 0.0000000000000000e+00  4.2414911610709665e-06 -1.2492944038307616e-07 0.0000000000000000e+00  8.6688871451156602e-06 -2.5420811259817406e-07 0.0000000000000000e+00  1.3476267388827122e-05 -3.9204875140951474e-07 0.0000000000000000e+00  1.8873311653531555e-05 -5.4225386400856320e-07 0.0000000000000000e+00  2.5091530008069511e-05 -7.0763289858507543e-07 0.0000000000000000e+00  3.2387164985747889e-05 -8.8882546270363556e-07 0.0000000000000000e+00  4.1036741370328231e-05 -1.0820786919723149e-06 0.0000000000000000e+00  5.1317465412966999e-05 -1.2752936983966121e-06 0.0000000000000000e+00  6.3458081870789419e-05 -1.4414376448155587e-06 0.0000000000000000e+00  7.7534819511978969e-05 -1.5285118245092256e-06 0.0000000000000000e+00  9.3269981953236596e-05 -1.4465181490914886e-06 0.0000000000000000e+00  1.0966708860266679e-04 -1.0563049551538572e-06 0.0000000000000000e+00  1.2439119494882020e-04 -1.7690736585645265e-07 0.0000000000000000e+00  1.3279720951629538e-04 1.3466919860720240e-06 0.0000000000000000e+00  1.2658150818101819e-04 3.4319069538307287e-06 0.0000000000000000e+00  9.2301052657326005e-05 5.2893824693909645e-06 0.0000000000000000e+00  0.0000000000000000e+00 0.0000000000000000e+00 0.0000000000000000e+00  4.3250168662528657e-06 -1.2569129182126902e-07 0.0000000000000000e+00  8.8774833568123185e-06 -2.5688032381108420e-07 0.0000000000000000e+00  1.3900872030460639e-05 -3.9916990304994118e-07 0.0000000000000000e+00  1.9671612271190371e-05 -5.5827044119946000e-07 0.0000000000000000e+00  2.6517591278668931e-05 -7.3972988615796898e-07 0.0000000000000000e+00  3.4838126503349734e-05 -9.4807350494209164e-07 0.0000000000000000e+00  4.5123670182684177e-05 -1.1847353413176751e-06 0.0000000000000000e+00  5.7969942388525750e-05 -1.4436153674864502e-06 0.0000000000000000e+00  7.4073938267524135e-05 -1.7021786186456487e-06 0.0000000000000000e+00  9.4185186613959359e-05 -1.9046894805764480e-06 0.0000000000000000e+00  1.1895967938510188e-04 -1.9328966592118044e-06 0.0000000000000000e+00  1.4861891222072058e-04 -1.5603477102939445e-06 0.0000000000000000e+00  1.8224561438261535e-04 -3.9611290160240984e-07 0.0000000000000000e+00  2.1645574722588869e-04 2.1411141469057353e-06 0.0000000000000000e+00  2.4312934434424634e-04 6.6832879641686426e-06 0.0000000000000000e+00  2.4605947290983968e-04 1.3287983400436490e-05 0.0000000000000000e+00  0.0000000000000000e+00 0.0000000000000000e+00 0.0000000000000000e+00  4.1780382324533586e-06 -1.2088178708365899e-07 0.0000000000000000e+00  8.6084765602913543e-06 -2.4829468848401069e-07 0.0000000000000000e+00  1.3566562511531331e-05 -3.8922267616632535e-07 0.0000000000000000e+00  1.9376037819262830e-05 -5.5155210095745368e-07 0.0000000000000000e+00  2.6439782008711688e-05 -7.4444314716316019e-07 0.0000000000000000e+00  3.5278290795714687e-05 -9.7843166365029134e-07 0.0000000000000000e+00  4.6578386346814648e-05 -1.2647469995051076e-06 0.0000000000000000e+00  6.1252984355426098e-05 -1.6126179090401641e-06 0.0000000000000000e+00  8.0507984220148408e-05 -2.0218120817321117e-06 0.0000000000000000e+00  1.0590032669559347e-04 -2.4645736968879277e-06 0.0000000000000000e+00  1.3934373126745341e-04 -2.8454387414087829e-06 0.0000000000000000e+00  1.8295978451760567e-04 -2.9185542247625641e-06 0.0000000000000000e+00  2.3855387768519372e-04 -2.1336656399482059e-06 0.0000000000000000e+00  3.0627554384689141e-04 6.0603309542020848e-07 0.0000000000000000e+00  3.8167445798345143e-04 7.1863130702873435e-06 0.0000000000000000e+00  4.5015363499152812e-04 2.0060483289712494e-05 0.0000000000000000e+00  0.0000000000000000e+00 0.0000000000000000e+00 0.0000000000000000e+00  3.7753463136169443e-06 -1.0945528890626858e-07 0.0000000000000000e+00  7.8043152259154457e-06 -2.2600253331206829e-07 0.0000000000000000e+00  1.2367546959974209e-05 -3.5754696319633400e-07 0.0000000000000000e+00  1.7804171756875294e-05 -5.1376505189619953e-07 0.0000000000000000e+00  2.4551547180479139e-05 -7.0732083847693141e-07 0.0000000000000000e+00  3.3199292037592600e-05 -9.5546998943499767e-07 0.0000000000000000e+00  4.4565268309211448e-05 -1.2820673449722825e-06 0.0000000000000000e+00  5.9803439845379353e-05 -1.7195810368631578e-06 0.0000000000000000e+00  8.0555270453759462e-05 -2.3094384332175984e-06 0.0000000000000000e+00  1.0915452161211057e-04 -3.0954969318898312e-06 0.0000000000000000e+00  1.4888183242652827e-04 -4.0964349347757883e-06 0.0000000000000000e+00  2.0421986809066679e-04 -5.2217389672342071e-06 0.0000000000000000e+00  2.8093350336293990e-04 -6.0515403370315042e-06 0.0000000000000000e+00  3.8548045509183228e-04 -5.3241184707105461e-06 0.0000000000000000e+00  5.2248308430850963e-04 8.4175886008805962e-08 0.0000000000000000e+00  6.8714482173343010e-04 1.6407371679994010e-05 0.0000000000000000e+00  0.0000000000000000e+00 0.0000000000000000e+00 0.0000000000000000e+00  3.1155815570402609e-06 -9.0840710115453350e-08 0.0000000000000000e+00  6.4578440995720964e-06 -1.8849104637372848e-07 0.0000000000000000e+00  1.0280516242054930e-05 -3.0080118736741988e-07 0.0000000000000000e+00  1.4896719536208389e-05 -4.3798674427662123e-07 0.0000000000000000e+00  2.0721482828425218e-05 -6.1456479143969595e-07 0.0000000000000000e+00  2.8332754526399455e-05 -8.5245183706485803e-07 0.0000000000000000e+00  3.8563059631866133e-05 -1.1861058227366886e-06 0.0000000000000000e+00  5.2640764739004182e-05 -1.6711101933289743e-06 0.0000000000000000e+00  7.2410683410170692e-05 -2.3981634875991326e-06 0.0000000000000000e+00  1.0067963376115814e-04 -3.5142488630297945e-06 0.0000000000000000e+00  1.4175269079348609e-04 -5.2486172002356782e-06 0.0000000000000000e+00  2.0224063574682572e-04 -7.9222997420686678e-06 0.0000000000000000e+00  2.9218915448569051e-04 -1.1852717638836292e-05 0.0000000000000000e+00  4.2637886305931449e-04 -1.6850784574318680e-05 0.0000000000000000e+00  6.2492928321163045e-04 -2.0325564001854140e-05 0.0000000000000000e+00  9.1049518523672514e-04 -1.0204992871056599e-05 0.0000000000000000e+00  0.0000000000000000e+00 0.0000000000000000e+00 0.0000000000000000e+00  2.2256507197080376e-06 -6.5314339891064311e-08 0.0000000000000000e+00  4.6226776304915461e-06 -1.3607709316819356e-07 0.0000000000000000e+00  7.3845772900021210e-06 -2.1872923465285943e-07 0.0000000000000000e+00  1.0753924588329937e-05 -3.2202891394350201e-07 0.0000000000000000e+00  1.5058879943636052e-05 -4.5914247571482995e-07 0.0000000000000000e+00  2.0767637781085583e-05 -6.5131707291072379e-07 0.0000000000000000e+00  2.8574066912898715e-05 -9.3470429868587323e-07 0.0000000000000000e+00  3.9537174204327034e-05 -1.3735131829867151e-06 0.0000000000000000e+00  5.5314089931044131e-05 -2.0860732135651475e-06 0.0000000000000000e+00  7.8557298393497384e-05 -3.2975730016010963e-06 0.0000000000000000e+00  1.1360315400526477e-04 -5.4482136382084899e-06 0.0000000000000000e+00  1.6768018209464028e-04 -9.4157435054010405e-06 0.0000000000000000e+00  2.5304075973345047e-04 -1.6969040892904683e-05 0.0000000000000000e+00  3.9064349559761859e-04 -3.1669861700026700e-05 0.0000000000000000e+00  6.1562316774754788e-04 -6.0570009770790870e-05 0.0000000000000000e+00  9.7950902169538414e-04 -1.1671464837831906e-04 0.0000000000000000e+00  0.0000000000000000e+00 0.0000000000000000e+00 0.0000000000000000e+00  1.1608692384047401e-06 -3.4235455330415189e-08 0.0000000000000000e+00  2.4143363759661819e-06 -7.1523024901032905e-08 0.0000000000000000e+00  3.8655599626966500e-06 -1.1552936106258041e-07 0.0000000000000000e+00  5.6477587108572709e-06 -1.7137913658637074e-07 0.0000000000000000e+00  7.9436351945790047e-06 -2.4704736370367622e-07 0.0000000000000000e+00  1.1018161993363136e-05 -3.5593637612501341e-07 0.0000000000000000e+00  1.5271734281960671e-05 -5.2196928867009509e-07 0.0000000000000000e+00  2.1329813658538442e-05 -7.9017616351020331e-07 0.0000000000000000e+00  3.0198706832117120e-05 -1.2497259510940072e-06 0.0000000000000000e+00  4.3542168638269342e-05 -2.0862720094175299e-06 0.0000000000000000e+00  6.4176211517445191e-05 -3.7057181507555440e-06 0.0000000000000000e+00  9.6933651963940586e-05 -7.0356863599412209e-06 0.0000000000000000e+00  1.5002848725693545e-04 -1.4266603947425371e-05 0.0000000000000000e+00  2.3651622578087808e-04 -3.0614993389546351e-05 0.0000000000000000e+00  3.7283222938602290e-04 -6.8008492690441237e-05 0.0000000000000000e+00  5.6310857138754567e-04 -1.4968511613839582e-04 0.0000000000000000e+00  0.0000000000000000e+00 0.0000000000000000e+00 0.0000000000000000e+00  0.0000000000000000e+00 0.0000000000000000e+00 0.0000000000000000e+00  0.0000000000000000e+00 0.0000000000000000e+00 0.0000000000000000e+00  0.0000000000000000e+00 0.0000000000000000e+00 0.0000000000000000e+00  0.0000000000000000e+00 0.0000000000000000e+00 0.0000000000000000e+00  0.0000000000000000e+00 0.0000000000000000e+00 0.0000000000000000e+00  0.0000000000000000e+00 0.0000000000000000e+00 0.0000000000000000e+00  0.0000000000000000e+00 0.0000000000000000e+00 0.0000000000000000e+00  0.0000000000000000e+00 0