<?xml version="1.0"?>
<VTKFile type="UnstructuredGrid"  version="0.1"  >
<UnstructuredGrid>
<Piece  NumberOfPoints="289" NumberOfCells="512">
<Points>
<DataArray  type="Float64"  NumberOfComponents="3"  format="ascii">0 0 0  0.0625 0 0  0.125 0 0  0.1875 0 0  0.25 0 0  0.3125 0 0  0.375 0 0  0.4375 0 0  0.5 0 0  0.5625 0 0  0.625 0 0  0.6875 0 0  0.75 0 0  0.8125 0 0  0.875 0 0  0.9375 0 0  1 0 0  0 0.0625 0  0.06255392446042436 0.06247966063665884 0  0.125109467584539 0.0624589424630755 0  0.1876682713133742 0.06243749338600974 0  0.2502319919088713 0.06241503239773129 0  0.312802299917706 0.06239139624629624 0  0.3753808731088381 0.06236659851587292 0  0.4379693865042365 0.0623409021117188 0  0.5005695151706928 0.06231490125006099 0  0.5631829923509499 0.06228959985371454 0  0.6258118292259216 0.06226645750487148 0  0.6884589591345338 0.06224734993106447 0  0.7511299695710211 0.06223435984112542 0  0.8138376289673378 0.0622292897474231 0  0.8766135130534348 0.06223283299512915 0  0.9395360376155726 0.0622438236740539 0  1.002779752805519 0.06226430679076544 0  0 0.125 0  0.06260621785702811 0.1249596857062897 0  0.1252156821483316 0.1249185782322594 0  0.1878316943790669 0.1248759336521043 0  0.2504576047781094 0.124831141228166 0  0.3130968248454321 0.1247838136557103 0  0.3757528282059592 0.1247339048479318 0  0.4384291466555039 0.1246818600131603 0  0.5011293864153656 0.1246287948223092 0  0.5638573285774123 0.1245766843267891 0  0.6266172584312347 0.1245285127363049 0  0.6894148275077275 0.1244882866883138 0  0.7522590332350961 0.1244607482838149 0  0.8151662490296127 0.1244505752580992 0  0.8781669878793833 0.1244609945949764 0  0.9413124233730714 0.1244926563047806 0  1.004667051871693 0.1245460649561006 0  0 0.1875 0  0.06265526007498384 0.1874404964505104 0  0.1253153849210718 0.1873797210262794 0  0.1879853357203582 0.1873164649346598 0  0.250670180455778 0.1872496954764398 0  0.3133751315461866 0.1871786819773018 0  0.3761055655372866 0.1871031683082428 0  0.4388670281081457 0.1870236053349905 0  0.5016652419457888 0.1869414494868432 0  0.5645061618298165 0.1868595159418509 0  0.6273961641865876 0.1867823369737067 0  0.6903425060882353 0.1867164005622404 0  0.7533541670439166 0.1866699974111163 0  0.8164428260037266 0.1866520996892974 0  0.8796223209138321 0.1866689412978631 0  0.9429015586787333 0.1867146453783404 0  1.006263380459896 0.1867442149806812 0  0 0.25 0  0.06269944909729373 0.2499225775333311 0  0.1254053417742035 0.2498433212480109 0  0.1881242691838909 0.2497604605638028 0  0.2508630142246379 0.2496724129928846 0  0.3136286287039668 0.2495779307099516 0  0.3764284855798987 0.2494763154852237 0  0.4392703012549322 0.2493677294030133 0  0.5021621270757577 0.2492536282469697 0  0.5651123131501328 0.2491373351201008 0  0.6281294403350199 0.2490247423048882 0  0.6912221616484395 0.2489250575030554 0  0.7543986978337295 0.2488513552057467 0  0.817665200458349 0.2488203823246926 0  0.8810211113106613 0.2488505018289478 0  0.9444484114064927 0.248955924665878 0  1.007893158199445 0.2491361496047982 0  0 0.3125 0  0.06273722230962836 0.3124064950210355 0  0.1254823841565007 0.3123105075320624 0  0.188243633105074 0.3122095998814549 0  0.2510294228167796 0.3121014914363027 0  0.3138486477829369 0.3119842013671638 0  0.3767107501504928 0.3118562798918731 0  0.439625786690588 0.3117171731237285 0  0.5026044393926969 0.3115677789258408 0  0.5656579402940685 0.3114112620594068 0  0.6287978443238034 0.3112541972498454 0  0.692035487927454 0.3111080776063916 0  0.7553807538422407 0.3109911204266159 0  0.8188393652951443 0.3109300490478782 0  0.8824074894793296 0.3109610406730056 0  0.9460628483144454 0.3111283274011333 0  1.009755477805195 0.3114784133155684 0  0 0.375 0  0.06276709136513697 0.3748928988930256 0  0.1255434776073862 0.3747825972374095 0  0.1883387294838748 0.3746658988267164 0  0.2511628674509329 0.3745396804088967 0  0.3140265746073942 0.3744009963577267 0  0.3769413880096114 0.3742472827889354 0  0.4399198567999023 0.3740767227396779 0  0.5029756496952049 0.3738888632274201 0  0.5661235810910488 0.3736856159192047 0  0.6293794924136451 0.3734728241462417 0  0.6927598491800854 0.3732626273366578 0  0.75628075973272 0.3730768587526691 0  0.8199558801965098 0.3729515756672053 0  0.8837924956072012 0.372942362358489 0  0.9477855719825861 0.3731290535909512 0  1.011912035470373 0.3736169839520821 0  0 0.4375 0  0.06278769454919665 0.4373825048186966 0  0.1255858264761356 0.4372610640748732 0  0.1884051804676177 0.4371316732187798 0  0.2512571584033728 0.4369902600347901 0  0.3141540897526866 0.4368327097294987 0  0.3771095384598864 0.4366549824769739 0  0.44013860512 0.4364533928558422 0  0.5032582259742918 0.4362251660065556 0  0.5664874773463676 0.4359694593186044 0  0.6298479055122654 0.435689153892735 0  0.6933639109651081 0.4353938865342846 0  0.7570632021991407 0.4351049945634543 0  0.8209772624426824 0.4348631808748394 0  0.8851416282500192 0.434739479763436 0  0.9495957039469469 0.4348489781556665 0  1.014382486129796 0.4353644690459968 0  0 0.5 0  0.06279786855955516 0.4998760514036938 0  0.1256070197063056 0.4997474534584147 0  0.188439152483067 0.4996094156246371 0  0.2513067624111087 0.4994568897848962 0  0.3142235615492446 0.4992844741874747 0  0.3772049232575654 0.4990863776484615 0  0.4402683685469689 0.4988565045289557 0  0.5034341302081914 0.4985887743647903 0  0.566725877299234 0.49827788729432 0  0.6301717806424146 0.4979209209730374 0  0.6938062822138947 0.4975204485175874 0  0.757673216636884 0.4970903607399961 0  0.8218312606217566 0.4966662531576437 0  0.8863627937816145 0.4963227593308104 0  0.9513866547734597 0.4961993370829719 0  1.017074227752436 0.4965314073790856 0  0 0.5625 0  0.06279673796130604 0.5623742323278335 0  0.1256052150359974 0.5622432425581044 0  0.1884376462711946 0.5621015759210475 0  0.2513072155944119 0.561943302101045 0  0.3142286056123271 0.5617617673699806 0  0.3772185850816811 0.5615493479162463 0  0.4402966899447811 0.5612972338543082 0  0.5034860700337344 0.5609953183926144 0  0.566814665343312 0.5606323600415062 0  0.6303170899623697 0.5601967792419964 0  0.6940380582130292 0.5596788504421746 0  0.7580390515951487 0.5590758611047962 0  0.8224112811816436 0.5584033499325137 0  0.8872994329638553 0.5577179409714739 0  0.9529406073731203 0.5571589117830429 0  1.019719093672646 0.5570098951941234 0  0 0.625 0  0.06278381572900493 0.6248776077722478 0  0.1255793487611677 0.624749652686336 0  0.1883988340616709 0.6246102533532043 0  0.2512556173643673 0.6244528418600639 0  0.3141647798474399 0.6242697569515873 0  0.3771438521897841 0.6240517598681504 0  0.4402136657278559 0.6237874507171894 0  0.50339942950058 0.6234625793378185 0  0.5667322372254384 0.6230592930934962 0  0.6302515147005916 0.6225554958347597 0  0.694009681090747 0.6219248398842879 0  0.7580820412671804 0.6211387865917528 0  0.8225884270982018 0.6201745449035334 0  0.8877386115062882 0.6190384038945861 0  0.9539179408555442 0.6178237464609099 0  1.021824844120935 0.6168197265028603 0  0 0.6875 0  0.06275910318209542 0.6873865055492421 0  0.1255293474150862 0.6872674351923779 0  0.1883224072425593 0.68713683225657 0  0.2511511528718607 0.686987893506942 0  0.3140303394935323 0.6868124298409096 0  0.3769774133301034 0.6866001688300244 0  0.4400134834816649 0.6863378161065842 0  0.5031645325412968 0.6860077645602263 0  0.5664630211428998 0.6855863071033671 0  0.6299503165122912 0.6850411872788988 0  0.693681238990509 0.6843283850152979 0  0.7577345455041553 0.683388478754851 0  0.8222399021277197 0.6821449483117434 0  0.8874472328345646 0.6805151501839817 0  0.953886854235471 0.6784759441574254 0  1.022674126246343 0.6762779167259445 0  0 0.75 0  0.0627231734690487 0.749900927940213 0  0.1254563088993603 0.7497966652594896 0  0.1882098836232047 0.749681619132856 0  0.2509955710440611 0.7495492843402507 0  0.3138269489306673 0.7493916341777843 0  0.3767203478534081 0.7491982933757765 0  0.4396958864690525 0.7489553591508572 0  0.5027787309226021 0.7486436656457996 0  0.5660006017682144 0.7482361683035862 0  0.6294015914169285 0.7476939215083328 0  0.6930327510375351 0.7469597642460288 0  0.7569619120356961 0.745948203339202 0  0.8212934489866595 0.7445291582308009 0  0.8862425465781487 0.7425045527310014 0  0.9523945055547502 0.7396023057967214 0  1.021267116110226 0.7357879172837669 0  0 0.8125 0  0.06267722076812517 0.8124204834914698 0  0.1253626160592893 0.8123365863937405 0  0.1880648159436541 0.8122435568993244 0  0.2507935363107336 0.8121357896739265 0  0.313560242988553 0.8120062377968964 0  0.3763789736388361 0.8118455891269409 0  0.4392673705888402 0.8116410517769083 0  0.5022479470158923 0.8113745003618478 0  0.5653494997970319 0.811019572583116 0  0.6286082873736544 0.8105370132485333 0  0.6920679441664257 0.8098669922720904 0  0.7557761864113571 0.808915859525687 0  0.8197777425930105 0.8075315821653491 0  0.8841246546449114 0.8054532701808206 0  0.9490786730040585 0.8021977916835108 0  1.016840020880238 0.7968204965667093 0  0 0.875 0  0.06262305848432984 0.8749443621484788 0  0.1252519469459158 0.8748855475910856 0  0.1878928434866151 0.8748200938304974 0  0.2505527717996653 0.8747438754386223 0  0.3132401380595498 0.8746516376283366 0  0.3759654237827066 0.8745363297989557 0  0.4387421026474322 0.8743881018818214 0  0.5015878349017552 0.8741927402365995 0  0.5645258882588786 0.8739291724582952 0  0.6275863300009891 0.8735654204056224 0  0.6908052112495369 0.8730519465151776 0  0.7542159559514461 0.8723104552448523 0  0.8178158092818845 0.8712135284507587 0  0.8814613011753792 0.869538532120584 0  0.9445929761156823 0.866820387013442 0  1.005748348809947 0.8617353233856667 0  0 0.9375 0  0.06256305448623471 0.9374713662801409 0  0.1251291539798839 0.9374410628400127 0  0.1877015363501198 0.9374072645372385 0  0.2502839133233368 0.9373677838562684 0  0.3128807829018777 0.937319812715063 0  0.3754978508001753 0.9372595489977837 0  0.4381426230703268 0.937181626454
[...]
<PointData  Vectors="f_54"> 
<DataArray  type="Float64"  Name="f_54"  NumberOfComponents="3" format="ascii">0.0000000000000000e+00 0.0000000000000000e+00 0.0000000000000000e+00  0.0000000000000000e+00 0.0000000000000000e+00 0.0000000000000000e+00  0.0000000000000000e+00 0.0000000000000000e+00 0.0000000000000000e+00  0.0000000000000000e+00 0.0000000000000000e+00 0.0000000000000000e+00  0.0000000000000000e+00 0.0000000000000000e+00 0.0000000000000000e+00  0.0000000000000000e+00 0.0000000000000000e+00 0.0000000000000000e+00  0.0000000000000000e+00 0.0000000000000000e+00 0.0000000000000000e+00  0.0000000000000000e+00 0.0000000000000000e+00 0.0000000000000000e+00  0.0000000000000000e+00 0.0000000000000000e+00 0.0000000000000000e+00  0.0000000000000000e+00 0.0000000000000000e+00 0.0000000000000000e+00  0.0000000000000000e+00 0.0000000000000000e+00 0.0000000000000000e+00  0.0000000000000000e+00 0.0000000000000000e+00 0.0000000000000000e+00  0.0000000000000000e+00 0.0000000000000000e+00 0.0000000000000000e+00  0.0000000000000000e+00 0.0000000000000000e+00 0.0000000000000000e+00  0.0000000000000000e+00 0.0000000000000000e+00 0.0000000000000000e+00  0.0000000000000000e+00 0.0000000000000000e+00 0.0000000000000000e+00  0.0000000000000000e+00 0.0000000000000000e+00 0.0000000000000000e+00  0.0000000000000000e+00 0.0000000000000000e+00 0.0000000000000000e+00  4.5632583678153508e-06 -3.7957192135485973e-08 0.0000000000000000e+00  9.2696411270592728e-06 -7.9718979499892062e-08 0.0000000000000000e+00  1.4266581667564351e-05 -1.2945303021460910e-07 0.0000000000000000e+00  1.9704044599573278e-05 -1.9200761823100100e-07 0.0000000000000000e+00  2.5734961178224026e-05 -2.7323940701154564e-07 0.0000000000000000e+00  3.2514468392336717e-05 -3.8029030172595425e-07 0.0000000000000000e+00  4.0197640085312771e-05 -5.2173820452609185e-07 0.0000000000000000e+00  4.8935815196456791e-05 -7.0749660287253188e-07 0.0000000000000000e+00  5.8872987049561282e-05 -9.4830305212831707e-07 0.0000000000000000e+00  7.0147765541914180e-05 -1.2547171392394084e-06 0.0000000000000000e+00  8.2918413959572575e-05 -1.6360869343334690e-06 0.0000000000000000e+00  9.7465273033865620e-05 -2.1021181562768565e-06 0.0000000000000000e+00  1.1454451301175153e-04 -2.6778006099369298e-06 0.0000000000000000e+00  1.3658230790987709e-04 -3.4734616193499268e-06 0.0000000000000000e+00  1.7184267647159991e-04 -4.9772770778483369e-06 0.0000000000000000e+00  2.4989013241892176e-04 -9.2833933153924375e-06 0.0000000000000000e+00  0.0000000000000000e+00 0.0000000000000000e+00 0.0000000000000000e+00  8.9884911844045385e-06 -7.2158216300120865e-08 0.0000000000000000e+00  1.8262979600469873e-05 -1.5161219899631303e-07 0.0000000000000000e+00  2.8118237202012912e-05 -2.4638422397646655e-07 0.0000000000000000e+00  3.8855086630199108e-05 -3.6588441666946294e-07 0.0000000000000000e+00  5.0781769388464452e-05 -5.2161002742729854e-07 0.0000000000000000e+00  6.4212819189945371e-05 -7.2778270760193771e-07 0.0000000000000000e+00  7.9464481634168525e-05 -1.0017830440122424e-06 0.0000000000000000e+00  9.6845939939564819e-05 -1.3641131274187647e-06 0.0000000000000000e+00  1.1664660195212142e-04 -1.8374435700998652e-06 0.0000000000000000e+00  1.3912262168528719e-04 -2.4441127903011825e-06 0.0000000000000000e+00  1.6449305510033097e-04 -3.2013253271651869e-06 0.0000000000000000e+00  1.9297152090153741e-04 -4.1132436849735419e-06 0.0000000000000000e+00  2.2488335801530156e-04 -5.1579375822631168e-06 0.0000000000000000e+00  2.6090608035009646e-04 -6.2552528573411049e-06 0.0000000000000000e+00  3.0207995492142071e-04 -7.1233310048986472e-06 0.0000000000000000e+00  3.4642324539379280e-04 -6.4810408309230156e-06 0.0000000000000000e+00  0.0000000000000000e+00 0.0000000000000000e+00 0.0000000000000000e+00  1.3130205750198581e-05 -9.9102056234851850e-08 0.0000000000000000e+00  2.6687281269154635e-05 -2.0833304995718361e-07 0.0000000000000000e+00  4.1111556090794825e-05 -3.3889708726414078e-07 0.0000000000000000e+00  5.6854735141933318e-05 -5.0411083267160330e-07 0.0000000000000000e+00  7.4383219560128727e-05 -7.2054098328725591e-07 0.0000000000000000e+00  9.4177678783682883e-05 -1.0091533572811975e-06 0.0000000000000000e+00  1.1672698233989814e-04 -1.3963119836917043e-06 0.0000000000000000e+00  1.4251408861533154e-04 -1.9142561669712000e-06 0.0000000000000000e+00  1.7199091821982975e-04 -2.6003300268759466e-06 0.0000000000000000e+00  2.0553846981151658e-04 -3.4936802474225006e-06 0.0000000000000000e+00  2.4340638378602634e-04 -4.6273072445507994e-06 0.0000000000000000e+00  2.8561796139086964e-04 -6.0122003549901307e-06 0.0000000000000000e+00  3.3179438401073624e-04 -7.6089426484656435e-06 0.0000000000000000e+00  3.8073881374719261e-04 -9.2827101812254341e-06 0.0000000000000000e+00  4.2928446206989124e-04 -1.0757888705536403e-05 0.0000000000000000e+00  4.6920491442267910e-04 -1.1755787601152530e-05 0.0000000000000000e+00  0.0000000000000000e+00 0.0000000000000000e+00 0.0000000000000000e+00  1.6845613665476448e-05 -1.1596220116389001e-07 0.0000000000000000e+00  3.4254333493693497e-05 -2.4388480023984540e-07 0.0000000000000000e+00  5.2807675403843731e-05 -3.9710336829601924e-07 0.0000000000000000e+00  7.3106381934066379e-05 -5.9175069209006370e-07 0.0000000000000000e+00  9.5777300320013854e-05 -8.4838680602765382e-07 0.0000000000000000e+00  1.2147568071388253e-04 -1.1938357400674068e-06 0.0000000000000000e+00  1.5088014077946907e-04 -1.6631393058081651e-06 0.0000000000000000e+00  1.8467622710969638e-04 -2.3012929656852197e-06 0.0000000000000000e+00  2.2352240054394863e-04 -3.1639490079762397e-06 0.0000000000000000e+00  2.6798859863474690e-04 -4.3153840478559484e-06 0.0000000000000000e+00  3.1845027141198410e-04 -5.8204753557142623e-06 0.0000000000000000e+00  3.7490497908178929e-04 -7.7249016113847465e-06 0.0000000000000000e+00  4.3664350880330522e-04 -1.0014083022361958e-05 0.0000000000000000e+00  5.0163646376474782e-04 -1.2536919728298119e-05 0.0000000000000000e+00  5.6539546981354528e-04 -1.4876020821512506e-05 0.0000000000000000e+00  6.1910529611522273e-04 -1.6126900565085582e-05 0.0000000000000000e+00  0.0000000000000000e+00 0.0000000000000000e+00 0.0000000000000000e+00  1.9997566800976696e-05 -1.2093065879352176e-07 0.0000000000000000e+00  4.0685982840558587e-05 -2.5433941429085828e-07 0.0000000000000000e+00  6.2779697866637555e-05 -4.1427451033010956e-07 0.0000000000000000e+00  8.7023194994707999e-05 -6.1810555991437165e-07 0.0000000000000000e+00  1.1420349832786648e-04 -8.8863066632367407e-07 0.0000000000000000e+00  1.4515813057824054e-04 -1.2567098573291130e-06 0.0000000000000000e+00  1.8077536294162751e-04 -1.7645368572491615e-06 0.0000000000000000e+00  2.2198175089686455e-04 -2.4694869977772476e-06 0.0000000000000000e+00  2.6970898442808344e-04 -3.4480400451534431e-06 0.0000000000000000e+00  3.2482724195359770e-04 -4.7982925864006638e-06 0.0000000000000000e+00  3.8802414730872760e-04 -6.6375489665590540e-06 0.0000000000000000e+00  4.5959486121337922e-04 -9.0876244258119074e-06 0.0000000000000000e+00  5.3908759434213426e-04 -1.2233777556402731e-05 0.0000000000000000e+00  6.2472384787267820e-04 -1.6032794212101262e-05 0.0000000000000000e+00  7.1251580117864203e-04 -2.0132452535575361e-05 0.0000000000000000e+00  7.9513868170231290e-04 -2.3554760350531081e-05 0.0000000000000000e+00  0.0000000000000000e+00 0.0000000000000000e+00 0.0000000000000000e+00  2.2458634958038108e-05 -1.1352518829248044e-07 0.0000000000000000e+00  4.5722107080489089e-05 -2.3850938611633477e-07 0.0000000000000000e+00  7.0624134155452785e-05 -3.8799844539334474e-07 0.0000000000000000e+00  9.8042141085719300e-05 -5.7854661494161609e-07 0.0000000000000000e+00  1.2891760929423598e-04 -8.3264828769989699e-07 0.0000000000000000e+00  1.6427309168011293e-04 -1.1820822569254888e-06 0.0000000000000000e+00  2.0522304105799214e-04 -1.6726064102927414e-06 0.0000000000000000e+00  2.5297360868097892e-04 -2.3704873479200094e-06 0.0000000000000000e+00  3.0880344337745619e-04 -3.3712333787150053e-06 0.0000000000000000e+00  3.7401277166521378e-04 -4.8103116583735772e-06 0.0000000000000000e+00  4.4982117259685216e-04 -6.8738959271789108e-06 0.0000000000000000e+00  5.3718549343702282e-04 -9.8034720382356910e-06 0.0000000000000000e+00  6.3650040272905640e-04 -1.3879089736487376e-05 0.0000000000000000e+00  7.4714328399866760e-04 -1.9348888425631848e-05 0.0000000000000000e+00  8.6685281111900008e-04 -2.6244302538635797e-05 0.0000000000000000e+00  9.9101435994203161e-04 -3.3981818492647301e-05 0.0000000000000000e+00  0.0000000000000000e+00 0.0000000000000000e+00 0.0000000000000000e+00  2.4116463119874560e-05 -9.4802639697395358e-08 0.0000000000000000e+00  4.9131395588576159e-05 -1.9845301520055243e-07 0.0000000000000000e+00  7.5977204171503253e-05 -3.2115250105344625e-07 0.0000000000000000e+00  1.0564576795744541e-04 -4.7626733954031962e-07 0.0000000000000000e+00  1.3921850127733622e-04 -6.8274682592652833e-07 0.0000000000000000e+00  1.7789559720332110e-04 -9.6877529432211424e-07 0.0000000000000000e+00  2.2302270897555908e-04 -1.3774671749852517e-06 0.0000000000000000e+00  2.7611157891019008e-04 -1.9758201749511167e-06 0.0000000000000000e+00  3.3884836973803705e-04 -2.8686743873314352e-06 0.0000000000000000e+00  4.1307940997177398e-04 -4.2199406362784143e-06 0.0000000000000000e+00  5.0075881891799268e-04 -6.2833248146440153e-06 0.0000000000000000e+00  6.0383736716176060e-04 -9.4426971706093122e-06 0.0000000000000000e+00  7.2407140684401796e-04 -1.4254668743000268e-05 0.0000000000000000e+00  8.6274512730330098e-04 -2.1466169012348246e-05 0.0000000000000000e+00  1.0203458349829395e-03 -3.1938160722785000e-05 0.0000000000000000e+00  1.1963237375104050e-03 -4.6334326213832850e-05 0.0000000000000000e+00  0.0000000000000000e+00 0.0000000000000000e+00 0.0000000000000000e+00  2.4880296715464714e-05 -6.7401678249934839e-08 0.0000000000000000e+00  5.0724790023240489e-05 -1.3964034110722002e-07 0.0000000000000000e+00  7.8535979219831190e-05 -2.2238390630239221e-07 0.0000000000000000e+00  1.0939217697838416e-04 -3.2345427529883126e-07 0.0000000000000000e+00  1.4448827845868999e-04 -4.5471657711949523e-07 0.0000000000000000e+00  1.8517939257982476e-04 -6.3527478609335139e-07 0.0000000000000000e+00  2.3302747840656140e-04 -8.9703838758306250e-07 0.0000000000000000e+00  2.8985000503514274e-04 -1.2945176829216187e-06 0.0000000000000000e+00  3.5776772458865860e-04 -1.9220701626785345e-06 0.0000000000000000e+00  4.3924567245460041e-04 -2.9440595015941935e-06 0.0000000000000000e+00  5.3711772859061594e-04 -4.6467505319060630e-06 0.0000000000000000e+00  6.5458246661517024e-04 -7.5248952430311729e-06 0.0000000000000000e+00  7.9516332615744544e-04 -1.2418358650723112e-05 0.0000000000000000e+00  9.6265687814243084e-04 -2.0707127625083729e-05 0.0000000000000000e+00  1.1611853361237514e-03 -3.4542797032823464e-05 0.0000000000000000e+00  1.3956813018088012e-03 -5.7041510488272983e-05 0.0000000000000000e+00  0.0000000000000000e+00 0.0000000000000000e+00 0.0000000000000000e+00  2.4688251581254413e-05 -3.5338005226313731e-08 0.0000000000000000e+00  5.0370761812628152e-05 -7.0593427501339865e-08 0.0000000000000000e+00  7.8083189643132691e-05 -1.0572889968239825e-07 0.0000000000000000e+00  1.0895176353696566e-04 -1.4119340601377792e-07 0.0000000000000000e+00  1.4424437226570125e-04 -1.7868937619204983e-07 0.0000000000000000e+00  1.8542897374501736e-04 -2.2290277474425370e-07 0.0000000000000000e+00  2.3424199284933668e-04 -2.8519758140111139e-07 0.0000000000000000e+00  2.9276929319562692e-04 -3.9126701878091400e-07 0.0000000000000000e+00  3.6354176163130885e-04 -5.9670297755626839e-07 0.0000000000000000e+00  4.4964621009256574e-04 -1.0183293381521650e-06 0.0000000000000000e+00  5.5485016407440355e-04 -1.8966771897029816e-06 0.0000000000000000e+00  6.8373792632029317e-04 -3.7190156095022199e-06 0.0000000000000000e+00  8.4186330800102203e-04 -7.4563090219737284e-06 0.0000000000000000e+00  1.0359699101167295e-03 -1.5001132653239458e-05 0.0000000000000000e+00  1.2744952041763818e-03 -2.9923481517350933e-05 0.0000000000000000e+00  1.5690618831132959e-03 -5.8683714337041640e-05 0.0000000000000000e+00  0.0000000000000000e+00 0.0000000000000000e+00 0.0000000000000000e+00  2.3514587488802081e-05 -3.5068071693431096e-09 0.0000000000000000e+00  4.8010897507344373e-05 -1.8732336690298840e-09 0.0000000000000000e+00  7.4513280377520215e-05 1.0929648485947847e-08 0.0000000000000000e+00  1.0414727549987400e-04 4.2540492937818793e-08 0.0000000000000000e+00  1.3819890234718408e-04 1.0304140299799400e-07 0.0000000000000000e+00  1.7818584350905086e-04 2.0563334829297828e-07 0.0000000000000000e+00  2.2594608746519029e-04 3.6667059518657079e-07 0.0000000000000000e+00  2.8375100345335224e-04 6.0381022238849491e-07 0.0000000000000000e+00  3.5445143534015172e-04 9.2926680820508788e-07 0.0000000000000000e+00  4.4166690582576879e-04 1.3310482996161794e-06 0.0000000000000000e+00  5.5002900624612672e-04 1.7254033639988177e-06 0.0000000000000000e+00  6.8549107882172409e-04 1.8410793939192475e-06 0.0000000000000000e+00  8.5572382909187921e-04 9.4392896396829959e-07 0.0000000000000000e+00  1.0706612586745992e-03 -2.8009521323500092e-06 0.0000000000000000e+00  1.3434599060256306e-03 -1.3727091771678934e-05 0.0000000000000000e+00  1.6928321675501140e-03 -4.1465796251927352e-05 0.0000000000000000e+00  0.0000000000000000e+00 0.0000000000000000e+00 0.0000000000000000e+00  2.1375989480157729e-05 2.3085709742623695e-08 0.0000000000000000e+00  4.3673676250813113e-05 5.5568829763452628e-08 0.0000000000000000e+00  6.7856219728831845e-05 1.0862047277396536e-07 0.0000000000000000e+00  9.4991916048785694e-05 1.9709873280856999e-07 0.0000000000000000e+00  1.2631771550123576e-04 3.4211544003153977e-07 0.0000000000000000e+00  1.6331843055179357e-04 5.7454385742730824e-07 0.0000000000000000e+00  2.0782998796352079e-04 9.3989173292163767e-07 0.0000000000000000e+00  2.6217833704019123e-04 1.5049322693136350e-06 0.0000000000000000e+00  3.2937028675453255e-04 2.3660757166377841e-06 0.0000000000000000e+00  4.1335879549320219e-04 3.6577750694871596e-06 0.0000000000000000e+00  5.1941297247791690e-04 5.5534485187853868e-06 0.0000000000000000e+00  6.5463216837671051e-04 8.2323551253928191e-06 0.0000000000000000e+00  8.2865767035149437e-04 1.1724154915929075e-05 0.0000000000000000e+00  1.0546816501957198e-03 1.5347752442710085e-05 0.0000000000000000e+00  1.3510705410762014e-03 1.5929062579106552e-05 0.0000000000000000e+00  1.7449230098562736e-03 3.5298081054545663e-06 0.0000000000000000e+00  0.0000000000000000e+00 0.0000000000000000e+00 0.0000000000000000e+00  1.8335739085608693e-05 4.0249287612141652e-08 0.0000000000000000e+00  3.7484005561752518e-05 9.2444993618479668e-08 0.0000000000000000e+00  5.8294903613862759e-05 1.7091088062050320e-07 0.0000000000000000e+00  8.1718955210418893e-05 2.9515066005467164e-07 0.0000000000000000e+00  1.0886926060999374e-04 4.9376994317415173e-07 0.0000000000000000e+00  1.4110135597807222e-04 8.1035858510481600e-07 0.0000000000000000e+00  1.8012107854664585e-04 1.3127186714791502e-06 0.0000000000000000e+00  2.2813583358839424e-04 2.1077429278780459e-06 0.0000000000000000e+00  2.8807280325331098e-04 3.3658959438029038e-06 0.0000000000000000e+00  3.6390042051602143e-04 5.3621837491907699e-06 0.0000000000000000e+00  4.6110894194704662e-04 8.5454117629851286e-06 0.0000000000000000e+00  5.8743474486355719e-04 1.3653439160197106e-05 0.0000000000000000e+00  7.5395565186651189e-04 2.1883410586043768e-05 0.0000000000000000e+00  9.7676227143340196e-04 3.4990481260902646e-05 0.0000000000000000e+00  1.2796666704136548e-03 5.4181307866888784e-05 0.0000000000000000e+00  1.7009968050743403e-03 7.0257257243207179e-05 0.0000000000000000e+00  0.0000000000000000e+00 0.0000000000000000e+00 0.0000000000000000e+00  1.4504724935895088e-05 4.5498409525532602e-08 0.0000000000000000e+00  2.9666164143049901e-05 1.0315148090502615e-07 0.0000000000000000e+00  4.6171983985525014e-05 1.8761937372762024e-07 0.0000000000000000e+00  6.4795983222815996e-05 3.1915550578493533e-07 0.0000000000000000e+00  8.6452391505281893e-05 5.2801555388401742e-07 0.0000000000000000e+00  1.1226720264732241e-04 8.6133448537940338e-07 0.0000000000000000e+00  1.4367714808367947e-04 1.3943996390394751e-06 0.0000000000000000e+00  1.8257302033429943e-04 2.2497723999594909e-06 0.0000000000000000e+00  2.3151468459957434e-04 3.6307596691092056e-06 0.0000000000000000e+00  2.9406381746348423e-04 5.8822084576812439e-06 0.0000000000000000e+00  3.7531378863776003e-04 9.6065239637169736e-06 0.0000000000000000e+00  4.8275666434133356e-04 1.5900706160397715e-05 0.0000000000000000e+00  6.2773930878831728e-04 2.6885298871553161e-05 0.0000000000000000e+00  8.2796192313996713e-04 4.7003583865496048e-05 0.0000000000000000e+00  1.1115459267177687e-03 8.6446926890035446e-05 0.0000000000000000e+00  1.5145974545967399e-03 1.6939109326131744e-04 0.0000000000000000e+00  0.0000000000000000e+00 0.0000000000000000e+00 0.0000000000000000e+00  1.0038530582518848e-05 3.8667397568197022e-08 0.0000000000000000e+00  2.0538371361401952e-05 8.7205379867510317e-08 0.0000000000000000e+00  3.1982779998864535e-05 1.5756338067466769e-07 0.0000000000000000e+00  4.4917920096371913e-05 2.6639398292647160e-07 0.0000000000000000e+00  5.9992985506795884e-05 4.3883308545197820e-07 0.0000000000000000e+00  7.8013687820010759e-05 7.1449285058639276e-07 0.0000000000000000e+00  1.0001778415849663e-04 1.1574251398003417e-06 0.0000000000000000e+00  1.2738678907239472e-04 1.8731864892322312e-06 0.0000000000000000e+00  1.6201799962291917e-04 3.0387594608471417e-06 0.0000000000000000e+00  2.0659967610829337e-04 4.9562682349578419e-06 0.0000000000000000e+00  2.6506868132860782e-04 8.1524637434088583e-06 0.0000000000000000e+00  3.4340639681190960e-04 1.3573399413481427e-05 0.0000000000000000e+00  4.5112016455425965e-04 2.3011607914731623e-05 0.0000000000000000e+00  6.0442830535784454e-04 4.0272906809037375e-05 0.0000000000000000e+00  8.3552917763361550e-04 7.5464291166618764e-05 0.0000000000000000e+00  1.2323131321030788e-03 1.6485736742325455e-04 0.0000000000000000e+00  0.0000000000000000e+00 0.0000000000000000e+00 0.0000000000000000e+00  5.1303351402381431e-06 2.2053083940002240e-08 0.0000000000000000e+00  1.0498265879959679e-05 4.9619460350306050e-08 0.0000000000000000e+00  1.6352684441518051e-05 8.9385060827998630e-08 0.0000000000000000e+00  2.2975487514543853e-05 1.5070581246831158e-07 0.0000000000000000e+00  3.0702728539059530e-05 2.4776812625113837e-07 0.0000000000000000e+00  3.9952992311505148e-05 4.0302594435615044e-07 0.0000000000000000e+00  5.1267750982186365e-05 6.5290505852220106e-07 0.0000000000000000e+00  6.5371527950818379e-05 1.0574531442309127e-06 0.0000000000000000e+00  8.3265258522785844e-05 1.7166742563278829e-06 0.0000000000000000e+00  1.0637615357517437e-04 2.7973772085141638e-06 0.0000000000000000e+00  1.3680325808827778e-04 4.5727278495299792e-06 0.0000000000000000e+00  1.7771091792801428e-04 7.4578386627407318e-06 0.0000000000000000e+00  2.3384669278370143e-04 1.1919917120935750e-05 0.0000000000000000e+00  3.1145903358076050e-04 1.7647780250776971e-05 0.0000000000000000e+00  4.1298540142549462e-04 1.9497766407708943e-05 0.0000000000000000e+00  5.1108468419784831e-04 -3.6497291354543179e-06 0.0000000000000000e+00  0.0000000000000000e+00 0.0000000000000000e+00 0.0000000000000000e+00  0.0000000000000000e+00 0.0000000000000000e+00 0.0000000000000000e+00  0.0000000000000000e+00 0.0000000000000000e+00 0.0000000000000000e+00  0.0000000000000000e+00 0.0000000000000000e+00 0.0000000000000000e+00  0.0000000000000000e+00 0.0000000000000000e+00 0.0000000000000000e+00  0.0000000000000000e+00 0.0000000000000000e+00 0.0000000000000000e+00  0.0000000000000000e+00 0.0000000000000000e+00 0.0000000000000000e+00  0.0000000000000000e+00 0.0000000000000000e+00 0.0000000000000000e+00  0.0000000000000000e+00 0.0000000000000000e+00 0.0000000000000000e+00  0.0000000000000000e+00 0.0000000000000000e+00 0.0000000000000000e+00  0.