<?xml version="1.0"?>
<VTKFile type="UnstructuredGrid"  version="0.1"  >
<UnstructuredGrid>
<Piece  NumberOfPoints="289" NumberOfCells="512">
<Points>
<DataArray  type="Float64"  NumberOfComponents="3"  format="ascii">0 0 0  0.0625 0 0  0.125 0 0  0.1875 0 0  0.25 0 0  0.3125 0 0  0.375 0 0  0.4375 0 0  0.5 0 0  0.5625 0 0  0.625 0 0  0.6875 0 0  0.75 0 0  0.8125 0 0  0.875 0 0  0.9375 0 0  1 0 0  0 0.0625 0  0.06246192886352131 0.06247812834287927 0  0.1249231298731806 0.06245587260839506 0  0.1873828974122166 0.06243288009056787 0  0.2498406693730046 0.06240888090961227 0  0.3122961321058242 0.06238374156798989 0  0.3747493727745222 0.06235753186387204 0  0.4372011051885364 0.06233060588482339 0  0.499653008526848 0.06230369233493137 0  0.5621082449260214 0.06227797971863064 0  0.6245722790861542 0.06225516658295501 0  0.6870542545760261 0.06223742727649113 0  0.7495694940809171 0.06222723090092795 0  0.8121444096933201 0.06222699404399054 0  0.8748264351641764 0.06223884244396581 0  0.9377013655797513 0.06226623773448855 0  1.000893611955242 0.0623287719005964 0  0 0.125 0  0.06242461589841339 0.1249566283121473 0  0.1248477227721401 0.1249124473842196 0  0.1872678530904658 0.1248667061460878 0  0.2496838105181845 0.1248188094152418 0  0.3120948719326939 0.1247684217915183 0  0.3745010841609193 0.1247156013853017 0  0.4369037067093283 0.1246609677550693 0  0.4993058753994047 0.1246058991133674 0  0.5617136046462682 0.1245527357650426 0  0.6241373274360131 0.1245049350491809 0  0.6865943295328314 0.1244670735923178 0  0.7491127263214984 0.1244445282977432 0  0.811738083902845 0.1244426172575778 0  0.8745441507631803 0.1244650462135082 0  0.9376487258120336 0.1245118378450645 0  1.001241716257372 0.124575800806569 0  0 0.1875 0  0.06238890406835269 0.1874359329639013 0  0.124775404451916 0.187370556467881 0  0.1871571463196389 0.1873026364295415 0  0.2495321288215516 0.1872311467110918 0  0.3118989769739658 0.1871554150522961 0  0.3742573483578889 0.1870753200403084 0  0.4366085448023621 0.1869915525268897 0  0.4989564248849339 0.1869059456459708 0  0.5613087507863443 0.1868218561022387 0  0.62367915593736 0.1867445353975589 0  0.6860899827281176 0.1866813459234337 0  0.7485762658564308 0.1866415212845448 0  0.8111909435950669 0.1866348639390052 0  0.8740104787729988 0.1866680561186842 0  0.9371378708552535 0.1867351811178629 0  1.000698601689232 0.1867925610636478 0  0 0.25 0  0.06235574680733527 0.2499165494372415 0  0.1247080436035726 0.2498311909924998 0  0.1870534769384687 0.2497420941833556 0  0.2493890001270912 0.2496476543748601 0  0.3117122318948333 0.2495466646180989 0  0.3740219189865512 0.2494385635136734 0  0.4363186460665037 0.2493237880973264 0  0.4986059000057629 0.2492042579735865 0  0.5608916197347614 0.2490840025676292 0  0.6231903729232421 0.2489699037729033 0  0.6855262590957645 0.2488724366459773 0  0.7479364555874186 0.2488061080433182 0  0.8104748161292415 0.248788947942609 0  0.8732138525371016 0.2488398215646622 0  0.9362418508359203 0.2489716272348844 0  0.9996512057343375 0.2491792271391564 0  0 0.3125 0  0.06232623185717265 0.3123990810631172 0  0.1246478114812716 0.3122955516098355 0  0.1869600856654514 0.3121868597194314 0  0.2492586925292673 0.3120706489956009 0  0.3115398323558491 0.3119449295520283 0  0.3738007190738819 0.3118083491789469 0  0.4360403071685818 0.3116606143307184 0  0.4982604153469969 0.311503121882632 0  0.5604673895965773 0.3113398693576646 0  0.6226744412603976 0.3111787003260554 0  0.6849047120481135 0.3110328848365552 0  0.7471948740803944 0.3109228787506418 0  0.8095985732109349 0.3108777661454795 0  0.8721883118539239 0.3109352800715944 0  0.9350541015042335 0.3111384851308855 0  0.9982994993672781 0.311526722168102 0  0 0.375 0  0.06230157232288355 0.3748842322593337 0  0.1245971725369368 0.3747650646423638 0  0.1868807620021226 0.3746391118433574 0  0.2491464204680311 0.3745030934829043 0  0.3113885270184886 0.3743539657295273 0  0.3736021230606938 0.3741891679857408 0  0.4357835643274667 0.3740070548580593 0  0.4979316094512912 0.3738076151870354 0  0.5600491358570202 0.3735936216114377 0  0.6221456981467115 0.373372399571597 0  0.6842411029920618 0.3731584298262998 0  0.7463699896705279 0.3729769396745161 0  0.8085870010389292 0.3728683584298424 0  0.870971588512935 0.3728927870581845 0  0.9336314388583327 0.3731322486385342 0  0.9967055434207578 0.373686591430935 0  0 0.4375 0  0.06228305998922074 0.4373727900704811 0  0.1245587948485922 0.4372413501605878 0  0.1868197201191157 0.4371013943958588 0  0.2490582014401132 0.4369485856812826 0  0.3112664800613612 0.4367785802224269 0  0.3734368596647217 0.4365871819344974 0  0.4355621709989144 0.4363706887671982 0  0.4976366977617151 0.4361265658061658 0  0.5596578419036321 0.4358546644877611 0  0.6216289231848172 0.4355593341198413 0  0.683563613411069 0.4352529406953567 0  0.7454925133390026 0.4349614719072823 0  0.80747213208562 0.4347328903728966 0  0.8695958760874641 0.4346482626808142 0  0.9320058507177191 0.4348337302334024 0  0.9949049569367961 0.4354678234273992 0  0 0.5 0  0.06227198009980103 0.4998655776696731 0  0.1245353773601265 0.4997261304918682 0  0.1867813351582798 0.4995764848691424 0  0.2490005005821501 0.4994112012982794 0  0.3111828321430276 0.4992244825345068 0  0.3733175153204305 0.4990101567450144 0  0.4353930983744226 0.4987618101327368 0  0.4973980591720545 0.4984732091817337 0  0.559322182662111 0.498139272397299 0  0.6211594004341047 0.4977580645684685 0  0.6829131354929503 0.4973346492560378 0  0.7446056440598064 0.4968881942087641 0  0.806293067285264 0.4964643940267317 0  0.8680872185301779 0.4961554680281924 0  0.9301827282299918 0.4961279686899359 0  0.9928855432003965 0.4966516690219833 0  0 0.5625 0  0.06226949150562101 0.5623633786553149 0  0.1245294001652901 0.5622210745143953 0  0.1867697451479126 0.5620671515177057 0  0.2489796614485483 0.5618951580209286 0  0.3111469425711468 0.5616978607665231 0  0.3732575951374063 0.5614669858465446 0  0.4352954835066553 0.561193005936813 0  0.4972422594564819 0.5608650711721104 0  0.5590780101630844 0.5604713033037523 0  0.6207835189340398 0.5599999288080176 0  0.6823458630753901 0.5594422566169972 0  0.7437703903159787 0.558799567659795 0  0.8051037050950509 0.5580979298146117 0  0.8664727976537279 0.5574177357567223 0  0.9281412234158776 0.5569458189576113 0  0.9905697617017187 0.5570490295849212 0  0 0.625 0  0.06227648160622042 0.6248668366804958 0  0.124542815361817 0.6247275852177866 0  0.1867883405336078 0.6245758052257183 0  0.2490011408429937 0.6244042965335062 0  0.3111673081682488 0.6242046482693686 0  0.3732700800525536 0.6239667019450409 0  0.4352888494992813 0.6236779052674954 0  0.4971981417923055 0.6233225553535637 0  0.5589669007393592 0.6228809971479146 0  0.6205590154246117 0.622329029763051 0  0.6819373222436758 0.6216382760120071 0  0.7430759629534474 0.6207795978717943 0  0.8039906175485075 0.6197350374453459 0  0.8648018389981822 0.6185316306125714 0  0.9258461040585675 0.6173231183841347 0  0.9878277825925814 0.6165420624394539 0  0 0.6875 0  0.06229341189168767 0.6873763420999625 0  0.1245767101515327 0.6872465540970053 0  0.1868391874462027 0.6871040812655029 0  0.2490686012198122 0.6869414221398542 0  0.3112501984383553 0.686749522302575 0  0.3733654542578887 0.6865169857608991 0  0.4353903987671986 0.6862290051164861 0  0.4972934189941997 0.6858658746808036 0  0.5590325510397894 0.6854009045596364 0  0.6205527534654163 0.684797523130718 0  0.6817850828110107 0.684005457715828 0  0.7426535252712728 0.6829566034730505 0  0.803104500321549 0.6815644202468552 0  0.8631927615471923 0.6797434433425082 0  0.9232769145610029 0.6775089468556903 0  0.9843401339944831 0.6752633585648345 0  0 0.75 0  0.06232017647532157 0.7498919241610178 0  0.1246309898740681 0.7497781222090076 0  0.1869224622298156 0.7496524177281928 0  0.2491829705616994 0.7495076089978409 0  0.3113981402552427 0.7493347809951665 0  0.3735493158555587 0.7491223653417693 0  0.4356113453177877 0.7488547881694828 0  0.4975492875820877 0.7485104523478969 0  0.5593135036846013 0.7480586325601317 0  0.6208325485335155 0.7474545500415813 0  0.6820038818325156 0.7466313046488852 0  0.7426855611901367 0.7454862957570157 0  0.8027039368679085 0.7438585831740028 0  0.8619313521609033 0.7414975425351313 0  0.9205937258672783 0.7380761242396729 0  0.9798625410998337 0.7338089443695189 0  0 0.8125 0  0.06235600097417272 0.8124131713453264 0  0.1247041424332127 0.8123214983920141 0  0.1870360065417017 0.8122197208352311 0  0.2493416479649124 0.8121016181531967 0  0.3116085240759995 0.811959346349069 0  0.3738199479784048 0.8117825063578863 0  0.435952710855485 0.8115567647482422 0  0.4979732597269098 0.811261733623965 0  0.5598313350824288 0.8108676043742573 0  0.6214491099871602 0.8103296017143398 0  0.682702484268525 0.8095783557503824 0  0.7433897698207301 0.8085018100826206 0  0.8031860429915151 0.8069073220400892 0  0.8616142877298004 0.8044322109911387 0  0.9182704558104162 0.800309356809153 0  0.9751135697848425 0.7926443588033272 0  0 0.875 0  0.06239940957351505 0.8749392014528073 0  0.1247931496918671 0.8748748843106628 0  0.1871751289477252 0.8748032099582268 0  0.2495380839400479 0.8747195948084384 0  0.3118727384907981 0.8746181871100885 0  0.3741665543279072 0.8744911219888462 0  0.4364017416964848 0.8743274070742327 0  0.4985519056598928 0.8741112050788266 0  0.5605760824170253 0.8738191394282422 0  0.6224075460473216 0.8734160206151194 0  0.6839316065638187 0.8728479772234553 0  0.7449391262530833 0.8720309006797581 0  0.8050244863902649 0.8708277438052536 0  0.8633548733258091 0.8689870536478188 0  0.9181561349385622 0.8659158869783091 0  0.9657253070620034 0.8597191465411499 0  0 0.9375 0  0.06244828116124021 0.937468695841761 0  0.1248935974835091 0.937435540529251 0  0.1873327599487097 0.9373985090764164 0  0.2497619506513404 0.9373551699526146 0  0.312176268224105 0.9373023972269466 0  0.3745690462297374 0.9372359585135769 0  0.436930
[...]
<PointData  Vectors="f_54"> 
<DataArray  type="Float64"  Name="f_54"  NumberOfComponents="3" format="ascii">0.0000000000000000e+00 0.0000000000000000e+00 0.0000000000000000e+00  0.0000000000000000e+00 0.0000000000000000e+00 0.0000000000000000e+00  0.0000000000000000e+00 0.0000000000000000e+00 0.0000000000000000e+00  0.0000000000000000e+00 0.0000000000000000e+00 0.0000000000000000e+00  0.0000000000000000e+00 0.0000000000000000e+00 0.0000000000000000e+00  0.0000000000000000e+00 0.0000000000000000e+00 0.0000000000000000e+00  0.0000000000000000e+00 0.0000000000000000e+00 0.0000000000000000e+00  0.0000000000000000e+00 0.0000000000000000e+00 0.0000000000000000e+00  0.0000000000000000e+00 0.0000000000000000e+00 0.0000000000000000e+00  0.0000000000000000e+00 0.0000000000000000e+00 0.0000000000000000e+00  0.0000000000000000e+00 0.0000000000000000e+00 0.0000000000000000e+00  0.0000000000000000e+00 0.0000000000000000e+00 0.0000000000000000e+00  0.0000000000000000e+00 0.0000000000000000e+00 0.0000000000000000e+00  0.0000000000000000e+00 0.0000000000000000e+00 0.0000000000000000e+00  0.0000000000000000e+00 0.0000000000000000e+00 0.0000000000000000e+00  0.0000000000000000e+00 0.0000000000000000e+00 0.0000000000000000e+00  0.0000000000000000e+00 0.0000000000000000e+00 0.0000000000000000e+00  0.0000000000000000e+00 0.0000000000000000e+00 0.0000000000000000e+00  2.0340027582698134e-06 9.4396583966680418e-08 0.0000000000000000e+00  4.0973407911542582e-06 1.9033046199254507e-07 0.0000000000000000e+00  6.2159743619762901e-06 2.8918298584044714e-07 0.0000000000000000e+00  8.4057629601679153e-06 3.9186677823232217e-07 0.0000000000000000e+00  1.0665669099280309e-05 4.9850877947719703e-07 0.0000000000000000e+00  1.2968671223756510e-05 6.0803566521371481e-07 0.0000000000000000e+00  1.5249344369493842e-05 7.1764283339162819e-07 0.0000000000000000e+00  1.7386620223024970e-05 8.2215262703483903e-07 0.0000000000000000e+00  1.9179109158086674e-05 9.1331428872194678e-07 0.0000000000000000e+00  2.0307299299852843e-05 9.7917778717151536e-07 0.0000000000000000e+00  2.0268229911884822e-05 1.0038031687725685e-06 0.0000000000000000e+00  1.8242351548314364e-05 9.6781379138103716e-07 0.0000000000000000e+00  1.2770991717036957e-05 8.5102807040505026e-07 0.0000000000000000e+00  8.4941803528620636e-07 6.4148207804316948e-07 0.0000000000000000e+00  -2.4948929786225364e-05 3.6984966553626608e-07 0.0000000000000000e+00  -8.6507765738533390e-05 2.5954991187464126e-07 0.0000000000000000e+00  0.0000000000000000e+00 0.0000000000000000e+00 0.0000000000000000e+00  4.0347560878243769e-06 1.8707412856823612e-07 0.0000000000000000e+00  8.1327599139740244e-06 3.7743389253270304e-07 0.0000000000000000e+00  1.2351130452810654e-05 5.7408333023597705e-07 0.0000000000000000e+00  1.6728286471481834e-05 7.7915941441043346e-07 0.0000000000000000e+00  2.1271255088946572e-05 9.9333062530406270e-07 0.0000000000000000e+00  2.5938628131873271e-05 1.2149909908969543e-06 0.0000000000000000e+00  3.0617333184568743e-05 1.4391984398618138e-06 0.0000000000000000e+00  3.5090897646693438e-05 1.6563450988988468e-06 0.0000000000000000e+00  3.8995807403446505e-05 1.8506272659861363e-06 0.0000000000000000e+00  4.1759941960278263e-05 1.9985193548856290e-06 0.0000000000000000e+00  4.2510602583646146e-05 2.0676401866424489e-06 0.0000000000000000e+00  3.9924434957051726e-05 2.0165291509902533e-06 0.0000000000000000e+00  3.1959947226184937e-05 1.7954693815278991e-06 0.0000000000000000e+00  1.5369942620338265e-05 1.3455883627612732e-06 0.0000000000000000e+00  -1.5029159907627712e-05 5.7798576729980641e-07 0.0000000000000000e+00  -6.6159964797835320e-05 -7.6829810782428983e-07 0.0000000000000000e+00  0.0000000000000000e+00 0.0000000000000000e+00 0.0000000000000000e+00  5.9670593946458168e-06 2.7622475059087435e-07 0.0000000000000000e+00  1.2039851193115634e-05 5.5787739098274141e-07 0.0000000000000000e+00  1.8316377149710217e-05 8.5003784944568162e-07 0.0000000000000000e+00  2.4870146673656769e-05 1.1566606419597929e-06 0.0000000000000000e+00  3.1733207507593278e-05 1.4797570859398293e-06 0.0000000000000000e+00  3.8873044505600213e-05 1.8182529501564824e-06 0.0000000000000000e+00  4.6160942854334197e-05 2.1664141207113612e-06 0.0000000000000000e+00  5.3329200136643861e-05 2.5117673938691854e-06 0.0000000000000000e+00  5.9914398733384434e-05 2.8325382972145343e-06 0.0000000000000000e+00  6.5183836018187786e-05 3.0948233590236717e-06 0.0000000000000000e+00  6.8042350522475151e-05 3.2500444421006934e-06 0.0000000000000000e+00  6.6918711746924648e-05 3.2336862125264047e-06 0.0000000000000000e+00  5.9642256650519795e-05 2.9668183995053585e-06 0.0000000000000000e+00  4.3372722289849558e-05 2.3627105601368602e-06 0.0000000000000000e+00  1.4840393148103465e-05 1.3459207953757447e-06 0.0000000000000000e+00  -2.8284699322229844e-05 -6.9566325656194284e-08 0.0000000000000000e+00  0.0000000000000000e+00 0.0000000000000000e+00 0.0000000000000000e+00  7.7873219621771051e-06 3.5965557240742630e-07 0.0000000000000000e+00  1.5734053054902891e-05 7.2738771699892462e-07 0.0000000000000000e+00  2.3991858780147876e-05 1.1109458931461129e-06 0.0000000000000000e+00  3.2686061221508655e-05 1.5169074333671651e-06 0.0000000000000000e+00  4.1896603345109388e-05 1.9497573870264936e-06 0.0000000000000000e+00  5.1631330774569926e-05 2.4105199379153562e-06 0.0000000000000000e+00  6.1788599608656521e-05 2.8947487838904587e-06 0.0000000000000000e+00  7.2106205176704772e-05 3.3896821067303482e-06 0.0000000000000000e+00  8.2094235164996895e-05 3.8704335349410343e-06 0.0000000000000000e+00  9.0951439628150714e-05 4.2953041244542243e-06 0.0000000000000000e+00  9.7469601040185502e-05 4.6007788020778212e-06 0.0000000000000000e+00  9.9941496415738767e-05 4.6976285004043585e-06 0.0000000000000000e+00  9.6112967446522569e-05 4.4707433080303977e-06 0.0000000000000000e+00  8.3274690185760136e-05 3.7862822620789921e-06 0.0000000000000000e+00  5.8699330647952535e-05 2.5078279655178502e-06 0.0000000000000000e+00  2.0778574462482639e-05 5.0551398633140078e-07 0.0000000000000000e+00  0.0000000000000000e+00 0.0000000000000000e+00 0.0000000000000000e+00  9.4410399027295190e-06 4.3468099291778669e-07 0.0000000000000000e+00  1.9107043024881314e-05 8.8060199288906114e-07 0.0000000000000000e+00  2.9217133168646739e-05 1.3488067984870092e-06 0.0000000000000000e+00  3.9967122381677273e-05 1.8493975416702806e-06 0.0000000000000000e+00  5.1511163162190385e-05 2.3906808549964936e-06 0.0000000000000000e+00  6.3934405663376874e-05 2.9777664250450797e-06 0.0000000000000000e+00  7.7212845932631512e-05 3.6103186722511223e-06 0.0000000000000000e+00  9.1156299669478054e-05 4.2790783376755358e-06 0.0000000000000000e+00  1.0533099072821901e-04 4.9607252162350929e-06 0.0000000000000000e+00  1.1896068768275423e-04 5.6107628962979352e-06 0.0000000000000000e+00  1.3081155713974657e-04 6.1546105547363980e-06 0.0000000000000000e+00  1.3907900460527137e-04 6.4783837562607807e-06 0.0000000000000000e+00  1.4131905295401679e-04 6.4233917744240690e-06 0.0000000000000000e+00  1.3450615221100197e-04 5.7921843805811526e-06 0.0000000000000000e+00  1.1534884110637904e-04 4.3774710492135128e-06 0.0000000000000000e+00  8.1013855197867646e-05 2.0248182420680027e-06 0.0000000000000000e+00  0.0000000000000000e+00 0.0000000000000000e+00 0.0000000000000000e+00  1.0862217871421642e-05 4.9811956534985719e-07 0.0000000000000000e+00  2.2025122578714492e-05 1.0110325261044468e-06 0.0000000000000000e+00  3.3787579794582699e-05 1.5535872306771142e-06 0.0000000000000000e+00  4.6433744890213246e-05 2.1402391556357127e-06 0.0000000000000000e+00  6.0218699133892941e-05 2.7844851460738366e-06 0.0000000000000000e+00  7.5344249441280486e-05 3.4977257491694851e-06 0.0000000000000000e+00  9.1920013249132112e-05 4.2871589379149580e-06 0.0000000000000000e+00  1.0990382429283841e-04 5.1520957398037801e-06 0.0000000000000000e+00  1.2901487582715217e-04 6.0778154444536693e-06 0.0000000000000000e+00  1.4861397449105113e-04 7.0258446526080658e-06 0.0000000000000000e+00  1.6754983644349139e-04 7.9196749869890586e-06 0.0000000000000000e+00  1.8398161558393712e-04 8.6262112097609490e-06 0.0000000000000000e+00  1.9520910875540679e-04 8.9371165698902568e-06 0.0000000000000000e+00  1.9757292892538626e-04 8.5624401665134051e-06 0.0000000000000000e+00  1.8651373932086570e-04 7.1612739121191587e-06 0.0000000000000000e+00  1.5686388196415127e-04 4.4439326470884585e-06 0.0000000000000000e+00  0.0000000000000000e+00 0.0000000000000000e+00 0.0000000000000000e+00  1.1975180498150424e-05 5.4642372255764419e-07 0.0000000000000000e+00  2.4332525881237828e-05 1.1113109202622730e-06 0.0000000000000000e+00  3.7458521850082101e-05 1.7135388075282998e-06 0.0000000000000000e+00  5.1739373647212828e-05 2.3724481258925600e-06 0.0000000000000000e+00  6.7554400012810416e-05 3.1078157471856944e-06 0.0000000000000000e+00  8.5259739455151846e-05 3.9393695693427256e-06 0.0000000000000000e+00  1.0515647290446461e-04 4.8854225396069368e-06 0.0000000000000000e+00  1.2743481272372247e-04 5.9598503248505389e-06 0.0000000000000000e+00  1.5208311288082628e-04 7.1660416072727543e-06 0.0000000000000000e+00  1.7874795202888632e-04 8.4855601723379904e-06 0.0000000000000000e+00  2.0653149436486253e-04 9.8582538921822444e-06 0.0000000000000000e+00  2.3371878427269583e-04 1.1150365190514378e-05 0.0000000000000000e+00  2.5744640747405031e-04 1.2110569203388093e-05 0.0000000000000000e+00  2.7335783406860959e-04 1.2326293184445483e-05 0.0000000000000000e+00  2.7532270562151732e-04 1.1220019004589031e-05 0.0000000000000000e+00  2.5526302928414237e-04 8.1613847269954282e-06 0.0000000000000000e+00  0.0000000000000000e+00 0.0000000000000000e+00 0.0000000000000000e+00  1.2699058639679611e-05 5.7595620890424784e-07 0.0000000000000000e+00  2.5860313831673302e-05 1.1737511910040185e-06 0.0000000000000000e+00  3.9958272858132220e-05 1.8160590923986981e-06 0.0000000000000000e+00  5.5486947199717895e-05 2.5270896498394363e-06 0.0000000000000000e+00  7.2964971729035333e-05 3.3333192513159496e-06 0.0000000000000000e+00  9.2932903148522519e-05 4.2640660996046819e-06 0.0000000000000000e+00  1.1593641615812358e-04 5.3516144325875617e-06 0.0000000000000000e+00  1.4248506650508380e-04 6.6301844211205520e-06 0.0000000000000000e+00  1.7297032466238472e-04 8.1321806170259786e-06 0.0000000000000000e+00  2.0751871286415577e-04 9.8784465589644629e-06 0.0000000000000000e+00  2.4574756357387674e-04 1.1856243273057031e-05 0.0000000000000000e+00  2.8638718472451469e-04 1.3974425108823549e-05 0.0000000000000000e+00  3.2674565274566690e-04 1.5982589549181470e-05 0.0000000000000000e+00  3.6203823642900443e-04 1.7350445857272795e-05 0.0000000000000000e+00  3.8467926492687446e-04 1.7148352409531271e-05 0.0000000000000000e+00  3.8362088636708622e-04 1.4065182971981401e-05 0.0000000000000000e+00  0.0000000000000000e+00 0.0000000000000000e+00 0.0000000000000000e+00  1.2954988589163612e-05 5.8340091392410365e-07 0.0000000000000000e+00  2.6441072057729188e-05 1.1912186704702025e-06 0.0000000000000000e+00  4.1010810200206054e-05 1.8491111228092340e-06 0.0000000000000000e+00  5.7259826063965605e-05 2.5853715029709962e-06 0.0000000000000000e+00  7.5847169767513965e-05 3.4325150860206677e-06 0.0000000000000000e+00  9.7512149236661722e-05 4.4291846753375446e-06 0.0000000000000000e+00  1.2308238676209059e-04 5.6224226534992036e-06 0.0000000000000000e+00  1.5346260011958642e-04 7.0701157707828750e-06 0.0000000000000000e+00  1.8958457635991571e-04 8.8426627178523983e-06 0.0000000000000000e+00  2.3228430231301956e-04 1.1020859996039528e-05 0.0000000000000000e+00  2.8205129426738619e-04 1.3682001490227276e-05 0.0000000000000000e+00  3.3857105091135079e-04 1.6855448088145226e-05 0.0000000000000000e+00  3.9997037450658463e-04 2.0410172685696783e-05 0.0000000000000000e+00  4.6172225097211713e-04 2.3818633402966739e-05 0.0000000000000000e+00  5.1534658056872924e-04 2.5774639655250348e-05 0.0000000000000000e+00  5.4733637228553524e-04 2.3839762247498698e-05 0.0000000000000000e+00  0.0000000000000000e+00 0.0000000000000000e+00 0.0000000000000000e+00  1.2675684288408760e-05 5.6625890241200379e-07 0.0000000000000000e+00  2.5928894871995668e-05 1.1582097841132654e-06 0.0000000000000000e+00  4.0367754505760409e-05 1.8030755843011692e-06 0.0000000000000000e+00  5.6667794709273389e-05 2.5315807008132883e-06 0.0000000000000000e+00  7.5609585350296622e-05 3.3802673390207356e-06 0.0000000000000000e+00  9.8119824313958604e-05 4.3946477457243700e-06 0.0000000000000000e+00  1.2531388764067567e-04 5.6337478829255468e-06 0.0000000000000000e+00  1.5853268799680969e-04 7.1768347689914855e-06 0.0000000000000000e+00  1.9935617379329584e-04 9.1332111177746011e-06 0.0000000000000000e+00  2.4955559375707789e-04 1.1655119136705542e-05 0.0000000000000000e+00  3.1091055270157588e-04 1.4949498591233420e-05 0.0000000000000000e+00  3.8475917802242848e-04 1.9269633095158561e-05 0.0000000000000000e+00  4.7107690288922542e-04 2.4826467233386593e-05 0.0000000000000000e+00  5.6685201724337704e-04 3.1467401273022062e-05 0.0000000000000000e+00  6.6375333617719665e-04 3.7861434469491873e-05 0.0000000000000000e+00  7.4567629974691579e-04 4.0072164580612219e-05 0.0000000000000000e+00  0.0000000000000000e+00 0.0000000000000000e+00 0.0000000000000000e+00  1.1816520584083704e-05 5.2334109375946353e-07 0.0000000000000000e+00  2.4223042600776451e-05 1.0719524591797418e-06 0.0000000000000000e+00  3.7847594205684194e-05 1.6727211354286434e-06 0.0000000000000000e+00  5.3406340897352247e-05 2.3564097204116247e-06 0.0000000000000000e+00  7.1757666140033187e-05 3.1603077430051744e-06 0.0000000000000000e+00  9.3968777135329239e-05 4.1320277293508348e-06 0.0000000000000000e+00  1.2139858984607344e-04 5.3354317424513550e-06 0.0000000000000000e+00  1.5579797254646006e-04 6.8605505317064986e-06 0.0000000000000000e+00  1.9942034889177104e-04 8.8409950954848588e-06 0.0000000000000000e+00  2.5511526501920302e-04 1.1485011452250863e-05 0.0000000000000000e+00  3.2633122512685348e-04 1.5129029209517682e-05 0.0000000000000000e+00  4.1685804325606994e-04 2.0318441237623893e-05 0.0000000000000000e+00  5.2996111764978945e-04 2.7880223051144785e-05 0.0000000000000000e+00  6.6630732085794242e-04 3.8773910219439191e-05 0.0000000000000000e+00  8.2014624583511355e-04 5.2952923077906874e-05 0.0000000000000000e+00  9.7544457009235224e-04 6.6925935451924744e-05 0.0000000000000000e+00  0.0000000000000000e+00 0.0000000000000000e+00 0.0000000000000000e+00  1.0366652520748819e-05 4.5514392633873053e-07 0.0000000000000000e+00  2.1292283763037880e-05 9.3326555325821737e-07 0.0000000000000000e+00  3.3377665115947441e-05 1.4588066397778917e-06 0.0000000000000000e+00  4.7323525801850818e-05 2.0598305364684931e-06 0.0000000000000000e+00  6.3996190246036225e-05 2.7704323173406055e-06 0.0000000000000000e+00  8.4514894755235423e-05 3.6341342762246779e-06 0.0000000000000000e+00  1.1037199345875651e-04 4.7092088974905889e-06 0.0000000000000000e+00  1.4359994006157240e-04 6.0780116124911312e-06 0.0000000000000000e+00  1.8699937485067600e-04 7.8652024837979494e-06 0.0000000000000000e+00  2.4443386875023159e-04 1.0276459249868743e-05 0.0000000000000000e+00  3.2116030964528578e-04 1.3684559791235483e-05 0.0000000000000000e+00  4.2405402665261413e-04 1.8820304135783099e-05 0.0000000000000000e+00  5.6130102184562671e-04 2.7168192598423688e-05 0.0000000000000000e+00  7.4045181503844466e-04 4.1617886026606296e-05 0.0000000000000000e+00  9.6241517142200733e-04 6.6384679916150420e-05 0.0000000000000000e+00  1.2129400465977840e-03 9.3833223047792849e-05 0.0000000000000000e+00  0.0000000000000000e+00 0.0000000000000000e+00 0.0000000000000000e+00  8.3581343567902235e-06 3.6400393437806940e-07 0.0000000000000000e+00  1.7195562105418076e-05 7.4692188310968364e-07 0.0000000000000000e+00  2.7031678947826951e-05 1.1687894192119725e-06 0.0000000000000000e+00  3.8483787489433381e-05 1.6524683174077388e-06 0.0000000000000000e+00  5.2334843828421340e-05 2.2253071936998811e-06 0.0000000000000000e+00  6.9628809672684684e-05 2.9211294342869283e-06 0.0000000000000000e+00  9.1811454383545146e-05 3.7827263473771882e-06 0.0000000000000000e+00  1.2094409808396609e-04 4.8653784468809583e-06 0.0000000000000000e+00  1.6003215189290724e-04 6.2433979820185372e-06 0.0000000000000000e+00  2.1352826966836475e-04 8.0272489723899775e-06 0.0000000000000000e+00  2.8808063762914688e-04 1.0418171709096712e-05 0.0000000000000000e+00  3.9355517296404838e-04 1.3890182439921376e-05 0.0000000000000000e+00  5.4411162869241725e-04 1.9781744562008970e-05 0.0000000000000000e+00  7.5816810764824604e-04 3.2155653292237709e-05 0.0000000000000000e+00  1.0527122152980029e-03 6.3855663888018877e-05 0.0000000000000000e+00  1.4085157012286864e-03 1.6514776520027680e-04 0.0000000000000000e+00  0.0000000000000000e+00 0.0000000000000000e+00 0.0000000000000000e+00  5.8707228348982047e-06 2.5398316723926447e-07 0.0000000000000000e+00  1.2093778633499847e-05 5.2138416896775892e-07 0.0000000000000000e+00  1.9053483535957211e-05 8.1632534240824272e-07 0.0000000000000000e+00  2.7213281033858784e-05 1.1547128512378935e-06 0.0000000000000000e+00  3.7172707793504270e-05 1.5550071252293414e-06 0.0000000000000000e+00  4.9750980016754546e-05 2.0385702329030700e-06 0.0000000000000000e+00  6.6116876244284151e-05 2.6286874996863656e-06 0.0000000000000000e+00  8.7998771242705327e-05 3.3459841275904115e-06 0.0000000000000000e+00  1.1803470363221762e-04 4.1948356255069424e-06 0.0000000000000000e+00  1.6036973686435704e-04 5.1289058994726415e-06 0.0000000000000000e+00  2.2169190486988130e-04 5.9732694975952971e-06 0.0000000000000000e+00  3.1303667506435824e-04 6.2753207515476283e-06 0.0000000000000000e+00  4.5286956737826742e-04 5.1184654328102473e-06 0.0000000000000000e+00  6.7191208081016920e-04 1.2886371078984960e-06 0.0000000000000000e+00  1.0181405447094402e-03 -4.6625665388342694e-06 0.0000000000000000e+00  1.5494996538052458e-03 -2.0428894266817844e-06 0.0000000000000000e+00  0.0000000000000000e+00 0.0000000000000000e+00 0.0000000000000000e+00  3.0303185982966021e-06 1.3052577270415880e-07 0.0000000000000000e+00  6.2478153570399633e-06 2.6800652964073260e-07 0.0000000000000000e+00  9.8575701497818473e-06 4.1972017137270105e-07 0.0000000000000000e+00  1.4109286769791688e-05 5.9375628000874228e-07 0.0000000000000000e+00  1.9330285855657605e-05 7.9920118405751869e-07 0.0000000000000000e+00  2.5975268890057997e-05 1.0457243624290151e-06 0.0000000000000000e+00  3.4706275503229594e-05 1.3413983944001164e-06 0.0000000000000000e+00  4.6527314700258972e-05 1.6854824463433084e-06 0.0000000000000000e+00  6.3019867898620689e-05 2.0469014325317698e-06 0.0000000000000000e+00  8.6767468608521512e-05 2.3015791001774806e-06 0.0000000000000000e+00  1.2213254876099276e-04 2.0493224703889016e-06 0.0000000000000000e+00  1.7664357886055667e-04 7.5242476389411538e-08 0.0000000000000000e+00  2.6314218958644719e-04 -7.2098873029981928e-06 0.0000000000000000e+00  4.0121834303390934e-04 -2.9897064316984720e-05 0.0000000000000000e+00  6.0829098904485366e-04 -9.2168104583222835e-05 0.0000000000000000e+00  8.5314735557398807e-04 -2.2597734405465375e-04 0.0000000000000000e+00  0.0000000000000000e+00 0.0000000000000000e+00 0.0000000000000000e+00  0.0000000000000000e+00 0.0000000000000000e+00 0.0000000000000000e+00  0.0000000000000000e+00 0.0000000000000000e+00 0.0000000000000000e+00  0.0000000000000000e+00 0.0000000000000000e+00 0.0000000000000000e+00  0.0000000000000000e+00 0.0000000000000000e+00 0.0000000000000000e+00  0.0000000000000000e+00 0.0000000000000000e+00 0.0000000000000000e+00  0.0000000000000000e+00 0.0000000000000000e+00 0.0000000000000000e+00  0.0000000000000000e+00 0.0000000000000000e+00 0.0000000000000000e+00  0.0000000000000000e+00 0.0000000000000000e+00 0.0000000000000000e+00  0.0000000000000000e+00 0.0000000000000000e+00 0.0000000000000000e+00  0.0000000000000000e+00 0.0000000000000000e+00 0.0000000000000000e+00  0.0000000000000000e+00 0.0000000000000000e+00 0.0000000000000000e+00 