<?xml version="1.0"?>
<VTKFile type="UnstructuredGrid"  version="0.1"  >
<UnstructuredGrid>
<Piece  NumberOfPoints="289" NumberOfCells="512">
<Points>
<DataArray  type="Float64"  NumberOfComponents="3"  format="ascii">0 0 0  0.0625 0 0  0.125 0 0  0.1875 0 0  0.25 0 0  0.3125 0 0  0.375 0 0  0.4375 0 0  0.5 0 0  0.5625 0 0  0.625 0 0  0.6875 0 0  0.75 0 0  0.8125 0 0  0.875 0 0  0.9375 0 0  1 0 0  0 0.0625 0  0.06244309979000947 0.06249455776094476 0  0.1248844855642911 0.0624890060436252 0  0.18732243217681 0.06248324263042258 0  0.2497552168714764 0.06247718186317476 0  0.3121811383198652 0.06247076569066724 0  0.3745985585194954 0.06246397774887582 0  0.4370059754709952 0.06245686072463043 0  0.4994021307841914 0.06244953607505876 0  0.5617861420657709 0.06244222296209203 0  0.6241576054427375 0.06243524946826792 0  0.6865164796278311 0.06242904338689016 0  0.7488621450770452 0.06242408324721242 0  0.8111896329032501 0.06242079234026247 0  0.8734759289743181 0.06241942509271543 0  0.9356292589406662 0.06242046155647586 0  0.99729159990535 0.06242941917211234 0  0 0.125 0  0.06238796516949414 0.12498922507673 0  0.1247725135284653 0.1249782234648802 0  0.1871502019537105 0.1249667818995194 0  0.2495175816511362 0.1249547180531687 0  0.3118712312759864 0.1249419018438497 0  0.3742078376352207 0.1249282834082721 0  0.4365243444579362 0.1249139288716776 0  0.4988181900614445 0.1248990631277515 0  0.5610876473738197 0.1248841149848581 0  0.6233322521084701 0.1248697529406555 0  0.6855532293199114 0.1248568876693659 0  0.7477536519130279 0.1248465971329519 0  0.8099377352488299 0.1248398940111525 0  0.8721085285949276 0.1248371599665966 0  0.9342669362049162 0.1248366294448957 0  0.9964482425181104 0.1248284220553306 0  0 0.1875 0  0.0623363125314754 0.1874841196957411 0  0.1246675235318922 0.1874678811772452 0  0.1869884798710437 0.1874509435269272 0  0.2492939891042035 0.1874330065003025 0  0.3115788518057391 0.1874138401646573 0  0.3738379649738538 0.1873933257301394 0  0.4360665323660983 0.1873715106955731 0  0.4982604273722537 0.1873486796664538 0  0.5604167647610221 0.1873254380246676 0  0.622534748502285 0.1873027970555764 0  0.6846168776702921 0.1872822330879448 0  0.7466706398080398 0.1872656649864331 0  0.8087110329235599 0.1872552466790575 0  0.8707651405392309 0.1872527954634787 0  0.9328831727144697 0.187258610680334 0  0.9951691242355565 0.187270042157053 0  0 0.25 0  0.06228983978021382 0.2499793736441313 0  0.1245729307267565 0.2499582390291678 0  0.1868424317677201 0.2499361054828786 0  0.2490913898468733 0.2499125253037403 0  0.3113127463668511 0.2498871281119383 0  0.3734994315988875 0.2498596715622109 0  0.435644596623632 0.2498301147928001 0  0.4977420518138058 0.2497987206323104 0  0.5597870080743783 0.2497661901071543 0  0.6217772554051065 0.2497338257469386 0  0.683714971382321 0.24970370436415 0  0.7456094534416543 0.2496788086225203 0  0.8074812758615538 0.2496630101399692 0  0.8693688237123809 0.2496607054167011 0  0.9313390027314673 0.2496757850286118 0  0.9935043899908501 0.2497094863217443 0  0 0.3125 0  0.06225020364701511 0.3124751373412928 0  0.1244920865111682 0.3124495973691225 0  0.1867171763329969 0.3124227157954727 0  0.2489167683498094 0.312393863258333 0  0.311081872691313 0.3123624785563515 0  0.3732032545194967 0.3123281230787418 0  0.4352716245063837 0.3122905669516536 0  0.4972780641355231 0.312249919883208 0  0.559214808716641 0.3122068214225159 0  0.621076563513372 0.3121627040037719 0  0.682862596901052 0.312120132785029 0  0.7445799386473819 0.3120831995288895 0  0.8062481048304894 0.3120578880454216 0  0.8679058451386966 0.3120522160372984 0  0.9296203360202374 0.3120757813971647 0  0.9914985068940824 0.3121381220973705 0  0 0.375 0  0.06221897878017293 0.3749715800002297 0  0.1244282004476489 0.3749422991516694 0  0.1866176785689088 0.3749112992587131 0  0.2487770246705377 0.3748777362649029 0  0.3108953000676079 0.3748408041707161 0  0.3729609489278712 0.3747997829435402 0  0.4349618699971478 0.3747541249560908 0  0.4968857163167852 0.3747036008834828 0  0.5587205588846402 0.374648534435523 0  0.6204561138928831 0.3745901646808078 0  0.6820858118123425 0.3745311808275171 0  0.7436100671250591 0.374476465936054 0  0.80504115630101 0.37443403847034 0  0.8664100641475297 0.3744160498916169 0  0.9277754108468887 0.374439430414118 0  0.9892339622247285 0.3745253883582889 0  0 0.4375 0  0.06219759568345176 0.4374688850284476 0  0.1243842161609504 0.4374367217230553 0  0.1865485646234874 0.4374024479893948 0  0.2486787324533614 0.4373649814062485 0  0.3107619221134935 0.4373232238269639 0  0.3727842213020326 0.4372760885980422 0  0.4347304758224487 0.4372225671221076 0  0.4965843431562275 0.4371618619811187 0  0.5583286628274117 0.4370936304100687 0  0.6199463595071958 0.4370184065750748 0  0.681422202688043 0.4369383039884261 0  0.7427458715192571 0.4368581328650483 0  0.8039168743983739 0.4367870716712708 0  0.8649518641534951 0.4367409291011706 0  0.9258946561102752 0.4367446676209409 0  0.986828785642898 0.4368340500887742 0  0 0.5 0  0.06218725811527089 0.4999672394703275 0  0.1243626414221671 0.4999332559405028 0  0.1865138554972581 0.4998967911439517 0  0.2486277638517983 0.4998565199669436 0  0.3106899591987681 0.4998110255310455 0  0.3726843378050596 0.4997587894322815 0  0.4345927032541814 0.499698212167119 0  0.4963944592925474 0.4996276917292324 0  0.5580665108294972 0.4995458116052167 0  0.6195835933280189 0.4994517301192368 0  0.6809194122340017 0.4993459314936672 0  0.7420492050720533 0.4992316045119721 0  0.8029546056788596 0.49911704755308 0  0.8636318494255713 0.4990195726153333 0  0.9241040984987398 0.498971101879005 0  0.9844377247416558 0.4990243596216917 0  0 0.5625 0  0.0621888449415389 0.5624668172780032 0  0.1243653420371556 0.5624322717390116 0  0.1865166329225509 0.5623949411434057 0  0.2486287963931607 0.5623532828671174 0  0.3106862638215122 0.5623055716999819 0  0.3726711748276212 0.5622498385590881 0  0.4345626665369676 0.562183817896447 0  0.4963361147162547 0.5621049230397265 0  0.5579624009861094 0.5620102923587615 0  0.6194073975011823 0.5618969976015359 0  0.6806320894325582 0.5617626037653283 0  0.7415941624035273 0.5616064624018666 0  0.8022524981090076 0.5614324727135229 0  0.8625766656472317 0.5612545869476124 0  0.922563374436759 0.5611067908423569 0  0.9822591419361273 0.5610583190302969 0  0 0.625 0  0.06220280603513909 0.6249677573939598 0  0.1243933192509714 0.6249340717948755 0  0.1865586681079614 0.624897417878533 0  0.2486847441654692 0.6248560979260522 0  0.3107554826872785 0.6248081402352789 0  0.3727520141782262 0.6247511789964443 0  0.4346516369915214 0.6246823105669189 0  0.4964265664800403 0.6245979253890822 0  0.558042448893463 0.6244935276408924 0  0.6194567323848835 0.6243635894804843 0  0.6806172581332269 0.6242015772803899 0  0.741462052896369 0.6240005180263428 0  0.8019225365891849 0.6237550447022573 0  0.8619343190932062 0.6234671717479605 0  0.9214613898914905 0.623160535386985 0  0.9805363900551798 0.6229100114644278 0  0 0.6875 0  0.06222906581513694 0.6874701391330666 0  0.1244464994652831 0.6874388382986948 0  0.1866400604607159 0.6874045583453495 0  0.2487961829501591 0.6873655481792915 0  0.310899171670272 0.687319710114225 0  0.3729302065443722 0.6872644263422873 0  0.434866059367661 0.6871963257635495 0  0.4966773995379421 0.6871109628163121 0  0.5583265463734247 0.6870023702632703 0  0.619764554829824 0.6868624399613693 0  0.6809277220055373 0.6866800981268102 0  0.7417342978608423 0.6864403498756738 0  0.8020841272506933 0.6861237518404611 0  0.8618684817385937 0.6857086910029514 0  0.9210050016701826 0.6851848086004979 0  0.9795143150502954 0.6845996645974338 0  0 0.75 0  0.06226695049192856 0.7499739588163816 0  0.124523571164151 0.7499465812993624 0  0.1867589457028347 0.7499164257938582 0  0.2489608620227257 0.7498818225286898 0  0.3111150009607255 0.7498407215498655 0  0.3732038957057961 0.7497904867520501 0  0.4352055284754325 0.7497276021387799 0  0.4970913680220704 0.7496472370256804 0  0.5588235573502147 0.7495425821397421 0  0.6203508402494413 0.749403803982682 0  0.6816027368733351 0.7492163412145078 0  0.7424817650938388 0.7489580374251611 0  0.8028553547915916 0.7485942800408885 0  0.8625563678589286 0.7480705882252784 0  0.9214234932186753 0.747308360173696 0  0.9794514222636594 0.7462575924828584 0  0 0.8125 0  0.0623151551082633 0.8124791125255548 0  0.1246219049011695 0.812457099434821 0  0.1869113370159078 0.8124327375555257 0  0.2491734078591742 0.8124045905064844 0  0.3113962186708025 0.8123708620950417 0  0.3735650644151366 0.8123291918302725 0  0.4356611115665618 0.8122763539621825 0  0.4976594749671289 0.8122077971197723 0  0.5595263085668506 0.8121169162634725 0  0.6212142401526338 0.8119938575933227 0  0.6826549643750547 0.8118234523622984 0  0.7437469667568074 0.8115813517514869 0  0.8043356047719152 0.8112259380759115 0  0.8641862166193164 0.8106790297484547 0  0.9229839583105933 0.8097744319220025 0  0.9806089623339951 0.8081138209781383 0  0 0.875 0  0.06237176333642681 0.8749853897041284 0  0.1247375861017609 0.8749699638534261 0  0.1870911546330928 0.8749528315908064 0  0.249425317780411 0.8749329365449496 0  0.3117315442663709 0.8749089408546162 0  0.3739992005113458 0.8748790607893067 0  0.4362145311299963 0.8748408214281542 0  0.4983591473116705 0.8747906783270639 0  0.560407677721972 0.874723421233341 0  0.6223239213943242 0.874631219378543 0  0.6840541235895679 0.8745020675098918 0  0.7455141961350353 0.8743171635456958 0  0.8065627633274032 0.8740459838421547 0  0.8669373751713045 0.8736343948561327 0  0.9260887989896611 0.8729640392270461 0  0.9827598727915116 0.8716662047750393 0  0 0.9375 0  0.06243432657539825 0.9374924808597933 0  0.1248655765153573 0.9374845329956953 0  0.1872904757880497 0.9374756866288868 0  0.2497053059662143 0.9374653814575469 0  0.3121056152343203 0.9374529025768678 0  0.3744858328518805 0.9374372889547403 0  0.436838724577564 0.9374
[...]
<PointData  Vectors="f_95-0"> 
<DataArray  type="Float64"  Name="f_95-0"  NumberOfComponents="3" format="ascii">0.0000000000000000e+00 0.0000000000000000e+00 0.0000000000000000e+00  -2.7112050971688802e-04 -3.5682155275759804e-02 0.0000000000000000e+00  -7.3218304867642993e-04 -5.5570903181795119e-02 0.0000000000000000e+00  -1.2483213125518162e-03 -6.4001145995857003e-02 0.0000000000000000e+00  -1.8389530977543297e-03 -6.4727530715334783e-02 0.0000000000000000e+00  -2.4993243949269022e-03 -6.0795959886091780e-02 0.0000000000000000e+00  -3.2145784608555560e-03 -5.4446562136458918e-02 0.0000000000000000e+00  -3.9563830235804179e-03 -4.7175167770625172e-02 0.0000000000000000e+00  -4.6865161520606314e-03 -3.9872839286106555e-02 0.0000000000000000e+00  -5.3608765660706475e-03 -3.2990206379171626e-02 0.0000000000000000e+00  -5.9328668882751524e-03 -2.6691380967124655e-02 0.0000000000000000e+00  -6.3559113549395124e-03 -2.0979723061126321e-02 0.0000000000000000e+00  -6.5858913614226661e-03 -1.5789085267335384e-02 0.0000000000000000e+00  -6.5782971822880626e-03 -1.1046259983113113e-02 0.0000000000000000e+00  -6.2875716169631234e-03 -6.6959624519920902e-03 0.0000000000000000e+00  -5.7424873333104696e-03 -2.7350920794802056e-03 0.0000000000000000e+00  -2.3420138384489301e-03 2.0045467697819550e-03 0.0000000000000000e+00  0.0000000000000000e+00 0.0000000000000000e+00 0.0000000000000000e+00  -1.6784935612945980e-04 -3.5260675795371094e-02 0.0000000000000000e+00  -4.8443470492272837e-04 -5.5085996026044359e-02 0.0000000000000000e+00  -8.3832455478909953e-04 -6.3469856694749693e-02 0.0000000000000000e+00  -1.2530593318710252e-03 -6.4151058178888290e-02 0.0000000000000000e+00  -1.7316024883376447e-03 -6.0180048858483132e-02 0.0000000000000000e+00  -2.2651279954486125e-03 -5.3808536793338482e-02 0.0000000000000000e+00  -2.8286412379685466e-03 -4.6542865722740613e-02 0.0000000000000000e+00  -3.3878254817402541e-03 -3.9281707956026257e-02 0.0000000000000000e+00  -3.9037606205254284e-03 -3.2480232532126327e-02 0.0000000000000000e+00  -4.3367138847027042e-03 -2.6304308746718453e-02 0.0000000000000000e+00  -4.6491543769391014e-03 -2.0756477022092691e-02 0.0000000000000000e+00  -4.8083065587358328e-03 -1.5768078399842664e-02 0.0000000000000000e+00  -4.7890919388092886e-03 -1.1259407358089082e-02 0.0000000000000000e+00  -4.5930450153004879e-03 -7.1733079839195382e-03 0.0000000000000000e+00  -4.1966866096462534e-03 -3.5103664805528653e-03 0.0000000000000000e+00  -4.3432482886746025e-03 2.1680451084699079e-04 0.0000000000000000e+00  0.0000000000000000e+00 0.0000000000000000e+00 0.0000000000000000e+00  2.9970219719347889e-05 -3.5109683574811673e-02 0.0000000000000000e+00  8.8081152006148119e-05 -5.4912373848205437e-02 0.0000000000000000e+00  1.5719298406051079e-04 -6.3277528766547714e-02 0.0000000000000000e+00  1.9013247856277079e-04 -6.3921926178605190e-02 0.0000000000000000e+00  1.6738077318197641e-04 -5.9909878994172369e-02 0.0000000000000000e+00  8.8980824821832151e-05 -5.3509327810326426e-02 0.0000000000000000e+00  -2.7049748199038557e-05 -4.6237517001906848e-02 0.0000000000000000e+00  -1.5541126889370572e-04 -3.8998797599757523e-02 0.0000000000000000e+00  -2.6963075702584265e-04 -3.2249866786455222e-02 0.0000000000000000e+00  -3.4656086715110276e-04 -2.6154870505569409e-02 0.0000000000000000e+00  -3.6958603309678051e-04 -2.0711421191847261e-02 0.0000000000000000e+00  -3.3229075065988338e-04 -1.5841322729374718e-02 0.0000000000000000e+00  -2.4576097400568283e-04 -1.1446644507675607e-02 0.0000000000000000e+00  -1.4765757263103546e-04 -7.4335245030564623e-03 0.0000000000000000e+00  -1.5245125274638291e-04 -3.6734747050148693e-03 0.0000000000000000e+00  -1.9009346818118548e-04 1.1158585758020673e-05 0.0000000000000000e+00  0.0000000000000000e+00 0.0000000000000000e+00 0.0000000000000000e+00  2.4714272342683661e-04 -3.5325973164633796e-02 0.0000000000000000e+00  7.8469765081971908e-04 -5.5225683236985047e-02 0.0000000000000000e+00  1.4272093731423480e-03 -6.3614401389323713e-02 0.0000000000000000e+00  2.0708100566587070e-03 -6.4237546443989380e-02 0.0000000000000000e+00  2.6721916933118606e-03 -6.0188628815849604e-02 0.0000000000000000e+00  3.2226173124750702e-03 -5.3755886362181059e-02 0.0000000000000000e+00  3.7319618408632950e-03 -4.6466499689252989e-02 0.0000000000000000e+00  4.2139350642858816e-03 -3.9226617810056902e-02 0.0000000000000000e+00  4.6781232046154532e-03 -3.2489597100030944e-02 0.0000000000000000e+00  5.1254792008013344e-03 -2.6413069666079501e-02 0.0000000000000000e+00  5.5460538622768346e-03 -2.0985266100437345e-02 0.0000000000000000e+00  5.9168734311479988e-03 -1.6114470918011960e-02 0.0000000000000000e+00  6.1998844398112899e-03 -1.1682901920366206e-02 0.0000000000000000e+00  6.3402203258423728e-03 -7.5678560570279930e-03 0.0000000000000000e+00  6.2959483625330270e-03 -3.6500965218472566e-03 0.0000000000000000e+00  6.0687699864723369e-03 1.4288147175009190e-04 0.0000000000000000e+00  0.0000000000000000e+00 0.0000000000000000e+00 0.0000000000000000e+00  4.6223719683062097e-04 -3.5936892692533452e-02 0.0000000000000000e+00  1.4991080881218482e-03 -5.6111057852766169e-02 0.0000000000000000e+00  2.7721194697242894e-03 -6.4593902330817521e-02 0.0000000000000000e+00  4.1076519647574236e-03 -6.5225772437616028e-02 0.0000000000000000e+00  5.4351605980827921e-03 -6.1155661458911763e-02 0.0000000000000000e+00  6.7360195291114623e-03 -5.4699091533364060e-02 0.0000000000000000e+00  8.0108877267602227e-03 -4.7390983666674116e-02 0.0000000000000000e+00  9.2591901452767252e-03 -4.0133478595115735e-02 0.0000000000000000e+00  1.0469307517044094e-02 -3.3370351005520396e-02 0.0000000000000000e+00  1.1615098003187843e-02 -2.7247605382120611e-02 0.0000000000000000e+00  1.2655857286319475e-02 -2.1741091453227838e-02 0.0000000000000000e+00  1.3537629439700532e-02 -1.6746320393679386e-02 0.0000000000000000e+00  1.4196340150431497e-02 -1.2134111884267112e-02 0.0000000000000000e+00  1.4567371698391141e-02 -7.7821585454234616e-03 0.0000000000000000e+00  1.4603164960187490e-02 -3.5974281472936909e-03 0.0000000000000000e+00  1.4304169289745001e-02 4.3220352854918753e-04 0.0000000000000000e+00  0.0000000000000000e+00 0.0000000000000000e+00 0.0000000000000000e+00  6.6052329875296507e-04 -3.6931973751702096e-02 0.0000000000000000e+00  2.1721199632707211e-03 -5.7579444430150346e-02 0.0000000000000000e+00  4.0714606731087465e-03 -6.6255753833054057e-02 0.0000000000000000e+00  6.1265843479710400e-03 -6.6954627104440667e-02 0.0000000000000000e+00  8.2454722213503480e-03 -6.2907874908534528e-02 0.0000000000000000e+00  1.0400853463852115e-02 -5.6464605904866509e-02 0.0000000000000000e+00  1.2582404699768762e-02 -4.9163079630197157e-02 0.0000000000000000e+00  1.4770357125331927e-02 -4.1893552119787361e-02 0.0000000000000000e+00  1.6925049563123733e-02 -3.5082754022629385e-02 0.0000000000000000e+00  1.8985690953019455e-02 -2.8859827632157792e-02 0.0000000000000000e+00  2.0873349162890683e-02 -2.3185981374605761e-02 0.0000000000000000e+00  2.2495202100135295e-02 -1.7945417620710398e-02 0.0000000000000000e+00  2.3750746643968250e-02 -1.3004364388579883e-02 0.0000000000000000e+00  2.4541251553785719e-02 -8.2493783560133246e-03 0.0000000000000000e+00  2.4785955712229392e-02 -3.6171877595037724e-03 0.0000000000000000e+00  2.4446357504843263e-02 8.6488465342801743e-04 0.0000000000000000e+00  0.0000000000000000e+00 0.0000000000000000e+00 0.0000000000000000e+00  8.3168040695817777e-04 -3.8274301143081134e-02 0.0000000000000000e+00  2.7633558490852898e-03 -5.9594738139535523e-02 0.0000000000000000e+00  5.2452099217746963e-03 -6.8590956455223576e-02 0.0000000000000000e+00  8.0154235002525397e-03 -6.9457206919452771e-02 0.0000000000000000e+00  1.0976671611150469e-02 -6.5527430341308396e-02 0.0000000000000000e+00  1.4098304981272940e-02 -5.9184196816711221e-02 0.0000000000000000e+00  1.7356089414774737e-02 -5.1959743329742104e-02 0.0000000000000000e+00  2.0702535028957990e-02 -4.4721286456959525e-02 0.0000000000000000e+00  2.4058564641552260e-02 -3.7869503091206222e-02 0.0000000000000000e+00  2.7316468344706007e-02 -3.1510963353791763e-02 0.0000000000000000e+00  3.0346532425309689e-02 -2.5589391535079525e-02 0.0000000000000000e+00  3.3003034731969617e-02 -1.9976939693440336e-02 0.0000000000000000e+00  3.5130403214863506e-02 -1.4535114831644420e-02 0.0000000000000000e+00  3.6570780361246731e-02 -9.1578931170350781e-03 0.0000000000000000e+00  3.7181657944489362e-02 -3.8060213076478414e-03 0.0000000000000000e+00  3.6865440811780906e-02 1.4343565606269393e-03 0.0000000000000000e+00  0.0000000000000000e+00 0.0000000000000000e+00 0.0000000000000000e+00  9.6339476353199686e-04 -3.9906098827967279e-02 0.0000000000000000e+00  3.2301008156866619e-03 -6.2085607659234557e-02 0.0000000000000000e+00  6.2160508744620252e-03 -7.1556637843013596e-02 0.0000000000000000e+00  9.6735176850421701e-03 -7.2748205803298868e-02 0.0000000000000000e+00  1.3525943267515737e-02 -6.9100553688912214e-02 0.0000000000000000e+00  1.7747543952876112e-02 -6.3016804068607712e-02 0.0000000000000000e+00  2.2294792767601160e-02 -5.6004913109679602e-02 0.0000000000000000e+00  2.7078805089314043e-02 -4.8892938326220159e-02 0.0000000000000000e+00  3.1963880041212075e-02 -4.2044603442488067e-02 0.0000000000000000e+00  3.6777760311845639e-02 -3.5538099837985539e-02 0.0000000000000000e+00  4.1322923676961512e-02 -2.9297030141204917e-02 0.0000000000000000e+00  4.5383761069950575e-02 -2.3178439296641967e-02 0.0000000000000000e+00  4.8729911550547747e-02 -1.7032326744914526e-02 0.0000000000000000e+00  5.1118798667106460e-02 -1.0751175185331171e-02 0.0000000000000000e+00  5.2316528212820505e-02 -4.3173985599755981e-03 0.0000000000000000e+00  5.2137499324322538e-02 2.1029426180111904e-03 0.0000000000000000e+00  0.0000000000000000e+00 0.0000000000000000e+00 0.0000000000000000e+00  1.0356700139309439e-03 -4.1740515499164008e-02 0.0000000000000000e+00  3.5083273587126805e-03 -6.4939363104139752e-02 0.0000000000000000e+00  6.8748018222882668e-03 -7.5075406439354508e-02 0.0000000000000000e+00  1.0963497173975219e-02 -7.6828096332462709e-02 0.0000000000000000e+00  1.5753185984210272e-02 -7.3724851522865814e-02 0.0000000000000000e+00  2.1231289050577890e-02 -6.8156919189737583e-02 0.0000000000000000e+00  2.7324566995515914e-02 -6.1576984113213926e-02 0.0000000000000000e+00  3.3882154820450441e-02 -5.4751614027113399e-02 0.0000000000000000e+00  4.0687879140085252e-02 -4.7995467232689694e-02 0.0000000000000000e+00  4.7482106092082969e-02 -4.1354482936407561e-02 0.0000000000000000e+00  5.3980693521517090e-02 -3.4731236619669439e-02 0.0000000000000000e+00  5.9883258425610479e-02 -2.7963081600344591e-02 0.0000000000000000e+00  6.4867980514348222e-02 -2.0878677877186315e-02 0.0000000000000000e+00  6.8585266403506484e-02 -1.3356143863027938e-02 0.0000000000000000e+00  7.0678960824158268e-02 -5.3882154759698079e-03 0.0000000000000000e+00  7.0840147632517614e-02 2.7639100675305611e-03 0.0000000000000000e+00  0.0000000000000000e+00 0.0000000000000000e+00 0.0000000000000000e+00  1.0152632365441970e-03 -4.3643813287274846e-02 0.0000000000000000e+00  3.4960167472397152e-03 -6.7982628371851331e-02 0.0000000000000000e+00  7.0521183814186827e-03 -7.9021659035433678e-02 0.0000000000000000e+00  1.1671525921393134e-02 -8.1674844553775730e-02 0.0000000000000000e+00  1.7427874762599025e-02 -7.9502796533252165e-02 0.0000000000000000e+00  2.4325214138538630e-02 -7.4825969391367320e-02 0.0000000000000000e+00  3.2241573804166139e-02 -6.8995473515829644e-02 0.0000000000000000e+00  4.0935158796335559e-02 -6.2688180413729075e-02 0.0000000000000000e+00  5.0078850176358360e-02 -5.6158254640459419e-02 0.0000000000000000e+00  5.9299565664690621e-02 -4.9419684327042551e-02 0.0000000000000000e+00  6.8209386273069189e-02 -4.2359279859497730e-02 0.0000000000000000e+00  7.6412865220853776e-02 -3.4799476430056119e-02 0.0000000000000000e+00  8.3493344056659105e-02 -2.6539505632264759e-02 0.0000000000000000e+00  8.8989595694230997e-02 -1.7406182997146104e-02 0.0000000000000000e+00  9.2390002185016418e-02 -7.3680165423817721e-03 0.0000000000000000e+00  9.3227381742388274e-02 3.1881949902625734e-03 0.0000000000000000e+00  0.0000000000000000e+00 0.0000000000000000e+00 0.0000000000000000e+00  8.5149946293590893e-04 -4.5409224305782044e-02 0.0000000000000000e+00  3.0438886978879924e-03 -7.0953468641732159e-02 0.0000000000000000e+00  6.5061586376302079e-03 -8.3200086719135397e-02 0.0000000000000000e+00  1.1489559458067672e-02 -8.7225255058311482e-02 0.0000000000000000e+00  1.8198219905100947e-02 -8.6518688637228738e-02 0.0000000000000000e+00  2.6643481204635538e-02 -8.3239360137777038e-02 0.0000000000000000e+00  3.6623700602535461e-02 -7.8575951301455810e-02 0.0000000000000000e+00  4.7769607526720957e-02 -7.3084407847894300e-02 0.0000000000000000e+00  5.9609329607661563e-02 -6.6950389369122426e-02 0.0000000000000000e+00  7.1630521619814147e-02 -6.0164657138837299e-02 0.0000000000000000e+00  8.3325230948790727e-02 -5.2618884322725143e-02 0.0000000000000000e+00  9.4204381688264546e-02 -4.4137428669887867e-02 0.0000000000000000e+00  1.0378970852970275e-01 -3.4470785214731188e-02 0.0000000000000000e+00  1.1152478945025088e-01 -2.3349618564419451e-02 0.0000000000000000e+00  1.1671501011740303e-01 -1.0691321428212329e-02 0.0000000000000000e+00  1.1867400713651935e-01 2.9963593751625960e-03 0.0000000000000000e+00  0.0000000000000000e+00 0.0000000000000000e+00 0.0000000000000000e+00  4.7720184631529358e-04 -4.6729451279116589e-02 0.0000000000000000e+00  1.9665866444050968e-03 -7.3478302887201238e-02 0.0000000000000000e+00  4.9486529204674891e-03 -8.7328679447685298e-02 0.0000000000000000e+00  1.0047308500581180e-02 -9.3351034270473046e-02 0.0000000000000000e+00  1.7610141091817796e-02 -9.4795097098400102e-02 0.0000000000000000e+00  2.7623656852218226e-02 -9.3537455836167099e-02 0.0000000000000000e+00  3.9763887851008040e-02 -9.0536462445838309e-02 0.0000000000000000e+00  5.3497063874980585e-02 -8.6199545490277973e-02 0.0000000000000000e+00  6.8178691835033084e-02 -8.0642962933797926e-02 0.0000000000000000e+00  8.3136525415466220e-02 -7.3852588240043038e-02 0.0000000000000000e+00  9.7729898796330802e-02 -6.5757736308275486e-02 0.0000000000000000e+00  1.1139790431981191e-01 -5.6223872311268658e-02 0.0000000000000000e+00  1.2364935857491592e-01 -4.5002890874141700e-02 0.0000000000000000e+00  1.3389649574501636e-01 -3.1732884723753907e-02 0.0000000000000000e+00  1.4138610920937489e-01 -1.6049700167542064e-02 0.0000000000000000e+00  1.4507620656232592e-01 1.6905369965801540e-03 0.0000000000000000e+00  0.0000000000000000e+00 0.0000000000000000e+00 0.0000000000000000e+00  -1.7566511541732764e-04 -4.7184176463968212e-02 0.0000000000000000e+00  1.0260568335976328e-04 -7.5080126725507124e-02 0.0000000000000000e+00  2.1532190248734701e-03 -9.1046545507371471e-02 0.0000000000000000e+00  7.0425914661929523e-03 -9.9835130437783942e-02 0.0000000000000000e+00  1.5221087328860175e-02 -1.0421975918696509e-01 0.0000000000000000e+00  2.6588655470001041e-02 -1.0566131880213443e-01 0.0000000000000000e+00  4.0655157799305536e-02 -1.0483134020835853e-01 0.0000000000000000e+00  5.6703491857381147e-02 -1.0197608065248147e-01 0.0000000000000000e+00  7.3914091190674144e-02 -9.7150556142895347e-02 0.0000000000000000e+00  9.1455638210043017e-02 -9.0355807418441583e-02 0.0000000000000000e+00  1.0855327535726221e-01 -8.1599118442227586e-02 0.0000000000000000e+00  1.2457447573908836e-01 -7.0877602278097085e-02 0.0000000000000000e+00  1.3903468504925034e-01 -5.8055934023718600e-02 0.0000000000000000e+00  1.5162050200758945e-01 -4.2555830977785841e-02 0.0000000000000000e+00  1.6176021486207606e-01 -2.3362127480691781e-02 0.0000000000000000e+00  1.6773394026086733e-01 -1.1922988780248677e-03 0.0000000000000000e+00  0.0000000000000000e+00 0.0000000000000000e+00 0.0000000000000000e+00  -1.1249877885236613e-03 -4.6293088850006568e-02 0.0000000000000000e+00  -2.5183716980105540e-03 -7.5275432146526891e-02 0.0000000000000000e+00  -1.7776785792094584e-03 -9.3979993919064961e-02 0.0000000000000000e+00  2.5427989025711955e-03 -1.0635266707867735e-01 0.0000000000000000e+00  1.0869014733186660e-02 -1.1442710181793427e-01 0.0000000000000000e+00  2.2935066794287383e-02 -1.1914794422374697e-01 0.0000000000000000e+00  3.8070704085033477e-02 -1.2088517109716876e-01 0.0000000000000000e+00  5.5409522356287481e-02 -1.1973988521247340e-01 0.0000000000000000e+00  7.4013714092297955e-02 -1.1572279699359951e-01 0.0000000000000000e+00  9.2946544485644919e-02 -1.0885898192265608e-01 0.0000000000000000e+00  1.1131854564737546e-01 -9.9247434958367423e-02 0.0000000000000000e+00  1.2837734169887510e-01 -8.7068270168111014e-02 0.0000000000000000e+00  1.4361317327793802e-01 -7.2463732588665841e-02 0.0000000000000000e+00  1.5723045740277772e-01 -5.5162756664252820e-02 0.0000000000000000e+00  1.6926670637653557e-01 -3.3698377554743100e-02 0.0000000000000000e+00  1.7711153138583119e-01 -5.5362931195383509e-03 0.0000000000000000e+00  0.0000000000000000e+00 0.0000000000000000e+00 0.0000000000000000e+00  -2.1893161602535055e-03 -4.3710021172965560e-02 0.0000000000000000e+00  -5.2841701653475303e-03 -7.3823065719420919e-02 0.0000000000000000e+00  -5.8710899667281363e-03 -9.5875062968616795e-02 0.0000000000000000e+00  -2.4580749118016032e-03 -1.1242472334967218e-01 0.0000000000000000e+00  5.1521740587791888e-03 -1.2459022107818422e-01 0.0000000000000000e+00  1.6492872936171868e-02 -1.3280500306644558e-01 0.0000000000000000e+00  3.0790905197952394e-02 -1.3719566798906704e-01 0.0000000000000000e+00  4.7164394542900487e-02 -1.3777068059836917e-01 0.0000000000000000e+00  6.4711028850791288e-02 -1.3452042019750063e-01 0.0000000000000000e+00  8.2535341673234022e-02 -1.2747983651903685e-01 0.0000000000000000e+00  9.9742063047385740e-02 -1.1678142817981943e-01 0.0000000000000000e+00  1.1546437175208393e-01 -1.0271943442210095e-01 0.0000000000000000e+00  1.2889937060508824e-01 -8.5833373242623856e-02 0.0000000000000000e+00  1.3986435187087307e-01 -6.6795227759560941e-02 0.0000000000000000e+00  1.4901444704827968e-01 -4.4719318492486379e-02 0.0000000000000000e+00  1.6069908703000443e-01 -1.2597106288032921e-02 0.0000000000000000e+00  0.0000000000000000e+00 0.0000000000000000e+00 0.0000000000000000e+00  -2.5959695316866383e-03 -3.9835849207120001e-02 0.0000000000000000e+00  -6.1691166959544769e-03 -7.1302907767947066e-02 0.0000000000000000e+00  -7.3200837025245661e-03 -9.6823614563657123e-02 0.0000000000000000e+00  -5.1774414847635510e-03 -1.1731785407728534e-01 0.0000000000000000e+00  1.1939826898875283e-04 -1.3310413608837438e-01 0.0000000000000000e+00  8.0605186676446609e-03 -1.4427415018263315e-01 0.0000000000000000e+00  1.8022332123286713e-02 -1.5083856798270842e-01 0.0000000000000000e+00  2.9376132088679171e-02 -1.5278539455719928e-01 0.0000000000000000e+00  4.1516432542675806e-02 -1.5010878789589049e-01 0.0000000000000000e+00  5.3848509684496476e-02 -1.4282888359944126e-01 0.0000000000000000e+00  6.5747310863005115e-02 -1.3101500045128461e-01 0.0000000000000000e+00  7.6478093427642668e-02 -1.1484073805560265e-01 0.0000000000000000e+00  8.4984689668609448e-02 -9.4685558116415741e-02 0.0000000000000000e+00  9.0056561031424134e-02 -7.1282574124358081e-02 0.0000000000000000e+00  8.9854882000045211e-02 -4.6541492642702964e-02 0.0000000000000000e+00  8.2183479980917865e-02 -7.3728860914442284e-03 0.0000000000000000e+00  0.0000000000000000e+00 -6.8383161452673890e-18 0.0000000000000000e+00  0.0000000000000000e+00 -3.7349061899337420e-02 0.0000000000000000e+00  0.0000000000000000e+00 -6.9718248878763184e-02 0.0000000000000000e+00  0.0000000000000000e+00 -9.7107560938277299e-02 0.0000000000000000e+00  0.0000000000000000e+00 -1.1951699807787974e-01 0.0000000000000000e+00  0.0000000000000000e+00 -1.3694656029757055e-01 0.0000000000000000e+00  0.0000000000000000e+00 -1.4939624759734968e-01 0.0000000000000000e+00  0.0000000000000000e+00 -1.5686605997721717e-01 0.0000