<?xml version="1.0"?>
<VTKFile type="UnstructuredGrid"  version="0.1"  >
<UnstructuredGrid>
<Piece  NumberOfPoints="289" NumberOfCells="512">
<Points>
<DataArray  type="Float64"  NumberOfComponents="3"  format="ascii">0 0 0  0.0625 0 0  0.125 0 0  0.1875 0 0  0.25 0 0  0.3125 0 0  0.375 0 0  0.4375 0 0  0.5 0 0  0.5625 0 0  0.625 0 0  0.6875 0 0  0.75 0 0  0.8125 0 0  0.875 0 0  0.9375 0 0  1 0 0  0 0.0625 0  0.06253496482331967 0.06248692606964566 0  0.1250708161804232 0.06247361719325455 0  0.1876084246661198 0.06245985829513476 0  0.2501486092645641 0.06244548240441306 0  0.3126920964186396 0.0624304019161852 0  0.3752394602373683 0.06241464769582498 0  0.4377910375109776 0.06239841640171396 0  0.5003468121007179 0.06238212304560739 0  0.5629062654299003 0.06236644968403394 0  0.6254681927840362 0.06235237107286451 0  0.6880304831527316 0.06234112391402065 0  0.7505898197963868 0.06233407235520064 0  0.8131409983026232 0.06233242985317802 0  0.8756740942411995 0.06233691139936157 0  0.938159593250526 0.06234802503365082 0  1.000465315863272 0.06237238536348451 0  0 0.125 0  0.06256902523533646 0.1249740821079384 0  0.1251398559502035 0.124947670896325 0  0.1877142752314305 0.1249203099606852 0  0.2502939837877884 0.1248916333319301 0  0.3128805318727236 0.124861426064463 0  0.3754752179504721 0.1248297023277374 0  0.4380789440157845 0.1247968035475577 0  0.5006920211063315 0.1247635135494988 0  0.5633139272837925 0.1247311766035652 0  0.6259430373836669 0.1247017844426369 0  0.6885763700037545 0.1246779662792951 0  0.7512094164951518 0.124662771698031 0  0.8138360450205141 0.1246590968375741 0  0.8764480639489517 0.1246686418252276 0  0.9390334548354861 0.1246905814992929 0  1.001581947711594 0.1247201395760435 0  0 0.1875 0  0.0626012696525373 0.1874617293352727 0  0.1252053088199155 0.1874226639447872 0  0.1878148719087182 0.1873820571496426 0  0.2504326302640802 0.1873392826637397 0  0.3130610950012983 0.1872939195665043 0  0.3757024952072269 0.1872458671593999 0  0.4383585973296056 0.1871954976339693 0  0.5010304555700206 0.1871438491169255 0  0.5637180929243997 0.1870928490433853 0  0.6264201308090791 0.1870455315259087 0  0.6891334101186278 0.1870061612303532 0  0.7518526586394584 0.1869800786697424 0  0.8145701989738816 0.1869728854875033 0  0.8772754939998515 0.186988127799806 0  0.9399544909453215 0.1870213182463525 0  1.002592877761278 0.1870440243695398 0  0 0.25 0  0.06263074634345046 0.2499501716574388 0  0.1252652696407454 0.2498991909103102 0  0.1879073555467331 0.2498459552029437 0  0.2505607429564611 0.2497894922802149 0  0.313229059463641 0.249729059977623 0  0.3759157036622549 0.2496642903364938 0  0.438623654657433 0.2495953951030437 0  0.5013551899144256 0.249523448359726 0  0.5641114963193898 0.2494507543518452 0  0.6268921656867193 0.2493812867554938 0  0.6896945683878456 0.2493211351655461 0  0.7525130766951547 0.2492787892209843 0  0.8153380283131404 0.2492648865232543 0  0.8781542025773631 0.2492906939269568 0  0.9409388114125073 0.2493641474162282 0  1.003660720139786 0.2494826803686722 0  0 0.3125 0  0.06265645913474951 0.3124397685201503 0  0.1253177265584233 0.3123779674799307 0  0.1879886607906962 0.3123130662271073 0  0.2506741513326557 0.3122436461322301 0  0.3133790919392188 0.3121684994269865 0  0.3761082970214259 0.3120867860701195 0  0.4388663363966292 0.3119982774763566 0  0.5016572593656432 0.3119037228652415 0  0.5644841739920085 0.3118053791256131 0  0.6273486388602207 0.3117077419989119 0  0.6902498049212855 0.3116184910402031 0  0.7531832016955471 0.3115495857943315 0  0.8161389972011711 0.3115182800632244 0  0.8790995815603101 0.3115475014811314 0  0.9420368810455776 0.311664581130825 0  1.004911977031967 0.3118969096536413 0  0 0.375 0  0.06267738127935278 0.3749309377061051 0  0.1253605865504271 0.3748598397151651 0  0.188055548540948 0.3747846829281041 0  0.2507683510875789 0.3747035029518561 0  0.3135052677896343 0.3746144694927367 0  0.3762727482487294 0.3745160278547565 0  0.4390773255097351 0.3744071466589201 0  0.5019254104515465 0.374287729987633 0  0.5648229281348854 0.3741592768628428 0  0.6277747345624527 0.3740259005564834 0  0.6907837233663979 0.3738958458429495 0  0.7538494821823253 0.3737836378169048 0  0.8169662955045506 0.3737129002096763 0  0.8801202987518802 0.3737195782515537 0  0.9432859438720496 0.3738546273478633 0  1.006423134930137 0.3741840522072646 0  0 0.4375 0  0.06269249147534882 0.4374241444940508 0  0.1253917469837043 0.4373457652027047 0  0.1881047116163071 0.4372623085607898 0  0.2508386397843 0.4371711885034018 0  0.3136012263391805 0.4370698108231214 0  0.3764007009913625 0.4369556601043908 0  0.4392458646295255 0.4368264952349863 0  0.5021460388860157 0.4366807285296635 0  0.5651108925791527 0.4365181101367971 0  0.6281501008594805 0.4363409110369278 0  0.6912727827486372 0.436155899802418 0  0.7544866414127385 0.4359775305917233 0  0.817796680075992 0.4358328437579085 0  0.881203262549151 0.435768450641437 0  0.9446991391294933 0.4358592731152 0  1.00826500009599 0.4362170515396671 0  0 0.5 0  0.06270083375744878 0.4999198744618454 0  0.1254092173977188 0.4998367594517921 0  0.1881329620762503 0.4997475797085225 0  0.250880373312851 0.4996491025850039 0  0.3136604965387232 0.4995378831906658 0  0.376483354069595 0.4994102518918411 0  0.4393601648895207 0.4992623851688447 0  0.5023035373905693 0.4990905356540716 0  0.5653276321861248 0.4988915597037127 0  0.6284483182847563 0.4986639912730473 0  0.6916834063076127 0.4984101003242047 0  0.7550531441799593 0.4981396797346527 0  0.818581263090683 0.4978767322689444 0  0.8822967907383366 0.4976706169932453 0  0.9462362166133714 0.4976129167681154 0  1.010444104895487 0.4978588775942995 0  0 0.5625 0  0.06270159956575633 0.5624185892596737 0  0.1254112889449875 0.5623338049100353 0  0.1881374986369436 0.5622421242778473 0  0.2508893463204521 0.5621397222738591 0  0.313677008052279 0.5620223158138573 0  0.3765121197802309 0.5618850121563329 0  0.4394082196187756 0.5617221823966588 0  0.5023812496309423 0.5615274113608504 0  0.5654501660914651 0.5612936360804255 0  0.6286377916531166 0.5610137083126906 0  0.6919722425804868 0.560681864986063 0  0.7554896666393373 0.5602970831353162 0  0.8192396761414918 0.5598702234859615 0  0.8832955023699057 0.5594383699524296 0  0.9477704723565746 0.5590912285829714 0  1.012838877911151 0.5590126508444893 0  0 0.625 0  0.06269422582479213 0.6249206679589562 0  0.1253967397045652 0.6248377269531041 0  0.1881162379806393 0.6247473585781964 0  0.2508622783753828 0.624645299842967 0  0.3136457719669726 0.624526580618553 0  0.376479550931397 0.6243852127920462 0  0.4393790442787553 0.6242138184334851 0  0.5023631100963035 0.6240031957854969 0  0.5654551224971154 0.6237418543960243 0  0.6286845540447502 0.6234156351165644 0  0.6920896716157692 0.6230077439587733 0  0.7557228679317447 0.6225000662891692 0  0.8196620425228116 0.6218779722610589 0  0.8840345633268775 0.621143997410541 0  0.9490630396737796 0.6203517005666125 0  1.015138524953315 0.6196736036692259 0  0 0.6875 0  0.06267849788254849 0.6874263406663723 0  0.1253650535142709 0.6873490503517927 0  0.1880681762764429 0.6872642436904993 0  0.2507973608289288 0.6871674808537859 0  0.3135636747371708 0.6870534141831406 0  0.3763804681257073 0.6869153317352188 0  0.4392642588743379 0.6867445440460935 0  0.5022358646829442 0.6865295427482108 0  0.565321901219747 0.6862548388999121 0  0.6285569138857491 0.6858993750144092 0  0.691986874742988 0.6854344386434991 0  0.7556761567608404 0.6848212458333606 0  0.8197238718793771 0.6840094236409685 0  0.8843044034734506 0.6829418187744423 0  0.9497621619733717 0.6815860562313786 0  1.016796935211695 0.6800447052778442 0  0 0.75 0  0.06265464167626278 0.7499356250192546 0  0.1253166201262482 0.7498678589439769 0  0.1879937303151278 0.7497930389952155 0  0.2506947926854724 0.7497068999178244 0  0.3134302885114619 0.7496041707094073 0  0.3762131571922424 0.7494780265741093 0  0.4390598291348062 0.7493193070987207 0  0.5019915825934511 0.7491153645551625 0  0.5650363334025774 0.7488483274735829 0  0.6282310255559506 0.7484924303061185 0  0.6916250542670618 0.7480098242259421 0  0.7552863176196436 0.7473438721830994 0  0.8193161630776827 0.7464083497405274 0  0.8838964000612508 0.7450714008794906 0  0.9494432567762662 0.7431454434653328 0  1.01699407747936 0.740514852922864 0  0 0.8125 0  0.062623386835362 0.8124482786241901 0  0.1252528780852926 0.8123936874676737 0  0.1878949955240778 0.8123331039639944 0  0.2505572133806823 0.8122628383954353 0  0.3132485702277143 0.812178241468235 0  0.3759804658035053 0.8120731534952375 0  0.4387677348308623 0.8119390901410386 0  0.501630107886003 0.8117639961217538 0  0.5645941664941323 0.8115302868887553 0  0.6276958280446001 0.8112116968054905 0  0.690983176250595 0.8107680613445263 0  0.754519132723 0.8101363112384443 0  0.8183844662900759 0.8092138448676126 0  0.8826942925008322 0.8078246571423029 0  0.9477295167327481 0.8056428815179151 0  1.014891468524537 0.8020197807255325 0  0 0.875 0  0.0625859829440583 0.8749637801847439 0  0.1251763615071553 0.8749254746086448 0  0.1877758547665168 0.874882801728414 0  0.2503899305688153 0.8748330373396486 0  0.3130253034724843 0.8747727014387092 0  0.3756906074743916 0.8746971094196692 0  0.438397343105666 0.8745996937630942 0  0.5011612317679937 0.8744709424368433 0  0.5640041267358874 0.8742966959996178 0  0.6269565414296193 0.8740553642979999 0  0.6900603627472696 0.8737133006051042 0  0.7533694857654435 0.87321692163534 0  0.8169401969145497 0.8724783936440564 0  0.8807861021779795 0.8713447620600238 0  0.9447348053807393 0.8695074730346937 0  1.008161297961648 0.8661343755414085 0  0 0.9375 0  0.06254415585443873 0.9374813482952559 0  0.1250906201422601 0.9374615984224621 0  0.1876418807737913 0.9374395452791526 0  0.2502008450374613 0.937413740892719 0  0.3127711270914579 0.9373823203074677 0  0.3753574495877127 0.9373427488450886 0  0.43796623379495 0.9372914347935493 
[...]
<PointData  Vectors="f_95-0"> 
<DataArray  type="Float64"  Name="f_95-0"  NumberOfComponents="3" format="ascii">0.0000000000000000e+00 0.0000000000000000e+00 0.0000000000000000e+00  7.1083221515339532e-04 -2.9434548926318808e-02 0.0000000000000000e+00  1.9971736357245317e-03 -5.5589902031507828e-02 0.0000000000000000e+00  3.5591724724266687e-03 -7.5210152118297929e-02 0.0000000000000000e+00  5.3757756782102182e-03 -8.7775348400045111e-02 0.0000000000000000e+00  7.3771484737083833e-03 -9.3939256081596631e-02 0.0000000000000000e+00  9.4984867112532078e-03 -9.4855227538697490e-02 0.0000000000000000e+00  1.1674384984103467e-02 -9.1765389087791013e-02 0.0000000000000000e+00  1.3838375946664618e-02 -8.5783733497598394e-02 0.0000000000000000e+00  1.5920597415530292e-02 -7.7806643877668419e-02 0.0000000000000000e+00  1.7844388402533096e-02 -6.8502870714066050e-02 0.0000000000000000e+00  1.9521538323560829e-02 -5.8346016449755296e-02 0.0000000000000000e+00  2.0848339634981543e-02 -4.7665591950605581e-02 0.0000000000000000e+00  2.1674177647889703e-02 -3.6679610659396178e-02 0.0000000000000000e+00  2.1818985836335639e-02 -2.5594983344640786e-02 0.0000000000000000e+00  2.1572977814937670e-02 -1.4357602953957044e-02 0.0000000000000000e+00  1.0174951458526061e-02 -9.2002388514379578e-03 0.0000000000000000e+00  0.0000000000000000e+00 0.0000000000000000e+00 0.0000000000000000e+00  6.1359944121295543e-04 -3.0568822841223454e-02 0.0000000000000000e+00  1.9552522073127722e-03 -5.7087304557505499e-02 0.0000000000000000e+00  3.6690494472125111e-03 -7.6995826504614881e-02 0.0000000000000000e+00  5.6771199586268173e-03 -8.9776847648156549e-02 0.0000000000000000e+00  7.8927614305847518e-03 -9.6087011653798987e-02 0.0000000000000000e+00  1.0244704104026069e-02 -9.7080491774849148e-02 0.0000000000000000e+00  1.2661065227465514e-02 -9.4000218858574583e-02 0.0000000000000000e+00  1.5070098998344753e-02 -8.7958808505360683e-02 0.0000000000000000e+00  1.7396825392068438e-02 -7.9848130850058527e-02 0.0000000000000000e+00  1.9559929461360540e-02 -7.0328862994678110e-02 0.0000000000000000e+00  2.1468991243453833e-02 -5.9862173567546563e-02 0.0000000000000000e+00  2.3019515763525462e-02 -4.8755424684554564e-02 0.0000000000000000e+00  2.4087537180619189e-02 -3.7205009606150322e-02 0.0000000000000000e+00  2.4573210959433486e-02 -2.5322232832835950e-02 0.0000000000000000e+00  2.3894826116880062e-02 -1.3003714598229419e-02 0.0000000000000000e+00  2.4288381074104283e-02 -2.1354096419344904e-03 0.0000000000000000e+00  0.0000000000000000e+00 0.0000000000000000e+00 0.0000000000000000e+00  5.7298750482029457e-04 -3.1655189941518135e-02 0.0000000000000000e+00  2.0594465438944520e-03 -5.8784249733496177e-02 0.0000000000000000e+00  4.1403831608277349e-03 -7.9095700856195092e-02 0.0000000000000000e+00  6.6419076573845520e-03 -9.2162067475852621e-02 0.0000000000000000e+00  9.4332049909627985e-03 -9.8662612014376427e-02 0.0000000000000000e+00  1.2415192827576414e-02 -9.9761182351277955e-02 0.0000000000000000e+00  1.5496446517664591e-02 -9.6705585590749682e-02 0.0000000000000000e+00  1.8589009310796253e-02 -9.0608410194382677e-02 0.0000000000000000e+00  2.1602173661437025e-02 -8.2357606358226032e-02 0.0000000000000000e+00  2.4439960790512312e-02 -7.2607429459208783e-02 0.0000000000000000e+00  2.7001048866541554e-02 -6.1811571739188088e-02 0.0000000000000000e+00  2.9182795671157228e-02 -5.0271444239792032e-02 0.0000000000000000e+00  3.0895384407848985e-02 -3.8183712443435713e-02 0.0000000000000000e+00  3.2065347933718756e-02 -2.5676218385469417e-02 0.0000000000000000e+00  3.2892374240109039e-02 -1.2959419912964523e-02 0.0000000000000000e+00  3.3194228813946958e-02 -8.6437298660039402e-04 0.0000000000000000e+00  0.0000000000000000e+00 0.0000000000000000e+00 0.0000000000000000e+00  6.4807997977570618e-04 -3.2825971594189506e-02 0.0000000000000000e+00  2.4186925960071421e-03 -6.0819123980262658e-02 0.0000000000000000e+00  5.0294293167592926e-03 -8.1731463333298088e-02 0.0000000000000000e+00  8.2432827826687417e-03 -9.5215292853672903e-02 0.0000000000000000e+00  1.1881358017684765e-02 -1.0199569539382138e-01 0.0000000000000000e+00  1.5805421636729485e-02 -1.0326100067751630e-01 0.0000000000000000e+00  1.9895268402699784e-02 -1.0026916894975502e-01 0.0000000000000000e+00  2.4036464618217793e-02 -9.4133669596030506e-02 0.0000000000000000e+00  2.8111271151309167e-02 -8.5738226314447247e-02 0.0000000000000000e+00  3.1996170414586800e-02 -7.5731893075620713e-02 0.0000000000000000e+00  3.5564772145173097e-02 -6.4566988784881901e-02 0.0000000000000000e+00  3.8697730070114046e-02 -5.2554084053566187e-02 0.0000000000000000e+00  4.1298753677505511e-02 -3.9919640183922536e-02 0.0000000000000000e+00  4.3333931760330326e-02 -2.6872927189718520e-02 0.0000000000000000e+00  4.4789841011987512e-02 -1.3670306153861040e-02 0.0000000000000000e+00  4.5598275985586550e-02 -7.5278291256160312e-04 0.0000000000000000e+00  0.0000000000000000e+00 0.0000000000000000e+00 0.0000000000000000e+00  7.9016015345770622e-04 -3.4226311660505354e-02 0.0000000000000000e+00  2.9738547803808643e-03 -6.3334451619267651e-02 0.0000000000000000e+00  6.2483109819790397e-03 -8.5071191248221947e-02 0.0000000000000000e+00  1.0336352503386905e-02 -9.9146578424219547e-02 0.0000000000000000e+00  1.5019692612674560e-02 -1.0633946975233989e-01 0.0000000000000000e+00  2.0124006585433198e-02 -1.0787091099362715e-01 0.0000000000000000e+00  2.5497040188377049e-02 -1.0501181757793314e-01 0.0000000000000000e+00  3.0990293671915872e-02 -9.8875207027035200e-02 0.0000000000000000e+00  3.6447927307846517e-02 -9.0337717972197862e-02 0.0000000000000000e+00  4.1704121478909006e-02 -8.0041550941063494e-02 0.0000000000000000e+00  4.6587887452648094e-02 -6.8439437545955398e-02 0.0000000000000000e+00  5.0935435613376594e-02 -5.5857074936023078e-02 0.0000000000000000e+00  5.4608868635369130e-02 -4.2558118431080184e-02 0.0000000000000000e+00  5.7508926157183934e-02 -2.8800162221386150e-02 0.0000000000000000e+00  5.9562179564399589e-02 -1.4867501560876101e-02 0.0000000000000000e+00  6.0705801330168570e-02 -1.0053505662369244e-03 0.0000000000000000e+00  0.0000000000000000e+00 0.0000000000000000e+00 0.0000000000000000e+00  9.6743471999212829e-04 -3.5938822702882199e-02 0.0000000000000000e+00  3.6370085729891424e-03 -6.6433601869576350e-02 0.0000000000000000e+00  7.6583546968342067e-03 -8.9232185129765523e-02 0.0000000000000000e+00  1.2722363813968391e-02 -1.0410167940963751e-01 0.0000000000000000e+00  1.8583763564200051e-02 -1.1187758238061875e-01 0.0000000000000000e+00  2.5041624057679814e-02 -1.1381475389052939e-01 0.0000000000000000e+00  3.1913002830300019e-02 -1.1119401410156278e-01 0.0000000000000000e+00  3.9010534323671853e-02 -1.0512155771694653e-01 0.0000000000000000e+00  4.6130074140377848e-02 -9.6459655762343430e-02 0.0000000000000000e+00  5.3048425667163987e-02 -8.5837484206804204e-02 0.0000000000000000e+00  5.9529840178248271e-02 -7.3704226567108094e-02 0.0000000000000000e+00  6.5341211760638354e-02 -6.0398837019797917e-02 0.0000000000000000e+00  7.0272098112737519e-02 -4.6218835051585479e-02 0.0000000000000000e+00  7.4160604119944365e-02 -3.1470666656087949e-02 0.0000000000000000e+00  7.6908110758157566e-02 -1.6471102380630539e-02 0.0000000000000000e+00  7.8505344964334728e-02 -1.5243915131247627e-03 0.0000000000000000e+00  0.0000000000000000e+00 0.0000000000000000e+00 0.0000000000000000e+00  1.1523434456243273e-03 -3.8000575367916831e-02 0.0000000000000000e+00  4.3213020899517162e-03 -7.0162922620017984e-02 0.0000000000000000e+00  9.1058893261546786e-03 -9.4269909262823817e-02 0.0000000000000000e+00  1.5177388288981833e-02 -1.1015992880341520e-01 0.0000000000000000e+00  2.2280179773173897e-02 -1.1872711341782936e-01 0.0000000000000000e+00  3.0199031241932774e-02 -1.2125440301375384e-01 0.0000000000000000e+00  3.8724574179611733e-02 -1.1902179346976897e-01 0.0000000000000000e+00  4.7627620404298757e-02 -1.1311585316339599e-01 0.0000000000000000e+00  5.6646757750946006e-02 -1.0437207513475773e-01 0.0000000000000000e+00  6.5487806425388359e-02 -9.3395781650773155e-02 0.0000000000000000e+00  7.3832583482205658e-02 -8.0623623641404990e-02 0.0000000000000000e+00  8.1356992452115431e-02 -6.6401818818965633e-02 0.0000000000000000e+00  8.7757281036111717e-02 -5.1064199121180501e-02 0.0000000000000000e+00  9.2798935848779865e-02 -3.4988407490178910e-02 0.0000000000000000e+00  9.6360739357093564e-02 -1.8603819794505948e-02 0.0000000000000000e+00  9.8537966313692590e-02 -2.3364064507540735e-03 0.0000000000000000e+00  0.0000000000000000e+00 0.0000000000000000e+00 0.0000000000000000e+00  1.3193525033034627e-03 -4.0399687497909662e-02 0.0000000000000000e+00  4.9397453732765457e-03 -7.4499237096679896e-02 0.0000000000000000e+00  1.0426252673725451e-02 -1.0016435753900947e-01 0.0000000000000000e+00  1.7454413161463886e-02 -1.1732468098904791e-01 0.0000000000000000e+00  2.5780458463006403e-02 -1.2693196946258967e-01 0.0000000000000000e+00  3.5189560774216852e-02 -1.3028365946182463e-01 0.0000000000000000e+00  4.5451674386424348e-02 -1.2863984050577695e-01 0.0000000000000000e+00  5.6293872717729315e-02 -1.2304804603490933e-01 0.0000000000000000e+00  6.7390309818457284e-02 -1.1429983571915162e-01 0.0000000000000000e+00  7.8365504821905893e-02 -1.0296194938101917e-01 0.0000000000000000e+00  8.8805369300148609e-02 -8.9445817362224456e-02 0.0000000000000000e+00  9.8276737494768548e-02 -7.4095597065020266e-02 0.0000000000000000e+00  1.0635808217622593e-01 -5.7281222204360313e-02 0.0000000000000000e+00  1.1271003467219404e-01 -3.9480134365991244e-02 0.0000000000000000e+00  1.1715349550007856e-01 -2.1314847589862639e-02 0.0000000000000000e+00  1.1990526614246029e-01 -3.4428272936118062e-03 0.0000000000000000e+00  0.0000000000000000e+00 0.0000000000000000e+00 0.0000000000000000e+00  1.4418839306950583e-03 -4.3076158892257375e-02 0.0000000000000000e+00  5.3994575964241929e-03 -7.9344121934610629e-02 0.0000000000000000e+00  1.1439138680156268e-02 -1.0680866722614336e-01 0.0000000000000000e+00  1.9276727221582895e-02 -1.2550930188070092e-01 0.0000000000000000e+00  2.8707867096456036e-02 -1.3644651017394110e-01 0.0000000000000000e+00  3.9534421607256003e-02 -1.4090845750350575e-01 0.0000000000000000e+00  5.1511650057541124e-02 -1.4010740241151548e-01 0.0000000000000000e+00  6.4321734413554696e-02 -1.3502648576437806e-01 0.0000000000000000e+00  7.7570025459322900e-02 -1.2639304427082576e-01 0.0000000000000000e+00  9.0794443124182736e-02 -1.1471942223289090e-01 0.0000000000000000e+00  1.0347915633386681e-01 -1.0037719742274416e-01 0.0000000000000000e+00  1.1507263366469395e-01 -8.3689833900267352e-02 0.0000000000000000e+00  1.2501025118224113e-01 -6.5046205929240361e-02 0.0000000000000000e+00  1.3278907445963833e-01 -4.5035922193456375e-02 0.0000000000000000e+00  1.3808357666554788e-01 -2.4557566074291427e-02 0.0000000000000000e+00  1.4116436521089912e-01 -4.6513446912392394e-03 0.0000000000000000e+00  0.0000000000000000e+00 0.0000000000000000e+00 0.0000000000000000e+00  1.4914090856155931e-03 -4.5918465108562907e-02 0.0000000000000000e+00  5.6013083245506799e-03 -8.4516724081444880e-02 0.0000000000000000e+00  1.1950498963042585e-02 -1.1399761833654652e-01 0.0000000000000000e+00  2.0340352566611489e-02 -1.3452004340054072e-01 0.0000000000000000e+00  3.0635907215762599e-02 -1.4711100891089293e-01 0.0000000000000000e+00  4.2671204099757047e-02 -1.5301342185011876e-01 0.0000000000000000e+00  5.6191865740901653e-02 -1.5335527927683373e-01 0.0000000000000000e+00  7.0835113913772313e-02 -1.4902586649730645e-01 0.0000000000000000e+00  8.6136832775119160e-02 -1.4066814843501030e-01 0.0000000000000000e+00  1.0155038428434415e-01 -1.2872670661300331e-01 0.0000000000000000e+00  1.1646707631490526e-01 -1.1351773737575896e-01 0.0000000000000000e+00  1.3022459257810415e-01 -9.5318334447653766e-02 0.0000000000000000e+00  1.4210107300402777e-01 -7.4500733700378713e-02 0.0000000000000000e+00  1.5136480921195472e-01 -5.1723871458929593e-02 0.0000000000000000e+00  1.5738899262893502e-01 -2.8173175793223319e-02 0.0000000000000000e+00  1.6023946017700821e-01 -5.4364109220740326e-03 0.0000000000000000e+00  0.0000000000000000e+00 0.0000000000000000e+00 0.0000000000000000e+00  1.4403284814933988e-03 -4.8762338851391036e-02 0.0000000000000000e+00  5.4504255173032931e-03 -8.9752248002549079e-02 0.0000000000000000e+00  1.1772505098586282e-02 -1.2142153658525599e-01 0.0000000000000000e+00  2.0340989916978084e-02 -1.4404025578354754e-01 0.0000000000000000e+00  3.1116593399811061e-02 -1.5862236502402979e-01 0.0000000000000000e+00  4.3976756777898043e-02 -1.6631719352291960e-01 0.0000000000000000e+00  5.8660992764258152e-02 -1.6812579160489330e-01 0.0000000000000000e+00  7.4763633371267124e-02 -1.6481327232657145e-01 0.0000000000000000e+00  9.1755748818920152e-02 -1.5692138941465494e-01 0.0000000000000000e+00  1.0901893519775703e-01 -1.4481966396320906e-01 0.0000000000000000e+00  1.2587590484152220e-01 -1.2876462193612143e-01 0.0000000000000000e+00  1.4158351923228582e-01 -1.0897047004473924e-01 0.0000000000000000e+00  1.5530661175063695e-01 -8.5711264152933966e-02 0.0000000000000000e+00  1.6605683127534357e-01 -5.9547956212042348e-02 0.0000000000000000e+00  1.7267087310732609e-01 -3.1854605515269738e-02 0.0000000000000000e+00  1.7448840749720929e-01 -4.9154737307453202e-03 0.0000000000000000e+00  0.0000000000000000e+00 0.0000000000000000e+00 0.0000000000000000e+00  1.2700964645717880e-03 -5.1399539386919192e-02 0.0000000000000000e+00  4.8826855309306479e-03 -9.4715081406979609e-02 0.0000000000000000e+00  1.0770309151788542e-02 -1.2867375892995947e-01 0.0000000000000000e+00  1.9036929450346244e-02 -1.5362308296426611e-01 0.0000000000000000e+00  2.9752958706387649e-02 -1.7050656190203528e-01 0.0000000000000000e+00  4.2842936892222988e-02 -1.8032315105188781e-01 0.0000000000000000e+00  5.8043190580691122e-02 -1.8390329795902008e-01 0.0000000000000000e+00  7.4912538378134511e-02 -1.8186100977524047e-01 0.0000000000000000e+00  9.2871148509412541e-02 -1.7462555942606928e-01 0.0000000000000000e+00  1.1125077632535872e-01 -1.6249489357863819e-01 0.0000000000000000e+00  1.2933499420811134e-01 -1.4568080349806878e-01 0.0000000000000000e+00  1.4637029068247651e-01 -1.2432614132562420e-01 0.0000000000000000e+00  1.6153597911130607e-01 -9.8522675906546703e-02 0.0000000000000000e+00  1.7361770025418269e-01 -6.8562009063163454e-02 0.0000000000000000e+00  1.8082740968024216e-01 -3.5628390634697971e-02 0.0000000000000000e+00  1.8102217090780878e-01 -2.1241844340885115e-03 0.0000000000000000e+00  0.0000000000000000e+00 0.0000000000000000e+00 0.0000000000000000e+00  9.8604664488280338e-04 -5.3606670990360768e-02 0.0000000000000000e+00  3.9095387710575509e-03 -9.9038323441951306e-02 0.0000000000000000e+00  8.9372645548571380e-03 -1.3528176800095332e-01 0.0000000000000000e+00  1.6349425504621696e-02 -1.6270171113330587e-01 0.0000000000000000e+00  2.6319503842520704e-02 -1.8210278059935564e-01 0.0000000000000000e+00  3.8814297555519753e-02 -1.9427775425310423e-01 0.0000000000000000e+00  5.3572934131064426e-02 -1.9985070134529639e-01 0.0000000000000000e+00  7.0137848371643677e-02 -1.9926644048265491e-01 0.0000000000000000e+00  8.7906869047072192e-02 -1.9283689149717878e-01 0.0000000000000000e+00  1.0619038215595371e-01 -1.8079675712154722e-01 0.0000000000000000e+00  1.2426469460151905e-01 -1.6333699601692078e-01 0.0000000000000000e+00  1.4143891256158186e-01 -1.4058311090350811e-01 0.0000000000000000e+00  1.5700885104919934e-01 -1.1252557069491197e-01 0.0000000000000000e+00  1.6989101305193482e-01 -7.8894356572121280e-02 0.0000000000000000e+00  1.7812752031688081e-01 -3.9502016225278005e-02 0.0000000000000000e+00  1.7725100981931047e-01 3.1876886199020613e-03 0.0000000000000000e+00  0.0000000000000000e+00 0.0000000000000000e+00 0.0000000000000000e+00  6.3805528834107584e-04 -5.5203963848812126e-02 0.0000000000000000e+00  2.6733581019445433e-03 -1.0239797074579360e-01 0.0000000000000000e+00  6.4821238647814012e-03 -1.4076818705638280e-01 0.0000000000000000e+00  1.2479372441852769e-02 -1.7062608445416130e-01 0.0000000000000000e+00  2.0911475648761703e-02 -1.9257378853791676e-01 0.0000000000000000e+00  3.1776749639624666e-02 -2.0715771330621074e-01 0.0000000000000000e+00  4.4831940401969798e-02 -2.1477969758839913e-01 0.0000000000000000e+00  5.9641450221051627e-02 -2.1571338629662107e-01 0.0000000000000000e+00  7.5631994317265985e-02 -2.1015428511449688e-01 0.0000000000000000e+00  9.2140292826249887e-02 -1.9827313837439151e-01 0.0000000000000000e+00  1.0846451710891598e-01 -1.8025424068332926e-01 0.0000000000000000e+00  1.2394027976062964e-01 -1.5629241168730343e-01 0.0000000000000000e+00  1.3799420568364057e-01 -1.2641788839338008e-01 0.0000000000000000e+00  1.5038602913413385e-01 -8.9825331239147030e-02 0.0000000000000000e+00  1.5985141745785608e-01 -4.4321124555067530e-02 0.0000000000000000e+00  1.5800322979766049e-01 1.0180454676946012e-02 0.0000000000000000e+00  0.0000000000000000e+00 0.0000000000000000e+00 0.0000000000000000e+00  3.3471064075619403e-04 -5.6149615135968986e-02 0.0000000000000000e+00  1.4770802572793096e-03 -1.0461127186644839e-01 0.0000000000000000e+00  3.8698523549488967e-03 -1.4473539339826533e-01 0.0000000000000000e+00  7.9761350023724777e-03 -1.7673324522570877e-01 0.0000000000000000e+00  1.4065124379298627e-02 -2.0096356272528670e-01 0.0000000000000000e+00  2.2153177396974495e-02 -2.1771908460535913e-01 0.0000000000000000e+00  3.2041973386848860e-02 -2.2719649697554056e-01 0.0000000000000000e+00  4.3377886107595562e-02 -2.2952063372086354e-01 0.0000000000000000e+00  5.5696813451634977e-02 -2.2478160223849755e-01 0.0000000000000000e+00  6.8447884008807761e-02 -2.1307377674941749e-01 0.0000000000000000e+00  8.1002060924449143e-02 -1.9453805649121556e-01 0.0000000000000000e+00  9.2659218151884243e-02 -1.6940069397300955e-01 0.0000000000000000e+00  1.0280076697375301e-01 -1.3793697871999044e-01 0.0000000000000000e+00  1.1142746020026478e-01 -1.0015891282994792e-01 0.0000000000000000e+00  1.1899454045046663e-01 -5.3487676906606774e-02 0.0000000000000000e+00  1.2457306186297756e-01 1.1870515376842125e-02 0.0000000000000000e+00  0.0000000000000000e+00 0.0000000000000000e+00 0.0000000000000000e+00  2.0453687552737026e-04 -5.6595334842307277e-02 0.0000000000000000e+00  6.6210838454434495e-04 -1.0570119726535222e-01 0.0000000000000000e+00  1.6737953491450020e-03 -1.4696319123269064e-01 0.0000000000000000e+00  3.6299185996431144e-03 -1.8047021515340095e-01 0.0000000000000000e+00  6.7393564366349662e-03 -2.0634254477606154e-01 0.0000000000000000e+00  1.1018498170405870e-02 -2.2466653299401415e-01 0.0000000000000000e+00  1.6350712689109807e-02 -2.3549301065430586e-01 0.0000000000000000e+00  2.2534408877267421e-02 -2.3884956263679374e-01 0.0000000000000000e+00  2.9308840057044736e-02 -2.3475364533412971e-01 0.0000000000000000e+00  3.6355792473008755e-02 -2.2322600852494523e-01 0.0000000000000000e+00  4.3270381965506900e-02 -2.0430901629575593e-01 0.0000000000000000e+00  4.9504618695606795e-02 -1.7809276050130302e-01 0.0000000000000000e+00  5.4282239304442814e-02 -1.4479000725973803e-01 0.0000000000000000e+00  5.6399051147855837e-02 -1.0477170083292053e-01 0.0000000000000000e+00  5.5743273323299460e-02 -5.7870419082268358e-02 0.0000000000000000e+00  5.1285626304378128e-02 4.6550795396541195e-03 0.0000000000000000e+00  0.0000000000000000e+00 -6.8385376634302871e-18 0.0000000000000000e+00  0.0000000000000000e+00 -5.6752919597380699e-02 0.0000000000000000e+00  0.0000000000000000e+00 -1.0593878324844398e-01 0.0000000000000000e+00  0.0000000000000000e+00 -1.4755759095318985e-01 0.0000000000000000e+00  0.0000000000000000e+00 -1.8160934271161827e-01 0.0000000000000000e+00  0.0000000000000000e+00 -2.0809403852372929e-01 0.0000000000000000e+00  0.0000000000000000e+00 -2.2701167838952280e-01 0.0000000000000000e+00  0.0000000000000000e+00 -2.3836226230899898e-01 0.0000000000000000e+00  0.0000000000000000e+00 -2.42