<?xml version="1.0"?>
<VTKFile type="UnstructuredGrid"  version="0.1"  >
<UnstructuredGrid>
<Piece  NumberOfPoints="289" NumberOfCells="512">
<Points>
<DataArray  type="Float64"  NumberOfComponents="3"  format="ascii">0 0 0  0.0625 0 0  0.125 0 0  0.1875 0 0  0.25 0 0  0.3125 0 0  0.375 0 0  0.4375 0 0  0.5 0 0  0.5625 0 0  0.625 0 0  0.6875 0 0  0.75 0 0  0.8125 0 0  0.875 0 0  0.9375 0 0  1 0 0  0 0.0625 0  0.06258200863560535 0.0624753710224837 0  0.1251672709453227 0.06245025297158405 0  0.1877592142996922 0.06242418140299931 0  0.2503615645404382 0.06239676492225804 0  0.3129785255696125 0.06236773261665017 0  0.3756150027967929 0.06233699314540686 0  0.4382769087959792 0.06230470473616256 0  0.5009716306292661 0.0622713480681335 0  0.5637088378706244 0.06223777927537979 0  0.6265020632025092 0.06220521017036397 0  0.6893721661541343 0.0621749969161956 0  0.7523557267505179 0.06214795359344335 0  0.8155272930050211 0.06212241779147668 0  0.8790633677728611 0.06208860101194638 0  0.9434416160800838 0.06201018336107465 0  1.010127011165872 0.06175587951176654 0  0 0.125 0  0.0626607962064141 0.1249512062171482 0  0.1253279903518972 0.1249013961316104 0  0.1880083233089472 0.124849598664176 0  0.2507091320790999 0.1247949797806897 0  0.3134387068504172 0.1247369348469365 0  0.3762067295138864 0.1246752081162718 0  0.4390248553238145 0.1246100418325172 0  0.5019075532307671 0.1245423464921605 0  0.5648734375156028 0.1244738619352519 0  0.6279475793553098 0.1244072385431885 0  0.6911658381533473 0.1243459003459405 0  0.7545833665804709 0.124293462924629 0  0.8182912799076558 0.1242524753462822 0  0.8824462551985229 0.1242229878012868 0  0.9473036922681227 0.1242062700804941 0  1.01314061141295 0.1242440772867496 0  0 0.1875 0  0.06273321711175855 0.1874280427372663 0  0.1254757246390934 0.1873544740265721 0  0.1882373068748939 0.1872777397184596 0  0.2510286190001002 0.1871964670117712 0  0.3138617031884094 0.1871095945374124 0  0.3767506092670313 0.1870165505440931 0  0.4397121825021668 0.1869174911961144 0  0.5027671150212416 0.1868136015180546 0  0.5659414144657015 0.1867074402371921 0  0.6292685265671509 0.1866032677983791 0  0.6927924151809277 0.1865072219469177 0  0.7565717108739738 0.18642708165871 0  0.8206836296528832 0.1863711524198582 0  0.8852206676314621 0.1863453085908114 0  0.9502554933836198 0.1863450707747112 0  1.01571174724412 0.1863276275691859 0  0 0.25 0  0.06279639365958402 0.2499064841801549 0  0.1256045860281657 0.2498106743460887 0  0.1884369911805479 0.2497103320822078 0  0.2513071292115188 0.2496034120290201 0  0.3142302757627173 0.2494882146633837 0  0.3772242301999466 0.2493636122810989 0  0.4403102561119953 0.2492293763144198 0  0.5035142526971947 0.2490866321934056 0  0.5668682010238099 0.2489384564694906 0  0.6304118478165004 0.2487905994154832 0  0.6941943121176626 0.248652247277504 0  0.758274499491842 0.2485366034428222 0  0.8227171537177982 0.2484608213878927 0  0.8875768445138231 0.2484444023436104 0  0.9528548504172619 0.2485046699336799 0  1.018411917457499 0.2486492414416524 0  0 0.3125 0  0.06284783936191128 0.3123872187443614 0  0.1257094872579305 0.3122713704189263 0  0.1885994513848893 0.3121494225885622 0  0.251533528395792 0.3120185009261164 0  0.3145295591374805 0.31187603891073 0  0.3776083188119799 0.3117200249970656 0  0.4407945955062458 0.3115493960033304 0  0.5041185018585497 0.3113646374536385 0  0.5676170180437353 0.3111686607847299 0  0.6313356209214478 0.3109680232489067 0  0.6953294917471401 0.3107745168038309 0  0.7596629935668362 0.3106070348490199 0  0.8244045898327107 0.3104933614309013 0  0.8896122036354245 0.3104710424767376 0  0.9553031641280531 0.3105858385625441 0  1.021410836194375 0.3108858345438233 0  0 0.375 0  0.06288556279412295 0.3748710209275424 0  0.1257863556854008 0.3747381309533373 0  0.1887183479470282 0.3745974091621013 0  0.2516989163817444 0.3744449989858228 0  0.3147476742683271 0.3742772172776753 0  0.377887459611293 0.3740907759595003 0  0.4411455553432249 0.3738831851572246 0  0.5045552196975347 0.3736534377636246 0  0.5681575846194368 0.3734031163433826 0  0.6320038887647702 0.3731381082376579 0  0.6961577637237116 0.3728711412024572 0  0.7606967632364421 0.3726253005021589 0  0.8257114481614579 0.3724384331309165 0  0.8912994902267475 0.3723676853999722 0  0.9575532076847225 0.3724921976676549 0  1.024546013904537 0.372910420807306 0  0 0.4375 0  0.06290814888131598 0.4373587306964127 0  0.1258323015352154 0.437212683425973 0  0.1887891929726092 0.4370570004317853 0  0.251797006418309 0.4368867301962633 0  0.3148762330742803 0.4366968491368203 0  0.3780507177836322 0.4364823914880421 0  0.441348998846734 0.4362387681805758 0  0.5048060969790619 0.435962406765725 0  0.5684659697011826 0.4356519247164851 0  0.6323849098828218 0.4353101652888162 0  0.6966361891022197 0.4349475718795325 0  0.7613161432044765 0.4345874960313048 0  0.8265515752239493 0.4342739368850346 0  0.892507947869129 0.4340814619289901 0  0.9593984925336116 0.4341250318891715 0  1.027499687461045 0.4345641281259267 0  0 0.5 0  0.062914814618418 0.499851205453322 0  0.1258457347032517 0.4996968196453675 0  0.1888095401820853 0.4995310802067309 0  0.2518244102091159 0.4993479150104427 0  0.3149107553994553 0.499140827909042 0  0.3780922474095121 0.4989028593963341 0  0.4413971891823366 0.4986266970170167 0  0.5048604711725242 0.4983050752149383 0  0.568526539720128 0.4979317199425486 0  0.6324541072202482 0.4975032930460103 0  0.6967237982874278 0.4970231164050969 0  0.7614505257106358 0.4965079182899131 0  0.8268029116697377 0.4959992833385348 0  0.8930320543692528 0.4955811729527547 0  0.9605114629265719 0.4954018854599966 0  1.029793505528718 0.4956903505766622 0  0 0.5625 0  0.06290543524382256 0.5623492435541799 0  0.1258264209214083 0.5621922387168089 0  0.1887790813359242 0.562022463208284 0  0.251780798844451 0.5618328337943093 0  0.3148509486063554 0.5616154179699269 0  0.37801180530813 0.5613611544524338 0  0.4412897734214708 0.5610596251905909 0  0.5047172386729109 0.5606989826374227 0  0.5683356373605407 0.5602662614740975 0  0.6322009298551873 0.5597485592379856 0  0.6963937602533664 0.5591360809753533 0  0.7610384173326161 0.5584290207652579 0  0.8263372033269354 0.55765191138917 0  0.8926287182372684 0.5568809475653104 0  0.9604769302442133 0.5562882302098996 0  1.030794188210401 0.5561919669078206 0  0 0.625 0  0.0628805365626668 0.6248534836961258 0  0.1257754660655633 0.6247003344265956 0  0.1886996241561601 0.6245335476493034 0  0.2516688861049128 0.6243453111530451 0  0.3147007377416369 0.624126530334643 0  0.3778149428442655 0.6238662696460631 0  0.4410344147491742 0.6235510932283479 0  0.5043865439960953 0.6231643182976564 0  0.5679055783926755 0.6226852790188127 0  0.6316374504554284 0.6220889170736245 0  0.6956502201225941 0.6213465704604356 0  0.7600569792655711 0.6204302308411094 0  0.8250647932908887 0.6193259600627788 0  0.8910723412458618 0.6180695491789516 0  0.9588411440180522 0.6168266028664466 0  1.02974665681481 0.6160182563186013 0  0 0.6875 0  0.06284125119028733 0.6873642915019285 0  0.1256952216083734 0.687221949732635 0  0.188574932630248 0.6870658980549745 0  0.2514941849150655 0.686888061765387 0  0.3144679261770363 0.6866787339406603 0  0.3775125985736634 0.6864257576168339 0  0.440646470758413 0.6861134310378393 0  0.5038900254957955 0.6857210176160978 0  0.5672667038185824 0.6852207254633317 0  0.6308050116519124 0.6845750598472465 0  0.6945449987868835 0.6837337119722747 0  0.758557481833805 0.6826312227954765 0  0.8229976823853739 0.6811907084174398 0  0.8882431707526068 0.6793536488688177 0  0.9551977086068011 0.677203015572575 0  1.02578795690538 0.6752922562441332 0  0 0.75 0  0.06278924154362182 0.7498816514856437 0  0.1255891164605452 0.7497571372117352 0  0.1884104348627726 0.7496198227189678 0  0.2512645323052525 0.7494619942974067 0  0.3141634425537211 0.7492741371843825 0  0.3771199292141474 0.7490439524098689 0  0.4401472484956287 0.7487549503662757 0  0.5032584333669127 0.7483843726687235 0  0.5664648105294947 0.7479000509249131 0  0.6297735631098081 0.7472555761875099 0  0.6931851585066687 0.7463827821180489 0  0.7566959887157818 0.7451800931066708 0  0.8203284592032009 0.7434957170667287 0  0.8842681842066865 0.7411131809599366 0  0.9493574703228279 0.7378134428031786 0  1.018062246058198 0.7340555229556819 0  0 0.8125 0  0.06272659919781494 0.8124050869946706 0  0.1254614377095919 0.8123049756810846 0  0.1882128408935293 0.8121940346199196 0  0.2509894555213829 0.8120656198851045 0  0.3138002856254909 0.8119113740339675 0  0.3766545164597689 0.8117202375768787 0  0.4395609005298934 0.8114769785519073 0  0.5025262499924072 0.8111599228324439 0  0.5655521213437592 0.8107373462228088 0  0.6286279081283006 0.8101615717985308 0  0.6917171270830652 0.8093589611761239 0  0.7547324344789966 0.8082120308197294 0  0.8175000513956481 0.8065249900746057 0  0.8797602909985683 0.8039517538282297 0  0.9415320037706828 0.7998479740808739 0  1.006402458042913 0.7932133080819631 0  0 0.875 0  0.06265573576222876 0.8749336303453906 0  0.1253170972321247 0.8748634939858558 0  0.1879897460991941 0.8747854905662087 0  0.2506795280345183 0.8746947321543665 0  0.313392454069605 0.874584985507061 0  0.3761344869466843 0.8744478685044227 0  0.4389109060494507 0.8742716274308394 0  0.5017247537530438 0.8740392067478285 0  0.5645732379557683 0.8737251186097952 0  0.6274394713556765 0.8732902513364246 0  0.6902733134395215 0.8726730505310847 0  0.7529463792497244 0.871773868552479 0  0.8151463839392142 0.8704239079610756 0  0.8761375476835027 0.8683066781185308 0  0.9342767188215435 0.8646882100390511 0  0.9863275299470592 0.8573073363917764 0  0 0.9375 0  0.06257928122726307 0.9374658588207833 0  0.1251614232110256 0.9374297393052242 0  0.1877493018918726 0.9373894817748677 0  0.2503458857944214 0.9373424961166094 0  0.3129542245693141 0.9372854530493129 0  0.3755773341395442 0.9372138339470898 0  0.43821785273473 0.937121237
[...]
<PointData  Vectors="f_95-0"> 
<DataArray  type="Float64"  Name="f_95-0"  NumberOfComponents="3" format="ascii">0.0000000000000000e+00 0.0000000000000000e+00 0.0000000000000000e+00  1.2030303862860013e-04 4.2548063545916878e-02 0.0000000000000000e+00  2.9719425325128488e-04 7.0706656390334785e-02 0.0000000000000000e+00  4.6086181077347431e-04 8.6740823074866732e-02 0.0000000000000000e+00  6.2189173158130981e-04 9.3436414678446850e-02 0.0000000000000000e+00  7.8172957220286712e-04 9.3509491958526356e-02 0.0000000000000000e+00  9.3366770457382529e-04 8.9248927616719334e-02 0.0000000000000000e+00  1.0606782772119054e-03 8.2388499960880643e-02 0.0000000000000000e+00  1.1384077421656147e-03 7.4120928193740748e-02 0.0000000000000000e+00  1.1389164152444346e-03 6.5187219253333165e-02 0.0000000000000000e+00  1.0339008177511551e-03 5.5993716313259938e-02 0.0000000000000000e+00  7.9728950264094738e-04 4.6727450200244415e-02 0.0000000000000000e+00  4.0661293077473999e-04 3.7454865241225536e-02 0.0000000000000000e+00  -1.5083673624815178e-04 2.8193033640303872e-02 0.0000000000000000e+00  -8.8209056775602067e-04 1.8972788821322323e-02 0.0000000000000000e+00  -1.8725088287067171e-03 9.8771632408325601e-03 0.0000000000000000e+00  -1.6712497470845349e-03 1.7604958030384308e-03 0.0000000000000000e+00  0.0000000000000000e+00 0.0000000000000000e+00 0.0000000000000000e+00  4.8190789909599615e-05 4.2448635515499406e-02 0.0000000000000000e+00  9.7026234763445191e-05 7.0631192371634594e-02 0.0000000000000000e+00  9.7628331652752104e-05 8.6666045324245364e-02 0.0000000000000000e+00  7.4437793974717236e-05 9.3339782342785199e-02 0.0000000000000000e+00  3.8304779560076551e-05 9.3383483127254308e-02 0.0000000000000000e+00  -1.1769656133733624e-05 8.9102209480668285e-02 0.0000000000000000e+00  -8.9631688281047577e-05 8.2240902350863010e-02 0.0000000000000000e+00  -2.1629924054019053e-04 7.3997272122541993e-02 0.0000000000000000e+00  -4.1530075884939208e-04 6.5111888477971447e-02 0.0000000000000000e+00  -7.0913599684924048e-04 5.5986470371480350e-02 0.0000000000000000e+00  -1.1169728121722189e-03 4.6800108619967466e-02 0.0000000000000000e+00  -1.6526980540827226e-03 3.7606593286270792e-02 0.0000000000000000e+00  -2.3210182022473025e-03 2.8405268404776252e-02 0.0000000000000000e+00  -3.1233581495935772e-03 1.9181603681832787e-02 0.0000000000000000e+00  -3.9366217571435600e-03 9.8815657447488651e-03 0.0000000000000000e+00  -4.9347835210378889e-03 9.2359440520367998e-04 0.0000000000000000e+00  0.0000000000000000e+00 0.0000000000000000e+00 0.0000000000000000e+00  -1.1694682324517732e-04 4.2558609232046234e-02 0.0000000000000000e+00  -4.2040099725791202e-04 7.0851822195321781e-02 0.0000000000000000e+00  -8.6021163192437345e-04 8.6939976236691377e-02 0.0000000000000000e+00  -1.3751182658750796e-03 9.3619575904631505e-02 0.0000000000000000e+00  -1.9325237638976832e-03 9.3648436179905564e-02 0.0000000000000000e+00  -2.5214743047216256e-03 8.9353901683546538e-02 0.0000000000000000e+00  -3.1473058945422254e-03 8.2493487949308456e-02 0.0000000000000000e+00  -3.8213658253912096e-03 7.4268556184248616e-02 0.0000000000000000e+00  -4.5542220566791459e-03 6.5416683130002526e-02 0.0000000000000000e+00  -5.3514925290263629e-03 5.6332465539410771e-02 0.0000000000000000e+00  -6.2121482965773007e-03 4.7185603507296753e-02 0.0000000000000000e+00  -7.1284530361967720e-03 3.8018912509060754e-02 0.0000000000000000e+00  -8.0852590005108266e-03 2.8817433971493240e-02 0.0000000000000000e+00  -9.0513032754602346e-03 1.9542712032415459e-02 0.0000000000000000e+00  -9.9687446883092220e-03 1.0132585513203406e-02 0.0000000000000000e+00  -1.0791053921493432e-02 6.9196263728329890e-04 0.0000000000000000e+00  0.0000000000000000e+00 0.0000000000000000e+00 0.0000000000000000e+00  -3.2584274040528950e-04 4.3003741607696259e-02 0.0000000000000000e+00  -1.1178745380683230e-03 7.1563063020953457e-02 0.0000000000000000e+00  -2.1854604045573617e-03 8.7787731124151017e-02 0.0000000000000000e+00  -3.4061817165971123e-03 9.4523065452399635e-02 0.0000000000000000e+00  -4.7177644041155814e-03 9.4570214913757888e-02 0.0000000000000000e+00  -6.0946586199449697e-03 9.0284923118400209e-02 0.0000000000000000e+00  -7.5304129954798611e-03 8.3437237895805025e-02 0.0000000000000000e+00  -9.0216821161530226e-03 7.5228483164600388e-02 0.0000000000000000e+00  -1.0558584995677729e-02 6.6388266164747342e-02 0.0000000000000000e+00  -1.2120120726668312e-02 5.7299753076139048e-02 0.0000000000000000e+00  -1.3674184386224744e-02 4.8121554558607962e-02 0.0000000000000000e+00  -1.5181796634613175e-02 3.8888891752433132e-02 0.0000000000000000e+00  -1.6603174820219620e-02 2.9585019336060805e-02 0.0000000000000000e+00  -1.7911065619376613e-02 2.0178728521472802e-02 0.0000000000000000e+00  -1.9096159629044544e-02 1.0629168932425763e-02 0.0000000000000000e+00  -2.0155874004148557e-02 9.5554835817982702e-04 0.0000000000000000e+00  0.0000000000000000e+00 0.0000000000000000e+00 0.0000000000000000e+00  -5.5320676114824544e-04 4.3844340044707851e-02 0.0000000000000000e+00  -1.8950110582127522e-03 7.2885182475658589e-02 0.0000000000000000e+00  -3.6935531267976987e-03 8.9365697017343301e-02 0.0000000000000000e+00  -5.7553800407202206e-03 9.6232571415631518e-02 0.0000000000000000e+00  -7.9856546625093200e-03 9.6354038144602097e-02 0.0000000000000000e+00  -1.0342990795076007e-02 9.2121452462954112e-02 0.0000000000000000e+00  -1.2806694495068278e-02 8.5315438028038315e-02 0.0000000000000000e+00  -1.5353603340426252e-02 7.7130904775994796e-02 0.0000000000000000e+00  -1.7945291388630134e-02 6.8281914131492844e-02 0.0000000000000000e+00  -2.0523460348911584e-02 5.9133764495909950e-02 0.0000000000000000e+00  -2.3012225151669764e-02 4.9831211533786078e-02 0.0000000000000000e+00  -2.5327918496844667e-02 4.0406335779376169e-02 0.0000000000000000e+00  -2.7395830417529750e-02 3.0857442161330503e-02 0.0000000000000000e+00  -2.9180669030215222e-02 2.1193122696213582e-02 0.0000000000000000e+00  -3.0702585089851280e-02 1.1433863791569620e-02 0.0000000000000000e+00  -3.2089827240793671e-02 1.5416249018873763e-03 0.0000000000000000e+00  0.0000000000000000e+00 0.0000000000000000e+00 0.0000000000000000e+00  -7.7881261757242976e-04 4.5097580383524606e-02 0.0000000000000000e+00  -2.6789442168210650e-03 7.4865790078908756e-02 0.0000000000000000e+00  -5.2441931215136284e-03 9.1755730126378582e-02 0.0000000000000000e+00  -8.2197372348469626e-03 9.8865456405773530e-02 0.0000000000000000e+00  -1.1484385791854908e-02 9.9153995449349178e-02 0.0000000000000000e+00  -1.4982918856313452e-02 9.5053432161179369e-02 0.0000000000000000e+00  -1.8678211135577379e-02 8.8349625759451239e-02 0.0000000000000000e+00  -2.2520780525454250e-02 8.0221233891646412e-02 0.0000000000000000e+00  -2.6433467177551965e-02 7.1356022441991213e-02 0.0000000000000000e+00  -3.0307034858246061e-02 6.2092133140863932e-02 0.0000000000000000e+00  -3.4004388331700906e-02 5.2554771995925419e-02 0.0000000000000000e+00  -3.7375206735040946e-02 4.2773850468676509e-02 0.0000000000000000e+00  -4.0281707212023864e-02 3.2775692833230230e-02 0.0000000000000000e+00  -4.2649606465332134e-02 2.2638832577202124e-02 0.0000000000000000e+00  -4.4512463993346914e-02 1.2489131687551717e-02 0.0000000000000000e+00  -4.6131377016095751e-02 2.3442349196296725e-03 0.0000000000000000e+00  0.0000000000000000e+00 0.0000000000000000e+00 0.0000000000000000e+00  -9.8605385128931787e-04 4.6745463895867818e-02 0.0000000000000000e+00  -3.4097286462744939e-03 7.7495774195236372e-02 0.0000000000000000e+00  -6.7222362487480954e-03 9.4980057567879791e-02 0.0000000000000000e+00  -1.0633969773241721e-02 1.0249028368789527e-01 0.0000000000000000e+00  -1.5014044394400307e-02 1.0309264528527176e-01 0.0000000000000000e+00  -1.9799751151930240e-02 9.9258068896825369e-02 0.0000000000000000e+00  -2.4935236934802926e-02 9.2766302812860288e-02 0.0000000000000000e+00  -3.0335966326269868e-02 8.4765300819881720e-02 0.0000000000000000e+00  -3.5872815749298341e-02 7.5902418049409698e-02 0.0000000000000000e+00  -4.1368760251870640e-02 6.6475736739086133e-02 0.0000000000000000e+00  -4.6603738196196114e-02 5.6579016863460771e-02 0.0000000000000000e+00  -5.1329571578576719e-02 4.6232236781214055e-02 0.0000000000000000e+00  -5.5300961016059941e-02 3.5494528538852717e-02 0.0000000000000000e+00  -5.8351370918922355e-02 2.4543836833355641e-02 0.0000000000000000e+00  -6.0478112820411815e-02 1.3687015753531472e-02 0.0000000000000000e+00  -6.2079553924500548e-02 3.1224905942042946e-03 0.0000000000000000e+00  0.0000000000000000e+00 0.0000000000000000e+00 0.0000000000000000e+00  -1.1566672149165933e-03 4.8738581365974469e-02 0.0000000000000000e+00  -4.0240601259789238e-03 8.0715683951977327e-02 0.0000000000000000e+00  -8.0098715262131009e-03 9.9008917258671447e-02 0.0000000000000000e+00  -1.2832862793746255e-02 1.0713581801456144e-01 0.0000000000000000e+00  -1.8379316426870785e-02 1.0827190656208688e-01 0.0000000000000000e+00  -2.4588840655914008e-02 1.0491234818793967e-01 0.0000000000000000e+00  -3.1383255016640736e-02 9.8810234959816973e-02 0.0000000000000000e+00  -3.8630810939016547e-02 9.1063007952929112e-02 0.0000000000000000e+00  -4.6134194498656439e-02 8.2260383988162294e-02 0.0000000000000000e+00  -5.3630585221215971e-02 7.2643561587977634e-02 0.0000000000000000e+00  -6.0793554698231063e-02 6.2256701470343831e-02 0.0000000000000000e+00  -6.7241103603350685e-02 5.1090705804625082e-02 0.0000000000000000e+00  -7.2562798025426048e-02 3.9221427395404726e-02 0.0000000000000000e+00  -7.6411161464447805e-02 2.6940162429924360e-02 0.0000000000000000e+00  -7.8641722666773023e-02 1.4831964284950016e-02 0.0000000000000000e+00  -7.9729363223261587e-02 3.4651699637857419e-03 0.0000000000000000e+00  0.0000000000000000e+00 0.0000000000000000e+00 0.0000000000000000e+00  -1.2656150758380963e-03 5.0988962545865608e-02 0.0000000000000000e+00  -4.4390778348397213e-03 8.4408569532849795e-02 0.0000000000000000e+00  -8.9579443097289047e-03 1.0375612606545929e-01 0.0000000000000000e+00  -1.4610872731885195e-02 1.1278890794018183e-01 0.0000000000000000e+00  -2.1336801771090468e-02 1.1477171273788647e-01 0.0000000000000000e+00  -2.9088122194697124e-02 1.1219061638816177e-01 0.0000000000000000e+00  -3.7756735157893580e-02 1.0673950333564466e-01 0.0000000000000000e+00  -4.7146646813823606e-02 9.9439942899599454e-02 0.0000000000000000e+00  -5.6973767449109106e-02 9.0805625071302576e-02 0.0000000000000000e+00  -6.6871683289605327e-02 8.1005770842357980e-02 0.0000000000000000e+00  -7.6389819395454153e-02 7.0013735939012625e-02 0.0000000000000000e+00  -8.4987723693328271e-02 5.7747138745677946e-02 0.0000000000000000e+00  -9.2025048581967986e-02 4.4240975529196820e-02 0.0000000000000000e+00  -9.6837373626945222e-02 2.9886882542791763e-02 0.0000000000000000e+00  -9.8948483597891518e-02 1.5647254466366670e-02 0.0000000000000000e+00  -9.8721904785030776e-02 2.7136436639923107e-03 0.0000000000000000e+00  0.0000000000000000e+00 0.0000000000000000e+00 0.0000000000000000e+00  -1.2765364307821805e-03 5.3354674278121787e-02 0.0000000000000000e+00  -4.5390874360232468e-03 8.8382093581147847e-02 0.0000000000000000e+00  -9.3636783641868390e-03 1.0906376227391899e-01 0.0000000000000000e+00  -1.5690332333014079e-02 1.1938081750070374e-01 0.0000000000000000e+00  -2.3550880168525527e-02 1.2263452035067098e-01 0.0000000000000000e+00  -3.2916631968308102e-02 1.2124376551975662e-01 0.0000000000000000e+00  -4.3634353853596285e-02 1.1679676922842183e-01 0.0000000000000000e+00  -5.5420372981521596e-02 1.1020985133156100e-01 0.0000000000000000e+00  -6.7881187150676092e-02 1.0190717459098528e-01 0.0000000000000000e+00  -8.0532046105937782e-02 9.1978790630971932e-02 0.0000000000000000e+00  -9.2802474259062059e-02 8.0302322100135839e-02 0.0000000000000000e+00  -1.0399128414442771e-01 6.6666856026260754e-02 0.0000000000000000e+00  -1.1317639166416395e-01 5.0985377472382777e-02 0.0000000000000000e+00  -1.1923587724958438e-01 3.3624699594883060e-02 0.0000000000000000e+00  -1.2104651119193033e-01 1.5889335755167572e-02 0.0000000000000000e+00  -1.1844640455636327e-01 -2.9936494601022247e-05 0.0000000000000000e+00  0.0000000000000000e+00 0.0000000000000000e+00 0.0000000000000000e+00  -1.1392940902623212e-03 5.5618455840309167e-02 0.0000000000000000e+00  -4.1711416530892326e-03 9.2344927553318398e-02 0.0000000000000000e+00  -8.9660194976179334e-03 1.1468126778780136e-01 0.0000000000000000e+00  -1.5713900177867279e-02 1.2676493921942888e-01 0.0000000000000000e+00  -2.4576022342367002e-02 1.3183517629639277e-01 0.0000000000000000e+00  -3.5537354604181330e-02 1.3215631610770054e-01 0.0000000000000000e+00  -4.8373479895333436e-02 1.2915118060404160e-01 0.0000000000000000e+00  -6.2681546954627618e-02 1.2360119029736560e-01 0.0000000000000000e+00  -7.7931660187751037e-02 1.1583633854824182e-01 0.0000000000000000e+00  -9.3515565850140203e-02 1.0587472156483300e-01 0.0000000000000000e+00  -1.0876175337685179e-01 9.3508369032111974e-02 0.0000000000000000e+00  -1.2283967583897012e-01 7.8377467266801656e-02 0.0000000000000000e+00  -1.3463601769767219e-01 6.0066086183191959e-02 0.0000000000000000e+00  -1.4247450382034052e-01 3.8518280193515164e-02 0.0000000000000000e+00  -1.4402487871611286e-01 1.5282480646051295e-02 0.0000000000000000e+00  -1.3784389378606485e-01 -5.7658403447268421e-03 0.0000000000000000e+00  0.0000000000000000e+00 0.0000000000000000e+00 0.0000000000000000e+00  -7.9309520307003253e-04 5.7467893529139488e-02 0.0000000000000000e+00  -3.1612903268769168e-03 9.5890285831436856e-02 0.0000000000000000e+00  -7.4787243133823157e-03 1.2025085662355964e-01 0.0000000000000000e+00  -1.4286307571875011e-02 1.3469226133406714e-01 0.0000000000000000e+00  -2.3891601482021515e-02 1.4223612079410930e-01 0.0000000000000000e+00  -3.6268807962132860e-02 1.4487679965649392e-01 0.0000000000000000e+00  -5.1085391898169970e-02 1.4380425254431400e-01 0.0000000000000000e+00  -6.7783902818778302e-02 1.3963880552710553e-01 0.0000000000000000e+00  -8.5673726251576390e-02 1.3262232775221475e-01 0.0000000000000000e+00  -1.0401485040633091e-01 1.2273991464041582e-01 0.0000000000000000e+00  -1.2204353139877554e-01 1.0976089622410998e-01 0.0000000000000000e+00  -1.3894713959257490e-01 9.3151646801358345e-02 0.0000000000000000e+00  -1.5367491328713934e-01 7.1988534387231795e-02 0.0000000000000000e+00  -1.6393013227220835e-01 4.5557740704107480e-02 0.0000000000000000e+00  -1.6597460217451565e-01 1.4893105594307544e-02 0.0000000000000000e+00  -1.5557672942659892e-01 -1.5161415540906845e-02 0.0000000000000000e+00  0.0000000000000000e+00 0.0000000000000000e+00 0.0000000000000000e+00  -1.8341346044161344e-04 5.8493016628888179e-02 0.0000000000000000e+00  -1.3752215709024235e-03 9.8510681471005543e-02 0.0000000000000000e+00  -4.6971390977348934e-03 1.2531797758526164e-01 0.0000000000000000e+00  -1.1105155777227564e-02 1.4279204045126012e-01 0.0000000000000000e+00  -2.1026300259813179e-02 1.5352504204655484e-01 0.0000000000000000e+00  -3.4376607026172429e-02 1.5911230548825453e-01 0.0000000000000000e+00  -5.0677629602381646e-02 1.6044886259519114e-01 0.0000000000000000e+00  -6.9195890942359284e-02 1.5797652231255588e-01 0.0000000000000000e+00  -8.9068953011340532e-02 1.5186459892066692e-01 0.0000000000000000e+00  -1.0940468682515458e-01 1.4211713139842108e-01 0.0000000000000000e+00  -1.2936828348561158e-01 1.2856493936427277e-01 0.0000000000000000e+00  -1.4830069200986573e-01 1.1069700305765069e-01 0.0000000000000000e+00  -1.6534202600247136e-01 8.7432342673163077e-02 0.0000000000000000e+00  -1.7862609397528900e-01 5.6508261305766021e-02 0.0000000000000000e+00  -1.8385281585497137e-01 1.5279159128634813e-02 0.0000000000000000e+00  -1.7106308011005109e-01 -2.7648446081173120e-02 0.0000000000000000e+00  0.0000000000000000e+00 0.0000000000000000e+00 0.0000000000000000e+00  6.8950214996397617e-04 5.8243788629734207e-02 0.0000000000000000e+00  1.1294275882408147e-03 9.9691686748363345e-02 0.0000000000000000e+00  -7.3948050820450554e-04 1.2939550496957825e-01 0.0000000000000000e+00  -6.2386027267127588e-03 1.5056420741062532e-01 0.0000000000000000e+00  -1.5819778290701338e-02 1.6512602189418549e-01 0.0000000000000000e+00  -2.9281931855057741e-02 1.7417046430494162e-01 0.0000000000000000e+00  -4.5990760495166920e-02 1.7826448814517534e-01 0.0000000000000000e+00  -6.5062799131024182e-02 1.7767147137186737e-01 0.0000000000000000e+00  -8.5496995361448294e-02 1.7250095642835392e-01 0.0000000000000000e+00  -1.0626880279846272e-01 1.6279918485906961e-01 0.0000000000000000e+00  -1.2646712170645760e-01 1.4856024847797972e-01 0.0000000000000000e+00  -1.4539035653047722e-01 1.2961570216588189e-01 0.0000000000000000e+00  -1.6263427080004300e-01 1.0491347932261588e-01 0.0000000000000000e+00  -1.7873769231348652e-01 7.0765959040151372e-02 0.0000000000000000e+00  -1.8937676310048771e-01 2.0718523573851705e-02 0.0000000000000000e+00  -1.7398095869156091e-01 -3.9046251796593934e-02 0.0000000000000000e+00  0.0000000000000000e+00 0.0000000000000000e+00 0.0000000000000000e+00  1.6427023848133891e-03 5.6419953122763787e-02 0.0000000000000000e+00  3.7683634325336238e-03 9.9140130952151351e-02 0.0000000000000000e+00  3.4870044255713019e-03 1.3209362793723980e-01 0.0000000000000000e+00  -6.1970685849680981e-04 1.5736428186809842e-01 0.0000000000000000e+00  -8.8700983345519572e-03 1.7605141984428135e-01 0.0000000000000000e+00  -2.0921229379590237e-02 1.8871394541090880e-01 0.0000000000000000e+00  -3.6053224589357537e-02 1.9561621783328806e-01 0.0000000000000000e+00  -5.3354618889242318e-02 1.9687089973531097e-01 0.0000000000000000e+00  -7.1824700954150167e-02 1.9253204746839700e-01 0.0000000000000000e+00  -9.0434240628128520e-02 1.8266203293818431e-01 0.0000000000000000e+00  -1.0817696841143618e-01 1.6738857458718459e-01 0.0000000000000000e+00  -1.2410375707078605e-01 1.4688243497027462e-01 0.0000000000000000e+00  -1.3818705683688606e-01 1.2105441443627174e-01 0.0000000000000000e+00  -1.5179256251946915e-01 8.9029559916201872e-02 0.0000000000000000e+00  -1.6659455093419040e-01 4.3797396523519209e-02 0.0000000000000000e+00  -1.8193458582739519e-01 -3.0131805008321157e-02 0.0000000000000000e+00  0.0000000000000000e+00 0.0000000000000000e+00 0.0000000000000000e+00  1.9968906230231676e-03 5.3375494073990684e-02 0.0000000000000000e+00  4.7749042069644022e-03 9.7269191318700932e-02 0.0000000000000000e+00  5.4906914289157213e-03 1.3334779695615215e-01 0.0000000000000000e+00  3.1896856159608525e-03 1.6237164881805774e-01 0.0000000000000000e+00  -2.1886823028400061e-03 1.8467694895262168e-01 0.0000000000000000e+00  -1.0271571740874454e-02 2.0041301418459140e-01 0.0000000000000000e+00  -2.0477091365138186e-02 2.0964157569541408e-01 0.0000000000000000e+00  -3.2133180697463619e-02 2.1238384089160681e-01 0.0000000000000000e+00  -4.4528254479751068e-02 2.0865032377442017e-01 0.0000000000000000e+00  -5.6921560864552689e-02 1.9846879874240150e-01 0.0000000000000000e+00  -6.8496929671935852e-02 1.8192107665947202e-01 0.0000000000000000e+00  -7.8391220887667409e-02 1.5916085390737814e-01 0.0000000000000000e+00  -8.5701819647185817e-02 1.3067123783868742e-01 0.0000000000000000e+00  -8.8605729653941923e-02 9.6780064039648325e-02 0.0000000000000000e+00  -9.2039181181059360e-02 5.5179216445251721e-02 0.0000000000000000e+00  -7.4440004033650919e-02 2.5076029569622666e-03 0.0000000000000000e+00  0.0000000000000000e+00 0.0000000000000000e+00 0.0000000000000000e+00  0.0000000000000000e+00 5.1346094533814973e-02 0.0000000000000000e+00  0.0000000000000000e+00 9.5846043129787950e-02 0.0000000000000000e+00  0.0000000000000000e+00 1.3349984578791893e-01 0.0000000000000000e+00  0.0000000000000000e+00 1.6430750250820791e-01 0.0000000000000000e+00  0.0000000000000000e+00 1.8826901329065490e-01 0.0000000000000000e+00  0.0000000000000000e+00 2.0538437813525987e-01 0.0000000000000000e+00  0.0000000000000000e+00 2.1565359704202289e-01 0.0000000000000000e+00  0.0000000000000000e+00 2.1907667001094389e-01 0.0000