<?xml version="1.0"?>
<VTKFile type="UnstructuredGrid"  version="0.1"  >
<UnstructuredGrid>
<Piece  NumberOfPoints="289" NumberOfCells="512">
<Points>
<DataArray  type="Float64"  NumberOfComponents="3"  format="ascii">0 0 0  0.0625 0 0  0.125 0 0  0.1875 0 0  0.25 0 0  0.3125 0 0  0.375 0 0  0.4375 0 0  0.5 0 0  0.5625 0 0  0.625 0 0  0.6875 0 0  0.75 0 0  0.8125 0 0  0.875 0 0  0.9375 0 0  1 0 0  0 0.0625 0  0.06249838003290589 0.06246153509687313 0  0.124997385613691 0.06242238427029672 0  0.1874976909895054 0.06238190437161395 0  0.2500002130419546 0.06233959304029558 0  0.3125062754900901 0.06229517969577687 0  0.3750178388100552 0.06224873971088593 0  0.4375378408249404 0.06220083299352354 0  0.5000707273719257 0.06215265836050193 0  0.5626233276162729 0.06210619680593461 0  0.6252064031775162 0.06206428539947598 0  0.6878376329759691 0.06203051372649183 0  0.7505479333561386 0.0620087620461277 0  0.8133961382520032 0.06200210672731053 0  0.8765057899713161 0.06201075038470139 0  0.9401612598411476 0.06202913039919965 0  1.005050444135447 0.0620514873478483 0  0 0.125 0  0.06249613781381477 0.1249237104336424 0  0.1249934322862843 0.1248459755583826 0  0.1874931377866676 0.1247654285104571 0  0.2499969797898436 0.124680967288604 0  0.3125074755236649 0.1245919315600657 0  0.3750283830511069 0.1244983318097107 0  0.4375653612538866 0.1244011389522593 0  0.5001269772487094 0.1243026264426191 0  0.5627263043589814 0.1242067250038916 0  0.6253835692186764 0.1241192929032503 0  0.6881307432953832 0.1240481133449601 0  0.7510198181178341 0.1240023111899362 0  0.8141378766634499 0.1239908120988495 0  0.8776330721221174 0.1240198062448059 0  0.9417504929827785 0.1240911845370354 0  1.006849367009435 0.1242094561966563 0  0 0.1875 0  0.06249284021670804 0.1873873099316883 0  0.1249871630468043 0.1872722837123355 0  0.187484588025698 0.1871526843540554 0  0.24998738240657 0.1870266274143859 0  0.3124989036982513 0.1868928294398575 0  0.375024217739063 0.1867509466023305 0  0.4375709941743015 0.1866020284939237 0  0.5001508308210595 0.1864490972568661 0  0.5627812385565168 0.1862978268250312 0  0.6254886403783765 0.1861572234724501 0  0.6883128911946236 0.1860400681491173 0  0.7513138813872183 0.1859626197695257 0  0.8145802041258946 0.1859425588566049 0  0.8782369833726166 0.1859928662232897 0  0.94244143116498 0.1861051732523687 0  1.007340677773996 0.1862008992083328 0  0 0.25 0  0.06248825612522362 0.249853245888676 0  0.1249780299407012 0.2497030941286844 0  0.1874709972532104 0.249546243130468 0  0.2499695758596625 0.2493797719562014 0  0.3124774370805639 0.2492014322434603 0  0.3750002220205124 0.2490100748425158 0  0.4375465705285074 0.248806264626749 0  0.500129605045902 0.248593134933437 0  0.5627690458465884 0.24837751277314 0  0.625494140590342 0.2481712843314805 0  0.6883474875054547 0.2479928245358239 0  0.7513894055495877 0.2478680062282765 0  0.8147012890503684 0.2478296930123821 0  0.8783836412271111 0.2479134892874364 0  0.9425401243787491 0.2481458966260237 0  1.0072372621996 0.248521794682694 0  0 0.3125 0  0.06248241767136286 0.3123225948654684 0  0.1249660511976479 0.312140550647878 0  0.1874522721761297 0.3119492884350936 0  0.2499431856363993 0.3117445537089698 0  0.312442147662022 0.311522704730157 0  0.3749545030446135 0.311281178285107 0  0.4374886561273735 0.3110192233681599 0  0.5000576151601288 0.3107390174003812 0  0.5626811614009163 0.3104472986396906 0  0.6253887450000049 0.3101576403175678 0  0.6882230069512449 0.309893406481357 0  0.7512433040393822 0.3096911651309621 0  0.8145275726599548 0.3096037174119136 0  0.8781693992330514 0.3097007301235385 0  0.9422667846026722 0.3100633142691224 0  1.006905132005551 0.3107679696626907 0  0 0.375 0  0.06247564358525917 0.3747966034274201 0  0.1249518678929466 0.3745871782498728 0  0.1874293801783623 0.3743656804833498 0  0.2499094992523563 0.3741262289010886 0  0.3123946106091011 0.3738633222628893 0  0.3748888450792406 0.3735722595505138 0  0.4373991073753055 0.3732498902526526 0  0.4999366226498324 0.3728958824890213 0  0.5625192032402345 0.3725147796277115 0  0.6251744245105095 0.3721192112715719 0  0.6879437564873249 0.3717346881205544 0  0.7508873002127595 0.3714063175070078 0  0.814088034827098 0.3712072546978267 0  0.8776536819630875 0.3712473297170796 0  0.9417149414858003 0.3716778235767342 0  1.006424707526466 0.3726857383786194 0  0 0.4375 0  0.06246852098247072 0.4372766532423141 0  0.1249367120469813 0.4370458219690131 0  0.1874043125533575 0.4367998894633296 0  0.2498714382162199 0.4365311259743775 0  0.3123389008732083 0.4362317513879694 0  0.3748087372208145 0.435894190561655 0  0.4372850922015306 0.4355116687818835 0  0.499775683544014 0.4350793938873919 0  0.562294185279415 0.4345967326674353 0  0.6248639946038378 0.4340710350708887 0  0.6875239294067893 0.4335240909200948 0  0.7503363070480367 0.4330025218812617 0  0.8133973773736209 0.4325933441061613 0  0.8768492081922894 0.4324446145875822 0  0.9408919142002928 0.4327874384391359 0  1.005799545499608 0.4339508128648265 0  0 0.5 0  0.06246184630843594 0.4997641778136923 0  0.1249222868655847 0.4995194827922596 0  0.1873799017789135 0.4992567588177962 0  0.2498333128503183 0.4989663598646393 0  0.312281294033005 0.4986379727875885 0  0.3747230429179709 0.4982605697928956 0  0.4371587687245774 0.4978226238574133 0  0.4995908864115867 0.4973128425395954 0  0.5620263398709447 0.4967219020445907 0  0.6244809530477776 0.4960460733960276 0  0.6869872368260851 0.4952943397574051 0  0.7496076310255679 0.4945016934678823 0  0.8124552605326053 0.4937525299198422 0  0.8757230391009133 0.4932180010758945 0  0.9397192387648946 0.4932062422347053 0  1.0049092039004 0.4942117422581424 0  0 0.5625 0  0.06245652977615614 0.5622605294709925 0  0.1249105663749476 0.5620110437489493 0  0.1873595002209801 0.5617410768129668 0  0.2498003630337484 0.5614392368667694 0  0.3122296645871713 0.5610927247907143 0  0.3746432912732303 0.5606868613623488 0  0.4370365953379217 0.5602046934106312 0  0.4994049784739233 0.5596268576189319 0  0.5617456344481896 0.558932113746002 0  0.6240618185453654 0.5580994578071348 0  0.6863722646041255 0.5571137820558526 0  0.7487302715365902 0.5559792038788233 0  0.8112589250640172 0.5547481189330254 0  0.8742083579409016 0.5535790404872847 0  0.938033491663844 0.5528347489800629 0  1.003478006433147 0.5532089292253493 0  0 0.625 0  0.06245347132995987 0.6247668052202413 0  0.1249035287612876 0.6245229007293737 0  0.1873465359648515 0.6242569699712848 0  0.2497780902043983 0.6239563470913365 0  0.3121925516098796 0.6236062146709195 0  0.3745824769593901 0.623188646347139 0  0.4369379965418284 0.6226814535674696 0  0.4992463325402897 0.6220568395310885 0  0.5614920659765323 0.6212799983046461 0  0.6236597288062273 0.6203081785677527 0  0.6857424307508498 0.6190917797689605 0  0.7477644505291779 0.6175818952387275 0  0.8098325002214654 0.6157561958805193 0  0.8722357446378753 0.6136921779185127 0  0.935603245703006 0.6117367869325088 0  1.001101866194738 0.6107745342052926 0  0 0.6875 0  0.06245342091347116 0.687283652247393 0  0.12490284837262 0.6870565401545824 0  0.1873439792656061 0.6868071818442784 0  0.2497714096417686 0.6865224252470394 0  0.3121778808574168 0.6861863790045304 0  0.3745532359694322 0.6857790196141297 0  0.4368829647299742 0.6852743011463051 0  0.4991462632683867 0.6846375325719923 0  0.561313790563243 0.6838217197743728 0  0.6233461820775292 0.6827625580952661 0  0.6851969510215429 0.6813720844940346 0  0.7468301964129747 0.6795327909516671 0  0.8082794653316366 0.6771018175695742 0  0.8698022473786886 0.6739664935562356 0  0.9321749642400676 0.6703021385970274 0  0.9970824730300925 0.6671687846210574 0  0 0.75 0  0.0624568417543987 0.7498110851949743 0  0.1249095865184399 0.7496121327748273 0  0.1873537843800684 0.7493923539159871 0  0.2497837102160932 0.7491391595915645 0  0.3121914299220562 0.7488369541462836 0  0.3745654033907974 0.7484654842085745 0  0.4368883124714175 0.7479974619514538 0  0.4991336432284724 0.7473950201841955 0  0.5612603894627406 0.746604271543309 0  0.6232053457245098 0.7455467265489307 0  0.6848738812032623 0.744105379909129 0  0.7461365114785151 0.7421017286575775 0  0.8068619627880709 0.7392590639734224 0  0.8670943202080881 0.735160079418465 0  0.9276888958349572 0.7293407937501348 0  0.9906258480342777 0.7229682917980045 0  0 0.8125 0  0.06246380100590178 0.8123483536997026 0  0.1249239373430548 0.8121882298721658 0  0.187376410234341 0.8120104633988872 0  0.2498159948878343 0.8118042096756877 0  0.3122353027651121 0.8115557863559562 0  0.3746233069170986 0.811247042900757 0  0.4369628892349066 0.810852942342641 0  0.4992266006397402 0.8103378404920586 0  0.5613691280609702 0.809649579784626 0  0.6233137131765458 0.8087097810422758 0  0.6849278948272071 0.80739707166423 0  0.7459829132739068 0.8055158201973746 0  0.8061006121274635 0.8027316011957353 0  0.8647613034985954 0.7984247092876534 0  0.9218594546063718 0.7913509386884936 0  0.9832083613196616 0.7789060783813601 0  0 0.875 0  0.06247391411519482 0.8748938963534202 0  0.1249450932316615 0.8747816454203641 0  0.1874105498266126 0.8746565747183268 0  0.2498663507631627 0.8745107132195679 0  0.3123068775948756 0.8743338807377128 0  0.374723630429625 0.8741123871993356 0  0.4371031588487555 0.8738270800362672 0  0.4994232797298825 0.8734503226290994 0  0.5616457960949831 0.8729412316310953 0  0.6237017552516646 0.8722380799451765 0  0.6854601917944678 0.871245974373159 0  0.7466595220631637 0.8698156299472979 0  0.8067553958411543 0.8676990249132626 0  0.864594813410573 0.8644188510399796 0  0.9177970877322927 0.858777418406973 0  0.9619133908862822 0.8470566008530963 0  0 0.9375 0  0.06248636383042922 0.9374454046936046 0  0.1249712830588855 0.9373875806432462 0  0.1874531838882522 0.9373230154664217 0  0.2499299946392221 0.9372474906130148 0  0.3123987562336252 0.9371555820440735 0  0.3748549889120847 0.9370399424789961 0  0.4372915840946535 0.9368902210617
[...]
<PointData  Vectors="f_95-0"> 
<DataArray  type="Float64"  Name="f_95-0"  NumberOfComponents="3" format="ascii">0.0000000000000000e+00 0.0000000000000000e+00 0.0000000000000000e+00  -2.6734350733402984e-04 -3.3182029056617449e-02 0.0000000000000000e+00  -7.3651900496215865e-04 -5.0181883949454512e-02 0.0000000000000000e+00  -1.2809060547029827e-03 -5.6012163802477685e-02 0.0000000000000000e+00  -1.9286062731526279e-03 -5.4775042687904715e-02 0.0000000000000000e+00  -2.6798205352246470e-03 -4.9637622354325561e-02 0.0000000000000000e+00  -3.5224873753847892e-03 -4.2818384712365681e-02 0.0000000000000000e+00  -4.4288397760187974e-03 -3.5713061870976136e-02 0.0000000000000000e+00  -5.3584098124790595e-03 -2.9079109243070674e-02 0.0000000000000000e+00  -6.2610924347385501e-03 -2.3228453628633183e-02 0.0000000000000000e+00  -7.0794355734491712e-03 -1.8197306415983997e-02 0.0000000000000000e+00  -7.7499206520834319e-03 -1.3879440523987260e-02 0.0000000000000000e+00  -8.2044725364546784e-03 -1.0119482296118710e-02 0.0000000000000000e+00  -8.3649312253693993e-03 -6.7759145453210844e-03 0.0000000000000000e+00  -8.1369041201171111e-03 -3.7414995293959378e-03 0.0000000000000000e+00  -7.4928049729495252e-03 -9.2258774860334782e-04 0.0000000000000000e+00  -3.0917331402572695e-03 2.9817515586244743e-03 0.0000000000000000e+00  0.0000000000000000e+00 0.0000000000000000e+00 0.0000000000000000e+00  -1.6827815513440955e-04 -3.2777109863902171e-02 0.0000000000000000e+00  -5.0043855855690111e-04 -4.9699286361049123e-02 0.0000000000000000e+00  -8.9687038849502600e-04 -5.5444703235903114e-02 0.0000000000000000e+00  -1.3879424990752467e-03 -5.4111441138169979e-02 0.0000000000000000e+00  -1.9802054678570535e-03 -4.8878796227304316e-02 0.0000000000000000e+00  -2.6665958614165695e-03 -4.1981869791724677e-02 0.0000000000000000e+00  -3.4218062428533528e-03 -3.4830519214682762e-02 0.0000000000000000e+00  -4.2083910874826805e-03 -2.8192988117119608e-02 0.0000000000000000e+00  -4.9803426676318426e-03 -2.2389176757286293e-02 0.0000000000000000e+00  -5.6856100993570224e-03 -1.7461188456841820e-02 0.0000000000000000e+00  -6.2678715602072560e-03 -1.3307017358005794e-02 0.0000000000000000e+00  -6.6679412648914761e-03 -9.7752831715588566e-03 0.0000000000000000e+00  -6.8242823411669984e-03 -6.7252596294676177e-03 0.0000000000000000e+00  -6.6957681920426729e-03 -4.0579857893790856e-03 0.0000000000000000e+00  -6.1833814427607421e-03 -1.7544544283851849e-03 0.0000000000000000e+00  -5.8711528086736247e-03 7.6296678528707551e-04 0.0000000000000000e+00  0.0000000000000000e+00 0.0000000000000000e+00 0.0000000000000000e+00  1.9423478542692371e-05 -3.2636652359302798e-02 0.0000000000000000e+00  3.5052894894588516e-05 -4.9507095622194380e-02 0.0000000000000000e+00  1.9278657818899681e-05 -5.5184423118750277e-02 0.0000000000000000e+00  -7.8463813608667957e-05 -5.3755739500664673e-02 0.0000000000000000e+00  -2.7845566375123495e-04 -4.8421196208927500e-02 0.0000000000000000e+00  -5.8004406131993193e-04 -4.1436542035267587e-02 0.0000000000000000e+00  -9.6291746304666328e-04 -3.4225846150155004e-02 0.0000000000000000e+00  -1.3966690194064410e-03 -2.7566296269998462e-02 0.0000000000000000e+00  -1.8453620907088941e-03 -2.1783179316681282e-02 0.0000000000000000e+00  -2.2704714993726379e-03 -1.6921696944428098e-02 0.0000000000000000e+00  -2.6327175296225708e-03 -1.2880906682441483e-02 0.0000000000000000e+00  -2.8946622545244520e-03 -9.5070379816807205e-03 0.0000000000000000e+00  -3.0282213940449397e-03 -6.6493627523323395e-03 0.0000000000000000e+00  -3.0260027705562502e-03 -4.1824422027378801e-03 0.0000000000000000e+00  -2.9457300173707963e-03 -1.9736106254955410e-03 0.0000000000000000e+00  -2.7137241546925320e-03 1.0472881632818436e-04 0.0000000000000000e+00  0.0000000000000000e+00 0.0000000000000000e+00 0.0000000000000000e+00  2.2076995682566628e-04 -3.2834995194754503e-02 0.0000000000000000e+00  6.7119687797273606e-04 -4.9752517876935937e-02 0.0000000000000000e+00  1.1614809089791781e-03 -5.5388150752740381e-02 0.0000000000000000e+00  1.5895628707284937e-03 -5.3868144181958226e-02 0.0000000000000000e+00  1.9153320408142745e-03 -4.8427684381790438e-02 0.0000000000000000e+00  2.1336901877586794e-03 -4.1346312399980406e-02 0.0000000000000000e+00  2.2592714735501871e-03 -3.4060993694322285e-02 0.0000000000000000e+00  2.3133849385152160e-03 -2.7354191096454435e-02 0.0000000000000000e+00  2.3180411644886955e-03 -2.1552398433638296e-02 0.0000000000000000e+00  2.2933527807853832e-03 -1.6700162379083148e-02 0.0000000000000000e+00  2.2569026461285251e-03 -1.2694340814580126e-02 0.0000000000000000e+00  2.2228031137613460e-03 -9.3759330402306187e-03 0.0000000000000000e+00  2.1994741428819618e-03 -6.5827322983077015e-03 0.0000000000000000e+00  2.1859710984612132e-03 -4.1664582768099756e-03 0.0000000000000000e+00  2.1883584748959629e-03 -1.9988044425181773e-03 0.0000000000000000e+00  2.2046846674025795e-03 -7.7997948863750642e-06 0.0000000000000000e+00  0.0000000000000000e+00 0.0000000000000000e+00 0.0000000000000000e+00  4.1523140820239757e-04 -3.3388203741660065e-02 0.0000000000000000e+00  1.3078685766387775e-03 -5.0499910806833012e-02 0.0000000000000000e+00  2.3429910624822442e-03 -5.6142877880229404e-02 0.0000000000000000e+00  3.3553774478454479e-03 -5.4546133585953747e-02 0.0000000000000000e+00  4.2823824457638559e-03 -4.9003905430625480e-02 0.0000000000000000e+00  5.1122416437278176e-03 -4.1825157412958267e-02 0.0000000000000000e+00  5.8528925722334387e-03 -3.4457063915948487e-02 0.0000000000000000e+00  6.5138370608925243e-03 -2.7681776176117938e-02 0.0000000000000000e+00  7.0987487421411777e-03 -2.1821424462738302e-02 0.0000000000000000e+00  7.6042029043621616e-03 -1.6915657817449727e-02 0.0000000000000000e+00  8.0214644136640464e-03 -1.2857357365860611e-02 0.0000000000000000e+00  8.3399084593103433e-03 -9.4849983148376713e-03 0.0000000000000000e+00  8.5518071022934582e-03 -6.6359927950957040e-03 0.0000000000000000e+00  8.6622675312453528e-03 -4.1698755856383832e-03 0.0000000000000000e+00  8.6949865453866283e-03 -1.9729730694273782e-03 0.0000000000000000e+00  8.6949063228492912e-03 3.1285179934493374e-05 0.0000000000000000e+00  0.0000000000000000e+00 0.0000000000000000e+00 0.0000000000000000e+00  5.9006799146340931e-04 -3.4277345788514609e-02 0.0000000000000000e+00  1.8932307786315688e-03 -5.1746403930778603e-02 0.0000000000000000e+00  3.4586978638953968e-03 -5.7470595467843895e-02 0.0000000000000000e+00  5.0698509026984601e-03 -5.5836721139560015e-02 0.0000000000000000e+00  6.6471747573604769e-03 -5.0222567360072017e-02 0.0000000000000000e+00  8.1732142179675154e-03 -4.2971148584210514e-02 0.0000000000000000e+00  9.6471405895128017e-03 -3.5534860762768704e-02 0.0000000000000000e+00  1.1061418673722141e-02 -2.8687766471690253e-02 0.0000000000000000e+00  1.2394061482312023e-02 -2.2740456245578133e-02 0.0000000000000000e+00  1.3609361339297847e-02 -1.7722901617197924e-02 0.0000000000000000e+00  1.4662622648401652e-02 -1.3522733245627874e-02 0.0000000000000000e+00  1.5508203057714429e-02 -9.9793142263490640e-03 0.0000000000000000e+00  1.6110551962900167e-02 -6.9414198123316055e-03 0.0000000000000000e+00  1.6463752555312471e-02 -4.2954762315510859e-03 0.0000000000000000e+00  1.6605765554625097e-02 -1.9646339876480418e-03 0.0000000000000000e+00  1.6635980824108686e-02 1.2683554211572585e-04 0.0000000000000000e+00  0.0000000000000000e+00 0.0000000000000000e+00 0.0000000000000000e+00  7.3695921904972880e-04 -3.5461534622563011e-02 0.0000000000000000e+00  2.3945185876815228e-03 -5.3449811001252463e-02 0.0000000000000000e+00  4.4447477077966049e-03 -5.9354489112718886e-02 0.0000000000000000e+00  6.6475612404066848e-03 -5.7763174782586114e-02 0.0000000000000000e+00  8.9218992637032958e-03 -5.2153392204689397e-02 0.0000000000000000e+00  1.1249104911332922e-02 -4.4900397688158053e-02 0.0000000000000000e+00  1.3616108039525038e-02 -3.7451955834442240e-02 0.0000000000000000e+00  1.5989474478423051e-02 -3.0562942568618159e-02 0.0000000000000000e+00  1.8309484721880633e-02 -2.4523506101849158e-02 0.0000000000000000e+00  2.0494179142840390e-02 -1.9347677397905664e-02 0.0000000000000000e+00  2.2447075683406433e-02 -1.4912955310615872e-02 0.0000000000000000e+00  2.4066717198024220e-02 -1.1058491461287749e-02 0.0000000000000000e+00  2.5261724793548657e-02 -7.6534420988723321e-03 0.0000000000000000e+00  2.5988736661880122e-02 -4.6330384072031574e-03 0.0000000000000000e+00  2.6288045711160387e-02 -1.9924817625433387e-03 0.0000000000000000e+00  2.6355823562515861e-02 2.8723551715961211e-04 0.0000000000000000e+00  0.0000000000000000e+00 0.0000000000000000e+00 0.0000000000000000e+00  8.4553481276505112e-04 -3.6883183991409572e-02 0.0000000000000000e+00  2.7765767017176365e-03 -5.5540437169500897e-02 0.0000000000000000e+00  5.2401275472077121e-03 -6.1754329824593827e-02 0.0000000000000000e+00  8.0153788690314285e-03 -6.0342610837074206e-02 0.0000000000000000e+00  1.1044323936448401e-02 -5.4883528489964500e-02 0.0000000000000000e+00  1.4314133785432816e-02 -4.7770354301707590e-02 0.0000000000000000e+00  1.7793451526099971e-02 -4.0427984596420365e-02 0.0000000000000000e+00  2.1408945910127833e-02 -3.3576569568499595e-02 0.0000000000000000e+00  2.5045716792103909e-02 -2.7474556957909301e-02 0.0000000000000000e+00  2.8557417820293605e-02 -2.2110806201641822e-02 0.0000000000000000e+00  3.1773940940156099e-02 -1.7345113683945854e-02 0.0000000000000000e+00  3.4507735697366600e-02 -1.3011727421939423e-02 0.0000000000000000e+00  3.6572804303256032e-02 -8.9957867523791507e-03 0.0000000000000000e+00  3.7840004448727559e-02 -5.2931695137036633e-03 0.0000000000000000e+00  3.8311342164134635e-02 -2.0442705404222277e-03 0.0000000000000000e+00  3.8322987223744220e-02 5.9022669708259988e-04 0.0000000000000000e+00  0.0000000000000000e+00 0.0000000000000000e+00 0.0000000000000000e+00  8.9757474537768150e-04 -3.8459731408062990e-02 0.0000000000000000e+00  2.9824751288931107e-03 -5.7914910971628875e-02 0.0000000000000000e+00  5.7513676607441932e-03 -6.4605918445163987e-02 0.0000000000000000e+00  9.0631235836840084e-03 -6.3590646472387394e-02 0.0000000000000000e+00  1.2915393742912073e-02 -5.8525914922262084e-02 0.0000000000000000e+00  1.7307947525198559e-02 -5.1790000673573790e-02 0.0000000000000000e+00  2.2179801536623679e-02 -4.4755011301357651e-02 0.0000000000000000e+00  2.7397062759812359e-02 -3.8085336690321422e-02 0.0000000000000000e+00  3.2767112825506983e-02 -3.1995169083059799e-02 0.0000000000000000e+00  3.8056463907559471e-02 -2.6441812856387272e-02 0.0000000000000000e+00  4.2997763795863168e-02 -2.1258750909805411e-02 0.0000000000000000e+00  4.7293385671699696e-02 -1.6245116310798436e-02 0.0000000000000000e+00  5.0611300174503597e-02 -1.1264705928175725e-02 0.0000000000000000e+00  5.2635642369952509e-02 -6.4019378101532751e-03 0.0000000000000000e+00  5.3240785519762142e-02 -2.0634142809855911e-03 0.0000000000000000e+00  5.2900914510621795e-02 1.2441810851564611e-03 0.0000000000000000e+00  0.0000000000000000e+00 0.0000000000000000e+00 0.0000000000000000e+00  8.6118928978033845e-04 -4.0065392359365896e-02 0.0000000000000000e+00  2.9160282878261915e-03 -6.0416225324425754e-02 0.0000000000000000e+00  5.8227895098740424e-03 -6.7806891854868059e-02 0.0000000000000000e+00  9.6017236032942595e-03 -6.7513031157272155e-02 0.0000000000000000e+00  1.4343437927920156e-02 -6.3213330825887815e-02 0.0000000000000000e+00  2.0061778672970838e-02 -5.7212577480036671e-02 0.0000000000000000e+00  2.6645911682282346e-02 -5.0786066625514707e-02 0.0000000000000000e+00  3.3872650031018435e-02 -4.4517020854927293e-02 0.0000000000000000e+00  4.1442087587061333e-02 -3.8566758315289905e-02 0.0000000000000000e+00  4.9009022879914960e-02 -3.2859130938294123e-02 0.0000000000000000e+00  5.6201241581679953e-02 -2.7183466092966929e-02 0.0000000000000000e+00  6.2595900123770670e-02 -2.1272015125493732e-02 0.0000000000000000e+00  6.7643043430351851e-02 -1.4947830791909740e-02 0.0000000000000000e+00  7.0733114792678783e-02 -8.3245917947038246e-03 0.0000000000000000e+00  7.1431363568494430e-02 -2.0511849156710144e-03 0.0000000000000000e+00  7.0178957727904528e-02 2.6641976292147832e-03 0.0000000000000000e+00  0.0000000000000000e+00 0.0000000000000000e+00 0.0000000000000000e+00  6.8616199130475120e-04 -4.1503937077211651e-02 0.0000000000000000e+00  2.4310592246531964e-03 -6.2804353238226529e-02 0.0000000000000000e+00  5.2215954019489428e-03 -7.1193845313165818e-02 0.0000000000000000e+00  9.3418826587526003e-03 -7.2086192744566707e-02 0.0000000000000000e+00  1.5008901418473490e-02 -6.9075472533543847e-02 0.0000000000000000e+00  2.2239097195571739e-02 -6.4303638343291836e-02 0.0000000000000000e+00  3.0839340802811786e-02 -5.8891790027592421e-02 0.0000000000000000e+00  4.0459284672168021e-02 -5.3315770463932918e-02 0.0000000000000000e+00  5.0657274281125840e-02 -4.7680899059298343e-02 0.0000000000000000e+00  6.0959579723877930e-02 -4.1885569712459415e-02 0.0000000000000000e+00  7.0886247903415592e-02 -3.5696198395335867e-02 0.0000000000000000e+00  7.9882730307412428e-02 -2.8782395524956789e-02 0.0000000000000000e+00  8.7241790393527849e-02 -2.0724067930486159e-02 0.0000000000000000e+00  9.1986270552022492e-02 -1.1291034008744708e-02 0.0000000000000000e+00  9.2762809883893974e-02 -1.5510931148161331e-03 0.0000000000000000e+00  8.9478631296909555e-02 5.5473232407821189e-03 0.0000000000000000e+00  0.0000000000000000e+00 0.0000000000000000e+00 0.0000000000000000e+00  3.0415972891396258e-04 -4.2479016724470006e-02 0.0000000000000000e+00  1.3405251969821129e-03 -6.4730273627005272e-02 0.0000000000000000e+00  3.6604837169094302e-03 -7.4522736267138456e-02 0.0000000000000000e+00  7.9212842250182755e-03 -7.7231669573709499e-02 0.0000000000000000e+00  1.4477501456837545e-02 -7.6195163615091988e-02 0.0000000000000000e+00  2.3314148851240630e-02 -7.3273298569550449e-02 0.0000000000000000e+00  3.4110979735940170e-02 -6.9369005733582415e-02 0.0000000000000000e+00  4.6350156029669430e-02 -6.4828282256933129e-02 0.0000000000000000e+00  5.9419802415571328e-02 -5.9706463734705062e-02 0.0000000000000000e+00  7.2697376796635862e-02 -5.3912692033621000e-02 0.0000000000000000e+00  8.5580253396032285e-02 -4.7241293191562859e-02 0.0000000000000000e+00  9.7496488632760461e-02 -3.9247818437858392e-02 0.0000000000000000e+00  1.0778808834731349e-01 -2.9143635416434797e-02 0.0000000000000000e+00  1.1483820030904830e-01 -1.6438201083043780e-02 0.0000000000000000e+00  1.1605057427010468e-01 -2.1995415294446255e-03 0.0000000000000000e+00  1.0995372725743048e-01 1.0641708079889877e-02 0.0000000000000000e+00  0.0000000000000000e+00 0.0000000000000000e+00 0.0000000000000000e+00  -3.5628484774019923e-04 -4.2578103582827917e-02 0.0000000000000000e+00  -5.2509324688952024e-04 -6.5739977954613324e-02 0.0000000000000000e+00  9.0366109224829217e-04 -7.7473059228484784e-02 0.0000000000000000e+00  5.0315904983298685e-03 -8.2790003412440000e-02 0.0000000000000000e+00  1.2309230872786224e-02 -8.4534429068323577e-02 0.0000000000000000e+00  2.2627198520473638e-02 -8.4152895562478888e-02 0.0000000000000000e+00  3.5492120404991105e-02 -8.2276302419598796e-02 0.0000000000000000e+00  5.0196659375766367e-02 -7.9110900304940529e-02 0.0000000000000000e+00  6.5949508640827603e-02 -7.4677991921246994e-02 0.0000000000000000e+00  8.1961201814104753e-02 -6.8934430854325296e-02 0.0000000000000000e+00  9.7528551940875091e-02 -6.1759730000356068e-02 0.0000000000000000e+00  1.1213975029915113e-01 -5.2822396319653700e-02 0.0000000000000000e+00  1.2516550847637831e-01 -4.1393780440590819e-02 0.0000000000000000e+00  1.3536650772300574e-01 -2.5412959934821143e-02 0.0000000000000000e+00  1.3985319784666753e-01 -2.2943376979999291e-03 0.0000000000000000e+00  1.3349142842889927e-01 1.7674849519790356e-02 0.0000000000000000e+00  0.0000000000000000e+00 0.0000000000000000e+00 0.0000000000000000e+00  -1.3181176174173587e-03 -4.1321982164487008e-02 0.0000000000000000e+00  -3.1473828377534289e-03 -6.5368028032199488e-02 0.0000000000000000e+00  -2.9608662015342406e-03 -7.9710949681592369e-02 0.0000000000000000e+00  7.2544964577665782e-04 -8.8498720604702666e-02 0.0000000000000000e+00  8.3303067443714820e-03 -9.3813032933082713e-02 0.0000000000000000e+00  1.9570524747042968e-02 -9.6587229322941642e-02 0.0000000000000000e+00  3.3765159695064564e-02 -9.7165417398857049e-02 0.0000000000000000e+00  5.0049034461890858e-02 -9.5628482829596073e-02 0.0000000000000000e+00  6.7497450273479184e-02 -9.1979425157085529e-02 0.0000000000000000e+00  8.5201012970583759e-02 -8.6234957919736344e-02 0.0000000000000000e+00  1.0236857447621615e-01 -7.8436206411768752e-02 0.0000000000000000e+00  1.1833795640994357e-01 -6.8541251196956018e-02 0.0000000000000000e+00  1.3273448180163130e-01 -5.5701744233758357e-02 0.0000000000000000e+00  1.4627082286847023e-01 -3.7112607140376022e-02 0.0000000000000000e+00  1.5577937375791606e-01 -7.2257255906331974e-03 0.0000000000000000e+00  1.4004156535793669e-01 2.6012990727376731e-02 0.0000000000000000e+00  0.0000000000000000e+00 0.0000000000000000e+00 0.0000000000000000e+00  -2.3996650022752582e-03 -3.8359719905083217e-02 0.0000000000000000e+00  -5.9093203547952921e-03 -6.3389641369571995e-02 0.0000000000000000e+00  -6.9509331827684066e-03 -8.1022182006307814e-02 0.0000000000000000e+00  -3.9958003243971869e-03 -9.3941121742841444e-02 0.0000000000000000e+00  3.1377839536634263e-03 -1.0328933650468768e-01 0.0000000000000000e+00  1.3959731154859106e-02 -1.0949230004468112e-01 0.0000000000000000e+00  2.7680906868188124e-02 -1.1266298725018288e-01 0.0000000000000000e+00  4.3412428041013501e-02 -1.1280267042921140e-01 0.0000000000000000e+00  6.0249482056992210e-02 -1.0990710922126312e-01 0.0000000000000000e+00  7.7306498047804761e-02 -1.0402912724326381e-01 0.0000000000000000e+00  9.3722346342870466e-02 -9.5323673962440014e-02 0.0000000000000000e+00  1.0870243234161799e-01 -8.3996445700660408e-02 0.0000000000000000e+00  1.2238633867799449e-01 -7.0147526670667149e-02 0.0000000000000000e+00  1.3544725237540758e-01 -5.3590833839335265e-02 0.0000000000000000e+00  1.4846592737171296e-01 -2.9399233561561686e-02 0.0000000000000000e+00  1.6477350094608265e-01 1.3641861172197168e-02 0.0000000000000000e+00  0.0000000000000000e+00 0.0000000000000000e+00 0.0000000000000000e+00  -2.7950976073610164e-03 -3.4108897390864701e-02 0.0000000000000000e+00  -6.6997579051530235e-03 -6.0427290107340895e-02 0.0000000000000000e+00  -8.1431263157028377e-03 -8.1548381428232272e-02 0.0000000000000000e+00  -6.2373523407448705e-03 -9.8436067521127435e-02 0.0000000000000000e+00  -1.1429428507104531e-03 -1.1141505559286248e-01 0.0000000000000000e+00  6.6080032396205147e-03 -1.2057316859277037e-01 0.0000000000000000e+00  1.6376640589805480e-02 -1.2591614501157358e-01 0.0000000000000000e+00  2.7524992630873168e-02 -1.2742979240687310e-01 0.0000000000000000e+00  3.9440323015902883e-02 -1.2511147627062388e-01 0.0000000000000000e+00  5.1518302242217026e-02 -1.1899598544670183e-01 0.0000000000000000e+00  6.3102849914120004e-02 -1.0918021194588380e-01 0.0000000000000000e+00  7.3541942886878320e-02 -9.5853762577833665e-02 0.0000000000000000e+00  8.1918909355461464e-02 -7.9617654662740969e-02 0.0000000000000000e+00  8.6417091063042697e-02 -6.0597180231543944e-02 0.0000000000000000e+00  9.1121658899581515e-02 -3.7785024801563566e-02 0.0000000000000000e+00  6.5026438457517280e-02 -1.2904969469247251e-02 0.0000000000000000e+00  0.0000000000000000e+00 3.4191283047805734e-18 0.0000000000000000e+00  0.0000000000000000e+00 -3.1396101268282177e-02 0.0000000000000000e+00  0.0000000000000000e+00 -5.8606055700793393e-02 0.0000000000000000e+00  0.0000000000000000e+00 -8.1629863297533661e-02 0.0000000000000000e+00  0.0000000000000000e+00 -1.0046752405850295e-01 0.0000000000000000e+00  0.0000000000000000e+00 -1.1511903798370131e-01 0.0000000000000000e+00  0.0000000000000000e+00 -1.2558440507312871e-01 0.0000000000000000e+00  0.0000000000000000e+00 -1.3186362532678514e-01 0.00