<?xml version="1.0"?>
<VTKFile type="UnstructuredGrid"  version="0.1"  >
<UnstructuredGrid>
<Piece  NumberOfPoints="289" NumberOfCells="512">
<Points>
<DataArray  type="Float64"  NumberOfComponents="3"  format="ascii">0 0 0  0.0625 0 0  0.125 0 0  0.1875 0 0  0.25 0 0  0.3125 0 0  0.375 0 0  0.4375 0 0  0.5 0 0  0.5625 0 0  0.625 0 0  0.6875 0 0  0.75 0 0  0.8125 0 0  0.875 0 0  0.9375 0 0  1 0 0  0 0.0625 0  0.06247290426116568 0.06246910038731734 0  0.1249458366144538 0.06243766350688567 0  0.1874188968461069 0.06240519236339653 0  0.2498924718957246 0.06237130758192689 0  0.3123674304688626 0.0623358230455015 0  0.3748453912965315 0.06229884008454462 0  0.4373291091804498 0.06226086079649613 0  0.4998230523933868 0.06222291278705724 0  0.5623343105365698 0.06218666251909116 0  0.6248741280860599 0.06215446914107125 0  0.6874607551766212 0.06212929178858747 0  0.7501253718949303 0.06211430938443149 0  0.8129258405564224 0.06211204668300901 0  0.875981743269027 0.06212274783160675 0  0.9395694420796545 0.06214198133286286 0  1.00438364304634 0.06216313181497594 0  0 0.125 0  0.06244580568977173 0.1249387129257907 0  0.1248915483029835 0.1248762916420203 0  0.1873373016898335 0.1248116763922475 0  0.2497836879009225 0.1247440290584395 0  0.3122322518514897 0.1246728802321411 0  0.374685979639406 0.1245983182353615 0  0.4371500415779423 0.1245212258080658 0  0.4996328855685905 0.1244435564086478 0  0.5621478951150706 0.1243686152756621 0  0.6247160094550133 0.124301263210631 0  0.6873700850572404 0.1242478869170662 0  0.7501625398465561 0.1242158843310016 0  0.8131791226386536 0.1242123580754421 0  0.8765627948725959 0.1242419719228458 0  0.9405474195060189 0.1243055020841398 0  1.005471854810355 0.1244054172357183 0  0 0.1875 0  0.06241888386672129 0.1874094503139433 0  0.1248373698520656 0.1873170612708907 0  0.1872552419680713 0.1872210893069673 0  0.2496730244701365 0.1871200869775038 0  0.3120924938336113 0.1870131100990693 0  0.3745173906510895 0.186899997458133 0  0.4369544343929248 0.1867817420403518 0  0.4994147830242001 0.1866609594146748 0  0.5619161403367664 0.1865424281517985 0  0.6244858042795113 0.1864336146875821 0  0.6871650587700097 0.1863449779040322 0  0.7500153289076325 0.1862896359148159 0  0.8131259659072307 0.1862815670044441 0  0.8766208784755412 0.186330539608766 0  0.9406530749137583 0.1864288939771805 0  1.005360481877416 0.1865141694358943 0  0 0.25 0  0.06239255858828992 0.2498820315167023 0  0.1247840500062087 0.2497613770729269 0  0.1871736022177486 0.2496354473657068 0  0.2495611703327758 0.2495019752622257 0  0.3119481221545163 0.2493592603629109 0  0.3743380645570754 0.249206522526998 0  0.4367380262069581 0.2490444062072474 0  0.499160138502282 0.2488756738531826 0  0.5616239762933306 0.2487061067349613 0  0.6241597037386667 0.2485455761177024 0  0.686812040941405 0.2484091222332381 0  0.7496446307954725 0.2483176231057406 0  0.812743216758032 0.2482971514900481 0  0.8762134273545001 0.2483752802806647 0  0.9401645822885468 0.2485715376365002 0  1.004668042427805 0.2488803321249983 0  0 0.3125 0  0.06236756072361772 0.3123573129542301 0  0.1247330106725068 0.3122109429879629 0  0.1870944075013578 0.3120572764575661 0  0.249450590945561 0.3118929791179009 0  0.3118017637457587 0.3117152400261053 0  0.3741503412630913 0.3115221597939075 0  0.4365021998287224 0.3113133553661833 0  0.498868478529172 0.3110908706312559 0  0.5612680931055862 0.3108604930252423 0  0.623731058939191 0.3106335614856337 0  0.6863025014666636 0.3104292688528923 0  0.7490466987836509 0.3102772320922023 0  0.8120494584294773 0.3102195982759604 0  0.875415609819811 0.3103110417181045 0  0.9392575804783657 0.3106137912393878 0  1.003675277349416 0.3111841696437844 0  0 0.375 0  0.06234495313890771 0.3748362951749615 0  0.1246864017270031 0.3746677847904054 0  0.1870209381501165 0.3744896708598892 0  0.2493457433656102 0.3742973056313812 0  0.3116590738323937 0.3740863796371953 0  0.3739610303356228 0.3738532761336458 0  0.4362547618168258 0.373595694502265 0  0.4985483032131221 0.3733136922491854 0  0.5608572820521627 0.3730113575274603 0  0.6232087116338731 0.3726993912776921 0  0.6856459339795814 0.3723989113228779 0  0.7482343516287651 0.3721466871817815 0  0.8110667879014494 0.3720015579035695 0  0.8742663618772781 0.3720506438798105 0  0.9379849328260582 0.3724119222632752 0  1.002399657885759 0.3732273448821099 0  0 0.4375 0  0.0623260937704141 0.4373200962235878 0  0.1246470344297646 0.4371342041284581 0  0.1869576486418259 0.4369362452767115 0  0.2492530062005926 0.4367200681145291 0  0.3115287143995969 0.4364795114933173 0  0.373781481837578 0.4362086274828423 0  0.436010131531545 0.43590218382922 0  0.498217334979151 0.4355566454266427 0  0.5604124602843591 0.4351719609282199 0  0.622616057941889 0.4347546703998268 0  0.6848665789511166 0.4343230972345761 0  0.7472297799997419 0.433915605556099 0  0.8098106931773281 0.433602789437936 0  0.8727669591428497 0.4335033136596319 0  0.9363216885305303 0.4338000182496071 0  1.000777411192675 0.4347482324105376 0  0 0.5 0  0.06231253800680665 0.4998098850289873 0  0.1246181860525747 0.499612647558754 0  0.1869098761292959 0.4994009469686314 0  0.2491803017126993 0.4991670620192405 0  0.3114219177824604 0.4989027588731149 0  0.3736271519964283 0.4985992679426116 0  0.4357890186770836 0.498247479397754 0  0.4979024783354315 0.4978385661285548 0  0.5599671363596025 0.4973654249349383 0  0.6219922600727558 0.4968256526428898 0  0.68400560818988 0.4962273275664718 0  0.7460680577078551 0.4955997021895036 0  0.8082959834815748 0.4950118229957398 0  0.8708918714982367 0.4946019718914597 0  0.9341804734958765 0.494616829554026 0  0.9986481760107188 0.4954485181446683 0  0 0.5625 0  0.06230588313292269 0.5623067732340039 0  0.1246032784405284 0.5621054840341412 0  0.1868833355638884 0.5618877085212823 0  0.2491363916229842 0.5616442846059054 0  0.3113515876397168 0.5613649301008684 0  0.3735165703076144 0.5610378708141147 0  0.4356174378762195 0.5606495370472421 0  0.4976392848588334 0.5601844753602454 0  0.5595680844890693 0.5596258115202981 0  0.6213953630513689 0.5589570023736538 0  0.6831283464473433 0.5581664560979276 0  0.7448100610853695 0.5572582920265914 0  0.8065556549643121 0.556275551438675 0  0.8686105266497461 0.5553460566526317 0  0.9314279910513967 0.5547603557461399 0  0.9957487355486487 0.5550729254704552 0  0 0.625 0  0.06230756479618974 0.6248116721232637 0  0.1246054472118442 0.6246147018336562 0  0.1868834168210576 0.6243999505423368 0  0.2491298433746157 0.6241571923779315 0  0.3113308812257018 0.6238744675023694 0  0.3734695375223136 0.6235373102369549 0  0.4355246756342022 0.6231278183529732 0  0.4974701877423925 0.6226235641663925 0  0.5592750068951685 0.6219964552761152 0  0.6209056118768045 0.6212119577988533 0  0.682334754630385 0.6202299316691068 0  0.7435641353413569 0.6190105749364453 0  0.8046751474655166 0.6175347725961066 0  0.8659275141925774 0.6158612801224377 0  0.9279165801881872 0.6142602949624193 0  0.9917690329199992 0.6134373282297358 0  0 0.6875 0  0.06231862510490388 0.6873251315599156 0  0.1246270390952765 0.6871415590773617 0  0.186914333062091 0.6869399853067665 0  0.2491677099235752 0.6867097599146411 0  0.3113712657557536 0.6864380117093181 0  0.3735044012921818 0.6861085163871272 0  0.4355397253008374 0.6857001551894688 0  0.4974403784978787 0.6851847647502932 0  0.5591569951729805 0.6845241117628911 0  0.6206254262552846 0.6836656945774608 0  0.6817688501610742 0.6825372956398053 0  0.7425142326221095 0.6810415807966935 0  0.8028475872464476 0.6790580829736824 0  0.8629587625434328 0.6764838433632411 0  0.9235326395160175 0.673424749199119 0  0.9861389282021593 0.6706638982427089 0  0 0.75 0  0.06233948351116139 0.7498471875526761 0  0.1246691022623992 0.7496862451979168 0  0.1869782213631605 0.749508417910023 0  0.2492540553976478 0.7493034882661193 0  0.3114801828334476 0.7490587946827292 0  0.3736344522231562 0.748757886620985 0  0.4356859099839285 0.7483785840242556 0  0.497590226028424 0.7478900685251331 0  0.5592829618934072 0.747248379584169 0  0.620670196668795 0.7463892119619635 0  0.6816175053758897 0.7452160141916695 0  0.7419443610872741 0.7435798681061001 0  0.8014519026628829 0.7412464018172147 0  0.8600775517418587 0.7378544201811825 0  0.9184404484815062 0.7329766776731437 0  0.9784495614787444 0.7274363364358537 0  0 0.8125 0  0.06236975228495782 0.8123772506810727 0  0.1247309624202969 0.8122476256292619 0  0.1870743571351955 0.8121036747002174 0  0.2493885814844523 0.811936581854444 0  0.3116586903025741 0.8117352228923618 0  0.3738639070085867 0.8114848408675901 0  0.4359741037925809 0.8111650829212402 0  0.497944063429598 0.810746976915602 0  0.5597038829729736 0.8101881109437624 0  0.6211427142363316 0.8094246225931453 0  0.6820814543402879 0.8083570731801031 0  0.7422295377975984 0.8068233090775218 0  0.8011304974465215 0.8045404818157782 0  0.8581636652931537 0.8009682676374916 0  0.9130221273593833 0.7949626709711192 0  0.9700692851320869 0.7837061122507232 0  0 0.875 0  0.06240814303034653 0.8749140657832551 0  0.1248099932177848 0.8748231399827161 0  0.1871986879048515 0.8747217911950386 0  0.249565720779187 0.8746035315215649 0  0.3118997134672712 0.8744600772685506 0  0.3741845280176216 0.8742802984036581 0  0.4363961716988716 0.8740486528668309 0  0.4984974559745088 0.8737427876334718 0  0.5604283473167125 0.8733298062319139 0  0.6220877452132544 0.8727604051404262 0  0.6832975906533082 0.8719594848852036 0  0.7437296041925694 0.8708099442182622 0  0.8027526779724445 0.8691178790381455 0  0.8591190580514234 0.8665078740167007 0  0.9103736875990862 0.8620311794793787 0  0.9520399175447612 0.852674388500923 0  0 0.9375 0  0.06245250335202143 0.9374557626692183 0  0.1249016769807805 0.9374089008519922 0  0.187343882672507 0.9373565520527165 0  0.2497745842787827 0.9372952788956393 0  0.312187667312561 0.9372206644839947 0  0.3745743769696551 0.937126736275354 0  0.4369215403760283 0.93
[...]
<PointData  Vectors="f_95-0"> 
<DataArray  type="Float64"  Name="f_95-0"  NumberOfComponents="3" format="ascii">0.0000000000000000e+00 0.0000000000000000e+00 0.0000000000000000e+00  -6.4767759703057834e-04 -1.1714143679756320e-02 0.0000000000000000e+00  -1.8109368061710307e-03 -1.0349020424605695e-02 0.0000000000000000e+00  -3.2032596310356451e-03 -2.7108952598306111e-03 0.0000000000000000e+00  -4.8395027887586008e-03 6.9400057022744877e-03 0.0000000000000000e+00  -6.6805078686562663e-03 1.5994176903106443e-02 0.0000000000000000e+00  -8.6794395853353693e-03 2.3086569467184959e-02 0.0000000000000000e+00  -1.0775522659792222e-02 2.7712054210786229e-02 0.0000000000000000e+00  -1.2896055930248285e-02 2.9903465151505486e-02 0.0000000000000000e+00  -1.4957178478036607e-02 2.9983186437827970e-02 0.0000000000000000e+00  -1.6863537867463443e-02 2.8389449743956137e-02 0.0000000000000000e+00  -1.8506604406949692e-02 2.5566807991528471e-02 0.0000000000000000e+00  -1.9764798707352489e-02 2.1908822107371762e-02 0.0000000000000000e+00  -2.0481674171037138e-02 1.7720217004935281e-02 0.0000000000000000e+00  -2.0458648549803355e-02 1.3256144170611796e-02 0.0000000000000000e+00  -1.9782566866145792e-02 8.7522995593046094e-03 0.0000000000000000e+00  -9.0178602488461684e-03 8.6357056777864542e-03 0.0000000000000000e+00  0.0000000000000000e+00 0.0000000000000000e+00 0.0000000000000000e+00  -5.0183386632588107e-04 -1.0702940142874488e-02 0.0000000000000000e+00  -1.5712168219457995e-03 -9.0686052507921392e-03 0.0000000000000000e+00  -2.9162318223488314e-03 -1.1922846667464461e-03 0.0000000000000000e+00  -4.5202728887126327e-03 8.6722104122236594e-03 0.0000000000000000e+00  -6.3395779204775023e-03 1.7906137377605019e-02 0.0000000000000000e+00  -8.3279499787419081e-03 2.5129229724001927e-02 0.0000000000000000e+00  -1.0423345134818178e-02 2.9822546686737370e-02 0.0000000000000000e+00  -1.2553148844249278e-02 3.2006000865390002e-02 0.0000000000000000e+00  -1.4634502223639427e-02 3.1989037271147394e-02 0.0000000000000000e+00  -1.6574008021285586e-02 3.0196249585460438e-02 0.0000000000000000e+00  -1.8267495661855419e-02 2.7057407687720750e-02 0.0000000000000000e+00  -1.9599248539353908e-02 2.2945117164299093e-02 0.0000000000000000e+00  -2.0437928435681988e-02 1.8144113831448479e-02 0.0000000000000000e+00  -2.0689902077801869e-02 1.2839785450282771e-02 0.0000000000000000e+00  -1.9954024410647052e-02 7.0138152485972691e-03 0.0000000000000000e+00  -1.9827663320246946e-02 2.4000006607710019e-03 0.0000000000000000e+00  0.0000000000000000e+00 0.0000000000000000e+00 0.0000000000000000e+00  -3.0809003571493867e-04 -9.9634283980813039e-03 0.0000000000000000e+00  -1.1467160323851335e-03 -7.9374886609279386e-03 0.0000000000000000e+00  -2.3623664954788796e-03 2.3054312982723847e-04 0.0000000000000000e+00  -3.9000161596579488e-03 1.0349195505023934e-02 0.0000000000000000e+00  -5.7013424757532656e-03 1.9794512001794724e-02 0.0000000000000000e+00  -7.7091121242761533e-03 2.7173190319713377e-02 0.0000000000000000e+00  -9.8544407867532935e-03 3.1955267140119190e-02 0.0000000000000000e+00  -1.2061829192066598e-02 3.4150207881417212e-02 0.0000000000000000e+00  -1.4247958251590706e-02 3.4056643305392986e-02 0.0000000000000000e+00  -1.6321297128319319e-02 3.2088007429189422e-02 0.0000000000000000e+00  -1.8182779976740965e-02 2.8663751365984678e-02 0.0000000000000000e+00  -1.9730261203688246e-02 2.4150287503820887e-02 0.0000000000000000e+00  -2.0873187912952465e-02 1.8836446178861602e-02 0.0000000000000000e+00  -2.1544766632787767e-02 1.2932017708052553e-02 0.0000000000000000e+00  -2.1821745856312955e-02 6.6545453337534047e-03 0.0000000000000000e+00  -2.1532365118983359e-02 5.1555364997911120e-04 0.0000000000000000e+00  0.0000000000000000e+00 0.0000000000000000e+00 0.0000000000000000e+00  -1.7023025479205361e-04 -9.4803613844416726e-03 0.0000000000000000e+00  -7.8552327347352637e-04 -7.0012647327995416e-03 0.0000000000000000e+00  -1.8609047403475435e-03 1.5531090427302948e-03 0.0000000000000000e+00  -3.3497235589746059e-03 1.2000670547345155e-02 0.0000000000000000e+00  -5.1817528472947617e-03 2.1713298645815598e-02 0.0000000000000000e+00  -7.2810236595714471e-03 2.9291471734800734e-02 0.0000000000000000e+00  -9.5666460824278075e-03 3.4199173479667645e-02 0.0000000000000000e+00  -1.1955649059431521e-02 3.6439151380083426e-02 0.0000000000000000e+00  -1.4360263666210692e-02 3.6301706966575413e-02 0.0000000000000000e+00  -1.6685982031985857e-02 3.4191197176418844e-02 0.0000000000000000e+00  -1.8831709596546471e-02 3.0520707120302033e-02 0.0000000000000000e+00  -2.0695544650831128e-02 2.5659312036148522e-02 0.0000000000000000e+00  -2.2185640312502093e-02 1.9916568153003095e-02 0.0000000000000000e+00  -2.3242736289051696e-02 1.3557781716312865e-02 0.0000000000000000e+00  -2.3804569482246154e-02 6.8115138832583128e-03 0.0000000000000000e+00  -2.3819530984612626e-02 -5.5244812162389107e-05 0.0000000000000000e+00  0.0000000000000000e+00 0.0000000000000000e+00 0.0000000000000000e+00  -8.0191865986614956e-05 -9.1799600040221672e-03 0.0000000000000000e+00  -5.4755479958875871e-04 -6.2268178534431442e-03 0.0000000000000000e+00  -1.5362796903751279e-03 2.8061784583679602e-03 0.0000000000000000e+00  -3.0311501081933334e-03 1.3674855207276276e-02 0.0000000000000000e+00  -4.9570687251683258e-03 2.3730468425492732e-02 0.0000000000000000e+00  -7.2216155146112952e-03 3.1568176799898491e-02 0.0000000000000000e+00  -9.7306738355823416e-03 3.6650809891500623e-02 0.0000000000000000e+00  -1.2391531571849428e-02 3.8978494962214151e-02 0.0000000000000000e+00  -1.5108879082018497e-02 3.8834969245338254e-02 0.0000000000000000e+00  -1.7779872930197005e-02 3.6615290566862739e-02 0.0000000000000000e+00  -2.0291693676644910e-02 3.2724896854524413e-02 0.0000000000000000e+00  -2.2524572849663659e-02 2.7533404691124457e-02 0.0000000000000000e+00  -2.4360681799082105e-02 2.1365435732258561e-02 0.0000000000000000e+00  -2.5692316931801892e-02 1.4508110867013941e-02 0.0000000000000000e+00  -2.6422825607250330e-02 7.2154107223951222e-03 0.0000000000000000e+00  -2.6493713384447223e-02 -3.1903629521586567e-04 0.0000000000000000e+00  0.0000000000000000e+00 0.0000000000000000e+00 0.0000000000000000e+00  -3.1410297867858707e-05 -8.9908963763578719e-03 0.0000000000000000e+00  -4.2979837232749089e-04 -5.5407615579970574e-03 0.0000000000000000e+00  -1.4050502731171267e-03 4.0523439326323107e-03 0.0000000000000000e+00  -2.9668423419184236e-03 1.5431299106186486e-02 0.0000000000000000e+00  -5.0370004706599596e-03 2.5907071115930765e-02 0.0000000000000000e+00  -7.5111805966947467e-03 3.4067361354508670e-02 0.0000000000000000e+00  -1.0284726467839482e-02 3.9377641823959052e-02 0.0000000000000000e+00  -1.3257228067271308e-02 4.1838582974452990e-02 0.0000000000000000e+00  -1.6326476712253509e-02 4.1727535894973425e-02 0.0000000000000000e+00  -1.9379569727785362e-02 3.9426940745153467e-02 0.0000000000000000e+00  -2.2286579454469952e-02 3.5328179064517934e-02 0.0000000000000000e+00  -2.4900665350879186e-02 2.9792538201512512e-02 0.0000000000000000e+00  -2.7065774097010119e-02 2.3147731825334385e-02 0.0000000000000000e+00  -2.8632180666148629e-02 1.5698162434360879e-02 0.0000000000000000e+00  -2.9477446845943448e-02 7.7254539056967018e-03 0.0000000000000000e+00  -2.9545817445152701e-02 -5.2207825249728603e-04 0.0000000000000000e+00  0.0000000000000000e+00 0.0000000000000000e+00 0.0000000000000000e+00  -1.5116667829859348e-05 -8.8484035543923787e-03 0.0000000000000000e+00  -4.1036728329336665e-04 -4.8670799916139835e-03 0.0000000000000000e+00  -1.4335087922364782e-03 5.3537227791515454e-03 0.0000000000000000e+00  -3.1006152511940518e-03 1.7312979006330300e-02 0.0000000000000000e+00  -5.3261338173648210e-03 2.8269064724311822e-02 0.0000000000000000e+00  -7.9969320838189830e-03 3.6802233942552373e-02 0.0000000000000000e+00  -1.1003687207464356e-02 4.2384646198255285e-02 0.0000000000000000e+00  -1.4245143755624955e-02 4.5020196534476919e-02 0.0000000000000000e+00  -1.7618494512404725e-02 4.4978656572772245e-02 0.0000000000000000e+00  -2.1005510637800904e-02 4.2624257669288977e-02 0.0000000000000000e+00  -2.4261652154988145e-02 3.8325153279815463e-02 0.0000000000000000e+00  -2.7213439559607033e-02 3.2422868716767438e-02 0.0000000000000000e+00  -2.9667152803862000e-02 2.5238617851048594e-02 0.0000000000000000e+00  -3.1430792887879554e-02 1.7093513447363849e-02 0.0000000000000000e+00  -3.2350616825578923e-02 8.3215355249511187e-03 0.0000000000000000e+00  -3.2365259471511962e-02 -7.5797663228746679e-04 0.0000000000000000e+00  0.0000000000000000e+00 0.0000000000000000e+00 0.0000000000000000e+00  -2.5092391099950853e-05 -8.7019430369326377e-03 0.0000000000000000e+00  -4.6772292386418313e-04 -4.1467775190136393e-03 0.0000000000000000e+00  -1.5755455787532129e-03 6.7479245545563173e-03 0.0000000000000000e+00  -3.3462572104061557e-03 1.9322377717918247e-02 0.0000000000000000e+00  -5.6777033028164985e-03 3.0782272232941370e-02 0.0000000000000000e+00  -8.4502626988680034e-03 3.9707318062916518e-02 0.0000000000000000e+00  -1.1559018554268085e-02 4.5583603584545038e-02 0.0000000000000000e+00  -1.4914084508123239e-02 4.8421915017233606e-02 0.0000000000000000e+00  -1.8425044923951032e-02 4.8483071961407727e-02 0.0000000000000000e+00  -2.1980857780277360e-02 4.6106749303676066e-02 0.0000000000000000e+00  -2.5434343624509106e-02 4.1626916190534893e-02 0.0000000000000000e+00  -2.8595760257416492e-02 3.5352177011952722e-02 0.0000000000000000e+00  -3.1240934185179321e-02 2.7587319425486114e-02 0.0000000000000000e+00  -3.3136116330018874e-02 1.8667133233089082e-02 0.0000000000000000e+00  -3.4082264719870345e-02 8.9799935747244333e-03 0.0000000000000000e+00  -3.3968364022636366e-02 -1.0638084030579447e-03 0.0000000000000000e+00  0.0000000000000000e+00 0.0000000000000000e+00 0.0000000000000000e+00  -6.1246402585371130e-05 -8.5081510580109088e-03 0.0000000000000000e+00  -5.9520243010002761e-04 -3.3372558555796136e-03 0.0000000000000000e+00  -1.8023151289014955e-03 8.2398092896701636e-03 0.0000000000000000e+00  -3.6287220113892294e-03 2.1406604042544870e-02 0.0000000000000000e+00  -5.9426185952509642e-03 3.3332306791271624e-02 0.0000000000000000e+00  -8.6212973654770046e-03 4.2614042746015282e-02 0.0000000000000000e+00  -1.1577819104701632e-02 4.8764971446983420e-02 0.0000000000000000e+00  -1.4752085394333571e-02 5.1808971780410877e-02 0.0000000000000000e+00  -1.8086225594386822e-02 5.1997355496247490e-02 0.0000000000000000e+00  -2.1497719839911358e-02 4.9638392587975658e-02 0.0000000000000000e+00  -2.4858136807358051e-02 4.5021127348589131e-02 0.0000000000000000e+00  -2.7980845381287388e-02 3.8411829189564602e-02 0.0000000000000000e+00  -3.0632387340286508e-02 3.0088225244246578e-02 0.0000000000000000e+00  -3.2551284226571275e-02 2.0379555452196486e-02 0.0000000000000000e+00  -3.3482311973515047e-02 9.7074925340968794e-03 0.0000000000000000e+00  -3.3197907738393997e-02 -1.4348212023191638e-03 0.0000000000000000e+00  0.0000000000000000e+00 0.0000000000000000e+00 0.0000000000000000e+00  -1.3449924560856940e-04 -8.2170177986947944e-03 0.0000000000000000e+00  -8.1697372982469398e-04 -2.3999037322207919e-03 0.0000000000000000e+00  -2.1305845357807093e-03 9.8053768934057550e-03 0.0000000000000000e+00  -3.9233258466337762e-03 2.3452021827184557e-02 0.0000000000000000e+00  -6.0182437943525841e-03 3.5712005805013228e-02 0.0000000000000000e+00  -8.2971865387560725e-03 4.5233222705877263e-02 0.0000000000000000e+00  -1.0711607260884895e-02 5.1576763810875691e-02 0.0000000000000000e+00  -1.3256760245638185e-02 5.4788664427266161e-02 0.0000000000000000e+00  -1.5935045724073421e-02 5.5110773177755992e-02 0.0000000000000000e+00  -1.8721281111137102e-02 5.2814620122666030e-02 0.0000000000000000e+00  -2.1533218346949205e-02 4.8137893826612578e-02 0.0000000000000000e+00  -2.4220731645305939e-02 4.1293055275089058e-02 0.0000000000000000e+00  -2.6581616560506567e-02 3.2512664675907056e-02 0.0000000000000000e+00  -2.8358244284343720e-02 2.2114203543012863e-02 0.0000000000000000e+00  -2.9271805109528978e-02 1.0524071023142244e-02 0.0000000000000000e+00  -2.8923718485092977e-02 -1.7597313990491878e-03 0.0000000000000000e+00  0.0000000000000000e+00 0.0000000000000000e+00 0.0000000000000000e+00  -2.7313799915882524e-04 -7.7482287848410682e-03 0.0000000000000000e+00  -1.2050675498038671e-03 -1.2755480110824145e-03 0.0000000000000000e+00  -2.6492969818610376e-03 1.1406442397354140e-02 0.0000000000000000e+00  -4.2915938578099895e-03 2.5288884295186297e-02 0.0000000000000000e+00  -5.8962764537232879e-03 3.7620224201516242e-02 0.0000000000000000e+00  -7.3669640305747209e-03 4.7151818082433038e-02 0.0000000000000000e+00  -8.7236292706522681e-03 5.3520864566887143e-02 0.0000000000000000e+00  -1.0049941874936338e-02 5.6805745255271343e-02 0.0000000000000000e+00  -1.1441579193429759e-02 5.7239148059484476e-02 0.0000000000000000e+00  -1.2962481901827414e-02 5.5051420890811643e-02 0.0000000000000000e+00  -1.4613098387267733e-02 5.0416582849695912e-02 0.0000000000000000e+00  -1.6323015811821769e-02 4.3481728592809313e-02 0.0000000000000000e+00  -1.7944029487504488e-02 3.4473588141567299e-02 0.0000000000000000e+00  -1.9304940901796946e-02 2.3748653959967857e-02 0.0000000000000000e+00  -2.0281095159301203e-02 1.1606788415340191e-02 0.0000000000000000e+00  -2.0243859478081116e-02 -1.7561157709226291e-03 0.0000000000000000e+00  0.0000000000000000e+00 0.0000000000000000e+00 0.0000000000000000e+00  -5.2865552563158475e-04 -6.9580912623518074e-03 0.0000000000000000e+00  -1.8899316411748427e-03 1.4674899286187712e-04 0.0000000000000000e+00  -3.5309525021203349e-03 1.3010448517965241e-02 0.0000000000000000e+00  -4.8976776594281740e-03 2.6705555990569379e-02 0.0000000000000000e+00  -5.6959956832070141e-03 3.8678905353434191e-02 0.0000000000000000e+00  -5.8858941255901780e-03 4.7857760001794605e-02 0.0000000000000000e+00  -5.5971434715273386e-03 5.3986185567884738e-02 0.0000000000000000e+00  -5.0387211099031911e-03 5.7181828501313335e-02 0.0000000000000000e+00  -4.4310906007126128e-03 5.7665651611533503e-02 0.0000000000000000e+00  -3.9605850480290980e-03 5.5618903378024019e-02 0.0000000000000000e+00  -3.7516850804886950e-03 5.1142651437453501e-02 0.0000000000000000e+00  -3.8285633872271823e-03 4.4330540977164469e-02 0.0000000000000000e+00  -4.1158904830030209e-03 3.5405428799600222e-02 0.0000000000000000e+00  -4.6863685242000564e-03 2.4722703946696012e-02 0.0000000000000000e+00  -5.6888436305643454e-03 1.2626697243555477e-02 0.0000000000000000e+00  -6.7295090421383387e-03 -8.3694891435980880e-04 0.0000000000000000e+00  0.0000000000000000e+00 0.0000000000000000e+00 0.0000000000000000e+00  -9.7329825748421975e-04 -5.6040454437891922e-03 0.0000000000000000e+00  -3.0399118016994362e-03 2.0518271250165535e-03 0.0000000000000000e+00  -4.9883224733284900e-03 1.4603850495043364e-02 0.0000000000000000e+00  -5.9619953023065508e-03 2.7473388215362198e-02 0.0000000000000000e+00  -5.6459943687964462e-03 3.8483259386341562e-02 0.0000000000000000e+00  -4.1151350855847934e-03 4.6818566093432289e-02 0.0000000000000000e+00  -1.6555075613306717e-03 5.2351700746840167e-02 0.0000000000000000e+00  1.3698727280541437e-03 5.5235235671599762e-02 0.0000000000000000e+00  4.5972063556947215e-03 5.5669547902669279e-02 0.0000000000000000e+00  7.6958308331709947e-03 5.3782413970329908e-02 0.0000000000000000e+00  1.0396679424531822e-02 4.9597867167939784e-02 0.0000000000000000e+00  1.2545716125958678e-02 4.3089830212544686e-02 0.0000000000000000e+00  1.4065833416793785e-02 3.4357197617009311e-02 0.0000000000000000e+00  1.4953000171102305e-02 2.4219563979148800e-02 0.0000000000000000e+00  1.4777198543841007e-02 1.4123403860485726e-02 0.0000000000000000e+00  1.2176597471589959e-02 1.6958996126815856e-03 0.0000000000000000e+00  0.0000000000000000e+00 0.0000000000000000e+00 0.0000000000000000e+00  -1.6675944085643879e-03 -3.3472204368051395e-03 0.0000000000000000e+00  -4.7439211665115284e-03 4.6627556737988685e-03 0.0000000000000000e+00  -7.0860520939027890e-03 1.6172213364510357e-02 0.0000000000000000e+00  -7.5631360644159238e-03 2.7386180431038177e-02 0.0000000000000000e+00  -5.9431400793122204e-03 3.6713301181234850e-02 0.0000000000000000e+00  -2.4886819737633108e-03 4.3656721143285789e-02 0.0000000000000000e+00  2.3301383264671535e-03 4.8209753714441479e-02 0.0000000000000000e+00  8.0005274730052152e-03 5.0535630208130129e-02 0.0000000000000000e+00  1.4034073163310404e-02 5.0798698788690533e-02 0.0000000000000000e+00  1.9978286920255231e-02 4.9076378806507025e-02 0.0000000000000000e+00  2.5419497752051951e-02 4.5319678652418309e-02 0.0000000000000000e+00  2.9972424416970511e-02 3.9374019074038459e-02 0.0000000000000000e+00  3.3409126477325350e-02 3.1246453639560526e-02 0.0000000000000000e+00  3.6155091261594420e-02 2.1639733343048931e-02 0.0000000000000000e+00  3.7844250941429132e-02 1.3054830806575735e-02 0.0000000000000000e+00  3.3064482094730605e-02 4.9885366567839640e-03 0.0000000000000000e+00  0.0000000000000000e+00 0.0000000000000000e+00 0.0000000000000000e+00  -2.5208806925319971e-03 1.3231447291501571e-04 0.0000000000000000e+00  -6.6394417728012555e-03 8.0732612092812850e-03 0.0000000000000000e+00  -9.2276717394654990e-03 1.7634772926231668e-02 0.0000000000000000e+00  -9.1364822825501131e-03 2.6356871996943934e-02 0.0000000000000000e+00  -6.3791847562850645e-03 3.3377447832747487e-02 0.0000000000000000e+00  -1.4349397665267764e-03 3.8502049456173262e-02 0.0000000000000000e+00  5.0891898517573999e-03 4.1791222314582065e-02 0.0000000000000000e+00  1.2608494220841265e-02 4.3374209566349242e-02 0.0000000000000000e+00  2.0598332495334055e-02 4.3359758122771076e-02 0.0000000000000000e+00  2.8575400298563886e-02 4.1786039678522825e-02 0.0000000000000000e+00  3.6043805037896046e-02 3.8581237136988598e-02 0.0000000000000000e+00  4.2452574494176630e-02 3.3546712264393000e-02 0.0000000000000000e+00  4.7424110578629546e-02 2.6358511764836234e-02 0.0000000000000000e+00  5.0651428857428876e-02 1.6707435687431858e-02 0.0000000000000000e+00  5.2396529220079958e-02 6.3198941930266107e-03 0.0000000000000000e+00  5.5617567874815706e-02 1.7288838615469250e-03 0.0000000000000000e+00  0.0000000000000000e+00 0.0000000000000000e+00 0.0000000000000000e+00  -2.8451247093668618e-03 4.5615259846922039e-03 0.0000000000000000e+00  -6.9325901282787849e-03 1.1714916899918368e-02 0.0000000000000000e+00  -9.0046983171525822e-03 1.8695803252545218e-02 0.0000000000000000e+00  -8.4633228276803345e-03 2.4624755374707732e-02 0.0000000000000000e+00  -5.6083723443909042e-03 2.9265257270186334e-02 0.0000000000000000e+00  -9.6837777631548876e-04 3.2596009978442732e-02 0.0000000000000000e+00  4.9243175665691502e-03 3.4660271970437320e-02 0.0000000000000000e+00  1.1610119174290497e-02 3.5512002856932935e-02 0.0000000000000000e+00  1.8703634737715004e-02 3.5192459892909853e-02 0.0000000000000000e+00  2.5858903596888066e-02 3.3715439299263766e-02 0.0000000000000000e+00  3.2701884399418742e-02 3.1052998716290518e-02 0.0000000000000000e+00  3.8767883154531078e-02 2.7108637368981246e-02 0.0000000000000000e+00  4.3255208332222003e-02 2.1591155052625398e-02 0.0000000000000000e+00  4.4805049173371261e-02 1.4245969850247635e-02 0.0000000000000000e+00  4.3639954622811693e-02 4.7580522114866169e-03 0.0000000000000000e+00  2.5256788822940843e-02 -6.4745051157965574e-03 0.0000000000000000e+00  0.0000000000000000e+00 -8.5473511508064579e-19 0.0000000000000000e+00  0.0000000000000000e+00 7.3437441541715776e-03 0.0000000000000000e+00  0.0000000000000000e+00 1.3708322421120281e-02 0.0000000000000000e+00  0.0000000000000000e+00 1.9093734800846106e-02 0.0000000000000000e+00  0.0000000000000000e+00 2.3499981293349050e-02 0.0000000000000000e+00  0.0000000000000000e+00 2.6927061898629125e-02 0.0000000000000000e+00  0.0000000000000000e+00 2.9374976616686314e-02 0.0000000000000000e+00  0.0000000000000000e+00 3.0843725447520631e-02 0.0000000000000000e+00  0.0000000000000000e+00 3.13333083