<?xml version="1.0"?>
<VTKFile type="UnstructuredGrid"  version="0.1"  >
<UnstructuredGrid>
<Piece  NumberOfPoints="289" NumberOfCells="512">
<Points>
<DataArray  type="Float64"  NumberOfComponents="3"  format="ascii">0 0 0  0.0625 0 0  0.125 0 0  0.1875 0 0  0.25 0 0  0.3125 0 0  0.375 0 0  0.4375 0 0  0.5 0 0  0.5625 0 0  0.625 0 0  0.6875 0 0  0.75 0 0  0.8125 0 0  0.875 0 0  0.9375 0 0  1 0 0  0 0.0625 0  0.0625208890926879 0.06246215242471725 0  0.1250435741940569 0.06242363064795018 0  0.1875700068858787 0.06238380193729224 0  0.2501025509357269 0.06234216964603349 0  0.3126442490921813 0.06229846006068324 0  0.3751991778110265 0.0622527296924926 0  0.4377729499060347 0.0622054921825499 0  0.5003734746492647 0.06215785244982447 0  0.5630122001774157 0.06211161346820134 0  0.6257063475827885 0.06206927910244146 0  0.6884833918485815 0.06203379473489885 0  0.7513911240309951 0.06200768950129377 0  0.8145227844144254 0.06199081706278389 0  0.8780860240637706 0.0619744066997879 0  0.942608408490712 0.06192377305074628 0  1.009607087218998 0.06172243280409275 0  0 0.125 0  0.06253996703133245 0.1249249334392218 0  0.1250833545754167 0.1248484471473395 0  0.1876338848663711 0.124769197815315 0  0.2501960794213599 0.1246860990634241 0  0.3127757774248041 0.1245984911552417 0  0.3753808228018022 0.1245063583256901 0  0.4380220247620501 0.1244105985215887 0  0.5007145667316527 0.1243133321322333 0  0.5634801848718145 0.1242182004944212 0  0.6263507497399565 0.1241305403892824 0  0.6893745512154129 0.1240572152464007 0  0.7526279437553187 0.1240057418616916 0  0.8162373611188102 0.1239822848157314 0  0.8804186267121442 0.1239887503106658 0  0.9455295866042961 0.1240237665338475 0  1.012043796695514 0.1241146150579132 0  0 0.1875 0  0.06255568445847193 0.1873891123490189 0  0.1251160578110638 0.1872759315058091 0  0.1876862280416854 0.1871582617088823 0  0.2502724156895941 0.1870342511517763 0  0.3128826755918298 0.1869026324369182 0  0.3755278477261436 0.1867630476238088 0  0.4382228607065335 0.1866164790776061 0  0.5009885656158676 0.1864657906565461 0  0.5638543665708092 0.1863163460958114 0  0.6268620499369372 0.1861765965111785 0  0.6900713717758968 0.1860583930342151 0  0.7535679259331778 0.1859765480397899 0  0.8174726423020164 0.1859467568748216 0  0.881946825275348 0.1859800422684137 0  0.9471690197101569 0.1860684875105669 0  1.01322067338464 0.1861415242178787 0  0 0.25 0  0.06256685363328257 0.2498555834209105 0  0.1251391588318694 0.2497078332990979 0  0.1877228593086106 0.2495535118554986 0  0.250325210971557 0.249389755770213 0  0.3129556372154682 0.2492143616196278 0  0.3756268553453737 0.2490262007347948 0  0.438356402629472 0.2488258132365534 0  0.5011687168262248 0.2486162270849037 0  0.5640979381294023 0.248404025499916 0  0.6271915490350476 0.2482006238878582 0  0.690514722217731 0.2480235784971374 0  0.7541544591379448 0.2478974710065382 0  0.8182204781285666 0.2478533913262065 0  0.8828349225428586 0.2479251197491815 0  0.9480944277550025 0.2481388431917114 0  1.013982764048225 0.2484943075956201 0  0 0.3125 0  0.06257277666616951 0.3123254016420273 0  0.1251511666222101 0.3121462520938677 0  0.187741293189397 0.311958062441161 0  0.2503506483528858 0.3117566671974975 0  0.312988998758426 0.3115385099935126 0  0.3756695950676003 0.3113011028417216 0  0.4384108244841983 0.3110437463850572 0  0.5012384623459104 0.3107686201740333 0  0.564188656734453 0.3104823671434079 0  0.6273116503610499 0.310198282678573 0  0.6906758625827359 0.3099391271531788 0  0.7543710628863173 0.3097403165988586 0  0.818507623538912 0.3096526524403741 0  0.8832062269851135 0.3097426527366298 0  0.9485708742628576 0.3100870216551063 0  1.014645573215774 0.3107568334034483 0  0 0.375 0  0.06257331918184733 0.3747997896997656 0  0.1251517860777697 0.3745936627307088 0  0.1877410144470742 0.3743756920287162 0  0.2503478793510776 0.374140119434918 0  0.3129813794618242 0.3738815757199221 0  0.3756538274687008 0.3735955025504192 0  0.4383825381441794 0.3732789017178434 0  0.5011922242814286 0.3729315952140909 0  0.5641183264820632 0.3725582569741713 0  0.6272114308507857 0.3721715601311502 0  0.6905426465701684 0.3717968225622124 0  0.7542091390599237 0.3714783957831405 0  0.8183378182080555 0.3712874521579489 0  0.883083889615452 0.3713293795696138 0  0.9486217873445673 0.3717465267445618 0  1.015134493768749 0.372709596255034 0  0 0.4375 0  0.06256892079982371 0.4372801055423611 0  0.1251419483698487 0.4370528596024463 0  0.1877235472603745 0.4368107861307416 0  0.25031916148968 0.4365463096182337 0  0.3129359249482618 0.4362518266037017 0  0.3755837047539845 0.4359199724097002 0  0.4382766901805676 0.4355442315324186 0  0.501035841657931 0.4351201381711121 0  0.5638926448747569 0.4346474702068359 0  0.626894742616753 0.4341340725744472 0  0.6901140478106499 0.433602240935219 0  0.7536576826595867 0.4330988268642293 0  0.8176813041106031 0.4327099732645 0  0.8824032381561632 0.4325797505982369 0  0.948118350120097 0.4329279624248962 0  1.015218928482581 0.4340573788377781 0  0 0.5 0  0.06256053833045018 0.4997677623244893 0  0.1251237003885434 0.499526799687035 0  0.1876922991793226 0.4992681131337868 0  0.2502696773033048 0.498982233191625 0  0.3128601454656258 0.4986590564193655 0  0.3754697118488102 0.4982878177359901 0  0.4381073466783967 0.4978573362276232 0  0.5007872109160768 0.4973567967025372 0  0.5635325854802837 0.4967775580217141 0  0.6263827093310047 0.4961168872699612 0  0.6894043574570199 0.4953852043718115 0  0.7527105555942748 0.4946194231960342 0  0.8164887174226477 0.4939059309802334 0  0.8810387986757613 0.4934160194329967 0  0.9468198519121698 0.4934504386952774 0  1.014510892143565 0.4944760976674016 0  0 0.5625 0  0.06254952189600069 0.5622640986234296 0  0.1250999505467063 0.5620183359236537 0  0.1876521677524196 0.5617524091377984 0  0.2502070025986115 0.5614551116184463 0  0.3127652813281058 0.5611138671133683 0  0.3753280473596512 0.5607142807101149 0  0.4378971760154581 0.5602397835969608 0  0.5004768610878382 0.5596715636613668 0  0.5630769462572487 0.5589892192919692 0  0.6257199982066274 0.5581730947688985 0  0.6884555969733223 0.5572103448226666 0  0.7513875983839347 0.5561089477045943 0  0.814722201141675 0.5549276679733547 0  0.8788432257175015 0.5538341033855384 0  0.9444118212469758 0.5531985485891774 0  1.012481064715933 0.5537027321169921 0  0 0.625 0  0.06253743027764933 0.6247702066949761 0  0.1250740791285479 0.6245298535454115 0  0.1876089089176639 0.6242677816941713 0  0.2501401906336426 0.6239715033488593 0  0.3126650841235729 0.6236264135836503 0  0.3751791724020502 0.6232148535771342 0  0.43767606191499 0.6227149908924243 0  0.5001474088770066 0.6220995335864888 0  0.5625843179481309 0.6213344477227847 0  0.6249823731889849 0.6203782730185495 0  0.6873553284357409 0.6191837849282855 0  0.749767770408107 0.6177068356677639 0  0.8124052376824782 0.6159351232356355 0  0.8757056673360453 0.6139669989347568 0  0.9405571492672232 0.6121872416515929 0  1.008536594338323 0.6115243453864259 0  0 0.6875 0  0.06252580139553 0.6872867388908064 0  0.1250494417559596 0.6870628498546471 0  0.1875682983504615 0.6868169925667531 0  0.2500784796067569 0.6865361721005553 0  0.3125739355893035 0.6862046789941276 0  0.3750452337197147 0.6858027077550927 0  0.4374778910685719 0.6853044818318869 0  0.4998502674084065 0.684675654415395 0  0.5621314435462473 0.683869695696986 0  0.6242807781264421 0.6828229984205033 0  0.6862542932297974 0.6814488687249092 0  0.7480317658261258 0.6796327379528163 0  0.8096983288028547 0.6772399680181572 0  0.8716490753662849 0.6741829027729497 0  0.9349684295330654 0.6707099279087765 0  1.001848953642855 0.6680455290492018 0  0 0.75 0  0.06251590688398949 0.7498137241413264 0  0.1250288254493327 0.7496175261098386 0  0.1875351754778158 0.7494007347956249 0  0.2500297316682353 0.7491508885229802 0  0.3125043848844071 0.7488525321096483 0  0.3749462846876393 0.7484855665286814 0  0.4373349723109167 0.7480228657963897 0  0.4996379520219054 0.747426708216636 0  0.5618040448881561 0.7466432709866365 0  0.6237542253033965 0.7455938957243627 0  0.6853718799157769 0.7441608627679708 0  0.7465031807159338 0.7421639546097197 0  0.8070080098091655 0.7393240131029545 0  0.866996744238236 0.7352273393401656 0  0.9276494800972207 0.7294667193721786 0  0.9917580202423391 0.7235456693650977 0  0 0.8125 0  0.06250853316392618 0.8123504333828299 0  0.1250139515610529 0.8121924786992094 0  0.1875125346429317 0.8120170604675828 0  0.2499988624175125 0.8118134284592857 0  0.3124644741552889 0.8115679991883248 0  0.3748957480912161 0.8112627203759485 0  0.4372703884354612 0.8108726362034708 0  0.4995514378003428 0.810362122188345 0  0.56167689792512 0.8096788637386766 0  0.6235416745291152 0.8087438435189155 0  0.6849668651614016 0.8074337504719833 0  0.7456518173475533 0.8055475214463067 0  0.8051196092734074 0.8027362482793611 0  0.8627554045365706 0.7983445187658694 0  0.9185202297113576 0.7910539403987562 0  0.9794782867623187 0.7781952036004675 0  0 0.875 0  0.06250383904864984 0.8748953309466236 0  0.1250051431850791 0.874784575289771 0  0.1875008882416753 0.874661120521234 0  0.2499866659817677 0.8745170575314295 0  0.3124555592234695 0.8743422689429401 0  0.3748963041195991 0.8741231243655175 0  0.4372901088189909 0.873840518500572 0  0.4996048982241981 0.8734668312403006 0  0.5617844789357934 0.8729611294535196 0  0.6237273519319656 0.8722614874770491 0  0.685243881366503 0.8712723910038785 0  0.7459678754534451 0.8698423572089365 0  0.805175102745984 0.8677146744631121 0  0.861432425707676 0.8643785506960201 0  0.9120301112172668 0.858524857605182 0  0.952465181009106 0.8461563367494949 0  0 0.9375 0  0.06250133428590308 0.9374461363942764 0  0.1250012663144106 0.9373890746264595 0  0.1874981265333971 0.9373253323037225 0  0.2499894834041979 0.9372507215881546 0  0.31247151669652 0.9371598495112581 0  0.3749379782822085 0.9370453996604964 0  0.4373783544842807 0.9368970537789335
[...]
<PointData  Vectors="f_95-0"> 
<DataArray  type="Float64"  Name="f_95-0"  NumberOfComponents="3" format="ascii">0.0000000000000000e+00 0.0000000000000000e+00 0.0000000000000000e+00  -6.2309024469700937e-04 2.0337813859499728e-02 0.0000000000000000e+00  -1.7636195990742827e-03 4.2708465085819984e-02 0.0000000000000000e+00  -3.1558257537946843e-03 6.2073634702751429e-02 0.0000000000000000e+00  -4.7995263318536246e-03 7.6358415402862048e-02 0.0000000000000000e+00  -6.6468593989961067e-03 8.5065278586093140e-02 0.0000000000000000e+00  -8.6516230802534226e-03 8.8599324637916796e-02 0.0000000000000000e+00  -1.0763532995834780e-02 8.7789809468438382e-02 0.0000000000000000e+00  -1.2927475829200520e-02 8.3583549622620296e-02 0.0000000000000000e+00  -1.5081032928053744e-02 7.6869864733808010e-02 0.0000000000000000e+00  -1.7151389797453401e-02 6.8401109194120735e-02 0.0000000000000000e+00  -1.9051010791859710e-02 5.8774319550589336e-02 0.0000000000000000e+00  -2.0676289632309879e-02 4.8450510624153620e-02 0.0000000000000000e+00  -2.1878766226166302e-02 3.7768087553826601e-02 0.0000000000000000e+00  -2.2440247464307322e-02 2.7022515214125790e-02 0.0000000000000000e+00  -2.2414727628989911e-02 1.6699783884820001e-02 0.0000000000000000e+00  -1.0914843666793997e-02 1.1288943102793700e-02 0.0000000000000000e+00  0.0000000000000000e+00 0.0000000000000000e+00 0.0000000000000000e+00  -5.2485335008884554e-04 2.1343791212707706e-02 0.0000000000000000e+00  -1.6776300800084578e-03 4.4030896556607552e-02 0.0000000000000000e+00  -3.1606388312054516e-03 6.3666573659413708e-02 0.0000000000000000e+00  -4.9263584858789105e-03 7.8174885704506411e-02 0.0000000000000000e+00  -6.9136916154789053e-03 8.7056301208948306e-02 0.0000000000000000e+00  -9.0722321157005268e-03 9.0711638983846613e-02 0.0000000000000000e+00  -1.1347422071313661e-02 8.9965572387536330e-02 0.0000000000000000e+00  -1.3680996723134985e-02 8.5757773886644947e-02 0.0000000000000000e+00  -1.6007238227466889e-02 7.8966785016832616e-02 0.0000000000000000e+00  -1.8249640764918293e-02 7.0330057552173753e-02 0.0000000000000000e+00  -2.0318561110020561e-02 6.0425087526045806e-02 0.0000000000000000e+00  -2.2108708550488167e-02 4.9680536096710644e-02 0.0000000000000000e+00  -2.3487297179461308e-02 3.8394276417230172e-02 0.0000000000000000e+00  -2.4359881124316387e-02 2.6746775899292641e-02 0.0000000000000000e+00  -2.4240836522456784e-02 1.4673577353913841e-02 0.0000000000000000e+00  -2.4322856716818265e-02 4.2494459952862971e-03 0.0000000000000000e+00  0.0000000000000000e+00 0.0000000000000000e+00 0.0000000000000000e+00  -4.5285025227736466e-04 2.2240038309011636e-02 0.0000000000000000e+00  -1.6532317858715816e-03 4.5447434683799581e-02 0.0000000000000000e+00  -3.3647484487116046e-03 6.5449430853992727e-02 0.0000000000000000e+00  -5.4633415420884757e-03 8.0241174608508381e-02 0.0000000000000000e+00  -7.8525607435739938e-03 8.9336307969463430e-02 0.0000000000000000e+00  -1.0459659396902255e-02 9.3138903461387673e-02 0.0000000000000000e+00  -1.3215274766611744e-02 9.2472979445007139e-02 0.0000000000000000e+00  -1.6049534708235984e-02 8.8272229767618143e-02 0.0000000000000000e+00  -1.8884823769796062e-02 8.1404198191630833e-02 0.0000000000000000e+00  -2.1631876153607357e-02 7.2591770900753416e-02 0.0000000000000000e+00  -2.4189036908111968e-02 6.2396346994928784e-02 0.0000000000000000e+00  -2.6446282330462253e-02 5.1232044539365480e-02 0.0000000000000000e+00  -2.8298895697637969e-02 3.9387539391989031e-02 0.0000000000000000e+00  -2.9653809718070669e-02 2.7041126217469468e-02 0.0000000000000000e+00  -3.0457574750384023e-02 1.4294902842528339e-02 0.0000000000000000e+00  -3.0585697934258339e-02 1.5363776417595023e-03 0.0000000000000000e+00  0.0000000000000000e+00 0.0000000000000000e+00 0.0000000000000000e+00  -4.7650147795965726e-04 2.3139793155073373e-02 0.0000000000000000e+00  -1.8367575455078492e-03 4.7062090645802176e-02 0.0000000000000000e+00  -3.9078842345399642e-03 6.7594378439226402e-02 0.0000000000000000e+00  -6.5208599680538840e-03 8.2781419941143838e-02 0.0000000000000000e+00  -9.5401699681642339e-03 9.2167114498192398e-02 0.0000000000000000e+00  -1.2860012663931348e-02 9.6172064170589489e-02 0.0000000000000000e+00  -1.6388004273995869e-02 9.5625072825064619e-02 0.0000000000000000e+00  -2.0033901501031234e-02 9.1454636209077109e-02 0.0000000000000000e+00  -2.3698267398704877e-02 8.4515614969919217e-02 0.0000000000000000e+00  -2.7266486838175490e-02 7.5514832129169360e-02 0.0000000000000000e+00  -3.0608662326866619e-02 6.5000403250305344e-02 0.0000000000000000e+00  -3.3588428972235615e-02 5.3384352199846850e-02 0.0000000000000000e+00  -3.6077440674441144e-02 4.0974512219016747e-02 0.0000000000000000e+00  -3.7979565575618331e-02 2.8000639671614917e-02 0.0000000000000000e+00  -3.9204538771321920e-02 1.4582907764081963e-02 0.0000000000000000e+00  -3.9725135191808029e-02 8.6326866841644908e-04 0.0000000000000000e+00  0.0000000000000000e+00 0.0000000000000000e+00 0.0000000000000000e+00  -5.6429450529307172e-04 2.4169786127735921e-02 0.0000000000000000e+00  -2.2084680015675750e-03 4.9001120243496843e-02 0.0000000000000000e+00  -4.7699214243214954e-03 7.0251314099203030e-02 0.0000000000000000e+00  -8.0533575770194328e-03 8.5982963625040432e-02 0.0000000000000000e+00  -1.1890129068303732e-02 9.5773825742428778e-02 0.0000000000000000e+00  -1.6143092998341407e-02 1.0006897976257159e-01 0.0000000000000000e+00  -2.0693883409356968e-02 9.9706108498561583e-02 0.0000000000000000e+00  -2.5425867074890127e-02 9.5607743958955632e-02 0.0000000000000000e+00  -3.0208696952513932e-02 8.8611550577846018e-02 0.0000000000000000e+00  -3.4888792299898823e-02 7.9402341729264192e-02 0.0000000000000000e+00  -3.9287877948520067e-02 6.8510789340725756e-02 0.0000000000000000e+00  -4.3213144440726999e-02 5.6347986243480447e-02 0.0000000000000000e+00  -4.6478507880127258e-02 4.3248915507264618e-02 0.0000000000000000e+00  -4.8938549846271003e-02 2.9496123823066545e-02 0.0000000000000000e+00  -5.0509773385258215e-02 1.5298216650445815e-02 0.0000000000000000e+00  -5.1268856695915785e-02 7.3413171987483960e-04 0.0000000000000000e+00  0.0000000000000000e+00 0.0000000000000000e+00 0.0000000000000000e+00  -6.9282035461195777e-04 2.5417105526413561e-02 0.0000000000000000e+00  -2.7067904368004801e-03 5.1374974586216010e-02 0.0000000000000000e+00  -5.8573321561853154e-03 7.3543968945150737e-02 0.0000000000000000e+00  -9.9248684306821357e-03 8.9993068596385617e-02 0.0000000000000000e+00  -1.4715338898358450e-02 1.0033386539622312e-01 0.0000000000000000e+00  -2.0067329733266914e-02 1.0503898534914603e-01 0.0000000000000000e+00  -2.5838219249707414e-02 1.0495543226114587e-01 0.0000000000000000e+00  -3.1882788729898970e-02 1.0099541510263683e-01 0.0000000000000000e+00  -3.8033307071420927e-02 9.3970553238009000e-02 0.0000000000000000e+00  -4.4085240376971216e-02 8.4531691106295728e-02 0.0000000000000000e+00  -4.9792354234256847e-02 7.3179283067935377e-02 0.0000000000000000e+00  -5.4877309126036618e-02 6.0313482633163829e-02 0.0000000000000000e+00  -5.9060791109243109e-02 4.6295421459499837e-02 0.0000000000000000e+00  -6.2122890290712739e-02 3.1487926335816943e-02 0.0000000000000000e+00  -6.3970469378896472e-02 1.6235956603170898e-02 0.0000000000000000e+00  -6.4781467617249164e-02 7.1880407050735199e-04 0.0000000000000000e+00  0.0000000000000000e+00 0.0000000000000000e+00 0.0000000000000000e+00  -8.3972135769592906e-04 2.6934204519773304e-02 0.0000000000000000e+00  -3.2618968993718685e-03 5.4252691317390016e-02 0.0000000000000000e+00  -7.0458964228312789e-03 7.7549554981698104e-02 0.0000000000000000e+00  -1.1950225862477510e-02 9.4904522505596597e-02 0.0000000000000000e+00  -1.7764890231109481e-02 1.0596503117877107e-01 0.0000000000000000e+00  -2.4313273890634274e-02 1.1123108832290304e-01 0.0000000000000000e+00  -3.1433645945653982e-02 1.1155513672712701e-01 0.0000000000000000e+00  -3.8953518133966483e-02 1.0783072552304519e-01 0.0000000000000000e+00  -4.6665022329111447e-02 1.0083046331572995e-01 0.0000000000000000e+00  -5.4305074003098995e-02 9.1153219716942221e-02 0.0000000000000000e+00  -6.1544700106446408e-02 7.9246410946950605e-02 0.0000000000000000e+00  -6.7995204883509866e-02 6.5477033119034023e-02 0.0000000000000000e+00  -7.3242871227286288e-02 5.0225215907761411e-02 0.0000000000000000e+00  -7.6940772080159175e-02 3.3959302149074201e-02 0.0000000000000000e+00  -7.8930274173301063e-02 1.7239872972778299e-02 0.0000000000000000e+00  -7.9489346688455378e-02 4.6825745035802759e-04 0.0000000000000000e+00  0.0000000000000000e+00 0.0000000000000000e+00 0.0000000000000000e+00  -9.8418623997779302e-04 2.8733766370431565e-02 0.0000000000000000e+00  -3.8021469749013868e-03 5.7646464786986887e-02 0.0000000000000000e+00  -8.1971203338098344e-03 8.2280443586336724e-02 0.0000000000000000e+00  -1.3914724556832030e-02 1.0073928590526403e-01 0.0000000000000000e+00  -2.0741345040099612e-02 1.1270999817597475e-01 0.0000000000000000e+00  -2.8495908927341589e-02 1.1871706188103898e-01 0.0000000000000000e+00  -3.7004862730228870e-02 1.1961080645544073e-01 0.0000000000000000e+00  -4.6072482916069614e-02 1.1625495755473164e-01 0.0000000000000000e+00  -5.5452731282085249e-02 1.0936738368535312e-01 0.0000000000000000e+00  -6.4824104975574726e-02 9.9471922686595118e-02 0.0000000000000000e+00  -7.3768509583664793e-02 8.6931978160382367e-02 0.0000000000000000e+00  -8.1763998734625906e-02 7.2046320095558614e-02 0.0000000000000000e+00  -8.8216988304296112e-02 5.5182634836695464e-02 0.0000000000000000e+00  -9.2572006889358280e-02 3.6915024054386153e-02 0.0000000000000000e+00  -9.4495499152609616e-02 1.8104470155437716e-02 0.0000000000000000e+00  -9.4269252695472192e-02 -4.2709891982063605e-04 0.0000000000000000e+00  0.0000000000000000e+00 0.0000000000000000e+00 0.0000000000000000e+00  -1.1063080188057181e-03 3.0790489653964890e-02 0.0000000000000000e+00  -4.2555270382200281e-03 6.1506747369569438e-02 0.0000000000000000e+00  -9.1653220663145442e-03 8.7672670906000685e-02 0.0000000000000000e+00  -1.5583918029874822e-02 1.0743287140142008e-01 0.0000000000000000e+00  -2.3309368885475166e-02 1.2051686655522395e-01 0.0000000000000000e+00  -3.2168218592416538e-02 1.2746729013887190e-01 0.0000000000000000e+00  -4.1983225338543706e-02 1.2912165426979755e-01 0.0000000000000000e+00  -5.2541438888154282e-02 1.2630129619848929e-01 0.0000000000000000e+00  -6.3565940456643419e-02 1.1965406501725386e-01 0.0000000000000000e+00  -7.4685965450448005e-02 1.0960775836113626e-01 0.0000000000000000e+00  -8.5402774241106691e-02 9.6407280292692063e-02 0.0000000000000000e+00  -9.5061523547284615e-02 8.0221867113686424e-02 0.0000000000000000e+00  -1.0285170003309325e-01 6.1331688769589346e-02 0.0000000000000000e+00  -1.0789361569276247e-01 4.0390934228922697e-02 0.0000000000000000e+00  -1.0951134956385783e-01 1.8638538595250446e-02 0.0000000000000000e+00  -1.0777885772790469e-01 -2.4825792619127150e-03 0.0000000000000000e+00  0.0000000000000000e+00 0.0000000000000000e+00 0.0000000000000000e+00  -1.1880338990800448e-03 3.3042474990273484e-02 0.0000000000000000e+00  -4.5542722877261153e-03 6.5720198634547602e-02 0.0000000000000000e+00  -9.8072653950944059e-03 9.3578018735095858e-02 0.0000000000000000e+00  -1.6716653281402868e-02 1.1481957743061304e-01 0.0000000000000000e+00  -2.5109091620820468e-02 1.2921689979411105e-01 0.0000000000000000e+00  -3.4831258623971802e-02 1.3732003793548198e-01 0.0000000000000000e+00  -4.5710286009599629e-02 1.3993973729931272e-01 0.0000000000000000e+00  -5.7522888984802241e-02 1.3784280351576711e-01 0.0000000000000000e+00  -6.9971249581556400e-02 1.3159814235056774e-01 0.0000000000000000e+00  -8.2654466062643067e-02 1.2152467080147837e-01 0.0000000000000000e+00  -9.5030023863672375e-02 1.0771229455309082e-01 0.0000000000000000e+00  -1.0634508612759934e-01 9.0133487801362266e-02 0.0000000000000000e+00  -1.1555875402097160e-01 6.8894604728537673e-02 0.0000000000000000e+00  -1.2137710259304525e-01 4.4603447172876801e-02 0.0000000000000000e+00  -1.2256898316523007e-01 1.8787022105746214e-02 0.0000000000000000e+00  -1.1863007280845413e-01 -6.1873798062180140e-03 0.0000000000000000e+00  0.0000000000000000e+00 0.0000000000000000e+00 0.0000000000000000e+00  -1.2170448777428864e-03 3.5396960328229490e-02 0.0000000000000000e+00  -4.6468669924531599e-03 7.0114606497570994e-02 0.0000000000000000e+00  -1.0002624072992348e-02 9.9762169415009108e-02 0.0000000000000000e+00  -1.7091899322152812e-02 1.2262091329442394e-01 0.0000000000000000e+00  -2.5786524113014637e-02 1.3850224331442818e-01 0.0000000000000000e+00  -3.5966036659028110e-02 1.4794777718896848e-01 0.0000000000000000e+00  -4.7469868676527666e-02 1.5172368639757258e-01 0.0000000000000000e+00  -6.0069918610632704e-02 1.5053138221653950e-01 0.0000000000000000e+00  -7.3457114065819132e-02 1.4485993296502112e-01 0.0000000000000000e+00  -8.7230333198852233e-02 1.3492228621684635e-01 0.0000000000000000e+00  -1.0085781013401830e-01 1.2065522108638026e-01 0.0000000000000000e+00  -1.1356257904587683e-01 1.0180355405599223e-01 0.0000000000000000e+00  -1.2419558205686609e-01 7.8103438702150627e-02 0.0000000000000000e+00  -1.3106471736422190e-01 4.9762413573645803e-02 0.0000000000000000e+00  -1.3199165422893452e-01 1.8515769461934756e-02 0.0000000000000000e+00  -1.2519750654894718e-01 -1.1828903557180775e-02 0.0000000000000000e+00  0.0000000000000000e+00 0.0000000000000000e+00 0.0000000000000000e+00  -1.1945341082412653e-03 3.7745844015633336e-02 0.0000000000000000e+00  -4.5200498172440658e-03 7.4475330165338985e-02 0.0000000000000000e+00  -9.6891968398591464e-03 1.0591231593490158e-01 0.0000000000000000e+00  -1.6554480784290559e-02 1.3044092022947812e-01 0.0000000000000000e+00  -2.5048509416043811e-02 1.4790889358296311e-01 0.0000000000000000e+00  -3.5098334387124334e-02 1.5882858893471022e-01 0.0000000000000000e+00  -4.6564782713561195e-02 1.6389839891617133e-01 0.0000000000000000e+00  -5.9219121538038225e-02 1.6374175839537081e-01 0.0000000000000000e+00  -7.2749222507327349e-02 1.5877405796812705e-01 0.0000000000000000e+00  -8.6775010194352964e-02 1.4913525817544940e-01 0.0000000000000000e+00  -1.0082256253407369e-01 1.3465446218796881e-01 0.0000000000000000e+00  -1.1426054845988012e-01 1.1481444497784317e-01 0.0000000000000000e+00  -1.2609646022954382e-01 8.8858975872133497e-02 0.0000000000000000e+00  -1.3427999946068811e-01 5.6513607925095917e-02 0.0000000000000000e+00  -1.3558663465314030e-01 1.9236834978486845e-02 0.0000000000000000e+00  -1.2653971975603603e-01 -1.8896990980158967e-02 0.0000000000000000e+00  0.0000000000000000e+00 0.0000000000000000e+00 0.0000000000000000e+00  -1.1464121089696862e-03 3.9997310285284839e-02 0.0000000000000000e+00  -4.2272888731265685e-03 7.8577687839981883e-02 0.0000000000000000e+00  -8.9055281972672731e-03 1.1165779345077090e-01 0.0000000000000000e+00  -1.5071996599636985e-02 1.3777400187984093e-01 0.0000000000000000e+00  -2.2738046543765576e-02 1.5681431392709705e-01 0.0000000000000000e+00  -3.1898392596249589e-02 1.6923650203946122e-01 0.0000000000000000e+00  -4.2448912040036688e-02 1.7564012012611044e-01 0.0000000000000000e+00  -5.4167300937613183e-02 1.7655151590691440e-01 0.0000000000000000e+00  -6.6740539990185574e-02 1.7231959119571807e-01 0.0000000000000000e+00  -7.9807080313619772e-02 1.6305404646435645e-01 0.0000000000000000e+00  -9.3000520636030495e-02 1.4854881942298720e-01 0.0000000000000000e+00  -1.0596801518003038e-01 1.2820513451582957e-01 0.0000000000000000e+00  -1.1800689408954368e-01 1.0107936704274079e-01 0.0000000000000000e+00  -1.2762151300239830e-01 6.5657928161439491e-02 0.0000000000000000e+00  -1.3153676019353580e-01 2.0717191534539221e-02 0.0000000000000000e+00  -1.2391315232731288e-01 -2.5393429324714663e-02 0.0000000000000000e+00  0.0000000000000000e+00 0.0000000000000000e+00 0.0000000000000000e+00  -1.1312301834901204e-03 4.2120139136945026e-02 0.0000000000000000e+00  -3.8988215754710820e-03 8.2227945607893232e-02 0.0000000000000000e+00  -7.8037900136059485e-03 1.1660114960670913e-01 0.0000000000000000e+00  -1.2765764226215072e-02 1.4403296657570411e-01 0.0000000000000000e+00  -1.8902493979242138e-02 1.6446660429590620e-01 0.0000000000000000e+00  -2.6302235846415403e-02 1.7827423236548651e-01 0.0000000000000000e+00  -3.4915557772361050e-02 1.8591715309895487e-01 0.0000000000000000e+00  -4.4540975732551905e-02 1.8779623092779038e-01 0.0000000000000000e+00  -5.4867286388808258e-02 1.8418791269140555e-01 0.0000000000000000e+00  -6.5548570013874985e-02 1.7519997330953391e-01 0.0000000000000000e+00  -7.6322804356836110e-02 1.6070246552857409e-01 0.0000000000000000e+00  -8.7023736752821323e-02 1.4021141681689586e-01 0.0000000000000000e+00  -9.7522329915843448e-02 1.1250551394027619e-01 0.0000000000000000e+00  -1.0792478317785571e-01 7.5408176640834823e-02 0.0000000000000000e+00  -1.1485170465034375e-01 2.6022603468611790e-02 0.0000000000000000e+00  -1.0350550530312401e-01 -2.7504848552405349e-02 0.0000000000000000e+00  0.0000000000000000e+00 0.0000000000000000e+00 0.0000000000000000e+00  -1.2067674282227893e-03 4.4184317802435126e-02 0.0000000000000000e+00  -3.6475514523955773e-03 8.5284393914064976e-02 0.0000000000000000e+00  -6.5249273117667398e-03 1.2035656302052462e-01 0.0000000000000000e+00  -9.8195442779152719e-03 1.4862210062234374e-01 0.0000000000000000e+00  -1.3786369233310230e-02 1.7008618917232832e-01 0.0000000000000000e+00  -1.8617813285666959e-02 1.8499668369186209e-01 0.0000000000000000e+00  -2.4333468385450623e-02 1.9363744564343768e-01 0.0000000000000000e+00  -3.0777051045103958e-02 1.9625330892353907e-01 0.0000000000000000e+00  -3.7665144521538289e-02 1.9302592943487537e-01 0.0000000000000000e+00  -4.4674823369128661e-02 1.8405983009373536e-01 0.0000000000000000e+00  -5.1558135821129475e-02 1.6935248785152843e-01 0.0000000000000000e+00  -5.8287053487369081e-02 1.4866994512538256e-01 0.0000000000000000e+00  -6.5677253626978113e-02 1.2136361723504167e-01 0.0000000000000000e+00  -7.4779319105703984e-02 8.6591922183839820e-02 0.0000000000000000e+00  -8.5393341381623925e-02 4.2825834863476860e-02 0.0000000000000000e+00  -1.0032071333192007e-01 -1.0204161828399569e-02 0.0000000000000000e+00  0.0000000000000000e+00 0.0000000000000000e+00 0.0000000000000000e+00  -1.2339899417599901e-03 4.6209264746187806e-02 0.0000000000000000e+00  -3.1160365924160528e-03 8.7529253821527292e-02 0.0000000000000000e+00  -4.6812753520775741e-03 1.2258408889392448e-01 0.0000000000000000e+00  -6.0722928895821319e-03 1.5110433493968284e-01 0.0000000000000000e+00  -7.6193164799330769e-03 1.7311327632291021e-01 0.0000000000000000e+00  -9.5461770479703233e-03 1.8870565811620446e-01 0.0000000000000000e+00  -1.1917840808405945e-02 1.9798000422605055e-01 0.0000000000000000e+00  -1.4652056283595652e-02 2.0102136736279144e-01 0.0000000000000000e+00  -1.7558673869874523e-02 1.9789985916315644e-01 0.0000000000000000e+00  -2.0392541683344673e-02 1.8867628052111779e-01 0.0000000000000000e+00  -2.2918809483327710e-02 1.7340224206183436e-01 0.0000000000000000e+00  -2.5130884749984792e-02 1.5210052890264134e-01 0.0000000000000000e+00  -2.7392360926129063e-02 1.2491484730075747e-01 0.0000000000000000e+00  -3.0210957709372793e-02 9.1626153855002598e-02 0.0000000000000000e+00  -3.7615441396171248e-02 5.1637989653482069e-02 0.0000000000000000e+00  -3.3201905337381848e-02 7.4905006952315136e-03 0.0000000000000000e+00  0.0000000000000000e+00 -6.8375121151068827e-18 0.0000000000000000e+00  0.0000000000000000e+00 4.7403339514168738e-02 0.0000000000000000e+00  0.0000000000000000e+00 8.8486233759781652e-02 0.0000000000000000e+00  0.0000000000000000e+00 1.2324868273683873e-01 0.0000000000000000e+00  0.0000000000000000e+00 1.5169068644533998e-01 0.0000000000000000e+00  0.0000000000000000e+00 1.7381224488528538e-01 0.0000000000000000e+00  0.0000000000000000e+00 1.8961335805667495e-01 0.0000000000000000e+00  0.0000000000000000e+00 1.9909402595950870e-01 0.0000000000000000e+00  0.0000000000000000e+00 