<?xml version="1.0"?>
<VTKFile type="UnstructuredGrid"  version="0.1"  >
<UnstructuredGrid>
<Piece  NumberOfPoints="289" NumberOfCells="512">
<Points>
<DataArray  type="Float64"  NumberOfComponents="3"  format="ascii">0 0 0  0.0625 0 0  0.125 0 0  0.1875 0 0  0.25 0 0  0.3125 0 0  0.375 0 0  0.4375 0 0  0.5 0 0  0.5625 0 0  0.625 0 0  0.6875 0 0  0.75 0 0  0.8125 0 0  0.875 0 0  0.9375 0 0  1 0 0  0 0.0625 0  0.06252678227958745 0.06249386126344288 0  0.1250540713651133 0.06248761548180677 0  0.1875823309490609 0.06248116600896159 0  0.2501119209220363 0.06247443953449943 0  0.3126430228949708 0.06246740104882378 0  0.3751755361015668 0.06246007225610969 0  0.4377089293598838 0.06245255334429951 0  0.5002420287218814 0.06244504621351924 0  0.5627727067546446 0.06243787397965619 0  0.6252974040174928 0.06243148609418855 0  0.6878103125916197 0.06242643021813368 0  0.7503017419348545 0.06242326180085741 0  0.8127541583650501 0.06242235599101805 0  0.8751306658844771 0.06242361146392074 0  0.9373360263598857 0.06242625403137065 0  0.9990681886878573 0.06243100719552908 0  0 0.125 0  0.06255304826454021 0.1249878295790425 0  0.1251071619858118 0.1249754339867873 0  0.1876633305920593 0.1249626074978733 0  0.2502223580386494 0.1249491884255374 0  0.3127847283905293 0.1249350882400458 0  0.3753504173658335 0.1249203285253889 0  0.4379186257651533 0.1249050865179733 0  0.5004874044366212 0.124889746962873 0  0.5630531291345744 0.1248749522146829 0  0.6256097593000737 0.1248616322197723 0  0.6881477560066668 0.1248509793778437 0  0.750652389849172 0.124844309627426 0  0.8131008464098181 0.1248427254929691 0  0.8754570679181906 0.1248464905266582 0  0.9376645291095924 0.1248540592971436 0  0.9996565861080637 0.1248601936312108 0  0 0.1875 0  0.06257824171872571 0.1874820237075965 0  0.1251581963951856 0.1874636834445549 0  0.1877414853926661 0.187444640886541 0  0.2503295003877802 0.1874246167715988 0  0.3129232321954416 0.1874034320346563 0  0.3755230269556769 0.1873810626237726 0  0.4381282391964881 0.1873577112139104 0  0.500736747614225 0.1873338960650529 0  0.5633442975137637 0.1873105506664673 0  0.6259436365371559 0.1872891145863947 0  0.6885234237123998 0.1872715712377503 0  0.7510669357803084 0.187260343701845 0  0.8135507501083861 0.1872578776926189 0  0.8759441882886034 0.1872655708872475 0  0.9382126312416719 0.1872812841477958 0  1.000335367661679 0.1872935705119616 0  0 0.25 0  0.06260172011850765 0.2499765830216415 0  0.1252059087265974 0.2499526359543926 0  0.1878149498319299 0.2499276560162875 0  0.2504310027818035 0.2499012051863958 0  0.3130558239504667 0.2498729590488151 0  0.3756905026770656 0.2498427763419879 0  0.4383350752014959 0.2498107968045268 0  0.5009879772363474 0.2497775738171277 0  0.5636452983824028 0.2497442439729109 0  0.626299818140639 0.2497127243971256 0  0.6889398500416364 0.2496859037757366 0  0.7515480308669278 0.2496677432150915 0  0.8141004406269076 0.2496631098738549 0  0.8765669967509161 0.2496770071962929 0  0.9389152522720552 0.2497126527956318 0  1.001121513052045 0.249767844356293 0  0 0.3125 0  0.06262273278030739 0.3124716740670602 0  0.1252487931970115 0.3124426226541843 0  0.1878814573938153 0.3124121429698405 0  0.2505238389930232 0.3123795893805973 0  0.3131787382620799 0.3123444226473444 0  0.3758483986849461 0.3123062867443392 0  0.4385341283943966 0.31226512662157 0  0.5012357368754422 0.3122213630837802 0  0.5639507345825258 0.3121761425769748 0  0.6266732526634213 0.3121316768802315 0  0.6893926767031586 0.3120916737153123 0  0.7520920788946994 0.3120618210158314 0  0.8147467246931273 0.3120502027774069 0  0.8773233047102788 0.312067363860378 0  0.9397812101931219 0.3121254914073139 0  1.002078108572208 0.3122358984582607 0  0 0.375 0  0.06264042276342276 0.3749674924302174 0  0.1252851041149851 0.3749340392471591 0  0.1879383106709347 0.3748987052277789 0  0.2506042688889611 0.3748605879245493 0  0.3132870799689843 0.3748188566195723 0  0.3759905445640606 0.3747728232272682 0  0.4387178496641221 0.374722064183804 0  0.5014710553902064 0.37466662056842 0  0.5642503034732982 0.3746073146483417 0  0.6270526563192107 0.3745462336262386 0  0.6898704747074728 0.3744874410602616 0  0.7526892698436223 0.3744379705037368 0  0.8154850508481455 0.3744091046412176 0  0.8782213803421409 0.3744177870753866 0  0.9408467124373051 0.3744876547140829 0  1.003293135062268 0.3746484954341065 0  0 0.4375 0  0.06265385715568626 0.4374642581373169 0  0.1253129151211158 0.4374273382460111 0  0.1879824662322124 0.4373880522255961 0  0.2506679418178855 0.4373452019364797 0  0.3133749320971162 0.4372975945273496 0  0.3761091322027781 0.4372440886093883 0  0.4388761669602941 0.4371836935301206 0  0.5016812245229603 0.4371157576119342 0  0.5645283979571839 0.4370403028188398 0  0.6274195939780818 0.4369585960718272 0  0.6903528208569508 0.4368740934917375 0  0.7533196183463423 0.4367939488553405 0  0.8163013523946419 0.436731315829495 0  0.8792640844901041 0.4367086155730465 0  0.9421517585267783 0.436761603307222 0  1.004877528416208 0.4369431448467244 0  0 0.5 0  0.06266208760676517 0.4999622031643384 0  0.125330242229984 0.4999230045001311 0  0.1880107233202464 0.499880964540051 0  0.2507101528577695 0.4998345742311118 0  0.3134356754653658 0.4997822327262088 0  0.3761950792868551 0.4997222468506793 0  0.438996840890618 0.4996528725218483 0  0.501850031196451 0.4995724350300002 0  0.5647639793846685 0.4994795945669928 0  0.6277475337050998 0.4993738747951719 0  0.6908076780315215 0.49925665966627 0  0.7539471564331555 0.4991330050235031 0  0.8171606141165897 0.4990148158049513 0  0.8804285464616942 0.4989261584667763 0  0.9437079683664272 0.4989114764578377 0  1.006918047624288 0.4990466231236703 0  0 0.5625 0  0.06266423922454155 0.5624615505723627 0  0.1253352279651333 0.5624215123922794 0  0.1880200153458903 0.562378227441438 0  0.2507262575183873 0.5623298980793481 0  0.3134625414518863 0.5622745163314852 0  0.3762387239699472 0.5622097966684034 0  0.4390662740228028 0.5621331233770216 0  0.5019585845664443 0.5620415381855817 0  0.5649311849188603 0.5619318227692455 0  0.6280017308937171 0.5618007881129863 0  0.6911895767583598 0.5616459959023163 0  0.7545146412619083 0.5614673582088506 0  0.8179951576175839 0.5612704788549224 0  0.881643652712909 0.5610733143704424 0  0.9454598124564866 0.5609186634618536 0  1.009417090747416 0.5608952174398292 0  0 0.625 0  0.06265962105215328 0.6249624863537394 0  0.1253263738616956 0.6249232664196298 0  0.1880077877115572 0.6248805339731355 0  0.2507122296487168 0.6248322736108857 0  0.3134493942810564 0.6247761377636227 0  0.3762308792457803 0.6247093019630933 0  0.439070873498358 0.6246282932005164 0  0.5019869793861033 0.6245287920465789 0  0.565001176531624 0.6244054247234835 0  0.6281409175642965 0.6242515997488804 0  0.691440338743087 0.6240595366464367 0  0.7549416212926253 0.6238208584934422 0  0.8186967406316822 0.6235286615937546 0  0.8827702116047569 0.6231832416100163 0  0.947243433403229 0.6228062455743387 0  1.012218909124766 0.6224712180920039 0  0 0.6875 0  0.06264784564437648 0.6874651270922625 0  0.1253027963499823 0.6874285313743835 0  0.1879724249090692 0.6873883667021284 0  0.2506653156774474 0.687342523007104 0  0.3133916928207033 0.6872884581309749 0  0.3761642097209329 0.6872229809441531 0  0.4389989756136863 0.6871419605376686 0  0.5019169150012758 0.6870399280612655 0  0.5649455820720197 0.6869095278427573 0  0.6281215976193048 0.6867407661478019 0  0.6914939853280234 0.6865200128682852 0  0.755129008049446 0.6862287847852029 0  0.8191180548032088 0.6858426709025025 0  0.883592545869637 0.6853320497934061 0  0.9487542139480781 0.6846707582243321 0  1.014930603471052 0.6838704259610409 0  0 0.75 0  0.06262893980774545 0.749969488545292 0  0.1252644686337933 0.749937363021284 0  0.187913667280943 0.7499018761868596 0  0.2505847001134234 0.7498609916195704 0  0.3132875194148573 0.7498121897459993 0  0.3760347937620897 0.7497522041404842 0  0.4388431847568299 0.7496766452044491 0  0.5017351477654935 0.7495794456355569 0  0.5647415095495326 0.7494520240256877 0  0.6279051975846776 0.7492819975888261 0  0.6912867239611064 0.7490511583785715 0  0.7549725925193307 0.7487322128680993 0  0.8190895647832958 0.7482834148287707 0  0.8838336278306822 0.7476398928583674 0  0.9495403873024518 0.7467028135572449 0  1.016853718354134 0.7453540093258649 0  0 0.8125 0  0.06260342504558872 0.8124754615841344 0  0.1252124022974488 0.8124495535059426 0  0.1878329395011516 0.8124207811939365 0  0.2504720620249223 0.8123873760887458 0  0.3131384988004038 0.812347105368918 0  0.3758436206343337 0.8122970044472143 0  0.4386027869633868 0.812232980824123 0  0.5014373380029308 0.8121492066058847 0  0.5643775975103437 0.8120371620724109 0  0.6274674508526685 0.8118840933661944 0  0.6907713773983294 0.8116704563623622 0  0.7543853879488738 0.8113655123272175 0  0.8184548797709114 0.8109192567375831 0  0.8832091504501924 0.8102461863637237 0  0.9490578838218198 0.8091887924484839 0  1.016994083670267 0.8074301737112265 0  0 0.875 0  0.06257234658801133 0.8749828019107834 0  0.1251487214470892 0.8749646060915927 0  0.187733506798884 0.8749443174830966 0  0.2503318834463669 0.8749206260814643 0  0.3129503846716762 0.8748918541504415 0  0.3755976763942138 0.8748557366865318 0  0.4382857158297949 0.8748090886744684 0  0.5010315338753245 0.8747472826451094 0  0.5638600438489889 0.8746634073066983 0  0.6268085368388217 0.8745468850470055 0  0.68993391623198 0.8743811582651717 0  0.7533242207076032 0.8741397254333167 0  0.8171162862087784 0.8737790138126446 0  0.8815207081108722 0.873223966353519 0  0.9468572747765274 0.8723312642890493 0  1.013708982705269 0.870758220848222 0  0 0.9375 0  0.06253723555916256 0.9374911382079001 0  0.1250765929570075 0.9374817501696601 0  0.1876203889246242 0.9374712562396297 0  0.2501713827370671 0.9374589583648639 0  0.3127330895424141 0.9374439547154011 0  0.3753102311925847 0.9374250153739712 0  0.4379094231765007 0.9
[...]
<PointData  Vectors="f_95-0"> 
<DataArray  type="Float64"  Name="f_95-0"  NumberOfComponents="3" format="ascii">0.0000000000000000e+00 0.0000000000000000e+00 0.0000000000000000e+00  6.8825932209574817e-04 -2.7871777366325838e-02 0.0000000000000000e+00  1.9396785822573405e-03 -5.3388874336971474e-02 0.0000000000000000e+00  3.4663475924739634e-03 -7.2971074762203519e-02 0.0000000000000000e+00  5.2523249980332082e-03 -8.5825273729308857e-02 0.0000000000000000e+00  7.2315878526325985e-03 -9.2408308125640923e-02 0.0000000000000000e+00  9.3408893879328089e-03 -9.3747588240348428e-02 0.0000000000000000e+00  1.1514528611401991e-02 -9.1016709686806335e-02 0.0000000000000000e+00  1.3684137084087878e-02 -8.5302624087871634e-02 0.0000000000000000e+00  1.5776508806404008e-02 -7.7501324216027734e-02 0.0000000000000000e+00  1.7710233742302052e-02 -6.8295608683641429e-02 0.0000000000000000e+00  1.9390955708517500e-02 -5.8178526954056113e-02 0.0000000000000000e+00  2.0707341726339305e-02 -4.7498175828692833e-02 0.0000000000000000e+00  2.1499872445379879e-02 -3.6486396626699183e-02 0.0000000000000000e+00  2.1582105276737845e-02 -2.5357372367326624e-02 0.0000000000000000e+00  2.1258582796371273e-02 -1.4003497027341974e-02 0.0000000000000000e+00  9.9817427956336528e-03 -8.8170387794157638e-03 0.0000000000000000e+00  0.0000000000000000e+00 0.0000000000000000e+00 0.0000000000000000e+00  5.9245979865237800e-04 -2.8971177131156958e-02 0.0000000000000000e+00  1.8933917412423118e-03 -5.4843537962532940e-02 0.0000000000000000e+00  3.5644388887670513e-03 -7.4715992012110516e-02 0.0000000000000000e+00  5.5347644578085135e-03 -8.7794916105018689e-02 0.0000000000000000e+00  7.7218226498443100e-03 -9.4537165688345318e-02 0.0000000000000000e+00  1.0055840292620849e-02 -9.5968565774581127e-02 0.0000000000000000e+00  1.2464580926736907e-02 -9.3261585609229647e-02 0.0000000000000000e+00  1.4874422081890696e-02 -8.7500295558651242e-02 0.0000000000000000e+00  1.7207215440654334e-02 -7.9574978875241301e-02 0.0000000000000000e+00  1.9377248506122175e-02 -7.0159383925751911e-02 0.0000000000000000e+00  2.1288440514992443e-02 -5.9733362688695578e-02 0.0000000000000000e+00  2.2829233504745389e-02 -4.8622811805863024e-02 0.0000000000000000e+00  2.3868292329443028e-02 -3.7039796102766261e-02 0.0000000000000000e+00  2.4297599334409736e-02 -2.5107592774909017e-02 0.0000000000000000e+00  2.3526679133723489e-02 -1.2734748677425028e-02 0.0000000000000000e+00  2.3809112622776945e-02 -1.7380295688799049e-03 0.0000000000000000e+00  0.0000000000000000e+00 0.0000000000000000e+00 0.0000000000000000e+00  5.4992425524868897e-04 -3.0015635760310976e-02 0.0000000000000000e+00  1.9862487763001296e-03 -5.6485576545329284e-02 0.0000000000000000e+00  4.0113401127494204e-03 -7.6762910751360325e-02 0.0000000000000000e+00  6.4621090555480364e-03 -9.0137292166363861e-02 0.0000000000000000e+00  9.2129540343958774e-03 -9.7084208335640576e-02 0.0000000000000000e+00  1.2166392852263567e-02 -9.8636439782953680e-02 0.0000000000000000e+00  1.5230543590724373e-02 -9.5969471094112510e-02 0.0000000000000000e+00  1.8315630764922736e-02 -9.0166100208916494e-02 0.0000000000000000e+00  2.1328179532912252e-02 -8.2111823077698598e-02 0.0000000000000000e+00  2.4168583079206687e-02 -7.2473273958454182e-02 0.0000000000000000e+00  2.6730894676004820e-02 -6.1722205218747397e-02 0.0000000000000000e+00  2.8906610653480401e-02 -5.0178128022342589e-02 0.0000000000000000e+00  3.0599050135393702e-02 -3.8053762130198641e-02 0.0000000000000000e+00  3.1726983511942329e-02 -2.5492105323710934e-02 0.0000000000000000e+00  3.2500895960932773e-02 -1.2726097282295859e-02 0.0000000000000000e+00  3.2729588671929349e-02 -5.9471798339832634e-04 0.0000000000000000e+00  0.0000000000000000e+00 0.0000000000000000e+00 0.0000000000000000e+00  6.2079612862935712e-04 -3.1138594131500486e-02 0.0000000000000000e+00  2.3319626309389438e-03 -5.8454584040619151e-02 0.0000000000000000e+00  4.8751252222011491e-03 -7.9333718079723170e-02 0.0000000000000000e+00  8.0266712663760158e-03 -9.3136511120261611e-02 0.0000000000000000e+00  1.1613711528526974e-02 -1.0037873968855232e-01 0.0000000000000000e+00  1.5499638484336151e-02 -1.0211441723856191e-01 0.0000000000000000e+00  1.9563605166147878e-02 -9.9527402296826412e-02 0.0000000000000000e+00  2.3689447544590490e-02 -9.3700504346322766e-02 0.0000000000000000e+00  2.7757258213374675e-02 -8.5514606385076394e-02 0.0000000000000000e+00  3.1641069272166165e-02 -7.5630859090403763e-02 0.0000000000000000e+00  3.5211515818370953e-02 -6.4519091414547994e-02 0.0000000000000000e+00  3.8345013327071992e-02 -5.2506863275324146e-02 0.0000000000000000e+00  4.0939046614292769e-02 -3.9835023796719625e-02 0.0000000000000000e+00  4.2951477780327402e-02 -2.6727130356382234e-02 0.0000000000000000e+00  4.4360714765589532e-02 -1.3461929912237226e-02 0.0000000000000000e+00  4.5092412658285924e-02 -5.0362314511750842e-04 0.0000000000000000e+00  0.0000000000000000e+00 0.0000000000000000e+00 0.0000000000000000e+00  7.5906251593046395e-04 -3.2484485787833584e-02 0.0000000000000000e+00  2.8758918226123925e-03 -6.0895488100140269e-02 0.0000000000000000e+00  6.0748133144306700e-03 -8.2599959471998177e-02 0.0000000000000000e+00  1.0093068964325826e-02 -9.7006011995117297e-02 0.0000000000000000e+00  1.4718280163519301e-02 -1.0467676447613870e-01 0.0000000000000000e+00  1.9777285792987098e-02 -1.0669542616641917e-01 0.0000000000000000e+00  2.5116803138053617e-02 -1.0425726248448206e-01 0.0000000000000000e+00  3.0586706715264613e-02 -9.8444297095486313e-02 0.0000000000000000e+00  3.6029822622065805e-02 -9.0130637648074927e-02 0.0000000000000000e+00  4.1279586647202701e-02 -7.9970989539987783e-02 0.0000000000000000e+00  4.6164556802722176e-02 -6.8435377461539312e-02 0.0000000000000000e+00  5.0519360212189481e-02 -5.5864675275373192e-02 0.0000000000000000e+00  5.4201104198695164e-02 -4.2532522346489313e-02 0.0000000000000000e+00  5.7097252957429380e-02 -2.8703195084664863e-02 0.0000000000000000e+00  5.9111351201529182e-02 -1.4673226173797519e-02 0.0000000000000000e+00  6.0134299434933300e-02 -7.1154561253516154e-04 0.0000000000000000e+00  0.0000000000000000e+00 0.0000000000000000e+00 0.0000000000000000e+00  9.3385421000798162e-04 -3.4138216539378222e-02 0.0000000000000000e+00  3.5325214232759662e-03 -6.3915749618510001e-02 0.0000000000000000e+00  7.4748519752812197e-03 -8.6683746556223920e-02 0.0000000000000000e+00  1.2465780825840055e-02 -1.0189584083214127e-01 0.0000000000000000e+00  1.8264787817050130e-02 -1.1016488787605125e-01 0.0000000000000000e+00  2.4670985563124359e-02 -1.1260452223349178e-01 0.0000000000000000e+00  3.1499774541585659e-02 -1.1041887398496306e-01 0.0000000000000000e+00  3.8562299504351472e-02 -1.0468356879406150e-01 0.0000000000000000e+00  4.5654192859840598e-02 -9.6259627220530400e-02 0.0000000000000000e+00  5.2553885337604196e-02 -8.5790239481857919e-02 0.0000000000000000e+00  5.9028990728654952e-02 -7.3742619845587512e-02 0.0000000000000000e+00  6.4849655725672625e-02 -6.0469158724413274e-02 0.0000000000000000e+00  6.9804548912337727e-02 -4.6270499530657622e-02 0.0000000000000000e+00  7.3716744388659355e-02 -3.1445041008126777e-02 0.0000000000000000e+00  7.6450226210670394e-02 -1.6297979817877825e-02 0.0000000000000000e+00  7.7914238507770711e-02 -1.1485360633620612e-03 0.0000000000000000e+00  0.0000000000000000e+00 0.0000000000000000e+00 0.0000000000000000e+00  1.1180589648064562e-03 -3.6139865536042814e-02 0.0000000000000000e+00  4.2160819312807305e-03 -6.7566280512064827e-02 0.0000000000000000e+00  8.9225336054880137e-03 -9.1645099542535649e-02 0.0000000000000000e+00  1.4920690247814788e-02 -1.0788843594843961e-01 0.0000000000000000e+00  2.1957318067263060e-02 -1.1696091482478153e-01 0.0000000000000000e+00  2.9815481881134049e-02 -1.2000150399714593e-01 0.0000000000000000e+00  3.8283394032922080e-02 -1.1821332408155354e-01 0.0000000000000000e+00  4.7130646965991632e-02 -1.1265375822644418e-01 0.0000000000000000e+00  5.6097035485429485e-02 -1.0415948365112845e-01 0.0000000000000000e+00  6.4893001221355218e-02 -9.3352952327921498e-02 0.0000000000000000e+00  7.3208955839211470e-02 -8.0691786679572358e-02 0.0000000000000000e+00  8.0732255469988190e-02 -6.6535879613403903e-02 0.0000000000000000e+00  8.7168648163880758e-02 -5.1214939876009676e-02 0.0000000000000000e+00  9.2275993546713161e-02 -3.5077803854343247e-02 0.0000000000000000e+00  9.5891346103591971e-02 -1.8503790951058089e-02 0.0000000000000000e+00  9.7982980595237260e-02 -1.9020852278882538e-03 0.0000000000000000e+00  0.0000000000000000e+00 0.0000000000000000e+00 0.0000000000000000e+00  1.2865420516877820e-03 -3.8481173762846974e-02 0.0000000000000000e+00  4.8405330181136201e-03 -7.1828680115877092e-02 0.0000000000000000e+00  1.0253929861250339e-02 -9.7467650590813276e-02 0.0000000000000000e+00  1.7209929731724662e-02 -1.1498796639694669e-01 0.0000000000000000e+00  2.5463416880861536e-02 -1.2510583410632301e-01 0.0000000000000000e+00  3.4795675320931231e-02 -1.2897328248386875e-01 0.0000000000000000e+00  4.4973661809371880e-02 -1.2777456871671297e-01 0.0000000000000000e+00  5.5723930562043653e-02 -1.2253042641940239e-01 0.0000000000000000e+00  6.6723591097942681e-02 -1.1403716498579523e-01 0.0000000000000000e+00  7.7604947318390349e-02 -1.0288376924534055e-01 0.0000000000000000e+00  8.7968683697860553e-02 -8.9508882622414465e-02 0.0000000000000000e+00  9.7404797539786522e-02 -7.4275131857880192e-02 0.0000000000000000e+00  1.0551979527101429e-01 -5.7546050615058415e-02 0.0000000000000000e+00  1.1199082107939450e-01 -3.9749470651286554e-02 0.0000000000000000e+00  1.1661509525162854e-01 -2.1402213070036070e-02 0.0000000000000000e+00  1.1945451828965335e-01 -3.0723085926658801e-03 0.0000000000000000e+00  0.0000000000000000e+00 0.0000000000000000e+00 0.0000000000000000e+00  1.4134751843797588e-03 -4.1106564869733256e-02 0.0000000000000000e+00  5.3149784389065974e-03 -7.6609742374521367e-02 0.0000000000000000e+00  1.1291088172575740e-02 -1.0404732124345312e-01 0.0000000000000000e+00  1.9057804391328183e-02 -1.2310605952108465e-01 0.0000000000000000e+00  2.8404203049138474e-02 -1.3454693350372721e-01 0.0000000000000000e+00  3.9126019094339985e-02 -1.3951355226949536e-01 0.0000000000000000e+00  5.0975760730555077e-02 -1.3914502889738098e-01 0.0000000000000000e+00  6.3636767188498422e-02 -1.3440095166054861e-01 0.0000000000000000e+00  7.6719455637346709e-02 -1.2601757797966687e-01 0.0000000000000000e+00  8.9772355300145740e-02 -1.1453585463296916e-01 0.0000000000000000e+00  1.0229984627131407e-01 -1.0036457264298577e-01 0.0000000000000000e+00  1.1378566162428062e-01 -8.3859821745579377e-02 0.0000000000000000e+00  1.2371939943038292e-01 -6.5415316190061218e-02 0.0000000000000000e+00  1.3166272511685639e-01 -4.5558558514411367e-02 0.0000000000000000e+00  1.3732422352738208e-01 -2.5018173585405448e-02 0.0000000000000000e+00  1.4085833749485333e-01 -4.6281745277055638e-03 0.0000000000000000e+00  0.0000000000000000e+00 0.0000000000000000e+00 0.0000000000000000e+00  1.4717909709264919e-03 -4.3910644013803166e-02 0.0000000000000000e+00  5.5442955042830852e-03 -8.1735323581467179e-02 0.0000000000000000e+00  1.1845492788193057e-02 -1.1118157680482603e-01 0.0000000000000000e+00  2.0165321477531369e-02 -1.3204508136870735e-01 0.0000000000000000e+00  3.0355581605510214e-02 -1.4511352576187445e-01 0.0000000000000000e+00  4.2242613667105612e-02 -1.5148979325298073e-01 0.0000000000000000e+00  5.5571358277963494e-02 -1.5223360339433309e-01 0.0000000000000000e+00  6.9983726250540695e-02 -1.4821443163735523e-01 0.0000000000000000e+00  8.5023816464139826e-02 -1.4008749393465619e-01 0.0000000000000000e+00  1.0015756330269686e-01 -1.2833171877566221e-01 0.0000000000000000e+00  1.1479732838314266e-01 -1.1331397356144389e-01 0.0000000000000000e+00  1.2832361714926810e-01 -9.5367885302479999e-02 0.0000000000000000e+00  1.4009760039270736e-01 -7.4898793320734749e-02 0.0000000000000000e+00  1.4951856648657560e-01 -5.2523180721008998e-02 0.0000000000000000e+00  1.5610481908879328e-01 -2.9224448853413753e-02 0.0000000000000000e+00  1.5997070747957443e-01 -6.2347598021806156e-03 0.0000000000000000e+00  0.0000000000000000e+00 0.0000000000000000e+00 0.0000000000000000e+00  1.4363358101173349e-03 -4.6738410667305198e-02 0.0000000000000000e+00  5.4402535596580707e-03 -8.6950338185406498e-02 0.0000000000000000e+00  1.1738804602876570e-02 -1.1856445736496024e-01 0.0000000000000000e+00  2.0238143926659687e-02 -1.4148325477399301e-01 0.0000000000000000e+00  3.0878128914484375e-02 -1.5648871548476431e-01 0.0000000000000000e+00  4.3528746768375905e-02 -1.6460018517622504e-01 0.0000000000000000e+00  5.7933967193239969e-02 -1.6675814265542807e-01 0.0000000000000000e+00  7.3699549214260682e-02 -1.6371160815681546e-01 0.0000000000000000e+00  9.0310262036832123e-02 -1.5601536218139653e-01 0.0000000000000000e+00  1.0716082733760396e-01 -1.4407540963265708e-01 0.0000000000000000e+00  1.2358984014584812e-01 -1.2820902717188587e-01 0.0000000000000000e+00  1.3889393552853679e-01 -1.0871416235900623e-01 0.0000000000000000e+00  1.5232661142957529e-01 -8.5962147517270271e-02 0.0000000000000000e+00  1.6309510987395345e-01 -6.0563233190227335e-02 0.0000000000000000e+00  1.7036279958607914e-01 -3.3703964706497745e-02 0.0000000000000000e+00  1.7383900948506578e-01 -7.1175039731531742e-03 0.0000000000000000e+00  0.0000000000000000e+00 0.0000000000000000e+00 0.0000000000000000e+00  1.2920129732859570e-03 -4.9395633080816424e-02 0.0000000000000000e+00  4.9475425792854417e-03 -9.1933217570209794e-02 0.0000000000000000e+00  1.0848374962277928e-02 -1.2579495470408672e-01 0.0000000000000000e+00  1.9047935733150469e-02 -1.5096851444954082e-01 0.0000000000000000e+00  2.9588715525935984e-02 -1.6818388967482531e-01 0.0000000000000000e+00  4.2391421802159698e-02 -1.7832749695502542e-01 0.0000000000000000e+00  5.7206200947225901e-02 -1.8218032305031573e-01 0.0000000000000000e+00  7.3614403271891657e-02 -1.8034377763963075e-01 0.0000000000000000e+00  9.1058846633115309e-02 -1.7325726568739475e-01 0.0000000000000000e+00  1.0888642223470876e-01 -1.6124898408110272e-01 0.0000000000000000e+00  1.2638943942943071e-01 -1.4458893227688283e-01 0.0000000000000000e+00  1.4282451463841148e-01 -1.2352957123998463e-01 0.0000000000000000e+00  1.5741728059079313e-01 -9.8342331109128531e-02 0.0000000000000000e+00  1.6919763373287328e-01 -6.9486577694082091e-02 0.0000000000000000e+00  1.7686061765728633e-01 -3.8108089899883381e-02 0.0000000000000000e+00  1.7910053015203978e-01 -6.1616272975330462e-03 0.0000000000000000e+00  0.0000000000000000e+00 0.0000000000000000e+00 0.0000000000000000e+00  1.0478225742240712e-03 -5.1678603621590040e-02 0.0000000000000000e+00  4.0854158137762610e-03 -9.6335136767453936e-02 0.0000000000000000e+00  9.1766101829605200e-03 -1.3240774576570150e-01 0.0000000000000000e+00  1.6525769797527311e-02 -1.5992998128681979e-01 0.0000000000000000e+00  2.6275139070120156e-02 -1.7952652753198164e-01 0.0000000000000000e+00  3.8396303257915036e-02 -1.9190336018570348e-01 0.0000000000000000e+00  5.2655850314735630e-02 -1.9764952201335192e-01 0.0000000000000000e+00  6.8633540369218315e-02 -1.9720081721492175e-01 0.0000000000000000e+00  8.5762941853801858e-02 -1.9087309283465728e-01 0.0000000000000000e+00  1.0337893351217196e-01 -1.7891571083258648e-01 0.0000000000000000e+00  1.2076091052945279e-01 -1.6155853105613083e-01 0.0000000000000000e+00  1.3718047399588629e-01 -1.3902744057812547e-01 0.0000000000000000e+00  1.5191324797690006e-01 -1.1152121149934666e-01 0.0000000000000000e+00  1.6398829759621744e-01 -7.9183537524831760e-02 0.0000000000000000e+00  1.7190827132365880e-01 -4.2339553800348859e-02 0.0000000000000000e+00  1.7256915844396539e-01 -2.4920642485181639e-03 0.0000000000000000e+00  0.0000000000000000e+00 0.0000000000000000e+00 0.0000000000000000e+00  7.5467398595656669e-04 -5.3430188979145345e-02 0.0000000000000000e+00  2.9934279065933701e-03 -9.9848837427227360e-02 0.0000000000000000e+00  6.9228470852388500e-03 -1.3793055802341467e-01 0.0000000000000000e+00  1.2861876947096887e-02 -1.6771597469926189e-01 0.0000000000000000e+00  2.1031121465408521e-02 -1.8967736602704016e-01 0.0000000000000000e+00  3.1447716815063122e-02 -2.0430630725456767e-01 0.0000000000000000e+00  4.3911006161988786e-02 -2.1198559986771179e-01 0.0000000000000000e+00  5.8037086881615726e-02 -2.1298382792190720e-01 0.0000000000000000e+00  7.3303215074773970e-02 -2.0749417283856933e-01 0.0000000000000000e+00  8.9087090506524455e-02 -1.9568441319259111e-01 0.0000000000000000e+00  1.0469726317574020e-01 -1.7774339847565060e-01 0.0000000000000000e+00  1.1942911272658176e-01 -1.5390240590111912e-01 0.0000000000000000e+00  1.3259845647118265e-01 -1.2436372014437383e-01 0.0000000000000000e+00  1.4364109710534045e-01 -8.8900681361903475e-02 0.0000000000000000e+00  1.5155796579412936e-01 -4.6350169299086537e-02 0.0000000000000000e+00  1.5087431712912688e-01 3.6694126065263694e-03 0.0000000000000000e+00  0.0000000000000000e+00 0.0000000000000000e+00 0.0000000000000000e+00  5.1036009833328949e-04 -5.4623362297238805e-02 0.0000000000000000e+00  1.9370165856197525e-03 -1.0229267434711754e-01 0.0000000000000000e+00  4.4912247353964454e-03 -1.4196165656256804e-01 0.0000000000000000e+00  8.5416672340030003e-03 -1.7366826771525354e-01 0.0000000000000000e+00  1.4350133781901605e-02 -1.9770156633950686e-01 0.0000000000000000e+00  2.1967221671363585e-02 -2.1433062344192663e-01 0.0000000000000000e+00  3.1246415995257761e-02 -2.2374644107510286e-01 0.0000000000000000e+00  4.1891246815020614e-02 -2.2607248983573841e-01 0.0000000000000000e+00  5.3495044225425663e-02 -2.2139454874134201e-01 0.0000000000000000e+00  6.5560937268327416e-02 -2.0979543118953783e-01 0.0000000000000000e+00  7.7499541813163944e-02 -1.9139377457923704e-01 0.0000000000000000e+00  8.8630582537127994e-02 -1.6638863912156873e-01 0.0000000000000000e+00  9.8190624145290367e-02 -1.3508417265597131e-01 0.0000000000000000e+00  1.0576051454749513e-01 -9.7683635855338943e-02 0.0000000000000000e+00  1.1126751962321900e-01 -5.2687148452025136e-02 0.0000000000000000e+00  1.1259101676846529e-01 8.7655413448071845e-03 0.0000000000000000e+00  0.0000000000000000e+00 0.0000000000000000e+00 0.0000000000000000e+00  3.9469670414596359e-04 -5.5378200844008581e-02 0.0000000000000000e+00  1.1300149299046398e-03 -1.0363915517983505e-01 0.0000000000000000e+00  2.2799591394954011e-03 -1.4425532268463337e-01 0.0000000000000000e+00  4.1843144833080183e-03 -1.7725413201247342e-01 0.0000000000000000e+00  7.0674415272543407e-03 -2.0273685524249324e-01 0.0000000000000000e+00  1.0982724333823841e-02 -2.2078578106235153e-01 0.0000000000000000e+00  1.5855928275997386e-02 -2.3145206015279363e-01 0.0000000000000000e+00  2.1527904541578064e-02 -2.3476370767590740e-01 0.0000000000000000e+00  2.7780608283938121e-02 -2.3073637183258738e-01 0.0000000000000000e+00  3.4340824436650236e-02 -2.1938437153811982e-01 0.0000000000000000e+00  4.0857498735328568e-02 -2.0073399129144873e-01 0.0000000000000000e+00  4.6842985730629817e-02 -1.7484928083661355e-01 0.0000000000000000e+00  5.1533227921251049e-02 -1.4187899814554036e-01 0.0000000000000000e+00  5.3847127755225148e-02 -1.0207846154575034e-01 0.0000000000000000e+00  5.2450259448449138e-02 -5.5751143783524380e-02 0.0000000000000000e+00  4.9334379976016855e-02 6.7649366385120454e-03 0.0000000000000000e+00  0.0000000000000000e+00 -3.4192649840797883e-18 0.0000000000000000e+00  0.0000000000000000e+00 -5.5725967751669082e-02 0.0000000000000000e+00  0.0000000000000000e+00 -1.0402180646978228e-01 0.0000000000000000e+00  0.0000000000000000e+00 -1.4488751615433962e-01 0.0000000000000000e+00  0.0000000000000000e+00 -1.7832309680534106e-01 0.0000000000000000e+00  0.0000000000000000e+00 -2.0432854842278661e-01 0.0000000000000000e+00  0.0000000000000000e+00 -2.2290387100667633e-01 0.0000000000000000e+00  0.0000000000000000e+00 -2.3404906455701011e-01 0.0000000000000000e+00  0.0000000000000000e+00 -2.3