<?xml version="1.0"?>
<VTKFile type="UnstructuredGrid"  version="0.1"  >
<UnstructuredGrid>
<Piece  NumberOfPoints="289" NumberOfCells="512">
<Points>
<DataArray  type="Float64"  NumberOfComponents="3"  format="ascii">0 0 0  0.0625 0 0  0.125 0 0  0.1875 0 0  0.25 0 0  0.3125 0 0  0.375 0 0  0.4375 0 0  0.5 0 0  0.5625 0 0  0.625 0 0  0.6875 0 0  0.75 0 0  0.8125 0 0  0.875 0 0  0.9375 0 0  1 0 0  0 0.0625 0  0.06256219096292366 0.0624742721137171 0  0.1251271288483795 0.06244805557321186 0  0.187697729972055 0.06242089015005113 0  0.2502772349391443 0.06239239840569971 0  0.3128694092219747 0.062362338846302 0  0.3754787988883987 0.06233067152767019 0  0.4381110846860243 0.06229763508409285 0  0.500773619793982 0.06226382623395198 0  0.5634763375632402 0.06223025710356443 0  0.6262334705019544 0.06219833452155994 0  0.6890672030376002 0.0621696396120683 0  0.7520163162322486 0.0621452269838214 0  0.8151587345071873 0.06212370180545357 0  0.8786756877422146 0.0620957540024072 0  0.9430499374424229 0.06202673703161172 0  1.009743198447973 0.06179315266687962 0  0 0.125 0  0.06262163601133577 0.1249490063164654 0  0.1252486386654758 0.1248969923870134 0  0.1878867065663567 0.1248429904922017 0  0.2505421780306354 0.1247861889064252 0  0.3132224256642485 0.1247260357321282 0  0.3759363545851658 0.1246623719303977 0  0.4386950757467206 0.1245955957987588 0  0.5015128818641466 0.1245268489424545 0  0.5644087738587914 0.1244581897261635 0  0.6274090476134515 0.1243926763665373 0  0.6905520147320445 0.1243342094378371 0  0.7538970773795434 0.1242868878489494 0  0.8175423077870155 0.124253615816001 0  0.8816557701204835 0.1242343813742354 0  0.946512879937635 0.1242291862138817 0  1.012432906221244 0.1242741921123288 0  0 0.1875 0  0.0626757296287505 0.1874247451540831 0  0.1253591679116604 0.1873478613959542 0  0.1880584957004111 0.1872677871974797 0  0.2507828111577401 0.1871831690800141 0  0.313542691355534 0.1870930086529365 0  0.3763508902722338 0.1869968618770338 0  0.4392232502001659 0.1868951030343724 0  0.5021799408973439 0.186789254862776 0  0.5652472025357469 0.1866823619102156 0  0.6284598589927191 0.1865793363596315 0  0.6918649496110908 0.1864871203372659 0  0.7555266694317286 0.1864143669400151 0  0.8195314811626634 0.186370101243193 0  0.8839867511085842 0.186360260192881 0  0.9489889791306381 0.1863787345818237 0  1.014499736932933 0.1863775467164189 0  0 0.25 0  0.06272215709162812 0.2499021067507284 0  0.1254539539236048 0.2498018757608403 0  0.1882056078263572 0.2496970364734907 0  0.2509884704967493 0.2495855430744277 0  0.3138157186813276 0.2494657487158373 0  0.376703202824636 0.2493366599668813 0  0.4396705260414157 0.2491983017461922 0  0.5027424353230208 0.2490522199846758 0  0.5659505977501919 0.2489021348359348 0  0.6293357594415057 0.248754719070026 0  0.6929500158156451 0.2486203935930081 0  0.7568581336360775 0.2485138712696079 0  0.8211348278293963 0.2484538883444638 0  0.8858503566525909 0.2484610713867048 0  0.9510292493448373 0.2485523062225742 0  1.016563932171465 0.2487313161250573 0  0 0.3125 0  0.06275901655714428 0.3123818063951613 0  0.1255290881093331 0.3122604608424672 0  0.1883219087126251 0.31213285717813 0  0.251150446290913 0.3119960795874308 0  0.3140297192480253 0.3118475760654031 0  0.3769777514468047 0.3116854397184613 0  0.4400167813945077 0.311508851392754 0  0.5031747994021981 0.3113187495846944 0  0.5664874469581824 0.3111188019188192 0  0.6300001748152165 0.3109167439325844 0  0.6937701944063588 0.3107260986587772 0  0.7578669448100217 0.3105681438581621 0  0.822368240610224 0.3104736716739556 0  0.8873469915192037 0.3104835035761877 0  0.9528422622561212 0.3106459421532562 0  1.018815785345554 0.3110088615338883 0  0 0.375 0  0.06278491178055882 0.3748646601885413 0  0.1255817098592273 0.3747252686040674 0  0.1884029309130171 0.3745777716221863 0  0.2512624331967592 0.3744182066015889 0  0.3141762094556257 0.3742428333183393 0  0.3771634017870729 0.3740483911590823 0  0.4402476162741404 0.3738325588276334 0  0.5034586506335484 0.3735947275612466 0  0.5668347389703305 0.3733372435344215 0  0.6304253355235041 0.3730673224938474 0  0.6942942104749182 0.3727998622096657 0  0.7585220758789456 0.3725613047736596 0  0.8232070072576119 0.372394382767027 0  0.8884599246545773 0.3723627911444274 0  0.9543931162922615 0.3725533970743376 0  1.021106653991603 0.3730718577059343 0  0 0.4375 0  0.06279901061233847 0.4373515639610523 0  0.1256101300799116 0.4371981412323055 0  0.1884460754390111 0.4370346676040958 0  0.2513208290384939 0.4368559987529791 0  0.314250426538092 0.4366569476540741 0  0.3772539655986239 0.4364324441807254 0  0.4403549694186434 0.4361779080222839 0  0.5035833005410395 0.4358899838890891 0  0.5669779007141054 0.4355678786431645 0  0.6305907152918437 0.4352156717100216 0  0.6944921929735627 0.4348461340469492 0  0.7587786227029283 0.434486718118455 0  0.8235811393503234 0.4341882490353133 0  0.8890755913124753 0.4340359538843024 0  0.9554928096652248 0.4341601211516764 0  1.023134102895898 0.4347399965142066 0  0 0.5 0  0.06280106582664118 0.4998434421036471 0  0.1256138773234807 0.49968101088501 0  0.1884506938019522 0.4995066555747457 0  0.2513248738386041 0.499314008964628 0  0.3142515633632236 0.4990962761705386 0  0.3772485985377729 0.4988462095839195 0  0.4403377891813348 0.4985562553920296 0  0.5035468701406214 0.4982190311584421 0  0.5669126191773568 0.4978284266819475 0  0.6304859847709846 0.4973818507055875 0  0.694340574599056 0.4968845226633115 0  0.7585864625399933 0.4963572466218977 0  0.8233916735789866 0.4958496166437406 0  0.8890132911693657 0.4954602456926371 0  0.9558389455326378 0.4953622272614671 0  1.024442633424244 0.4958229108751331 0  0 0.5625 0  0.06279139552616941 0.562341164686904 0  0.1255936592026557 0.562175729702861 0  0.1884180346211553 0.5619968047774127 0  0.2512765980442995 0.5617969063485764 0  0.3141827652525581 0.5615676542585962 0  0.3771519591323801 0.5612994813660199 0  0.4402026013007124 0.5609814057872727 0  0.5033577596524599 0.5606009855698052 0  0.5666481241698148 0.560144720498806 0  0.6301176435171157 0.5595994627225177 0  0.6938343545139826 0.5589559966001257 0  0.7579108781617513 0.5582171032516262 0  0.8225415180759463 0.5574143992308351 0  0.888064222762219 0.5566404991099689 0  0.9550522791513192 0.5561013763780107 0  1.024434396248695 0.556177334921336 0  0 0.625 0  0.0627708221571697 0.6248454373988072 0  0.1255512340920923 0.6246838372596725 0  0.188351037852644 0.6245077633730201 0  0.2511805339445065 0.6243089127688058 0  0.3140507794043531 0.6240776054887742 0  0.3769738914981849 0.623802183783448 0  0.4399634957447865 0.62346830305013 0  0.5030355793481329 0.6230581316570288 0  0.5662103998333713 0.6225495733417139 0  0.6295169926527633 0.6219158787170022 0  0.6930037800818899 0.6211266616933591 0  0.7567627714518546 0.6201529882187685 0  0.8209819164669037 0.6189832768668352 0  0.8860489479567397 0.6176656025512811 0  0.9527290170408267 0.6164029070542983 0  1.022413603128309 0.615703805418595 0  0 0.6875 0  0.06274057367290904 0.6873566766773459 0  0.1254891975920194 0.6872062901795426 0  0.1882539742820558 0.6870412987499097 0  0.2510431614252677 0.6868530814875582 0  0.3138651562492891 0.6866312504129417 0  0.3767283630704928 0.686362760355949 0  0.4396409086696336 0.6860307127650467 0  0.5026102381187607 0.6856127199752683 0  0.5656428789445488 0.6850786744029304 0  0.6287454542105416 0.6843878047511897 0  0.6919302666177422 0.6834851898573285 0  0.7552346962849258 0.6822991381717649 0  0.8187780810516042 0.6807455943135992 0  0.8829094146488765 0.6787632196064906 0  0.9485268029366312 0.6764590288965251 0  1.01756812258683 0.6744884473493505 0  0 0.75 0  0.06270215784792839 0.7498748901381159 0  0.1254107060635732 0.7497431968953764 0  0.1881319624913897 0.7495978293284485 0  0.2508721209731394 0.7494305249499417 0  0.3136370044591328 0.7492310635147225 0  0.3764315397930625 0.7489861924482917 0  0.4392587497484275 0.748678083386526 0  0.5021179481908963 0.7482820399380471 0  0.5650017195067146 0.7477630088478074 0  0.6278913752472215 0.7470701617226135 0  0.6907517432858071 0.7461283433690165 0  0.7535312863960583 0.7448245531479418 0  0.8161923538916552 0.7429879116851913 0  0.8788592623724678 0.7403712963215113 0  0.942354426630403 0.7367230389856466 0  1.009159783639449 0.7326291746527361 0  0 0.8125 0  0.06265722927093104 0.8123995873794313 0  0.1253191813941381 0.8122936133955487 0  0.1879904426019047 0.8121760469431141 0  0.2506753234880327 0.8120397558171208 0  0.31337749266408 0.8118757422685053 0  0.3760992415502311 0.8116720623926905 0  0.4388400498578554 0.8114122146407032 0  0.5015938295489395 0.8110726451085389 0  0.5643436666712485 0.8106187656839754 0  0.6270518655048358 0.8099983952738882 0  0.6896415187039714 0.8091305049286468 0  0.7519646596368879 0.8078847011756253 0  0.8137584702073053 0.8060405296231105 0  0.8746431937630155 0.8031993996820967 0  0.9345268277267218 0.798592772274014 0  0.9973251966116531 0.7908703243274348 0  0 0.875 0  0.06260747421848262 0.8749297458193918 0  0.1252180570198775 0.8748554566554356 0  0.1878347247294814 0.874772735520188 0  0.2504601779203623 0.8746763284407262 0  0.3130965031970195 0.8745595166348689 0  0.3757444994049725 0.8744132400272603 0  0.4384023370124196 0.8742247637662162 0  0.5010628694362114 0.8739755763187665 0  0.5637081359374349 0.8736379914134733 0  0.6262978130428429 0.87316954025733 0  0.6887442167142277 0.8725034958985289 0  0.7508568102215979 0.8715320619390831 0  0.8122178835751627 0.8700724326610713 0  0.8719112765400938 0.8677776311535821 0  0.9279882703330886 0.8638234000776734 0  0.9767033364299613 0.8556578128710923 0  0 0.9375 0  0.06255453698016694 0.9374638488520163 0  0.1251106229344245 0.9374255770004686 0  0.1876697316250205 0.9373828670151143 0  0.250233179576649 0.9373329331487362 0  0.3128019375391998 0.937272185289565 0  0.3753762550971131 0.9371957393431954 0  0.4379549060580069 0.937096665377
[...]
<PointData  Vectors="f_95-0"> 
<DataArray  type="Float64"  Name="f_95-0"  NumberOfComponents="3" format="ascii">0.0000000000000000e+00 0.0000000000000000e+00 0.0000000000000000e+00  -1.3619875318919095e-04 4.0755258083833540e-02 0.0000000000000000e+00  -4.1783496954632816e-04 7.0811009978084885e-02 0.0000000000000000e+00  -8.0057870398127500e-04 9.0194611427737950e-02 0.0000000000000000e+00  -1.2747171215925248e-03 1.0040017279072573e-01 0.0000000000000000e+00  -1.8208661317246702e-03 1.0341921429308558e-01 0.0000000000000000e+00  -2.4271565042240247e-03 1.0121720088231666e-01 0.0000000000000000e+00  -3.0887013274706124e-03 9.5463177213552436e-02 0.0000000000000000e+00  -3.8049452915978246e-03 8.7434011317409271e-02 0.0000000000000000e+00  -4.5758759445422674e-03 7.8025363362512395e-02 0.0000000000000000e+00  -5.3984138547653266e-03 6.7818346162704268e-02 0.0000000000000000e+00  -6.2627514228921185e-03 5.7166001569426757e-02 0.0000000000000000e+00  -7.1505997025411560e-03 4.6279269083701349e-02 0.0000000000000000e+00  -8.0191911674428028e-03 3.5287755940525599e-02 0.0000000000000000e+00  -8.7959614259544155e-03 2.4318382619783481e-02 0.0000000000000000e+00  -9.5663241443332114e-03 1.3602982473335572e-02 0.0000000000000000e+00  -5.2439212272072464e-03 5.4430819797901880e-03 0.0000000000000000e+00  0.0000000000000000e+00 0.0000000000000000e+00 0.0000000000000000e+00  -1.5755418507326063e-04 4.1045562163373919e-02 0.0000000000000000e+00  -5.4659536331748827e-04 7.1238395160071355e-02 0.0000000000000000e+00  -1.0930189464566455e-03 9.0723893052482851e-02 0.0000000000000000e+00  -1.7585065904690564e-03 1.0099493135703599e-01 0.0000000000000000e+00  -2.5113481891040584e-03 1.0405364559652171e-01 0.0000000000000000e+00  -3.3336129402140964e-03 1.0187679340193320e-01 0.0000000000000000e+00  -4.2162755132510287e-03 9.6141064850253394e-02 0.0000000000000000e+00  -5.1548843907255762e-03 8.8125499615875458e-02 0.0000000000000000e+00  -6.1446150773504619e-03 7.8722549677826575e-02 0.0000000000000000e+00  -7.1763732471509826e-03 6.8505405978272732e-02 0.0000000000000000e+00  -8.2341396922801860e-03 5.7814797414725880e-02 0.0000000000000000e+00  -9.2923141786756310e-03 4.6840708772751691e-02 0.0000000000000000e+00  -1.0308069579843803e-02 3.5684761871947371e-02 0.0000000000000000e+00  -1.1250181145107846e-02 2.4396041492376699e-02 0.0000000000000000e+00  -1.1843996206182169e-02 1.2902967851583794e-02 0.0000000000000000e+00  -1.2657589463738472e-02 2.2663118957151514e-03 0.0000000000000000e+00  0.0000000000000000e+00 0.0000000000000000e+00 0.0000000000000000e+00  -2.6263530316031250e-04 4.1463715113591551e-02 0.0000000000000000e+00  -9.4987166807107668e-04 7.1936888966807111e-02 0.0000000000000000e+00  -1.9301273261510120e-03 9.1599990159776823e-02 0.0000000000000000e+00  -3.1070833711075107e-03 1.0197913213388929e-01 0.0000000000000000e+00  -4.4186499754777890e-03 1.0510209984518627e-01 0.0000000000000000e+00  -5.8291964689349395e-03 1.0296451976105725e-01 0.0000000000000000e+00  -7.3174764233898569e-03 9.7253227977881135e-02 0.0000000000000000e+00  -8.8670775525871836e-03 8.9248790288402075e-02 0.0000000000000000e+00  -1.0458611885290264e-02 7.9838429869837302e-02 0.0000000000000000e+00  -1.2065247072567880e-02 6.9585740934990092e-02 0.0000000000000000e+00  -1.3651237752413881e-02 5.8819491228592313e-02 0.0000000000000000e+00  -1.5173276715603630e-02 4.7716772503170621e-02 0.0000000000000000e+00  -1.6584805090658010e-02 3.6365262558547107e-02 0.0000000000000000e+00  -1.7830909808339044e-02 2.4794937420617540e-02 0.0000000000000000e+00  -1.8851484044427380e-02 1.2987090667668648e-02 0.0000000000000000e+00  -1.9586266729213882e-02 1.1510623258593887e-03 0.0000000000000000e+00  0.0000000000000000e+00 0.0000000000000000e+00 0.0000000000000000e+00  -4.3756410560463326e-04 4.2150164797435399e-02 0.0000000000000000e+00  -1.5714358951606203e-03 7.3097989785228815e-02 0.0000000000000000e+00  -3.1808462915262421e-03 9.3063233210926855e-02 0.0000000000000000e+00  -5.1037507113920084e-03 1.0362903239579634e-01 0.0000000000000000e+00  -7.2399191025250866e-03 1.0686859598248269e-01 0.0000000000000000e+00  -9.5298965025639951e-03 1.0480619476303436e-01 0.0000000000000000e+00  -1.1934585625717102e-02 9.9140764420997299e-02 0.0000000000000000e+00  -1.4418511886344349e-02 9.1151837825894727e-02 0.0000000000000000e+00  -1.6938412149031235e-02 8.1717085810098788e-02 0.0000000000000000e+00  -1.9437873928737259e-02 7.1386938727417124e-02 0.0000000000000000e+00  -2.1847614359229307e-02 6.0478363276523395e-02 0.0000000000000000e+00  -2.4092024658863419e-02 4.9163199496628805e-02 0.0000000000000000e+00  -2.6098868147671463e-02 3.7535558334615880e-02 0.0000000000000000e+00  -2.7817983139555354e-02 2.5649713815836247e-02 0.0000000000000000e+00  -2.9217654591789915e-02 1.3511544073038572e-02 0.0000000000000000e+00  -3.0291882185144708e-02 1.1755688571513658e-03 0.0000000000000000e+00  0.0000000000000000e+00 0.0000000000000000e+00 0.0000000000000000e+00  -6.5042983372321720e-04 4.3199086374024878e-02 0.0000000000000000e+00  -2.3241441730681160e-03 7.4862393899404939e-02 0.0000000000000000e+00  -4.6909912542931476e-03 9.5290943193051966e-02 0.0000000000000000e+00  -7.5223232728290962e-03 1.0615554119082715e-01 0.0000000000000000e+00  -1.0679591763069330e-02 1.0959528043600592e-01 0.0000000000000000e+00  -1.4079071146407324e-02 1.0767180880467044e-01 0.0000000000000000e+00  -1.7660754734906789e-02 1.0209618124573017e-01 0.0000000000000000e+00  -2.1363926536887214e-02 9.4141751661630316e-02 0.0000000000000000e+00  -2.5111950985891744e-02 8.4669370680974076e-02 0.0000000000000000e+00  -2.8805822310852474e-02 7.4209619143848868e-02 0.0000000000000000e+00  -3.2325896770409167e-02 6.3064612401361575e-02 0.0000000000000000e+00  -3.5543209704673451e-02 5.1405291245855619e-02 0.0000000000000000e+00  -3.8339466274273037e-02 3.9348077240465650e-02 0.0000000000000000e+00  -4.0641599591271414e-02 2.6996488384792756e-02 0.0000000000000000e+00  -4.2439805139063244e-02 1.4433381026861574e-02 0.0000000000000000e+00  -4.3860704579756181e-02 1.6379008291070622e-03 0.0000000000000000e+00  0.0000000000000000e+00 0.0000000000000000e+00 0.0000000000000000e+00  -8.7661724170661458e-04 4.4655601827806278e-02 0.0000000000000000e+00  -3.1277629861110766e-03 7.7307315654385214e-02 0.0000000000000000e+00  -6.3153914200092167e-03 9.8391683520751116e-02 0.0000000000000000e+00  -1.0152622001225785e-02 1.0970328139167572e-01 0.0000000000000000e+00  -1.4470244361390902e-02 1.1346618239908444e-01 0.0000000000000000e+00  -1.9164350519392075e-02 1.1178473588083615e-01 0.0000000000000000e+00  -2.4152884994408961e-02 1.0637818411602228e-01 0.0000000000000000e+00  -2.9343990841673252e-02 9.8504580773996861e-02 0.0000000000000000e+00  -3.4617380511244425e-02 8.8996705326908246e-02 0.0000000000000000e+00  -3.9816564695859966e-02 7.8354289132877161e-02 0.0000000000000000e+00  -4.4751041244410796e-02 6.6856157046560657e-02 0.0000000000000000e+00  -4.9211332277048499e-02 5.4669790299891850e-02 0.0000000000000000e+00  -5.2998080342609777e-02 4.1943114153522976e-02 0.0000000000000000e+00  -5.5980589109151303e-02 2.8860052722114730e-02 0.0000000000000000e+00  -5.8151392139670695e-02 1.5627629380697734e-02 0.0000000000000000e+00  -5.9767862818101133e-02 2.2949273889171073e-03 0.0000000000000000e+00  0.0000000000000000e+00 0.0000000000000000e+00 0.0000000000000000e+00  -1.0948709769758754e-03 4.6524388167650248e-02 0.0000000000000000e+00  -3.9096290216549968e-03 8.0450074752429990e-02 0.0000000000000000e+00  -7.9182685169680751e-03 1.0241001192180409e-01 0.0000000000000000e+00  -1.2797486467315645e-02 1.1435858220849364e-01 0.0000000000000000e+00  -1.8363954403994503e-02 1.1861888547736292e-01 0.0000000000000000e+00  -2.4501833292891958e-02 1.1733660123256826e-01 0.0000000000000000e+00  -3.1107040664254789e-02 1.1222893158346552e-01 0.0000000000000000e+00  -3.8050142385686707e-02 1.0452443854257892e-01 0.0000000000000000e+00  -4.5155747495186735e-02 9.5012438577053882e-02 0.0000000000000000e+00  -5.2193899374691384e-02 8.4145764646138210e-02 0.0000000000000000e+00  -5.8880879036331109e-02 7.2163079361348151e-02 0.0000000000000000e+00  -6.4892732948991519e-02 5.9214751796707848e-02 0.0000000000000000e+00  -6.9899767420214226e-02 4.5480538339196075e-02 0.0000000000000000e+00  -7.3653087751968785e-02 3.1253906918058759e-02 0.0000000000000000e+00  -7.6087673110245418e-02 1.6949013035432250e-02 0.0000000000000000e+00  -7.7587262129392695e-02 2.8220760329263957e-03 0.0000000000000000e+00  0.0000000000000000e+00 0.0000000000000000e+00 0.0000000000000000e+00  -1.2832748148649878e-03 4.8770894048912501e-02 0.0000000000000000e+00  -4.5940557770170138e-03 8.4247761303176974e-02 0.0000000000000000e+00  -9.3571432940862207e-03 1.0732626365013681e-01 0.0000000000000000e+00  -1.5250168700199173e-02 1.2015124492337446e-01 0.0000000000000000e+00  -2.2101344553610642e-02 1.2514829722198959e-01 0.0000000000000000e+00  -2.9794520123208459e-02 1.2449203535531710e-01 0.0000000000000000e+00  -3.8203361585299994e-02 1.1987878507190700e-01 0.0000000000000000e+00  -4.7152639904007053e-02 1.1248809499601185e-01 0.0000000000000000e+00  -5.6399618389853974e-02 1.0304682657282134e-01 0.0000000000000000e+00  -6.5626436483011572e-02 9.1939932633960691e-02 0.0000000000000000e+00  -7.4435131851455547e-02 7.9341425705620777e-02 0.0000000000000000e+00  -8.2351516606381334e-02 6.5357368820230383e-02 0.0000000000000000e+00  -8.8854899843196791e-02 5.0174462595424733e-02 0.0000000000000000e+00  -9.3480249508490071e-02 3.4204089808999208e-02 0.0000000000000000e+00  -9.5983715657101745e-02 1.8167819286060767e-02 0.0000000000000000e+00  -9.6789782578062603e-02 2.7363713936245032e-03 0.0000000000000000e+00  0.0000000000000000e+00 0.0000000000000000e+00 0.0000000000000000e+00  -1.4148944310388811e-03 5.1316448214648161e-02 0.0000000000000000e+00  -5.0898165273651841e-03 8.8590015944734771e-02 0.0000000000000000e+00  -1.0462392688354067e-02 1.1304928497749957e-01 0.0000000000000000e+00  -1.7265581504285338e-02 1.2704789597575011e-01 0.0000000000000000e+00  -2.5372798546039764e-02 1.3309956270966011e-01 0.0000000000000000e+00  -3.4680267007978452e-02 1.3337940385526828e-01 0.0000000000000000e+00  -4.5036345774982722e-02 1.2953334828204260e-01 0.0000000000000000e+00  -5.6208612772284394e-02 1.2266733881973453e-01 0.0000000000000000e+00  -6.7874545359921670e-02 1.1342580139846407e-01 0.0000000000000000e+00  -7.9616760639915421e-02 1.0210672859897965e-01 0.0000000000000000e+00  -9.0911470062532737e-02 8.8790899300036863e-02 0.0000000000000000e+00  -1.0111477620209450e-01 7.3483962750421544e-02 0.0000000000000000e+00  -1.0945100270121795e-01 5.6308686050603581e-02 0.0000000000000000e+00  -1.1509443068618690e-01 3.7772217613049705e-02 0.0000000000000000e+00  -1.1741712584058249e-01 1.8998083899378050e-02 0.0000000000000000e+00  -1.1666264243634709e-01 1.3312966387215243e-03 0.0000000000000000e+00  0.0000000000000000e+00 0.0000000000000000e+00 0.0000000000000000e+00  -1.4543460577297546e-03 5.4026452656790604e-02 0.0000000000000000e+00  -5.2807929357105371e-03 9.3284075531551880e-02 0.0000000000000000e+00  -1.1022272146594103e-02 1.1940168594054058e-01 0.0000000000000000e+00  -1.8538833888489991e-02 1.3493650891857559e-01 0.0000000000000000e+00  -2.7787333186820792e-02 1.4244893034814682e-01 0.0000000000000000e+00  -3.8685883613324243e-02 1.4406490558992005e-01 0.0000000000000000e+00  -5.1048439529433387e-02 1.4133817625118131e-01 0.0000000000000000e+00  -6.4569151046823578e-02 1.3527322266920125e-01 0.0000000000000000e+00  -7.8830648585564864e-02 1.2641774661514346e-01 0.0000000000000000e+00  -9.3310002692149979e-02 1.1497206638285683e-01 0.0000000000000000e+00  -1.0737248515090350e-01 1.0089144657656972e-01 0.0000000000000000e+00  -1.2021198056861229e-01 8.4016717886332193e-02 0.0000000000000000e+00  -1.3075417810051168e-01 6.4313185164592473e-02 0.0000000000000000e+00  -1.3767638862266587e-01 4.2232788650541357e-02 0.0000000000000000e+00  -1.3964443141005023e-01 1.9234575407227807e-02 0.0000000000000000e+00  -1.3627129541532029e-01 -2.2648985705298907e-03 0.0000000000000000e+00  0.0000000000000000e+00 0.0000000000000000e+00 0.0000000000000000e+00  -1.3569366026484177e-03 5.6695000523273746e-02 0.0000000000000000e+00  -5.0258752385131189e-03 9.8037330093027814e-02 0.0000000000000000e+00  -1.0785104711808043e-02 1.2610251352929439e-01 0.0000000000000000e+00  -1.8707010248394197e-02 1.4360507140877607e-01 0.0000000000000000e+00  -2.8867388832326060e-02 1.5307297493545646e-01 0.0000000000000000e+00  -4.1206890303752609e-02 1.5650813872512920e-01 0.0000000000000000e+00  -5.5487281740192733e-02 1.5531829887487800e-01 0.0000000000000000e+00  -7.1305977063504056e-02 1.5037858035575166e-01 0.0000000000000000e+00  -8.8131930213256493e-02 1.4213493346276612e-01 0.0000000000000000e+00  -1.0534160573335025e-01 1.3069567144823985e-01 0.0000000000000000e+00  -1.2221931906471813e-01 1.1589954851462982e-01 0.0000000000000000e+00  -1.3784428707260968e-01 9.7395371584258650e-02 0.0000000000000000e+00  -1.5096136647884706e-01 7.4756321006485341e-02 0.0000000000000000e+00  -1.5967327991563487e-01 4.7951868753362499e-02 0.0000000000000000e+00  -1.6137903546390434e-01 1.8673254830194268e-02 0.0000000000000000e+00  -1.5425459041537085e-01 -8.9054105460955758e-03 0.0000000000000000e+00  0.0000000000000000e+00 0.0000000000000000e+00 0.0000000000000000e+00  -1.0734725043927845e-03 5.9033589141630372e-02 0.0000000000000000e+00  -4.1784824322148618e-03 1.0244897908003681e-01 0.0000000000000000e+00  -9.4961401904542133e-03 1.3275776222689348e-01 0.0000000000000000e+00  -1.7395999662771177e-02 1.5272050016741073e-01 0.0000000000000000e+00  -2.8092784870560453e-02 1.6470763241048114e-01 0.0000000000000000e+00  -4.1535795778989561e-02 1.7049774018548872e-01 0.0000000000000000e+00  -5.7408384291405226e-02 1.7129046831336056e-01 0.0000000000000000e+00  -7.5184069087076977e-02 1.6780559894815616e-01 0.0000000000000000e+00  -9.4200764342154991e-02 1.6039287912628516e-01 0.0000000000000000e+00  -1.1373287607704309e-01 1.4910929085983082e-01 0.0000000000000000e+00  -1.3300301271449530e-01 1.3374037779936296e-01 0.0000000000000000e+00  -1.5115019132595545e-01 1.1371096977472021e-01 0.0000000000000000e+00  -1.6701418036112317e-01 8.8040103215743459e-02 0.0000000000000000e+00  -1.7808665425409939e-01 5.6021091944356782e-02 0.0000000000000000e+00  -1.8039138311026176e-01 1.8724053041772212e-02 0.0000000000000000e+00  -1.6923623507402497e-01 -1.8887543561662043e-02 0.0000000000000000e+00  0.0000000000000000e+00 0.0000000000000000e+00 0.0000000000000000e+00  -5.6730340922700928e-04 6.0678726298902794e-02 0.0000000000000000e+00  -2.6439403523481867e-03 1.0603153955665698e-01 0.0000000000000000e+00  -6.9960759072448132e-03 1.3887479723021118e-01 0.0000000000000000e+00  -1.4342310135093454e-02 1.6181529162608455e-01 0.0000000000000000e+00  -2.5022550174489479e-02 1.7689724795529449e-01 0.0000000000000000e+00  -3.8964355760298754e-02 1.8556349183628904e-01 0.0000000000000000e+00  -5.5746963675122031e-02 1.8874471381141761e-01 0.0000000000000000e+00  -7.4704630447282053e-02 1.8698393802310248e-01 0.0000000000000000e+00  -9.5035055401966897e-02 1.8054809599664901e-01 0.0000000000000000e+00  -1.1589156940496499e-01 1.6949661229916596e-01 0.0000000000000000e+00  -1.3646801130459529e-01 1.5365137075188842e-01 0.0000000000000000e+00  -1.5610787509284701e-01 1.3243478876259193e-01 0.0000000000000000e+00  -1.7387281763949874e-01 1.0469026541845279e-01 0.0000000000000000e+00  -1.8784583045712511e-01 6.8028205855729024e-02 0.0000000000000000e+00  -1.9362499840781361e-01 1.9666721094279142e-02 0.0000000000000000e+00  -1.8105558369856661e-01 -3.0976136805322688e-02 0.0000000000000000e+00  0.0000000000000000e+00 0.0000000000000000e+00 0.0000000000000000e+00  1.4393552564261611e-04 6.1251757485082062e-02 0.0000000000000000e+00  -5.0555611783330778e-04 1.0829855567322476e-01 0.0000000000000000e+00  -3.4195001994714543e-03 1.4392292382637623e-01 0.0000000000000000e+00  -9.6259282891554623e-03 1.7028919254567867e-01 0.0000000000000000e+00  -1.9525347326830957e-02 1.8893087226271674e-01 0.0000000000000000e+00  -3.2985665304556898e-02 2.0085743288719488e-01 0.0000000000000000e+00  -4.9480178057265477e-02 2.0668937995452968e-01 0.0000000000000000e+00  -6.8228664914707582e-02 2.0678227694415940e-01 0.0000000000000000e+00  -8.8315252995237306e-02 2.0132709650385616e-01 0.0000000000000000e+00  -1.0878684422782152e-01 1.9041176882949495e-01 0.0000000000000000e+00  -1.2880214394440900e-01 1.7401085095574848e-01 0.0000000000000000e+00  -1.4771083416157951e-01 1.5185963366801797e-01 0.0000000000000000e+00  -1.6511556913394634e-01 1.2274305747609339e-01 0.0000000000000000e+00  -1.8156825607758642e-01 8.3065404494645959e-02 0.0000000000000000e+00  -1.9267349924890770e-01 2.6659246155641494e-02 0.0000000000000000e+00  -1.7750616602405825e-01 -4.0034375202375926e-02 0.0000000000000000e+00  0.0000000000000000e+00 0.0000000000000000e+00 0.0000000000000000e+00  8.9533414290900724e-04 6.0525263471782782e-02 0.0000000000000000e+00  1.7339696728600760e-03 1.0895501322772576e-01 0.0000000000000000e+00  4.6659606228924701e-04 1.4744921660000987e-01 0.0000000000000000e+00  -4.0423520952409201e-03 1.7741795071348357e-01 0.0000000000000000e+00  -1.2138583424772286e-02 1.9975100647293192e-01 0.0000000000000000e+00  -2.3614043308561476e-02 2.1498873492453108e-01 0.0000000000000000e+00  -3.7896477535281518e-02 2.2344658337769013e-01 0.0000000000000000e+00  -5.4196550965192797e-02 2.2530339190661086e-01 0.0000000000000000e+00  -7.1605488784995064e-02 2.2066926511505144e-01 0.0000000000000000e+00  -8.9171250476950126e-02 2.0963779915683833e-01 0.0000000000000000e+00  -1.0597505336846291e-01 1.9232615571013686e-01 0.0000000000000000e+00  -1.2120371393587730e-01 1.6881712800665447e-01 0.0000000000000000e+00  -1.3506517058608838e-01 1.3884913288224074e-01 0.0000000000000000e+00  -1.4891305771910612e-01 1.0147111552280699e-01 0.0000000000000000e+00  -1.6393565893973286e-01 5.0913786956754865e-02 0.0000000000000000e+00  -1.8319969098014013e-01 -2.4644412516761582e-02 0.0000000000000000e+00  0.0000000000000000e+00 0.0000000000000000e+00 0.0000000000000000e+00  1.1845713082930781e-03 5.8781610625369865e-02 0.0000000000000000e+00  2.7673176826567159e-03 1.0824785379876865e-01 0.0000000000000000e+00  2.7815172893065278e-03 1.4927330729221147e-01 0.0000000000000000e+00  4.0277355761097079e-04 1.8237823694955194e-01 0.0000000000000000e+00  -4.5369319467446984e-03 2.0784320825868624e-01 0.0000000000000000e+00  -1.1817306946702686e-02 2.2582370947920918e-01 0.0000000000000000e+00  -2.0991579480041968e-02 2.3640570330624530e-01 0.0000000000000000e+00  -3.1486780543904358e-02 2.3963708881274196e-01 0.0000000000000000e+00  -4.2658454730482208e-02 2.3555159934992348e-01 0.0000000000000000e+00  -5.3816028255790641e-02 2.2419447077006341e-01 0.0000000000000000e+00  -6.4203744131753213e-02 2.0565402479422681e-01 0.0000000000000000e+00  -7.3091864643386392e-02 1.8006982150394846e-01 0.0000000000000000e+00  -7.9828562406145401e-02 1.4788738343926908e-01 0.0000000000000000e+00  -8.3102208494511484e-02 1.0931156611504346e-01 0.0000000000000000e+00  -8.8431213880962131e-02 6.2575797411108677e-02 0.0000000000000000e+00  -7.0531189297639171e-02 6.3327798978347893e-03 0.0000000000000000e+00  0.0000000000000000e+00 0.0000000000000000e+00 0.0000000000000000e+00  0.0000000000000000e+00 5.7555893597382037e-02 0.0000000000000000e+00  0.0000000000000000e+00 1.0743766804844648e-01 0.0000000000000000e+00  0.0000000000000000e+00 1.4964532335319330e-01 0.0000000000000000e+00  0.0000000000000000e+00 1.8417885951162252e-01 0.0000000000000000e+00  0.0000000000000000e+00 2.1103827652373416e-01 0.0000000000000000e+00  0.0000000000000000e+00 2.3022357438952815e-01 0.0000000000000000e+00  0.0000000000000000e+00 2.4173475310900455e-01 0.0000000000000000e+00  0.0000000000000000e+00 2.455718126