<?xml version="1.0"?>
<VTKFile type="UnstructuredGrid"  version="0.1"  >
<UnstructuredGrid>
<Piece  NumberOfPoints="289" NumberOfCells="512">
<Points>
<DataArray  type="Float64"  NumberOfComponents="3"  format="ascii">0 0 0  0.0625 0 0  0.125 0 0  0.1875 0 0  0.25 0 0  0.3125 0 0  0.375 0 0  0.4375 0 0  0.5 0 0  0.5625 0 0  0.625 0 0  0.6875 0 0  0.75 0 0  0.8125 0 0  0.875 0 0  0.9375 0 0  1 0 0  0 0.0625 0  0.06246627010148882 0.06247832666855629 0  0.1249318791690098 0.06245627254973587 0  0.1873961818421279 0.06243348791132142 0  0.2498586560543335 0.06240970488687149 0  0.3123189943039841 0.06238479038066092 0  0.3747772376419842 0.06235881212692833 0  0.4372339763280736 0.06233211858470757 0  0.4996906535817655 0.06230542792702553 0  0.5621500332295187 0.06227991174265464 0  0.6246169433265599 0.06225724389509001 0  0.6870995225970109 0.06223956546562833 0  0.7496114593710275 0.06222930430997638 0  0.8121762756032282 0.06222883173770085 0  0.8748355108719706 0.06224023805244647 0  0.9376605451822148 0.0622670129103197 0  1.000733680581895 0.06232907864483028 0  0 0.125 0  0.06243322334732486 0.1249570213085058 0  0.124865080436045 0.1249132403898734 0  0.1872942346271297 0.1248679126167031 0  0.2497195831133645 0.124820447473811 0  0.3121404334179629 0.1247705112185439 0  0.3745567656902504 0.1247181589506394 0  0.4369696283187582 0.1246640003582826 0  0.499381737054139 0.124609394165629 0  0.561798388565652 0.1245566483681019 0  0.6242288756134792 0.1245091719148672 0  0.6866887360161313 0.1244714743870215 0  0.7492034300360862 0.1244488460733838 0  0.8118144326032776 0.1244464998704466 0  0.8745890056142192 0.1244680155415257 0  0.9376346176417462 0.1245132310671953 0  1.001127247498694 0.1245744611673216 0  0 0.1875 0  0.06240162401001815 0.187436513128009 0  0.1248010801333215 0.187371728339076 0  0.187196234478671 0.1873044223913873 0  0.249585258370503 0.1872335776863792 0  0.3119668661873405 0.1871585265256068 0  0.374340675429714 0.187079145734679 0  0.4367077542294347 0.1869961148407892 0  0.499071446717115 0.1869112418002852 0  0.5614386039994387 0.1868278389785068 0  0.6238214011613918 0.1867510884707019 0  0.6862399838057569 0.1866882527769638 0  0.7487262175969668 0.186648432199495 0  0.8113286427895732 0.1866412650864233 0  0.8741179346011906 0.1866732515713674 0  0.9371903403505126 0.1867383121915748 0  1.000666201779731 0.1867927736905697 0  0 0.25 0  0.06237233014965692 0.2499173046300621 0  0.1247415613480156 0.2498327184873111 0  0.1871046165735197 0.2497444275427831 0  0.249458733475368 0.2496508412236894 0  0.3118017249872919 0.2495507623697098 0  0.3741323881499741 0.2494436322920328 0  0.4364511382725748 0.2493298795358931 0  0.4987609692266177 0.2492113981709573 0  0.5610688658506209 0.249092167209811 0  0.6233878083363199 0.2489789835936219 0  0.6857394762925733 0.2488821925286844 0  0.748157598554027 0.2488161179500608 0  0.8106914365186122 0.2487985532165051 0  0.8734079161840478 0.2488480875779301 0  0.9363895588250858 0.2489773373165917 0  0.9997249870299066 0.2491808988201576 0  0 0.3125 0  0.06234631252055071 0.3123999935025711 0  0.1246884625414188 0.3122974002147457 0  0.1870222760561633 0.3121896915581491 0  0.2493438249530693 0.3120745325675058 0  0.3116496614998553 0.311949951134417 0  0.3739372150793517 0.3118146063084373 0  0.4362054380848207 0.3116682046831522 0  0.4984558138037386 0.3115121250323448 0  0.5606938613667569 0.3113503180213709 0  0.6229312704494713 0.3111905370439444 0  0.6851887267797325 0.311045900414669 0  0.7474992712504603 0.3109366317951191 0  0.8099115831401302 0.310891491204161 0  0.8724919432541897 0.3109478078511506 0  0.9353234651246017 0.311148221407626 0  0.9985035096765619 0.3115317543735057 0  0 0.375 0  0.06232464467354502 0.3748852775099402 0  0.1246439653441829 0.3747671862777757 0  0.1869525693007321 0.3746423722664838 0  0.24924515481913 0.3745075855878675 0  0.3115166641922877 0.374359810977153 0  0.3737625987923278 0.3741965121591052 0  0.4359795931371792 0.3740160595152113 0  0.4981663832139119 0.3738184415865224 0  0.5603253460515911 0.3736064020923892 0  0.6224648135688867 0.3733871891051565 0  0.6846023312452046 0.3731751284565457 0  0.7467688692221918 0.3729951771537205 0  0.809013630939646 0.3728873407792543 0  0.8714086243796114 0.3729111298427595 0  0.9340521592690553 0.3731478718427208 0  0.9970724376190011 0.3736968205909759 0  0 0.4375 0  0.06230846020029075 0.4373739363026284 0  0.12461041221326 0.4372436813942259 0  0.1868991989589525 0.4371049890428221 0  0.2491680159190423 0.4369535627843757 0  0.31140992486707 0.4367851004040044 0  0.373618009345827 0.43659544736419 0  0.4357857764229931 0.4363809403434458 0  0.4979079711413132 0.4361390741668567 0  0.5599820588116627 0.4358697086796574 0  0.6220107416191635 0.4355771571707616 0  0.6840059810400491 0.4352736647169646 0  0.7459950174157194 0.4349849483699881 0  0.8080286667591824 0.4347584610008579 0  0.8701915894294679 0.4346744313011954 0  0.9326134856459402 0.4348578261496955 0  0.9954807844084798 0.4354858907735858 0  0 0.5 0  0.06229887688665024 0.4998667854897878 0  0.1245901522871221 0.4997285919147695 0  0.1868659776561612 0.4995802932015447 0  0.2491180512794746 0.4994165005706677 0  0.3113374383645633 0.4992314722195548 0  0.3735144833699676 0.4990190976672467 0  0.4356389143781369 0.4987730306357128 0  0.4977003294195921 0.4984871091823009 0  0.5596894114202828 0.4981563197681149 0  0.6216004741819627 0.4977787716498273 0  0.6834363163651138 0.4973595045704231 0  0.7452168009312071 0.4969175031340483 0  0.8069928225768328 0.4964979553563174 0  0.8688667294423368 0.4961920054453896 0  0.9310180142832537 0.4961643182978403 0  0.9937304419059108 0.4966819996696947 0  0 0.5625 0  0.06229689173201517 0.5623646017831478 0  0.1245853220587238 0.5622235719072547 0  0.1868564768664869 0.5620710280289407 0  0.2491007491308233 0.561900577693737 0  0.3113073251766027 0.5617050555875461 0  0.3734637761402881 0.5614762684187508 0  0.4355557223329033 0.561204786798022 0  0.4975667445982941 0.560879881075905 0  0.5594789367720953 0.5604898188305519 0  0.6212749253037421 0.560022993561115 0  0.6829429697175238 0.5594708740324116 0  0.7444880255980605 0.5588348035240212 0  0.8059532182012249 0.5581405866914186 0  0.8674567694592615 0.5574675484831247 0  0.9292455573461316 0.5569998725615057 0  0.9917536124337072 0.5570994454772904 0  0 0.625 0  0.06230325552900371 0.624868023649561 0  0.1245975772558145 0.6247300129424239 0  0.1868735821707453 0.624579584461647 0  0.2491207724586899 0.6244096022825392 0  0.3113268779017219 0.6242117318475101 0  0.3734770796587468 0.623975909539326 0  0.4355531101958884 0.6236897057959437 0  0.4975323101449933 0.6233375820261079 0  0.5593869495264304 0.6229001088756542 0  0.6210846689887122 0.6223533985871507 0  0.6825921279427996 0.6216694980455418 0  0.7438864763749526 0.6208197868541493 0  0.8049837584441626 0.6197867383234213 0  0.8659990080615546 0.6185970829358101 0  0.9272526376135969 0.6174018689796009 0  0.989417502852982 0.6166256679371389 0  0 0.6875 0  0.06231834102011853 0.6873774389767665 0  0.1246278042358104 0.6872488007606268 0  0.1869189966613956 0.6871075869069058 0  0.249181172655717 0.6869463603099171 0  0.3114013706104344 0.6867561444965642 0  0.3735632895227589 0.6865256428502996 0  0.4356457875938645 0.6862401809659663 0  0.4976208928680338 0.6858802400427708 0  0.5594513277006602 0.6854194063762538 0  0.6210879846184608 0.6848215367217183 0  0.6824691285507903 0.6840370470775312 0  0.7435267414889659 0.6829989443289695 0  0.8042143314967169 0.6816223689609933 0  0.8645887329310337 0.6798238041582699 0  0.9249980539814521 0.6776184437267215 0  0.9863947566773715 0.675401712311393 0  0 0.75 0  0.06234202399349487 0.74989287804647 0  0.1246758524366512 0.7497800781154795 0  0.1869927607480298 0.7496554749967426 0  0.2492825853521297 0.7495119257682052 0  0.3115327520945865 0.7493405868470843 0  0.3737269264738552 0.7491299810305819 0  0.4358430447648157 0.7488646564291116 0  0.4978503645975967 0.7485231879611313 0  0.559705025300926 0.7480751097506274 0  0.6213435485082005 0.7474760686158979 0  0.6826742389753567 0.7466599304312498 0  0.7435693719108266 0.745525586641127 0  0.8038723376876723 0.7439151135664216 0  0.8634715465704875 0.7415837401445978 0  0.9225961605341455 0.7382129196431986 0  0.9823915661271089 0.7340016623505815 0  0 0.8125 0  0.0623736005280683 0.8124139342076075 0  0.1247403404561524 0.8123230637703903 0  0.187092882965792 0.8122221704105009 0  0.2494225648470863 0.8121050816139765 0  0.3117184655085081 0.811964010917154 0  0.3739660550107919 0.8117886306001578 0  0.4361451039387162 0.8115646978288636 0  0.4982262971493947 0.8112719422818607 0  0.5601655412315096 0.8108807140290047 0  0.6218941298394484 0.8103464734338556 0  0.6833015669955099 0.8096002751355953 0  0.7442063519797114 0.8085310454089621 0  0.8043125790640776 0.8069488800070714 0  0.8631811676785398 0.8044993618109311 0  0.9204437545865585 0.8004414548574417 0  0.978022838367783 0.7929826544104638 0  0 0.875 0  0.06241176353842389 0.8749397337386321 0  0.1248185907882044 0.8748759770360252 0  0.1872151888351774 0.8748049209400102 0  0.2495952549254304 0.8747220153520374 0  0.3119507520657839 0.8746214475575079 0  0.3742708300915832 0.8744953982252264 0  0.4365401004797106 0.8743329254827827 0  0.4987357091199322 0.8741182389743455 0  0.560822082421137 0.8738279793538479 0  0.6227409441277939 0.873426877365266 0  0.6843912114991967 0.8728607315113435 0  0.7455861700606801 0.8720445574579986 0  0.8059577115390438 0.8708395168630771 0  0.8647355366159547 0.8689917984823723 0  0.9202437761531613 0.8659097926908013 0  0.9689011105484202 0.859720812504554 0  0 0.9375 0  0.0624546553924486 0.9374689693888326 0  0.1249067350638901 0.9374361022246753 0  0.1873534756260501 0.937399388823566 0  0.2497915761143116 0.9373564147227877 0  0.3122168106946236 0.9373040732989928 0  0.374623448273438 0.9372381530424474 0  0.437003315990671 0.93715271
[...]
<PointData  Vectors="f_95-0"> 
<DataArray  type="Float64"  Name="f_95-0"  NumberOfComponents="3" format="ascii">0.0000000000000000e+00 0.0000000000000000e+00 0.0000000000000000e+00  -2.6526874479447906e-04 -3.2922758423094285e-02 0.0000000000000000e+00  -7.2963229890320939e-04 -4.9880558694391147e-02 0.0000000000000000e+00  -1.2668074842198799e-03 -5.5780361844828888e-02 0.0000000000000000e+00  -1.9033385644355763e-03 -5.4652781878629958e-02 0.0000000000000000e+00  -2.6377494637487902e-03 -4.9620567316948645e-02 0.0000000000000000e+00  -3.4561960990737088e-03 -4.2878907020457345e-02 0.0000000000000000e+00  -4.3294413169841705e-03 -3.5815291216489561e-02 0.0000000000000000e+00  -5.2162705579210274e-03 -2.9189068122122758e-02 0.0000000000000000e+00  -6.0669840630184872e-03 -2.3320517016396550e-02 0.0000000000000000e+00  -6.8261339621777566e-03 -1.8258033049210368e-02 0.0000000000000000e+00  -7.4343580306203746e-03 -1.3909418364829946e-02 0.0000000000000000e+00  -7.8304352562488487e-03 -1.0133716321910678e-02 0.0000000000000000e+00  -7.9466746304009701e-03 -6.8028136213564268e-03 0.0000000000000000e+00  -7.7075560866225797e-03 -3.8202202966480031e-03 0.0000000000000000e+00  -7.1263598822399613e-03 -1.1399560447046054e-03 0.0000000000000000e+00  -2.9645592572687895e-03 2.6791076122678679e-03 0.0000000000000000e+00  0.0000000000000000e+00 0.0000000000000000e+00 0.0000000000000000e+00  -1.6576630637697056e-04 -3.2510174134654665e-02 0.0000000000000000e+00  -4.9207156410561493e-04 -4.9393280733405973e-02 0.0000000000000000e+00  -8.7987131884523023e-04 -5.5219341915539996e-02 0.0000000000000000e+00  -1.3583009970679291e-03 -5.4010791404242739e-02 0.0000000000000000e+00  -1.9322634003538146e-03 -4.8899936064000581e-02 0.0000000000000000e+00  -2.5928859009497064e-03 -4.2096975394166021e-02 0.0000000000000000e+00  -3.3134012455601105e-03 -3.5002574002852289e-02 0.0000000000000000e+00  -4.0556940443815543e-03 -2.8386221546517612e-02 0.0000000000000000e+00  -4.7743468168834572e-03 -2.2575527806685185e-02 0.0000000000000000e+00  -5.4196582797599487e-03 -1.7623878832834179e-02 0.0000000000000000e+00  -5.9399733756273169e-03 -1.3441946674055591e-02 0.0000000000000000e+00  -6.2836686264173113e-03 -9.8906214138967767e-03 0.0000000000000000e+00  -6.4012537610004363e-03 -6.8394142017044381e-03 0.0000000000000000e+00  -6.2676456689004590e-03 -4.1969295512976727e-03 0.0000000000000000e+00  -5.8031763734079107e-03 -1.9496232393909718e-03 0.0000000000000000e+00  -5.7528066895440703e-03 4.9353551974182740e-04 0.0000000000000000e+00  0.0000000000000000e+00 0.0000000000000000e+00 0.0000000000000000e+00  2.2580698143811073e-05 -3.2362792388852889e-02 0.0000000000000000e+00  4.5728401127885519e-05 -4.9198110629009549e-02 0.0000000000000000e+00  4.0670077973784407e-05 -5.4967042352051347e-02 0.0000000000000000e+00  -4.2499336044988095e-05 -5.3677762747770259e-02 0.0000000000000000e+00  -2.2248083934754944e-04 -4.8481040308552735e-02 0.0000000000000000e+00  -4.9673286726869593e-04 -4.1606195950210020e-02 0.0000000000000000e+00  -8.4336956198572126e-04 -3.4467123523830731e-02 0.0000000000000000e+00  -1.2312559444160283e-03 -2.7841486522140736e-02 0.0000000000000000e+00  -1.6251208699552277e-03 -2.2061440283594774e-02 0.0000000000000000e+00  -1.9890525998323802e-03 -1.7182293363382912e-02 0.0000000000000000e+00  -2.2889283763261820e-03 -1.3114006879450527e-02 0.0000000000000000e+00  -2.4957365420468542e-03 -9.7124621655495982e-03 0.0000000000000000e+00  -2.5936660242998084e-03 -6.8334131769382947e-03 0.0000000000000000e+00  -2.5908412571148502e-03 -4.3531357790435442e-03 0.0000000000000000e+00  -2.5775252567157331e-03 -2.1257984947356547e-03 0.0000000000000000e+00  -2.4739052821134404e-03 3.9464277124353664e-05 0.0000000000000000e+00  0.0000000000000000e+00 0.0000000000000000e+00 0.0000000000000000e+00  2.2438769453344079e-04 -3.2556720306014732e-02 0.0000000000000000e+00  6.8347880301298527e-04 -4.9443672258218246e-02 0.0000000000000000e+00  1.1857495292801933e-03 -5.5181227070004432e-02 0.0000000000000000e+00  1.6293149031001669e-03 -5.3814123254023162e-02 0.0000000000000000e+00  1.9755532828548699e-03 -4.8526296488479330e-02 0.0000000000000000e+00  2.2213995634888296e-03 -4.1569596921648223e-02 0.0000000000000000e+00  2.3833498700595989e-03 -3.4369892531373222e-02 0.0000000000000000e+00  2.4837554751156242e-03 -2.7709275442846026e-02 0.0000000000000000e+00  2.5442415350158858e-03 -2.1920077216455780e-02 0.0000000000000000e+00  2.5824849217751340e-03 -1.7055473275653672e-02 0.0000000000000000e+00  2.6108590508134152e-03 -1.3021036765258056e-02 0.0000000000000000e+00  2.6346102418392096e-03 -9.6642252864879083e-03 0.0000000000000000e+00  2.6488726070992424e-03 -6.8250154249683576e-03 0.0000000000000000e+00  2.6336686216849310e-03 -4.3511223488516384e-03 0.0000000000000000e+00  2.5765518233800337e-03 -2.1002035633675962e-03 0.0000000000000000e+00  2.4826813626389562e-03 2.7494428046684779e-05 0.0000000000000000e+00  0.0000000000000000e+00 0.0000000000000000e+00 0.0000000000000000e+00  4.1891879274891464e-04 -3.3108030822645976e-02 0.0000000000000000e+00  1.3202592863990740e-03 -5.0194134550407610e-02 0.0000000000000000e+00  2.3669817219539526e-03 -5.5948257957754745e-02 0.0000000000000000e+00  3.3937048038509021e-03 -5.4516167640403901e-02 0.0000000000000000e+00  4.3392182128737695e-03 -4.9139673044257141e-02 0.0000000000000000e+00  5.1940422309418657e-03 -4.2099213751905278e-02 0.0000000000000000e+00  5.9684730923232595e-03 -3.4830152359638301e-02 0.0000000000000000e+00  6.6737375114856012e-03 -2.8113467252627540e-02 0.0000000000000000e+00  7.3139736499956256e-03 -2.2276054301830234e-02 0.0000000000000000e+00  7.8842997177335453e-03 -1.7364661604631629e-02 0.0000000000000000e+00  8.3718356756502868e-03 -1.3278482016764638e-02 0.0000000000000000e+00  8.7577896142023298e-03 -9.8585528947285461e-03 0.0000000000000000e+00  9.0203967829404243e-03 -6.9389206066315570e-03 0.0000000000000000e+00  9.1433096704925682e-03 -4.3697340842178464e-03 0.0000000000000000e+00  9.1257899274695322e-03 -2.0264653150597845e-03 0.0000000000000000e+00  8.9994595254126817e-03 1.5906937831577770e-04 0.0000000000000000e+00  0.0000000000000000e+00 0.0000000000000000e+00 0.0000000000000000e+00  5.9340857266272585e-04 -3.3997497137763663e-02 0.0000000000000000e+00  1.9040713395693124e-03 -5.1445726723795139e-02 0.0000000000000000e+00  3.4787396340573125e-03 -5.7288539116022490e-02 0.0000000000000000e+00  5.1003651757847929e-03 -5.5828642475826445e-02 0.0000000000000000e+00  6.6908756282313903e-03 -5.0391034896339414e-02 0.0000000000000000e+00  8.2354672258624518e-03 -4.3289947809433953e-02 0.0000000000000000e+00  9.7363953095202516e-03 -3.5965602728190806e-02 0.0000000000000000e+00  1.1188931296438876e-02 -2.9190333028834864e-02 0.0000000000000000e+00  1.2573038282750991e-02 -2.3278746606171137e-02 0.0000000000000000e+00  1.3853693075771910e-02 -1.8266722238337751e-02 0.0000000000000000e+00  1.4984997957352119e-02 -1.4045851286763599e-02 0.0000000000000000e+00  1.5916056498040742e-02 -1.0453759059366140e-02 0.0000000000000000e+00  1.6598636144180879e-02 -7.3286397813891917e-03 0.0000000000000000e+00  1.7000255695263328e-02 -4.5376181179254222e-03 0.0000000000000000e+00  1.7116487524712089e-02 -1.9872256383263150e-03 0.0000000000000000e+00  1.6988715980653140e-02 3.7858033091053123e-04 0.0000000000000000e+00  0.0000000000000000e+00 0.0000000000000000e+00 0.0000000000000000e+00  7.3966889950106138e-04 -3.5183838209032800e-02 0.0000000000000000e+00  2.4025137206480987e-03 -5.3155060998305421e-02 0.0000000000000000e+00  4.4576256233747683e-03 -5.9183091028487768e-02 0.0000000000000000e+00  6.6641101234909154e-03 -5.7771690197796197e-02 0.0000000000000000e+00  8.9423464889685465e-03 -5.2346147545998013e-02 0.0000000000000000e+00  1.1276782858771248e-02 -4.5253356549832230e-02 0.0000000000000000e+00  1.3658341874283421e-02 -3.7929020870649664e-02 0.0000000000000000e+00  1.6057751530742282e-02 -3.1126182223296467e-02 0.0000000000000000e+00  1.8419349628474031e-02 -2.5138793907203159e-02 0.0000000000000000e+00  2.0665297732892402e-02 -1.9986454559596866e-02 0.0000000000000000e+00  2.2702930641994995e-02 -1.5550027216721737e-02 0.0000000000000000e+00  2.4432402994944490e-02 -1.1663855774697612e-02 0.0000000000000000e+00  2.5756464945592618e-02 -8.1754481322768545e-03 0.0000000000000000e+00  2.6601349847666173e-02 -4.9791714021736383e-03 0.0000000000000000e+00  2.6938781969056722e-02 -2.0256946036132056e-03 0.0000000000000000e+00  2.6831824629592379e-02 6.9574806676081470e-04 0.0000000000000000e+00  0.0000000000000000e+00 0.0000000000000000e+00 0.0000000000000000e+00  8.4762230365937621e-04 -3.6609276456098398e-02 0.0000000000000000e+00  2.7813348688156552e-03 -5.5251405629086758e-02 0.0000000000000000e+00  5.2441230735837388e-03 -6.1589470174226932e-02 0.0000000000000000e+00  8.0136501100017063e-03 -6.0358971030506844e-02 0.0000000000000000e+00  1.1033222728808393e-02 -5.5087561451542810e-02 0.0000000000000000e+00  1.4293595652178972e-02 -4.8141325644166948e-02 0.0000000000000000e+00  1.7768383057838705e-02 -4.0933697816281631e-02 0.0000000000000000e+00  2.1389919883138531e-02 -3.4183249878797707e-02 0.0000000000000000e+00  2.5049789374179454e-02 -2.8152824364686503e-02 0.0000000000000000e+00  2.8609529319736877e-02 -2.2838976263556205e-02 0.0000000000000000e+00  3.1910223228206927e-02 -1.8107727281360265e-02 0.0000000000000000e+00  3.4779877839160214e-02 -1.3786523771876507e-02 0.0000000000000000e+00  3.7042816631067066e-02 -9.7263390814131320e-03 0.0000000000000000e+00  3.8546283837407928e-02 -5.8511966387091337e-03 0.0000000000000000e+00  3.9202524257177851e-02 -2.1918256752658048e-03 0.0000000000000000e+00  3.9105117703472317e-02 1.1504751916152232e-03 0.0000000000000000e+00  0.0000000000000000e+00 0.0000000000000000e+00 0.0000000000000000e+00  8.9952435025929592e-04 -3.8191558186841605e-02 0.0000000000000000e+00  2.9851162913380742e-03 -5.7631025646278818e-02 0.0000000000000000e+00  5.7474469218772401e-03 -6.4441909479339296e-02 0.0000000000000000e+00  9.0425769455601667e-03 -6.3603169336412427e-02 0.0000000000000000e+00  1.2869137897653888e-02 -5.8723955636946400e-02 0.0000000000000000e+00  1.7230941356408291e-02 -5.2157297842497466e-02 0.0000000000000000e+00  2.2072995388540649e-02 -4.5264730906821593e-02 0.0000000000000000e+00  2.7268517176102184e-02 -3.8709518319411329e-02 0.0000000000000000e+00  3.2633091739665415e-02 -3.2711811153621234e-02 0.0000000000000000e+00  3.7944447338503537e-02 -2.7240570143918917e-02 0.0000000000000000e+00  4.2956403317944390e-02 -2.2141902509231436e-02 0.0000000000000000e+00  4.7404456654526771e-02 -1.7219113496587946e-02 0.0000000000000000e+00  5.0998335584058863e-02 -1.2306238746382531e-02 0.0000000000000000e+00  5.3444810061429149e-02 -7.3635924383466120e-03 0.0000000000000000e+00  5.4531760819496441e-02 -2.5494312621046991e-03 0.0000000000000000e+00  5.4358687499655861e-02 1.8333050068924911e-03 0.0000000000000000e+00  0.0000000000000000e+00 0.0000000000000000e+00 0.0000000000000000e+00  8.6412913371119277e-04 -3.9806008107529961e-02 0.0000000000000000e+00  2.9197396620127738e-03 -6.0137769637928204e-02 0.0000000000000000e+00  5.8157480887630238e-03 -6.7637953963911535e-02 0.0000000000000000e+00  9.5676202625151335e-03 -6.7508774547289541e-02 0.0000000000000000e+00  1.4266403983282498e-02 -6.3385644850387238e-02 0.0000000000000000e+00  1.9930470152221821e-02 -5.7550733310423562e-02 0.0000000000000000e+00  2.6456029945267773e-02 -5.1269705554254488e-02 0.0000000000000000e+00  3.3628046769480779e-02 -4.5124770897431866e-02 0.0000000000000000e+00  4.1155665473790140e-02 -3.9283998468255678e-02 0.0000000000000000e+00  4.8707310041629578e-02 -3.3687861494070694e-02 0.0000000000000000e+00  5.5936402589425581e-02 -2.8156915156173849e-02 0.0000000000000000e+00  6.2468829150564766e-02 -2.2460337728404240e-02 0.0000000000000000e+00  6.7865814868431365e-02 -1.6397157751823360e-02 0.0000000000000000e+00  7.1635732445952449e-02 -9.8988623409980141e-03 0.0000000000000000e+00  7.3315123925865366e-02 -3.2205134203064797e-03 0.0000000000000000e+00  7.2880632123159317e-02 2.9153018742942372e-03 0.0000000000000000e+00  0.0000000000000000e+00 0.0000000000000000e+00 0.0000000000000000e+00  6.9191027721793308e-04 -4.1258495868666624e-02 0.0000000000000000e+00  2.4412786826396057e-03 -6.2534116751331845e-02 0.0000000000000000e+00  5.2206309044873266e-03 -7.1016405334853872e-02 0.0000000000000000e+00  9.3067104009869374e-03 -7.2053909013787290e-02 0.0000000000000000e+00  1.4916292800845086e-02 -6.9203370268014819e-02 0.0000000000000000e+00  2.2070859729996603e-02 -6.4587323507769592e-02 0.0000000000000000e+00  3.0585322759766654e-02 -5.9317942517401190e-02 0.0000000000000000e+00  4.0118496942536996e-02 -5.3868888125154543e-02 0.0000000000000000e+00  5.0238305799129017e-02 -4.8351239470432378e-02 0.0000000000000000e+00  6.0482140978106544e-02 -4.2685649853117298e-02 0.0000000000000000e+00  7.0390192396206558e-02 -3.6687924572964874e-02 0.0000000000000000e+00  7.9477018329931315e-02 -3.0096750192253139e-02 0.0000000000000000e+00  8.7206783103169191e-02 -2.2558621044007927e-02 0.0000000000000000e+00  9.2834083830350758e-02 -1.3794820366719767e-02 0.0000000000000000e+00  9.5356339129642628e-02 -4.2075459659379070e-03 0.0000000000000000e+00  9.4225382862422824e-02 4.6892362730762320e-03 0.0000000000000000e+00  0.0000000000000000e+00 0.0000000000000000e+00 0.0000000000000000e+00  3.1497106588569934e-04 -4.2255626817312673e-02 0.0000000000000000e+00  1.3642369621428689e-03 -6.4475259277887623e-02 0.0000000000000000e+00  3.6783494605106292e-03 -7.4338259593290865e-02 0.0000000000000000e+00  7.9044022668239549e-03 -7.7165810754668690e-02 0.0000000000000000e+00  1.4396100138354875e-02 -7.6265955248192852e-02 0.0000000000000000e+00  2.3143797664078921e-02 -7.3482929608581757e-02 0.0000000000000000e+00  3.3836135747868611e-02 -6.9711101579446641e-02 0.0000000000000000e+00  4.5965745052494386e-02 -6.5291935075333943e-02 0.0000000000000000e+00  5.8929918018169568e-02 -6.0282853593949845e-02 0.0000000000000000e+00  7.2112950482905752e-02 -5.4611719583675500e-02 0.0000000000000000e+00  8.4926727094732105e-02 -4.8129472901049533e-02 0.0000000000000000e+00  9.6847894434110876e-02 -4.0542691189453139e-02 0.0000000000000000e+00  1.0734448759845903e-01 -3.1340502044332405e-02 0.0000000000000000e+00  1.1533714793315926e-01 -2.0059388113499822e-02 0.0000000000000000e+00  1.1932192929689191e-01 -6.7152711192160711e-03 0.0000000000000000e+00  1.1744394482478374e-01 7.4083188872425170e-03 0.0000000000000000e+00  0.0000000000000000e+00 0.0000000000000000e+00 0.0000000000000000e+00  -3.3850865641186671e-04 -4.2387932788514798e-02 0.0000000000000000e+00  -4.8158313984511140e-04 -6.5512435328947821e-02 0.0000000000000000e+00  9.5335936495989366e-04 -7.7290688066834853e-02 0.0000000000000000e+00  5.0554979910691572e-03 -8.2694937018072512e-02 0.0000000000000000e+00  1.2273689085188397e-02 -8.4546727010782585e-02 0.0000000000000000e+00  2.2503443556624675e-02 -8.4280497622136075e-02 0.0000000000000000e+00  3.5260373993527432e-02 -8.2519090886252103e-02 0.0000000000000000e+00  4.9848263072975352e-02 -7.9461740537640976e-02 0.0000000000000000e+00  6.5485669827925114e-02 -7.5125059431882454e-02 0.0000000000000000e+00  8.1392272535422722e-02 -6.9473785126516530e-02 0.0000000000000000e+00  9.6862217154926808e-02 -6.2445750532638518e-02 0.0000000000000000e+00  1.1137166670329517e-01 -5.3872063474915778e-02 0.0000000000000000e+00  1.2439800647766769e-01 -4.3295497681090957e-02 0.0000000000000000e+00  1.3528227258511616e-01 -2.9283827921114884e-02 0.0000000000000000e+00  1.4235767048131326e-01 -9.8736296113216340e-03 0.0000000000000000e+00  1.4149844144678006e-01 1.0503032262443946e-02 0.0000000000000000e+00  0.0000000000000000e+00 0.0000000000000000e+00 0.0000000000000000e+00  -1.2933782118547447e-03 -4.1177689813766856e-02 0.0000000000000000e+00  -3.0826900534112883e-03 -6.5184671661679391e-02 0.0000000000000000e+00  -2.8728135765096600e-03 -7.9548550831294390e-02 0.0000000000000000e+00  8.0681228653123316e-04 -8.8391350281578407e-02 0.0000000000000000e+00  8.3718851956687788e-03 -9.3780289040661810e-02 0.0000000000000000e+00  1.9542233347787600e-02 -9.6640340524361837e-02 0.0000000000000000e+00  3.3644143085859904e-02 -9.7308989787856029e-02 0.0000000000000000e+00  4.9822676639191626e-02 -9.5859130975148588e-02 0.0000000000000000e+00  6.7165551455416903e-02 -9.2283485857694039e-02 0.0000000000000000e+00  8.4773098583663456e-02 -8.6594278387351217e-02 0.0000000000000000e+00  1.0183285815539443e-01 -7.8859210198082813e-02 0.0000000000000000e+00  1.1767287067571086e-01 -6.9161473221981837e-02 0.0000000000000000e+00  1.3190210398261204e-01 -5.7216014034106789e-02 0.0000000000000000e+00  1.4529237218250463e-01 -4.1547855725957678e-02 0.0000000000000000e+00  1.5665069876244769e-01 -1.8307159161162889e-02 0.0000000000000000e+00  1.5357559578987348e-01 1.2615361252874657e-02 0.0000000000000000e+00  0.0000000000000000e+00 0.0000000000000000e+00 0.0000000000000000e+00  -2.3721463528163177e-03 -3.8270937734096483e-02 0.0000000000000000e+00  -5.8331858325401378e-03 -6.3267609937974825e-02 0.0000000000000000e+00  -6.8350905657350459e-03 -8.0903581374510924e-02 0.0000000000000000e+00  -3.8623120647228002e-03 -9.3849038998378209e-02 0.0000000000000000e+00  3.2617266188170670e-03 -1.0323886880804863e-01 0.0000000000000000e+00  1.4046754517522646e-02 -1.0949396130754781e-01 0.0000000000000000e+00  2.7707129158821620e-02 -1.1272338853508362e-01 0.0000000000000000e+00  4.3361177013890702e-02 -1.1292256358056096e-01 0.0000000000000000e+00  6.0115870275806942e-02 -1.1007740680993414e-01 0.0000000000000000e+00  7.7095140469128950e-02 -1.0422708871667416e-01 0.0000000000000000e+00  9.3440918753020616e-02 -9.5514211733830054e-02 0.0000000000000000e+00  1.0832305081329013e-01 -8.4199515751914325e-02 0.0000000000000000e+00  1.2138407451394809e-01 -7.0612786619596510e-02 0.0000000000000000e+00  1.3285397508614938e-01 -5.5032330461666251e-02 0.0000000000000000e+00  1.4340267167475285e-01 -3.4825284890517783e-02 0.0000000000000000e+00  1.6200758745830826e-01 -1.8490792052490268e-03 0.0000000000000000e+00  0.0000000000000000e+00 0.0000000000000000e+00 0.0000000000000000e+00  -2.7755139264807041e-03 -3.4075079438790019e-02 0.0000000000000000e+00  -6.6391983957652580e-03 -6.0375441641376641e-02 0.0000000000000000e+00  -8.0408908550993422e-03 -8.1493066090120941e-02 0.0000000000000000e+00  -6.1039449559995166e-03 -9.8386964314664080e-02 0.0000000000000000e+00  -9.9468923038763561e-04 -1.1137923661812750e-01 0.0000000000000000e+00  6.7524412709364925e-03 -1.2055648005075238e-01 0.0000000000000000e+00  1.6498467563880938e-02 -1.2592357291773873e-01 0.0000000000000000e+00  2.7607841259267810e-02 -1.2746470589724040e-01 0.0000000000000000e+00  3.9473548003267571e-02 -1.2517369149558352e-01 0.0000000000000000e+00  5.1502054542006050e-02 -1.1907655748244572e-01 0.0000000000000000e+00  6.3060386457553394e-02 -1.0925715405520417e-01 0.0000000000000000e+00  7.3454310620897231e-02 -9.5891270096217118e-02 0.0000000000000000e+00  8.1768073274132796e-02 -7.9449236059002254e-02 0.0000000000000000e+00  8.6441310533180368e-02 -6.0566328735649218e-02 0.0000000000000000e+00  8.9096285849130999e-02 -3.9903302858289587e-02 0.0000000000000000e+00  6.9474848001088024e-02 -1.1441896336315399e-02 0.0000000000000000e+00  0.0000000000000000e+00 0.0000000000000000e+00 0.0000000000000000e+00  0.0000000000000000e+00 -3.1396101268295382e-02 0.0000000000000000e+00  0.0000000000000000e+00 -5.8606055700818040e-02 0.0000000000000000e+00  0.0000000000000000e+00 -8.1629863297567995e-02 0.0000000000000000e+00  0.0000000000000000e+00 -1.0046752405854523e-01 0.0000000000000000e+00  0.0000000000000000e+00 -1.1511903798374973e-01 0.0000000000000000e+00  0.0000000000000000e+00 -1.2558440507318153e-01 0.0000000000000000e+00  0.0000000000000000e+00 -1.3186362532684059e-01 0.00