<?xml version="1.0"?>
<VTKFile type="UnstructuredGrid"  version="0.1"  >
<UnstructuredGrid>
<Piece  NumberOfPoints="289" NumberOfCells="512">
<Points>
<DataArray  type="Float64"  NumberOfComponents="3"  format="ascii">0 0 0  0.0625 0 0  0.125 0 0  0.1875 0 0  0.25 0 0  0.3125 0 0  0.375 0 0  0.4375 0 0  0.5 0 0  0.5625 0 0  0.625 0 0  0.6875 0 0  0.75 0 0  0.8125 0 0  0.875 0 0  0.9375 0 0  1 0 0  0 0.0625 0  0.06247850764420743 0.06246933384127804 0  0.1249572925002584 0.06243813606370004 0  0.1874367219435379 0.06240591519985816 0  0.2499174783484732 0.06237229661832534 0  0.3124007700390453 0.0623370974626245 0  0.3748886189114638 0.06230041968305152 0  0.4373842712194408 0.06226276142548821 0  0.4998928102006784 0.06222513852648944 0  0.5624221221595114 0.06218919224147638 0  0.6249845440025643 0.062157232656546 0  0.6875999740031248 0.06213212426190007 0  0.7503024644436329 0.06211685260480821 0  0.8131558653191017 0.06211349692996573 0  0.8762947075908207 0.06212109422708138 0  0.940039087854057 0.06213134784282184 0  1.005232004398872 0.06212315636470492 0  0 0.125 0  0.0624567535958611 0.1249391737789814 0  0.1249139287593365 0.1248772249789878 0  0.1873721193774599 0.1248131053281918 0  0.2498325216154483 0.124745986887538 0  0.3122973400852305 0.1246754079295249 0  0.3747703429022999 0.1246014599630679 0  0.4372576498850229 0.1245250211030637 0  0.4997688855431123 0.1244480269196519 0  0.5623189243227639 0.1243737425922601 0  0.6249306563122458 0.1243069520675066 0  0.6876396250215634 0.1242539040704127 0  0.7505022436432885 0.1242217569064844 0  0.8136107736201404 0.1242172106222721 0  0.8771195571051471 0.1242443255578265 0  0.9412816517207718 0.1243034688344061 0  1.006455059890095 0.1244004663107991 0  0 0.1875 0  0.06243467728600292 0.1874101263198295 0  0.1248696509315393 0.1873184314514746 0  0.1873054486078171 0.1872231899917251 0  0.2497434155585231 0.1871229712880113 0  0.3121862713327045 0.1870168452417462 0  0.3746388730384208 0.1869046597001908 0  0.4371092906021847 0.1867874077831703 0  0.4996103391254532 0.1866676898976379 0  0.5621617755523147 0.1865502441062097 0  0.6247934594295952 0.186442455820416 0  0.6875498873738011 0.1863546411576753 0  0.7504965117884591 0.1862996888182368 0  0.8137275982266928 0.1862912469828649 0  0.8773722844858531 0.1863386997465442 0  0.9415857918244939 0.1864341651397435 0  1.006492758814831 0.1865153929424509 0  0 0.25 0  0.06241248574438028 0.2498829037198819 0  0.1248247712333196 0.2497631467569842 0  0.1872369108238523 0.2496381654023311 0  0.2496498825303439 0.2495057172417715 0  0.312066229473618 0.2493641246499401 0  0.3744909501712828 0.2492126262788355 0  0.436932754982812 0.2490518777674669 0  0.4994058304870652 0.2488846390209309 0  0.5619322687048176 0.2487166651599484 0  0.624545291089921 0.2485577626412991 0  0.6872932415584205 0.2484228472405791 0  0.750243822718851 0.2483325885656781 0  0.8134867235256149 0.2483127521479534 0  0.8771298067393786 0.2483905363291721 0  0.9412789425080362 0.2485851870357277 0  1.005988064675792 0.248891373659587 0  0 0.3125 0  0.06239073605482094 0.3123583551825937 0  0.1247803549024062 0.3122130601610859 0  0.1871679725224888 0.3120605348101762 0  0.2495535974582817 0.3118974785618437 0  0.3119387764873638 0.3117211139214148 0  0.3743275194163061 0.3115295735687738 0  0.4367276354774748 0.3113225026704876 0  0.4991526357389057 0.3111019647995342 0  0.5616243531488851 0.3108737501437083 0  0.6241763548317929 0.310649169048594 0  0.6868579701104318 0.3104473307424797 0  0.7497381587619154 0.3102976770282557 0  0.812907279293688 0.3102420375958079 0  0.8764731010934549 0.3103345698002233 0  0.9405463949015568 0.3106367469596278 0  1.005215917422956 0.3112039119520368 0  0 0.375 0  0.06237036568171476 0.3748374737935799 0  0.1247382944059129 0.3746701820239679 0  0.1871015107924737 0.374493368077466 0  0.2494584457355697 0.3743024271756579 0  0.3118087938183871 0.3740930950502401 0  0.3741543666904499 0.3738618026475933 0  0.4365004005838786 0.3736062990880023 0  0.4988575207985441 0.3733266918050437 0  0.5612445971682364 0.3730271143020795 0  0.6236926957568643 0.3727182975103526 0  0.6862501513470766 0.3724213507412836 0  0.7489883111754002 0.372172948775055 0  0.8120066198099845 0.3720316561675957 0  0.8754346674902121 0.3720839692966475 0  0.9394289851147881 0.3724466171196328 0  1.004167194900831 0.373259304128053 0  0 0.4375 0  0.06235266207281509 0.4373213703908894 0  0.1247012566606495 0.4371367989059572 0  0.1870417548102584 0.4369402554818094 0  0.2493704869481265 0.4367256401484275 0  0.3116845087432291 0.4364868483492643 0  0.3739822543801766 0.4362179957532275 0  0.4362646663043279 0.4359139229488581 0  0.4985370846286634 0.4355711792594572 0  0.5608123024173761 0.435189811101734 0  0.6231153215495842 0.4347764684005903 0  0.6854904036997163 0.4343495853858027 0  0.7480108412054602 0.4339475992236912 0  0.8107912390892454 0.4336410318557792 0  0.8740009584036128 0.4335480737279554 0  0.9378767836358509 0.4338501556576668 0  1.002736707433959 0.4347993227953533 0  0 0.5 0  0.06233916792676401 0.4998112076283052 0  0.1246724942875985 0.4996153440627914 0  0.1869940066541637 0.4994051223349852 0  0.2492975984617928 0.499172879528891 0  0.3115770947485815 0.4989104476834607 0  0.3738265492523868 0.4986091343025267 0  0.4360409778284239 0.498259922840765 0  0.4982178914208356 0.4978541027757871 0  0.5603602532433579 0.4973847211447177 0  0.622481883899677 0.4968495731777955 0  0.6846168658211951 0.4962570009834547 0  0.7468349900555641 0.4956365945449244 0  0.8092652242847866 0.4950577668559097 0  0.8721276258001694 0.4946589697683863 0  0.9357709534419941 0.4946861675992104 0  1.000714238388663 0.4955283313703128 0  0 0.5625 0  0.06233152406747802 0.5623080925387286 0  0.1246555217434589 0.5621081765395074 0  0.1869641348721224 0.5618918845432863 0  0.2492487743238037 0.561650116561268 0  0.3114997880150475 0.5613726617841551 0  0.3737062326658547 0.5610478314317919 0  0.4358559232618456 0.560662162095409 0  0.4979361418793385 0.5602003381465944 0  0.5599357921027371 0.5596456724006071 0  0.6218505338188013 0.5589818889474701 0  0.6836937090689639 0.558197798414797 0  0.7455177311637933 0.5572981515697241 0  0.8074524238868031 0.5563269839640297 0  0.869766016883576 0.5554135514190368 0  0.932946387536508 0.5548498232205279 0  0.997785333759786 0.5551894134131234 0  0 0.625 0  0.06233125930750399 0.6248129341132653 0  0.1246536714356588 0.6246172795364294 0  0.1869578525755191 0.6244039538303975 0  0.2492330686309238 0.6241627933165909 0  0.3114664489044908 0.6238819101486557 0  0.3736420942660885 0.6235469253374527 0  0.4357401437962976 0.62314004499914 0  0.4977360600289039 0.6226389823073063 0  0.5596008565116392 0.6220158370620053 0  0.6213040269222014 0.6212363552950934 0  0.6828231080923108 0.6202608414744132 0  0.7441679692126877 0.6190502745243812 0  0.8054345446264263 0.6175870406817261 0  0.8669085180823327 0.6159328997814001 0  0.9292295486596782 0.6143636331816533 0  0.9935944921154518 0.6135919545784381 0  0 0.6875 0  0.06233954698854394 0.6873262826771179 0  0.1246695670114627 0.6871439118887587 0  0.186979827465166 0.6869436430660535 0  0.2492582207563599 0.6867148843058718 0  0.3114895472435978 0.6864448319800469 0  0.3736539254858827 0.6861173425859027 0  0.4357246952996782 0.6857113966236168 0  0.4976657563617149 0.6851989555018727 0  0.5594285988758266 0.684541946926116 0  0.6209502485234613 0.6836880865682781 0  0.6821559840083494 0.6825654790240288 0  0.7429773121598411 0.6810773585554579 0  0.8034107852002568 0.6791045208528282 0  0.8636705863236518 0.6765474024276352 0  0.9244938265374695 0.6735217358724506 0  0.9875406288553039 0.6708355655247827 0  0 0.75 0  0.06235696051460952 0.7498481776068147 0  0.1247045807463414 0.7496882698494763 0  0.1870327270783687 0.7495115678950242 0  0.2493290954447175 0.7493079054978764 0  0.3115777004059071 0.7490646799433995 0  0.3737567365324067 0.7487655101514867 0  0.4358354317487978 0.7483882988823457 0  0.4977693587863664 0.7479023255246559 0  0.5594935481863927 0.7472637398847992 0  0.6209129544632952 0.746408347317066 0  0.6818914254230884 0.7452396746478736 0  0.7422467414561315 0.7436087935840443 0  0.8017811017929125 0.7412812364952293 0  0.8604446397767069 0.7378962728501782 0  0.9189078908311054 0.7330322873865101 0  0.979219294434492 0.7275499990457561 0  0 0.8125 0  0.06238327212344694 0.8123780356193328 0  0.1247583728807904 0.8122492314481872 0  0.187116368810633 0.8121061744732374 0  0.249446203564704 0.8119400897459208 0  0.3117331458671891 0.8117399001546889 0  0.3739564716857172 0.8114909038264375 0  0.4360858100116992 0.8111728123416291 0  0.4980751728123041 0.8107567264080769 0  0.5598529684426632 0.8102003069819738 0  0.6213051120783661 0.8094397340510954 0  0.6822467820257442 0.8083754871844343 0  0.7423780962928898 0.8068449419955454 0  0.8012292882818263 0.8045637082196893 0  0.8581664423946238 0.8009873508640656 0  0.9128919561859794 0.7949628300998159 0  0.969932169298491 0.7836573431021685 0  0 0.875 0  0.06241734479277706 0.8749146101088018 0  0.124828629173442 0.8748242538840513 0  0.1872271940283641 0.8747235259462772 0  0.2496046923221001 0.8746059672210319 0  0.3119498150968263 0.8744633271139665 0  0.3742463220249616 0.8742845145627767 0  0.4364697964155034 0.8740540340584478 0  0.4985820283213505 0.8737495884770142 0  0.5605208546973212 0.873338348000856 0  0.6221809913740909 0.8727710845193207 0  0.6833764087033244 0.8719727594183324 0  0.7437640212061819 0.8708261851883664 0  0.8026862951296381 0.8691366262927329 0  0.8588523651251339 0.8665249368776956 0  0.9097525803144971 0.8620301690783968 0  0.9508969460977696 0.8526104954299241 0  0 0.9375 0  0.06245715998666399 0.9374560413838744 0  0.1249111012206118 0.9374094713271657 0  0.1873582790968555 0.9373574407705805 0  0.2497942227706357 0.9372965272612768 0  0.3122128255194666 0.937222331161894 0  0.374605229216244 0.9371289006602701 0  0.436957945616990
[...]
<PointData  Vectors="f_95-0"> 
<DataArray  type="Float64"  Name="f_95-0"  NumberOfComponents="3" format="ascii">0.0000000000000000e+00 0.0000000000000000e+00 0.0000000000000000e+00  -7.0178597143644205e-04 -1.9267361535676077e-03 0.0000000000000000e+00  -1.9680156830851159e-03 6.4996317905057490e-03 0.0000000000000000e+00  -3.4912521029886127e-03 1.8560342441731333e-02 0.0000000000000000e+00  -5.2808547041948914e-03 3.0415569829918845e-02 0.0000000000000000e+00  -7.2896125062775798e-03 3.9970775864611327e-02 0.0000000000000000e+00  -9.4654390468891045e-03 4.6352435168445519e-02 0.0000000000000000e+00  -1.1744705755386352e-02 4.9464764549501709e-02 0.0000000000000000e+00  -1.4053436137009578e-02 4.9649560731373610e-02 0.0000000000000000e+00  -1.6306945211167517e-02 4.7443913038648831e-02 0.0000000000000000e+00  -1.8408431489998166e-02 4.3424848244197976e-02 0.0000000000000000e+00  -2.0246200799056070e-02 3.8121749227951418e-02 0.0000000000000000e+00  -2.1693190760638029e-02 3.1979775423132517e-02 0.0000000000000000e+00  -2.2581244903515277e-02 2.5335874245491417e-02 0.0000000000000000e+00  -2.2690767505135309e-02 1.8474945782582387e-02 0.0000000000000000e+00  -2.2118536128479145e-02 1.1697442529571046e-02 0.0000000000000000e+00  -1.0241504312840294e-02 9.9315176574947157e-03 0.0000000000000000e+00  0.0000000000000000e+00 0.0000000000000000e+00 0.0000000000000000e+00  -5.5863130929013243e-04 -8.2689163934193211e-04 0.0000000000000000e+00  -1.7598965390898356e-03 7.9064571655729950e-03 0.0000000000000000e+00  -3.2801516057966687e-03 2.0236081621288600e-02 0.0000000000000000e+00  -5.0886662680034757e-03 3.2326760186045640e-02 0.0000000000000000e+00  -7.1300818829980748e-03 4.2076127289071071e-02 0.0000000000000000e+00  -9.3512509325347250e-03 4.8597517930797945e-02 0.0000000000000000e+00  -1.1686077824910832e-02 5.1783026558991627e-02 0.0000000000000000e+00  -1.4059560768966977e-02 5.1962224672341795e-02 0.0000000000000000e+00  -1.6386665902892981e-02 4.9658825797080489e-02 0.0000000000000000e+00  -1.8570862007808733e-02 4.5434652786885861e-02 0.0000000000000000e+00  -2.0503029545262393e-02 3.9801568827549372e-02 0.0000000000000000e+00  -2.2059877432127277e-02 3.3178765883183123e-02 0.0000000000000000e+00  -2.3097638638616566e-02 2.5876282875185147e-02 0.0000000000000000e+00  -2.3512236071929645e-02 1.8091585456981377e-02 0.0000000000000000e+00  -2.2836880384640466e-02 9.7918577374218364e-03 0.0000000000000000e+00  -2.2746889988870537e-02 2.9410685627358573e-03 0.0000000000000000e+00  0.0000000000000000e+00 0.0000000000000000e+00 0.0000000000000000e+00  -3.8930261249100622e-04 3.4203648998060653e-05 0.0000000000000000e+00  -1.4358826909485532e-03 9.2367512881663793e-03 0.0000000000000000e+00  -2.9399052788617232e-03 2.1908133387832752e-02 0.0000000000000000e+00  -4.8149557073741914e-03 3.4284720232911771e-02 0.0000000000000000e+00  -6.9822508589383516e-03 4.4264712478186773e-02 0.0000000000000000e+00  -9.3724910907354922e-03 5.0952625900167338e-02 0.0000000000000000e+00  -1.1909258958676849e-02 5.4231954321186174e-02 0.0000000000000000e+00  -1.4511383707503560e-02 5.4422382392384935e-02 0.0000000000000000e+00  -1.7089474151926746e-02 5.2035839055340927e-02 0.0000000000000000e+00  -1.9544155128604791e-02 4.7620922791629883e-02 0.0000000000000000e+00  -2.1766119713544987e-02 4.1676358062755700e-02 0.0000000000000000e+00  -2.3640594400512419e-02 3.4611782243235627e-02 0.0000000000000000e+00  -2.5062700489894466e-02 2.6737246128506868e-02 0.0000000000000000e+00  -2.5948344820651423e-02 1.8268351020949744e-02 0.0000000000000000e+00  -2.6349227122405294e-02 9.4119432364015258e-03 0.0000000000000000e+00  -2.6087788424198847e-02 7.1101693736478971e-04 0.0000000000000000e+00  0.0000000000000000e+00 0.0000000000000000e+00 0.0000000000000000e+00  -2.9482497799298435e-04 7.0603664641068719e-04 0.0000000000000000e+00  -1.2303030118666759e-03 1.0491848658208972e-02 0.0000000000000000e+00  -2.7540594186531496e-03 2.3632314705910210e-02 0.0000000000000000e+00  -4.7699908580291998e-03 3.6388673088148922e-02 0.0000000000000000e+00  -7.1766271839082494e-03 4.6666590605049831e-02 0.0000000000000000e+00  -9.8790486124942425e-03 5.3571612764364514e-02 0.0000000000000000e+00  -1.2783801911949421e-02 5.6984385468379618e-02 0.0000000000000000e+00  -1.5797105042664211e-02 5.7217926024248793e-02 0.0000000000000000e+00  -1.8818868684815745e-02 5.4773796801072937e-02 0.0000000000000000e+00  -2.1739061159882157e-02 5.0188454939138906e-02 0.0000000000000000e+00  -2.4437519416821082e-02 4.3951192926845017e-02 0.0000000000000000e+00  -2.6790772519235777e-02 3.6472281672257807e-02 0.0000000000000000e+00  -2.8684596748397236e-02 2.8082497748996290e-02 0.0000000000000000e+00  -3.0039544108414567e-02 1.9055844168210455e-02 0.0000000000000000e+00  -3.0774748886782364e-02 9.6134860727155446e-03 0.0000000000000000e+00  -3.0830474115405539e-02 2.7724127060945594e-05 0.0000000000000000e+00  0.0000000000000000e+00 0.0000000000000000e+00 0.0000000000000000e+00  -2.5786756382350319e-04 1.2874194459338811e-03 0.0000000000000000e+00  -1.1804861389912475e-03 1.1739408705797266e-02 0.0000000000000000e+00  -2.8077424878195241e-03 2.5482391666588784e-02 0.0000000000000000e+00  -5.0577350725368704e-03 3.8738144597618672e-02 0.0000000000000000e+00  -7.8137346289800045e-03 4.9408858427593759e-02 0.0000000000000000e+00  -1.0957535765796476e-02 5.6604676220441560e-02 0.0000000000000000e+00  -1.4376708742510982e-02 6.0208647642460644e-02 0.0000000000000000e+00  -1.7961079671770998e-02 6.0530132153222511e-02 0.0000000000000000e+00  -2.1594463430062227e-02 5.8060315428931787e-02 0.0000000000000000e+00  -2.5147640955307242e-02 5.3321475310073835e-02 0.0000000000000000e+00  -2.8475744620863632e-02 4.6791058367673458e-02 0.0000000000000000e+00  -3.1423239046661125e-02 3.8878295930457531e-02 0.0000000000000000e+00  -3.3836731271053785e-02 2.9932010262179606e-02 0.0000000000000000e+00  -3.5580045994164450e-02 2.0256514392051440e-02 0.0000000000000000e+00  -3.6539502688388036e-02 1.0114753354079428e-02 0.0000000000000000e+00  -3.6668584377707848e-02 -3.0386484493849552e-04 0.0000000000000000e+00  0.0000000000000000e+00 0.0000000000000000e+00 0.0000000000000000e+00  -2.6548211816053349e-04 1.8613130240679001e-03 0.0000000000000000e+00  -1.2631197279219415e-03 1.3071777364291546e-02 0.0000000000000000e+00  -3.0816306402081340e-03 2.7547059405946334e-02 0.0000000000000000e+00  -5.6492823880431526e-03 4.1427582055965931e-02 0.0000000000000000e+00  -8.8382040652136735e-03 5.2597440827373186e-02 0.0000000000000000e+00  -1.2512768765120986e-02 6.0170941443597373e-02 0.0000000000000000e+00  -1.6544139797182493e-02 6.4036679832234725e-02 0.0000000000000000e+00  -2.0806449397179429e-02 6.4501452685923902e-02 0.0000000000000000e+00  -2.5165624782680640e-02 6.2043484667444540e-02 0.0000000000000000e+00  -2.9467950302659692e-02 5.7164659570461719e-02 0.0000000000000000e+00  -3.3533485932641285e-02 5.0321664809890844e-02 0.0000000000000000e+00  -3.7158857319846146e-02 4.1912478643371137e-02 0.0000000000000000e+00  -4.0131035050780681e-02 3.2293444621928069e-02 0.0000000000000000e+00  -4.2255210702432287e-02 2.1801654593117812e-02 0.0000000000000000e+00  -4.3388438769831464e-02 1.0754124917844287e-02 0.0000000000000000e+00  -4.3504845950860523e-02 -5.8975649968590993e-04 0.0000000000000000e+00  0.0000000000000000e+00 0.0000000000000000e+00 0.0000000000000000e+00  -3.0355241525286016e-04 2.4940633926733772e-03 0.0000000000000000e+00  -1.4383198359101314e-03 1.4569401060654885e-02 0.0000000000000000e+00  -3.5089452245878946e-03 2.9899250997869380e-02 0.0000000000000000e+00  -6.4410455765651553e-03 4.4521146713667914e-02 0.0000000000000000e+00  -1.0095796862309962e-02 5.6292629899337122e-02 0.0000000000000000e+00  -1.4325652269446400e-02 6.4332142903832462e-02 0.0000000000000000e+00  -1.8991439778502716e-02 6.8535592758405470e-02 0.0000000000000000e+00  -2.3956983024150592e-02 6.9206557083192136e-02 0.0000000000000000e+00  -2.9073883477349492e-02 6.6805337596350031e-02 0.0000000000000000e+00  -3.4164804014855304e-02 6.1803635189604023e-02 0.0000000000000000e+00  -3.9011830902811011e-02 5.4623435881205704e-02 0.0000000000000000e+00  -4.3355932386669106e-02 4.5635926712858467e-02 0.0000000000000000e+00  -4.6913077141877771e-02 3.5194951235161039e-02 0.0000000000000000e+00  -4.9415544543547053e-02 2.3675991055217147e-02 0.0000000000000000e+00  -5.0672768057248727e-02 1.1491119378159203e-02 0.0000000000000000e+00  -5.0673490850595304e-02 -9.8661897400332643e-04 0.0000000000000000e+00  0.0000000000000000e+00 0.0000000000000000e+00 0.0000000000000000e+00  -3.6038442139932591e-04 3.2278844630917458e-03 0.0000000000000000e+00  -1.6657996106737871e-03 1.6280848232237043e-02 0.0000000000000000e+00  -4.0086841124748361e-03 3.2571995214392524e-02 0.0000000000000000e+00  -7.2969008954023688e-03 4.8029476623230635e-02 0.0000000000000000e+00  -1.1378231308190784e-02 6.0485454188832444e-02 0.0000000000000000e+00  -1.6098666499097216e-02 6.9066555720692785e-02 0.0000000000000000e+00  -2.1317832701552682e-02 7.3678746086435098e-02 0.0000000000000000e+00  -2.6899436362645315e-02 7.4621370424279340e-02 0.0000000000000000e+00  -3.2690721144416381e-02 7.2330733766202582e-02 0.0000000000000000e+00  -3.8499717637645550e-02 6.7236534567346837e-02 0.0000000000000000e+00  -4.4077315901864547e-02 5.9708655442054510e-02 0.0000000000000000e+00  -4.9110337594138652e-02 5.0071211897963055e-02 0.0000000000000000e+00  -5.3236759945715618e-02 3.8658467693194955e-02 0.0000000000000000e+00  -5.6094526535097756e-02 2.5881544835990103e-02 0.0000000000000000e+00  -5.7405751617769514e-02 1.2272336830665189e-02 0.0000000000000000e+00  -5.7117595427474327e-02 -1.6138984809934591e-03 0.0000000000000000e+00  0.0000000000000000e+00 0.0000000000000000e+00 0.0000000000000000e+00  -4.2903683441124408e-04 4.0865995174373506e-03 0.0000000000000000e+00  -1.9158349835497368e-03 1.8221395087154636e-02 0.0000000000000000e+00  -4.5095626791731378e-03 3.5548149784174490e-02 0.0000000000000000e+00  -8.0813856586240563e-03 5.1893171346137523e-02 0.0000000000000000e+00  -1.2461535029883982e-02 6.5076137608267956e-02 0.0000000000000000e+00  -1.7496308982548954e-02 7.4242774681774676e-02 0.0000000000000000e+00  -2.3056882548032665e-02 7.9314939325077702e-02 0.0000000000000000e+00  -2.9022245850137487e-02 8.0587924557917384e-02 0.0000000000000000e+00  -3.5252151468277905e-02 7.8468622160123652e-02 0.0000000000000000e+00  -4.1558234075096005e-02 7.3333242607457411e-02 0.0000000000000000e+00  -4.7678654672054274e-02 6.5481329613233413e-02 0.0000000000000000e+00  -5.3261130247738098e-02 5.5165093881396281e-02 0.0000000000000000e+00  -5.7872033021285268e-02 4.2670484552335380e-02 0.0000000000000000e+00  -6.1034806371310625e-02 2.8423365733519671e-02 0.0000000000000000e+00  -6.2331831508463893e-02 1.3079495166987290e-02 0.0000000000000000e+00  -6.1564108698449325e-02 -2.5786224832593141e-03 0.0000000000000000e+00  0.0000000000000000e+00 0.0000000000000000e+00 0.0000000000000000e+00  -5.1118500202014018e-04 5.0860844890457321e-03 0.0000000000000000e+00  -2.1824397039376651e-03 2.0381120426208668e-02 0.0000000000000000e+00  -4.9739155704945446e-03 3.8760159618713853e-02 0.0000000000000000e+00  -8.6925722140554808e-03 5.5973388206072748e-02 0.0000000000000000e+00  -1.3145796648968377e-02 6.9856859515213005e-02 0.0000000000000000e+00  -1.8190317742717271e-02 7.9595979948824086e-02 0.0000000000000000e+00  -2.3726714986822498e-02 8.5138696254310947e-02 0.0000000000000000e+00  -2.9670285572009108e-02 8.6778424969178009e-02 0.0000000000000000e+00  -3.5916645525783102e-02 8.4889443950577098e-02 0.0000000000000000e+00  -4.2308052734668623e-02 7.9786480887925545e-02 0.0000000000000000e+00  -4.8601410037957198e-02 7.1683749560141827e-02 0.0000000000000000e+00  -5.4440680061224760e-02 6.0735516856902171e-02 0.0000000000000000e+00  -5.9349866174370325e-02 4.7142770744712306e-02 0.0000000000000000e+00  -6.2740329815961796e-02 3.1302780696704204e-02 0.0000000000000000e+00  -6.4023544902160126e-02 1.3943150552756835e-02 0.0000000000000000e+00  -6.2713645596045864e-02 -3.8942790526896019e-03 0.0000000000000000e+00  0.0000000000000000e+00 0.0000000000000000e+00 0.0000000000000000e+00  -6.2313115013060204e-04 6.2534056655566984e-03 0.0000000000000000e+00  -2.5000315795526006e-03 2.2744304804456762e-02 0.0000000000000000e+00  -5.4242635799612486e-03 4.2099766264764672e-02 0.0000000000000000e+00  -9.0974999544747234e-03 6.0050686124719227e-02 0.0000000000000000e+00  -1.3300305875386902e-02 7.4502461878598658e-02 0.0000000000000000e+00  -1.7917153997738314e-02 8.4713107990649586e-02 0.0000000000000000e+00  -2.2903171711979971e-02 9.0670765570719167e-02 0.0000000000000000e+00  -2.8236377182170039e-02 9.2670124800730655e-02 0.0000000000000000e+00  -3.3875819060132137e-02 9.1052128978535304e-02 0.0000000000000000e+00  -3.9727161232624486e-02 8.6067724178399224e-02 0.0000000000000000e+00  -4.5609311931830480e-02 7.7838385727190151e-02 0.0000000000000000e+00  -5.1217900748706489e-02 6.6403355381439419e-02 0.0000000000000000e+00  -5.6090981744946845e-02 5.1851453272105774e-02 0.0000000000000000e+00  -5.9597193274477690e-02 3.4496649620597168e-02 0.0000000000000000e+00  -6.1014472752160792e-02 1.5019121616736089e-02 0.0000000000000000e+00  -5.9299662712231131e-02 -5.3936987013509571e-03 0.0000000000000000e+00  0.0000000000000000e+00 0.0000000000000000e+00 0.0000000000000000e+00  -8.0288587130748627e-04 7.6563667803911072e-03 0.0000000000000000e+00  -2.9591198108133493e-03 2.5317844320603317e-02 0.0000000000000000e+00  -5.9643661837327595e-03 4.5434807519906355e-02 0.0000000000000000e+00  -9.3605458752588251e-03 6.3833110020672407e-02 0.0000000000000000e+00  -1.2907096985385381e-02 7.8575882204069414e-02 0.0000000000000000e+00  -1.6546981586946868e-02 8.9039515478111730e-02 0.0000000000000000e+00  -2.0323935086683849e-02 9.5266553975151505e-02 0.0000000000000000e+00  -2.4308154871721988e-02 9.7553077032368152e-02 0.0000000000000000e+00  -2.8548891037337178e-02 9.6205958857502077e-02 0.0000000000000000e+00  -3.3047095530670513e-02 9.1416239012008876e-02 0.0000000000000000e+00  -3.7729538397017606e-02 8.3219571720965058e-02 0.0000000000000000e+00  -4.2407531948143180e-02 7.1542189303577974e-02 0.0000000000000000e+00  -4.6722110837463290e-02 5.6340176406189921e-02 0.0000000000000000e+00  -5.0132752214766894e-02 3.7806967199909322e-02 0.0000000000000000e+00  -5.1892009914178243e-02 1.6539024695601989e-02 0.0000000000000000e+00  -5.0630756896803034e-02 -6.4446855200833344e-03 0.0000000000000000e+00  0.0000000000000000e+00 0.0000000000000000e+00 0.0000000000000000e+00  -1.1124877570558266e-03 9.4407181392547855e-03 0.0000000000000000e+00  -3.7018271211055396e-03 2.8158942325239324e-02 0.0000000000000000e+00  -6.7634263659302725e-03 4.8626101867237433e-02 0.0000000000000000e+00  -9.6306036054422100e-03 6.6976413441346444e-02 0.0000000000000000e+00  -1.2075034402238283e-02 8.1562518912544901e-02 0.0000000000000000e+00  -1.4148175683269603e-02 9.1930761401202696e-02 0.0000000000000000e+00  -1.6022198521153358e-02 9.8183254068771889e-02 0.0000000000000000e+00  -1.7884720613651869e-02 1.0060746555542170e-01 0.0000000000000000e+00  -1.9891850541595740e-02 9.9471040814349557e-02 0.0000000000000000e+00  -2.2157741264725389e-02 9.4914309621752388e-02 0.0000000000000000e+00  -2.4749082311374727e-02 8.6907335178578585e-02 0.0000000000000000e+00  -2.7658928068502998e-02 7.5271341129065375e-02 0.0000000000000000e+00  -3.0734703122555575e-02 5.9818840710839302e-02 0.0000000000000000e+00  -3.3580557329949683e-02 4.0716311931610925e-02 0.0000000000000000e+00  -3.5649282489039036e-02 1.8723685280326970e-02 0.0000000000000000e+00  -3.6441372598206422e-02 -5.8140817378475968e-03 0.0000000000000000e+00  0.0000000000000000e+00 0.0000000000000000e+00 0.0000000000000000e+00  -1.6171142368589899e-03 1.1844400476964251e-02 0.0000000000000000e+00  -4.8399788752191792e-03 3.1364021164269194e-02 0.0000000000000000e+00  -7.9236279868884259e-03 5.1524127916035473e-02 0.0000000000000000e+00  -1.0008455992965043e-02 6.9122427294657771e-02 0.0000000000000000e+00  -1.0962742025464958e-02 8.2960802917082008e-02 0.0000000000000000e+00  -1.1008741498481297e-02 9.2790112123169066e-02 0.0000000000000000e+00  -1.0475244990513239e-02 9.8754115968112482e-02 0.0000000000000000e+00  -9.6714012508217137e-03 1.0110472917751939e-01 0.0000000000000000e+00  -8.8510510902406903e-03 1.0005664595870088e-01 0.0000000000000000e+00  -8.2279796903514842e-03 9.5709346893382188e-02 0.0000000000000000e+00  -8.0099300468166480e-03 8.8000623126928385e-02 0.0000000000000000e+00  -8.4151666530076011e-03 7.6696916634826348e-02 0.0000000000000000e+00  -9.5721525238000611e-03 6.1501840806409545e-02 0.0000000000000000e+00  -1.1297386728502001e-02 4.2383683416304399e-02 0.0000000000000000e+00  -1.3101350850936383e-02 2.0297917941624374e-02 0.0000000000000000e+00  -1.4683723922388632e-02 -3.1899429332249577e-03 0.0000000000000000e+00  0.0000000000000000e+00 0.0000000000000000e+00 0.0000000000000000e+00  -2.2708031845576769e-03 1.5127374480717574e-02 0.0000000000000000e+00  -6.1485041531900795e-03 3.4953879082539385e-02 0.0000000000000000e+00  -9.0593039595524873e-03 5.3935264097756404e-02 0.0000000000000000e+00  -1.0146954430683197e-02 6.9996123666012447e-02 0.0000000000000000e+00  -9.5043156068285398e-03 8.2496792734576982e-02 0.0000000000000000e+00  -7.5487296969567611e-03 9.1370184598061274e-02 0.0000000000000000e+00  -4.7366142466028684e-03 9.6750980514437576e-02 0.0000000000000000e+00  -1.4513398454956009e-03 9.8813946852032042e-02 0.0000000000000000e+00  2.0090710672196043e-03 9.7699950977539515e-02 0.0000000000000000e+00  5.3910046788956077e-03 9.3474583731099056e-02 0.0000000000000000e+00  8.4102420025987928e-03 8.6091594229931553e-02 0.0000000000000000e+00  1.0682299522157738e-02 7.5352057224101682e-02 0.0000000000000000e+00  1.1725752362592190e-02 6.0869503429145690e-02 0.0000000000000000e+00  1.1036223189453260e-02 4.2264424350419695e-02 0.0000000000000000e+00  8.8081734437753193e-03 2.0535829601178175e-02 0.0000000000000000e+00  5.1127560780700899e-03 8.0624699818970889e-04 0.0000000000000000e+00  0.0000000000000000e+00 0.0000000000000000e+00 0.0000000000000000e+00  -2.5186335818332471e-03 1.9097756975881532e-02 0.0000000000000000e+00  -6.1836155269713103e-03 3.8438443785370494e-02 0.0000000000000000e+00  -8.2638229584058448e-03 5.5525134298472181e-02 0.0000000000000000e+00  -8.3581934960863403e-03 6.9618257965557401e-02 0.0000000000000000e+00  -6.7933673289083483e-03 8.0548236776571164e-02 0.0000000000000000e+00  -4.0338864756618671e-03 8.8328064000397208e-02 0.0000000000000000e+00  -4.9881385583532987e-04 9.3020638352049628e-02 0.0000000000000000e+00  3.4918902797680474e-03 9.4693510702928654e-02 0.0000000000000000e+00  7.7063851380514900e-03 9.3400941909785984e-02 0.0000000000000000e+00  1.1958329626117880e-02 8.9174430262549953e-02 0.0000000000000000e+00  1.6035867625628638e-02 8.2012506190309961e-02 0.0000000000000000e+00  1.9594849733984721e-02 7.1855592481628455e-02 0.0000000000000000e+00  2.1926672267670609e-02 5.8539548946638348e-02 0.0000000000000000e+00  2.1892940503197209e-02 4.1910967204294797e-02 0.0000000000000000e+00  1.8555329684882653e-02 2.1799471029914030e-02 0.0000000000000000e+00  6.5724406255108659e-03 -1.8662402922797793e-03 0.0000000000000000e+00  0.0000000000000000e+00 1.7094367702445520e-18 0.0000000000000000e+00  0.0000000000000000e+00 2.1569798008879686e-02 0.0000000000000000e+00  0.0000000000000000e+00 4.0263622949908748e-02 0.0000000000000000e+00  0.0000000000000000e+00 5.6081474823087188e-02 0.0000000000000000e+00  0.0000000000000000e+00 6.9023353628414996e-02 0.0000000000000000e+00  0.0000000000000000e+00 7.9089259365892187e-02 0.0000000000000000e+00  0.0000000000000000e+00 8.6279192035518745e-02 0.0000000000000000e+00  0.0000000000000000e+00 9.0593151637294686e-02 0.0000000000000000e+00  0.0000000000000000e+00 9.20311381712