<?xml version="1.0"?>
<VTKFile type="UnstructuredGrid"  version="0.1"  >
<UnstructuredGrid>
<Piece  NumberOfPoints="289" NumberOfCells="512">
<Points>
<DataArray  type="Float64"  NumberOfComponents="3"  format="ascii">0 0 0  0.0625 0 0  0.125 0 0  0.1875 0 0  0.25 0 0  0.3125 0 0  0.375 0 0  0.4375 0 0  0.5 0 0  0.5625 0 0  0.625 0 0  0.6875 0 0  0.75 0 0  0.8125 0 0  0.875 0 0  0.9375 0 0  1 0 0  0 0.0625 0  0.06245312628955686 0.06249460806106941 0  0.1249047512844729 0.06248911246876983 0  0.1873533501630087 0.06248341723021188 0  0.2497973701321998 0.06247744364031262 0  0.3122352272686893 0.06247114150587419 0  0.3746653171624065 0.06246450308179684 0  0.4370860432508738 0.06245757968821348 0  0.4994958617906086 0.06245049961648907 0  0.5618933256816665 0.06244348344603549 0  0.6242770588182387 0.06243684867689258 0  0.6866454419200055 0.06243098902580792 0  0.7489953234835057 0.06242630513277626 0  0.8113175172688595 0.06242305905343533 0  0.8735812559850781 0.06242116698616151 0  0.9356780354491276 0.06242031345363517 0  0.9972066634103068 0.06242378625387535 0  0 0.125 0  0.06240778642560418 0.1249893197491087 0  0.1248125936816213 0.1249784240314404 0  0.1872113941174793 0.1249671116567935 0  0.2496010994660751 0.1249552139720498 0  0.3119785531416377 0.1249426166800502 0  0.3743405529364466 0.1249292878040522 0  0.4366839172028085 0.1249153124372782 0  0.4990056064227559 0.1249009326671878 0  0.5613029022399475 0.1248865867331646 0  0.6235736134115967 0.1248729337563743 0  0.6858161909434471 0.1248608374610699 0  0.7480294300136668 0.1248512614639774 0  0.8102110452935848 0.1248449928220215 0  0.8723541641116941 0.124842021805849 0  0.9344445110136054 0.1248400052848649 0  0.9964959747610626 0.1248285871991731 0  0 0.1875 0  0.06236547071513066 0.1874842474043314 0  0.1247265256957639 0.1874681523361769 0  0.1870786706206295 0.1874513910068858 0  0.2494173031928808 0.1874336829991538 0  0.3117376925253987 0.187414822018186 0  0.3740350055973767 0.1873947173332884 0  0.4363044064716254 0.1873734484514703 0  0.4985412623454979 0.1873513333510583 0  0.5607415002734204 0.1873290057709301 0  0.6229021693700468 0.1873074876253096 0  0.6850222805734515 0.1872882256777036 0  0.7471040520328787 0.1872730330477992 0  0.8091549287670686 0.1872638302990678 0  0.8711917289098026 0.1872620131250398 0  0.9332517937113746 0.1872672311799408 0  0.9954257131399707 0.1872760133023287 0  0 0.25 0  0.06232762798614289 0.2499795185221626 0  0.1246494700918976 0.2499585476352637 0  0.186959623240728 0.2499366174912392 0  0.2492520050758183 0.2499133051949453 0  0.3115203042832325 0.2498882711545671 0  0.3737579896011604 0.2498613115890422 0  0.4359584143071523 0.2498324330657097 0  0.4981150708047461 0.2498019540680448 0  0.5602220769299572 0.2497706352805814 0  0.6222750175025653 0.2497398320078183 0  0.6842723345189395 0.249711644733464 0  0.7462175895494976 0.2496890108202454 0  0.8081231918241013 0.249675622891889 0  0.8700167647269291 0.2496754688603657 0  0.9319524047080681 0.249691667947585 0  0.9940298743258226 0.2497241219739491 0  0 0.3125 0  0.06229563710277007 0.312475280408674 0  0.1245842209975882 0.3124499034575202 0  0.1868585322342042 0.3124232273283341 0  0.2491110710679593 0.3123946503801251 0  0.3113339565423222 0.3123636474507822 0  0.3735188857512475 0.3123298277411711 0  0.4356571954166658 0.3122930245975173 0  0.4977400917578454 0.3122534294734442 0  0.5597591511850812 0.312211783160258 0  0.621707249069226 0.3121696344224508 0  0.6835801540243697 0.3121296642420262 0  0.7453791397800549 0.3120960433972804 0  0.8071151235733902 0.3120747267492243 0  0.8688150272015388 0.3120734706259243 0  0.9305311525812358 0.3121011825064727 0  0.9923538066869801 0.3121660088283447 0  0 0.375 0  0.06227076754250729 0.3749717011797038 0  0.1245333673605796 0.3749425600100258 0  0.1867794065320267 0.374911739645914 0  0.2490000814577171 0.3748784235306161 0  0.3111860016892887 0.3748418433847364 0  0.3733270621486331 0.3748013323989183 0  0.435412403309718 0.3747564184982671 0  0.497430524997765 0.3747069786503514 0  0.5593696597449714 0.3746534828708336 0  0.6212185706573319 0.3745973642673395 0  0.6829680191230431 0.3745415542290577 0  0.7446132452246715 0.3744912075184199 0  0.8061578989835555 0.3744545849112609 0  0.8676199073993193 0.374443917143112 0  0.9290396717599568 0.3744757940784884 0  0.9904905993159114 0.3745702335470768 0  0 0.4375 0  0.06225412757607727 0.4374689657200017 0  0.1244991887046532 0.4374368972450294 0  0.1867258265221553 0.437402749399847 0  0.2489241218456435 0.4373654628991335 0  0.3110833215296862 0.4373239735884424 0  0.3731915895217026 0.437277246394179 0  0.4352358092464486 0.4372243517773805 0  0.497201491144857 0.4371646131422517 0  0.5590728803724538 0.4370978700699475 0  0.6208334233315719 0.4370249258490738 0  0.6824668426064608 0.4369482775330433 0  0.7439591840051795 0.4368732530447895 0  0.8053023119021436 0.4368096700407211 0  0.8664993825408999 0.4367740033004283 0  0.9275727458117106 0.4367916440638549 0  0.9885745436723827 0.4368979742955216 0  0 0.5 0  0.06224660130172777 0.4999672654767285 0  0.1244835249762343 0.4999333148848727 0  0.18670073830126 0.499896899013252 0  0.2488874893800004 0.4998567068107971 0  0.3110319295374683 0.499811344801353 0  0.3731207207449111 0.4997593343760605 0  0.4351386377787636 0.4996991438293918 0  0.4970681958745093 0.4996292858327522 0  0.5588893743839408 0.499548535298473 0  0.6205795782510577 0.4994563639944034 0  0.682114098299329 0.4993537557663024 0  0.7434675095078388 0.4992446663795798 0  0.8046166631789671 0.4991385096949696 0  0.8655460789393331 0.4990540922632569 0  0.9262563912219381 0.4990250769459314 0  0.9867758854904065 0.4991056623824469 0  0 0.5625 0  0.06224877902765437 0.5624667816688749 0  0.1244876294652132 0.5624321980516506 0  0.186706212767101 0.562394825239153 0  0.2488933316292262 0.5623531212031019 0  0.3110364508799431 0.5623053663685366 0  0.3731211582842762 0.5622496077977183 0  0.4351305491454423 0.562183617080419 0  0.4970445307889613 0.5621048851501789 0  0.5588390756346038 0.5620107035036781 0  0.620485527929216 0.5618984333813178 0  0.6819502301430342 0.56176616649683 0  0.743195036523517 0.5616141751618302 0  0.8041797531459173 0.5614478946230905 0  0.8648680366272892 0.561283692200382 0  0.9252381193208785 0.5611590598496519 0  0.9852973384898612 0.5611477721928759 0  0 0.625 0  0.06226088859349322 0.6249676627088223 0  0.1245120208044628 0.6249338696960638 0  0.1867431956152102 0.6248970818170313 0  0.2489432566508184 0.6248555856666979 0  0.3110995344554458 0.6248073918435413 0  0.3731971834823279 0.6247501163251317 0  0.435218367605099 0.6246808419605925 0  0.4971412446321784 0.6245959635465229 0  0.5589387133473716 0.6244910368171382 0  0.620576949327829 0.6243606935227909 0  0.6820139446370238 0.6241987866579913 0  0.74319873351558 0.6239991761038129 0  0.8040729609714625 0.6237581493855398 0  0.8645780283647688 0.6234807778262504 0  0.9246722540001552 0.6231959281677694 0  0.9843592578286845 0.6229866824647153 0  0 0.6875 0  0.06228273743087986 0.6874699982371913 0  0.1245563552827896 0.6874385345779013 0  0.1868112842843097 0.6874040447296325 0  0.2490369703567737 0.6873647457740993 0  0.3112212800727138 0.6873184974533071 0  0.3733497655130871 0.6872626240367696 0  0.4354047136940521 0.687193676725566 0  0.4973638804446504 0.6871071107121715 0  0.5591987839748405 0.686996845436302 0  0.6208724399209995 0.6868546776721445 0  0.6823365561030055 0.6866695480313521 0  0.7435287477195093 0.686426803970737 0  0.8043719477062011 0.686108139945972 0  0.8647820867506626 0.685694770494363 0  0.9246967902516137 0.6851823365775331 0  0.9841388651166936 0.6846296692863629 0  0 0.75 0  0.06231367583893445 0.7499737938250763 0  0.1246193427059801 0.7499462234055387 0  0.1869085727203724 0.7499158141708836 0  0.2491720077381387 0.7498808525028705 0  0.3113987846699637 0.7498392256714599 0  0.3735758054949712 0.7497882044137419 0  0.4356867592065807 0.7497241325459325 0  0.497710755551122 0.7496419685638478 0  0.5596203562538988 0.7495345908503541 0  0.621378688774024 0.749391719504149 0  0.6829352531045262 0.7491982025871919 0  0.7442202583779434 0.7489312336822356 0  0.8051389294605021 0.7485558536979279 0  0.8655737773724524 0.7480185606793631 0  0.9254234671385053 0.7472452178572607 0  0.9847421690205979 0.7461956945818875 0  0 0.8125 0  0.06235259067998327 0.8124789515594194 0  0.1246987267534817 0.8124567486643907 0  0.1870316023426911 0.8124321334742313 0  0.249343624050631 0.8124036218605004 0  0.3116259183961163 0.8123693463130185 0  0.3738676970040248 0.8123268349432443 0  0.4360553892220315 0.8122726834585277 0  0.4981713952680613 0.8122020496490343 0  0.5601922057561036 0.8121078499446901 0  0.6220854259271699 0.8119794408558293 0  0.683804845898053 0.811800362162983 0  0.7452820214782376 0.8115442222987972 0  0.8064122467992979 0.8111664554108047 0  0.8670361649725762 0.8105856988131857 0  0.926950254758123 0.8096367123226118 0  0.9861912261621545 0.8079464868650816 0  0 0.875 0  0.06239793543239215 0.8749852618071718 0  0.1247913438085157 0.8749696842140985 0  0.1871754462834352 0.8749523473061359 0  0.2495448963794809 0.8749321537583 0  0.3118934243356449 0.8749077027413898 0  0.3742133782254964 0.8748771086844822 0  0.4364950965444657 0.8748377263294125 0  0.49872600412399 0.8747857184411457 0  0.5608892341810193 0.8747153583360452 0  0.6229613765855032 0.8746178804256359 0  0.6849084445648741 0.8744795429374778 0  0.7466777627988116 0.8742782389374756 0  0.8081793858612657 0.8739770315027078 0  0.8692379627875371 0.873509221860391 0  0.9294573374151723 0.8727320546759381 0  0.9878568989572573 0.8712317035607603 0  0 0.9375 0  0.06244779771425048 0.93749241006352 0  0.1248932633063928 0.9374843778742338 0  0.1873339341402266 0.9374754170255246 0  0.2497670527353503 0.9374649434393285 0  0.3121893834113216 0.9374522049837835 0  0.3745969783931115 0.9374361790764723 0  0.4369848641908031 0.93
[...]
<PointData  Vectors="f_95-0"> 
<DataArray  type="Float64"  Name="f_95-0"  NumberOfComponents="3" format="ascii">0.0000000000000000e+00 0.0000000000000000e+00 0.0000000000000000e+00  -1.0888519825192638e-04 -3.8098679289706991e-02 0.0000000000000000e+00  -2.7844616612614388e-04 -6.1310272779315424e-02 0.0000000000000000e+00  -4.4399435062551383e-04 -7.2891195631893377e-02 0.0000000000000000e+00  -6.2708043738649488e-04 -7.6110623287089549e-02 0.0000000000000000e+00  -8.3708032828580590e-04 -7.3834194772198589e-02 0.0000000000000000e+00  -1.0733774335700916e-03 -6.8305312386886044e-02 0.0000000000000000e+00  -1.3233469565507182e-03 -6.1119196175029505e-02 0.0000000000000000e+00  -1.5657917066165925e-03 -5.3304379936580111e-02 0.0000000000000000e+00  -1.7752192481982427e-03 -4.5451430397173642e-02 0.0000000000000000e+00  -1.9257774105606725e-03 -3.7848211963462310e-02 0.0000000000000000e+00  -1.9945824019324556e-03 -3.0598699896990364e-02 0.0000000000000000e+00  -1.9647111520155478e-03 -2.3714861121272020e-02 0.0000000000000000e+00  -1.8282889963573479e-03 -1.7179725311645890e-02 0.0000000000000000e+00  -1.5820569624304915e-03 -1.0989667852020962e-02 0.0000000000000000e+00  -1.1940282937752573e-03 -5.1258137567394991e-03 0.0000000000000000e+00  -2.5714915549045225e-04 2.1781073863843818e-04 0.0000000000000000e+00  0.0000000000000000e+00 0.0000000000000000e+00 0.0000000000000000e+00  -3.4477126230622203e-05 -3.7931844719647945e-02 0.0000000000000000e+00  -6.3175721193264522e-05 -6.1152014626307517e-02 0.0000000000000000e+00  -5.2936741356591089e-05 -7.2744567343418526e-02 0.0000000000000000e+00  -4.0061153180192978e-05 -7.5965316988936646e-02 0.0000000000000000e+00  -4.4274735695172185e-05 -7.3684409738854012e-02 0.0000000000000000e+00  -7.1707053908866354e-05 -6.8155429905451481e-02 0.0000000000000000e+00  -1.1394421751214591e-04 -6.0982632068125313e-02 0.0000000000000000e+00  -1.5420292771232367e-04 -5.3200388137139537e-02 0.0000000000000000e+00  -1.7249474622343808e-04 -4.5401590539517964e-02 0.0000000000000000e+00  -1.4993811243734089e-04 -3.7873145308139240e-02 0.0000000000000000e+00  -7.2250696453590282e-05 -3.0714919502735041e-02 0.0000000000000000e+00  6.6887714968259169e-05 -2.3931673417259505e-02 0.0000000000000000e+00  2.6254479001276617e-04 -1.7496374455307960e-02 0.0000000000000000e+00  4.8958922737048899e-04 -1.1386889271032832e-02 0.0000000000000000e+00  6.5582358838171774e-04 -5.5967401138477492e-03 0.0000000000000000e+00  5.0481069864521510e-04 -2.1439724968856759e-05 0.0000000000000000e+00  0.0000000000000000e+00 0.0000000000000000e+00 0.0000000000000000e+00  1.3649901562834396e-04 -3.7999997425743753e-02 0.0000000000000000e+00  4.7470557148395859e-04 -6.1314097153330784e-02 0.0000000000000000e+00  9.3912722815983575e-04 -7.2966181248590653e-02 0.0000000000000000e+00  1.4534970945742148e-03 -7.6209723889880662e-02 0.0000000000000000e+00  1.9743476742496470e-03 -7.3931673874111314e-02 0.0000000000000000e+00  2.4820799591436971e-03 -6.8401870596555725e-02 0.0000000000000000e+00  2.9750272195404582e-03 -6.1234902518870225e-02 0.0000000000000000e+00  3.4588011767218417e-03 -5.3469597315834588e-02 0.0000000000000000e+00  3.9392020518882820e-03 -4.5698557373018200e-02 0.0000000000000000e+00  4.4171945367936123e-03 -3.8204733580664278e-02 0.0000000000000000e+00  4.8855230408514690e-03 -3.1080751296707242e-02 0.0000000000000000e+00  5.3257908451960984e-03 -2.4320209178372357e-02 0.0000000000000000e+00  5.7044394836373363e-03 -1.7878419363649062e-02 0.0000000000000000e+00  5.9652658150472371e-03 -1.1702362671896208e-02 0.0000000000000000e+00  6.0369879627888241e-03 -5.7260230388469051e-03 0.0000000000000000e+00  5.9408210467589463e-03 5.0074980275823062e-05 0.0000000000000000e+00  0.0000000000000000e+00 0.0000000000000000e+00 0.0000000000000000e+00  3.4755144965954975e-04 -3.8417093894287282e-02 0.0000000000000000e+00  1.1752020502941711e-03 -6.1983505770082159e-02 0.0000000000000000e+00  2.2625329629448153e-03 -7.3772803500321157e-02 0.0000000000000000e+00  3.4696824833078586e-03 -7.7079533039598663e-02 0.0000000000000000e+00  4.7220761384629316e-03 -7.4825810126050774e-02 0.0000000000000000e+00  5.9843882037551024e-03 -6.9304483062732208e-02 0.0000000000000000e+00  7.2419581255786722e-03 -6.2140850196071976e-02 0.0000000000000000e+00  8.4848409342493970e-03 -5.4374989322124249e-02 0.0000000000000000e+00  9.6983520622960055e-03 -4.6594694633359024e-02 0.0000000000000000e+00  1.0857816796434976e-02 -3.9074540806410894e-02 0.0000000000000000e+00  1.1926299446970439e-02 -3.1896359038634199e-02 0.0000000000000000e+00  1.2853766802036081e-02 -2.5040677111274143e-02 0.0000000000000000e+00  1.3577749803786201e-02 -1.8447496458418318e-02 0.0000000000000000e+00  1.4029428127240780e-02 -1.2050106564967637e-02 0.0000000000000000e+00  1.4155082067246100e-02 -5.7976594950414281e-03 0.0000000000000000e+00  1.3940080373946298e-02 2.7601089396258482e-04 0.0000000000000000e+00  0.0000000000000000e+00 0.0000000000000000e+00 0.0000000000000000e+00  5.7001416064562666e-04 -3.9236679145378761e-02 0.0000000000000000e+00  1.9309869508224167e-03 -6.3266286432849678e-02 0.0000000000000000e+00  3.7202509318131271e-03 -7.5301533656223468e-02 0.0000000000000000e+00  5.7268138684596097e-03 -7.8733394889842559e-02 0.0000000000000000e+00  7.8434882333712382e-03 -7.6544491848081556e-02 0.0000000000000000e+00  1.0018747176170295e-02 -7.1058814952319416e-02 0.0000000000000000e+00  1.2223258827033467e-02 -6.3911178301915797e-02 0.0000000000000000e+00  1.4427543900885248e-02 -5.6137560919010968e-02 0.0000000000000000e+00  1.6590345504305017e-02 -4.8314728160849023e-02 0.0000000000000000e+00  1.8654088673946710e-02 -4.0703630854545328e-02 0.0000000000000000e+00  2.0544716598057448e-02 -3.3372233281176542e-02 0.0000000000000000e+00  2.2173980725560538e-02 -2.6288588011726399e-02 0.0000000000000000e+00  2.3444900176101718e-02 -1.9384738525759792e-02 0.0000000000000000e+00  2.4262089704231243e-02 -1.2598900058442664e-02 0.0000000000000000e+00  2.4548372817040059e-02 -5.9083047771297109e-03 0.0000000000000000e+00  2.4270623080236794e-02 6.2602146636543503e-04 0.0000000000000000e+00  0.0000000000000000e+00 0.0000000000000000e+00 0.0000000000000000e+00  7.8447838098894473e-04 -4.0466231042822973e-02 0.0000000000000000e+00  2.6716880861463463e-03 -6.5194079093519847e-02 0.0000000000000000e+00  5.1768198028353954e-03 -7.7613307480562554e-02 0.0000000000000000e+00  8.0295423502660633e-03 -8.1263782930398015e-02 0.0000000000000000e+00  1.1097603575943410e-02 -7.9213970435417239e-02 0.0000000000000000e+00  1.4316168516139281e-02 -7.3825135379645260e-02 0.0000000000000000e+00  1.7639811117216419e-02 -6.6737297376210897e-02 0.0000000000000000e+00  2.1014063332844373e-02 -5.8974192883257837e-02 0.0000000000000000e+00  2.4362927378419701e-02 -5.1093494327772403e-02 0.0000000000000000e+00  2.7586356691397813e-02 -4.3336499106036298e-02 0.0000000000000000e+00  3.0563010741352703e-02 -3.5754092769876629e-02 0.0000000000000000e+00  3.3155383331344886e-02 -2.8301960507693260e-02 0.0000000000000000e+00  3.5217710817837200e-02 -2.0908189922848569e-02 0.0000000000000000e+00  3.6606734810881038e-02 -1.3521271925709353e-02 0.0000000000000000e+00  3.7199989819943491e-02 -6.1457197854031470e-03 0.0000000000000000e+00  3.6919231143127403e-02 1.1050565489168821e-03 0.0000000000000000e+00  0.0000000000000000e+00 0.0000000000000000e+00 0.0000000000000000e+00  9.7629499834644604e-04 -4.2080543985412340e-02 0.0000000000000000e+00  3.3439974297607669e-03 -6.7745011976364913e-02 0.0000000000000000e+00  6.5301317755287920e-03 -8.0713169185971892e-02 0.0000000000000000e+00  1.0233140241939147e-02 -8.4718953700720828e-02 0.0000000000000000e+00  1.4313532393235894e-02 -8.2934608517990657e-02 0.0000000000000000e+00  1.8700250575267387e-02 -7.7757651138120790e-02 0.0000000000000000e+00  2.3329827437691093e-02 -7.0823008426957906e-02 0.0000000000000000e+00  2.8114369955232942e-02 -6.3129863259257374e-02 0.0000000000000000e+00  3.2931041973462916e-02 -5.5206495872511481e-02 0.0000000000000000e+00  3.7623771747671279e-02 -4.7267532516534878e-02 0.0000000000000000e+00  4.2009827257063738e-02 -3.9342656190798610e-02 0.0000000000000000e+00  4.5887036671967925e-02 -3.1373218392489285e-02 0.0000000000000000e+00  4.9042298817693571e-02 -2.3282555551583140e-02 0.0000000000000000e+00  5.1262349485627155e-02 -1.5028708777800239e-02 0.0000000000000000e+00  5.2355853764152693e-02 -6.6454794755804588e-03 0.0000000000000000e+00  5.2182301715937393e-02 1.6809755198249044e-03 0.0000000000000000e+00  0.0000000000000000e+00 0.0000000000000000e+00 0.0000000000000000e+00  1.1293275092947193e-03 -4.4025998004219295e-02 0.0000000000000000e+00  3.8922010618920948e-03 -7.0851744253077137e-02 0.0000000000000000e+00  7.6778862963039094e-03 -8.4560768886634802e-02 0.0000000000000000e+00  1.2198050617478761e-02 -8.9115750050458770e-02 0.0000000000000000e+00  1.7333922708491163e-02 -8.7796342598061100e-02 0.0000000000000000e+00  2.3018502047853166e-02 -8.3022129901970360e-02 0.0000000000000000e+00  2.9166364287989383e-02 -7.6402900531724743e-02 0.0000000000000000e+00  3.5643195828931273e-02 -6.8895185690973096e-02 0.0000000000000000e+00  4.2262118786033608e-02 -6.0985085736285097e-02 0.0000000000000000e+00  4.8793068097898233e-02 -5.2853101764617168e-02 0.0000000000000000e+00  5.4974492052220748e-02 -4.4503823756432762e-02 0.0000000000000000e+00  6.0522562259506106e-02 -3.5860811630725208e-02 0.0000000000000000e+00  6.5138056023497773e-02 -2.6836997434035507e-02 0.0000000000000000e+00  6.8515344406631776e-02 -1.7394864572491855e-02 0.0000000000000000e+00  7.0369258656891781e-02 -7.6005393660334231e-03 0.0000000000000000e+00  7.0477028367893199e-02 2.2649463017536970e-03 0.0000000000000000e+00  0.0000000000000000e+00 0.0000000000000000e+00 0.0000000000000000e+00  1.2201844870748154e-03 -4.6213094333329111e-02 0.0000000000000000e+00  4.2398072137607365e-03 -7.4394484405507319e-02 0.0000000000000000e+00  8.4852084185848206e-03 -8.9067159136973620e-02 0.0000000000000000e+00  1.3744586298947314e-02 -9.4440207294549772e-02 0.0000000000000000e+00  1.9956691637361357e-02 -9.3881649048655369e-02 0.0000000000000000e+00  2.7069327030047972e-02 -8.9799156304441505e-02 0.0000000000000000e+00  3.4966689726311319e-02 -8.3743922917829311e-02 0.0000000000000000e+00  4.3448853325536260e-02 -7.6604840688979284e-02 0.0000000000000000e+00  5.2242016727597172e-02 -6.8811358826498512e-02 0.0000000000000000e+00  6.1020094534265108e-02 -6.0504195542910817e-02 0.0000000000000000e+00  6.9424656878905630e-02 -5.1661009592535674e-02 0.0000000000000000e+00  7.7076463184802380e-02 -4.2183006256964070e-02 0.0000000000000000e+00  8.3574837147727676e-02 -3.1964544033144242e-02 0.0000000000000000e+00  8.8502154530787747e-02 -2.0965437900278099e-02 0.0000000000000000e+00  9.1453665557994654e-02 -9.2839097143314585e-03 0.0000000000000000e+00  9.2110133332076377e-02 2.6848900257776891e-03 0.0000000000000000e+00  0.0000000000000000e+00 0.0000000000000000e+00 0.0000000000000000e+00  1.2130210674097344e-03 -4.8499479020358727e-02 0.0000000000000000e+00  4.2743985280888196e-03 -7.8181748278760968e-02 0.0000000000000000e+00  8.7593586327800715e-03 -9.4079644647401248e-02 0.0000000000000000e+00  1.4617179903454861e-02 -1.0063603769357540e-01 0.0000000000000000e+00  2.1886020535244820e-02 -1.0125405174135435e-01 0.0000000000000000e+00  3.0534755753711007e-02 -9.8268913808076716e-02 0.0000000000000000e+00  4.0400929601215253e-02 -9.3124003255863397e-02 0.0000000000000000e+00  5.1192501640821841e-02 -8.6609229884239289e-02 0.0000000000000000e+00  6.2520573033911175e-02 -7.9083354010537579e-02 0.0000000000000000e+00  7.3939150239069371e-02 -7.0645904362600431e-02 0.0000000000000000e+00  8.4978285807532514e-02 -6.1251758866694699e-02 0.0000000000000000e+00  9.5155696453041172e-02 -5.0783784534514348e-02 0.0000000000000000e+00  1.0396661166775759e-01 -3.9111816941924955e-02 0.0000000000000000e+00  1.1087715076933746e-01 -2.6164255060310712e-02 0.0000000000000000e+00  1.1533116312067024e-01 -1.2053886812295375e-02 0.0000000000000000e+00  1.1690353309880699e-01 2.6639327047933720e-03 0.0000000000000000e+00  0.0000000000000000e+00 0.0000000000000000e+00 0.0000000000000000e+00  1.0564241055545788e-03 -5.0665959327626582e-02 0.0000000000000000e+00  3.8415985360042539e-03 -8.1924573766859618e-02 0.0000000000000000e+00  8.2428652207337492e-03 -9.9360565255219205e-02 0.0000000000000000e+00  1.4473839613383504e-02 -1.0758370970001958e-01 0.0000000000000000e+00  2.2709762034664890e-02 -1.0993022623759587e-01 0.0000000000000000e+00  3.2934643391763468e-02 -1.0857103291703088e-01 0.0000000000000000e+00  4.4912282114396095e-02 -1.0477783111104445e-01 0.0000000000000000e+00  5.8225941508664947e-02 -9.9206984476479090e-02 0.0000000000000000e+00  7.2341820040809218e-02 -9.2135896927905012e-02 0.0000000000000000e+00  8.6672406893848392e-02 -8.3629851093928759e-02 0.0000000000000000e+00  1.0062507262231905e-01 -7.3640295223899074e-02 0.0000000000000000e+00  1.1361922988714064e-01 -6.2048631757381616e-02 0.0000000000000000e+00  1.2508122327633114e-01 -4.8680705043462218e-02 0.0000000000000000e+00  1.3437533303147947e-01 -3.3385891632633509e-02 0.0000000000000000e+00  1.4074926610073982e-01 -1.6283007829857924e-02 0.0000000000000000e+00  1.4361187342288032e-01 1.8686758084399157e-03 0.0000000000000000e+00  0.0000000000000000e+00 0.0000000000000000e+00 0.0000000000000000e+00  6.8613205284230345e-04 -5.2393587786772187e-02 0.0000000000000000e+00  2.7611765928731726e-03 -8.5218270936543536e-02 0.0000000000000000e+00  6.6474539981413510e-03 -1.0457292690788443e-01 0.0000000000000000e+00  1.2928657747813847e-02 -1.1507621148133904e-01 0.0000000000000000e+00  2.1931770180325071e-02 -1.1983334186300929e-01 0.0000000000000000e+00  3.3628097841452008e-02 -1.2073007511321680e-01 0.0000000000000000e+00  4.7670361542806877e-02 -1.1879588773570406e-01 0.0000000000000000e+00  6.3485891712738315e-02 -1.1452278730383574e-01 0.0000000000000000e+00  8.0374187928850344e-02 -1.0810333284055716e-01 0.0000000000000000e+00  9.7592321970704971e-02 -9.9585245338459499e-02 0.0000000000000000e+00  1.1441886218734383e-01 -8.8948688738068812e-02 0.0000000000000000e+00  1.3020221017043013e-01 -7.6110000950348408e-02 0.0000000000000000e+00  1.4435965950945787e-01 -6.0887717680328558e-02 0.0000000000000000e+00  1.5620391283703727e-01 -4.3044925599875480e-02 0.0000000000000000e+00  1.6486866680313803e-01 -2.2493973139896858e-02 0.0000000000000000e+00  1.6937933630485827e-01 5.7475831409901619e-05 0.0000000000000000e+00  0.0000000000000000e+00 0.0000000000000000e+00 0.0000000000000000e+00  4.2543527505089023e-05 -5.3258878729200203e-02 0.0000000000000000e+00  8.9124457431440183e-04 -8.7558293009796895e-02 0.0000000000000000e+00  3.7686370073085076e-03 -1.0929354239499740e-01 0.0000000000000000e+00  9.6917973065695148e-03 -1.2279868740460566e-01 0.0000000000000000e+00  1.9101263425664063e-02 -1.3072189907095058e-01 0.0000000000000000e+00  3.1899516732850706e-02 -1.3453223849391852e-01 0.0000000000000000e+00  4.7590964342079066e-02 -1.3495847571377456e-01 0.0000000000000000e+00  6.5435406796231652e-02 -1.3231280741070259e-01 0.0000000000000000e+00  8.4571069995660914e-02 -1.2670876373774953e-01 0.0000000000000000e+00  1.0410866891015563e-01 -1.1819506298654676e-01 0.0000000000000000e+00  1.2320371505391359e-01 -1.0681965459337367e-01 0.0000000000000000e+00  1.4114606214432954e-01 -9.2620475255548326e-02 0.0000000000000000e+00  1.5737400204683788e-01 -7.5518168055054305e-02 0.0000000000000000e+00  1.7143582362582063e-01 -5.5049470923013405e-02 0.0000000000000000e+00  1.8260194226440243e-01 -3.0424871038453045e-02 0.0000000000000000e+00  1.8894288718691962e-01 -2.6934685682845432e-03 0.0000000000000000e+00  0.0000000000000000e+00 0.0000000000000000e+00 0.0000000000000000e+00  -8.7889065751343618e-04 -5.2794727504266455e-02 0.0000000000000000e+00  -1.7091490469494576e-03 -8.8443619613583171e-02 0.0000000000000000e+00  -2.5495326163175981e-04 -1.1308537107191907e-01 0.0000000000000000e+00  4.8669398863298479e-03 -1.3031844879177756e-01 0.0000000000000000e+00  1.4089342863372420e-02 -1.4208414026484384e-01 0.0000000000000000e+00  2.7172799236965167e-02 -1.4933672052276112e-01 0.0000000000000000e+00  4.3465272188417184e-02 -1.5248801167449122e-01 0.0000000000000000e+00  6.2099556625251871e-02 -1.5168445395764893e-01 0.0000000000000000e+00  8.2117071258335783e-02 -1.4697587131648610e-01 0.0000000000000000e+00  1.0254369323841513e-01 -1.3841945198685007e-01 0.0000000000000000e+00  1.2243965896870825e-01 -1.2614314401890900e-01 0.0000000000000000e+00  1.4099735370484420e-01 -1.1035803216671125e-01 0.0000000000000000e+00  1.5764069998853408e-01 -9.1242090520965685e-02 0.0000000000000000e+00  1.7246355313720182e-01 -6.8525254912139857e-02 0.0000000000000000e+00  1.8536937456289293e-01 -4.0706236424094114e-02 0.0000000000000000e+00  1.9282011604155563e-01 -5.5518831507596067e-03 0.0000000000000000e+00  0.0000000000000000e+00 0.0000000000000000e+00 0.0000000000000000e+00  -1.8915070547804668e-03 -5.0684901541905858e-02 0.0000000000000000e+00  -4.4245946110825505e-03 -8.7621290536129076e-02 0.0000000000000000e+00  -4.4492515329123484e-03 -1.1563512814952547e-01 0.0000000000000000e+00  -5.3527655497880087e-04 -1.3705967462849336e-01 0.0000000000000000e+00  7.5477465592437088e-03 -1.5296546257315285e-01 0.0000000000000000e+00  1.9384491978525601e-02 -1.6379662666326977e-01 0.0000000000000000e+00  3.4242662635323259e-02 -1.6970484985735956e-01 0.0000000000000000e+00  5.1262219554989323e-02 -1.7072312089162772e-01 0.0000000000000000e+00  6.9544174628819094e-02 -1.6686181787584820e-01 0.0000000000000000e+00  8.8180658546255092e-02 -1.5817191908303324e-01 0.0000000000000000e+00  1.0625067977884362e-01 -1.4480113223111396e-01 0.0000000000000000e+00  1.2285136464081971e-01 -1.2706394663725967e-01 0.0000000000000000e+00  1.3712818779019575e-01 -1.0552701868530383e-01 0.0000000000000000e+00  1.4890996515295679e-01 -8.0849528825749237e-02 0.0000000000000000e+00  1.5886987951795589e-01 -5.1893055608348081e-02 0.0000000000000000e+00  1.7039815241842812e-01 -9.8602029808221563e-03 0.0000000000000000e+00  0.0000000000000000e+00 0.0000000000000000e+00 0.0000000000000000e+00  -2.2780152494449673e-03 -4.7323761623704844e-02 0.0000000000000000e+00  -5.3728504907852520e-03 -8.5617695655191769e-02 0.0000000000000000e+00  -6.1845127477664430e-03 -1.1697754726305246e-01 0.0000000000000000e+00  -3.8586495206890904e-03 -1.4224385904254663e-01 0.0000000000000000e+00  1.5192106978089374e-03 -1.6172409462787304e-01 0.0000000000000000e+00  9.4959232003955542e-03 -1.7551619188478643e-01 0.0000000000000000e+00  1.9492426779195719e-02 -1.8363944566828111e-01 0.0000000000000000e+00  3.0909899868820624e-02 -1.8608915055227904e-01 0.0000000000000000e+00  4.3160188770181990e-02 -1.8286467439869444e-01 0.0000000000000000e+00  5.5655547623395307e-02 -1.7398950903185767e-01 0.0000000000000000e+00  6.7768294973548165e-02 -1.5953536356960704e-01 0.0000000000000000e+00  7.8746980657444399e-02 -1.3967978328437697e-01 0.0000000000000000e+00  8.7497125922505747e-02 -1.1480776507772281e-01 0.0000000000000000e+00  9.2759393358051043e-02 -8.5651533657101264e-02 0.0000000000000000e+00  9.2640383491338921e-02 -5.3966627925151230e-02 0.0000000000000000e+00  8.6845280909099404e-02 -4.6808916787328108e-03 0.0000000000000000e+00  0.0000000000000000e+00 0.0000000000000000e+00 0.0000000000000000e+00  0.0000000000000000e+00 -4.5147260318894038e-02 0.0000000000000000e+00  0.0000000000000000e+00 -8.4274885928602203e-02 0.0000000000000000e+00  0.0000000000000000e+00 -1.1738287682912449e-01 0.0000000000000000e+00  0.0000000000000000e+00 -1.4447123302046092e-01 0.0000000000000000e+00  0.0000000000000000e+00 -1.6553995450261147e-01 0.0000000000000000e+00  0.0000000000000000e+00 -1.8058904127557615e-01 0.0000000000000000e+00  0.0000000000000000e+00 -1.8961849333935496e-01 0.0000000000000000e+00