<?xml version="1.0"?>
<VTKFile type="UnstructuredGrid"  version="0.1"  >
<UnstructuredGrid>
<Piece  NumberOfPoints="289" NumberOfCells="512">
<Points>
<DataArray  type="Float64"  NumberOfComponents="3"  format="ascii">0 0 0  0.0625 0 0  0.125 0 0  0.1875 0 0  0.25 0 0  0.3125 0 0  0.375 0 0  0.4375 0 0  0.5 0 0  0.5625 0 0  0.625 0 0  0.6875 0 0  0.75 0 0  0.8125 0 0  0.875 0 0  0.9375 0 0  1 0 0  0 0.0625 0  0.06250674642435811 0.06246215656875415 0  0.125014274038274 0.06242363388706923 0  0.1875234091116557 0.06238379456106235 0  0.2500351917486003 0.06234213853379725 0  0.3125510203885977 0.06229839200371456 0  0.3750728547717962 0.06225261916808107 0  0.4376035191366531 0.06220535809755121 0  0.5001471807337473 0.06215777245762149 0  0.5627101511595073 0.0621117929265539 0  0.6253023253724378 0.06207019144199755 0  0.6879399858388281 0.06203648264378917 0  0.750651778028957 0.06201447634032269 0  0.8134926064285022 0.06200721787666667 0  0.8765783195772834 0.06201501116087257 0  0.9401753211429694 0.06203282787009477 0  1.004920292565484 0.06205706517491095 0  0 0.125 0  0.06251270501801351 0.1249249459571916 0  0.1250268918385321 0.1248484616266528 0  0.1875441341648894 0.1247691934419671 0  0.2500664238811958 0.1246860460899776 0  0.3125964549822661 0.1245983552307562 0  0.3751380219167787 0.1245061116986444 0  0.437696608926877 0.1244102453441012 0  0.5002802995816628 0.1243129610354856 0  0.5629012392714199 0.1242180881712998 0  0.6255780917703929 0.1241313489770335 0  0.6883403503415122 0.1240603608968546 0  0.7512361667611218 0.124014070203721 0  0.8143466458576583 0.1240012438887401 0  0.8778104032163867 0.1240279747182546 0  0.9418570649316611 0.1240960959633814 0  1.006822982754142 0.1242095763350284 0  0 0.1875 0  0.0625172636159091 0.1873891430037485 0  0.1250365296991494 0.1872759763991672 0  0.1875599322795756 0.187158287456921 0  0.2500901850033794 0.1870342068799898 0  0.3126309750068172 0.1869024513419036 0  0.375187512267718 0.1867626546036393 0  0.437767328216969 0.186615811959124 0  0.5003814659722781 0.1864648484996738 0  0.5630462834524563 0.1863152872866988 0  0.6257862107615831 0.1861759215838651 0  0.6886379529727341 0.1860592568523914 0  0.7516566826864075 0.1859812291241085 0  0.8149241945605927 0.1859591866150465 0  0.878556205783846 0.1860058296771841 0  0.9426978912099286 0.1861126261560433 0  1.007484157097883 0.1862009956652763 0  0 0.25 0  0.06251998842238696 0.2498556478361991 0  0.1250422412413315 0.249707940408828 0  0.1875691796668831 0.2495536160812506 0  0.2501038963740213 0.2493897833825648 0  0.3126506135716099 0.2492142056573688 0  0.3752153204718148 0.2490257178052568 0  0.4378066878410058 0.2488248278028397 0  0.5004373907574968 0.2486145541175178 0  0.5631260054841792 0.2484015308590595 0  0.6258996559826907 0.2481973530836969 0  0.6887974907472371 0.2480199927835804 0  0.7518746654545073 0.2478948136626012 0  0.8152053412788155 0.2478541080852225 0  0.8788805910691061 0.247932953135673 0  0.9429930438139861 0.2481575517893606 0  1.007598914093148 0.2485229587585269 0  0 0.3125 0  0.0625206792928331 0.3123255206818065 0  0.1250435807778364 0.3121464653914113 0  0.1875710894294554 0.3119583163514486 0  0.2501062666398519 0.3117568700281438 0  0.3126533186079007 0.3115385177302354 0  0.3752182551399589 0.3113006998072783 0  0.437809839005359 0.3110426223818631 0  0.5004409515794952 0.3107663495451423 0  0.5631305117611052 0.3104784036047055 0  0.6259060409321721 0.3101920000165583 0  0.6888067780882394 0.3099299634081832 0  0.7518867569497952 0.3097281175293196 0  0.8152162711807357 0.3096383435314828 0  0.8788787767708013 0.3097293542182052 0  0.9429600239023245 0.3100816083601164 0  1.00753231947742 0.3107718612527666 0  0 0.375 0  0.062519393412121 0.3747999871292497 0  0.1250406590672506 0.3745940340828557 0  0.1875658157757688 0.3743761845674002 0  0.2500974686022356 0.3741406375195547 0  0.3126392297915894 0.373881957416112 0  0.3751963310772314 0.3735954828810196 0  0.4377765374421979 0.3732780579164144 0  0.5003915101330783 0.3729292698819159 0  0.5630587980805328 0.3725534604469404 0  0.6258046257420098 0.3721628715053946 0  0.6886675162652058 0.3717823562640776 0  0.7517024235696648 0.3714560071838623 0  0.8149843614658374 0.3712555630375693 0  0.8786097870254839 0.3712891388650313 0  0.9426946554941735 0.3717064262978741 0  1.007373716788517 0.372693914800865 0  0 0.4375 0  0.06251643509375979 0.4372804036004434 0  0.1250341263747176 0.4370534396307981 0  0.1875544369404518 0.4368116096908221 0  0.2500791316100862 0.4365473001122814 0  0.3126106897625232 0.4362528404686768 0  0.3751527958530381 0.4359207498063472 0  0.4377111338889327 0.4355443144130791 0  0.5002946847432789 0.4351187377799 0  0.5629178272804095 0.4346432612225954 0  0.6256036642339941 0.4341248957968009 0  0.6883890813605587 0.4335847357632595 0  0.7513319828477116 0.4330681510851379 0  0.8145207426420168 0.4326601283709515 0  0.878085138589542 0.4325058059138674 0  0.9422078269383585 0.4328327776660734 0  1.007139406717984 0.4339670880596064 0  0 0.5 0  0.06251231323843959 0.4997681755389627 0  0.1250250855055726 0.4995276242623263 0  0.1875388208425605 0.4992693403381568 0  0.2500541582345033 0.4989838336654174 0  0.3125720151297063 0.4986609534135303 0  0.375093867212799 0.4982898373769059 0  0.437622299239562 0.4978591166274721 0  0.5001620823162549 0.4973576236968241 0  0.5627222471468969 0.4967760726727032 0  0.6253199757407939 0.496110578879457 0  0.6879876462083243 0.495369577208103 0  0.7507849330723979 0.4945867726725476 0  0.8138180673992319 0.4938439991901717 0  0.8772673490112459 0.4933079260724263 0  0.9414214965119749 0.493279915879991 0  1.006718409751138 0.4942460476704099 0  0 0.5625 0  0.06250767074756895 0.5622646270461614 0  0.1250149424628584 0.5620194107557431 0  0.187521382668316 0.5617540645694922 0  0.2500263730955896 0.5614573914118859 0  0.3125290306664859 0.5611168096524487 0  0.3750281800190826 0.5607178867188343 0  0.4375224889156077 0.5602439480942902 0  0.5000110343504298 0.5596759344605878 0  0.5624948972215763 0.5589929049427417 0  0.6249810390699613 0.5581740660488478 0  0.6874909070763603 0.5572042266991978 0  0.7500780734559086 0.5560866694449647 0  0.812861246118523 0.5548712723992312 0  0.8760788831085412 0.5537107262619458 0  0.9401651804456276 0.5529566189495587 0  1.005835273371536 0.5532847960930882 0  0 0.625 0  0.06250319263281141 0.6247708304487507 0  0.1250052069923814 0.6245311411180882 0  0.1875047484561989 0.6242698161629487 0  0.2500000102323613 0.6239744153966401 0  0.3124883442679466 0.6236303870021647 0  0.3749658501099646 0.6232201281451045 0  0.4374269131877579 0.6227218534010973 0  0.4998638646355506 0.6221082732037251 0  0.5622673040540734 0.6213452143358028 0  0.624628521435957 0.62039068027792 0  0.6869474594170671 0.6191958525486245 0  0.7492536975923626 0.6177122599426813 0  0.8116546050455322 0.6159165305866986 0  0.87443067321148 0.6138807594562967 0  0.9381889572007474 0.6119366187918091 0  1.004061285807208 0.6109370301533541 0  0 0.6875 0  0.06249950263909521 0.6872874161503456 0  0.1249972624264073 0.6870642637327786 0  0.1874913510223195 0.6868192696682478 0  0.2499790615674269 0.6865395231560369 0  0.3124563507853468 0.6862094278223786 0  0.3749170358915013 0.6858093373989818 0  0.4373516370197928 0.6853137058962034 0  0.4997457918691445 0.6846885244637635 0  0.5620783906162122 0.6838877525441618 0  0.6243203705336393 0.6828484409061102 0  0.6864374845813843 0.6814845506061614 0  0.7484067533941621 0.6796811647023 0  0.8102715813249955 0.6772981829257532 0  0.8722882290368036 0.6742226990837334 0  0.9352115623241751 0.6706150928289828 0  1.000692727825193 0.6674959385621293 0  0 0.75 0  0.06249706220601138 0.7498143941228265 0  0.1249921350656096 0.7496189365981336 0  0.1874830081613791 0.7494030382314383 0  0.2499665550451948 0.7491543452328414 0  0.3124380329546744 0.7488575570079707 0  0.3748899958090033 0.7484928090883315 0  0.4373105475008674 0.7480333475148936 0  0.499680510823447 0.747442065645744 0  0.5619689191478766 0.7466662024998941 0  0.6241262857458667 0.7456290129992084 0  0.6860763367114845 0.7442163326556295 0  0.7477127668258495 0.7422545016029251 0  0.8089295375273821 0.7394751733098157 0  0.8697867531135646 0.7354740473958586 0  0.9311152460823353 0.7297940594234857 0  0.9948663952293423 0.7234768248653389 0  0 0.8125 0  0.06249608946347029 0.812351024569523 0  0.1249903051116981 0.8121937307362533 0  0.1874805630110313 0.8120191248595897 0  0.24996390111592 0.8118165669273062 0  0.3124357801361355 0.8115726349197675 0  0.3748889451242478 0.8112695261262562 0  0.4373114700701478 0.8108826862328304 0  0.4996832741147832 0.8103771632595227 0  0.5619697490041407 0.8097018290139149 0  0.6241099373697166 0.8087799147099004 0  0.6859948067974206 0.8074927736386541 0  0.7474297787796604 0.8056499372653513 0  0.808083668091322 0.8029280624279981 0  0.8674906609162838 0.7987336465630293 0  0.9255655111183139 0.7918882881834397 0  0.9878006508934546 0.7800019070781198 0  0 0.875 0  0.0624965171225524 0.8748957730510893 0  0.124991606575084 0.8747855152353532 0  0.1874836858254316 0.8746626797532487 0  0.2499705056146914 0.8745194465039132 0  0.3124486095522809 0.874345828335841 0  0.3749124316312843 0.8741283929899087 0  0.4373526863638071 0.8738483412154596 0  0.4997533359504753 0.8734785252581957 0  0.5620855719773682 0.872978733161031 0  0.6242952512089186 0.8722881364106431 0  0.6862754268831239 0.8713130075981957 0  0.7478042099251858 0.8699056689689364 0  0.808402814983706 0.8678214375630801 0  0.8670222186413051 0.8645949232109276 0  0.921426930535804 0.8590754233756376 0  0.9673081503504961 0.8476924272400694 0  0 0.9375 0  0.06249800356483654 0.9374463732116139 0  0.1249952534823766 0.9373895792086874 0  0.1874909210986054 0.9373261720718538 0  0.2499838360440002 0.9372520132651633 0  0.3124722113857406 0.9371617810718301 0  0.3749531843062315 0.9370482637944847 0  0.4374219901290551 0.9369012915
[...]
<PointData  Vectors="f_95-0"> 
<DataArray  type="Float64"  Name="f_95-0"  NumberOfComponents="3" format="ascii">0.0000000000000000e+00 0.0000000000000000e+00 0.0000000000000000e+00  -1.2196020126704940e-04 -3.6689442244460378e-02 0.0000000000000000e+00  -3.2806338575754068e-04 -5.7676188256407378e-02 0.0000000000000000e+00  -5.5375283802706291e-04 -6.6997722339337137e-02 0.0000000000000000e+00  -8.2863391221845307e-04 -6.8360901736476298e-02 0.0000000000000000e+00  -1.1652407381048259e-03 -6.4830820320436452e-02 0.0000000000000000e+00  -1.5636840046342412e-03 -5.8690773134656760e-02 0.0000000000000000e+00  -2.0093912917326113e-03 -5.1480311774433588e-02 0.0000000000000000e+00  -2.4760517763693164e-03 -4.4123902495454892e-02 0.0000000000000000e+00  -2.9290068293898659e-03 -3.7091531254839841e-02 0.0000000000000000e+00  -3.3280620366223229e-03 -3.0553499508273130e-02 0.0000000000000000e+00  -3.6295313594799368e-03 -2.4509803791867076e-02 0.0000000000000000e+00  -3.7881024520575730e-03 -1.8886505698064281e-02 0.0000000000000000e+00  -3.7569743968065708e-03 -1.3601165304935346e-02 0.0000000000000000e+00  -3.4827670374218992e-03 -8.6003023964246941e-03 0.0000000000000000e+00  -2.9048030858578613e-03 -3.8433317134195606e-03 0.0000000000000000e+00  -9.2927337952913457e-04 8.8129230320840282e-04 0.0000000000000000e+00  0.0000000000000000e+00 0.0000000000000000e+00 0.0000000000000000e+00  -4.7052280779348037e-05 -3.6516451459383606e-02 0.0000000000000000e+00  -1.1546163506217434e-04 -5.7494986817303362e-02 0.0000000000000000e+00  -1.7551101167674510e-04 -6.6788264083256929e-02 0.0000000000000000e+00  -2.6926698589173771e-04 -6.8100393092595607e-02 0.0000000000000000e+00  -4.1832849306589756e-04 -6.4508708267221507e-02 0.0000000000000000e+00  -6.2866556403168446e-04 -5.8312271299094325e-02 0.0000000000000000e+00  -8.8913131586686070e-04 -5.1063819089102139e-02 0.0000000000000000e+00  -1.1771335214418766e-03 -4.3697242121546950e-02 0.0000000000000000e+00  -1.4627607421320212e-03 -3.6688547871896592e-02 0.0000000000000000e+00  -1.7118389241331351e-03 -3.0211334620511891e-02 0.0000000000000000e+00  -1.8881147534467871e-03 -2.4266505606452406e-02 0.0000000000000000e+00  -1.9552419323333428e-03 -1.8778799655092344e-02 0.0000000000000000e+00  -1.8787923701913043e-03 -1.3660640154347668e-02 0.0000000000000000e+00  -1.6380992839505966e-03 -8.8467451713300661e-03 0.0000000000000000e+00  -1.2395162629685373e-03 -4.3075796916417419e-03 0.0000000000000000e+00  -8.8988080466038445e-04 1.1148850990473942e-04 0.0000000000000000e+00  0.0000000000000000e+00 0.0000000000000000e+00 0.0000000000000000e+00  1.2080625833182995e-04 -3.6580978921879170e-02 0.0000000000000000e+00  4.0347771581583826e-04 -5.7620893238963737e-02 0.0000000000000000e+00  7.6610292996827129e-04 -6.6922984800450114e-02 0.0000000000000000e+00  1.1303553430869742e-03 -6.8197832770562669e-02 0.0000000000000000e+00  1.4536860340837771e-03 -6.4546707562345318e-02 0.0000000000000000e+00  1.7190360588821053e-03 -5.8289894777416987e-02 0.0000000000000000e+00  1.9293558167411988e-03 -5.0994186598593165e-02 0.0000000000000000e+00  2.0977007262725513e-03 -4.3601364719289833e-02 0.0000000000000000e+00  2.2414928430481268e-03 -3.6590959681454850e-02 0.0000000000000000e+00  2.3789894357942403e-03 -3.0137261618708520e-02 0.0000000000000000e+00  2.5273763087458293e-03 -2.4239670793947135e-02 0.0000000000000000e+00  2.7010282179240623e-03 -1.8818440761525765e-02 0.0000000000000000e+00  2.9068950434764139e-03 -1.3775267452455746e-02 0.0000000000000000e+00  3.1345446511152684e-03 -9.0200414469686751e-03 0.0000000000000000e+00  3.3415695024096299e-03 -4.4597827207629726e-03 0.0000000000000000e+00  3.5618645349325706e-03 -1.0752770267561418e-04 0.0000000000000000e+00  0.0000000000000000e+00 0.0000000000000000e+00 0.0000000000000000e+00  3.2244258834780080e-04 -3.6977163384891855e-02 0.0000000000000000e+00  1.0633406307044063e-03 -5.8217386526763053e-02 0.0000000000000000e+00  1.9963188861964625e-03 -6.7589773377449605e-02 0.0000000000000000e+00  2.9835328517267249e-03 -6.8855969746134379e-02 0.0000000000000000e+00  3.9550865741906568e-03 -6.5158628335334270e-02 0.0000000000000000e+00  4.8813973282512291e-03 -5.8844990201602769e-02 0.0000000000000000e+00  5.7548814248918256e-03 -5.1495670481110964e-02 0.0000000000000000e+00  6.5751719683808134e-03 -4.4056942587356977e-02 0.0000000000000000e+00  7.3412998095362227e-03 -3.7007545084542785e-02 0.0000000000000000e+00  8.0482146565228809e-03 -3.0518630089030697e-02 0.0000000000000000e+00  8.6862963188861411e-03 -2.4585530827838181e-02 0.0000000000000000e+00  9.2421573248974310e-03 -1.9123585560227512e-02 0.0000000000000000e+00  9.6994388469728663e-03 -1.4027556859792662e-02 0.0000000000000000e+00  1.0041436637571101e-02 -9.1976134921553342e-03 0.0000000000000000e+00  1.0259388033195201e-02 -4.5498879943840593e-03 0.0000000000000000e+00  1.0335466380401174e-02 -8.5172281876578465e-05 0.0000000000000000e+00  0.0000000000000000e+00 0.0000000000000000e+00 0.0000000000000000e+00  5.3004439332761930e-04 -3.7746617419798033e-02 0.0000000000000000e+00  1.7602197935296326e-03 -5.9371315179173954e-02 0.0000000000000000e+00  3.3253351275485893e-03 -6.8901807073783711e-02 0.0000000000000000e+00  5.0212995119003241e-03 -7.0205963566265836e-02 0.0000000000000000e+00  6.7499787839216327e-03 -6.6491692517832574e-02 0.0000000000000000e+00  8.4690191116589039e-03 -6.0140039878194440e-02 0.0000000000000000e+00  1.0158777941097218e-02 -5.2743453007175908e-02 0.0000000000000000e+00  1.1801513818410299e-02 -4.5247032434002001e-02 0.0000000000000000e+00  1.3371576678924357e-02 -3.8122501421835188e-02 0.0000000000000000e+00  1.4832791711588186e-02 -3.1532817542769008e-02 0.0000000000000000e+00  1.6140299699562710e-02 -2.5467010545614125e-02 0.0000000000000000e+00  1.7245976927561617e-02 -1.9838558783801894e-02 0.0000000000000000e+00  1.8107125082602187e-02 -1.4547508359746292e-02 0.0000000000000000e+00  1.8700809016918802e-02 -9.5111425494601720e-03 0.0000000000000000e+00  1.9030681129803918e-02 -4.6710111757369069e-03 0.0000000000000000e+00  1.9137287719951199e-02 3.4700655657524367e-08 0.0000000000000000e+00  0.0000000000000000e+00 0.0000000000000000e+00 0.0000000000000000e+00  7.2596126452745139e-04 -3.8887180615643495e-02 0.0000000000000000e+00  2.4297643445644009e-03 -6.1099816649249968e-02 0.0000000000000000e+00  4.6298002851349225e-03 -7.0902561667492758e-02 0.0000000000000000e+00  7.0682868637452680e-03 -7.2320492577622603e-02 0.0000000000000000e+00  9.6265032883001284e-03 -6.8650192383530206e-02 0.0000000000000000e+00  1.2252054100299616e-02 -6.2311116658682726e-02 0.0000000000000000e+00  1.4911624655409933e-02 -5.4902337364529666e-02 0.0000000000000000e+00  1.7564390668468495e-02 -4.7359124129522319e-02 0.0000000000000000e+00  2.0151323493275437e-02 -4.0137545365315386e-02 0.0000000000000000e+00  2.2594050162551185e-02 -3.3385788160607124e-02 0.0000000000000000e+00  2.4799356532772984e-02 -2.7083527315590945e-02 0.0000000000000000e+00  2.6669539859915489e-02 -2.1144457021631834e-02 0.0000000000000000e+00  2.8118347174822311e-02 -1.5485105049080366e-02 0.0000000000000000e+00  2.9099365720028768e-02 -1.0061881733406051e-02 0.0000000000000000e+00  2.9628995997507759e-02 -4.8698105560623468e-03 0.0000000000000000e+00  2.9818120030415503e-02 9.9002980244121115e-05 0.0000000000000000e+00  0.0000000000000000e+00 0.0000000000000000e+00 0.0000000000000000e+00  8.9732423533786434e-04 -4.0367847704571427e-02 0.0000000000000000e+00  3.0252474285744871e-03 -6.3372851783184608e-02 0.0000000000000000e+00  5.8214449210430511e-03 -7.3587945241901348e-02 0.0000000000000000e+00  9.0029211141637068e-03 -7.5237938626107934e-02 0.0000000000000000e+00  1.2447852934867438e-02 -7.1723552561645781e-02 0.0000000000000000e+00  1.6100344049885761e-02 -6.5499995951087700e-02 0.0000000000000000e+00  1.9911036589680093e-02 -5.8161835376847631e-02 0.0000000000000000e+00  2.3807346519464492e-02 -5.0621616828718227e-02 0.0000000000000000e+00  2.7684122925307746e-02 -4.3308593268743284e-02 0.0000000000000000e+00  3.1405356127024504e-02 -3.6347230515879091e-02 0.0000000000000000e+00  3.4811283617351106e-02 -2.9699926761848058e-02 0.0000000000000000e+00  3.7730203265437127e-02 -2.3276790180676323e-02 0.0000000000000000e+00  3.9999755670436288e-02 -1.7019591525487897e-02 0.0000000000000000e+00  4.1519428455312160e-02 -1.0950937289592023e-02 0.0000000000000000e+00  4.2303337349866341e-02 -5.1708098214739151e-03 0.0000000000000000e+00  4.2586576765001945e-02 2.3736255639400771e-04 0.0000000000000000e+00  0.0000000000000000e+00 0.0000000000000000e+00 0.0000000000000000e+00  1.0296145829124428e-03 -4.2132883192415045e-02 0.0000000000000000e+00  3.4973256961636509e-03 -6.6121655251101127e-02 0.0000000000000000e+00  6.8119454388626518e-03 -7.6917790392573349e-02 0.0000000000000000e+00  1.0709756286485657e-02 -7.8976590280228159e-02 0.0000000000000000e+00  1.5093012050187730e-02 -7.5803585584762995e-02 0.0000000000000000e+00  1.9911641099770928e-02 -6.9874021572516237e-02 0.0000000000000000e+00  2.5095707391317494e-02 -6.2757531085808144e-02 0.0000000000000000e+00  3.0527593257778644e-02 -5.5325870225235926e-02 0.0000000000000000e+00  3.6038775782051058e-02 -4.7967423501562530e-02 0.0000000000000000e+00  4.1417389464823817e-02 -4.0770371241741266e-02 0.0000000000000000e+00  4.6414569912559753e-02 -3.3668317274115671e-02 0.0000000000000000e+00  5.0751992724741561e-02 -2.6559262390846446e-02 0.0000000000000000e+00  5.4147586921447742e-02 -1.9403524018170571e-02 0.0000000000000000e+00  5.6389768412249686e-02 -1.2305054882131006e-02 0.0000000000000000e+00  5.7438152117973096e-02 -5.5583110509923282e-03 0.0000000000000000e+00  5.7692311978051157e-02 5.0776585435447538e-04 0.0000000000000000e+00  0.0000000000000000e+00 0.0000000000000000e+00 0.0000000000000000e+00  1.1007236582304156e-03 -4.4094064377125673e-02 0.0000000000000000e+00  3.7749989070056558e-03 -6.9231628410337517e-02 0.0000000000000000e+00  7.4792753896322116e-03 -8.0812838247837082e-02 0.0000000000000000e+00  1.2032352034958310e-02 -8.3535866907296433e-02 0.0000000000000000e+00  1.7396178012882672e-02 -8.0988554195947096e-02 0.0000000000000000e+00  2.3535795986010823e-02 -7.5630982195135629e-02 0.0000000000000000e+00  3.0351117260432492e-02 -6.8974969936422575e-02 0.0000000000000000e+00  3.7660059064465068e-02 -6.1827467751588330e-02 0.0000000000000000e+00  4.5209475534582794e-02 -5.4520566298523594e-02 0.0000000000000000e+00  5.2690537579283991e-02 -4.7096701414313477e-02 0.0000000000000000e+00  5.9743376213898108e-02 -3.9448088424198668e-02 0.0000000000000000e+00  6.5960050681202406e-02 -3.1424045553424512e-02 0.0000000000000000e+00  7.0884415251411315e-02 -2.2958214860976840e-02 0.0000000000000000e+00  7.4079477136797342e-02 -1.4262374289422945e-02 0.0000000000000000e+00  7.5337531488854539e-02 -5.9623400574392192e-03 0.0000000000000000e+00  7.5193055215834581e-02 1.1628726814155164e-03 0.0000000000000000e+00  0.0000000000000000e+00 0.0000000000000000e+00 0.0000000000000000e+00  1.0754457359689964e-03 -4.6112957835101290e-02 0.0000000000000000e+00  3.7494997244200173e-03 -7.2522220714598573e-02 0.0000000000000000e+00  7.6407114527147681e-03 -8.5139025131029306e-02 0.0000000000000000e+00  1.2735148615785910e-02 -8.8884766390644659e-02 0.0000000000000000e+00  1.9094822539860556e-02 -8.7372224610260424e-02 0.0000000000000000e+00  2.6703960726204023e-02 -8.2984926821591976e-02 0.0000000000000000e+00  3.5414089896507808e-02 -7.7129273301459689e-02 0.0000000000000000e+00  4.4951759551110276e-02 -7.0518898252967130e-02 0.0000000000000000e+00  5.4951992281012357e-02 -6.3418844944355096e-02 0.0000000000000000e+00  6.4988004963912507e-02 -5.5822184042402988e-02 0.0000000000000000e+00  7.4587247059593298e-02 -4.7558129635092386e-02 0.0000000000000000e+00  8.3203573422502064e-02 -3.8387831346695191e-02 0.0000000000000000e+00  9.0135571508431891e-02 -2.8189489257564291e-02 0.0000000000000000e+00  9.4603083626158851e-02 -1.7211712723597887e-02 0.0000000000000000e+00  9.6019709024600580e-02 -6.3772992811435714e-03 0.0000000000000000e+00  9.4810378654432398e-02 2.7000072907377168e-03 0.0000000000000000e+00  0.0000000000000000e+00 0.0000000000000000e+00 0.0000000000000000e+00  9.0187029460907513e-04 -4.7975470940250911e-02 0.0000000000000000e+00  3.2668215475225378e-03 -7.5719342635527861e-02 0.0000000000000000e+00  7.0435591847621479e-03 -8.9684832494480615e-02 0.0000000000000000e+00  1.2489655211088978e-02 -9.4940226232042749e-02 0.0000000000000000e+00  1.9803091732671967e-02 -9.5016080311413190e-02 0.0000000000000000e+00  2.8978374778933346e-02 -9.2126675751196027e-02 0.0000000000000000e+00  3.9788596914206567e-02 -8.7511629692151607e-02 0.0000000000000000e+00  5.1833581706350593e-02 -8.1762173210525257e-02 0.0000000000000000e+00  6.4605366985105162e-02 -7.5072250486809433e-02 0.0000000000000000e+00  7.7548406359765620e-02 -6.7393707381612933e-02 0.0000000000000000e+00  9.0084566102440797e-02 -5.8513551380076530e-02 0.0000000000000000e+00  1.0153442809988927e-01 -4.8106039564189088e-02 0.0000000000000000e+00  1.1102690500601001e-01 -3.5774210046781989e-02 0.0000000000000000e+00  1.1737320155492267e-01 -2.1387172997806625e-02 0.0000000000000000e+00  1.1895797844407258e-01 -6.3067969185616199e-03 0.0000000000000000e+00  1.1546461421433347e-01 5.9246329240642166e-03 0.0000000000000000e+00  0.0000000000000000e+00 0.0000000000000000e+00 0.0000000000000000e+00  5.1347559620650355e-04 -4.9366465318757442e-02 0.0000000000000000e+00  2.1422427923620934e-03 -7.8434219833346780e-02 0.0000000000000000e+00  5.3966341557291891e-03 -9.4144580396137684e-02 0.0000000000000000e+00  1.0913580214783704e-02 -1.0154150082007479e-01 0.0000000000000000e+00  1.9039766959362811e-02 -1.0390239386684773e-01 0.0000000000000000e+00  2.9748702934653204e-02 -1.0315010099897319e-01 0.0000000000000000e+00  4.2693384992343299e-02 -1.0028943695427027e-01 0.0000000000000000e+00  5.7309981360760258e-02 -9.5764123310513080e-02 0.0000000000000000e+00  7.2923476110328636e-02 -8.9703031320028964e-02 0.0000000000000000e+00  8.8836273780692365e-02 -8.2056384223125944e-02 0.0000000000000000e+00  1.0435985003883042e-01 -7.2626190052455089e-02 0.0000000000000000e+00  1.1881746117808205e-01 -6.0946658253366801e-02 0.0000000000000000e+00  1.3141116956396268e-01 -4.6197098775300052e-02 0.0000000000000000e+00  1.4028106333622592e-01 -2.7932143903740901e-02 0.0000000000000000e+00  1.4245705471535949e-01 -7.5013997021771712e-03 0.0000000000000000e+00  1.3592395117046926e-01 1.1645094462654501e-02 0.0000000000000000e+00  0.0000000000000000e+00 0.0000000000000000e+00 0.0000000000000000e+00  -1.5361010462804561e-04 -4.9861555633926830e-02 0.0000000000000000e+00  2.2450134390262634e-04 -8.0175879792592969e-02 0.0000000000000000e+00  2.4852558431956218e-03 -9.8128876697511955e-02 0.0000000000000000e+00  7.7107547757166266e-03 -1.0842774580066429e-01 0.0000000000000000e+00  1.6355848167943745e-02 -1.1386179598490379e-01 0.0000000000000000e+00  2.8313526611843821e-02 -1.1592863726236882e-01 0.0000000000000000e+00  4.3074958401298602e-02 -1.1534063469387110e-01 0.0000000000000000e+00  5.9895329487016098e-02 -1.1238143500814024e-01 0.0000000000000000e+00  7.7928353639993855e-02 -1.0713118268785074e-01 0.0000000000000000e+00  9.6320767117665518e-02 -9.9580954379361666e-02 0.0000000000000000e+00  1.1430490117751103e-01 -8.9613847497014357e-02 0.0000000000000000e+00  1.3131235189211882e-01 -7.6858914015394006e-02 0.0000000000000000e+00  1.4662673770492160e-01 -6.0512582832580541e-02 0.0000000000000000e+00  1.5877631509713355e-01 -3.8466774338093451e-02 0.0000000000000000e+00  1.6449669186085539e-01 -8.2187696987936990e-03 0.0000000000000000e+00  1.5799723703381541e-01 1.9413452148683195e-02 0.0000000000000000e+00  0.0000000000000000e+00 0.0000000000000000e+00 0.0000000000000000e+00  -1.1084301435924520e-03 -4.8986199543123610e-02 0.0000000000000000e+00  -2.4348367348579862e-03 -8.0454032904000147e-02 0.0000000000000000e+00  -1.5582830549432218e-03 -1.0123616943874247e-01 0.0000000000000000e+00  2.9804544209376120e-03 -1.1522538574995668e-01 0.0000000000000000e+00  1.1619275530081394e-02 -1.2446303000616370e-01 0.0000000000000000e+00  2.4095283923861566e-02 -1.2992078071124438e-01 0.0000000000000000e+00  3.9728147200433675e-02 -1.3200065041770237e-01 0.0000000000000000e+00  5.7629248033228636e-02 -1.3083795430811854e-01 0.0000000000000000e+00  7.6831638244365702e-02 -1.2647897518448234e-01 0.0000000000000000e+00  9.6374862860390556e-02 -1.1897005163560924e-01 0.0000000000000000e+00  1.1542578143119918e-01 -1.0836365631655094e-01 0.0000000000000000e+00  1.3330861097157470e-01 -9.4602315320365643e-02 0.0000000000000000e+00  1.4965278632945447e-01 -7.6752666174490877e-02 0.0000000000000000e+00  1.6518508078919794e-01 -5.1706735091167903e-02 0.0000000000000000e+00  1.7630263649781910e-01 -1.3706154106012738e-02 0.0000000000000000e+00  1.5953001026800925e-01 2.8894119222499109e-02 0.0000000000000000e+00  0.0000000000000000e+00 0.0000000000000000e+00 0.0000000000000000e+00  -2.1590577855264688e-03 -4.6415655201792590e-02 0.0000000000000000e+00  -5.1987110064293778e-03 -7.9032678402374351e-02 0.0000000000000000e+00  -5.7231928661828210e-03 -1.0319395460827317e-01 0.0000000000000000e+00  -2.2285128209731404e-03 -1.2141684280475018e-01 0.0000000000000000e+00  5.5057868776104196e-03 -1.3482482669112494e-01 0.0000000000000000e+00  1.7028593951577707e-02 -1.4386788199267828e-01 0.0000000000000000e+00  3.1569021926759817e-02 -1.4869175855447053e-01 0.0000000000000000e+00  4.8232535909048524e-02 -1.4932780864792694e-01 0.0000000000000000e+00  6.6088993523858913e-02 -1.4579708036767619e-01 0.0000000000000000e+00  8.4215876651537749e-02 -1.3817369767462842e-01 0.0000000000000000e+00  1.0171708455934896e-01 -1.2663215313791706e-01 0.0000000000000000e+00  1.1777404812821247e-01 -1.1139273285202814e-01 0.0000000000000000e+00  1.3258086766335184e-01 -9.2517365906530508e-02 0.0000000000000000e+00  1.4708337654553719e-01 -6.9658870859997529e-02 0.0000000000000000e+00  1.6206910157085500e-01 -3.7206159792348453e-02 0.0000000000000000e+00  1.8059249658473306e-01 1.6561882694807517e-02 0.0000000000000000e+00  0.0000000000000000e+00 0.0000000000000000e+00 0.0000000000000000e+00  -2.5380569266654951e-03 -4.2575188179006677e-02 0.0000000000000000e+00  -6.0543888610351659e-03 -7.6501352358029642e-02 0.0000000000000000e+00  -7.2004137064438280e-03 -1.0409715519560214e-01 0.0000000000000000e+00  -5.0845991255870264e-03 -1.2626802362301792e-01 0.0000000000000000e+00  1.8319385471547687e-04 -1.4333544746614213e-01 0.0000000000000000e+00  8.1140001197466897e-03 -1.5539663009424423e-01 0.0000000000000000e+00  1.8094742227491079e-02 -1.6246766899236667e-01 0.0000000000000000e+00  2.9495478827110632e-02 -1.6454338097796209e-01 0.0000000000000000e+00  4.1696408825572503e-02 -1.6162882435302259e-01 0.0000000000000000e+00  5.4074132134214629e-02 -1.5376630783385167e-01 0.0000000000000000e+00  6.5941802920389994e-02 -1.4106298675601700e-01 0.0000000000000000e+00  7.6611292975369782e-02 -1.2371869263768277e-01 0.0000000000000000e+00  8.5176309517835072e-02 -1.0235462970242175e-01 0.0000000000000000e+00  8.9791775095764484e-02 -7.7110181689476281e-02 0.0000000000000000e+00  9.5134337443131420e-02 -4.6544641932439214e-02 0.0000000000000000e+00  7.0498391007381089e-02 -1.1882556871216801e-02 0.0000000000000000e+00  0.0000000000000000e+00 0.0000000000000000e+00 0.0000000000000000e+00  0.0000000000000000e+00 -4.0110181987993161e-02 0.0000000000000000e+00  0.0000000000000000e+00 -7.4872339710920569e-02 0.0000000000000000e+00  0.0000000000000000e+00 -1.0428647316878221e-01 0.0000000000000000e+00  0.0000000000000000e+00 -1.2835258236157812e-01 0.0000000000000000e+00  0.0000000000000000e+00 -1.4707066728930826e-01 0.0000000000000000e+00  0.0000000000000000e+00 -1.6044072795197264e-01 0.0000000000000000e+00  0.0000000000000000e+00 -1.6846276434957128e-01 0.0000000000000000