<?xml version="1.0"?>
<VTKFile type="UnstructuredGrid"  version="0.1"  >
<UnstructuredGrid>
<Piece  NumberOfPoints="289" NumberOfCells="512">
<Points>
<DataArray  type="Float64"  NumberOfComponents="3"  format="ascii">0 0 0  0.0625 0 0  0.125 0 0  0.1875 0 0  0.25 0 0  0.3125 0 0  0.375 0 0  0.4375 0 0  0.5 0 0  0.5625 0 0  0.625 0 0  0.6875 0 0  0.75 0 0  0.8125 0 0  0.875 0 0  0.9375 0 0  1 0 0  0 0.0625 0  0.06257315502623913 0.06247234681650798 0  0.1251486697558989 0.06244416244826742 0  0.1877289706005277 0.06241494640586912 0  0.2503165663622366 0.06238428982787289 0  0.3129140910901647 0.06235193606344685 0  0.3755243529019204 0.06231785800851341 0  0.4381504043037669 0.06228235372206092 0  0.5007956725455108 0.06224615529404264 0  0.5634642419179028 0.06221053316255097 0  0.6261615084065281 0.06217735489217994 0  0.6888957530298465 0.06214901750221596 0  0.7516820540819478 0.06212810517765943 0  0.8145524110633316 0.06211650556318713 0  0.8775829818280511 0.06211347829306264 0  0.9409689734004802 0.06211173662423161 0  1.005223871488426 0.06209363135172423 0  0 0.125 0  0.06264395308984314 0.1249451965388169 0  0.1252926126458607 0.1248892834643286 0  0.1879508257639175 0.1248312072344759 0  0.2506236237359937 0.1247700855021332 0  0.3133163191768462 0.1247053241243449 0  0.3760346152022748 0.1246367713896126 0  0.4387847523118552 0.1245649163933919 0  0.5015737526580988 0.1244911282131576 0  0.5644098932830409 0.1244179111755017 0  0.6273036897351681 0.1243491115425509 0  0.6902699748485901 0.1242899440323573 0  0.7533322233480311 0.1242466140673936 0  0.8165310824287225 0.1242252520655965 0  0.879939018837894 0.124230158752746 0  0.9436760394231349 0.1242632328266427 0  1.007888023957173 0.1243331936034322 0  0 0.1875 0  0.06271005228366937 0.1874191402650604 0  0.1254270942992506 0.1873365083501576 0  0.1881583347651275 0.1872504024768322 0  0.2509112852713851 0.1871593458692302 0  0.3136939181318475 0.1870622494988913 0  0.3765148357503785 0.1869586376728961 0  0.4393834744111321 0.186848955362521 0  0.5023103915460239 0.1867349676384459 0  0.5653077319558349 0.186620239547333 0  0.6283900403227594 0.1865106365782573 0  0.6915756638263741 0.1864146893016962 0  0.7548889372677577 0.1863434775045728 0  0.8183626647705476 0.1863092974858068 0  0.8820376868504948 0.1863213824713466 0  0.9459489613589774 0.1863736954408747 0  1.010077315646643 0.1864076487586754 0  0 0.25 0  0.06276918741015006 0.2498948514899501 0  0.1255475251279405 0.2497871603921043 0  0.1883444625839688 0.2496744515375947 0  0.2511698868293017 0.249554487193717 0  0.3140343475283789 0.2494254551749464 0  0.376949288059743 0.2492862487408877 0  0.4399272944718629 0.2491368763343798 0  0.5029823830312922 0.2489790401795234 0  0.5661303534555794 0.2488169132671782 0  0.6293892169270165 0.2486581097172912 0  0.6927795984097513 0.2485147554336818 0  0.7563246368541268 0.2484043697935735 0  0.8200478943472179 0.2483498639171603 0  0.8839656339291178 0.2483771947724887 0  0.9480669122940544 0.2485081401409346 0  1.012276134680502 0.2487465504211408 0  0 0.3125 0  0.06281921791119295 0.312373108043996 0  0.1256495564067134 0.3122427921803775 0  0.1885025146634541 0.3121056695361404 0  0.2513901809285075 0.3119585497023544 0  0.3143255348083434 0.3117986153515341 0  0.3773227529226955 0.3116237208042423 0  0.4403975205405117 0.3114328702012028 0  0.5035673479925729 0.3112269554147939 0  0.5668518716633052 0.3110098522109813 0  0.6302730563950159 0.3107899800718355 0  0.6938550451103875 0.3105823990151724 0  0.75762300639418 0.3104113871342569 0  0.8215995830619602 0.3103131096088179 0  0.8857965923190591 0.3103373204975781 0  0.950199866029436 0.3105460531514383 0  1.014751028045062 0.3110065779517256 0  0 0.375 0  0.06285818440319356 0.3748547933492928 0  0.1257291931016469 0.3747051953168641 0  0.1886263048105788 0.3745468013942724 0  0.2515635544665212 0.3743752844117776 0  0.3145561260408348 0.3741865218769695 0  0.377620756014544 0.3739768546722018 0  0.4407761518424905 0.3737435601504535 0  0.50404342644681 0.3734856638165422 0  0.5674465350076949 0.3732052726653916 0  0.6310126532686033 0.3729096888322197 0  0.6947723153361718 0.3726146377793466 0  0.7587588720812037 0.3723489627973986 0  0.8230064150103691 0.372160954453827 0  0.8875449727869877 0.3721258439762795 0  0.952392552613888 0.3723526522661244 0  1.017547776766883 0.3729868088642082 0  0 0.4375 0  0.06288437768666201 0.4373408701793074 0  0.1257829322312838 0.4371763531416481 0  0.1887103629008604 0.4370009660678419 0  0.2516823020365437 0.4368091142006306 0  0.3147158097066232 0.4365951101918935 0  0.3778298987153295 0.4363533138549593 0  0.441046109288408 0.4360784846829996 0  0.5043891655844017 0.4357665019027761 0  0.5678877683694415 0.43541570986216 0  0.6315756094397715 0.4350293093683542 0  0.695492723184432 0.4346194526082075 0  0.7596872894547149 0.4342139849492038 0  0.8242179280057234 0.4338669522562267 0  0.889156409303439 0.4336736064572925 0  0.9545909675069442 0.4337889665279178 0  1.02063266017177 0.4344461314850351 0  0 0.5 0  0.06289642244090274 0.4998323222227598 0  0.1258079325249075 0.4996583246632836 0  0.188750195121214 0.4994714865578803 0  0.2517399821828434 0.4992649223357824 0  0.314795772039325 0.4990312389578578 0  0.3779384068393608 0.4987624691922453 0  0.4411918503014746 0.4984501599287962 0  0.5045841274596949 0.4980857668934155 0  0.5681486133721182 0.4976616407385082 0  0.6319260068830981 0.4971731328305437 0  0.6959676280674545 0.4966227781203851 0  0.7603411447506799 0.4960282126063058 0  0.8251403901581786 0.4954364183753207 0  0.8905012750320888 0.4949474502464496 0  0.9566255512505122 0.4947489246467783 0  1.023814939283198 0.4951549351997795 0  0 0.5625 0  0.06289337399345643 0.5623300631531883 0  0.1258022130746139 0.5621530566844706 0  0.1887425956659131 0.5619615942709387 0  0.2517318603617218 0.56174763730763 0  0.3147892994225802 0.5615021515296782 0  0.3779369375530217 0.5612147600995043 0  0.4412004570156443 0.5608734297388435 0  0.5046103938603684 0.5604642864429061 0  0.5682038827922538 0.5599717843970752 0  0.6320275708660685 0.5593797209131407 0  0.6961430292594105 0.5586741590468379 0  0.7606373026647661 0.5578504966890094 0  0.8256432495702226 0.5569291758336657 0  0.8913764516971592 0.5559878930534425 0  0.9581958507332458 0.5552193330136538 0  1.026693006021341 0.5550115266076556 0  0 0.625 0  0.06287482133328258 0.6248348195164781 0  0.1257648675012332 0.624662135341028 0  0.1886859894520634 0.6244740201259281 0  0.2516554094670539 0.6242616189511366 0  0.3146924846413249 0.6240145982435568 0  0.3778195743640347 0.6237204872367063 0  0.4410630752438519 0.6233638795154707 0  0.504454752901456 0.622925482484131 0  0.5680336816442614 0.6223810673573794 0  0.6318495756925545 0.6217005555159136 0  0.695969448207958 0.6208479781112736 0  0.760492111704774 0.6197844098172862 0  0.8255800550734337 0.6184796344570976 0  0.8915256476551283 0.6169472074736591 0  0.9588735151488017 0.6153313068651657 0  1.028615817012771 0.6140572279304297 0  0 0.6875 0  0.06284098423153067 0.6873470015460286 0  0.1256962689646169 0.6871865059115535 0  0.1885807668391065 0.6870105167589615 0  0.2515108092898367 0.6868099047946856 0  0.3145049449642909 0.6865736863290185 0  0.377584851759678 0.6862880892229042 0  0.4407764081982586 0.6859352939550442 0  0.5041110007956727 0.6854916988851939 0  0.5676272636026489 0.6849255128494275 0  0.6313738572212086 0.68419344981855 0  0.6954151862452572 0.6832364003886289 0  0.7598456923856519 0.6819746498394104 0  0.8248281608239346 0.6803064547194428 0  0.8906928639503046 0.6781276829083542 0  0.9581583769001273 0.6754441254939276 0  1.028737541500202 0.6727146697460588 0  0 0.75 0  0.06279278838224099 0.7498665830455237 0  0.1255982332351321 0.7497262064831892 0  0.188429559122963 0.7495713887374112 0  0.2513013708154027 0.7493934356350678 0  0.3142304429201718 0.7491816327497617 0  0.3772366312114087 0.748922149148339 0  0.4403439272722117 0.7485964753867087 0  0.5035816457203053 0.7481791246517381 0  0.5669856886422697 0.747634168255368 0  0.630599864956653 0.746909905422337 0  0.6944778171740443 0.7459304851265003 0  0.7586891172615704 0.7445824546324762 0  0.8233454410410534 0.7426931479484336 0  0.888707330357809 0.7400002738762623 0  0.955565420256357 0.7361535117212893 0  1.025891554127002 0.7312769998541737 0  0 0.8125 0  0.06273190101426872 0.8123930152813271 0  0.1254741040012398 0.8122801710674042 0  0.1882374000823162 0.8121551296804915 0  0.2510338123608421 0.8120104252182153 0  0.3138773206991728 0.8118366890387533 0  0.376784721147659 0.8116215666340464 0  0.4397766365115368 0.8113481233464127 0  0.5028786157868617 0.8109924160400773 0  0.5661220458180467 0.8105196990040442 0  0.6295440841397268 0.8098783560650248 0  0.6931847737089856 0.80898991100396 0  0.7570781247067319 0.8077317964369749 0  0.8212363035729113 0.8059052253820161 0  0.8856589290401273 0.8031688173152345 0  0.9506254597325913 0.7988934349460192 0  1.019360604140353 0.7919064422406272 0  0 0.875 0  0.06266071104765349 0.8749251982465734 0  0.1253287270583464 0.8748461556565104 0  0.1880117220631315 0.8747582653030203 0  0.2507183225709396 0.8746560477304453 0  0.3134586904072172 0.8745325398655683 0  0.3762452465733903 0.874378423859977 0  0.4390935747738443 0.8741807187403428 0  0.5020234814888094 0.8739207482181161 0  0.5650599610601473 0.8735709130768118 0  0.6282330828816989 0.8730894896391453 0  0.691573627760952 0.8724121545309751 0  0.7550950696250991 0.8714378458822027 0  0.8187360248099794 0.8700028485462759 0  0.8822001082320218 0.8678189078509907 0  0.9445807625897479 0.8642625134738955 0  1.00379514859197 0.8575034675275267 0  0 0.9375 0  0.06258224274138821 0.9374615247969668 0  0.1251682877541901 0.937420823942132 0  0.1877621414476714 0.9373754735097349 0  0.2503683440553884 0.9373225742289361 0  0.3129923109894102 0.9372584145612231 0  0.3756407806188464 0.937177984642922 0  0.4383224201948363 0.9370742364
[...]
<PointData  Vectors="f_95-0"> 
<DataArray  type="Float64"  Name="f_95-0"  NumberOfComponents="3" format="ascii">0.0000000000000000e+00 0.0000000000000000e+00 0.0000000000000000e+00  7.8173185919593350e-04 -2.6293756275040370e-02 0.0000000000000000e+00  2.1933357382410965e-03 -5.1308979069247938e-02 0.0000000000000000e+00  3.9028563311489239e-03 -7.0983203167485118e-02 0.0000000000000000e+00  5.8925956733753082e-03 -8.4240599522480544e-02 0.0000000000000000e+00  8.0906552200835560e-03 -9.1354842640066311e-02 0.0000000000000000e+00  1.0429291306490148e-02 -9.3243264612086429e-02 0.0000000000000000e+00  1.2838570513372194e-02 -9.1019763429457223e-02 0.0000000000000000e+00  1.5246621142897048e-02 -8.5744333615125984e-02 0.0000000000000000e+00  1.7578186754558824e-02 -7.8305683876613991e-02 0.0000000000000000e+00  1.9752193746858836e-02 -6.9390342015090423e-02 0.0000000000000000e+00  2.1677678313514179e-02 -5.9500812079526316e-02 0.0000000000000000e+00  2.3251037982310020e-02 -4.8999042756858673e-02 0.0000000000000000e+00  2.4322358612978892e-02 -3.8134051167667611e-02 0.0000000000000000e+00  2.4697367135460700e-02 -2.7145624575942214e-02 0.0000000000000000e+00  2.4602182305538706e-02 -1.6223161834187743e-02 0.0000000000000000e+00  1.1727546752473865e-02 -1.1415153803101593e-02 0.0000000000000000e+00  0.0000000000000000e+00 0.0000000000000000e+00 0.0000000000000000e+00  6.6692778194285941e-04 -2.7552273819446395e-02 0.0000000000000000e+00  2.1184286522508474e-03 -5.2968912516421447e-02 0.0000000000000000e+00  3.9668880331946406e-03 -7.2959651113187807e-02 0.0000000000000000e+00  6.1356046737798455e-03 -8.6451959118802033e-02 0.0000000000000000e+00  8.5361502301266635e-03 -9.3722466542167829e-02 0.0000000000000000e+00  1.1094829647125406e-02 -9.5689041529152488e-02 0.0000000000000000e+00  1.3735191778092758e-02 -9.3466423644840757e-02 0.0000000000000000e+00  1.6379930376986058e-02 -8.8113555252997397e-02 0.0000000000000000e+00  1.8948398199388355e-02 -8.0515217291285815e-02 0.0000000000000000e+00  2.1354494901800605e-02 -7.1350627215244947e-02 0.0000000000000000e+00  2.3504934705022313e-02 -6.1110642792322159e-02 0.0000000000000000e+00  2.5295472874738344e-02 -5.0133767726281593e-02 0.0000000000000000e+00  2.6602216940176091e-02 -3.8641802027004811e-02 0.0000000000000000e+00  2.7338034238100474e-02 -2.6762663117840813e-02 0.0000000000000000e+00  2.6918684420174102e-02 -1.4382014208316654e-02 0.0000000000000000e+00  2.7538039107365523e-02 -3.7846465085429196e-03 0.0000000000000000e+00  0.0000000000000000e+00 0.0000000000000000e+00 0.0000000000000000e+00  5.9843339664101668e-04 -2.8723947059443911e-02 0.0000000000000000e+00  2.1527986250786803e-03 -5.4795724843734406e-02 0.0000000000000000e+00  4.3309830898727603e-03 -7.5219209965425610e-02 0.0000000000000000e+00  6.9588015403438848e-03 -8.9018303950335304e-02 0.0000000000000000e+00  9.9040987939715327e-03 -9.6491888743000950e-02 0.0000000000000000e+00  1.3065319582719597e-02 -9.8566721831057941e-02 0.0000000000000000e+00  1.6346200705703261e-02 -9.6362172143909561e-02 0.0000000000000000e+00  1.9652869192466799e-02 -9.0937284844437721e-02 0.0000000000000000e+00  2.2888453301921144e-02 -8.3173397553623699e-02 0.0000000000000000e+00  2.5951701030196395e-02 -7.3744256948066231e-02 0.0000000000000000e+00  2.8738329116962131e-02 -6.3134847395154209e-02 0.0000000000000000e+00  3.1146781077224885e-02 -5.1680024744639612e-02 0.0000000000000000e+00  3.3094450188952011e-02 -3.9604433016516047e-02 0.0000000000000000e+00  3.4523399902088053e-02 -2.7051783793765251e-02 0.0000000000000000e+00  3.5592329149868797e-02 -1.4207954926221346e-02 0.0000000000000000e+00  3.6164766139037678e-02 -1.8721695612242228e-03 0.0000000000000000e+00  0.0000000000000000e+00 0.0000000000000000e+00 0.0000000000000000e+00  6.4836681209456384e-04 -2.9934773820473479e-02 0.0000000000000000e+00  2.4372908877105157e-03 -5.6910346716108270e-02 0.0000000000000000e+00  5.0954776752799545e-03 -7.7967643315969545e-02 0.0000000000000000e+00  8.3902843685907703e-03 -9.2209934219240161e-02 0.0000000000000000e+00  1.2142710509362145e-02 -9.9980561772329876e-02 0.0000000000000000e+00  1.6211569090074644e-02 -1.0222970651289237e-01 0.0000000000000000e+00  2.0471338638896549e-02 -1.0008635926721184e-01 0.0000000000000000e+00  2.4801086227222886e-02 -9.4610330477231205e-02 0.0000000000000000e+00  2.9076110066991633e-02 -8.6679021716721566e-02 0.0000000000000000e+00  3.3166517611520702e-02 -7.6962070171765554e-02 0.0000000000000000e+00  3.6941708662362127e-02 -6.5945863545364192e-02 0.0000000000000000e+00  4.0283184730820640e-02 -5.3980034914415526e-02 0.0000000000000000e+00  4.3103463316845544e-02 -4.1328281684984119e-02 0.0000000000000000e+00  4.5384962818718136e-02 -2.8223984107048083e-02 0.0000000000000000e+00  4.7137049663266838e-02 -1.4902976388229029e-02 0.0000000000000000e+00  4.8328575326731904e-02 -1.7533151091866826e-03 0.0000000000000000e+00  0.0000000000000000e+00 0.0000000000000000e+00 0.0000000000000000e+00  7.6857433543150641e-04 -3.1332118429589502e-02 0.0000000000000000e+00  2.9238804432933948e-03 -5.9449260172626368e-02 0.0000000000000000e+00  6.1940612801133282e-03 -8.1364331110862831e-02 0.0000000000000000e+00  1.0314184056458777e-02 -9.6228497467369029e-02 0.0000000000000000e+00  1.5068183280609567e-02 -1.0443438333943432e-01 0.0000000000000000e+00  2.0278844029856073e-02 -1.0696285247659984e-01 0.0000000000000000e+00  2.5788387665059680e-02 -1.0495499876243225e-01 0.0000000000000000e+00  3.1441444365156800e-02 -9.9469772233503062e-02 0.0000000000000000e+00  3.7074417271389652e-02 -9.1377287488270675e-02 0.0000000000000000e+00  4.2513373195883809e-02 -8.1340896329692547e-02 0.0000000000000000e+00  4.7580213617376625e-02 -6.9850298838087146e-02 0.0000000000000000e+00  5.2108868078575434e-02 -5.7277932007900288e-02 0.0000000000000000e+00  5.5969534500771780e-02 -4.3939432694058943e-02 0.0000000000000000e+00  5.9094098669804376e-02 -3.0139109672088563e-02 0.0000000000000000e+00  6.1470506977291166e-02 -1.6175445229544838e-02 0.0000000000000000e+00  6.3170198911996572e-02 -2.2609707922898216e-03 0.0000000000000000e+00  0.0000000000000000e+00 0.0000000000000000e+00 0.0000000000000000e+00  9.2744381296554299e-04 -3.3002635257745272e-02 0.0000000000000000e+00  3.5274349048443603e-03 -6.2517007907860189e-02 0.0000000000000000e+00  7.4955293150802431e-03 -8.5524182754271774e-02 0.0000000000000000e+00  1.2542003380281466e-02 -1.0121504488407787e-01 0.0000000000000000e+00  1.8426300772113893e-02 -1.1003079159388550e-01 0.0000000000000000e+00  2.4945352003343958e-02 -1.1298289746335580e-01 0.0000000000000000e+00  3.1911296737619867e-02 -1.1122124841360502e-01 0.0000000000000000e+00  3.9130543300144129e-02 -1.0579720334710518e-01 0.0000000000000000e+00  4.6391250218690672e-02 -9.7565335041543980e-02 0.0000000000000000e+00  5.3460397289995652e-02 -8.7174930696466466e-02 0.0000000000000000e+00  6.0090644004858848e-02 -7.5113413324435260e-02 0.0000000000000000e+00  6.6039685960548461e-02 -6.1774043673425927e-02 0.0000000000000000e+00  7.1099449677285223e-02 -4.7526011353530795e-02 0.0000000000000000e+00  7.5145703641260553e-02 -3.2761483037220165e-02 0.0000000000000000e+00  7.8174812548617412e-02 -1.7877741742187023e-02 0.0000000000000000e+00  8.0396191656438423e-02 -3.1806399024453145e-03 0.0000000000000000e+00  0.0000000000000000e+00 0.0000000000000000e+00 0.0000000000000000e+00  1.0971019918971374e-03 -3.4988235732822545e-02 0.0000000000000000e+00  4.1610654627180456e-03 -6.6163730040669971e-02 0.0000000000000000e+00  8.8469061389401613e-03 -9.0502462002176598e-02 0.0000000000000000e+00  1.4849496203945848e-02 -1.0724391760522596e-01 0.0000000000000000e+00  2.1919344893203619e-02 -1.1687730387962693e-01 0.0000000000000000e+00  2.9840140188050288e-02 -1.2043846727344908e-01 0.0000000000000000e+00  3.8399501128281825e-02 -1.1907559839783424e-01 0.0000000000000000e+00  4.7364685132178286e-02 -1.1381954971462976e-01 0.0000000000000000e+00  5.6468839160677110e-02 -1.0549572821246685e-01 0.0000000000000000e+00  6.5407774224930326e-02 -9.4725723752476620e-02 0.0000000000000000e+00  7.3846837764783915e-02 -8.1981232592817394e-02 0.0000000000000000e+00  8.1441176618499672e-02 -6.7665912686492830e-02 0.0000000000000000e+00  8.7872543585888918e-02 -5.2205204009779647e-02 0.0000000000000000e+00  9.2931220800067049e-02 -3.6113431168734375e-02 0.0000000000000000e+00  9.6599036600285626e-02 -1.9994982756962123e-02 0.0000000000000000e+00  9.9285271970332753e-02 -4.3697378887652301e-03 0.0000000000000000e+00  0.0000000000000000e+00 0.0000000000000000e+00 0.0000000000000000e+00  1.2521346500948703e-03 -3.7281843700373359e-02 0.0000000000000000e+00  4.7382644289969090e-03 -7.0370622440779212e-02 0.0000000000000000e+00  1.0083696626572122e-02 -9.6278607936617355e-02 0.0000000000000000e+00  1.6987064680920018e-02 -1.1431038262251955e-01 0.0000000000000000e+00  2.5209735761300499e-02 -1.2500153773004838e-01 0.0000000000000000e+00  3.4536712003869895e-02 -1.2939979841403895e-01 0.0000000000000000e+00  4.4738552823523625e-02 -1.2863407289814746e-01 0.0000000000000000e+00  5.5544526080581171e-02 -1.2369611131649148e-01 0.0000000000000000e+00  6.6629550571165749e-02 -1.1536406160237687e-01 0.0000000000000000e+00  7.7612072260986847e-02 -1.0421313353768503e-01 0.0000000000000000e+00  8.8058777422318088e-02 -9.0679156638985431e-02 0.0000000000000000e+00  9.7500359588684637e-02 -7.5157055363431063e-02 0.0000000000000000e+00  1.0547027464646387e-01 -5.8118487140730694e-02 0.0000000000000000e+00  1.1160880394048940e-01 -4.0226613548886958e-02 0.0000000000000000e+00  1.1579985830317371e-01 -2.2400865736533014e-02 0.0000000000000000e+00  1.1860332026247454e-01 -5.5664810260773719e-03 0.0000000000000000e+00  0.0000000000000000e+00 0.0000000000000000e+00 0.0000000000000000e+00  1.3673403129591650e-03 -3.9829724515296920e-02 0.0000000000000000e+00  5.1701136826210947e-03 -7.5045305971263326e-02 0.0000000000000000e+00  1.1030949303178546e-02 -1.0274497440033027e-01 0.0000000000000000e+00  1.8681305727179669e-02 -1.2231582521477412e-01 0.0000000000000000e+00  2.7917250547910961e-02 -1.3433313911401654e-01 0.0000000000000000e+00  3.8540888522268009e-02 -1.3983635217222157e-01 0.0000000000000000e+00  5.0313748225055605e-02 -1.3991068122938094e-01 0.0000000000000000e+00  6.2929967076234716e-02 -1.3548581113123173e-01 0.0000000000000000e+00  7.6007720421229844e-02 -1.2727248318803602e-01 0.0000000000000000e+00  8.9089783870806363e-02 -1.1578036419934422e-01 0.0000000000000000e+00  1.0164461940322635e-01 -1.0138581239327066e-01 0.0000000000000000e+00  1.1307182977301150e-01 -8.4437355932295302e-02 0.0000000000000000e+00  1.2272018978766669e-01 -6.5407845841274737e-02 0.0000000000000000e+00  1.2997923122076205e-01 -4.5101462202549791e-02 0.0000000000000000e+00  1.3447171778713671e-01 -2.4843859224826466e-02 0.0000000000000000e+00  1.3667963179671005e-01 -6.1899606778800555e-03 0.0000000000000000e+00  0.0000000000000000e+00 0.0000000000000000e+00 0.0000000000000000e+00  1.4177220010870230e-03 -4.2530998132265699e-02 0.0000000000000000e+00  5.3677980908425019e-03 -8.0017936826968339e-02 0.0000000000000000e+00  1.1510330610861099e-02 -1.0969781717341678e-01 0.0000000000000000e+00  1.9645037911000682e-02 -1.3105214652549060e-01 0.0000000000000000e+00  2.9627911140513156e-02 -1.4468004961207778e-01 0.0000000000000000e+00  4.1293164310333426e-02 -1.5158362839847481e-01 0.0000000000000000e+00  5.4400749160074161e-02 -1.5277388923847326e-01 0.0000000000000000e+00  6.8614126160431513e-02 -1.4909336165241530e-01 0.0000000000000000e+00  8.3500589029630840e-02 -1.4116789933789856e-01 0.0000000000000000e+00  9.8538434078736900e-02 -1.2942747275917893e-01 0.0000000000000000e+00  1.1312061024988078e-01 -1.1416310149560185e-01 0.0000000000000000e+00  1.2653648128568340e-01 -9.5627084816789262e-02 0.0000000000000000e+00  1.3793175886218709e-01 -7.4224265483426741e-02 0.0000000000000000e+00  1.4634900014520194e-01 -5.0809137244648910e-02 0.0000000000000000e+00  1.5091609983445245e-01 -2.7064782326781986e-02 0.0000000000000000e+00  1.5154926046465975e-01 -5.3237816502963919e-03 0.0000000000000000e+00  0.0000000000000000e+00 0.0000000000000000e+00 0.0000000000000000e+00  1.3821685322273735e-03 -4.5240797371161275e-02 0.0000000000000000e+00  5.2551888021582565e-03 -8.5044765971569444e-02 0.0000000000000000e+00  1.1363415211526132e-02 -1.1683555496561771e-01 0.0000000000000000e+00  1.9609387423647106e-02 -1.4018989778034083e-01 0.0000000000000000e+00  2.9930583942274620e-02 -1.5570349995309518e-01 0.0000000000000000e+00  4.2205025394933676e-02 -1.6430352367193318e-01 0.0000000000000000e+00  5.6197499001803743e-02 -1.6689198129321589e-01 0.0000000000000000e+00  7.1546602802643550e-02 -1.6419997324251984e-01 0.0000000000000000e+00  8.7778272541269659e-02 -1.5675688566423854e-01 0.0000000000000000e+00  1.0432922177382323e-01 -1.4490867937492152e-01 0.0000000000000000e+00  1.2055894712179495e-01 -1.2885515326665709e-01 0.0000000000000000e+00  1.3569869818426925e-01 -1.0872238443498435e-01 0.0000000000000000e+00  1.4876760426079558e-01 -8.4703367033899690e-02 0.0000000000000000e+00  1.5844346416496136e-01 -5.7409244640666102e-02 0.0000000000000000e+00  1.6301572212408147e-01 -2.8705419526873454e-02 0.0000000000000000e+00  1.6117867154513410e-01 -1.9798979971744602e-03 0.0000000000000000e+00  0.0000000000000000e+00 0.0000000000000000e+00 0.0000000000000000e+00  1.2517354727561226e-03 -4.7784031475840143e-02 0.0000000000000000e+00  4.7947238446002507e-03 -8.9826366283005721e-02 0.0000000000000000e+00  1.0496613723735579e-02 -1.2377085448928314e-01 0.0000000000000000e+00  1.8385071735338470e-02 -1.4927675996887332e-01 0.0000000000000000e+00  2.8491068959700397e-02 -1.6689913711008741e-01 0.0000000000000000e+00  4.0743201332528865e-02 -1.7744732607857372e-01 0.0000000000000000e+00  5.4917378585244106e-02 -1.8167888173807603e-01 0.0000000000000000e+00  7.0636083067371180e-02 -1.8019205617103970e-01 0.0000000000000000e+00  8.7398589703924418e-02 -1.7341452634044210e-01 0.0000000000000000e+00  1.0462522820753890e-01 -1.6162212945389964e-01 0.0000000000000000e+00  1.2168137489886223e-01 -1.4495245790948727e-01 0.0000000000000000e+00  1.3785557746214949e-01 -1.2338542636203197e-01 0.0000000000000000e+00  1.5225058616374854e-01 -9.6757234084218671e-02 0.0000000000000000e+00  1.6322177209298269e-01 -6.5215669463903697e-02 0.0000000000000000e+00  1.6811016345965221e-01 -3.0352553963916330e-02 0.0000000000000000e+00  1.6353481415544568e-01 4.4034145839531294e-03 0.0000000000000000e+00  0.0000000000000000e+00 0.0000000000000000e+00 0.0000000000000000e+00  1.0426679164632980e-03 -4.9987671429016577e-02 0.0000000000000000e+00  4.0249737039481665e-03 -9.4048666170703288e-02 0.0000000000000000e+00  8.9430502684248736e-03 -1.3006370429142736e-01 0.0000000000000000e+00  1.5946930629176813e-02 -1.5775437440513160e-01 0.0000000000000000e+00  2.5159706762259319e-02 -1.7759510214268034e-01 0.0000000000000000e+00  3.6562982614583052e-02 -1.9023612147386146e-01 0.0000000000000000e+00  4.9953120962837709e-02 -1.9625984268524363e-01 0.0000000000000000e+00  6.4953446503254242e-02 -1.9611490825246891e-01 0.0000000000000000e+00  8.1057802108865498e-02 -1.9012615342154038e-01 0.0000000000000000e+00  9.7685337817586662e-02 -1.7852049319296046e-01 0.0000000000000000e+00  1.1423817139455120e-01 -1.6141874196844533e-01 0.0000000000000000e+00  1.3017077507563418e-01 -1.3874911194180845e-01 0.0000000000000000e+00  1.4482439964774638e-01 -1.1013816445741213e-01 0.0000000000000000e+00  1.5680116804617394e-01 -7.4778104010257668e-02 0.0000000000000000e+00  1.6318800958084442e-01 -3.2199718992567128e-02 0.0000000000000000e+00  1.5800013367356755e-01 1.2979772056463574e-02 0.0000000000000000e+00  0.0000000000000000e+00 0.0000000000000000e+00 0.0000000000000000e+00  8.1052908623073115e-04 -5.1734628505582893e-02 0.0000000000000000e+00  3.0939332795248456e-03 -9.7447024121936038e-02 0.0000000000000000e+00  6.9140635051294632e-03 -1.3527654669517145e-01 0.0000000000000000e+00  1.2509769029488228e-02 -1.6500089171683294e-01 0.0000000000000000e+00  2.0083455264196890e-02 -1.8698237285920294e-01 0.0000000000000000e+00  2.9669656755481298e-02 -2.0168128549476122e-01 0.0000000000000000e+00  4.1101081988831334e-02 -2.0948681170919856e-01 0.0000000000000000e+00  5.4032901546509395e-02 -2.1068998287566804e-01 0.0000000000000000e+00  6.7987925490687523e-02 -2.0550970505300964e-01 0.0000000000000000e+00  8.2406307748179947e-02 -1.9412653377084141e-01 0.0000000000000000e+00  9.6726478378371783e-02 -1.7668832043250185e-01 0.0000000000000000e+00  1.1047090373204384e-01 -1.5325078800405192e-01 0.0000000000000000e+00  1.2330267835410358e-01 -1.2342698059962508e-01 0.0000000000000000e+00  1.3524016154562751e-01 -8.5419306931687158e-02 0.0000000000000000e+00  1.4393943958979766e-01 -3.6017702073514901e-02 0.0000000000000000e+00  1.3593629365732757e-01 2.1765677009112749e-02 0.0000000000000000e+00  0.0000000000000000e+00 0.0000000000000000e+00 0.0000000000000000e+00  6.4409765460291381e-04 -5.3035015663834756e-02 0.0000000000000000e+00  2.2349866314224673e-03 -9.9873669377722282e-02 0.0000000000000000e+00  4.7648576597187648e-03 -1.3904318878616223e-01 0.0000000000000000e+00  8.5186376452710995e-03 -1.7040937123351341e-01 0.0000000000000000e+00  1.3755680347235125e-02 -1.9420206967943021e-01 0.0000000000000000e+00  2.0555735808291158e-02 -2.1068003118190054e-01 0.0000000000000000e+00  2.8807489938178558e-02 -2.2004442382768349e-01 0.0000000000000000e+00  3.8243420155143495e-02 -2.2243816565983279e-01 0.0000000000000000e+00  4.8475948258100969e-02 -2.1797237613593015e-01 0.0000000000000000e+00  5.9025791210526729e-02 -2.0675844117658240e-01 0.0000000000000000e+00  6.9353145547483230e-02 -1.8894058328835001e-01 0.0000000000000000e+00  7.8881264415666952e-02 -1.6469255330542046e-01 0.0000000000000000e+00  8.7394044007127900e-02 -1.3403206313624461e-01 0.0000000000000000e+00  9.5512654903631505e-02 -9.6374421764485407e-02 0.0000000000000000e+00  1.0406423685433326e-01 -4.7564857616414734e-02 0.0000000000000000e+00  1.1167278864496193e-01 1.9132470588883118e-02 0.0000000000000000e+00  0.0000000000000000e+00 0.0000000000000000e+00 0.0000000000000000e+00  5.7054871865061378e-04 -5.3998124386215644e-02 0.0000000000000000e+00  1.5241632680226560e-03 -1.0128308977330393e-01 0.0000000000000000e+00  2.7066574151468903e-03 -1.4113671635155706e-01 0.0000000000000000e+00  4.4149455075104304e-03 -1.7352456701281516e-01 0.0000000000000000e+00  6.8928828999396232e-03 -1.9853176783893522e-01 0.0000000000000000e+00  1.0226614523890053e-02 -2.1624002224654570e-01 0.0000000000000000e+00  1.4370169643195813e-02 -2.2670489733685001e-01 0.0000000000000000e+00  1.9180194583912666e-02 -2.2996101277103725e-01 0.0000000000000000e+00  2.4438091629152850e-02 -2.2603290282054028e-01 0.0000000000000000e+00  2.9853132163175398e-02 -2.1494855113714628e-01 0.0000000000000000e+00  3.5033275889422358e-02 -1.9675922552931752e-01 0.0000000000000000e+00  3.9467239456729537e-02 -1.7154956948408681e-01 0.0000000000000000e+00  4.2565032002333157e-02 -1.3954120524478841e-01 0.0000000000000000e+00  4.3273937142717954e-02 -1.0098524326521520e-01 0.0000000000000000e+00  4.3664915117705851e-02 -5.4736962455759347e-02 0.0000000000000000e+00  3.7281260868907179e-02 1.7857849911763076e-03 0.0000000000000000e+00  0.0000000000000000e+00 -3.4192600632154802e-18 0.0000000000000000e+00  0.0000000000000000e+00 -5.4479090970020481e-02 0.0000000000000000e+00  0.0000000000000000e+00 -1.0169430314403821e-01 0.0000000000000000e+00  0.0000000000000000e+00 -1.4164563652205323e-01 0.0000000000000000e+00  0.0000000000000000e+00 -1.7433309110406550e-01 0.0000000000000000e+00  0.0000000000000000e+00 -1.9975666689007507e-01 0.0000000000000000e+00  0.0000000000000000e+00 -2.1791636388008193e-01 0.0000000000000000e+00  0.0000000000000000e+00 -2.2881218207408599e-01 0.0000000000000000e+00  0.0000000000000000e+00 -2.324