<?xml version="1.0"?>
<VTKFile type="UnstructuredGrid"  version="0.1"  >
<UnstructuredGrid>
<Piece  NumberOfPoints="289" NumberOfCells="512">
<Points>
<DataArray  type="Float64"  NumberOfComponents="3"  format="ascii">0 0 0  0.0625 0 0  0.125 0 0  0.1875 0 0  0.25 0 0  0.3125 0 0  0.375 0 0  0.4375 0 0  0.5 0 0  0.5625 0 0  0.625 0 0  0.6875 0 0  0.75 0 0  0.8125 0 0  0.875 0 0  0.9375 0 0  1 0 0  0 0.0625 0  0.06257721464590531 0.06249824977480668 0  0.1251568998812404 0.06249644338817508 0  0.1877415607584087 0.06249452415490196 0  0.2503337622555669 0.06249243474077795 0  0.3129361498217657 0.06249011745041679 0  0.375551460915733 0.06248751533686349 0  0.4381825319852214 0.06248457449586523 0  0.5008323208719584 0.06248124782835266 0  0.5635040046792608 0.06247749999785731 0  0.6262013177574449 0.06247331108303797 0  0.6889295799596379 0.06246866826733678 0  0.7516986967040029 0.06246350449396607 0  0.8145320251352064 0.06245742385306389 0  0.8774938935739292 0.0624485600237494 0  0.9407814861114017 0.0624287486411274 0  1.005063600161542 0.06236179988755036 0  0 0.125 0  0.06265205037127086 0.1249965528569084 0  0.1253090227755534 0.1249929934386688 0  0.1879759133883885 0.1249892081580167 0  0.2506578487037408 0.124985081551571 0  0.3133601296851687 0.1249804964999101 0  0.3760882522550908 0.1249753360579107 0  0.4388479034912472 0.1249694877550623 0  0.501644949351559 0.1249628514322585 0  0.5644854704280865 0.1249553517792954 0  0.627375996447803 0.1249469566181669 0  0.6903242972827024 0.1249377023799877 0  0.7533415076381472 0.1249277360739127 0  0.8164470381293273 0.1249174408393558 0  0.8796778066532969 0.1249080519020348 0  0.9430959457261308 0.1249050092477746 0  1.006732679866383 0.124935973610037 0  0 0.1875 0  0.06272205430434157 0.1874949654141453 0  0.1254514257469633 0.1874897631907878 0  0.188195554866074 0.1874842231305673 0  0.2509621029797923 0.1874781708949405 0  0.3137590281840172 0.1874714274601193 0  0.376594617195988 0.1874638107759048 0  0.4394774566929158 0.1874551409963004 0  0.5024163311273034 0.1874452512745426 0  0.5654200451375425 0.1874340070164697 0  0.6284971904871937 0.1874213378345139 0  0.6916558976353154 0.1874072887188938 0  0.7549035478551045 0.1873921009637741 0  0.8182459343214016 0.1873763355486316 0  0.8816833246291261 0.1873609977852206 0  0.9451943513882306 0.1873470785845176 0  1.008684221275324 0.1873300071642292 0  0 0.25 0  0.06278483106553973 0.2499935428258449 0  0.1255792707677361 0.2499868645840382 0  0.1883931147070561 0.2499797398079929 0  0.2512365010880655 0.2499719352757697 0  0.3141200362693328 0.2499632077024425 0  0.3770548561177337 0.2499533038142427 0  0.4400525870295246 0.249941964487904 0  0.5031251559691037 0.2499289356338004 0  0.5662843759874246 0.2499139900798648 0  0.6295411914084255 0.2498969671428747 0  0.692904373242512 0.2498778400553869 0  0.7563782260641129 0.2498568253084913 0  0.8199583120932546 0.2498345478768421 0  0.8836230106092141 0.2498122579976048 0  0.94731695406045 0.2497920575543309 0  1.010922968509088 0.2497774614152531 0  0 0.3125 0  0.06283809016864306 0.3124923384933165 0  0.1256879145480394 0.3124844062133226 0  0.1885614759538482 0.3124759255563976 0  0.2514712828388995 0.3124666061324923 0  0.3144305527559623 0.3124561395581504 0  0.3774533414069466 0.3124441961940809 0  0.4405545457620327 0.3124304254480859 0  0.5037497002299508 0.3124144624491362 0  0.5670544372807189 0.3123959459231662 0  0.6304834059940274 0.3123745554874754 0  0.6940483124751016 0.3123500820484073 0  0.7577545346924015 0.312322553337906 0  0.8215954570375629 0.3122924487348464 0  0.8855433938693055 0.312261057152902 0  0.9495363978494626 0.3122310838824284 0  1.01346342935934 0.3122077974528144 0  0 0.375 0  0.06287970837135333 0.3749914020437721 0  0.1257730293126134 0.3749824897493196 0  0.1886939445628324 0.3749729390706246 0  0.2516571494012519 0.3749624070166043 0  0.314678369636134 0.374950522521988 0  0.3777746124101101 0.3749368781285749 0  0.4409642950130691 0.3749210235234117 0  0.504267157543238 0.3749024630282485 0  0.5677038039915285 0.3748806610992105 0  0.6312946217173084 0.3748550635550476 0  0.6950576912698166 0.3748251489816319 0  0.7590051202547241 0.374790536841275 0  0.8231370716376497 0.3747511995908853 0  0.8874328074401662 0.3747078586592553 0  0.9518388245932407 0.3746626808654488 0  1.016256416784961 0.3746203558188963 0  0 0.4375 0  0.06290781089111606 0.4374907769170168 0  0.1258307643498083 0.4374812049656454 0  0.1887844876532427 0.4374709225547278 0  0.2517855673884164 0.4374595425249516 0  0.3148520153135889 0.4374466385037353 0  0.3780037000503656 0.4374317303466411 0  0.4412626997228757 0.4374142686214714 0  0.5046534909173001 0.4373936185669021 0  0.5682028242382083 0.4373690450609539 0  0.6319390347562156 0.4373397026495267 0  0.6958903860882416 0.4373046403197455 0  0.7600818516361196 0.4372628430577132 0  0.8245295385906392 0.4372133584736522 0  0.889231893861602 0.4371556098289983 0  0.9541571613413037 0.43709009632314 0  1.019227556637383 0.4370198526387734 0  0 0.5 0  0.06292087235645148 0.4999904974815791 0  0.1258579519594304 0.4999806236601382 0  0.1888280514597563 0.4999699917869927 0  0.2518492060973588 0.4999581834197287 0  0.3149413133670619 0.4999447303806961 0  0.3781267948624176 0.4999290938212885 0  0.4414312633095221 0.4999106389395677 0  0.5048841456999547 0.4998886034138511 0  0.568519156374532 0.4998620569969053 0  0.6323744162348606 0.4998298492124345 0  0.6964918543098306 0.4997905426797213 0  0.760915281169161 0.4997423343192942 0  0.8256861757268579 0.4996829840857303 0  0.8908358055984145 0.4996098225060401 0  0.956371930479382 0.4995200432867655 0  1.022258272453646 0.4994118029971561 0  0 0.5625 0  0.06291783344333479 0.562490585989901 0  0.1258523507857334 0.5624807931284904 0  0.18882095167802 0.5624702251537671 0  0.2518425055743579 0.5624584495538107 0  0.3149381688851493 0.5624449761045233 0  0.3781322996814126 0.5624292307799185 0  0.4414534966841341 0.5624105222664465 0  0.5049357757541413 0.5623879967787893 0  0.5686198652452162 0.5623605741475659 0  0.6325545331354508 0.5623268533341266 0  0.6967977202368257 0.5622849672418971 0  0.7614169853895575 0.5622323534384767 0  0.8264882721250936 0.5621653899931027 0  0.8920911483265525 0.5620788363378765 0  0.958297369700907 0.5619650673280754 0  1.025148176069784 0.5618133247782851 0  0 0.625 0  0.06289822314815309 0.6249910498064527 0  0.1258129062293187 0.6249817301429349 0  0.1887613054866143 0.6249716533124436 0  0.2517623348982281 0.6249603933003233 0  0.3148375341128901 0.6249474626275023 0  0.378012216601136 0.6249322835976464 0  0.4413168789285159 0.6249141504427831 0  0.5047889683106441 0.6248921767148576 0  0.5684751202746524 0.6248652181287736 0  0.6324339790648017 0.6248317528346971 0  0.6967396696328491 0.6247896842199602 0  0.7614858279564255 0.6247359960417921 0  0.8267896468554338 0.6246661162450944 0  0.8927943006182136 0.6245727007112294 0  0.9596657806003638 0.6244433060438814 0  1.027576340672028 0.624256241606035 0  0 0.6875 0  0.06286227086214534 0.687491879383102 0  0.1257399944884374 0.6874834164969781 0  0.1886494506037396 0.6874742513930553 0  0.2516086595621895 0.6874639867436612 0  0.3146384393674356 0.6874521651593436 0  0.377763715472167 0.6874382409484223 0  0.4410152182404543 0.687421542999045 0  0.5044317559380722 0.687401223552035 0  0.5680633297865618 0.6873761839362034 0  0.6319754697810656 0.68734496067998 0  0.696255319608689 0.6873055381956233 0  0.7610201678634612 0.68725501224908 0  0.8264292029414323 0.6871889187095863 0  0.8926988273310491 0.6870997395831642 0  0.9601194458272383 0.6869732290334893 0  1.029063637820363 0.6867786383598391 0  0 0.75 0  0.06281098840030182 0.749993047385428 0  0.125635607201673 0.749985797026425 0  0.1884882780790696 0.7499779354022437 0  0.2513851027622335 0.7499691155477952 0  0.3143449151980054 0.7499589369085498 0  0.3773906290285081 0.7499469205844386 0  0.4405510540828554 0.7499324775871872 0  0.5038634420889264 0.7499148668664625 0  0.567377164842102 0.7498931385639824 0  0.6311591664366458 0.7498660559733947 0  0.6953022369065279 0.7498319861351979 0  0.7599378677212157 0.7497887398591186 0  0.8252567426641345 0.7497333084434724 0  0.8915422048410463 0.7496613038420348 0  0.9592249023110635 0.7495653159436996 0  1.028962054124418 0.7494287573098497 0  0 0.8125 0  0.06274620145622403 0.8124945092007604 0  0.1255034311747004 0.8124887806201256 0  0.1882833984848515 0.8124825637511479 0  0.2510992682776881 0.8124755810942753 0  0.3139665939067586 0.8124675121350398 0  0.3769045411147051 0.8124579740919331 0  0.4399375851792816 0.8124464982032892 0  0.503097966551015 0.8124325005478 0  0.5664293700220583 0.8124152476514522 0  0.6299926131583433 0.8123938216530477 0  0.6938747266941172 0.8123671044350067 0  0.7582040019769412 0.8123338461817537 0  0.8231762381851072 0.8122930264121782 0  0.8891042415266401 0.812245139401512 0  0.9565219112679993 0.8121961785388266 0  1.026414878174289 0.8121689465022383 0  0 0.875 0  0.06267051373683703 0.8749962048332106 0  0.1253487850405393 0.8749922442095898 0  0.1880430713369205 0.8749879438209075 0  0.2507627031521185 0.8749831105937762 0  0.3135187828348329 0.8749775217303158 0  0.3763251162327383 0.8749709118443848 0  0.439199528955744 0.8749629577350196 0  0.5021658109320013 0.8749532609014739 0  0.5652566975382262 0.8749413295692043 0  0.6285185959429253 0.8749265667825382 0  0.6920193329910181 0.8749082858110137 0  0.7558613423040985 0.8748858255401197 0  0.8202053259444211 0.8748590488475727 0  0.8853173670217568 0.8748304996839732 0  0.9516897217829902 0.8748158244489269 0  1.020561775260973 0.874902507452966 0  0 0.9375 0  0.06258719547709417 0.9374980619854492 0  0.1251783927251627 0.9374960392575196 0  0.1877778574147186 0.937493842599439 0  0.2503904231537742 0.9374913732558484 0  0.3130218644722556 0.9374885174336089 0  0.3756793985051034 0.9374851399545501 0  0.4383724008309532 0.937481076913915
[...]
<PointData  Vectors="f_95-0"> 
<DataArray  type="Float64"  Name="f_95-0"  NumberOfComponents="3" format="ascii">0.0000000000000000e+00 0.0000000000000000e+00 0.0000000000000000e+00  5.8226073360285210e-04 2.1829927842860534e-02 0.0000000000000000e+00  1.6156065349056869e-03 2.8352742803113989e-02 0.0000000000000000e+00  2.8242870662724367e-03 2.6404233364852026e-02 0.0000000000000000e+00  4.2128827476794195e-03 2.0549074251352970e-02 0.0000000000000000e+00  5.7379503836542875e-03 1.3713317013321031e-02 0.0000000000000000e+00  7.3508039973669134e-03 7.5121280188007100e-03 0.0000000000000000e+00  8.9931435532075478e-03 2.6353758968501182e-03 0.0000000000000000e+00  1.0600763150236231e-02 -7.9903832170177336e-04 0.0000000000000000e+00  1.2105936144348880e-02 -2.9678846749795788e-03 0.0000000000000000e+00  1.3438196562064634e-02 -4.1562498212801488e-03 0.0000000000000000e+00  1.4523266111909698e-02 -4.6511703269131559e-03 0.0000000000000000e+00  1.5282555829018555e-02 -4.6946963243323500e-03 0.0000000000000000e+00  1.5615381512923396e-02 -4.4588155794672273e-03 0.0000000000000000e+00  1.5392212351774763e-02 -4.0767974897395250e-03 0.0000000000000000e+00  1.4664989371920135e-02 -3.6646873302957962e-03 0.0000000000000000e+00  6.5306367104449618e-03 -6.2788257985059810e-03 0.0000000000000000e+00  0.0000000000000000e+00 0.0000000000000000e+00 0.0000000000000000e+00  4.4122968552708243e-04 2.0942236929022744e-02 0.0000000000000000e+00  1.3636918742163284e-03 2.7231544437502191e-02 0.0000000000000000e+00  2.4934807432213887e-03 2.5078932278312698e-02 0.0000000000000000e+00  3.8102581760727956e-03 1.9055129267854916e-02 0.0000000000000000e+00  5.2678411606719719e-03 1.2099242973586501e-02 0.0000000000000000e+00  6.8184889309937623e-03 5.8386711079273729e-03 0.0000000000000000e+00  8.4025109455711077e-03 9.6942687595322175e-04 0.0000000000000000e+00  9.9555561391087392e-03 -2.3883750586136971e-03 0.0000000000000000e+00  1.1410997390928657e-02 -4.4108485354032749e-03 0.0000000000000000e+00  1.2701049761534819e-02 -5.3821658384249817e-03 0.0000000000000000e+00  1.3757054522453660e-02 -5.5869880912645890e-03 0.0000000000000000e+00  1.4508537666551051e-02 -5.2595356275061261e-03 0.0000000000000000e+00  1.4879940139797381e-02 -4.5646535640126726e-03 0.0000000000000000e+00  1.4832905635258369e-02 -3.5925746766264435e-03 0.0000000000000000e+00  1.4124925913266138e-02 -2.2840821535215884e-03 0.0000000000000000e+00  1.3932273499466888e-02 -1.8103974716559463e-03 0.0000000000000000e+00  0.0000000000000000e+00 0.0000000000000000e+00 0.0000000000000000e+00  2.3484144687684573e-04 2.0342886261569423e-02 0.0000000000000000e+00  8.7325371122715437e-04 2.6313710382036455e-02 0.0000000000000000e+00  1.7842013859238257e-03 2.3924106778718771e-02 0.0000000000000000e+00  2.9212983447442732e-03 1.7705368130800883e-02 0.0000000000000000e+00  4.2292100594560509e-03 1.0609502615919383e-02 0.0000000000000000e+00  5.6514452757860491e-03 4.2759491805387144e-03 0.0000000000000000e+00  7.1223350067909415e-03 -5.9527987528734270e-04 0.0000000000000000e+00  8.5755883280305145e-03 -3.8847578937253754e-03 0.0000000000000000e+00  9.9463784173121749e-03 -5.7712621838987696e-03 0.0000000000000000e+00  1.1173162213618859e-02 -6.5420659418574476e-03 0.0000000000000000e+00  1.2199174546533992e-02 -6.4852562858543402e-03 0.0000000000000000e+00  1.2975869808875159e-02 -5.8409344629030543e-03 0.0000000000000000e+00  1.3474652274348537e-02 -4.7880781614962394e-03 0.0000000000000000e+00  1.3697261092216511e-02 -3.4511309616535929e-03 0.0000000000000000e+00  1.3766531858552512e-02 -1.9639385014294389e-03 0.0000000000000000e+00  1.3683613700368906e-02 -6.3144431977637031e-04 0.0000000000000000e+00  0.0000000000000000e+00 0.0000000000000000e+00 0.0000000000000000e+00  6.5161806810586908e-05 2.0044983117193813e-02 0.0000000000000000e+00  3.9184717317476838e-04 2.5684425842915547e-02 0.0000000000000000e+00  1.0274383797853437e-03 2.2999931721108847e-02 0.0000000000000000e+00  1.9460380211105393e-03 1.6538710671658841e-02 0.0000000000000000e+00  3.0872910160677663e-03 9.2691832502610309e-03 0.0000000000000000e+00  4.3795985649261581e-03 2.8388362648542570e-03 0.0000000000000000e+00  5.7471570550053476e-03 -2.0524205978525991e-03 0.0000000000000000e+00  7.1185170492433676e-03 -5.2903467885318661e-03 0.0000000000000000e+00  8.4289272015390989e-03 -7.0609867082518573e-03 0.0000000000000000e+00  9.6219819002413311e-03 -7.6597569064581995e-03 0.0000000000000000e+00  1.0651252048215199e-02 -7.3849416053276369e-03 0.0000000000000000e+00  1.1484595315112690e-02 -6.4926558515392262e-03 0.0000000000000000e+00  1.2110883375499487e-02 -5.1900234579925373e-03 0.0000000000000000e+00  1.2551802438939162e-02 -3.6525785069291918e-03 0.0000000000000000e+00  1.2836522968962845e-02 -2.0323707749161811e-03 0.0000000000000000e+00  1.2974064715751606e-02 -4.7186562649165724e-04 0.0000000000000000e+00  0.0000000000000000e+00 0.0000000000000000e+00 0.0000000000000000e+00  -6.8228250647982944e-05 2.0000641578109459e-02 0.0000000000000000e+00  -4.5231402618086947e-06 2.5345922929649153e-02 0.0000000000000000e+00  3.7539872121486136e-04 2.2320181510780582e-02 0.0000000000000000e+00  1.0894713933474699e-03 1.5560360381841380e-02 0.0000000000000000e+00  2.0797935056154010e-03 8.0715925708367883e-03 0.0000000000000000e+00  3.2623225419792529e-03 1.5112179602214252e-03 0.0000000000000000e+00  4.5505505362371098e-03 -3.4250175868211644e-03 0.0000000000000000e+00  5.8666385745820560e-03 -6.6332911122688751e-03 0.0000000000000000e+00  7.1445420060002630e-03 -8.3116252892350174e-03 0.0000000000000000e+00  8.3304482066676646e-03 -8.7676368149503872e-03 0.0000000000000000e+00  9.3828882217195184e-03 -8.3132068861965103e-03 0.0000000000000000e+00  1.0274162337755331e-02 -7.2218216447134664e-03 0.0000000000000000e+00  1.0992221258707139e-02 -5.7229446104691186e-03 0.0000000000000000e+00  1.1536719522920685e-02 -4.0089482530635458e-03 0.0000000000000000e+00  1.1905513929643934e-02 -2.2336292734891775e-03 0.0000000000000000e+00  1.2081682491434445e-02 -4.6621632444667074e-04 0.0000000000000000e+00  0.0000000000000000e+00 0.0000000000000000e+00 0.0000000000000000e+00  -1.6620834199482988e-04 2.0153499051220183e-02 0.0000000000000000e+00  -3.0073420800806459e-04 2.5248578074040903e-02 0.0000000000000000e+00  -1.2264657700362315e-04 2.1852765155807082e-02 0.0000000000000000e+00  4.2358681291272026e-04 1.4747782661304651e-02 0.0000000000000000e+00  1.2841524678951291e-03 6.9988057658426205e-03 0.0000000000000000e+00  2.3670058574548217e-03 2.7755549434403405e-04 0.0000000000000000e+00  3.5779641557532895e-03 -4.7275137883769297e-03 0.0000000000000000e+00  4.8354578908266395e-03 -7.9274558733335304e-03 0.0000000000000000e+00  6.0736857819469131e-03 -9.5357756937111144e-03 0.0000000000000000e+00  7.2410717593731685e-03 -9.8741085924058496e-03 0.0000000000000000e+00  8.2980118025143615e-03 -9.2674953492877590e-03 0.0000000000000000e+00  9.2154231847949210e-03 -8.0027918376350555e-03 0.0000000000000000e+00  9.9729649695920151e-03 -6.3214357735653318e-03 0.0000000000000000e+00  1.0555078730931004e-02 -4.4213713479830065e-03 0.0000000000000000e+00  1.0945488469621565e-02 -2.4479276761738846e-03 0.0000000000000000e+00  1.1124344684788963e-02 -4.7279452204862158e-04 0.0000000000000000e+00  0.0000000000000000e+00 0.0000000000000000e+00 0.0000000000000000e+00  -2.3200683744450262e-04 2.0444399395500263e-02 0.0000000000000000e+00  -4.9970829130647012e-04 2.5326212159962933e-02 0.0000000000000000e+00  -4.6420717308685427e-04 2.1549804408460119e-02 0.0000000000000000e+00  -5.2583045497476393e-05 1.4077258457661012e-02 0.0000000000000000e+00  6.7987684734887959e-04 6.0492117051782843e-03 0.0000000000000000e+00  1.6358721063315566e-03 -8.4646398993747346e-04 0.0000000000000000e+00  2.7197389760301588e-03 -5.9322178446239481e-03 0.0000000000000000e+00  3.8534987453967811e-03 -9.1378243082920804e-03 0.0000000000000000e+00  4.9780647917559793e-03 -1.0694195417676302e-02 0.0000000000000000e+00  6.0487785477621034e-03 -1.0936407171842891e-02 0.0000000000000000e+00  7.0305143381515240e-03 -1.0199702370600838e-02 0.0000000000000000e+00  7.8942157152763932e-03 -8.7791678713952156e-03 0.0000000000000000e+00  8.6147438830966178e-03 -6.9220772280413432e-03 0.0000000000000000e+00  9.1681072290837641e-03 -4.8279310356477223e-03 0.0000000000000000e+00  9.5302305403202302e-03 -2.6430637379952705e-03 0.0000000000000000e+00  9.6753054759959722e-03 -4.4387786352848241e-04 0.0000000000000000e+00  0.0000000000000000e+00 0.0000000000000000e+00 0.0000000000000000e+00  -2.6565231871653093e-04 2.0817733168005333e-02 0.0000000000000000e+00  -6.0146853671194374e-04 2.5513080728376897e-02 0.0000000000000000e+00  -6.5391737965053926e-04 2.1368825010425946e-02 0.0000000000000000e+00  -3.6241251581344935e-04 1.3545621937515890e-02 0.0000000000000000e+00  2.0424345221437248e-04 5.2610587161198517e-03 0.0000000000000000e+00  9.4519124304592828e-04 -1.7873070082804446e-03 0.0000000000000000e+00  1.7731325913546184e-03 -6.9401192952861686e-03 0.0000000000000000e+00  2.6267733956257967e-03 -1.0150261105163996e-02 0.0000000000000000e+00  3.4668083103193666e-03 -1.1666523848362491e-02 0.0000000000000000e+00  4.2667358494381151e-03 -1.1834682346971572e-02 0.0000000000000000e+00  5.0050895365338147e-03 -1.0995522703196009e-02 0.0000000000000000e+00  5.6610732391302702e-03 -9.4468141137550136e-03 0.0000000000000000e+00  6.2133634404993674e-03 -7.4366218644849923e-03 0.0000000000000000e+00  6.6368982940915111e-03 -5.1633289695127418e-03 0.0000000000000000e+00  6.9017928959321769e-03 -2.7702153371173140e-03 0.0000000000000000e+00  6.9574193210892362e-03 -3.3316605296230319e-04 0.0000000000000000e+00  0.0000000000000000e+00 0.0000000000000000e+00 0.0000000000000000e+00  -2.5975719189394735e-04 2.1212697002759302e-02 0.0000000000000000e+00  -5.8719240199239906e-04 2.5740581670115149e-02 0.0000000000000000e+00  -6.7251856437546117e-04 2.1278295562076312e-02 0.0000000000000000e+00  -5.0970822889782625e-04 1.3183108390447390e-02 0.0000000000000000e+00  -1.9868598460892178e-04 4.7311980306279497e-03 0.0000000000000000e+00  1.5904570702388306e-04 -2.3903546324409723e-03 0.0000000000000000e+00  5.0000579143170455e-04 -7.5546060513744413e-03 0.0000000000000000e+00  8.0022764647664189e-04 -1.0743649008494942e-02 0.0000000000000000e+00  1.0610057207581769e-03 -1.2223337636435455e-02 0.0000000000000000e+00  1.2924179263394597e-03 -1.2344898018553225e-02 0.0000000000000000e+00  1.5026389725589407e-03 -1.1447204192888477e-02 0.0000000000000000e+00  1.6927355388457492e-03 -9.8239877857811478e-03 0.0000000000000000e+00  1.8589800591890936e-03 -7.7207181156224878e-03 0.0000000000000000e+00  1.9897199309313537e-03 -5.3292142589402014e-03 0.0000000000000000e+00  2.0607380392271028e-03 -2.7716881747192885e-03 0.0000000000000000e+00  1.9719775024665633e-03 -9.4971534214478138e-05 0.0000000000000000e+00  0.0000000000000000e+00 0.0000000000000000e+00 0.0000000000000000e+00  -1.9448890339831656e-04 2.1547185017778445e-02 0.0000000000000000e+00  -4.0334655418672191e-04 2.5922124678258971e-02 0.0000000000000000e+00  -4.4950993163132640e-04 2.1251615407741530e-02 0.0000000000000000e+00  -4.4162538087849391e-04 1.3057422969730640e-02 0.0000000000000000e+00  -5.3214421588588644e-04 4.6268194928212342e-03 0.0000000000000000e+00  -8.1526803538959193e-04 -2.4034099421586814e-03 0.0000000000000000e+00  -1.3064448427300107e-03 -7.4623789038084070e-03 0.0000000000000000e+00  -1.9624781917442313e-03 -1.0569575984479634e-02 0.0000000000000000e+00  -2.7125697917628673e-03 -1.2005136470158408e-02 0.0000000000000000e+00  -3.4843744155462872e-03 -1.2116561982951805e-02 0.0000000000000000e+00  -4.2192314527738370e-03 -1.1230227001287002e-02 0.0000000000000000e+00  -4.8781461310347437e-03 -9.6298205050788128e-03 0.0000000000000000e+00  -5.4265621141954875e-03 -7.5554360509786705e-03 0.0000000000000000e+00  -5.8351095226373551e-03 -5.1851538368360576e-03 0.0000000000000000e+00  -6.0823390519488948e-03 -2.5944801695254416e-03 0.0000000000000000e+00  -6.3212548716957591e-03 2.6467180788228837e-04 0.0000000000000000e+00  0.0000000000000000e+00 0.0000000000000000e+00 0.0000000000000000e+00  -3.1948704099350601e-05 2.1692519262704862e-02 0.0000000000000000e+00  5.2480392909696985e-05 2.5927397080370264e-02 0.0000000000000000e+00  1.5790441532054830e-04 2.1251895079612466e-02 0.0000000000000000e+00  -2.0034490795597121e-05 1.3268523823256721e-02 0.0000000000000000e+00  -7.0568295975973090e-04 5.1852679122312778e-03 0.0000000000000000e+00  -1.9666170083532265e-03 -1.4761508730053306e-03 0.0000000000000000e+00  -3.7340319026373686e-03 -6.2341752359547122e-03 0.0000000000000000e+00  -5.8586244835842601e-03 -9.1543641837697459e-03 0.0000000000000000e+00  -8.1645828038414085e-03 -1.0524612963185550e-02 0.0000000000000000e+00  -1.0486998646760762e-02 -1.0674576006553596e-02 0.0000000000000000e+00  -1.2695295248180119e-02 -9.9026876148119568e-03 0.0000000000000000e+00  -1.4693500789189046e-02 -8.4681922424197070e-03 0.0000000000000000e+00  -1.6391933297284687e-02 -6.6033720814228977e-03 0.0000000000000000e+00  -1.7691626627305439e-02 -4.5061822665352705e-03 0.0000000000000000e+00  -1.8418177384963871e-02 -2.2088923673910139e-03 0.0000000000000000e+00  -1.8684592368750520e-02 5.7974591831941324e-04 0.0000000000000000e+00  0.0000000000000000e+00 0.0000000000000000e+00 0.0000000000000000e+00  2.8732667667682879e-04 2.1441517248953317e-02 0.0000000000000000e+00  9.3427329893572275e-04 2.5553957646148245e-02 0.0000000000000000e+00  1.3627435909265245e-03 2.1214572255524838e-02 0.0000000000000000e+00  9.7875231181235897e-04 1.3934161326418908e-02 0.0000000000000000e+00  -5.1634713891037128e-04 6.6929094613473825e-03 0.0000000000000000e+00  -3.1240825935081448e-03 8.0738937089360071e-04 0.0000000000000000e+00  -6.6427426865452921e-03 -3.3680359754224916e-03 0.0000000000000000e+00  -1.0773702944838778e-02 -5.9494459084907915e-03 0.0000000000000000e+00  -1.5200607519990890e-02 -7.2199559011002432e-03 0.0000000000000000e+00  -1.9638075459681201e-02 -7.4716559357165717e-03 0.0000000000000000e+00  -2.3861026646861436e-02 -6.9504650894250571e-03 0.0000000000000000e+00  -2.7699472094112509e-02 -5.8689774300482124e-03 0.0000000000000000e+00  -3.1035451470981548e-02 -4.4754151098687217e-03 0.0000000000000000e+00  -3.3671865609239682e-02 -3.0660871719953376e-03 0.0000000000000000e+00  -3.5109448688617678e-02 -1.6715908697679091e-03 0.0000000000000000e+00  -3.5089558809325752e-02 3.8305981018589672e-04 0.0000000000000000e+00  0.0000000000000000e+00 0.0000000000000000e+00 0.0000000000000000e+00  8.3695596598805789e-04 2.0480174730580836e-02 0.0000000000000000e+00  2.4116659604544281e-03 2.4515664902046683e-02 0.0000000000000000e+00  3.3800147809459774e-03 2.1041648824397484e-02 0.0000000000000000e+00  2.7883122763982010e-03 1.5165265278503154e-02 0.0000000000000000e+00  3.0559035004869446e-04 9.4268507432336904e-03 0.0000000000000000e+00  -3.9380401560016407e-03 4.8357045802263059e-03 0.0000000000000000e+00  -9.5557829907350362e-03 1.5904993422365668e-03 0.0000000000000000e+00  -1.6067170326529014e-02 -4.6754789089241866e-04 0.0000000000000000e+00  -2.2995662879388482e-02 -1.5968572993938532e-03 0.0000000000000000e+00  -2.9920362951733736e-02 -2.0295516573569728e-03 0.0000000000000000e+00  -3.6498942342614166e-02 -1.9305359764112706e-03 0.0000000000000000e+00  -4.2485532411077449e-02 -1.4288302842717288e-03 0.0000000000000000e+00  -4.7771392497387696e-02 -7.3494209648182311e-04 0.0000000000000000e+00  -5.2086631276142124e-02 -2.6552071782952964e-04 0.0000000000000000e+00  -5.4751379139851335e-02 -5.8691366166218901e-04 0.0000000000000000e+00  -5.4137871826417279e-02 -1.1516263199819316e-03 0.0000000000000000e+00  0.0000000000000000e+00 0.0000000000000000e+00 0.0000000000000000e+00  1.6639734579320144e-03 1.8408311282992335e-02 0.0000000000000000e+00  4.5289730186142442e-03 2.2501165746779277e-02 0.0000000000000000e+00  6.2024351162169641e-03 2.0636940190748812e-02 0.0000000000000000e+00  5.4122638815164471e-03 1.7029036362699326e-02 0.0000000000000000e+00  1.9124327104416870e-03 1.3533889096181143e-02 0.0000000000000000e+00  -3.9566230018158680e-03 1.0777548512890757e-02 0.0000000000000000e+00  -1.1597318199622722e-02 8.8071920279492871e-03 0.0000000000000000e+00  -2.0356726253349652e-02 7.4499317994188444e-03 0.0000000000000000e+00  -2.9621725021315073e-02 6.4979931006428878e-03 0.0000000000000000e+00  -3.8853775953396529e-02 5.7956093508896951e-03 0.0000000000000000e+00  -4.7589964499655607e-02 5.2725527723981574e-03 0.0000000000000000e+00  -5.5490735176879281e-02 4.9248908558822803e-03 0.0000000000000000e+00  -6.2378171882051817e-02 4.7007961498645688e-03 0.0000000000000000e+00  -6.8240598688860996e-02 3.9925786847257979e-03 0.0000000000000000e+00  -7.2948738364804755e-02 7.3392812659851781e-04 0.0000000000000000e+00  -7.1908237416368828e-02 -4.9069870499129902e-03 0.0000000000000000e+00  0.0000000000000000e+00 0.0000000000000000e+00 0.0000000000000000e+00  2.6380426018386381e-03 1.4887836424053211e-02 0.0000000000000000e+00  6.8065019814803184e-03 1.9376698973176253e-02 0.0000000000000000e+00  9.0531401263626264e-03 1.9994756945289845e-02 0.0000000000000000e+00  8.0838285657750079e-03 1.9461628185486121e-02 0.0000000000000000e+00  3.9170819046619723e-03 1.8787032971409906e-02 0.0000000000000000e+00  -2.8724219817497609e-03 1.8227694611639582e-02 0.0000000000000000e+00  -1.1541815049928388e-02 1.7737647977727266e-02 0.0000000000000000e+00  -2.1365002886624133e-02 1.7179441913430165e-02 0.0000000000000000e+00  -3.1693948078566424e-02 1.6421356850081940e-02 0.0000000000000000e+00  -4.1958188684343291e-02 1.5382280342397778e-02 0.0000000000000000e+00  -5.1634978505569307e-02 1.4056536197129934e-02 0.0000000000000000e+00  -6.0258070217746054e-02 1.2541411392765128e-02 0.0000000000000000e+00  -6.7372824490862876e-02 1.1070156857359088e-02 0.0000000000000000e+00  -7.3181703736104262e-02 9.6692226685029439e-03 0.0000000000000000e+00  -7.8729040590788210e-02 5.9645367036388081e-03 0.0000000000000000e+00  -7.9430642215004066e-02 -1.0639174959558739e-02 0.0000000000000000e+00  0.0000000000000000e+00 0.0000000000000000e+00 0.0000000000000000e+00  2.9929417108377258e-03 1.0261524357442193e-02 0.0000000000000000e+00  7.2499296601904236e-03 1.5760899495486046e-02 0.0000000000000000e+00  9.2335090182041387e-03 1.9378055752347714e-02 0.0000000000000000e+00  8.2539620761992397e-03 2.2084344652085065e-02 0.0000000000000000e+00  4.6379231263337425e-03 2.4160640236652830e-02 0.0000000000000000e+00  -1.0029336534958034e-03 2.5643236892510884e-02 0.0000000000000000e+00  -8.0350831786425592e-03 2.6490371648062408e-02 0.0000000000000000e+00  -1.5898405906760667e-02 2.6644765913851898e-02 0.0000000000000000e+00  -2.4116435584102647e-02 2.6059349997090246e-02 0.0000000000000000e+00  -3.2271233541373692e-02 2.4708433352444138e-02 0.0000000000000000e+00  -3.9962678203322909e-02 2.2595959724974218e-02 0.0000000000000000e+00  -4.6741386525686893e-02 1.9785758710679582e-02 0.0000000000000000e+00  -5.1947454638999559e-02 1.6442711784071751e-02 0.0000000000000000e+00  -5.4952188199797185e-02 1.2855001895920998e-02 0.0000000000000000e+00  -5.4609536804505414e-02 9.7709297269918342e-03 0.0000000000000000e+00  -5.5928394582979345e-02 -1.1318340676837650e-02 0.0000000000000000e+00  0.0000000000000000e+00 0.0000000000000000e+00 0.0000000000000000e+00  0.0000000000000000e+00 7.3437441541584709e-03 0.0000000000000000e+00  0.0000000000000000e+00 1.3708322421095811e-02 0.0000000000000000e+00  0.0000000000000000e+00 1.9093734800812022e-02 0.0000000000000000e+00  0.0000000000000000e+00 2.3499981293307104e-02 0.0000000000000000e+00  0.0000000000000000e+00 2.6927061898581059e-02 0.0000000000000000e+00  0.0000000000000000e+00 2.9374976616633883e-02 0.0000000000000000e+00  0.0000000000000000e+00 3.0843725447465577e-02 0.0000000000000000e+00  0.0000000000000000e+00 3.1333308391076141e-02 0.0000