<?xml version="1.0"?>
<VTKFile type="UnstructuredGrid"  version="0.1"  >
<UnstructuredGrid>
<Piece  NumberOfPoints="289" NumberOfCells="512">
<Points>
<DataArray  type="Float64"  NumberOfComponents="3"  format="ascii">0 0 0  0.0625 0 0  0.125 0 0  0.1875 0 0  0.25 0 0  0.3125 0 0  0.375 0 0  0.4375 0 0  0.5 0 0  0.5625 0 0  0.625 0 0  0.6875 0 0  0.75 0 0  0.8125 0 0  0.875 0 0  0.9375 0 0  1 0 0  0 0.0625 0  0.06260723128451469 0.06247188726007333 0  0.1252179811345374 0.06244319675369024 0  0.1878358913263445 0.06241337627844155 0  0.2504647399340922 0.06238195551447585 0  0.3131085113137385 0.0623486012021937 0  0.3757714711247332 0.06231318869702226 0  0.438458264402811 0.06227589165124894 0  0.5011740840083386 0.06223728520468693 0  0.5639250277059346 0.06219844490704449 0  0.6267189397439352 0.06216099751837272 0  0.6895675005614497 0.06212702782622203 0  0.7524916331466323 0.06209863365933444 0  0.8155361393511499 0.06207663974409422 0  0.8788113213601618 0.06205712907752114 0  0.9426170675776032 0.06202155898578062 0  1.007829211667105 0.06190796909016279 0  0 0.125 0  0.06271101521943424 0.1249443228882922 0  0.1254290430416565 0.1248874472041929 0  0.1881613485532442 0.1248282203933984 0  0.2509154936256387 0.1247656416926902 0  0.313699490179779 0.1246989681324649 0  0.3765219619695801 0.1246278566978273 0  0.4393923417065232 0.1245525500455903 0  0.5023211702088792 0.1244741038139299 0  0.5653206519276246 0.1243946333968125 0  0.6284058103314726 0.1243175190816442 0  0.6915969815242358 0.1242474412232906 0  0.7549251425574174 0.1241900234589572 0  0.818442685056099 0.1241508215201306 0  0.8822421120967038 0.1241338739303387 0  0.9464738112969672 0.1241431999579427 0  1.011288010429735 0.1242049512895099 0  0 0.1875 0  0.06280783606131064 0.1874179405143967 0  0.1256260761021396 0.1873339863236726 0  0.1884655065206131 0.1872462987613221 0  0.2513373945350296 0.1871532357408857 0  0.3142537342339894 0.1870534977811799 0  0.377227496690886 0.1869463344582507 0  0.4402729031238234 0.1868318305278087 0  0.5034057654962507 0.1867112841825091 0  0.566643985196148 0.1865876712721834 0  0.6300083706259896 0.1864661475745388 0  0.6935239940177751 0.1863544571554227 0  0.7572221630158481 0.1862629526964771 0  0.8211420090532092 0.1862036006349113 0  0.885326549947008 0.1861864749260542 0  0.9497964085682554 0.186209113395959 0  1.014464604363486 0.1862207390143435 0  0 0.25 0  0.06289430164682334 0.2498934470772052 0  0.1258022056743388 0.2497842085165179 0  0.1887378227364831 0.2496696485533599 0  0.2517159531069231 0.2495473329860426 0  0.314752437425462 0.2494151951175114 0  0.3778645038056745 0.2492717887265591 0  0.4410711138169544 0.2491166654099539 0  0.5043933108191411 0.248950916474259 0  0.5678545648335215 0.248777914422239 0  0.6314810564564138 0.2486042640027269 0  0.6953016539354324 0.2484409043001631 0  0.7593467700713374 0.2483041460301769 0  0.823643818698071 0.2482160957539518 0  0.8882038748425544 0.2482032730655806 0  0.9529897466775014 0.2482913028745533 0  1.017857050663197 0.2484945908886959 0  0 0.3125 0  0.06296722547043172 0.3123716405466198 0  0.1259509555556834 0.3122397100377176 0  0.1889683207486505 0.3121006594803341 0  0.2520373761346572 0.3119510919833103 0  0.3151775746585704 0.3117879169002878 0  0.3784102368841291 0.3116086139401769 0  0.4417590090278896 0.3114116658880922 0  0.5052502853963692 0.3111972377081138 0  0.5689135299825013 0.3109682009688291 0  0.6327813257374383 0.3107316172940537 0  0.6968887245094145 0.3105007812002259 0  0.7612709142321945 0.3102978330791739 0  0.8259571908116654 0.3101566970798036 0  0.8909578953323055 0.3101255581626761 0  0.95624115324407 0.310267277186416 0  1.021703892152319 0.3106555802133388 0  0 0.375 0  0.06302372076347974 0.3748534078918624 0  0.1260664356700323 0.3747022914747458 0  0.1891478694798776 0.3745420953279955 0  0.2522889295977735 0.3743683011985981 0  0.3155123227889607 0.3741765271345963 0  0.3788431859099425 0.3739627466613931 0  0.4423097283352498 0.3737237048039133 0  0.5059438696302045 0.3734576468698709 0  0.5697818215323519 0.3731655329859281 0  0.6338644813018786 0.372852987353026 0  0.6982373232593473 0.372533314310795 0  0.7629491288844726 0.3722319564488177 0  0.8280483769940249 0.3719926509946843 0  0.8935757717148061 0.3718850345053201 0  0.959552594068753 0.3720123400295369 0  1.025970365221024 0.3725163792434213 0  0 0.4375 0  0.06306131026173546 0.4373396971194276 0  0.1261435630782289 0.4371739062808303 0  0.1892685176270391 0.436997029824897 0  0.2524593848572456 0.4368033244297788 0  0.3157416034401841 0.4365868947747281 0  0.3791436668752823 0.4363417942768414 0  0.4426980243009376 0.4360623159735674 0  0.5064420846539419 0.4357436134524028 0  0.5704193657112192 0.4353828859826979 0  0.6346808440248797 0.4349815120025753 0  0.6992865688295919 0.43454873589421 0  0.7643075845286781 0.434107784717058 0  0.8298281675747468 0.4337054732573208 0  0.8959484965977026 0.4334260338547781 0  0.9627889042505683 0.4334083922361712 0  1.030501131652342 0.4338634255563234 0  0 0.5 0  0.06307805239870821 0.4998314593902494 0  0.126178319567662 0.4996565451813905 0  0.1893238933199406 0.4994686755122975 0  0.2525395750904244 0.4992608833809606 0  0.3158528119362061 0.4990256563348849 0  0.379294733767468 0.4987548397362067 0  0.4429013510379088 0.4984396722137217 0  0.5067150137734473 0.4980710856541373 0  0.5707863212021992 0.4976405200244889 0  0.635176846493235 0.49714171828988 0  0.6999633598892941 0.4965743459225356 0  0.7652447486873272 0.4959508969807015 0  0.8311535342579098 0.4953091606124039 0  0.897874650090716 0.4947329240403711 0  0.9656750757333784 0.4943815000938662 0  1.034951794245117 0.494520326271046 0  0 0.5625 0  0.06307267922508794 0.5623295614866796 0  0.126168037298062 0.5621520548998516 0  0.1893096584553479 0.5619600972622282 0  0.2525230527525281 0.5617456523444665 0  0.3158367310575321 0.5614996831762641 0  0.3792834315205472 0.5612117937386534 0  0.4429015907818718 0.5608698881918986 0  0.5067372281460595 0.560459927100819 0  0.5708465821189529 0.5599659688535444 0  0.6353002130664525 0.5593709154838832 0  0.7001900534293011 0.5586588715842271 0  0.7656423148634757 0.5578210394951439 0  0.8318414327954666 0.5568690090456676 0  0.8990729757437074 0.5558620902579484 0  0.9677955094345764 0.5549555623406522 0  1.03875407292618 0.554462942539298 0  0 0.625 0  0.06304473468689928 0.6248346750699445 0  0.1261116893754113 0.6246619029824747 0  0.1892239811668623 0.6244738245921025 0  0.2524067939502675 0.6242616745081364 0  0.3156885484539189 0.6240152429992603 0  0.3791022616851142 0.623722232032622 0  0.4426872047270023 0.6233674710181897 0  0.5064910538412635 0.6229319730546238 0  0.570572944989914 0.6223918645673276 0  0.6350083728487533 0.621717372895944 0  0.699898134758716 0.6208724781628731 0  0.7653863053133088 0.6198169992414498 0  0.831697675646963 0.6185160372097924 0  0.8992134129933959 0.6169694144155368 0  0.9686106401089808 0.615285107258294 0  1.041092139074421 0.6138004065896114 0  0 0.6875 0  0.06299469581629084 0.687347156247499 0  0.1260101490552084 0.6871869165314503 0  0.1890679672363976 0.6870114060088396 0  0.2521918584287177 0.6868116586653878 0  0.3154088340030976 0.686576925662064 0  0.3787506211721696 0.6862937831390383 0  0.4422553849363804 0.685944933998587 0  0.5059699164499507 0.685507561872947 0  0.5699526097253995 0.68495105141748 0  0.6342780407568971 0.6842338575442374 0  0.6990454093704017 0.6832993805401284 0  0.7643971631657152 0.6820712847925403 0  0.8305646442073454 0.680451495134667 0  0.8979806566807912 0.6783363665147342 0  0.9675262958653651 0.6757154732296277 0  1.040987109868836 0.6729811610288472 0  0 0.75 0  0.0629240556826644 0.7498669351761236 0  0.1258663734256205 0.7497270374212203 0  0.1888459789374609 0.7495729773367454 0  0.251883897311458 0.7493962680311159 0  0.3150043132387321 0.749186498987264 0  0.3782359482656189 0.7489303018991705 0  0.4416137315727047 0.7486098859852438 0  0.5051808369021646 0.7482008964489407 0  0.5689911631535218 0.7476692109689005 0  0.6331124596381414 0.74696605398815 0  0.6976310509618473 0.7460203959740808 0  0.762662525454408 0.744726886252735 0  0.8283861141437469 0.7429266421075855 0  0.8951679599827778 0.7403800977999093 0  0.9639806473085397 0.7367651086560246 0  1.03716052139919 0.7321622476484405 0  0 0.8125 0  0.06283534684645957 0.8123934385981116 0  0.1256854671323534 0.8122811449757654 0  0.1885657706565508 0.8121569345376689 0  0.2514934081112601 0.8120135516816512 0  0.3144883016707 0.8118419395521138 0  0.3775743923231724 0.8116302248810298 0  0.4407811678718384 0.8113622333210077 0  0.5041454814933811 0.811015243994496 0  0.5677134986824056 0.8105565101840065 0  0.6315421719003933 0.809937753800453 0  0.6956987444855846 0.8090862330168701 0  0.7602557649421328 0.8078896493022856 0  0.8252824742849637 0.8061687922143365 0  0.8908696069712354 0.8036231063279144 0  0.9574594270873249 0.7997185007679215 0  1.028547238207222 0.7935247778070867 0  0 0.875 0  0.06273208795959719 0.8749255665058805 0  0.1254745890730109 0.874846994537814 0  0.1882383821423207 0.8747598003619392 0  0.2510356575441721 0.8746586745682978 0  0.3138807156940119 0.8745369076264625 0  0.3767909650422762 0.8743855754874468 0  0.4397881913726778 0.8741923232673726 0  0.502900124321171 0.8739394864534846 0  0.566162123037662 0.8736011241309377 0  0.6296181065613926 0.8731382691567963 0  0.6933177109975344 0.8724912535956346 0  0.7573005089986612 0.8715670569394924 0  0.8215421327146222 0.8702165063218659 0  0.885803937096456 0.8681809354951037 0  0.9493073132229852 0.8649152027907639 0  1.010450688403447 0.858875765482585 0  0 0.9375 0  0.06261864380689698 0.9374617368264224 0  0.1252426788702593 0.9374213047980364 0  0.1878777474007929 0.9373763483291887 0  0.2505302091305149 0.9373240626340711 0  0.3132075924399919 0.9372608772781774 0  0.3759191812034842 0.9371820017936757 0  0.438676804939728 0.9370807368351683 0  0.50149
[...]
<PointData  Vectors="f_95-0"> 
<DataArray  type="Float64"  Name="f_95-0"  NumberOfComponents="3" format="ascii">0.0000000000000000e+00 0.0000000000000000e+00 0.0000000000000000e+00  9.5877151136064239e-04 -5.4214774936167292e-03 0.0000000000000000e+00  2.6749964627621908e-03 -1.9037075091173101e-02 0.0000000000000000e+00  4.7307393504129455e-03 -3.4045122439787218e-02 0.0000000000000000e+00  7.1206403574566399e-03 -4.7072699755364322e-02 0.0000000000000000e+00  9.7704058325277562e-03 -5.6574727021112915e-02 0.0000000000000000e+00  1.2604606841555876e-02 -6.2160561868985248e-02 0.0000000000000000e+00  1.5537695639390524e-02 -6.4091679198505072e-02 0.0000000000000000e+00  1.8476003806658439e-02 -6.2937581428981995e-02 0.0000000000000000e+00  2.1318459385169932e-02 -5.9356343763711933e-02 0.0000000000000000e+00  2.3956048876852890e-02 -5.3971671814863252e-02 0.0000000000000000e+00  2.6268789018830868e-02 -4.7317005290758392e-02 0.0000000000000000e+00  2.8124177947109568e-02 -3.9825791658805280e-02 0.0000000000000000e+00  2.9338848249027345e-02 -3.1819804847610871e-02 0.0000000000000000e+00  2.9665598553901731e-02 -2.3597175615796957e-02 0.0000000000000000e+00  2.9251371311514427e-02 -1.5525984347527970e-02 0.0000000000000000e+00  1.3740485830403546e-02 -1.3872183749333690e-02 0.0000000000000000e+00  0.0000000000000000e+00 0.0000000000000000e+00 0.0000000000000000e+00  7.8504265149309071e-04 -6.9332588171185294e-03 0.0000000000000000e+00  2.4656362304510105e-03 -2.1009793711434091e-02 0.0000000000000000e+00  4.5781850090232971e-03 -3.6397908856792942e-02 0.0000000000000000e+00  7.0581605757937989e-03 -4.9724568859607313e-02 0.0000000000000000e+00  9.8182767960704794e-03 -5.9438285050167045e-02 0.0000000000000000e+00  1.2780087430843703e-02 -6.5139215293290684e-02 0.0000000000000000e+00  1.5852736075166921e-02 -6.7082973339050778e-02 0.0000000000000000e+00  1.8938401072355969e-02 -6.5834425080443376e-02 0.0000000000000000e+00  2.1932318750375480e-02 -6.2046611910367595e-02 0.0000000000000000e+00  2.4722797536644216e-02 -5.6336444673737530e-02 0.0000000000000000e+00  2.7191102531902454e-02 -4.9227103325597946e-02 0.0000000000000000e+00  2.9208910279526684e-02 -4.1128598228225531e-02 0.0000000000000000e+00  3.0627374997202386e-02 -3.2334584412002966e-02 0.0000000000000000e+00  3.1353651268251334e-02 -2.3022014411257789e-02 0.0000000000000000e+00  3.0776719589583834e-02 -1.3074255349125926e-02 0.0000000000000000e+00  3.1119977416424239e-02 -5.1251368492263435e-03 0.0000000000000000e+00  0.0000000000000000e+00 0.0000000000000000e+00 0.0000000000000000e+00  6.0633906690027743e-04 -8.2078602074850630e-03 0.0000000000000000e+00  2.1893464763335286e-03 -2.2984814699480896e-02 0.0000000000000000e+00  4.4117416740600789e-03 -3.8855929602419619e-02 0.0000000000000000e+00  7.1198282468675211e-03 -5.2548817938110164e-02 0.0000000000000000e+00  1.0189621825677914e-02 -6.2520561947815273e-02 0.0000000000000000e+00  1.3518203630211660e-02 -6.8368047901410101e-02 0.0000000000000000e+00  1.6997399814687099e-02 -7.0344437429690376e-02 0.0000000000000000e+00  2.0516331184332298e-02 -6.9011877370249927e-02 0.0000000000000000e+00  2.3959233825538103e-02 -6.5020246740076393e-02 0.0000000000000000e+00  2.7206768197224201e-02 -5.8983352853208118e-02 0.0000000000000000e+00  3.0139437726605642e-02 -5.1422376588101691e-02 0.0000000000000000e+00  3.2645551870288510e-02 -4.2749318721822437e-02 0.0000000000000000e+00  3.4642480272172226e-02 -3.3269987485580771e-02 0.0000000000000000e+00  3.6089919184478188e-02 -2.3193588060578384e-02 0.0000000000000000e+00  3.7151098576959835e-02 -1.2732464426164623e-02 0.0000000000000000e+00  3.7768734620470305e-02 -2.6096571911479278e-03 0.0000000000000000e+00  0.0000000000000000e+00 0.0000000000000000e+00 0.0000000000000000e+00  5.3886262605318063e-04 -9.3246830345553935e-03 0.0000000000000000e+00  2.1017224332851758e-03 -2.4992832272197871e-02 0.0000000000000000e+00  4.5055476917086482e-03 -4.1528189895708473e-02 0.0000000000000000e+00  7.5655759803790797e-03 -5.5715028983808909e-02 0.0000000000000000e+00  1.1121263216886154e-02 -6.6034335703514482e-02 0.0000000000000000e+00  1.5032628915806014e-02 -7.2092741670262153e-02 0.0000000000000000e+00  1.9165007667721435e-02 -7.4146559784773927e-02 0.0000000000000000e+00  2.3385338215041497e-02 -7.2757867557560391e-02 0.0000000000000000e+00  2.7557996732037311e-02 -6.8575461945475910e-02 0.0000000000000000e+00  3.1546168028174816e-02 -6.2214203251229575e-02 0.0000000000000000e+00  3.5218039822862673e-02 -5.4203704608882380e-02 0.0000000000000000e+00  3.8461460187121120e-02 -4.4980194351905811e-02 0.0000000000000000e+00  4.1204651697766936e-02 -3.4901879073217255e-02 0.0000000000000000e+00  4.3453919200464187e-02 -2.4282149456178900e-02 0.0000000000000000e+00  4.5252259995551256e-02 -1.3389452615713759e-02 0.0000000000000000e+00  4.6640382611522951e-02 -2.5539893421935370e-03 0.0000000000000000e+00  0.0000000000000000e+00 0.0000000000000000e+00 0.0000000000000000e+00  5.4516233278297660e-04 -1.0421604292856781e-02 0.0000000000000000e+00  2.2127389868470647e-03 -2.7128719806358993e-02 0.0000000000000000e+00  4.9019771117815121e-03 -4.4516849969450580e-02 0.0000000000000000e+00  8.4310624604763424e-03 -5.9359554640553473e-02 0.0000000000000000e+00  1.2614358011649346e-02 -7.0153528289612813e-02 0.0000000000000000e+00  1.7278885700217170e-02 -7.6519537057941608e-02 0.0000000000000000e+00  2.2261209102207257e-02 -7.8721199591427607e-02 0.0000000000000000e+00  2.7400727393166940e-02 -7.7322267464011940e-02 0.0000000000000000e+00  3.2534179389305987e-02 -7.2970654662047676e-02 0.0000000000000000e+00  3.7495641545318828e-02 -6.6283166567517940e-02 0.0000000000000000e+00  4.2123058708836120e-02 -5.7801815378982782e-02 0.0000000000000000e+00  4.6273760490837659e-02 -4.7995095996405321e-02 0.0000000000000000e+00  4.9846504559373374e-02 -3.7281905703630283e-02 0.0000000000000000e+00  5.2804974051053638e-02 -2.6051792642530019e-02 0.0000000000000000e+00  5.5172775391629778e-02 -1.4646868548404874e-02 0.0000000000000000e+00  5.7088392590307589e-02 -3.2555891271035049e-03 0.0000000000000000e+00  0.0000000000000000e+00 0.0000000000000000e+00 0.0000000000000000e+00  6.0093720804762628e-04 -1.1594994194242581e-02 0.0000000000000000e+00  2.4677437317881905e-03 -2.9494877320667953e-02 0.0000000000000000e+00  5.5323826225116366e-03 -4.7917661508598310e-02 0.0000000000000000e+00  9.6167831563510470e-03 -6.3587468058815474e-02 0.0000000000000000e+00  1.4519476884109036e-02 -7.5002617313032677e-02 0.0000000000000000e+00  2.0044195385856636e-02 -8.1795831694018023e-02 0.0000000000000000e+00  2.6002465656553533e-02 -8.4238049973947932e-02 0.0000000000000000e+00  3.2206119767776695e-02 -8.2892822367702179e-02 0.0000000000000000e+00  3.8460067291506014e-02 -7.8403358833790793e-02 0.0000000000000000e+00  4.4559959367294122e-02 -7.1383645353735828e-02 0.0000000000000000e+00  5.0297227622598521e-02 -6.2383400237770247e-02 0.0000000000000000e+00  5.5474456953677309e-02 -5.1899296089113221e-02 0.0000000000000000e+00  5.9928890692477789e-02 -4.0406248738691225e-02 0.0000000000000000e+00  6.3573720976376188e-02 -2.8378793884888794e-02 0.0000000000000000e+00  6.6430620172497193e-02 -1.6260062701302654e-02 0.0000000000000000e+00  6.8743683397503974e-02 -4.3374078016349951e-03 0.0000000000000000e+00  0.0000000000000000e+00 0.0000000000000000e+00 0.0000000000000000e+00  6.8334655172650881e-04 -1.2909681916043471e-02 0.0000000000000000e+00  2.8000432119592556e-03 -3.2163195232361157e-02 0.0000000000000000e+00  6.2837888230454306e-03 -5.1790476374765672e-02 0.0000000000000000e+00  1.0952881276044865e-02 -6.8451962043436468e-02 0.0000000000000000e+00  1.6596346720330970e-02 -8.0638772798607594e-02 0.0000000000000000e+00  2.3004670413093991e-02 -8.7991349510334591e-02 0.0000000000000000e+00  2.9972428818291003e-02 -9.0784011108120788e-02 0.0000000000000000e+00  3.7289054063764621e-02 -8.9574216656296085e-02 0.0000000000000000e+00  4.4728911763016570e-02 -8.4992212106101167e-02 0.0000000000000000e+00  5.2045932896961328e-02 -7.7638614794114019e-02 0.0000000000000000e+00  5.8975847202850727e-02 -6.8058422081809608e-02 0.0000000000000000e+00  6.5249639344774429e-02 -5.6764067555955144e-02 0.0000000000000000e+00  7.0620926507890230e-02 -4.4281526838624310e-02 0.0000000000000000e+00  7.4926456937608840e-02 -3.1188543362906242e-02 0.0000000000000000e+00  7.8151874654927650e-02 -1.8107067740083291e-02 0.0000000000000000e+00  8.0649208389127952e-02 -5.5186406586838705e-03 0.0000000000000000e+00  0.0000000000000000e+00 0.0000000000000000e+00 0.0000000000000000e+00  7.7354103147422447e-04 -1.4391898878625823e-02 0.0000000000000000e+00  3.1457621790116595e-03 -3.5154212719533756e-02 0.0000000000000000e+00  7.0320246739834398e-03 -5.6135229311856355e-02 0.0000000000000000e+00  1.2240450959081084e-02 -7.3933392121945357e-02 0.0000000000000000e+00  1.8555448712399444e-02 -8.7032054505979228e-02 0.0000000000000000e+00  2.5764624798248602e-02 -9.5076675162656790e-02 0.0000000000000000e+00  3.3657083647459875e-02 -9.8339349890379193e-02 0.0000000000000000e+00  4.2010115137546787e-02 -9.7362820391914490e-02 0.0000000000000000e+00  5.0575638587107223e-02 -9.2752715538820515e-02 0.0000000000000000e+00  5.9071175494198727e-02 -8.5081200290897052e-02 0.0000000000000000e+00  6.7177496037613083e-02 -7.4869723590764894e-02 0.0000000000000000e+00  7.4546351803077768e-02 -6.2625640468755503e-02 0.0000000000000000e+00  8.0826447528014711e-02 -4.8910001364561174e-02 0.0000000000000000e+00  8.5730172275567118e-02 -3.4410510231296119e-02 0.0000000000000000e+00  8.9128753257866872e-02 -1.9980987139686823e-02 0.0000000000000000e+00  9.1357490810057868e-02 -6.4063412850390586e-03 0.0000000000000000e+00  0.0000000000000000e+00 0.0000000000000000e+00 0.0000000000000000e+00  8.5766902403220323e-04 -1.6036991618342902e-02 0.0000000000000000e+00  3.4519989494810259e-03 -3.8436979096203500e-02 0.0000000000000000e+00  7.6630094757605691e-03 -6.0882465869075253e-02 0.0000000000000000e+00  1.3281811649314386e-02 -7.9924088054891484e-02 0.0000000000000000e+00  2.0092445546602958e-02 -9.4045740487630383e-02 0.0000000000000000e+00  2.7891255039003551e-02 -1.0289906665228912e-01 0.0000000000000000e+00  3.6476727013111492e-02 -1.0674892081109305e-01 0.0000000000000000e+00  4.5629564201904595e-02 -1.0611382031970197e-01 0.0000000000000000e+00  5.5094803105462553e-02 -1.0156180012665575e-01 0.0000000000000000e+00  6.4568844079696319e-02 -9.3619605628896513e-02 0.0000000000000000e+00  7.3691097613022269e-02 -8.2761865174625554e-02 0.0000000000000000e+00  8.2040842457534943e-02 -6.9458475618641782e-02 0.0000000000000000e+00  8.9149770513896151e-02 -5.4266918417911411e-02 0.0000000000000000e+00  9.4549919090931231e-02 -3.7954890491260745e-02 0.0000000000000000e+00  9.7881697943329404e-02 -2.1615612691489240e-02 0.0000000000000000e+00  9.9208568513457038e-02 -6.4096764053495478e-03 0.0000000000000000e+00  0.0000000000000000e+00 0.0000000000000000e+00 0.0000000000000000e+00  9.2975937255824429e-04 -1.7819467769571055e-02 0.0000000000000000e+00  3.6880538578375785e-03 -4.1936961826527064e-02 0.0000000000000000e+00  8.0948447107890079e-03 -6.5893761888131730e-02 0.0000000000000000e+00  1.3912288524761198e-02 -8.6220308787252092e-02 0.0000000000000000e+00  2.0927436833565152e-02 -1.0142042045772028e-01 0.0000000000000000e+00  2.8959207942491141e-02 -1.1115933567588135e-01 0.0000000000000000e+00  3.7834368939079155e-02 -1.1569206718463214e-01 0.0000000000000000e+00  4.7357916120777548e-02 -1.1550421773358452e-01 0.0000000000000000e+00  5.7290347656118699e-02 -1.1111435460780096e-01 0.0000000000000000e+00  6.7331901674896596e-02 -1.0298839124597371e-01 0.0000000000000000e+00  7.7109512391547966e-02 -9.1530144299427907e-02 0.0000000000000000e+00  8.6158248035716423e-02 -7.7132335251742443e-02 0.0000000000000000e+00  9.3905687965028642e-02 -6.0288717531422467e-02 0.0000000000000000e+00  9.9670744016861962e-02 -4.1765995421951710e-02 0.0000000000000000e+00  1.0274874969162232e-01 -2.2810833716099148e-02 0.0000000000000000e+00  1.0258351056825164e-01 -4.8910902665223457e-03 0.0000000000000000e+00  0.0000000000000000e+00 0.0000000000000000e+00 0.0000000000000000e+00  9.9709226968467063e-04 -1.9710563947176456e-02 0.0000000000000000e+00  3.8612142184849337e-03 -4.5555341672096260e-02 0.0000000000000000e+00  8.3047799173143217e-03 -7.0973369095587852e-02 0.0000000000000000e+00  1.4038354134817695e-02 -9.2524003804538346e-02 0.0000000000000000e+00  2.0855142455048853e-02 -1.0876705885792685e-01 0.0000000000000000e+00  2.8614771871506954e-02 -1.1939756945388733e-01 0.0000000000000000e+00  3.7196297150245909e-02 -1.2466131348883358e-01 0.0000000000000000e+00  4.6454388925436088e-02 -1.2500363071078652e-01 0.0000000000000000e+00  5.6191529515166108e-02 -1.2088419578630784e-01 0.0000000000000000e+00  6.6143085582508282e-02 -1.1269771362538147e-01 0.0000000000000000e+00  7.5963949461966884e-02 -1.0076113503700321e-01 0.0000000000000000e+00  8.5196734744220320e-02 -8.5354819898330769e-02 0.0000000000000000e+00  9.3225320601284051e-02 -6.6827373386091543e-02 0.0000000000000000e+00  9.9190841739417182e-02 -4.5798894259836347e-02 0.0000000000000000e+00  1.0198539122178649e-01 -2.3485158184205546e-02 0.0000000000000000e+00  1.0016756676657951e-01 -1.5416120649577069e-03 0.0000000000000000e+00  0.0000000000000000e+00 0.0000000000000000e+00 0.0000000000000000e+00  1.0868874460456081e-03 -2.1705730320783358e-02 0.0000000000000000e+00  4.0331601512576792e-03 -4.9198605280353705e-02 0.0000000000000000e+00  8.3541243715514173e-03 -7.5889768959733830e-02 0.0000000000000000e+00  1.3673657015880138e-02 -9.8456844061860879e-02 0.0000000000000000e+00  1.9799288122904966e-02 -1.1557687918148440e-01 0.0000000000000000e+00  2.6657794208651064e-02 -1.2700089547276661e-01 0.0000000000000000e+00  3.4210236149578008e-02 -1.3296772560233511e-01 0.0000000000000000e+00  4.2388410864714315e-02 -1.3387466306739274e-01 0.0000000000000000e+00  5.1062691962843382e-02 -1.3011448292101607e-01 0.0000000000000000e+00  6.0032361244522395e-02 -1.2200723527504388e-01 0.0000000000000000e+00  6.9019178416629884e-02 -1.0978210322971527e-01 0.0000000000000000e+00  7.7641271947639798e-02 -9.3591583425896518e-02 0.0000000000000000e+00  8.5345914933753542e-02 -7.3581772323381339e-02 0.0000000000000000e+00  9.1224520618478536e-02 -5.0100408782629044e-02 0.0000000000000000e+00  9.3886945907854069e-02 -2.4064544174244012e-02 0.0000000000000000e+00  9.0876808734769748e-02 3.2289645174073552e-03 0.0000000000000000e+00  0.0000000000000000e+00 0.0000000000000000e+00 0.0000000000000000e+00  1.2495580290451790e-03 -2.3860633876315852e-02 0.0000000000000000e+00  4.3210548408609264e-03 -5.2811552871311750e-02 0.0000000000000000e+00  8.3843187373931847e-03 -8.0402178809935235e-02 0.0000000000000000e+00  1.2942306301141989e-02 -1.0358951719225513e-01 0.0000000000000000e+00  1.7843542461984819e-02 -1.2126059082976341e-01 0.0000000000000000e+00  2.3120762705113797e-02 -1.3325404134994673e-01 0.0000000000000000e+00  2.8849522723789479e-02 -1.3980017322447977e-01 0.0000000000000000e+00  3.5062557325311064e-02 -1.4123599130704806e-01 0.0000000000000000e+00  4.1716123455931141e-02 -1.3787764216588688e-01 0.0000000000000000e+00  4.8688312714196644e-02 -1.2997092472108715e-01 0.0000000000000000e+00  5.5788665595796920e-02 -1.1767074631863396e-01 0.0000000000000000e+00  6.2758771538005090e-02 -1.0102580948408829e-01 0.0000000000000000e+00  6.9206658800975471e-02 -7.9990416386117397e-02 0.0000000000000000e+00  7.4420285514440965e-02 -5.4519215884206253e-02 0.0000000000000000e+00  7.7112238723108878e-02 -2.4899623414021788e-02 0.0000000000000000e+00  7.4624149738222817e-02 7.8547882896237466e-03 0.0000000000000000e+00  0.0000000000000000e+00 0.0000000000000000e+00 0.0000000000000000e+00  1.5444678768631525e-03 -2.6311886055804812e-02 0.0000000000000000e+00  4.8380139115172657e-03 -5.6383382534650327e-02 0.0000000000000000e+00  8.5195952235175617e-03 -8.4274484499622535e-02 0.0000000000000000e+00  1.1983183894167188e-02 -1.0748899950091019e-01 0.0000000000000000e+00  1.5182155335578455e-02 -1.2523634917998797e-01 0.0000000000000000e+00  1.8300626317197050e-02 -1.3746260216442940e-01 0.0000000000000000e+00  2.1549918562753193e-02 -1.4437473711966989e-01 0.0000000000000000e+00  2.5071276799929702e-02 -1.4622965084294887e-01 0.0000000000000000e+00  2.8908026306349161e-02 -1.4325325104646591e-01 0.0000000000000000e+00  3.3012829120263064e-02 -1.3561445750803544e-01 0.0000000000000000e+00  3.7273911806859024e-02 -1.2341004211484136e-01 0.0000000000000000e+00  4.1539350195616588e-02 -1.0663625902098127e-01 0.0000000000000000e+00  4.5600332517962895e-02 -8.5144925982033867e-02 0.0000000000000000e+00  4.9111051403487233e-02 -5.8673580780450596e-02 0.0000000000000000e+00  5.1256629983640181e-02 -2.7041319788363397e-02 0.0000000000000000e+00  4.8709863177274625e-02 9.7767320196855117e-03 0.0000000000000000e+00  0.0000000000000000e+00 0.0000000000000000e+00 0.0000000000000000e+00  1.9532433998249109e-03 -2.9239231493066533e-02 0.0000000000000000e+00  5.4587196926369468e-03 -5.9875167598468421e-02 0.0000000000000000e+00  8.5421647014690960e-03 -8.7264775791531510e-02 0.0000000000000000e+00  1.0639120725136869e-02 -1.0980973723413014e-01 0.0000000000000000e+00  1.1901751652541986e-02 -1.2711135949119384e-01 0.0000000000000000e+00  1.2676749683739871e-02 -1.3920020478316519e-01 0.0000000000000000e+00  1.3285449845815098e-02 -1.4622597478875390e-01 0.0000000000000000e+00  1.3946232794481647e-02 -1.4834294961364894e-01 0.0000000000000000e+00  1.4764285334714685e-02 -1.4567541190124139e-01 0.0000000000000000e+00  1.5746758977583864e-02 -1.3831120334135269e-01 0.0000000000000000e+00  1.6831230629774301e-02 -1.2629742442810080e-01 0.0000000000000000e+00  1.7916024041101885e-02 -1.0961681365005158e-01 0.0000000000000000e+00  1.8923843130428331e-02 -8.8107843882068826e-02 0.0000000000000000e+00  1.9780311737009195e-02 -6.1382673432015714e-02 0.0000000000000000e+00  2.0081036596386524e-02 -2.9435037878665471e-02 0.0000000000000000e+00  2.1873854966629837e-02 4.9189220619831305e-03 0.0000000000000000e+00  0.0000000000000000e+00 0.0000000000000000e+00 0.0000000000000000e+00  2.0701266887837395e-03 -3.2503167017408269e-02 0.0000000000000000e+00  5.1263884965885081e-03 -6.2887932359914994e-02 0.0000000000000000e+00  7.0870774397496106e-03 -8.9062623143316255e-02 0.0000000000000000e+00  7.7635301861149900e-03 -1.1046804588094326e-01 0.0000000000000000e+00  7.4886748315552872e-03 -1.2701170012972551e-01 0.0000000000000000e+00  6.6412092473779770e-03 -1.3873077481094667e-01 0.0000000000000000e+00  5.5216273431922215e-03 -1.4568347046828334e-01 0.0000000000000000e+00  4.3270625180376419e-03 -1.4791880597758983e-01 0.0000000000000000e+00  3.1624263002570712e-03 -1.4547012776249441e-01 0.0000000000000000e+00  2.0567656622610857e-03 -1.3835558648343441e-01 0.0000000000000000e+00  9.7743009883183036e-04 -1.2657888431361972e-01 0.0000000000000000e+00  -1.5078943015637736e-04 -1.1012129490853771e-01 0.0000000000000000e+00  -1.3583800883192720e-03 -8.8924464618031218e-02 0.0000000000000000e+00  -2.5353899233674488e-03 -6.2944361167414697e-02 0.0000000000000000e+00  -3.1476761587377476e-03 -3.2400463230455992e-02 0.0000000000000000e+00  -3.1633648519532615e-03 -4.4481376561925393e-04 0.0000000000000000e+00  0.0000000000000000e+00 3.4191720086474590e-18 0.0000000000000000e+00  0.0000000000000000e+00 -3.4440542126525198e-02 0.0000000000000000e+00  0.0000000000000000e+00 -6.4289011969513699e-02 0.0000000000000000e+00  0.0000000000000000e+00 -8.9545409528965517e-02 0.0000000000000000e+00  0.0000000000000000e+00 -1.1020973480488064e-01 0.0000000000000000e+00  0.0000000000000000e+00 -1.2628198779725908e-01 0.0000000000000000e+00  0.0000000000000000e+00 -1.3776216850610079e-01 0.0000000000000000e+00  0.0000000000000000e+00 -1.4465027693140584e-01 0.0000000000000000e+00  0.0000000000000000e+00 -