<?xml version="1.0"?>
<VTKFile type="UnstructuredGrid"  version="0.1"  >
<UnstructuredGrid>
<Piece  NumberOfPoints="289" NumberOfCells="512">
<Points>
<DataArray  type="Float64"  NumberOfComponents="3"  format="ascii">0 0 0  0.0625 0 0  0.125 0 0  0.1875 0 0  0.25 0 0  0.3125 0 0  0.375 0 0  0.4375 0 0  0.5 0 0  0.5625 0 0  0.625 0 0  0.6875 0 0  0.75 0 0  0.8125 0 0  0.875 0 0  0.9375 0 0  1 0 0  0 0.0625 0  0.06254883676602896 0.06248669707917171 0  0.1250989952446624 0.06247314821903059 0  0.1876517907930036 0.06245912682885126 0  0.2502084937951303 0.06244445363058167 0  0.3127702890517544 0.06242902772031025 0  0.3753382122325289 0.06241286580585718 0  0.4379130558365166 0.06239615026523471 0  0.5004952391299212 0.06237928345709018 0  0.5630846425549606 0.06236293973604223 0  0.6256804217718734 0.0623480965927825 0  0.6882808491825068 0.06233601163206255 0  0.7508832962153684 0.06232809568120264 0  0.8134845517743052 0.06232562994273686 0  0.8760813891049527 0.06232934870095595 0  0.9386675099382971 0.06233936840463615 0  1.001193229786271 0.06235982649690364 0  0 0.125 0  0.06259634613235025 0.1249736349100654 0  0.1251953667043239 0.1249467548833143 0  0.1877997337516815 0.1249188807934452 0  0.2504120532015364 0.1248896221830589 0  0.3130347989779099 0.1248587372829918 0  0.3756702054292342 0.1248262111003346 0  0.4383201045533935 0.1247923546291247 0  0.5009856985595522 0.1247579229657851 0  0.5636672697221373 0.1247242394844993 0  0.6263638548360666 0.1246932938774273 0  0.6890729588443478 0.1246677502416919 0  0.7517904472760996 0.1246507578660553 0  0.8145107587748828 0.1246454220031209 0  0.8772271479650703 0.1246538581967246 0  0.9399300235335467 0.1246762173947205 0  1.002603396533141 0.1247109948788622 0  0 0.1875 0  0.0626411776689686 0.1874610854086057 0  0.1252864211687553 0.1874213447167914 0  0.1879398130730474 0.1873799980962975 0  0.2506053844814707 0.1873363830812421 0  0.3132870451962344 0.1872900383036099 0  0.3759884567426401 0.1872408176970726 0  0.4387128276073123 0.1871890437418421 0  0.5014626122484835 0.1871357034703413 0  0.5642391032410734 0.187082679108046 0  0.627041921773174 0.1870329799801463 0  0.6898684312119069 0.186990892282724 0  0.7527130897952322 0.1869618661035377 0  0.8155666146841891 0.1869517592222082 0  0.8784143364800164 0.1869645754580062 0  0.9412323997922057 0.1869964089035727 0  1.003982771793574 0.1870186158674034 0  0 0.25 0  0.06268194864459072 0.2499493622748625 0  0.1253693837121064 0.2498975324937906 0  0.1880678459945101 0.2498433659457428 0  0.2507828844556148 0.2497858436549089 0  0.313520009399937 0.2497241699202304 0  0.3762845772882312 0.249657914472359 0  0.4390815783994859 0.2495872168941805 0  0.5019152950040523 0.2495130702812099 0  0.5647887947660474 0.2494376945445393 0  0.6277032193070078 0.2493649897535483 0  0.6906568095606136 0.249301012138377 0  0.7536435446428961 0.249254313388072 0  0.8166510981466625 0.2492357823623126 0  0.8796575167982801 0.2492572706317222 0  0.9426260008821936 0.2493278353535877 0  1.005498969771374 0.2494469109687696 0  0 0.3125 0  0.06271724807693821 0.3124388332257002 0  0.1254414012691375 0.3123760511568202 0  0.1881794765118715 0.3123100742133706 0  0.2509386093858933 0.3122394286585141 0  0.3137260621564866 0.3121628419189407 0  0.3765491598679657 0.312079395578384 0  0.4394151193011206 0.3119887651176895 0  0.50233072538649 0.3118915829905463 0  0.5653017950876066 0.3117899679973987 0  0.6283323450583204 0.3116882632552619 0  0.6914233353518999 0.3115940042278263 0  0.7545707792201251 0.3115190711111638 0  0.8177628867640903 0.3114808219275491 0  0.8809758689935384 0.3115027014012597 0  0.9441686062242759 0.3116133819143067 0  1.007278923508637 0.3118431054740339 0  0 0.375 0  0.06274566261422218 0.3749299220780568 0  0.1254995916325833 0.3748577595539313 0  0.1882702413915412 0.3747814367464419 0  0.2510663468057717 0.3746989291783064 0  0.3138970209522537 0.3746083341931189 0  0.3767717890771812 0.3745080063950761 0  0.4397005232655447 0.3743967975839955 0  0.5026932277046907 0.3742744591752745 0  0.565759603558277 0.3741422905993169 0  0.6289082903564159 0.3740041489192886 0  0.6921456291951613 0.373867965614953 0  0.7554737131844105 0.3737479230069863 0  0.8188873956142064 0.3736673689575458 0  0.882369921642598 0.3736622847968125 0  0.945887261794132 0.3737845083015024 0  1.009382608401464 0.3741028070030856 0  0 0.4375 0  0.06276582871860192 0.4374230971979416 0  0.1255411475747097 0.437343622000408 0  0.1883357251309062 0.4372589684788423 0  0.2511598171125166 0.4371664901623781 0  0.3140243865949877 0.4370635187921039 0  0.3769412843429608 0.4369474434040438 0  0.4399233621639707 0.4368158943889183 0  0.502984479271007 0.4366671057009792 0  0.5661393448734154 0.4365005745794402 0  0.6294031185385455 0.4363182100179582 0  0.692790660154275 0.4361262656679901 0  0.7563152762191347 0.4359384841637954 0  0.819986737832855 0.4357809878773821 0  0.8838082458810312 0.4356993767927667 0  0.9477719287486622 0.4357679050297838 0  1.011852508365697 0.436099149696903 0  0 0.5 0  0.06277651254779124 0.4999188437655978 0  0.1255634998672069 0.499834653389007 0  0.1883718122910537 0.4997443056865272 0  0.2512130224768704 0.4996445127521353 0  0.3140997932653761 0.499531761587433 0  0.3770462454346138 0.4994022932403316 0  0.4400683171242346 0.4992521602770595 0  0.5031841020306705 0.4990774347766156 0  0.56641415430541 0.4988746991997784 0  0.6297817640363641 0.4986420593872503 0  0.693313252261452 0.4983811040484495 0  0.7570384172693151 0.4981005380748736 0  0.8209913533769487 0.4978226518658501 0  0.8852118149708835 0.4975942161255262 0  0.9497467881192332 0.4975032097386041 0  1.01465075989286 0.4977006223945296 0  0 0.5625 0  0.06277671451086975 0.5624176193912657 0  0.1255645340235143 0.5623318277033257 0  0.1883750318695465 0.5622390626745586 0  0.251220741593179 0.5621354544725441 0  0.3141156823763135 0.5620166659670631 0  0.3770759370875902 0.5618777342789364 0  0.4401203018745365 0.5617129324124526 0  0.5032710346656307 0.5615156976142626 0  0.5665547591033313 0.5612787298836122 0  0.6300036612316923 0.5609944794838742 0  0.6936573082081009 0.5606564762613698 0  0.7575658089459426 0.5602624211150544 0  0.8217956795047467 0.5598208488446609 0  0.8864404624643838 0.559364631002745 0  0.9516379708006496 0.5589760385004134 0  1.017593359023084 0.5588263903047912 0  0 0.625 0  0.06276578998515921 0.6249197958691 0  0.1255428441103734 0.6248359547420796 0  0.1883429697523969 0.6247446296966994 0  0.2511791408469465 0.6246415275188157 0  0.3140661691763721 0.624521644631459 0  0.3770214875893217 0.6243789533568387 0  0.4400660948095597 0.6242060241187983 0  0.5032257328122903 0.6239935786719748 0  0.5665324238818817 0.6237299975229814 0  0.6300266443607114 0.6234008793177385 0  0.6937607961551828 0.6229889414609744 0  0.7578055463735665 0.6224750403543644 0  0.8222625053624204 0.6218423288590962 0  0.8872898846344029 0.6210885270788206 0  0.9531507731866753 0.6202568278284032 0  1.020291335516532 0.6194980738563042 0  0 0.6875 0  0.06274357189311683 0.6874255938277868 0  0.1254979945539693 0.6873475387741163 0  0.188274704390606 0.6872619328750186 0  0.2510864398393434 0.6871643219899553 0  0.3139480208673763 0.6870493482686194 0  0.3768772977042205 0.6869102962933611 0  0.4398963478851625 0.68673848325339 0  0.5030330290953149 0.6865224211589013 0  0.5663230591889284 0.686246656273828 0  0.6298129664464353 0.6858901711546201 0  0.6935647500280655 0.6854242517471834 0  0.7576645158576506 0.6848099143700644 0  0.8222411899791821 0.6839959088820222 0  0.8875104691342828 0.6829221102118662 0  0.9538747107270483 0.6815470463740664 0  1.022117371291834 0.6799480262637577 0  0 0.75 0  0.0627104759900793 0.7499350207751078 0  0.1254307500818476 0.7498666416363446 0  0.1881712019571952 0.7497911937574285 0  0.2509435387382518 0.7497044115494981 0  0.3137616175512996 0.7496010343011219 0  0.3766424824913825 0.7494742660851604 0  0.4396077203109631 0.7493150071447834 0  0.5026852692590635 0.7491107243329033 0  0.5659118614567582 0.7488437518824376 0  0.6293363800934936 0.7484886833898704 0  0.6930247457494628 0.7480082852028535 0  0.7570682262512898 0.7473469495033547 0  0.8216019319594468 0.7464200787494093 0  0.8868575250213362 0.7450979060380979 0  0.9533266493925712 0.7431927543935418 0  1.022165161271869 0.7405692675161908 0  0 0.8125 0  0.06266756731200404 0.8124478252710973 0  0.1253432279224032 0.8123927785080087 0  0.1880355953443448 0.8123317383574044 0  0.2507544940258075 0.8122610237784663 0  0.3135117341595336 0.8121760082115704 0  0.3763221211344366 0.8120705798265955 0  0.4392048222896015 0.8119363465369683 0  0.5021852488995282 0.8117614240465182 0  0.5652976387510876 0.8115285401665525 0  0.6285885075018709 0.8112120005059881 0  0.6921210183485442 0.8107726999239113 0  0.7559801969140235 0.8101495888110406 0  0.8202803299074659 0.8092440893137666 0  0.8851894505395803 0.8078887236329232 0  0.9510759284908804 0.8057769901866869 0  1.019482510366555 0.8023042348903232 0  0 0.875 0  0.06261656769797409 0.8749634795090505 0  0.1252389281046075 0.8749248743254608 0  0.1878732709803378 0.8748819071080812 0  0.2505267233564381 0.8748318647359673 0  0.3132079674848787 0.8747712913321402 0  0.3759280720277663 0.8746955499528578 0  0.4387016604078345 0.8745981628377066 0  0.5015485880902033 0.8744697834207655 0  0.5644963433578111 0.874296555553599 0  0.6275833460749244 0.8740574477001716 0  0.6908629213415141 0.873719856342707 0  0.7544060967583313 0.8732321959389766 0  0.8182959810881755 0.8725106374732562 0  0.8825912453929559 0.871411005995757 0  0.9472074511910875 0.8696476475858274 0  1.011760054541804 0.8664682076939754 0  0 0.9375 0  0.06255979054990633 0.9374811988282965 0  0.1251226093146528 0.9374613009049948 0  0.1876917021308906 0.9374391043914638 0  0.2502708330886524 0.9374131686709986 0  0.3128646351973055 0.9373816439170294 0  0.3754790957800799 0.937342024644411 0  0.4381222640417947 0.9372
[...]
<PointData  Vectors="f_95-0"> 
<DataArray  type="Float64"  Name="f_95-0"  NumberOfComponents="3" format="ascii">0.0000000000000000e+00 0.0000000000000000e+00 0.0000000000000000e+00  8.1195908102719484e-04 -2.3912358579222283e-02 0.0000000000000000e+00  2.2764533430577605e-03 -4.7703489230676972e-02 0.0000000000000000e+00  4.0472498754404312e-03 -6.6940675868331828e-02 0.0000000000000000e+00  6.1069423981535264e-03 -8.0254088201369200e-02 0.0000000000000000e+00  8.3810155883715064e-03 -8.7692020292536810e-02 0.0000000000000000e+00  1.0798044908106852e-02 -9.0015039813224410e-02 0.0000000000000000e+00  1.3282957526801489e-02 -8.8239416450369507e-02 0.0000000000000000e+00  1.5757328494458593e-02 -8.3373188439124404e-02 0.0000000000000000e+00  1.8137848608043645e-02 -7.6284681468114082e-02 0.0000000000000000e+00  2.0333557193760680e-02 -6.7658985879235273e-02 0.0000000000000000e+00  2.2241386754974071e-02 -5.8006032573915185e-02 0.0000000000000000e+00  2.3742578628317568e-02 -4.7695786522853181e-02 0.0000000000000000e+00  2.4668065907186523e-02 -3.6979056985542699e-02 0.0000000000000000e+00  2.4815365347706318e-02 -2.6089083465840629e-02 0.0000000000000000e+00  2.4486312739356014e-02 -1.4997829718579585e-02 0.0000000000000000e+00  1.1492857046782370e-02 -1.0508260448987304e-02 0.0000000000000000e+00  0.0000000000000000e+00 0.0000000000000000e+00 0.0000000000000000e+00  6.8816386626182431e-04 -2.5204968399532970e-02 0.0000000000000000e+00  2.1832996328322546e-03 -4.9401084794959652e-02 0.0000000000000000e+00  4.0843225933447037e-03 -6.8962642138483271e-02 0.0000000000000000e+00  6.3139868431369810e-03 -8.2522720545670586e-02 0.0000000000000000e+00  8.7812869909032632e-03 -9.0130317826802031e-02 0.0000000000000000e+00  1.1409018365321582e-02 -9.2543934649062118e-02 0.0000000000000000e+00  1.4115689341066077e-02 -9.0778523544319353e-02 0.0000000000000000e+00  1.6817766531462445e-02 -8.5839436213755546e-02 0.0000000000000000e+00  1.9427197685263548e-02 -7.8589824783373785e-02 0.0000000000000000e+00  2.1849085277020293e-02 -6.9706474747924713e-02 0.0000000000000000e+00  2.3979539385388861e-02 -5.9686848814535821e-02 0.0000000000000000e+00  2.5701029047177873e-02 -4.8878006014978777e-02 0.0000000000000000e+00  2.6876633949354068e-02 -3.7508630333842087e-02 0.0000000000000000e+00  2.7402314043936456e-02 -2.5708233086056045e-02 0.0000000000000000e+00  2.6651996001663358e-02 -1.3357693963555250e-02 0.0000000000000000e+00  2.7133553029015170e-02 -2.6032374940613686e-03 0.0000000000000000e+00  0.0000000000000000e+00 0.0000000000000000e+00 0.0000000000000000e+00  6.0572452658881333e-04 -2.6392163006078918e-02 0.0000000000000000e+00  2.1814439098898045e-03 -5.1249365472664676e-02 0.0000000000000000e+00  4.3910248130022908e-03 -7.1252173663874221e-02 0.0000000000000000e+00  7.0593260583546036e-03 -8.5131433929739445e-02 0.0000000000000000e+00  1.0051475604337480e-02 -9.2955979572301076e-02 0.0000000000000000e+00  1.3262151297484039e-02 -9.5490657701693626e-02 0.0000000000000000e+00  1.6590098437458574e-02 -9.3753258082131252e-02 0.0000000000000000e+00  1.9935901625852355e-02 -8.8748184898755966e-02 0.0000000000000000e+00  2.3196814207927650e-02 -8.1334631537542723e-02 0.0000000000000000e+00  2.6265317348277306e-02 -7.2183636194764034e-02 0.0000000000000000e+00  2.9030065900020934e-02 -6.1786561752307782e-02 0.0000000000000000e+00  3.1381272729660341e-02 -5.0486943216818694e-02 0.0000000000000000e+00  3.3227672441191916e-02 -3.8518262786157303e-02 0.0000000000000000e+00  3.4502635967171930e-02 -2.6035623376126967e-02 0.0000000000000000e+00  3.5438630046996461e-02 -1.3278909671239550e-02 0.0000000000000000e+00  3.5849693591438817e-02 -1.1482097199408251e-03 0.0000000000000000e+00  0.0000000000000000e+00 0.0000000000000000e+00 0.0000000000000000e+00  6.4302043997001410e-04 -2.7597251844758454e-02 0.0000000000000000e+00  2.4278564162404695e-03 -5.3362417148279828e-02 0.0000000000000000e+00  5.0907425500057377e-03 -7.4009203867975493e-02 0.0000000000000000e+00  8.4001426189094508e-03 -8.8345326102403116e-02 0.0000000000000000e+00  1.2174340076412028e-02 -9.6481167584195157e-02 0.0000000000000000e+00  1.6267673164009046e-02 -9.9202821435080926e-02 0.0000000000000000e+00  2.0549450324789446e-02 -9.7536617939704515e-02 0.0000000000000000e+00  2.4893948803576989e-02 -9.2487680940106690e-02 0.0000000000000000e+00  2.9172643459936108e-02 -8.4911925788604209e-02 0.0000000000000000e+00  3.3252952562054912e-02 -7.5477124807290685e-02 0.0000000000000000e+00  3.7002359392761294e-02 -6.4676456611213101e-02 0.0000000000000000e+00  4.0300101114484593e-02 -5.2867800639758246e-02 0.0000000000000000e+00  4.3055274659615672e-02 -4.0322860410201465e-02 0.0000000000000000e+00  4.5249257367596371e-02 -2.7292030245345208e-02 0.0000000000000000e+00  4.6886393485138983e-02 -1.4066777556929142e-02 0.0000000000000000e+00  4.7905013948735739e-02 -1.1117261589260253e-03 0.0000000000000000e+00  0.0000000000000000e+00 0.0000000000000000e+00 0.0000000000000000e+00  7.5257228627396099e-04 -2.8970222259500768e-02 0.0000000000000000e+00  2.8809354661288884e-03 -5.5876418592181447e-02 0.0000000000000000e+00  6.1297050974711501e-03 -7.7391666251763302e-02 0.0000000000000000e+00  1.0237861181418171e-02 -9.2364143538684912e-02 0.0000000000000000e+00  1.4986607049801247e-02 -1.0094919694939217e-01 0.0000000000000000e+00  2.0193339167395775e-02 -1.0396157336760897e-01 0.0000000000000000e+00  2.5694682904629611e-02 -1.0243952683476139e-01 0.0000000000000000e+00  3.1331172403464544e-02 -9.7388609349161478e-02 0.0000000000000000e+00  3.6937733610682491e-02 -8.9659714541167543e-02 0.0000000000000000e+00  4.2342109277290492e-02 -7.9916830371073264e-02 0.0000000000000000e+00  4.7370666515055136e-02 -6.8657903644208707e-02 0.0000000000000000e+00  5.1862112577950252e-02 -5.6262095326223074e-02 0.0000000000000000e+00  5.5687403267401715e-02 -4.3046470191063099e-02 0.0000000000000000e+00  5.8762663070905635e-02 -2.9317140299601172e-02 0.0000000000000000e+00  6.1031499475083330e-02 -1.5394996902712772e-02 0.0000000000000000e+00  6.2449381973981200e-02 -1.5267198803324627e-03 0.0000000000000000e+00  0.0000000000000000e+00 0.0000000000000000e+00 0.0000000000000000e+00  9.0333908012775216e-04 -3.0601962617734603e-02 0.0000000000000000e+00  3.4584276456582587e-03 -5.8900234420307354e-02 0.0000000000000000e+00  7.3832282729924285e-03 -8.1517399827259598e-02 0.0000000000000000e+00  1.2393511656946089e-02 -9.7330113524518425e-02 0.0000000000000000e+00  1.8245320070627714e-02 -1.0653657125314960e-01 0.0000000000000000e+00  2.4728945402456577e-02 -1.0998025310173819e-01 0.0000000000000000e+00  3.1650250988860325e-02 -1.0870903406274292e-01 0.0000000000000000e+00  3.8812121537859436e-02 -1.0372369510433513e-01 0.0000000000000000e+00  4.6003676533749344e-02 -9.5863861315644200e-02 0.0000000000000000e+00  5.2998581882295268e-02 -8.5784268267996969e-02 0.0000000000000000e+00  5.9561981693044878e-02 -7.3983958525127014e-02 0.0000000000000000e+00  6.5466436949332546e-02 -6.0861189579509707e-02 0.0000000000000000e+00  7.0512475095835137e-02 -4.6773548222510029e-02 0.0000000000000000e+00  7.4555428204067367e-02 -3.2081927355780394e-02 0.0000000000000000e+00  7.7518480307274318e-02 -1.7142565819851272e-02 0.0000000000000000e+00  7.9426326588938709e-02 -2.2604447038837533e-03 0.0000000000000000e+00  0.0000000000000000e+00 0.0000000000000000e+00 0.0000000000000000e+00  1.0678698112576901e-03 -3.2539794957142612e-02 0.0000000000000000e+00  4.0753125988295773e-03 -6.2490755218704098e-02 0.0000000000000000e+00  8.7022906551022655e-03 -8.6447093580737405e-02 0.0000000000000000e+00  1.4648462906254827e-02 -1.0332026792502630e-01 0.0000000000000000e+00  2.1659027654782455e-02 -1.1335005563364470e-01 0.0000000000000000e+00  2.9509253485502346e-02 -1.1740293721477403e-01 0.0000000000000000e+00  3.7979594199231324e-02 -1.1652705937444124e-01 0.0000000000000000e+00  4.6834199983335455e-02 -1.1170709300701485e-01 0.0000000000000000e+00  5.5809499535485085e-02 -1.0375991594729635e-01 0.0000000000000000e+00  6.4613308573073416e-02 -9.3320435309832264e-02 0.0000000000000000e+00  7.2933179614904961e-02 -8.0879472352639259e-02 0.0000000000000000e+00  8.0454608020148546e-02 -6.6847517893558153e-02 0.0000000000000000e+00  8.6887707131240152e-02 -5.1624097523030432e-02 0.0000000000000000e+00  9.2017693392333719e-02 -3.5647648801721291e-02 0.0000000000000000e+00  9.5749128414449644e-02 -1.9395885268689135e-02 0.0000000000000000e+00  9.8225279526272719e-02 -3.3014140719563106e-03 0.0000000000000000e+00  0.0000000000000000e+00 0.0000000000000000e+00 0.0000000000000000e+00  1.2213606852885276e-03 -3.4782816608904275e-02 0.0000000000000000e+00  4.6471562906877954e-03 -6.6637323341555824e-02 0.0000000000000000e+00  9.9260859680131396e-03 -9.2166877176435388e-02 0.0000000000000000e+00  1.6757832116953517e-02 -1.1033298088935235e-01 0.0000000000000000e+00  2.4894936522814898e-02 -1.2141582167014253e-01 0.0000000000000000e+00  3.4111721378669073e-02 -1.2629359401513021e-01 0.0000000000000000e+00  4.4170756872357927e-02 -1.2599843968535573e-01 0.0000000000000000e+00  5.4798657233683504e-02 -1.2148160623900088e-01 0.0000000000000000e+00  6.5675516379162885e-02 -1.1352100180309513e-01 0.0000000000000000e+00  7.6436249434378878e-02 -1.0271682883832015e-01 0.0000000000000000e+00  8.6680109229372804e-02 -8.9537989157337627e-02 0.0000000000000000e+00  9.5989546209286042e-02 -7.4396407069081905e-02 0.0000000000000000e+00  1.0396113915835903e-01 -5.7732197731233954e-02 0.0000000000000000e+00  1.1027677203019254e-01 -4.0089736447154925e-02 0.0000000000000000e+00  1.1478209061205284e-01 -2.2149307530398517e-02 0.0000000000000000e+00  1.1773872836101619e-01 -4.5846714964070485e-03 0.0000000000000000e+00  0.0000000000000000e+00 0.0000000000000000e+00 0.0000000000000000e+00  1.3396132062798022e-03 -3.7284674782054987e-02 0.0000000000000000e+00  5.0880753812259623e-03 -7.1257219033334512e-02 0.0000000000000000e+00  1.0884544556162475e-02 -9.8576751890333811e-02 0.0000000000000000e+00  1.8454005748191817e-02 -1.1827268935564066e-01 0.0000000000000000e+00  2.7578489172188067e-02 -1.3066105729501148e-01 0.0000000000000000e+00  3.8047137564053701e-02 -1.3661386367713899e-01 0.0000000000000000e+00  4.9613495148594512e-02 -1.3712432722400514e-01 0.0000000000000000e+00  6.1970117061564571e-02 -1.3308796366409195e-01 0.0000000000000000e+00  7.4741457495821118e-02 -1.2522437655597843e-01 0.0000000000000000e+00  8.7488994105762607e-02 -1.1408242997748119e-01 0.0000000000000000e+00  9.9721788492048907e-02 -1.0009262605434871e-01 0.0000000000000000e+00  1.1091267533226429e-01 -8.3648008560364862e-02 0.0000000000000000e+00  1.2052160770676032e-01 -6.5210268348503339e-02 0.0000000000000000e+00  1.2806855377021004e-01 -4.5437517777785208e-02 0.0000000000000000e+00  1.3324587749371855e-01 -2.5287391031769968e-02 0.0000000000000000e+00  1.3633264481950649e-01 -5.8186275303461557e-03 0.0000000000000000e+00  0.0000000000000000e+00 0.0000000000000000e+00 0.0000000000000000e+00  1.3991943870473665e-03 -3.9953825703071065e-02 0.0000000000000000e+00  5.3137356779632263e-03 -7.6192369403937810e-02 0.0000000000000000e+00  1.1406159145242338e-02 -1.0548174461299556e-01 0.0000000000000000e+00  1.9457578647951085e-02 -1.2693419457815783e-01 0.0000000000000000e+00  2.9303287939313260e-02 -1.4089026644536873e-01 0.0000000000000000e+00  4.0763215969533292e-02 -1.4819051687365598e-01 0.0000000000000000e+00  5.3591489103877538e-02 -1.4976055123131427e-01 0.0000000000000000e+00  6.7452808287818813e-02 -1.4641473432810426e-01 0.0000000000000000e+00  8.1921815148318547e-02 -1.3879493605436272e-01 0.0000000000000000e+00  9.6494388810998311e-02 -1.2738364770074917e-01 0.0000000000000000e+00  1.1060234837672728e-01 -1.1255481592994515e-01 0.0000000000000000e+00  1.2361977376738820e-01 -9.4653685971675824e-02 0.0000000000000000e+00  1.3485939298703389e-01 -7.4123633791258595e-02 0.0000000000000000e+00  1.4361656616622548e-01 -5.1689776706627694e-02 0.0000000000000000e+00  1.4927823667776827e-01 -2.8585571314036697e-02 0.0000000000000000e+00  1.5185286576635967e-01 -6.3803829345167812e-03 0.0000000000000000e+00  0.0000000000000000e+00 0.0000000000000000e+00 0.0000000000000000e+00  1.3812144178894062e-03 -4.2657679865623403e-02 0.0000000000000000e+00  5.2539950661632598e-03 -8.1213684832952063e-02 0.0000000000000000e+00  1.1341073822170830e-02 -1.1259039601292653e-01 0.0000000000000000e+00  1.9508966599258257e-02 -1.3599074754360094e-01 0.0000000000000000e+00  2.9667133565140953e-02 -1.5176042194253742e-01 0.0000000000000000e+00  4.1680416923520390e-02 -1.6067671911604889e-01 0.0000000000000000e+00  5.5313784276195217e-02 -1.6356527943589474e-01 0.0000000000000000e+00  7.0213761953364567e-02 -1.6113354958954557e-01 0.0000000000000000e+00  8.5916920442445713e-02 -1.5392896409298010e-01 0.0000000000000000e+00  1.0187188547344610e-01 -1.4235748331005854e-01 0.0000000000000000e+00  1.1746141563923589e-01 -1.2672698655582390e-01 0.0000000000000000e+00  1.3199387610263127e-01 -1.0731257138226591e-01 0.0000000000000000e+00  1.4467695828409455e-01 -8.4459426324652850e-02 0.0000000000000000e+00  1.5456031306696519e-01 -5.8798786182574399e-02 0.0000000000000000e+00  1.6051983070534293e-01 -3.1719453894281782e-02 0.0000000000000000e+00  1.6179879310903533e-01 -5.3783158628256719e-03 0.0000000000000000e+00  0.0000000000000000e+00 0.0000000000000000e+00 0.0000000000000000e+00  1.2794711121509679e-03 -4.5237258858286673e-02 0.0000000000000000e+00  4.8778613827025778e-03 -8.6039532635501473e-02 0.0000000000000000e+00  1.0603949740795289e-02 -1.1952644879098401e-01 0.0000000000000000e+00  1.8426850110060927e-02 -1.4499218655607210e-01 0.0000000000000000e+00  2.8343237297054548e-02 -1.6276239296677628e-01 0.0000000000000000e+00  4.0273786247012597e-02 -1.7351620720808900e-01 0.0000000000000000e+00  5.4006014370905360e-02 -1.7794708792201080e-01 0.0000000000000000e+00  6.9183103699097540e-02 -1.7663246477981298e-01 0.0000000000000000e+00  8.5323043526971523e-02 -1.7001305719459386e-01 0.0000000000000000e+00  1.0185321464365632e-01 -1.5841722266030375e-01 0.0000000000000000e+00  1.1814022102393167e-01 -1.4209436604028441e-01 0.0000000000000000e+00  1.3349416705961920e-01 -1.2123552237532964e-01 0.0000000000000000e+00  1.4713660927980646e-01 -9.6001826017497655e-02 0.0000000000000000e+00  1.5791721098743539e-01 -6.6755556459113685e-02 0.0000000000000000e+00  1.6413663120222471e-01 -3.4686284267106134e-02 0.0000000000000000e+00  1.6364349712620779e-01 -2.0108298333007882e-03 0.0000000000000000e+00  0.0000000000000000e+00 0.0000000000000000e+00 0.0000000000000000e+00  1.1126241226545751e-03 -4.7539536141285699e-02 0.0000000000000000e+00  4.2277462118020361e-03 -9.0375205370768374e-02 0.0000000000000000e+00  9.2298108828939730e-03 -1.2585999119360960e-01 0.0000000000000000e+00  1.6185401323364313e-02 -1.5338109049712831e-01 0.0000000000000000e+00  2.5181220698460797e-02 -1.7322021368116541e-01 0.0000000000000000e+00  3.6201785399669319e-02 -1.8592621746329982e-01 0.0000000000000000e+00  4.9071936826558409e-02 -1.9203353312268920e-01 0.0000000000000000e+00  6.3454322616978767e-02 -1.9197250579762962e-01 0.0000000000000000e+00  7.8877390061060731e-02 -1.8606973569019875e-01 0.0000000000000000e+00  9.4775929599731856e-02 -1.7457967105867347e-01 0.0000000000000000e+00  1.1053235796721513e-01 -1.5770967256953364e-01 0.0000000000000000e+00  1.2552713057040712e-01 -1.3560498860779141e-01 0.0000000000000000e+00  1.3909591107988770e-01 -1.0830038972022400e-01 0.0000000000000000e+00  1.5019997357935375e-01 -7.5647360855606777e-02 0.0000000000000000e+00  1.5698893424052437e-01 -3.7637170293948197e-02 0.0000000000000000e+00  1.5535290240045993e-01 3.6543845522684260e-03 0.0000000000000000e+00  0.0000000000000000e+00 0.0000000000000000e+00 0.0000000000000000e+00  9.3561065634922868e-04 -4.9467817143725959e-02 0.0000000000000000e+00  3.4437319818835747e-03 -9.3970601442649015e-02 0.0000000000000000e+00  7.4113412369107975e-03 -1.3115763205701206e-01 0.0000000000000000e+00  1.2974721141999303e-02 -1.6053474683768368e-01 0.0000000000000000e+00  2.0306619648629176e-02 -1.8232542158702350e-01 0.0000000000000000e+00  2.9460641232405240e-02 -1.9692462214921713e-01 0.0000000000000000e+00  4.0316541158551919e-02 -2.0469252281267342e-01 0.0000000000000000e+00  5.2588335716538870e-02 -2.0590614348334563e-01 0.0000000000000000e+00  6.5855873000355239e-02 -2.0077521908629839e-01 0.0000000000000000e+00  7.9599898434657604e-02 -1.8947780256224003e-01 0.0000000000000000e+00  9.3243962389365817e-02 -1.7218998312674863e-01 0.0000000000000000e+00  1.0621314782942277e-01 -1.4908418430085799e-01 0.0000000000000000e+00  1.1797203336579450e-01 -1.2019023589747484e-01 0.0000000000000000e+00  1.2818354982549701e-01 -8.4854389775922009e-02 0.0000000000000000e+00  1.3561208995813626e-01 -4.1333350412794193e-02 0.0000000000000000e+00  1.3316971034327044e-01 1.0304512970401509e-02 0.0000000000000000e+00  0.0000000000000000e+00 0.0000000000000000e+00 0.0000000000000000e+00  8.2497302221218587e-04 -5.1041909142409886e-02 0.0000000000000000e+00  2.7174083180873188e-03 -9.6673217720771143e-02 0.0000000000000000e+00  5.4348687549619192e-03 -1.3504377151847879e-01 0.0000000000000000e+00  9.1626681670087026e-03 -1.6584623632129389e-01 0.0000000000000000e+00  1.4149636836548764e-02 -1.8923572567236885e-01 0.0000000000000000e+00  2.0511163622549046e-02 -2.0544155895330321e-01 0.0000000000000000e+00  2.8194082856086423e-02 -2.1465359237806270e-01 0.0000000000000000e+00  3.6998937548573120e-02 -2.1700743618350923e-01 0.0000000000000000e+00  4.6610082713820035e-02 -2.1260307060311981e-01 0.0000000000000000e+00  5.6615684292224688e-02 -2.0153350889001417e-01 0.0000000000000000e+00  6.6517134561499852e-02 -1.8391807733813753e-01 0.0000000000000000e+00  7.5731624797403890e-02 -1.5993072087508217e-01 0.0000000000000000e+00  8.3715400379717281e-02 -1.2975938700984294e-01 0.0000000000000000e+00  9.0361218348221153e-02 -9.3357656461055469e-02 0.0000000000000000e+00  9.5859074580297438e-02 -4.8655841267498855e-02 0.0000000000000000e+00  9.8953989068153184e-02 1.1770374993701762e-02 0.0000000000000000e+00  0.0000000000000000e+00 0.0000000000000000e+00 0.0000000000000000e+00  7.5975088138372979e-04 -5.2333562181638954e-02 0.0000000000000000e+00  1.9985007792027070e-03 -9.8379720610099017e-02 0.0000000000000000e+00  3.3362939519633672e-03 -1.3725722132034032e-01 0.0000000000000000e+00  5.0151528267856965e-03 -1.6887030232713035e-01 0.0000000000000000e+00  7.2918597254165544e-03 -1.9328352624096815e-01 0.0000000000000000e+00  1.0290725031909490e-02 -2.1057298680459946e-01 0.0000000000000000e+00  1.4013221483496806e-02 -2.2079321977358707e-01 0.0000000000000000e+00  1.8367724906280272e-02 -2.2397777408155009e-01 0.0000000000000000e+00  2.3192534998810976e-02 -2.2014727936122203e-01 0.0000000000000000e+00  2.8261406228247986e-02 -2.0931969156343666e-01 0.0000000000000000e+00  3.3263019747516137e-02 -1.9152437227091931e-01 0.0000000000000000e+00  3.7757956384822565e-02 -1.6681907425734741e-01 0.0000000000000000e+00  4.1122008098840243e-02 -1.3534374499142748e-01 0.0000000000000000e+00  4.2350335446502116e-02 -9.7346727694974711e-02 0.0000000000000000e+00  4.1335483246643108e-02 -5.2599115459722838e-02 0.0000000000000000e+00  3.7147375066449898e-02 4.3546029830264787e-03 0.0000000000000000e+00  0.0000000000000000e+00 0.0000000000000000e+00 0.0000000000000000e+00  0.0000000000000000e+00 -5.3017210105430868e-02 0.0000000000000000e+00  0.0000000000000000e+00 -9.8965458863470940e-02 0.0000000000000000e+00  0.0000000000000000e+00 -1.3784474627412024e-01 0.0000000000000000e+00  0.0000000000000000e+00 -1.6965507233737875e-01 0.0000000000000000e+00  0.0000000000000000e+00 -1.9439643705324650e-01 0.0000000000000000e+00  0.0000000000000000e+00 -2.1206884042172344e-01 0.0000000000000000e+00  0.0000000000000000e+00 -2.2267228244280962e-01 0.0000000000000000e+00  0.0000000000000000e+00 -2.262